FOO
135168
    1MOL0     O    1   5.244   7.024   7.918 -0.1622  0.0920 -0.0427
    1MOL0     C    2   5.321   7.105   7.870  0.2425 -0.0485 -0.5015
    1MOL0     O    3   5.285   7.210   7.803 -0.0075  0.1115 -0.0839
    1MOL0     C    4   5.158   7.270   7.810  0.5245  0.2104  0.4881
    1MOL0     C    5   5.044   7.242   7.890  0.3565  0.5218 -0.1339
    1MOL0     C    6   4.930   7.315   7.891  0.2278 -0.2855  0.9579
    1MOL0     C    7   4.925   7.421   7.802  1.3008  0.5053 -0.7655
    1MOL0     O    8   4.812   7.497   7.785 -0.7125  0.5959 -0.4657
    1MOL0     C    9   4.692   7.478   7.870  0.9376  0.2670  0.5031
    1MOL0     C   10   4.703   7.549   7.998  0.4659 -0.3479 -0.7630
    1MOL0     C   11   4.562   7.542   8.080  0.5677 -0.3578  0.1520
    1MOL0     C   12   4.476   7.662   8.060 -0.6272 -1.0224  0.0775
    1MOL0     C   13   4.352   7.647   8.140  1.0675  0.1997 -0.2388
    1MOL0     C   14   4.261   7.535   8.102 -0.4000  0.4992  0.3343
    1MOL0     C   15   4.128   7.544   8.154  0.6916 -0.0418 -0.1746
    1MOL0     C   16   4.046   7.633   8.071  0.4935  0.0387  0.7064
    1MOL0     N   17   3.907   7.621   8.113 -0.0041 -0.7181 -0.0049
    1MOL0     C   18   3.830   7.507   8.124 -0.0073 -0.2747 -0.2555
    1MOL0     C   19   3.705   7.554   8.167  0.2787 -0.3602  0.0884
    1MOL0     C   20   3.579   7.462   8.188 -0.0704 -0.0800  0.1890
    1MOL0     C   21   3.476   7.491   8.084 -0.4903  0.2212  0.4345
    1MOL0     C   22   3.427   7.634   8.104 -0.2206 -0.3662  0.3801
    1MOL0     C   23   3.270   7.645   8.103 -0.6385 -0.1021 -0.3471
    1MOL0     O   24   3.207   7.562   8.204  0.0410  0.2172  0.5696
    1MOL0     C   25   3.074   7.556   8.200  0.1464  1.5201  0.3924
    1MOL0     C   26   2.994   7.566   8.078  0.2419 -0.3148 -0.4631
    1MOL0     C   27   2.857   7.589   8.089  0.5290 -0.6750  0.0415
    1MOL0     C   28   2.792   7.583   8.219  0.0235  0.0852  0.2031
    1MOL0     C   29   2.641   7.590   8.232 -0.2094  0.3440 -0.9124
    1MOL0     O   30   2.592   7.604   8.368  0.1457  0.2044  0.7291
    1MOL0     C   31   2.457   7.575   8.394 -0.4228 -0.0833  0.3027
    1MOL0     C   32   2.364   7.683   8.389  0.6541 -0.3379 -0.1738
    1MOL0     C   33   2.229   7.658   8.413  0.1207  0.3145 -0.8572
    1MOL0     C   34   2.179   7.529   8.455  0.6899  0.1766 -0.3618
    1MOL0     O   35   2.041   7.522   8.461 -0.9865  0.6020  0.0087
    1MOL0     C   36   1.972   7.399   8.467 -0.9125  0.7931 -0.1550
    1MOL0     C   37   2.002   7.319   8.594 -0.2921  0.0912 -0.3148
    1MOL0     C   38   1.903   7.369   8.696  0.2638  0.0701  0.3855
    1MOL0     C   39   1.899   7.294   8.827 -0.0075  0.0923 -0.5523
    1MOL0     C   40   1.799   7.350   8.929  0.1740 -0.2382 -0.4803
    1MOL0     C   41   1.852   7.301   9.064 -0.1063  0.1547 -0.5005
    1MOL0     C   42   1.859   7.147   9.073 -0.4930  0.0998 -0.3420
    1MOL0     C   43   1.727   7.085   9.057  0.1978  0.2723 -0.1664
    1MOL0    Cl   44   1.626   7.142   9.191 -0.0607  0.1637  0.2420
    1MOL0     C   45   2.278   7.424   8.468 -0.4623 -0.4252  0.1763
    1MOL0     C   46   2.415   7.445   8.423  0.7827 -0.2967 -1.0692
    1MOL0     O   47   2.569   7.570   8.137  0.4080 -0.2961  0.6632
    1MOL0     C   48   2.874   7.576   8.335 -0.0173  0.5381  0.0667
    1MOL0     C   49   3.009   7.569   8.320 -1.1019 -0.5220  0.2199
    1MOL0     N   50   3.719   7.689   8.205  0.5775 -0.0421  0.6174
    1MOL0     N   51   3.837   7.726   8.166  0.5570 -0.6023  0.5380
    1MOL0     C   52   5.027   7.451   7.722 -0.9936  0.2119 -0.4773
    1MOL0     C   53   5.145   7.378   7.725  0.1614  0.5869  0.7603
    1MOL0     C   54   5.464   7.079   7.889 -0.0884 -0.3470  0.6730
    1MOL0     C   55   5.557   7.174   7.850 -0.0618 -0.5425 -1.0268
    1MOL0     C   56   5.691   7.153   7.884 -0.1838 -0.6478 -0.2841
    1MOL0     C   57   5.738   7.034   7.936  0.2258 -0.0121  0.2336
    1MOL0     O   58   5.869   6.999   7.943 -0.1872  0.1547  0.3520
    1MOL0     C   59   5.953   7.098   7.994  0.2320 -0.1296 -0.5180
    1MOL0     C   60   6.062   7.031   8.083  0.1440  0.1488 -0.1817
    1MOL0     C   61   6.168   6.968   8.006  0.5398  0.7165  0.1089
    1MOL0     C   62   6.254   6.880   8.092 -0.6962  0.1115  0.0121
    1MOL0     C   63   6.360   6.812   8.018 -0.0269  0.4146  0.1992
    1MOL0     C   64   6.443   6.757   7.942 -0.0983 -0.0091 -0.3718
    1MOL0     C   65   5.647   6.944   7.963 -0.1043 -0.0761 -1.0954
    1MOL0     C   66   5.511   6.958   7.935  0.2471 -0.8722  0.3237
    1MOL0     H   67   5.041   7.149   7.945  4.3768  1.4512  2.0776
    1MOL0     H   68   4.855   7.269   7.954  0.7624 -2.5705  0.0170
    1MOL0     H   69   4.678   7.370   7.869  0.1695  0.3573  0.5598
    1MOL0     H   70   4.602   7.521   7.825  0.4885  0.0090  1.1368
    1MOL0     H   71   4.741   7.651   7.997 -1.1917  0.2937 -1.9584
    1MOL0     H   72   4.771   7.484   8.054 -0.5635 -0.5436  0.3032
    1MOL0     H   73   4.580   7.530   8.187 -0.4663  2.7426  0.7467
    1MOL0     H   74   4.507   7.451   8.054  0.4098  0.0356 -0.9650
    1MOL0     H   75   4.536   7.746   8.096  0.9910 -0.9494 -2.5188
    1MOL0     H   76   4.469   7.685   7.953  0.5757  0.8652  0.3556
    1MOL0     H   77   4.297   7.741   8.126  0.1223 -0.4446 -0.9655
    1MOL0     H   78   4.364   7.640   8.249  1.4878 -1.1916 -0.3537
    1MOL0     H   79   4.308   7.451   8.154 -0.4326 -0.2805 -0.8476
    1MOL0     H   80   4.260   7.504   7.997 -0.8259 -0.4899  0.6167
    1MOL0     H   81   4.084   7.444   8.152  0.5856 -0.0030  0.1731
    1MOL0     H   82   4.125   7.586   8.255  2.8886  0.1560 -0.1325
    1MOL0     H   83   4.055   7.597   7.968  3.0151  0.0192  0.8762
    1MOL0     H   84   4.057   7.742   8.071  0.6631  0.0329 -0.3079
    1MOL0     H   85   3.860   7.408   8.090 -1.5368 -0.4907 -1.0584
    1MOL0     H   86   3.533   7.472   8.287 -1.7307  0.7931 -0.6256
    1MOL0     H   87   3.614   7.360   8.173  0.5989  0.1064  0.4345
    1MOL0     H   88   3.396   7.423   8.114  0.7212 -2.3510 -1.7814
    1MOL0     H   89   3.519   7.464   7.987  0.0851 -1.6436  1.1693
    1MOL0     H   90   3.465   7.680   8.196 -2.1154  0.1204  0.9688
    1MOL0     H   91   3.457   7.695   8.018  0.6951 -1.1599  0.1248
    1MOL0     H   92   3.218   7.632   8.008 -0.2690 -3.2015 -0.1984
    1MOL0     H   93   3.245   7.749   8.128  0.5896  0.1562 -0.1507
    1MOL0     H   94   3.036   7.563   7.978  0.6863  0.2672 -0.3003
    1MOL0     H   95   2.800   7.595   7.997  0.3246  3.4875  0.2698
    1MOL0     H   96   2.409   7.779   8.371  0.2652  0.2607  1.8145
    1MOL0     H   97   2.147   7.729   8.407 -1.2190 -1.2243 -1.8327
    1MOL0     H   98   1.994   7.346   8.374  1.7865  2.5963 -0.6642
    1MOL0     H   99   1.864   7.414   8.456 -1.5635 -3.2332 -0.8865
    1MOL0     H  100   2.098   7.337   8.643  0.7123  0.9620 -2.4978
    1MOL0     H  101   1.981   7.214   8.575 -0.5194  0.1453 -0.3702
    1MOL0     H  102   1.802   7.377   8.656  1.0236 -2.2421 -2.3028
    1MOL0     H  103   1.926   7.473   8.724 -0.3650 -0.1636  1.8589
    1MOL0     H  104   1.873   7.190   8.806  2.3566 -1.0032  1.3878
    1MOL0     H  105   1.998   7.303   8.872 -0.1394  1.5240 -0.4902
    1MOL0     H  106   1.693   7.335   8.907 -0.7491  4.4156 -0.2921
    1MOL0     H  107   1.815   7.458   8.935  1.5788 -0.4015 -0.9797
    1MOL0     H  108   1.799   7.342   9.150  0.4086  0.2693 -0.2286
    1MOL0     H  109   1.955   7.338   9.073 -0.4568  0.6438  2.8452
    1MOL0     H  110   1.917   7.112   8.987 -0.0396 -1.0960  0.4234
    1MOL0     H  111   1.908   7.114   9.165  2.2202  1.0474 -1.3306
    1MOL0     H  112   1.733   6.976   9.051 -2.4713  0.1199 -4.2416
    1MOL0     H  113   1.678   7.114   8.963 -1.6679 -2.3271 -0.1007
    1MOL0     H  114   2.250   7.322   8.494 -1.2003 -0.4001 -0.5000
    1MOL0     H  115   2.480   7.359   8.432  0.4611 -0.5736 -1.3970
    1MOL0     H  116   2.839   7.606   8.434 -0.3865  1.3982 -0.3084
    1MOL0     H  117   3.071   7.585   8.408 -0.4872  0.4710 -0.3749
    1MOL0     H  118   5.024   7.545   7.668 -3.3808  0.7405  0.4421
    1MOL0     H  119   5.229   7.414   7.665 -0.3913 -2.0018 -1.7595
    1MOL0     H  120   5.522   7.271   7.815  0.9258 -0.0543 -0.6997
    1MOL0     H  121   5.763   7.228   7.856 -0.2912 -0.7298 -0.7834
    1MOL0     H  122   5.892   7.172   8.045 -0.6991 -2.1213  1.4162
    1MOL0     H  123   6.003   7.164   7.922 -0.3118 -0.6300 -1.3740
    1MOL0     H  124   6.096   7.106   8.155 -1.4885  0.9595 -0.1903
    1MOL0     H  125   6.026   6.939   8.129  3.8059 -2.4948 -2.1167
    1MOL0     H  126   6.232   7.042   7.958  0.6266 -0.2656 -1.3676
    1MOL0     H  127   6.128   6.908   7.924  1.7104 -1.0091  0.7355
    1MOL0     H  128   6.302   6.933   8.175  3.5015 -0.9662 -1.4904
    1MOL0     H  129   6.185   6.814   8.145 -2.2878  2.2078  0.6952
    1MOL0     H  130   6.527   6.720   7.887  0.8269  2.0146 -0.3935
    1MOL0     H  131   5.669   6.855   8.022  0.8883  1.3209  0.7273
    1MOL0     H  132   5.439   6.889   7.979 -1.2081 -0.8638 -1.8581
    2MOL0     O  133  11.315   5.549   7.084 -0.1996  0.5412  0.0290
    2MOL0     C  134  11.268   5.622   7.170  0.5839 -1.2936 -0.5828
    2MOL0     O  135  11.329   5.656   7.290  0.3807  0.0071  0.4813
    2MOL0     C  136  11.461   5.630   7.301  0.0389 -0.1312 -1.1883
    2MOL0     C  137  11.546   5.726   7.262  0.2581  0.1502  0.4525
    2MOL0     C  138  11.684   5.698   7.267  0.2728 -0.5228  0.0559
    2MOL0     C  139  11.739   5.579   7.317  0.0618  0.4925  0.7658
    2MOL0     O  140  11.876   5.566   7.324 -0.1663  0.2832  0.6915
    2MOL0     C  141  11.942   5.490   7.420 -0.1793  0.3316 -0.5133
    2MOL0     C  142  12.084   5.555   7.465  0.6721 -0.3778 -0.0994
    2MOL0     C  143  12.169   5.440   7.527 -0.5362 -0.1805  0.4081
    2MOL0     C  144  12.309   5.511   7.556  0.5274  0.7191  0.4979
    2MOL0     C  145  12.411   5.394   7.581 -0.6119  0.0620 -0.2950
    2MOL0     C  146  12.553   5.459   7.625  0.2144 -0.3128  0.2020
    2MOL0     C  147  12.663   5.355   7.599  0.3434  0.4861 -0.1778
    2MOL0     C  148  12.802   5.399   7.634 -0.2514  0.8577 -0.0320
    2MOL0     N  149  12.910   5.317   7.571 -0.1083 -0.1313 -0.3770
    2MOL0     C  150  12.932   5.186   7.600  0.7550  0.7491  0.0390
    2MOL0     C  151  13.003   5.140   7.492 -0.4784  1.7110  0.4766
    2MOL0     C  152  13.055   5.001   7.452 -0.0129 -0.7695 -0.6371
    2MOL0     C  153  12.948   4.913   7.383 -0.6504 -0.4450  0.4460
    2MOL0     C  154  13.009   4.795   7.307 -0.4452  0.3334  0.1863
    2MOL0     C  155  12.898   4.705   7.246 -0.6378 -0.1419  0.2590
    2MOL0     O  156  12.851   4.774   7.132 -1.0063  0.0025  0.3881
    2MOL0     C  157  12.757   4.717   7.054  1.2536 -0.9824 -0.3114
    2MOL0     C  158  12.670   4.624   7.113 -0.2116  0.6109 -0.1421
    2MOL0     C  159  12.569   4.568   7.032  0.0293 -1.0158 -0.5479
    2MOL0     C  160  12.560   4.586   6.897 -0.2047  0.1252  0.6094
    2MOL0     C  161  12.460   4.514   6.824  0.7779 -0.1029 -0.0905
    2MOL0     O  162  12.414   4.576   6.714 -0.1933 -0.4149  0.2464
    2MOL0     C  163  12.313   4.517   6.639  0.5202  0.1778  0.0359
    2MOL0     C  164  12.194   4.490   6.700 -0.1274 -1.0699  0.4953
    2MOL0     C  165  12.082   4.434   6.627  0.0943 -0.8561 -0.8282
    2MOL0     C  166  12.096   4.387   6.497  0.9318 -0.0830 -0.7347
    2MOL0     O  167  11.985   4.334   6.423 -0.3649  0.0013 -0.0379
    2MOL0     C  168  11.914   4.225   6.487  0.3619  0.5008  0.5274
    2MOL0     C  169  11.785   4.206   6.406 -0.0103 -1.0448 -0.1416
    2MOL0     C  170  11.730   4.068   6.457 -0.1637  0.3469 -0.5138
    2MOL0     C  171  11.604   4.041   6.375  0.5581  0.5389 -0.2636
    2MOL0     C  172  11.515   3.943   6.445  0.2894  0.4300  0.9706
    2MOL0     C  173  11.382   3.934   6.376 -0.0077  0.1406  0.0413
    2MOL0     C  174  11.378   3.859   6.241  1.0946  0.4502  0.6219
    2MOL0     C  175  11.462   3.731   6.222 -1.1889  0.1522  1.2699
    2MOL0    Cl  176  11.376   3.601   6.298 -0.3621  0.3541  0.0194
    2MOL0     C  177  12.225   4.410   6.437 -0.1812  0.1275 -0.0664
    2MOL0     C  178  12.327   4.480   6.502  0.3778 -0.2612 -0.3045
    2MOL0     O  179  12.423   4.402   6.867  0.1524  0.4411 -0.6839
    2MOL0     C  180  12.661   4.665   6.832  0.3002 -0.5320  0.1665
    2MOL0     C  181  12.753   4.729   6.914 -0.1019  0.8497 -0.2780
    2MOL0     N  182  13.020   5.251   7.405  0.7537 -0.4725  0.0391
    2MOL0     N  183  12.962   5.360   7.453 -0.8565  0.7666 -0.2425
    2MOL0     C  184  11.646   5.477   7.348  0.1271 -0.3992  0.5571
    2MOL0     C  185  11.508   5.509   7.351 -0.0231  0.2066  0.6790
    2MOL0     C  186  11.126   5.663   7.156 -0.0952  0.2443  0.5706
    2MOL0     C  187  11.054   5.617   7.055  0.3675 -0.6934  0.3191
    2MOL0     C  188  10.917   5.642   7.038  0.5206  1.0863  0.6779
    2MOL0     C  189  10.860   5.738   7.124  0.7721 -0.6595 -0.3688
    2MOL0     O  190  10.725   5.759   7.107 -0.3685 -0.5631 -0.1027
    2MOL0     C  191  10.661   5.873   7.166 -0.5585 -1.2791  0.1680
    2MOL0     C  192  10.535   5.903   7.086 -0.1401  0.2227 -0.4367
    2MOL0     C  193  10.438   6.000   7.166 -0.5760 -0.5434  0.2093
    2MOL0     C  194  10.325   5.936   7.240 -1.0505 -0.0009  0.2106
    2MOL0     C  195  10.206   5.921   7.152 -0.4050  0.9870  0.0973
    2MOL0     C  196  10.123   5.890   7.069 -0.8450  0.2338 -0.5786
    2MOL0     C  197  10.934   5.797   7.222 -0.0253 -0.3663  0.7991
    2MOL0     C  198  11.070   5.768   7.238 -0.6686  0.4729  1.0277
    2MOL0     H  199  11.508   5.821   7.225 -0.4201  0.8061  2.6331
    2MOL0     H  200  11.762   5.768   7.239  0.4683 -0.6991  0.1533
    2MOL0     H  201  11.951   5.385   7.392  1.8582  0.2699  0.2318
    2MOL0     H  202  11.873   5.487   7.505  0.0713 -3.1216 -0.2990
    2MOL0     H  203  12.064   5.628   7.544  1.7396  1.6601 -1.6182
    2MOL0     H  204  12.133   5.603   7.380  1.7433 -1.2525  0.0053
    2MOL0     H  205  12.183   5.363   7.451 -1.6814  0.2998 -0.3119
    2MOL0     H  206  12.128   5.379   7.608 -2.4940 -0.4384 -0.7290
    2MOL0     H  207  12.328   5.579   7.472 -1.3951 -0.0689 -0.6440
    2MOL0     H  208  12.311   5.589   7.632  1.4470  1.4653 -0.2627
    2MOL0     H  209  12.415   5.340   7.486 -0.4278 -0.2314 -0.1183
    2MOL0     H  210  12.380   5.337   7.669  2.3806  0.1647  0.9243
    2MOL0     H  211  12.573   5.473   7.732  5.2585 -1.4819 -0.3234
    2MOL0     H  212  12.591   5.554   7.587  3.0413 -1.1052  0.7983
    2MOL0     H  213  12.655   5.259   7.651  1.7363  0.5002  0.1119
    2MOL0     H  214  12.660   5.327   7.493 -3.9181  1.0826 -0.3851
    2MOL0     H  215  12.816   5.394   7.742 -0.4844 -1.9690 -0.0736
    2MOL0     H  216  12.801   5.498   7.586 -5.3921  1.4620  0.7737
    2MOL0     H  217  12.891   5.146   7.692 -1.4654 -0.6829 -1.4557
    2MOL0     H  218  13.109   4.960   7.538  1.9507  2.1771 -0.2925
    2MOL0     H  219  13.144   5.028   7.393  0.1147  0.2025 -0.0245
    2MOL0     H  220  12.902   4.984   7.314  1.5513  2.9875  2.2379
    2MOL0     H  221  12.875   4.881   7.458 -1.6666  0.9851  0.0990
    2MOL0     H  222  13.086   4.823   7.234 -0.3583 -0.2953  0.0346
    2MOL0     H  223  13.072   4.744   7.381  1.1876  1.8661 -0.0794
    2MOL0     H  224  12.829   4.683   7.328 -1.4325 -2.0180 -0.8466
    2MOL0     H  225  12.940   4.605   7.229  1.0480  0.8027 -1.6111
    2MOL0     H  226  12.668   4.603   7.220 -0.1486 -0.2583 -0.3041
    2MOL0     H  227  12.495   4.511   7.087 -0.0587  0.6751  1.1690
    2MOL0     H  228  12.184   4.513   6.806  0.4726 -0.4847  0.4343
    2MOL0     H  229  11.985   4.418   6.672 -1.2891  2.5186 -2.2344
    2MOL0     H  230  11.873   4.245   6.586 -1.3837 -0.2789  0.0112
    2MOL0     H  231  11.973   4.133   6.490  0.8372  0.7957  0.3133
    2MOL0     H  232  11.809   4.203   6.299 -1.0326  0.3797 -0.4484
    2MOL0     H  233  11.701   4.274   6.425 -0.6362 -2.4283  2.5233
    2MOL0     H  234  11.700   4.084   6.561  2.4692 -3.3349  1.0347
    2MOL0     H  235  11.802   3.987   6.437  1.8314  2.0446 -0.5619
    2MOL0     H  236  11.566   4.141   6.352 -0.7850 -0.0661 -0.7329
    2MOL0     H  237  11.637   4.007   6.276 -0.2376  0.2672 -0.4371
    2MOL0     H  238  11.495   3.971   6.549 -1.3921 -0.9595  1.0477
    2MOL0     H  239  11.569   3.848   6.451  0.3546  0.5424  2.7960
    2MOL0     H  240  11.343   4.035   6.362 -1.3182 -0.0339  2.1260
    2MOL0     H  241  11.321   3.882   6.451  4.3229 -3.0209  1.8194
    2MOL0     H  242  11.272   3.848   6.215  1.1355  2.3261 -0.5681
    2MOL0     H  243  11.403   3.929   6.160 -1.3554 -1.0936 -1.6738
    2MOL0     H  244  11.565   3.738   6.258  0.2717 -0.5494 -2.2860
    2MOL0     H  245  11.476   3.706   6.116  1.9488 -1.1061  1.8741
    2MOL0     H  246  12.231   4.365   6.339  1.7587 -0.3645  0.2327
    2MOL0     H  247  12.426   4.488   6.459  1.2191 -0.9891  1.3925
    2MOL0     H  248  12.665   4.669   6.724  0.1278  0.2405  0.1812
    2MOL0     H  249  12.819   4.799   6.863  1.5550  0.9833  1.9084
    2MOL0     H  250  11.677   5.377   7.376  1.6590 -0.5837 -1.5327
    2MOL0     H  251  11.439   5.428   7.374  0.5349 -0.6770 -0.6137
    2MOL0     H  252  11.103   5.559   6.977  0.0816 -0.7587  0.1859
    2MOL0     H  253  10.865   5.581   6.964  3.9616 -1.6365  0.2475
    2MOL0     H  254  10.729   5.959   7.164 -2.4667  0.3627  1.0523
    2MOL0     H  255  10.647   5.853   7.273  1.3988  3.0630  1.4519
    2MOL0     H  256  10.561   5.957   6.994  0.6547  1.2385  0.3611
    2MOL0     H  257  10.484   5.807   7.074  3.6204 -2.0385  0.1305
    2MOL0     H  258  10.400   6.073   7.094 -0.1666 -1.9167 -1.4775
    2MOL0     H  259  10.497   6.058   7.237 -0.8298  0.4051 -0.3426
    2MOL0     H  260  10.356   5.837   7.277 -1.5728 -0.8328 -1.4595
    2MOL0     H  261  10.297   5.987   7.332  0.0459  0.2715  0.4077
    2MOL0     H  262  10.042   5.889   6.999  0.3683  3.9574 -2.2913
    2MOL0     H  263  10.880   5.871   7.281  0.5159  1.0272 -0.3999
    2MOL0     H  264  11.137   5.808   7.313 -0.2019  0.0554  0.8355
    3MOL0     O  265   1.449   1.503   9.065 -0.2802 -0.4579 -0.1289
    3MOL0     C  266   1.501   1.588   8.995  0.3751  0.1261 -0.0035
    3MOL0     O  267   1.439   1.670   8.909  0.6147 -0.0007 -0.0753
    3MOL0     C  268   1.298   1.679   8.919  0.0716  0.5924  0.1388
    3MOL0     C  269   1.228   1.689   8.799 -0.3371 -0.1959 -0.4080
    3MOL0     C  270   1.088   1.721   8.808 -0.0530 -0.0401  0.1203
    3MOL0     C  271   1.024   1.741   8.937  0.1022 -0.1023  0.0724
    3MOL0     O  272   0.892   1.781   8.922  0.3077 -0.3923  0.6660
    3MOL0     C  273   0.807   1.787   9.040  0.6365 -0.0599  0.6190
    3MOL0     C  274   0.774   1.644   9.088  0.2451  0.3766 -0.5209
    3MOL0     C  275   0.666   1.653   9.192 -0.9202 -0.7550  0.6287
    3MOL0     C  276   0.519   1.678   9.156  0.7305  0.0624 -0.1544
    3MOL0     C  277   0.441   1.706   9.285  0.0265  0.1830  0.2779
    3MOL0     C  278   0.294   1.721   9.262 -0.8764 -0.6738  0.4482
    3MOL0     C  279   0.235   1.834   9.348  0.2410  0.1281 -0.2251
    3MOL0     C  280   0.238   1.804   9.501 -0.5136  0.3480  0.6146
    3MOL0     N  281   0.109   1.791   9.570  1.1359 -0.3367 -0.4280
    3MOL0     C  282  -0.014   1.738   9.527  0.1814 -0.8200 -1.5265
    3MOL0     C  283  -0.098   1.751   9.638 -0.3590  0.1396 -0.2291
    3MOL0     C  284  -0.241   1.723   9.641 -0.0934  0.2375 -0.3374
    3MOL0     C  285  -0.288   1.606   9.556 -0.7432 -1.0360 -0.2917
    3MOL0     C  286  -0.377   1.505   9.634  0.1223  0.4358  0.9204
    3MOL0     C  287  -0.511   1.572   9.679 -0.4929 -0.6713 -0.7310
    3MOL0     O  288  -0.607   1.561   9.565  0.2899  0.4571 -0.4802
    3MOL0     C  289  -0.742   1.519   9.587 -0.0558 -0.8393 -0.1483
    3MOL0     C  290  -0.818   1.491   9.473 -0.1474 -0.7346  1.0906
    3MOL0     C  291  -0.959   1.470   9.483  0.3103  0.2575 -0.1119
    3MOL0     C  292  -1.020   1.494   9.608  0.2382  0.1233  0.5821
    3MOL0     C  293  -1.175   1.488   9.605 -0.3021 -0.0349  0.5425
    3MOL0     O  294  -1.243   1.512   9.724 -0.2947  1.0535 -0.3942
    3MOL0     C  295  -1.377   1.486   9.740 -0.3167 -0.6199  0.1606
    3MOL0     C  296  -1.441   1.372   9.686  0.8845  0.2478 -0.0694
    3MOL0     C  297  -1.575   1.360   9.718 -0.6286  0.5097 -0.7838
    3MOL0     C  298  -1.647   1.454   9.790  0.1245 -0.1614 -0.4487
    3MOL0     O  299  -1.777   1.416   9.809  0.6359 -0.0366 -0.3222
    3MOL0     C  300  -1.847   1.468   9.921  0.1232 -1.3726 -0.2943
    3MOL0     C  301  -1.993   1.417   9.918  0.6144 -0.8185  0.2501
    3MOL0     C  302  -2.071   1.456  10.044  0.4506  0.6632  0.4116
    3MOL0     C  303  -2.171   1.563  10.028  1.1970  0.6806 -0.2888
    3MOL0     C  304  -2.192   1.637  10.164 -0.2582 -0.6846 -0.2934
    3MOL0     C  305  -2.268   1.541  10.257  0.6239  0.4477  0.0535
    3MOL0     C  306  -2.314   1.627  10.378 -0.3176 -0.4625 -0.1889
    3MOL0     C  307  -2.312   1.555  10.505  0.4219 -0.7597  0.7073
    3MOL0    Cl  308  -2.135   1.505  10.524  0.0797 -0.0639  0.3457
    3MOL0     C  309  -1.586   1.574   9.842 -0.1052 -0.1240  0.0045
    3MOL0     C  310  -1.446   1.584   9.811  0.4667 -0.2831 -0.4610
    3MOL0     O  311  -1.232   1.481   9.494  0.0068  0.1070  0.7121
    3MOL0     C  312  -0.934   1.487   9.718  0.1890 -0.5487 -0.0164
    3MOL0     C  313  -0.800   1.510   9.709  0.0698  0.0820  0.2195
    3MOL0     N  314  -0.025   1.786   9.749  0.7901  0.0044  0.0404
    3MOL0     N  315   0.094   1.807   9.709 -0.0489  0.1273  0.4521
    3MOL0     C  316   1.099   1.736   9.059  0.0481 -0.3498 -0.6451
    3MOL0     C  317   1.234   1.701   9.045  0.3064 -0.5077  0.1075
    3MOL0     C  318   1.656   1.596   8.994  0.1361 -0.1095  0.3142
    3MOL0     C  319   1.737   1.495   9.053  0.4508 -0.2078  0.9629
    3MOL0     C  320   1.879   1.500   9.029  0.7760  1.0695  0.2608
    3MOL0     C  321   1.937   1.602   8.948 -0.9714 -1.3427  0.8838
    3MOL0     O  322   2.070   1.612   8.905 -0.7030  0.5999  0.0087
    3MOL0     C  323   2.163   1.537   8.983  0.3077  0.3836 -1.0202
    3MOL0     C  324   2.305   1.563   8.943 -0.1657 -0.6843 -0.8217
    3MOL0     C  325   2.347   1.699   8.980  0.5358  0.0310 -0.9857
    3MOL0     C  326   2.491   1.722   8.966 -0.1860 -0.2739  0.5536
    3MOL0     C  327   2.517   1.867   8.937  0.3111 -0.9583 -0.1354
    3MOL0     C  328   2.528   1.991   8.950 -0.5173  0.5725  0.4828
    3MOL0     C  329   1.855   1.697   8.902  0.7078 -0.3022  0.4729
    3MOL0     C  330   1.719   1.702   8.928  0.6657 -0.4639 -0.0369
    3MOL0     H  331   1.277   1.675   8.703 -0.8069 -0.6077 -0.5957
    3MOL0     H  332   1.037   1.750   8.717 -0.2118 -1.3177 -0.2161
    3MOL0     H  333   0.720   1.851   9.021 -3.1154 -3.2099  5.0646
    3MOL0     H  334   0.864   1.845   9.113  1.8960  1.4530 -1.4342
    3MOL0     H  335   0.859   1.597   9.138  0.2897 -1.2477 -2.0092
    3MOL0     H  336   0.747   1.573   9.008  1.7365 -3.8573  2.4007
    3MOL0     H  337   0.705   1.716   9.273  0.6546 -1.2593  0.2951
    3MOL0     H  338   0.651   1.554   9.238 -0.0603 -0.9723  0.4456
    3MOL0     H  339   0.512   1.767   9.092  0.4683 -0.7213 -1.2389
    3MOL0     H  340   0.487   1.588   9.104  0.9479  0.5104 -1.0786
    3MOL0     H  341   0.489   1.793   9.332 -0.1663  0.1373  0.5651
    3MOL0     H  342   0.465   1.622   9.351  2.6293 -0.8926 -1.8839
    3MOL0     H  343   0.252   1.626   9.297 -1.4657  0.3301  2.6561
    3MOL0     H  344   0.262   1.744   9.160  1.4367  1.1703  0.0617
    3MOL0     H  345   0.286   1.930   9.342  0.1605  0.2602  0.9595
    3MOL0     H  346   0.134   1.852   9.311  0.6481 -1.5556 -2.4076
    3MOL0     H  347   0.298   1.878   9.555  0.5932  0.1511 -0.2887
    3MOL0     H  348   0.303   1.719   9.524 -0.1821  0.5499  0.4426
    3MOL0     H  349  -0.037   1.699   9.428 -3.6080 -0.3712 -0.9949
    3MOL0     H  350  -0.300   1.812   9.616  2.0346  1.8515  0.1274
    3MOL0     H  351  -0.274   1.719   9.745 -2.6920  0.2812 -1.0914
    3MOL0     H  352  -0.206   1.543   9.521  2.2870  2.2521  0.2382
    3MOL0     H  353  -0.339   1.650   9.470  1.2286  1.4571 -0.3107
    3MOL0     H  354  -0.407   1.426   9.565 -1.1731 -0.6452  2.6326
    3MOL0     H  355  -0.323   1.457   9.716  0.1059 -0.3386  0.4827
    3MOL0     H  356  -0.486   1.679   9.686  2.7122 -1.0293 -3.7474
    3MOL0     H  357  -0.546   1.532   9.774 -1.3529  2.7671  0.5622
    3MOL0     H  358  -0.772   1.486   9.376 -2.0737  0.7517  0.0320
    3MOL0     H  359  -1.008   1.436   9.393 -0.8922  0.9486  0.2607
    3MOL0     H  360  -1.387   1.293   9.635  0.7883  0.3368 -0.3104
    3MOL0     H  361  -1.630   1.273   9.682 -2.0573  2.9169 -5.0670
    3MOL0     H  362  -1.855   1.577   9.911  2.1160 -0.9526  1.9669
    3MOL0     H  363  -1.806   1.434  10.016 -0.4971 -0.9580  0.1299
    3MOL0     H  364  -1.983   1.310   9.900  4.2457 -0.4315 -0.6825
    3MOL0     H  365  -2.040   1.465   9.831  0.2434 -3.1306 -0.8957
    3MOL0     H  366  -1.994   1.484  10.116  0.1663  1.8620  0.2682
    3MOL0     H  367  -2.128   1.366  10.071  2.4120 -1.5583 -2.3081
    3MOL0     H  368  -2.150   1.640   9.953 -3.1913  3.2041  0.7145
    3MOL0     H  369  -2.265   1.520   9.994  1.2957  0.9277 -0.8901
    3MOL0     H  370  -2.252   1.725  10.139 -0.0303 -0.3878  0.1930
    3MOL0     H  371  -2.098   1.668  10.211 -0.4714 -0.9228  0.3054
    3MOL0     H  372  -2.217   1.449  10.287  0.2695 -0.2158 -1.2758
    3MOL0     H  373  -2.354   1.496  10.208  2.3236  0.3824 -3.1495
    3MOL0     H  374  -2.246   1.712  10.372  1.1537 -1.7114 -3.2713
    3MOL0     H  375  -2.414   1.669  10.360 -0.1700 -0.1696 -0.3397
    3MOL0     H  376  -2.379   1.470  10.520  0.2846 -0.8692 -0.4697
    3MOL0     H  377  -2.347   1.633  10.573 -0.7051  0.8121 -1.5354
    3MOL0     H  378  -1.647   1.649   9.891  1.6378  1.2770  0.1311
    3MOL0     H  379  -1.390   1.670   9.846 -0.5896  1.2248 -2.2837
    3MOL0     H  380  -0.981   1.476   9.815  1.0292 -1.8257  0.2789
    3MOL0     H  381  -0.746   1.537   9.800  5.1514  0.9226 -2.6437
    3MOL0     H  382   1.059   1.741   9.160  0.2538  1.0090 -0.6148
    3MOL0     H  383   1.291   1.694   9.137  0.1716 -0.8343  0.1684
    3MOL0     H  384   1.686   1.426   9.119 -0.7953 -1.1137 -0.8618
    3MOL0     H  385   1.940   1.425   9.078  0.1804  0.3578 -0.0624
    3MOL0     H  386   2.137   1.432   8.971 -3.0766  0.9776  0.0820
    3MOL0     H  387   2.153   1.549   9.092  2.3883 -3.6375 -0.1859
    3MOL0     H  388   2.371   1.491   8.992 -1.2801 -1.6577 -0.7326
    3MOL0     H  389   2.317   1.549   8.835 -2.8026 -0.5304 -1.1858
    3MOL0     H  390   2.307   1.742   9.072 -0.6949  4.7067 -3.3983
    3MOL0     H  391   2.297   1.754   8.899 -2.6693 -1.5114 -0.2043
    3MOL0     H  392   2.565   1.690   9.040  2.7670  1.8004 -1.3073
    3MOL0     H  393   2.534   1.671   8.880 -1.1362  2.3842 -1.6530
    3MOL0     H  394   2.535   2.097   8.966 -0.7456  0.8000 -0.8148
    3MOL0     H  395   1.895   1.770   8.832  0.3279  1.3709  1.9228
    3MOL0     H  396   1.666   1.790   8.891  0.1891 -0.3365  0.9166
    4MOL0     O  397   3.426   6.766   4.804 -0.2811 -0.0194 -0.4599
    4MOL0     C  398   3.382   6.710   4.701 -0.6912 -0.5485 -0.0533
    4MOL0     O  399   3.427   6.586   4.647 -0.4263 -0.6277 -0.5535
    4MOL0     C  400   3.513   6.494   4.702 -0.6393  0.8116  0.0103
    4MOL0     C  401   3.602   6.521   4.806  0.6048 -0.2833 -1.3404
    4MOL0     C  402   3.679   6.412   4.852 -0.7545 -0.6014  0.2226
    4MOL0     C  403   3.668   6.276   4.804  0.6191 -0.0699 -1.5866
    4MOL0     O  404   3.725   6.165   4.855 -0.0071 -0.4357 -0.6853
    4MOL0     C  405   3.806   6.178   4.970  0.4405  0.0691  0.1029
    4MOL0     C  406   3.947   6.230   4.930  0.5708  0.1568  0.7735
    4MOL0     C  407   4.033   6.223   5.054 -0.0149  0.7024  0.5132
    4MOL0     C  408   4.187   6.190   5.012  0.8847  0.5582 -0.5461
    4MOL0     C  409   4.281   6.184   5.136 -0.2184  0.4411 -0.4957
    4MOL0     C  410   4.427   6.149   5.101 -0.6969 -1.2715  0.2568
    4MOL0     C  411   4.514   6.170   5.229  1.0393  1.4897 -0.0476
    4MOL0     C  412   4.660   6.127   5.190  0.2753  0.5142 -0.7256
    4MOL0     N  413   4.727   6.144   5.317 -0.7677 -0.1918 -0.0027
    4MOL0     C  414   4.737   6.043   5.408  0.2080  0.0927  0.1384
    4MOL0     C  415   4.823   6.087   5.502  0.4839  0.5687 -0.6830
    4MOL0     C  416   4.862   6.006   5.618 -1.0256 -0.0687 -0.1367
    4MOL0     C  417   4.760   5.991   5.721 -0.0922 -0.3020 -0.1842
    4MOL0     C  418   4.688   6.117   5.766  0.6484  0.5673 -0.1791
    4MOL0     C  419   4.576   6.185   5.677 -1.2036 -0.5826 -1.0699
    4MOL0     O  420   4.472   6.097   5.637 -0.3426 -0.1537  0.6551
    4MOL0     C  421   4.354   6.126   5.573  0.5387  0.6337  0.8387
    4MOL0     C  422   4.322   6.257   5.538  0.4205 -0.4212  0.9247
    4MOL0     C  423   4.196   6.288   5.476  0.1298  0.2524  0.2376
    4MOL0     C  424   4.096   6.186   5.450  0.6555  0.5238  0.9335
    4MOL0     C  425   3.955   6.216   5.381  0.4002 -0.3622 -0.3096
    4MOL0     O  426   3.912   6.345   5.372  0.1958 -0.6531 -0.2564
    4MOL0     C  427   3.778   6.377   5.340 -0.8835 -0.8737  0.1305
    4MOL0     C  428   3.757   6.507   5.292  0.3262  0.0623 -0.6998
    4MOL0     C  429   3.634   6.556   5.249 -0.6099 -0.0562  0.3455
    4MOL0     C  430   3.525   6.470   5.260  0.0615  0.0755 -0.1768
    4MOL0     O  431   3.401   6.493   5.221 -0.8175 -0.2017 -0.6782
    4MOL0     C  432   3.381   6.612   5.139 -0.8459  0.4388  0.8436
    4MOL0     C  433   3.351   6.738   5.216 -0.8869  0.2587 -0.0422
    4MOL0     C  434   3.241   6.707   5.322 -0.0709  0.0976 -0.0389
    4MOL0     C  435   3.175   6.838   5.357  0.3105  0.0161  0.1207
    4MOL0     C  436   3.061   6.820   5.459  0.9532  0.2018  0.2974
    4MOL0     C  437   2.942   6.741   5.415 -0.3950  0.3227  0.0382
    4MOL0     C  438   2.829   6.778   5.507  0.4321 -0.6852  0.2571
    4MOL0     C  439   2.702   6.707   5.470  0.7308 -0.0227 -0.7194
    4MOL0    Cl  440   2.571   6.802   5.546  0.5247  0.5681 -0.1390
    4MOL0     C  441   3.544   6.340   5.309  0.4755 -0.2127  0.6120
    4MOL0     C  442   3.668   6.293   5.351  0.3200 -0.1513 -0.1406
    4MOL0     O  443   3.899   6.123   5.341 -0.3647 -0.2974  0.0894
    4MOL0     C  444   4.133   6.054   5.491  0.3315 -0.1610 -0.1045
    4MOL0     C  445   4.253   6.025   5.560 -1.0078  0.5501  0.1983
    4MOL0     N  446   4.877   6.204   5.464 -0.3808  0.3757 -0.5043
    4MOL0     N  447   4.822   6.239   5.353  0.5428 -0.4044 -0.4294
    4MOL0     C  448   3.589   6.254   4.692  0.0917  0.1496 -0.7416
    4MOL0     C  449   3.514   6.364   4.644  0.2671 -0.5929 -0.6030
    4MOL0     C  450   3.293   6.785   4.619  1.3883 -0.4776 -0.6259
    4MOL0     C  451   3.220   6.719   4.521  0.1141 -0.3847 -0.0052
    4MOL0     C  452   3.146   6.803   4.426 -0.3065  0.0930 -0.3538
    4MOL0     C  453   3.147   6.937   4.415 -1.0138  0.8793 -0.6628
    4MOL0     O  454   3.094   6.998   4.300  0.0436 -0.3623  0.0010
    4MOL0     C  455   2.955   7.032   4.291 -0.6041 -0.5467 -0.1166
    4MOL0     C  456   2.877   6.920   4.221  0.1537 -0.1302 -0.5527
    4MOL0     C  457   2.948   6.854   4.102  0.2359 -0.3955  0.4540
    4MOL0     C  458   2.862   6.746   4.030 -1.2482  0.1679  0.0229
    4MOL0     C  459   2.930   6.702   3.907  0.1090 -1.0260 -0.3277
    4MOL0     C  460   2.981   6.648   3.810  1.0096 -0.1740 -0.4347
    4MOL0     C  461   3.222   6.994   4.520  0.1570 -0.0456  0.0386
    4MOL0     C  462   3.294   6.924   4.619  0.4779  0.3341  0.8617
    4MOL0     H  463   3.617   6.609   4.868 -4.0693 -0.2813  0.1917
    4MOL0     H  464   3.754   6.435   4.927 -0.7748 -0.1401  0.1048
    4MOL0     H  465   3.807   6.074   5.003 -3.3031 -0.3963 -0.8057
    4MOL0     H  466   3.762   6.246   5.044 -1.7652  1.8688 -2.6245
    4MOL0     H  467   3.935   6.332   4.892  1.0271  0.6980  2.0052
    4MOL0     H  468   3.983   6.170   4.846 -0.9837  0.3693 -0.0782
    4MOL0     H  469   3.997   6.145   5.122 -0.5114  0.3457 -0.1425
    4MOL0     H  470   4.014   6.316   5.108 -1.3876  0.3387  0.7004
    4MOL0     H  471   4.174   6.091   4.966  0.3331  0.5546 -0.3841
    4MOL0     H  472   4.228   6.259   4.937  0.8214  3.7840  2.1385
    4MOL0     H  473   4.247   6.115   5.214  1.1986 -1.5469 -1.5486
    4MOL0     H  474   4.272   6.283   5.182 -0.1325 -0.0382  0.5966
    4MOL0     H  475   4.466   6.217   5.025  0.7179 -1.1871  1.0328
    4MOL0     H  476   4.432   6.043   5.076 -2.5898 -1.4627  0.5079
    4MOL0     H  477   4.510   6.276   5.257  0.8380  1.5454 -0.2776
    4MOL0     H  478   4.476   6.109   5.311  1.7327  0.2543 -0.6191
    4MOL0     H  479   4.698   6.196   5.115  2.0583  1.4997  1.0005
    4MOL0     H  480   4.662   6.023   5.156  3.3530  0.0414  0.6004
    4MOL0     H  481   4.678   5.952   5.400  0.0021  0.3553 -2.2824
    4MOL0     H  482   4.944   6.066   5.659 -1.5607 -0.3900  1.4326
    4MOL0     H  483   4.901   5.908   5.588  0.3134  0.5802 -0.5818
    4MOL0     H  484   4.799   5.935   5.806  1.1379  1.3436  0.3609
    4MOL0     H  485   4.685   5.917   5.690 -0.9698  0.4682  0.0443
    4MOL0     H  486   4.634   6.078   5.853 -0.8296 -3.2599 -2.5667
    4MOL0     H  487   4.762   6.192   5.794  1.0028  0.7132 -1.4173
    4MOL0     H  488   4.631   6.234   5.596 -1.2765  0.9043 -0.2432
    4MOL0     H  489   4.524   6.267   5.727  0.5057  0.7695 -1.4298
    4MOL0     H  490   4.377   6.344   5.574  0.8393 -0.8859  1.4189
    4MOL0     H  491   4.161   6.384   5.440 -2.1340 -0.6373 -0.0924
    4MOL0     H  492   3.845   6.570   5.301  1.1890 -1.2685  0.7076
    4MOL0     H  493   3.633   6.658   5.210 -1.1704 -0.7563 -1.6243
    4MOL0     H  494   3.305   6.593   5.062  1.1661 -4.7292 -0.2501
    4MOL0     H  495   3.463   6.627   5.068 -1.6001  4.3216  0.5613
    4MOL0     H  496   3.322   6.809   5.138 -2.0788  1.1923  1.2016
    4MOL0     H  497   3.439   6.771   5.272 -1.9246  0.0748  1.7926
    4MOL0     H  498   3.291   6.666   5.410 -0.5650  1.3166  0.8315
    4MOL0     H  499   3.165   6.638   5.286 -0.3413 -0.1510  0.9908
    4MOL0     H  500   3.244   6.910   5.403 -1.1997  1.1716  0.6567
    4MOL0     H  501   3.142   6.871   5.259  0.3896 -2.8939 -0.9819
    4MOL0     H  502   3.032   6.916   5.502 -0.3545 -1.1175  2.5963
    4MOL0     H  503   3.095   6.760   5.545 -0.4692 -3.1324 -1.2674
    4MOL0     H  504   2.968   6.635   5.415  1.1691  0.6637 -1.6161
    4MOL0     H  505   2.910   6.741   5.310 -2.2756  2.7763  0.4989
    4MOL0     H  506   2.872   6.749   5.603  0.7189 -0.1010  0.3092
    4MOL0     H  507   2.816   6.887   5.503  0.6028 -0.6716  0.0727
    4MOL0     H  508   2.693   6.600   5.491  0.3632  0.1861  0.2160
    4MOL0     H  509   2.693   6.702   5.361  0.0420 -0.0656 -0.6668
    4MOL0     H  510   3.450   6.286   5.317 -0.0951  0.9606  2.5598
    4MOL0     H  511   3.678   6.189   5.377  0.1783 -0.6075 -1.7693
    4MOL0     H  512   4.064   5.972   5.477  0.6835 -1.0600  2.6553
    4MOL0     H  513   4.274   5.926   5.600 -0.5458  0.6192  0.1346
    4MOL0     H  514   3.568   6.151   4.665 -2.0993  0.4670 -0.4388
    4MOL0     H  515   3.453   6.349   4.555 -0.6909 -0.6947  0.0552
    4MOL0     H  516   3.213   6.612   4.535  4.0560 -0.6135  1.6013
    4MOL0     H  517   3.071   6.764   4.357 -2.0189  3.0582 -0.3274
    4MOL0     H  518   2.971   7.113   4.219  3.7665 -2.6577 -1.8832
    4MOL0     H  519   2.915   7.062   4.388  1.8199 -2.6874  1.6587
    4MOL0     H  520   2.864   6.838   4.292  1.4146 -0.8225 -1.0814
    4MOL0     H  521   2.777   6.954   4.192  0.0316  0.2603  0.2957
    4MOL0     H  522   3.049   6.818   4.123  0.8662 -1.2072 -3.1916
    4MOL0     H  523   2.968   6.928   4.024 -1.3945 -2.1817 -1.8152
    4MOL0     H  524   2.826   6.661   4.088  0.3153 -0.3166  0.3251
    4MOL0     H  525   2.768   6.793   4.000 -0.2915  2.7948  0.8268
    4MOL0     H  526   3.024   6.601   3.724  0.9361  3.1772 -2.4739
    4MOL0     H  527   3.224   7.103   4.516  0.6246 -0.0446 -4.0490
    4MOL0     H  528   3.343   6.978   4.700 -1.1389  2.7800  0.3369
    5MOL0     O  529   6.927   0.341   0.484  0.4348  0.0917  0.0638
    5MOL0     C  530   6.965   0.222   0.493 -1.2847 -0.0131 -0.2701
    5MOL0     O  531   6.897   0.118   0.538 -0.3831 -0.3959 -0.2363
    5MOL0     C  532   6.770   0.142   0.588 -0.5300 -0.3975 -0.0431
    5MOL0     C  533   6.661   0.209   0.522 -1.3921 -0.8440  0.5928
    5MOL0     C  534   6.538   0.237   0.584  0.6186 -0.2797  0.4871
    5MOL0     C  535   6.508   0.189   0.712 -0.6628  0.5010  0.6319
    5MOL0     O  536   6.393   0.219   0.773  0.4741  0.3650  0.1013
    5MOL0     C  537   6.358   0.167   0.908 -0.5979 -0.4481 -0.4259
    5MOL0     C  538   6.222   0.209   0.955 -0.7307  0.8247  0.4002
    5MOL0     C  539   6.117   0.115   0.885  0.0812  1.2192  0.1295
    5MOL0     C  540   5.977   0.147   0.927 -0.5428  0.0089  0.7023
    5MOL0     C  541   5.888   0.096   0.813  0.4098  0.1387 -0.1046
    5MOL0     C  542   5.886  -0.057   0.796  0.3521 -0.2232  0.6774
    5MOL0     C  543   5.843  -0.141   0.915 -0.8790 -0.3213 -0.8380
    5MOL0     C  544   5.887  -0.285   0.912  0.0323  0.1082 -0.9210
    5MOL0     N  545   6.023  -0.313   0.912 -0.1214  0.2538 -0.0547
    5MOL0     C  546   6.088  -0.354   0.794 -0.5434 -0.6281  0.2333
    5MOL0     C  547   6.218  -0.366   0.828  0.6872  0.1411 -0.9732
    5MOL0     C  548   6.319  -0.389   0.730  0.6079  0.1954  0.4654
    5MOL0     C  549   6.393  -0.250   0.707 -0.1237 -0.3841 -0.3233
    5MOL0     C  550   6.496  -0.238   0.599 -0.1698  0.4173  0.4324
    5MOL0     C  551   6.629  -0.315   0.628  0.7498  0.1432 -0.2451
    5MOL0     O  552   6.717  -0.320   0.512 -0.4710 -0.5432 -0.3271
    5MOL0     C  553   6.858  -0.339   0.533  1.2084 -0.9454 -0.7681
    5MOL0     C  554   6.950  -0.266   0.463 -0.0001  1.0372 -0.0890
    5MOL0     C  555   7.084  -0.302   0.476  1.1117  0.0319 -0.2726
    5MOL0     C  556   7.124  -0.402   0.567 -0.2159  0.2672 -0.1954
    5MOL0     C  557   7.269  -0.427   0.580  0.2337 -0.0512  0.5351
    5MOL0     O  558   7.313  -0.495   0.683  0.6120 -0.0210 -0.0348
    5MOL0     C  559   7.450  -0.530   0.691  0.4152  0.2885 -0.4791
    5MOL0     C  560   7.501  -0.525   0.823  0.4737  0.8436  0.0724
    5MOL0     C  561   7.628  -0.573   0.840 -0.0535 -0.9580 -0.5760
    5MOL0     C  562   7.698  -0.626   0.732  0.2179  0.3529 -0.3487
    5MOL0     O  563   7.833  -0.646   0.755  0.1917 -0.3991 -0.3149
    5MOL0     C  564   7.920  -0.538   0.710 -0.1394  0.0790 -0.3755
    5MOL0     C  565   8.070  -0.546   0.724 -0.8682 -0.2784 -0.9823
    5MOL0     C  566   8.109  -0.550   0.879 -0.1945  0.3211  0.3461
    5MOL0     C  567   8.254  -0.597   0.893 -0.0816  0.4274 -0.2227
    5MOL0     C  568   8.299  -0.623   1.040  0.3221 -0.5143  0.5212
    5MOL0     C  569   8.457  -0.661   1.031 -0.5232 -0.1607 -0.2346
    5MOL0     C  570   8.554  -0.548   0.983  0.7666  0.1860 -0.2886
    5MOL0     C  571   8.693  -0.596   0.956 -0.2174  0.4323  0.0349
    5MOL0    Cl  572   8.788  -0.455   0.892  0.6117 -0.0905  0.2813
    5MOL0     C  573   7.641  -0.653   0.612 -0.3158  0.2190  0.0119
    5MOL0     C  574   7.512  -0.604   0.580  0.3144  0.1173 -0.2609
    5MOL0     O  575   7.341  -0.377   0.496 -0.7459 -0.0291 -0.2039
    5MOL0     C  576   7.022  -0.454   0.659  0.1509  0.1982 -0.1172
    5MOL0     C  577   6.890  -0.427   0.635  0.1118 -0.9443 -0.9837
    5MOL0     N  578   6.229  -0.343   0.967  0.2483 -0.1376  0.3605
    5MOL0     N  579   6.106  -0.311   1.013 -1.3552  0.1320 -0.0915
    5MOL0     C  580   6.615   0.119   0.784  0.3378 -0.4043  0.2163
    5MOL0     C  581   6.736   0.097   0.719  0.6966  0.4193 -0.6902
    5MOL0     C  582   7.103   0.171   0.442  0.6080 -0.1291 -0.4969
    5MOL0     C  583   7.167   0.052   0.493  0.4463 -0.6261  0.4129
    5MOL0     C  584   7.305   0.038   0.466 -0.0237  0.3347 -0.3124
    5MOL0     C  585   7.370   0.132   0.392 -0.3993 -0.8502 -0.2977
    5MOL0     O  586   7.506   0.114   0.366  0.5581 -0.1288 -0.7091
    5MOL0     C  587   7.586   0.159   0.472  0.6592  0.5254 -0.3043
    5MOL0     C  588   7.730   0.128   0.454 -0.1470 -1.0675  0.5301
    5MOL0     C  589   7.802   0.211   0.343  0.5788 -0.1046 -0.7181
    5MOL0     C  590   7.944   0.211   0.372  0.0731  0.1889 -0.4445
    5MOL0     C  591   8.025   0.319   0.306 -0.2588 -0.1409  0.0865
    5MOL0     C  592   8.075   0.415   0.253  0.1642  0.1605  0.4049
    5MOL0     C  593   7.305   0.233   0.330 -0.5335  0.2629  0.2939
    5MOL0     C  594   7.175   0.254   0.359 -0.9048  0.4078 -0.4446
    5MOL0     H  595   6.678   0.250   0.424 -1.2058  0.3830  1.1215
    5MOL0     H  596   6.462   0.288   0.526 -0.3621  0.3084  2.2300
    5MOL0     H  597   6.431   0.218   0.971  0.9724  1.8039 -3.8084
    5MOL0     H  598   6.361   0.058   0.913 -2.2813 -0.4720  1.3706
    5MOL0     H  599   6.202   0.313   0.928  1.7766  1.2567 -0.0675
    5MOL0     H  600   6.222   0.191   1.063  0.6341 -1.3383  0.1185
    5MOL0     H  601   6.137   0.008   0.891 -0.6934  1.0813  0.3546
    5MOL0     H  602   6.139   0.141   0.781  3.8656 -0.0970  0.4583
    5MOL0     H  603   5.960   0.103   1.026  0.1071 -1.8594  0.0252
    5MOL0     H  604   5.955   0.254   0.932 -3.0314 -0.3983 -0.3720
    5MOL0     H  605   5.908   0.148   0.719 -1.9889  3.0194  0.8422
    5MOL0     H  606   5.784   0.127   0.829 -0.0590 -2.4264  2.8951
    5MOL0     H  607   5.987  -0.089   0.771  1.3844  2.8657  0.6047
    5MOL0     H  608   5.834  -0.084   0.704 -1.5027  0.4698  1.4608
    5MOL0     H  609   5.865  -0.091   1.010  3.8747 -3.4228  0.0146
    5MOL0     H  610   5.734  -0.138   0.906 -0.8074  0.7012 -1.5484
    5MOL0     H  611   5.847  -0.336   0.824 -0.2185 -0.8040 -0.2883
    5MOL0     H  612   5.837  -0.317   1.003 -1.7095  0.5960 -1.6615
    5MOL0     H  613   6.043  -0.372   0.697 -2.5585 -3.4354  1.5761
    5MOL0     H  614   6.276  -0.424   0.636  1.5795 -3.6676  1.3184
    5MOL0     H  615   6.386  -0.470   0.758  1.4430  1.0019  0.8589
    5MOL0     H  616   6.444  -0.222   0.800  2.0044 -1.7151 -1.0165
    5MOL0     H  617   6.316  -0.174   0.692  0.9163  0.8038  0.2273
    5MOL0     H  618   6.457  -0.267   0.501  0.1610 -0.8322  0.6533
    5MOL0     H  619   6.510  -0.130   0.589 -0.0844  0.2740 -1.2888
    5MOL0     H  620   6.592  -0.415   0.652 -1.3266  1.2186  1.2638
    5MOL0     H  621   6.676  -0.279   0.719  2.2291 -0.9868 -0.5209
    5MOL0     H  622   6.914  -0.191   0.394 -1.3679  3.8012  3.3906
    5MOL0     H  623   7.153  -0.258   0.405 -0.9281 -1.9943 -3.7838
    5MOL0     H  624   7.442  -0.485   0.905  0.6575  0.0243  0.6147
    5MOL0     H  625   7.681  -0.579   0.935  2.9753 -1.2033 -2.1424
    5MOL0     H  626   7.891  -0.458   0.779 -2.4071 -1.3674  0.4693
    5MOL0     H  627   7.887  -0.527   0.606  1.3783  2.6571 -0.6743
    5MOL0     H  628   8.113  -0.456   0.680  0.8759 -0.4495  0.2464
    5MOL0     H  629   8.122  -0.636   0.691 -0.0173 -0.6237  1.1088
    5MOL0     H  630   8.048  -0.622   0.934 -0.1083 -1.2901 -1.5964
    5MOL0     H  631   8.101  -0.449   0.921  1.5533  1.5512 -2.0414
    5MOL0     H  632   8.260  -0.691   0.838 -2.0918 -2.1261  3.4575
    5MOL0     H  633   8.330  -0.532   0.850  1.6695 -1.7559 -0.5939
    5MOL0     H  634   8.240  -0.702   1.088  1.6458 -0.3178  2.5787
    5MOL0     H  635   8.286  -0.529   1.093 -1.5447 -0.7509  0.5551
    5MOL0     H  636   8.468  -0.742   0.958 -0.9096  1.5424 -2.2565
    5MOL0     H  637   8.495  -0.689   1.130 -0.3754  1.8129  0.3152
    5MOL0     H  638   8.514  -0.503   0.891 -0.4432 -1.6739 -0.7362
    5MOL0     H  639   8.548  -0.473   1.062 -1.2470  2.6855 -2.6142
    5MOL0     H  640   8.701  -0.679   0.886 -0.0664  1.6010 -1.3923
    5MOL0     H  641   8.729  -0.629   1.054  1.8116  2.5690  0.1104
    5MOL0     H  642   7.697  -0.720   0.547  0.8441 -1.6581  2.7781
    5MOL0     H  643   7.474  -0.627   0.481  0.4398  1.2953 -0.6019
    5MOL0     H  644   7.055  -0.519   0.739 -2.1885  0.4904  1.1531
    5MOL0     H  645   6.821  -0.476   0.702  1.9582 -0.3959  1.4705
    5MOL0     H  646   6.598   0.084   0.885 -2.1212 -0.6355 -0.2168
    5MOL0     H  647   6.822   0.060   0.775  2.1806  2.2785 -1.6206
    5MOL0     H  648   7.116  -0.017   0.559  0.0662 -1.3502 -0.5972
    5MOL0     H  649   7.362  -0.046   0.505  0.2825  1.1504  1.0595
    5MOL0     H  650   7.552   0.104   0.560  2.6212 -0.2702  0.0013
    5MOL0     H  651   7.563   0.265   0.490  2.0913  0.5819  1.4201
    5MOL0     H  652   7.781   0.130   0.550 -0.1461 -1.2351  0.5327
    5MOL0     H  653   7.732   0.023   0.425 -0.0871 -1.1308  0.7666
    5MOL0     H  654   7.772   0.316   0.341 -0.3405 -0.2660  1.6129
    5MOL0     H  655   7.777   0.177   0.242 -0.2632 -0.2575 -0.4686
    5MOL0     H  656   7.968   0.225   0.478  1.8419 -2.1708 -0.4611
    5MOL0     H  657   7.996   0.119   0.342 -0.8669 -0.4980 -0.0108
    5MOL0     H  658   8.119   0.496   0.198 -2.1589  1.0608 -0.2864
    5MOL0     H  659   7.364   0.299   0.267 -1.6916 -0.8650 -2.1495
    5MOL0     H  660   7.125   0.344   0.323 -0.2971  0.9080 -0.0657
    6MOL0     O  661   4.408   3.866   2.302 -0.8118  0.6487 -0.2318
    6MOL0     C  662   4.344   3.912   2.393 -0.0132  0.6006  0.0030
    6MOL0     O  663   4.365   3.882   2.528  0.5362  0.5368  1.1087
    6MOL0     C  664   4.480   3.816   2.572 -0.0405  0.4607 -0.8406
    6MOL0     C  665   4.569   3.887   2.656 -0.1742  0.1783  0.5920
    6MOL0     C  666   4.674   3.831   2.715 -0.3886 -0.7954 -1.0098
    6MOL0     C  667   4.675   3.690   2.728 -0.1155 -0.8871  0.4140
    6MOL0     O  668   4.751   3.634   2.827  0.3413 -0.0258  0.7532
    6MOL0     C  669   4.884   3.691   2.854  0.3730 -0.5432  0.7098
    6MOL0     C  670   4.965   3.579   2.918  0.0128 -0.5447  0.2807
    6MOL0     C  671   5.103   3.623   2.953 -0.0557  0.1048 -0.5895
    6MOL0     C  672   5.151   3.536   3.068  0.9609  0.6981 -0.0606
    6MOL0     C  673   5.169   3.387   3.026 -0.0570  1.2420 -0.3221
    6MOL0     C  674   5.269   3.368   2.913 -0.0890 -0.1140 -0.0302
    6MOL0     C  675   5.293   3.213   2.889  0.4525 -1.0580 -0.0586
    6MOL0     C  676   5.159   3.150   2.827  0.1091  0.2877  0.6842
    6MOL0     N  677   5.104   3.210   2.706 -0.6456  0.2561  0.4276
    6MOL0     C  678   4.973   3.256   2.699  0.2256  0.4763  0.0274
    6MOL0     C  679   4.965   3.296   2.562 -0.2930  0.6253 -0.0856
    6MOL0     C  680   4.856   3.356   2.481  0.9221 -0.4031 -0.2687
    6MOL0     C  681   4.773   3.256   2.398  0.9413 -0.0943  0.2683
    6MOL0     C  682   4.855   3.189   2.283  0.5008  0.0485  0.0312
    6MOL0     C  683   4.799   3.227   2.143  0.0564 -0.4151  1.3276
    6MOL0     O  684   4.655   3.200   2.148 -0.6402 -0.1690  0.7572
    6MOL0     C  685   4.586   3.196   2.036  0.7217 -0.8823 -0.4403
    6MOL0     C  686   4.445   3.179   2.049 -0.0524 -0.2593 -0.1321
    6MOL0     C  687   4.375   3.159   1.932  0.1844  0.0467 -0.0352
    6MOL0     C  688   4.425   3.166   1.797  1.1832  0.7980 -0.3391
    6MOL0     C  689   4.341   3.155   1.671 -1.3203 -0.3180 -0.0327
    6MOL0     O  690   4.210   3.192   1.670 -0.2817  1.0896 -1.1969
    6MOL0     C  691   4.120   3.184   1.571  0.2546  0.2466  0.0294
    6MOL0     C  692   3.997   3.151   1.626 -0.3701 -0.2218  0.7386
    6MOL0     C  693   3.870   3.130   1.554  0.4676  0.2723  0.5653
    6MOL0     C  694   3.883   3.150   1.415 -0.5566 -1.0634  0.2601
    6MOL0     O  695   3.785   3.131   1.321  0.3601 -0.3835  0.6454
    6MOL0     C  696   3.693   3.030   1.358  0.0792 -0.0998 -1.1219
    6MOL0     C  697   3.623   2.969   1.240 -0.4713 -0.5543 -0.3369
    6MOL0     C  698   3.577   3.075   1.138 -0.4654 -0.3164  0.9979
    6MOL0     C  699   3.448   3.148   1.165 -0.5315  0.5227 -1.0715
    6MOL0     C  700   3.374   3.205   1.043 -0.3510 -0.5913  0.3257
    6MOL0     C  701   3.280   3.315   1.090  0.7418  0.0937 -0.8058
    6MOL0     C  702   3.154   3.327   1.017 -0.7491  0.6547  0.9966
    6MOL0     C  703   3.187   3.380   0.874  0.1970 -0.3903 -0.4709
    6MOL0    Cl  704   3.273   3.540   0.879  0.3639 -0.6664  0.0769
    6MOL0     C  705   4.009   3.174   1.360  1.6730 -0.4177 -0.2667
    6MOL0     C  706   4.123   3.176   1.435  0.2984  1.0808 -0.3090
    6MOL0     O  707   4.411   3.129   1.573  0.0374  0.4269 -0.7123
    6MOL0     C  708   4.559   3.194   1.784  0.0561 -0.8265 -0.6754
    6MOL0     C  709   4.629   3.204   1.901 -0.3979 -0.5191 -0.5244
    6MOL0     N  710   5.085   3.246   2.499 -0.8515  0.0754  0.2506
    6MOL0     N  711   5.174   3.203   2.585  0.1834 -0.2875  0.4200
    6MOL0     C  712   4.587   3.615   2.648 -0.2596 -0.6052 -0.1074
    6MOL0     C  713   4.489   3.673   2.574  0.9631 -0.6795 -0.3596
    6MOL0     C  714   4.216   3.970   2.352  0.1187  0.7148 -0.1139
    6MOL0     C  715   4.135   4.036   2.444  0.0030 -0.2621 -0.3736
    6MOL0     C  716   4.005   4.072   2.419  0.5253  0.1002 -0.2978
    6MOL0     C  717   3.960   4.059   2.290  0.0153  0.1123  0.0869
    6MOL0     O  718   3.832   4.078   2.247  0.2155 -0.6304  0.4793
    6MOL0     C  719   3.749   4.166   2.318  1.1551 -0.4888  0.3215
    6MOL0     C  720   3.640   4.221   2.225 -0.0825 -0.0926  0.5435
    6MOL0     C  721   3.556   4.347   2.270 -0.1023  0.5700  0.4842
    6MOL0     C  722   3.439   4.375   2.182  0.1632  0.0793 -0.5398
    6MOL0     C  723   3.351   4.478   2.242  1.0346 -0.0129  0.2534
    6MOL0     C  724   3.272   4.562   2.270  0.9067  0.1394  0.3526
    6MOL0     C  725   4.040   4.000   2.198 -0.3422 -0.1608 -0.0364
    6MOL0     C  726   4.172   3.956   2.229  0.0701  0.5513  0.2624
    6MOL0     H  727   4.562   3.995   2.666 -3.0991  0.5467 -3.2077
    6MOL0     H  728   4.751   3.891   2.764 -0.4239 -1.2159 -0.4231
    6MOL0     H  729   4.856   3.772   2.922 -0.3717  1.1367 -1.4869
    6MOL0     H  730   4.931   3.721   2.760  1.3987 -2.8319  0.4140
    6MOL0     H  731   4.974   3.484   2.865  0.6930 -0.1636 -0.3056
    6MOL0     H  732   4.914   3.554   3.011 -4.3812  0.6096 -1.5775
    6MOL0     H  733   5.104   3.726   2.989  3.4224  0.6536 -1.8261
    6MOL0     H  734   5.167   3.619   2.864  0.2003 -1.8095 -0.3570
    6MOL0     H  735   5.248   3.577   3.099  1.2637  0.4400 -0.6569
    6MOL0     H  736   5.088   3.542   3.157 -0.1418  2.0383 -0.9014
    6MOL0     H  737   5.072   3.341   3.007 -0.3186  1.7668 -0.2795
    6MOL0     H  738   5.208   3.341   3.118  1.7889  0.9864 -1.1922
    6MOL0     H  739   5.366   3.413   2.935 -0.4402  0.6099  0.0640
    6MOL0     H  740   5.234   3.411   2.819 -0.6034  0.6136  0.4786
    6MOL0     H  741   5.368   3.194   2.812 -1.4308 -0.4256 -2.1741
    6MOL0     H  742   5.319   3.162   2.982 -1.9820 -1.1927  0.6124
    6MOL0     H  743   5.083   3.152   2.906  3.1928 -2.1813  4.0862
    6MOL0     H  744   5.177   3.042   2.815  0.6132 -0.0271  3.6036
    6MOL0     H  745   4.898   3.260   2.777 -0.3539 -0.7472 -0.4375
    6MOL0     H  746   4.891   3.438   2.416 -0.2771 -0.3295 -0.8554
    6MOL0     H  747   4.781   3.408   2.540 -0.9185 -0.9633 -1.9992
    6MOL0     H  748   4.681   3.303   2.363  1.4014 -1.1356 -2.6241
    6MOL0     H  749   4.743   3.184   2.475 -0.9672  3.1434  2.8218
    6MOL0     H  750   4.960   3.222   2.288  0.3495  0.4120  1.0697
    6MOL0     H  751   4.854   3.082   2.306  1.5065  0.4417  2.2136
    6MOL0     H  752   4.858   3.169   2.071  2.6215 -1.1532  3.8282
    6MOL0     H  753   4.826   3.331   2.122 -2.5208  0.7914  3.3796
    6MOL0     H  754   4.399   3.171   2.147  0.9700 -0.4015  0.3413
    6MOL0     H  755   4.270   3.138   1.947  0.5303 -2.5064 -0.7189
    6MOL0     H  756   3.985   3.135   1.733 -3.2169 -3.1826  0.1666
    6MOL0     H  757   3.781   3.102   1.609  0.9791  1.2848  1.9866
    6MOL0     H  758   3.622   3.084   1.420  2.0134  1.6902 -0.3835
    6MOL0     H  759   3.744   2.953   1.416 -2.5908 -3.1801 -2.5192
    6MOL0     H  760   3.539   2.900   1.251 -1.7096  0.6247 -1.9302
    6MOL0     H  761   3.697   2.920   1.176  0.1196  0.8973 -0.8009
    6MOL0     H  762   3.553   3.019   1.046  2.2943  0.1633 -0.1477
    6MOL0     H  763   3.666   3.135   1.115  0.9082 -2.6221 -0.2449
    6MOL0     H  764   3.383   3.080   1.222 -0.3754 -0.0509 -1.5685
    6MOL0     H  765   3.471   3.237   1.224 -0.5700 -2.1530  3.4116
    6MOL0     H  766   3.330   3.129   0.978 -0.2628  0.4576 -0.9947
    6MOL0     H  767   3.455   3.254   0.988  0.6412 -0.8368  1.5170
    6MOL0     H  768   3.344   3.403   1.101  3.2104 -1.5098 -1.6730
    6MOL0     H  769   3.247   3.288   1.191  0.0488 -0.4716 -1.1731
    6MOL0     H  770   3.105   3.231   1.004  0.6037  0.2571 -2.2949
    6MOL0     H  771   3.093   3.398   1.074  1.0269  2.7195  0.4794
    6MOL0     H  772   3.094   3.374   0.817  0.4532 -1.3779 -0.8060
    6MOL0     H  773   3.262   3.316   0.826  2.8181  1.6459  0.6423
    6MOL0     H  774   4.013   3.188   1.252  0.7061 -0.8392 -0.3601
    6MOL0     H  775   4.223   3.172   1.394  0.8438 -0.5996  1.0703
    6MOL0     H  776   4.612   3.205   1.690 -1.1985 -2.6897 -1.6438
    6MOL0     H  777   4.736   3.217   1.890 -0.1392 -2.1215 -0.0532
    6MOL0     H  778   4.594   3.509   2.667  3.7836 -0.4394  0.3269
    6MOL0     H  779   4.410   3.611   2.535 -0.2170  0.6481 -0.1574
    6MOL0     H  780   4.169   4.049   2.546 -1.5434  1.1546  0.0023
    6MOL0     H  781   3.940   4.099   2.501  1.2204 -1.0338  0.6534
    6MOL0     H  782   3.812   4.250   2.349  2.8944 -1.6564  0.1359
    6MOL0     H  783   3.709   4.118   2.408  2.1493 -0.3884  0.8410
    6MOL0     H  784   3.687   4.262   2.135  0.3439 -1.0290  0.3191
    6MOL0     H  785   3.574   4.141   2.191 -0.9274  1.3344 -1.3552
    6MOL0     H  786   3.626   4.432   2.274  1.9863 -0.9447 -1.2063
    6MOL0     H  787   3.521   4.326   2.371 -1.8359  0.6067 -0.0758
    6MOL0     H  788   3.488   4.406   2.089  0.3413 -1.4051 -0.9671
    6MOL0     H  789   3.395   4.275   2.172  1.5718 -0.6313  0.1989
    6MOL0     H  790   3.208   4.641   2.304  3.0348  0.4822  4.1074
    6MOL0     H  791   4.004   3.988   2.096  0.8590  0.3406 -0.5407
    6MOL0     H  792   4.242   3.925   2.152 -1.5710  0.5552 -1.2813
    7MOL0     O  793   8.279   3.092   6.954 -0.3358 -0.9159 -0.0178
    7MOL0     C  794   8.186   3.155   7.004 -0.3660 -0.0236  0.2844
    7MOL0     O  795   8.189   3.212   7.128 -0.0250  0.1882  0.1154
    7MOL0     C  796   8.285   3.173   7.221  0.2797 -0.3405 -0.1683
    7MOL0     C  797   8.357   3.262   7.302  0.0273 -0.3294  0.2174
    7MOL0     C  798   8.459   3.208   7.381 -0.5263 -0.4386 -0.2395
    7MOL0     C  799   8.463   3.070   7.410 -0.1044  0.1584  0.4478
    7MOL0     O  800   8.551   3.016   7.503 -0.1444  0.0070 -0.1942
    7MOL0     C  801   8.627   3.097   7.592 -0.6988 -0.9092  0.0718
    7MOL0     C  802   8.689   3.015   7.701 -1.0256 -0.2603 -0.3387
    7MOL0     C  803   8.775   2.911   7.638 -0.5637  0.2974 -0.4641
    7MOL0     C  804   8.862   2.849   7.745  0.0199  0.6035  0.3368
    7MOL0     C  805   8.903   2.710   7.706 -0.4337  0.7897  0.3076
    7MOL0     C  806   9.003   2.658   7.804 -0.0370 -0.3578 -0.5337
    7MOL0     C  807   9.011   2.504   7.790 -0.0923 -1.2105 -0.2768
    7MOL0     C  808   9.109   2.471   7.674 -0.6395 -0.0962  0.6687
    7MOL0     N  809   9.154   2.339   7.679  0.1243  0.4945 -0.0900
    7MOL0     C  810   9.107   2.235   7.605  0.3119  0.0311 -0.2937
    7MOL0     C  811   9.165   2.125   7.657 -0.0737  0.0274 -0.2372
    7MOL0     C  812   9.115   1.992   7.612 -0.3486 -1.1479 -0.0953
    7MOL0     C  813   8.979   1.959   7.668 -0.1207  0.6209 -0.5496
    7MOL0     C  814   8.913   1.834   7.603  0.1695  0.3855  0.0877
    7MOL0     C  815   8.822   1.864   7.481 -0.7327  0.0388 -0.4981
    7MOL0     O  816   8.779   1.739   7.430 -0.0568  1.2089 -0.2913
    7MOL0     C  817   8.654   1.730   7.373 -0.0636  0.0178  0.9669
    7MOL0     C  818   8.596   1.608   7.355  0.3467  0.2643 -0.2364
    7MOL0     C  819   8.469   1.588   7.305 -0.5230 -0.5589  0.3397
    7MOL0     C  820   8.390   1.695   7.276 -0.2329  0.6609  0.8510
    7MOL0     C  821   8.262   1.670   7.213 -0.4315  0.6539  0.4885
    7MOL0     O  822   8.183   1.567   7.273  0.5326 -0.7014  0.8067
    7MOL0     C  823   8.073   1.513   7.207 -0.7757  1.1089 -0.0123
    7MOL0     C  824   8.040   1.389   7.253  0.5682 -0.4836 -0.1083
    7MOL0     C  825   7.955   1.297   7.196 -0.2421 -0.2386  1.3133
    7MOL0     C  826   7.901   1.336   7.074 -0.1876 -0.8657  0.1834
    7MOL0     O  827   7.816   1.250   7.021 -0.1019  0.4911  0.2353
    7MOL0     C  828   7.760   1.285   6.897 -0.2425 -0.5567  0.2967
    7MOL0     C  829   7.686   1.160   6.852 -0.2307 -0.7994  0.4458
    7MOL0     C  830   7.602   1.188   6.724  0.3121  0.1308 -0.4447
    7MOL0     C  831   7.499   1.302   6.741 -0.5061  0.1868 -0.1897
    7MOL0     C  832   7.373   1.297   6.657 -0.1847  0.6454  0.8696
    7MOL0     C  833   7.261   1.393   6.701 -0.0554 -1.2719  0.0947
    7MOL0     C  834   7.146   1.393   6.594 -0.8170  0.6115  0.2714
    7MOL0     C  835   7.106   1.537   6.546 -0.1491 -0.1097 -0.7475
    7MOL0    Cl  836   6.963   1.599   6.641  0.4128  0.3128  0.3110
    7MOL0     C  837   7.925   1.470   7.027  0.1121 -0.4702  0.1977
    7MOL0     C  838   8.011   1.556   7.097  0.1351 -1.0146 -0.4898
    7MOL0     O  839   8.243   1.733   7.109  0.4146  0.4336 -0.0011
    7MOL0     C  840   8.446   1.824   7.296  0.0475  0.4055 -0.1349
    7MOL0     C  841   8.579   1.845   7.335  0.1502  0.0117  0.2168
    7MOL0     N  842   9.236   2.154   7.764 -0.2208 -0.2691  0.1513
    7MOL0     N  843   9.227   2.283   7.772 -0.2063  0.0649 -0.6960
    7MOL0     C  844   8.370   2.988   7.349 -1.2474 -0.0225 -0.4671
    7MOL0     C  845   8.297   3.040   7.248 -0.0796 -0.0529 -0.5492
    7MOL0     C  846   8.060   3.190   6.922 -0.9079  0.0427 -0.3338
    7MOL0     C  847   8.029   3.127   6.798 -0.8769 -0.0740 -0.4530
    7MOL0     C  848   7.920   3.162   6.726  0.7819  0.1276  0.4832
    7MOL0     C  849   7.835   3.257   6.772 -0.5182 -0.4400 -0.3664
    7MOL0     O  850   7.709   3.280   6.728  1.0365  0.4676  0.5780
    7MOL0     C  851   7.662   3.246   6.598  0.3224  0.6349 -1.1139
    7MOL0     C  852   7.537   3.315   6.570  0.2466  0.6417 -0.8013
    7MOL0     C  853   7.565   3.468   6.598 -0.8992  0.6922  0.7444
    7MOL0     C  854   7.455   3.560   6.526  0.0309  0.1001 -0.0077
    7MOL0     C  855   7.499   3.698   6.544 -0.2808  0.1016  0.6577
    7MOL0     C  856   7.550   3.810   6.556  0.4116  1.0185 -0.9351
    7MOL0     C  857   7.863   3.327   6.889 -0.3547  0.3463 -0.4826
    7MOL0     C  858   7.976   3.298   6.961 -1.4312  0.5570 -0.1798
    7MOL0     H  859   8.353   3.365   7.267  1.5434 -1.0031 -2.1572
    7MOL0     H  860   8.525   3.274   7.436 -0.0170 -0.1998 -1.1084
    7MOL0     H  861   8.578   3.185   7.634  0.2419  0.5164 -1.6574
    7MOL0     H  862   8.716   3.140   7.544  0.9910 -1.0607  2.8427
    7MOL0     H  863   8.617   2.979   7.774  0.6574  0.0265  1.5611
    7MOL0     H  864   8.752   3.086   7.756  0.4980 -3.3749  2.3182
    7MOL0     H  865   8.846   2.955   7.567 -0.3179  2.0478  0.7883
    7MOL0     H  866   8.719   2.833   7.586  2.2847 -1.6985 -0.8027
    7MOL0     H  867   8.951   2.911   7.760  1.0656 -1.1533  1.6355
    7MOL0     H  868   8.812   2.845   7.842  1.5976 -0.5633  1.1474
    7MOL0     H  869   8.935   2.696   7.603 -1.1876  0.5067  0.1042
    7MOL0     H  870   8.802   2.667   7.710 -1.4912  2.9454 -1.1691
    7MOL0     H  871   8.969   2.674   7.907  0.9715 -0.8489 -0.1177
    7MOL0     H  872   9.098   2.711   7.794 -0.3259  0.3034  0.1282
    7MOL0     H  873   9.056   2.475   7.885  1.0243  0.4586 -0.2606
    7MOL0     H  874   8.912   2.458   7.779 -0.0714 -1.1796 -0.5954
    7MOL0     H  875   9.205   2.521   7.692  0.2359 -1.2200 -0.6340
    7MOL0     H  876   9.062   2.504   7.581 -1.2272  3.3215  2.0241
    7MOL0     H  877   9.033   2.246   7.526  1.0477  1.3822 -0.8359
    7MOL0     H  878   9.192   1.925   7.653  1.2423  0.9008  0.4348
    7MOL0     H  879   9.121   1.988   7.503  2.4352  0.7104 -0.0992
    7MOL0     H  880   8.907   2.041   7.667 -0.7581  0.3534  3.5440
    7MOL0     H  881   8.993   1.940   7.775 -2.4149  0.2430 -0.2554
    7MOL0     H  882   8.992   1.764   7.574 -1.5659 -0.9148 -1.7767
    7MOL0     H  883   8.857   1.775   7.675 -0.6535  2.7637  1.5206
    7MOL0     H  884   8.868   1.925   7.403 -0.8331  0.2772 -0.3728
    7MOL0     H  885   8.735   1.923   7.514 -0.6811 -1.0718  1.7910
    7MOL0     H  886   8.652   1.519   7.380 -1.2834 -0.5457  0.6705
    7MOL0     H  887   8.418   1.493   7.301 -0.7372 -0.4370  0.1608
    7MOL0     H  888   8.095   1.351   7.339  0.9242 -0.3644 -0.2805
    7MOL0     H  889   7.931   1.196   7.226  1.5283 -2.2815 -3.1792
    7MOL0     H  890   7.824   1.329   6.821 -0.6853  2.9333  1.7622
    7MOL0     H  891   7.693   1.367   6.924  1.1551  0.7241 -0.0504
    7MOL0     H  892   7.623   1.125   6.935  0.2085 -2.4143  0.1361
    7MOL0     H  893   7.759   1.083   6.825  1.0350 -0.2123  1.9916
    7MOL0     H  894   7.557   1.094   6.694 -2.5865  1.9277 -2.2125
    7MOL0     H  895   7.672   1.212   6.642  2.2139  3.1763  1.8435
    7MOL0     H  896   7.467   1.301   6.846  1.7568 -0.0207  0.5345
    7MOL0     H  897   7.553   1.395   6.719 -3.2269  0.9594 -4.9306
    7MOL0     H  898   7.330   1.197   6.669  3.0204 -0.5405  4.5080
    7MOL0     H  899   7.396   1.309   6.550 -0.1621 -0.2484  0.7659
    7MOL0     H  900   7.307   1.492   6.700  2.5509 -2.2265 -4.3626
    7MOL0     H  901   7.223   1.372   6.801 -1.7188  1.2715  0.0880
    7MOL0     H  902   7.175   1.338   6.505  1.0447 -1.9940  2.3235
    7MOL0     H  903   7.050   1.361   6.635 -2.5770  2.6875 -1.9283
    7MOL0     H  904   7.082   1.537   6.440  1.6804 -1.0090 -1.2029
    7MOL0     H  905   7.192   1.602   6.562 -0.2720  0.5591 -2.5946
    7MOL0     H  906   7.876   1.503   6.937  2.4910 -2.2512 -1.9125
    7MOL0     H  907   8.041   1.642   7.040  0.0914  0.0550  1.0436
    7MOL0     H  908   8.382   1.911   7.285  1.9093  1.9845  1.0962
    7MOL0     H  909   8.635   1.938   7.331  3.2761 -1.7003 -4.2304
    7MOL0     H  910   8.378   2.884   7.376 -0.5734  0.1865  0.1493
    7MOL0     H  911   8.234   2.969   7.196 -0.4528  0.8122 -1.3280
    7MOL0     H  912   8.090   3.051   6.750 -0.3171  0.4325 -0.5501
    7MOL0     H  913   7.890   3.108   6.637  0.6812 -0.7584  1.0438
    7MOL0     H  914   7.652   3.137   6.594  2.0908  0.4667 -2.1394
    7MOL0     H  915   7.740   3.283   6.531 -0.6141  2.7679 -1.0974
    7MOL0     H  916   7.495   3.315   6.469  0.8527  0.9590 -1.0569
    7MOL0     H  917   7.461   3.283   6.642 -0.3303  0.1008 -1.6355
    7MOL0     H  918   7.668   3.485   6.565 -1.0500  3.4190  1.4594
    7MOL0     H  919   7.572   3.496   6.703 -2.2503  0.4318  0.9231
    7MOL0     H  920   7.443   3.542   6.419 -0.6021  0.5016 -0.0110
    7MOL0     H  921   7.359   3.549   6.578 -1.2491 -0.2801 -2.3290
    7MOL0     H  922   7.613   3.894   6.573 -0.2977  1.4144 -0.1523
    7MOL0     H  923   7.816   3.407   6.946 -0.7939 -0.6171  0.5616
    7MOL0     H  924   7.997   3.355   7.051 -0.7411  0.6344 -0.3810
    8MOL0     O  925   7.440   7.762   3.475 -0.6043 -0.1249  0.4503
    8MOL0     C  926   7.432   7.678   3.383 -0.7593  0.2836  0.4983
    8MOL0     O  927   7.319   7.630   3.317  0.3272  0.6388 -0.4308
    8MOL0     C  928   7.197   7.651   3.373 -0.0057  0.1149  0.5850
    8MOL0     C  929   7.146   7.775   3.390  0.2460  0.1609  0.5401
    8MOL0     C  930   7.017   7.788   3.456 -0.2692 -0.0888  0.0450
    8MOL0     C  931   6.938   7.676   3.483  0.1377 -0.9119 -0.3915
    8MOL0     O  932   6.827   7.677   3.566 -0.1202 -0.7596  0.1115
    8MOL0     C  933   6.759   7.797   3.580 -0.1453 -0.0663 -0.0035
    8MOL0     C  934   6.644   7.761   3.676 -1.3225  0.0722  0.5204
    8MOL0     C  935   6.566   7.890   3.716  0.4985 -0.0741 -0.4973
    8MOL0     C  936   6.426   7.868   3.794  0.1194  0.4570  0.4071
    8MOL0     C  937   6.399   7.979   3.892 -0.5170  0.2884  0.1761
    8MOL0     C  938   6.293   7.939   3.999  0.4602 -0.2015  0.9815
    8MOL0     C  939   6.153   7.893   3.947  0.7382 -0.4929  0.5162
    8MOL0     C  940   6.086   7.972   3.833  0.8891 -0.3660  0.2491
    8MOL0     N  941   6.092   8.116   3.819  1.1896  0.6400 -0.0592
    8MOL0     C  942   6.118   8.183   3.700 -0.7672  0.7239  0.1708
    8MOL0     C  943   6.092   8.317   3.735  0.7485 -0.9085 -0.1542
    8MOL0     C  944   6.087   8.436   3.638  0.2301 -0.1939  0.7233
    8MOL0     C  945   6.219   8.483   3.575  0.4592  1.3094  0.8694
    8MOL0     C  946   6.229   8.449   3.428  0.6672  0.2665  0.3501
    8MOL0     C  947   6.324   8.531   3.348  0.3444 -0.7211  1.2477
    8MOL0     O  948   6.466   8.523   3.388  0.4441 -0.6822  0.3785
    8MOL0     C  949   6.565   8.579   3.314  0.3164  1.1133  0.5080
    8MOL0     C  950   6.576   8.544   3.178  0.8508 -0.5823 -0.2947
    8MOL0     C  951   6.671   8.603   3.096  0.4599  0.5635  0.9905
    8MOL0     C  952   6.752   8.703   3.147 -0.0463  0.4417  0.2860
    8MOL0     C  953   6.850   8.768   3.062 -1.0401  0.5262  0.8667
    8MOL0     O  954   6.931   8.866   3.111 -0.5125 -0.5686 -0.2099
    8MOL0     C  955   7.033   8.909   3.031 -0.5928  0.2288  0.0713
    8MOL0     C  956   7.028   9.033   2.960 -0.2142 -0.0840  0.6708
    8MOL0     C  957   7.136   9.079   2.889  0.9189 -0.1594 -0.7112
    8MOL0     C  958   7.257   9.013   2.883 -0.6694 -0.5079  0.0738
    8MOL0     O  959   7.373   9.059   2.829 -0.5033 -0.2962  0.2796
    8MOL0     C  960   7.375   9.181   2.752 -0.1777  0.5338  0.1038
    8MOL0     C  961   7.434   9.294   2.834 -0.1772 -0.3661  0.0133
    8MOL0     C  962   7.576   9.264   2.901  0.3949  0.3708 -0.5685
    8MOL0     C  963   7.626   9.389   2.971  0.1796  0.5113  1.3377
    8MOL0     C  964   7.772   9.383   3.003 -0.6080 -0.0920  0.5084
    8MOL0     C  965   7.866   9.338   2.889 -0.2745  0.3394  0.1215
    8MOL0     C  966   8.013   9.391   2.909 -0.5198  0.3816  0.3852
    8MOL0     C  967   8.079   9.330   3.033 -0.3542  0.4417 -0.1237
    8MOL0    Cl  968   8.097   9.155   3.010  0.1574 -0.0022 -0.3251
    8MOL0     C  969   7.265   8.905   2.969 -1.2251 -0.6856 -0.2884
    8MOL0     C  970   7.161   8.846   3.037  0.0679 -0.0545  0.1129
    8MOL0     O  971   6.859   8.716   2.949 -0.8465 -0.1005  0.7028
    8MOL0     C  972   6.741   8.731   3.287 -0.0395 -0.5540  0.1013
    8MOL0     C  973   6.658   8.666   3.374 -0.4007  0.0003  0.0284
    8MOL0     N  974   6.062   8.331   3.867  0.8945  0.5651 -0.3547
    8MOL0     N  975   6.058   8.203   3.915  0.2788 -0.5862  0.7461
    8MOL0     C  976   6.997   7.553   3.465 -0.1024  0.4574  0.2799
    8MOL0     C  977   7.123   7.536   3.406  0.7458  0.2599  0.7280
    8MOL0     C  978   7.554   7.658   3.307  0.0194  0.5630  0.5054
    8MOL0     C  979   7.573   7.546   3.221  0.3700  0.2768  0.0259
    8MOL0     C  980   7.691   7.519   3.166  0.2231  0.1488  0.4848
    8MOL0     C  981   7.802   7.602   3.189 -0.0382 -0.0870  0.6334
    8MOL0     O  982   7.926   7.581   3.137 -0.2684  0.0651  0.2215
    8MOL0     C  983   7.974   7.451   3.114 -0.2941  0.0310  0.1025
    8MOL0     C  984   8.044   7.460   2.987  0.3245 -0.1179 -0.7393
    8MOL0     C  985   8.133   7.341   2.955 -0.1046 -0.5556  0.1183
    8MOL0     C  986   8.189   7.319   2.808  0.0275 -0.3871  0.2593
    8MOL0     C  987   8.240   7.444   2.756  0.2090  0.4255  0.2694
    8MOL0     C  988   8.263   7.551   2.704 -0.6956 -0.2787 -0.3337
    8MOL0     C  989   7.784   7.722   3.252 -0.1953  0.1788 -1.1529
    8MOL0     C  990   7.661   7.749   3.314  0.0714 -0.2055  0.0952
    8MOL0     H  991   7.214   7.854   3.358  2.0467 -3.0949 -5.1816
    8MOL0     H  992   6.991   7.889   3.486  1.1404 -0.4144  2.7260
    8MOL0     H  993   6.723   7.839   3.485 -2.7691  1.0914  1.3963
    8MOL0     H  994   6.826   7.869   3.628  0.3977  1.2683 -2.5955
    8MOL0     H  995   6.686   7.703   3.759  1.7345  0.0768 -0.8824
    8MOL0     H  996   6.579   7.691   3.623 -0.4937 -0.1164 -0.2789
    8MOL0     H  997   6.540   7.954   3.631  2.4357 -0.5044 -1.4565
    8MOL0     H  998   6.625   7.942   3.792 -0.9040  0.3923  0.3038
    8MOL0     H  999   6.344   7.846   3.726  1.3001 -0.3701 -0.8158
    8MOL0     H 1000   6.432   7.776   3.853  3.2672 -1.3158 -2.3069
    8MOL0     H 1001   6.345   8.062   3.846 -2.3200 -1.2325 -0.6111
    8MOL0     H 1002   6.489   8.020   3.939 -0.5660  2.1397 -1.2383
    8MOL0     H 1003   6.281   8.028   4.062  1.2535 -0.5522  1.6459
    8MOL0     H 1004   6.326   7.865   4.072 -1.5205 -2.1179  0.0349
    8MOL0     H 1005   6.168   7.795   3.901 -0.8994  0.2235 -1.7687
    8MOL0     H 1006   6.090   7.878   4.035  0.4357  0.0925  0.4053
    8MOL0     H 1007   5.982   7.940   3.839  0.9195 -0.4512  0.3224
    8MOL0     H 1008   6.123   7.930   3.739  0.2569  1.7510 -1.0270
    8MOL0     H 1009   6.142   8.136   3.606 -0.6124 -1.7677  1.3714
    8MOL0     H 1010   6.036   8.521   3.685  1.9593  0.9029  0.6910
    8MOL0     H 1011   6.023   8.409   3.553  1.0331 -1.9596  0.6279
    8MOL0     H 1012   6.306   8.445   3.629 -0.2535  0.6292  1.5581
    8MOL0     H 1013   6.216   8.591   3.586 -2.7949  1.6730 -1.8147
    8MOL0     H 1014   6.261   8.346   3.409 -0.9288  0.2125 -2.5569
    8MOL0     H 1015   6.131   8.457   3.381 -0.2831  0.7890  2.3418
    8MOL0     H 1016   6.285   8.631   3.328  0.2496 -1.3908 -2.7992
    8MOL0     H 1017   6.325   8.481   3.251 -1.7547 -0.3201  0.9719
    8MOL0     H 1018   6.505   8.468   3.146 -0.0661  0.4869 -0.8851
    8MOL0     H 1019   6.690   8.564   2.996 -0.9737 -1.4227  1.4172
    8MOL0     H 1020   6.946   9.104   2.959  0.7107  1.0794 -1.8213
    8MOL0     H 1021   7.115   9.175   2.843  0.4421 -1.0192 -2.3453
    8MOL0     H 1022   7.284   9.200   2.695 -0.5261  0.2018  0.5460
    8MOL0     H 1023   7.450   9.165   2.674  0.5258 -1.1895  1.0811
    8MOL0     H 1024   7.362   9.302   2.916 -1.1310  1.1249 -0.9359
    8MOL0     H 1025   7.442   9.383   2.772 -2.6095 -0.9461 -1.2564
    8MOL0     H 1026   7.633   9.223   2.817 -1.5526 -0.9616 -1.3185
    8MOL0     H 1027   7.559   9.191   2.980 -4.2181  3.0573  1.3027
    8MOL0     H 1028   7.616   9.474   2.903  0.4153 -0.9282 -0.6065
    8MOL0     H 1029   7.576   9.404   3.067 -0.8271  1.3557  0.6957
    8MOL0     H 1030   7.799   9.314   3.083 -0.6424 -0.7629 -0.0543
    8MOL0     H 1031   7.790   9.488   3.029 -1.3314  0.2189 -0.1710
    8MOL0     H 1032   7.832   9.369   2.790  1.0159  3.3166  0.4870
    8MOL0     H 1033   7.875   9.230   2.906  0.5210  0.9135  4.4849
    8MOL0     H 1034   8.072   9.358   2.822 -0.5141 -0.9597  0.8665
    8MOL0     H 1035   8.011   9.500   2.902  0.6532  0.3877 -0.1106
    8MOL0     H 1036   8.030   9.327   3.131  0.2909 -2.3678  0.2072
    8MOL0     H 1037   8.179   9.375   3.033 -0.9731  1.8803  0.2265
    8MOL0     H 1038   7.360   8.854   2.983 -2.6107 -3.4043  0.0102
    8MOL0     H 1039   7.173   8.750   3.086  1.0148 -0.5192 -0.9911
    8MOL0     H 1040   6.810   8.800   3.333 -1.7573  1.4605 -0.2058
    8MOL0     H 1041   6.653   8.702   3.476 -3.9542  0.6286 -0.2214
    8MOL0     H 1042   6.943   7.463   3.494 -1.0855  0.8606 -0.2486
    8MOL0     H 1043   7.162   7.439   3.378 -0.9368  0.1669 -1.5657
    8MOL0     H 1044   7.485   7.483   3.205  0.4621  0.3661 -0.8989
    8MOL0     H 1045   7.703   7.428   3.108  0.7674 -0.0885  0.9557
    8MOL0     H 1046   7.895   7.376   3.117  0.1271 -0.3921  1.1995
    8MOL0     H 1047   8.047   7.424   3.190 -0.0158 -0.7202 -0.4132
    8MOL0     H 1048   7.961   7.463   2.916 -1.6039 -0.6612  1.3628
    8MOL0     H 1049   8.094   7.557   2.984  0.0673 -0.0111 -1.7761
    8MOL0     H 1050   8.084   7.245   2.976  1.2454 -1.2079  0.4407
    8MOL0     H 1051   8.219   7.354   3.021 -2.2176  0.9464  2.7681
    8MOL0     H 1052   8.265   7.239   2.804  1.4000  0.7801  1.4551
    8MOL0     H 1053   8.100   7.294   2.750 -1.5925  3.0347  1.0354
    8MOL0     H 1054   8.292   7.640   2.652 -0.8360 -0.0037  0.0530
    8MOL0     H 1055   7.861   7.798   3.247  0.5783 -0.5955 -1.1409
    8MOL0     H 1056   7.648   7.845   3.364 -0.1911 -0.1191 -0.1409
    9MOL0     O 1057   9.299   7.824   7.490 -0.0512 -0.4216 -0.0229
    9MOL0     C 1058   9.376   7.735   7.454  0.3791 -0.3694 -0.5760
    9MOL0     O 1059   9.339   7.607   7.445 -0.0596  0.8885 -0.0263
    9MOL0     C 1060   9.203   7.579   7.468 -0.6169  0.3225 -1.2548
    9MOL0     C 1061   9.102   7.643   7.398  1.3107 -0.0282  0.7863
    9MOL0     C 1062   8.959   7.621   7.426 -0.2113  0.2578 -0.2611
    9MOL0     C 1063   8.918   7.518   7.517 -0.1428  0.5688 -0.8079
    9MOL0     O 1064   8.786   7.493   7.537  0.0925  0.5533 -0.0711
    9MOL0     C 1065   8.735   7.381   7.607  0.4844  0.5044  0.0158
    9MOL0     C 1066   8.575   7.381   7.613  0.2261 -0.3152  0.1820
    9MOL0     C 1067   8.497   7.404   7.482 -0.2812  0.6782 -0.0565
    9MOL0     C 1068   8.343   7.398   7.511 -0.1603  0.1254 -0.5185
    9MOL0     C 1069   8.257   7.430   7.391  0.6541 -1.0631 -0.3318
    9MOL0     C 1070   8.113   7.409   7.425 -0.3271  0.2939  1.0210
    9MOL0     C 1071   8.068   7.453   7.564 -0.6891  0.1440 -0.4131
    9MOL0     C 1072   7.924   7.454   7.571 -0.9702  0.1525  0.2402
    9MOL0     N 1073   7.869   7.316   7.591 -0.0306 -0.4525  0.4000
    9MOL0     C 1074   7.816   7.230   7.498 -0.1424 -0.9673 -0.6752
    9MOL0     C 1075   7.779   7.116   7.565 -0.2143 -0.1040 -0.7675
    9MOL0     C 1076   7.708   6.994   7.535 -0.3565 -0.2620 -0.2305
    9MOL0     C 1077   7.563   7.029   7.524  0.1694  1.1460 -0.7947
    9MOL0     C 1078   7.497   6.907   7.447 -0.6659 -0.1411 -0.5633
    9MOL0     C 1079   7.346   6.926   7.446 -0.5749  0.4039 -0.0476
    9MOL0     O 1080   7.301   7.057   7.396 -0.1484 -0.0591  0.8568
    9MOL0     C 1081   7.174   7.106   7.431  0.9298 -0.6382 -0.6586
    9MOL0     C 1082   7.149   7.246   7.421  0.5201 -0.7155 -1.5908
    9MOL0     C 1083   7.044   7.309   7.490 -0.5829  0.3429 -0.1908
    9MOL0     C 1084   6.944   7.229   7.549  0.5450 -0.3298 -0.1551
    9MOL0     C 1085   6.826   7.289   7.625  0.4818  0.5325 -0.2013
    9MOL0     O 1086   6.728   7.200   7.678 -0.1513 -1.1355  0.2132
    9MOL0     C 1087   6.631   7.251   7.756 -0.0084 -0.7870  0.3948
    9MOL0     C 1088   6.571   7.382   7.751 -0.2673 -0.5636 -0.1995
    9MOL0     C 1089   6.458   7.415   7.844 -0.1405  0.4232 -0.1335
    9MOL0     C 1090   6.419   7.321   7.938  0.9293  1.1268 -0.0258
    9MOL0     O 1091   6.313   7.332   8.024  0.1196  0.1996  0.5600
    9MOL0     C 1092   6.224   7.444   8.000 -0.1339 -0.3626  0.4361
    9MOL0     C 1093   6.110   7.435   8.102 -0.2017  0.6813  0.2310
    9MOL0     C 1094   6.166   7.451   8.249  0.8105  0.3504 -0.0632
    9MOL0     C 1095   6.257   7.570   8.278  0.1876  0.2707  0.2715
    9MOL0     C 1096   6.284   7.588   8.434 -1.1227 -0.6209  0.8966
    9MOL0     C 1097   6.374   7.711   8.439  0.2987 -1.0383 -0.9468
    9MOL0     C 1098   6.424   7.728   8.587  1.2502  0.6380  0.5929
    9MOL0     C 1099   6.488   7.874   8.611 -0.0543 -0.3028  0.3832
    9MOL0    Cl 1100   6.566   7.867   8.771  0.2327 -0.3448  0.8452
    9MOL0     C 1101   6.484   7.197   7.938 -0.0013  0.1422  0.2088
    9MOL0     C 1102   6.588   7.165   7.855  0.3849  0.3349  0.1977
    9MOL0     O 1103   6.821   7.412   7.639 -0.5285 -0.6092  0.2076
    9MOL0     C 1104   6.954   7.085   7.561 -0.2223  0.1855 -1.5192
    9MOL0     C 1105   7.074   7.031   7.494 -0.0614  0.9831 -0.6265
    9MOL0     N 1106   7.822   7.137   7.695 -0.4173  0.4620  0.1836
    9MOL0     N 1107   7.879   7.256   7.709  0.1615  0.4636  0.1901
    9MOL0     C 1108   9.019   7.445   7.577 -0.0044  0.2298 -0.1698
    9MOL0     C 1109   9.163   7.475   7.552 -0.0234  0.1171 -1.0237
    9MOL0     C 1110   9.527   7.777   7.442 -1.0270 -0.9168 -0.4931
    9MOL0     C 1111   9.612   7.698   7.357  0.4580 -0.2033  0.0152
    9MOL0     C 1112   9.750   7.714   7.369 -0.5159 -0.4094  0.0091
    9MOL0     C 1113   9.805   7.823   7.441 -0.3518  0.3732  0.0743
    9MOL0     O 1114   9.945   7.842   7.443  0.2313  0.2044  1.0289
    9MOL0     C 1115  10.044   7.789   7.350  0.6168  1.0184 -0.0654
    9MOL0     C 1116  10.110   7.906   7.285 -0.2801 -0.9792 -1.3264
    9MOL0     C 1117  10.010   7.997   7.191 -0.3067 -0.3498  0.1786
    9MOL0     C 1118  10.076   8.093   7.102 -0.1083 -0.3435  0.2706
    9MOL0     C 1119  10.072   8.059   6.965  0.6806  0.2620  0.5163
    9MOL0     C 1120  10.070   8.027   6.847 -0.1002  0.2086  0.0727
    9MOL0     C 1121   9.724   7.913   7.501  0.2065  0.7446 -1.2045
    9MOL0     C 1122   9.587   7.890   7.512  0.5908  0.3753 -0.4474
    9MOL0     H 1123   9.124   7.706   7.313 -2.4250  0.6650  0.1527
    9MOL0     H 1124   8.884   7.689   7.387  0.4328  1.1336 -0.0025
    9MOL0     H 1125   8.784   7.393   7.703  4.3703  1.4633 -1.8818
    9MOL0     H 1126   8.770   7.288   7.560 -3.8005 -0.2437 -2.2592
    9MOL0     H 1127   8.544   7.459   7.682  2.1966  1.7219 -1.1147
    9MOL0     H 1128   8.554   7.282   7.656 -0.6515 -1.1029 -1.9164
    9MOL0     H 1129   8.516   7.335   7.398 -0.4102  1.6810 -0.9306
    9MOL0     H 1130   8.533   7.496   7.436  0.3280  2.2768  3.3529
    9MOL0     H 1131   8.314   7.303   7.557 -1.3607  1.7088  2.2589
    9MOL0     H 1132   8.326   7.461   7.599 -0.2981  0.0394 -0.4818
    9MOL0     H 1133   8.295   7.370   7.308  2.3049 -2.7329  1.5057
    9MOL0     H 1134   8.269   7.538   7.382  2.9529 -1.3356 -1.3033
    9MOL0     H 1135   8.083   7.304   7.417 -3.9505  0.9268  3.7107
    9MOL0     H 1136   8.068   7.469   7.346  0.5583  1.9106  1.6956
    9MOL0     H 1137   8.117   7.399   7.645  0.9645  2.2962  0.1079
    9MOL0     H 1138   8.093   7.559   7.576  2.1155 -0.6757  1.8882
    9MOL0     H 1139   7.883   7.502   7.481 -1.1792  1.2695  0.9134
    9MOL0     H 1140   7.894   7.510   7.660 -2.4132 -0.2471  0.0364
    9MOL0     H 1141   7.804   7.250   7.392  0.8425  3.2696 -0.1599
    9MOL0     H 1142   7.722   6.915   7.610  1.6432 -0.6933 -0.9899
    9MOL0     H 1143   7.733   6.953   7.437 -3.7038 -0.7619 -0.9862
    9MOL0     H 1144   7.552   7.129   7.482 -0.3837  1.1722 -0.5936
    9MOL0     H 1145   7.527   7.023   7.627  3.8161 -1.9101  0.5720
    9MOL0     H 1146   7.538   6.909   7.345  0.3772 -0.1717 -0.1525
    9MOL0     H 1147   7.522   6.816   7.502  1.1051 -0.6530 -2.0919
    9MOL0     H 1148   7.309   6.902   7.546  0.9582 -0.1468  0.4103
    9MOL0     H 1149   7.304   6.849   7.380 -0.7856  0.6010 -0.1462
    9MOL0     H 1150   7.220   7.312   7.373  3.7875 -1.0819  2.2349
    9MOL0     H 1151   7.031   7.416   7.494  0.3366  0.5414 -1.6480
    9MOL0     H 1152   6.586   7.462   7.679 -1.3584 -0.8945 -0.8204
    9MOL0     H 1153   6.413   7.514   7.840  2.1767  1.6185  1.1582
    9MOL0     H 1154   6.182   7.451   7.899  1.0496 -0.7438 -0.0980
    9MOL0     H 1155   6.284   7.532   8.027 -2.0789  0.1487  3.5848
    9MOL0     H 1156   6.069   7.334   8.101  1.0864  0.1398  0.1313
    9MOL0     H 1157   6.030   7.506   8.079 -0.4530  0.5036  0.5625
    9MOL0     H 1158   6.211   7.353   8.268 -2.4082 -0.6511  3.6945
    9MOL0     H 1159   6.084   7.454   8.321 -0.2327 -2.8642 -0.9799
    9MOL0     H 1160   6.354   7.548   8.232 -0.9575  0.3956 -2.3662
    9MOL0     H 1161   6.207   7.654   8.230  1.2613  1.7113  1.5526
    9MOL0     H 1162   6.342   7.507   8.478  1.2738 -0.6889 -2.0780
    9MOL0     H 1163   6.187   7.577   8.483 -0.9576 -5.7523  0.6161
    9MOL0     H 1164   6.328   7.808   8.419  1.9109  0.8436  3.2794
    9MOL0     H 1165   6.457   7.707   8.369  1.4167  2.7943 -0.0911
    9MOL0     H 1166   6.344   7.727   8.662  1.7351 -0.6805  1.1307
    9MOL0     H 1167   6.492   7.645   8.612 -1.0860 -1.5945 -0.0424
    9MOL0     H 1168   6.408   7.946   8.630 -0.0288 -0.4860  1.2455
    9MOL0     H 1169   6.567   7.898   8.540  0.2301 -1.6168  0.2208
    9MOL0     H 1170   6.455   7.111   7.997  1.8937 -0.3405  0.4802
    9MOL0     H 1171   6.625   7.062   7.860 -1.4404 -0.4479 -1.2204
    9MOL0     H 1172   6.878   7.017   7.598  0.5783 -1.5857 -2.9722
    9MOL0     H 1173   7.091   6.927   7.521 -0.9589  1.2282  1.0420
    9MOL0     H 1174   8.998   7.363   7.646  0.6489  1.4489  1.5318
    9MOL0     H 1175   9.234   7.411   7.602  0.1938  1.8351  1.0107
    9MOL0     H 1176   9.571   7.611   7.307 -2.3662  1.3439 -0.5868
    9MOL0     H 1177   9.814   7.652   7.306 -0.5657 -1.0373  0.5747
    9MOL0     H 1178  10.002   7.725   7.273  2.1288  0.6741 -0.6489
    9MOL0     H 1179  10.122   7.734   7.405 -1.4754 -0.7600  1.2991
    9MOL0     H 1180  10.169   7.962   7.358 -2.0107 -0.1711 -0.4745
    9MOL0     H 1181  10.179   7.859   7.214  2.5107  0.9937 -0.0838
    9MOL0     H 1182   9.943   8.051   7.258 -0.1781 -0.6508  0.5597
    9MOL0     H 1183   9.944   7.931   7.134 -2.2233  0.9958  0.7498
    9MOL0     H 1184  10.018   8.184   7.117 -1.3808 -1.3495  1.7804
    9MOL0     H 1185  10.184   8.107   7.116 -0.0172  0.1948 -0.8695
    9MOL0     H 1186  10.053   8.006   6.743 -1.3361  0.1704  0.2590
    9MOL0     H 1187   9.776   7.990   7.557 -2.1191  1.6325 -0.1311
    9MOL0     H 1188   9.524   7.959   7.567  2.5794  2.3663 -0.5385
   10MOL0     O 1189   0.815   5.021   8.515  0.5032  0.1793 -0.5308
   10MOL0     C 1190   0.895   5.050   8.429 -0.0079  0.5307  0.1856
   10MOL0     O 1191   0.883   5.013   8.300  0.0483  0.3722  0.2817
   10MOL0     C 1192   0.771   4.937   8.266  0.3212 -0.1180  0.2683
   10MOL0     C 1193   0.768   4.801   8.285  0.0721 -0.9159  0.1253
   10MOL0     C 1194   0.661   4.716   8.253 -0.1130 -0.1457  0.4539
   10MOL0     C 1195   0.553   4.776   8.189 -0.6130 -0.8146  0.2262
   10MOL0     O 1196   0.447   4.702   8.137  0.1902 -0.1043  0.5899
   10MOL0     C 1197   0.457   4.568   8.115  0.1209 -0.0775 -0.3850
   10MOL0     C 1198   0.359   4.541   8.004  0.3060  0.0937 -0.0913
   10MOL0     C 1199   0.382   4.405   7.947  0.2325  1.8014  0.6955
   10MOL0     C 1200   0.276   4.345   7.871  0.3679  0.2837  1.2513
   10MOL0     C 1201   0.317   4.204   7.816 -0.0893  0.2288  0.8872
   10MOL0     C 1202   0.188   4.150   7.749  0.8209 -0.2862 -0.4389
   10MOL0     C 1203   0.213   4.004   7.701 -0.7267 -0.5706  0.5007
   10MOL0     C 1204   0.327   4.018   7.597  0.5717  0.3413  0.7554
   10MOL0     N 1205   0.301   3.910   7.502  0.2750  0.1541  0.9192
   10MOL0     C 1206   0.343   3.780   7.507 -0.4267 -0.1339  0.1958
   10MOL0     C 1207   0.337   3.732   7.374 -0.5210  0.0873 -0.0745
   10MOL0     C 1208   0.367   3.599   7.319  0.6178 -0.0450 -0.3430
   10MOL0     C 1209   0.236   3.545   7.252 -0.6937  0.6085  0.4893
   10MOL0     C 1210   0.132   3.522   7.358  0.1424  0.4293  0.5007
   10MOL0     C 1211   0.035   3.635   7.382  0.8437  0.0549 -0.6078
   10MOL0     O 1212  -0.076   3.578   7.452  1.1027 -0.0921 -0.4457
   10MOL0     C 1213  -0.208   3.586   7.407  0.3995 -0.6785  1.0257
   10MOL0     C 1214  -0.252   3.682   7.304  0.8281  0.2214 -0.2294
   10MOL0     C 1215  -0.385   3.686   7.268 -0.3480 -0.5771 -0.0370
   10MOL0     C 1216  -0.478   3.591   7.327  0.2302  0.3368  0.5880
   10MOL0     C 1217  -0.619   3.580   7.289 -0.0791  0.8570  0.0365
   10MOL0     O 1218  -0.647   3.663   7.193  0.5666  0.4391  0.1855
   10MOL0     C 1219  -0.768   3.666   7.128  0.7594  0.3108 -0.4523
   10MOL0     C 1220  -0.799   3.790   7.084 -0.9422 -0.1784 -0.2913
   10MOL0     C 1221  -0.924   3.802   7.018 -0.9749  0.3155 -0.2470
   10MOL0     C 1222  -1.027   3.706   7.002  0.5000 -0.2622  0.1457
   10MOL0     O 1223  -1.139   3.708   6.923 -0.3321 -0.6083  0.1834
   10MOL0     C 1224  -1.156   3.838   6.852  0.1847 -0.4183 -0.4248
   10MOL0     C 1225  -1.054   3.870   6.734  0.6067  0.3860 -0.3224
   10MOL0     C 1226  -1.117   3.872   6.588  0.3596 -0.1551 -0.6149
   10MOL0     C 1227  -1.215   3.987   6.558  0.4710  0.3703 -0.0869
   10MOL0     C 1228  -1.267   3.985   6.417 -0.7793 -0.1957  0.2368
   10MOL0     C 1229  -1.395   4.064   6.395 -0.2703 -0.0695  0.3987
   10MOL0     C 1230  -1.473   4.023   6.266  0.6821  0.6916 -0.1344
   10MOL0     C 1231  -1.578   4.128   6.217  0.2014 -0.4186 -0.3219
   10MOL0    Cl 1232  -1.686   4.181   6.348 -0.2401 -0.5747 -0.0417
   10MOL0     C 1233  -0.994   3.581   7.056  0.9184  0.0984 -0.4542
   10MOL0     C 1234  -0.869   3.564   7.119  0.8647 -0.7497 -0.4347
   10MOL0     O 1235  -0.698   3.513   7.356 -0.2399 -0.5366 -0.4033
   10MOL0     C 1236  -0.434   3.497   7.423  0.0801 -0.3667  0.5275
   10MOL0     C 1237  -0.293   3.505   7.464 -0.9161 -0.1631  0.2344
   10MOL0     N 1238   0.276   3.838   7.301 -1.0431 -0.5844 -0.1224
   10MOL0     N 1239   0.251   3.935   7.378 -0.0191  0.2312 -0.7261
   10MOL0     C 1240   0.550   4.920   8.172 -0.0934 -0.2240  0.4097
   10MOL0     C 1241   0.659   4.998   8.208 -0.3281  0.1672 -0.4090
   10MOL0     C 1242   1.022   5.119   8.458 -0.1043  0.4769 -0.0049
   10MOL0     C 1243   1.073   5.145   8.585 -0.0490  1.1000  0.1366
   10MOL0     C 1244   1.190   5.219   8.604 -0.5004  0.0510 -0.2557
   10MOL0     C 1245   1.265   5.273   8.502  0.5434  0.4933 -0.4905
   10MOL0     O 1246   1.368   5.352   8.530  0.2836 -0.2172 -0.0253
   10MOL0     C 1247   1.406   5.435   8.424 -0.3878 -0.1889  0.3251
   10MOL0     C 1248   1.530   5.528   8.453 -0.1829  0.5205  0.5702
   10MOL0     C 1249   1.522   5.597   8.589  0.0993 -0.0488  0.0907
   10MOL0     C 1250   1.617   5.714   8.605 -0.1414  0.1183  0.0069
   10MOL0     C 1251   1.760   5.676   8.595  0.6383 -0.3824 -0.2703
   10MOL0     C 1252   1.874   5.630   8.592  0.1842 -0.0999  0.0033
   10MOL0     C 1253   1.217   5.239   8.374 -0.5603 -0.6998  0.9893
   10MOL0     C 1254   1.103   5.166   8.351  0.3090 -0.5867  0.3498
   10MOL0     H 1255   0.855   4.748   8.323  0.4554 -1.2821 -1.2254
   10MOL0     H 1256   0.675   4.609   8.264  1.5715  0.0177  0.1704
   10MOL0     H 1257   0.440   4.515   8.209  3.1494  0.5680  0.6423
   10MOL0     H 1258   0.555   4.538   8.075 -0.8817 -1.5779 -1.8164
   10MOL0     H 1259   0.374   4.618   7.928 -1.5610  3.0853  2.3470
   10MOL0     H 1260   0.255   4.562   8.031  1.2424  2.2906  2.2156
   10MOL0     H 1261   0.408   4.340   8.031 -1.9357 -0.0380  0.0540
   10MOL0     H 1262   0.472   4.404   7.884 -0.3456  2.4423 -0.1684
   10MOL0     H 1263   0.188   4.331   7.935  1.1473  0.8046  2.4777
   10MOL0     H 1264   0.252   4.411   7.787  0.1101 -1.4617 -0.0973
   10MOL0     H 1265   0.359   4.141   7.894  2.3270  1.3962  0.6311
   10MOL0     H 1266   0.394   4.218   7.739 -0.3992 -3.3722 -0.2410
   10MOL0     H 1267   0.149   4.219   7.674 -3.2816 -3.1080 -1.2301
   10MOL0     H 1268   0.117   4.137   7.831  1.5122 -0.1193  0.2006
   10MOL0     H 1269   0.246   3.943   7.786 -0.7934 -2.8749 -1.0289
   10MOL0     H 1270   0.114   3.975   7.665 -1.6257 -0.4564  2.7226
   10MOL0     H 1271   0.427   4.011   7.641  1.6097  1.6332 -1.2475
   10MOL0     H 1272   0.328   4.116   7.547  4.7361 -0.2940 -0.8608
   10MOL0     H 1273   0.369   3.729   7.598  1.1129 -0.3019 -0.3059
   10MOL0     H 1274   0.418   3.527   7.384  1.7953  0.7922 -0.3200
   10MOL0     H 1275   0.441   3.624   7.243  0.4837  1.9164  0.1214
   10MOL0     H 1276   0.275   3.451   7.211  1.0127  0.5277  2.1503
   10MOL0     H 1277   0.202   3.602   7.166 -5.0953 -3.0247 -0.5857
   10MOL0     H 1278   0.073   3.432   7.338 -1.1097  1.3151  0.0735
   10MOL0     H 1279   0.178   3.493   7.452  1.6934  3.3415  0.7629
   10MOL0     H 1280  -0.005   3.677   7.289 -0.8934 -1.3732 -0.5554
   10MOL0     H 1281   0.080   3.706   7.452 -2.4992 -1.3434  3.3382
   10MOL0     H 1282  -0.192   3.760   7.257 -1.0706  2.7319  1.2616
   10MOL0     H 1283  -0.413   3.744   7.181 -0.0427 -1.8494 -1.0128
   10MOL0     H 1284  -0.721   3.864   7.095  0.0060 -1.0384 -1.1409
   10MOL0     H 1285  -0.944   3.896   6.968 -1.8689 -1.2699 -3.0133
   10MOL0     H 1286  -1.171   3.910   6.932  1.9072 -0.6305  0.1183
   10MOL0     H 1287  -1.258   3.847   6.812  0.3730  2.5447 -0.4266
   10MOL0     H 1288  -0.998   3.776   6.742 -0.1906  0.0409  3.8461
   10MOL0     H 1289  -1.003   3.963   6.758 -0.0026  0.5291  0.4703
   10MOL0     H 1290  -1.167   3.775   6.587  1.8122 -0.9415  0.2304
   10MOL0     H 1291  -1.032   3.854   6.522  1.3868 -0.1750  0.6723
   10MOL0     H 1292  -1.303   3.981   6.623  0.3048 -0.5267 -0.3802
   10MOL0     H 1293  -1.159   4.074   6.592  1.6240  0.3641 -1.8568
   10MOL0     H 1294  -1.291   3.883   6.386 -0.4503 -1.2661  3.1710
   10MOL0     H 1295  -1.185   4.021   6.354  0.9745  1.7213  3.3389
   10MOL0     H 1296  -1.362   4.168   6.389 -2.1768  0.5254 -0.3498
   10MOL0     H 1297  -1.448   4.053   6.490  1.1080 -2.7020  0.9576
   10MOL0     H 1298  -1.401   4.011   6.185  1.0889 -1.7258  0.4962
   10MOL0     H 1299  -1.529   3.932   6.291 -0.7668  1.9838  1.6353
   10MOL0     H 1300  -1.643   4.095   6.136 -0.3180  1.1022 -0.5571
   10MOL0     H 1301  -1.534   4.213   6.166 -0.9479 -0.2035 -0.9800
   10MOL0     H 1302  -1.073   3.507   7.052  0.2172  0.5935  2.1092
   10MOL0     H 1303  -0.845   3.467   7.161  2.2723  0.4661  1.7830
   10MOL0     H 1304  -0.501   3.427   7.471 -0.7138 -0.0816 -0.1419
   10MOL0     H 1305  -0.264   3.446   7.551 -2.6001  3.2115  3.3608
   10MOL0     H 1306   0.465   4.964   8.121  0.9810  3.5030  1.5530
   10MOL0     H 1307   0.661   5.105   8.190  1.5589  0.2306 -0.0360
   10MOL0     H 1308   1.017   5.127   8.676 -0.4254  4.2584  0.6287
   10MOL0     H 1309   1.228   5.234   8.704 -2.8978 -1.1834  0.9344
   10MOL0     H 1310   1.319   5.486   8.381  0.3175  0.9704  0.2329
   10MOL0     H 1311   1.438   5.366   8.346 -0.5317  0.1275 -0.0200
   10MOL0     H 1312   1.624   5.472   8.456 -1.4542 -1.7243  2.4482
   10MOL0     H 1313   1.543   5.600   8.372 -2.2358 -1.5013 -1.7412
   10MOL0     H 1314   1.527   5.524   8.671 -0.0947  0.5483  0.6429
   10MOL0     H 1315   1.421   5.638   8.580 -1.1424 -3.1172 -1.7138
   10MOL0     H 1316   1.604   5.781   8.519  1.2359  1.1329  0.5344
   10MOL0     H 1317   1.590   5.780   8.688 -0.8908  1.0572 -0.9577
   10MOL0     H 1318   1.971   5.591   8.570  0.7127  1.3582 -0.3161
   10MOL0     H 1319   1.283   5.267   8.293  1.6513 -2.9862  1.8662
   10MOL0     H 1320   1.083   5.148   8.246 -0.0230 -0.1531  0.3389
   11MOL0     O 1321  11.014   2.837  10.438  0.4755 -0.1466 -0.1484
   11MOL0     C 1322  11.064   2.844  10.551  0.2933  0.3503  0.1860
   11MOL0     O 1323  11.004   2.907  10.659  0.3847  0.1682  0.5637
   11MOL0     C 1324  10.873   2.955  10.653 -0.9501 -0.2740  0.0613
   11MOL0     C 1325  10.771   2.901  10.579  0.8406 -0.1197  0.3610
   11MOL0     C 1326  10.643   2.961  10.571  0.5764  0.4892 -0.7936
   11MOL0     C 1327  10.605   3.064  10.659  0.3077 -0.9082 -0.8670
   11MOL0     O 1328  10.476   3.122  10.673 -0.4890  0.4187  0.1216
   11MOL0     C 1329  10.390   3.119  10.558  0.3857  0.5393  0.7088
   11MOL0     C 1330  10.255   3.190  10.568  0.8227  0.1600 -0.1370
   11MOL0     C 1331  10.257   3.336  10.610 -0.2749  0.6361 -0.6324
   11MOL0     C 1332  10.118   3.366  10.649 -0.4581  0.2915  0.5973
   11MOL0     C 1333  10.087   3.318  10.798 -0.1834 -0.2815  0.3621
   11MOL0     C 1334  10.183   3.361  10.903 -0.7548 -0.3647 -0.8922
   11MOL0     C 1335  10.190   3.513  10.926  0.1574 -0.0585 -0.4668
   11MOL0     C 1336  10.332   3.567  10.977 -0.1702 -0.4318  0.4096
   11MOL0     N 1337  10.414   3.595  10.854 -0.2264 -0.1789 -0.2145
   11MOL0     C 1338  10.521   3.528  10.813 -0.6148  0.4641  0.4274
   11MOL0     C 1339  10.571   3.594  10.708 -0.5751  0.4132  0.1802
   11MOL0     C 1340  10.702   3.566  10.632  0.4756  0.5540 -0.3325
   11MOL0     C 1341  10.694   3.562  10.482  0.6184  0.4723  0.0866
   11MOL0     C 1342  10.646   3.422  10.442 -0.0845  0.0350 -0.4962
   11MOL0     C 1343  10.763   3.319  10.447 -0.8411  0.4320 -0.5225
   11MOL0     O 1344  10.868   3.368  10.370 -0.3411 -0.8238 -0.1765
   11MOL0     C 1345  10.998   3.344  10.420  1.3371  0.3819  0.7195
   11MOL0     C 1346  11.095   3.444  10.435 -0.4843 -0.0032 -1.2958
   11MOL0     C 1347  11.229   3.421  10.479 -0.2571  0.4207 -1.5564
   11MOL0     C 1348  11.265   3.286  10.510 -0.3182  0.3709  0.6423
   11MOL0     C 1349  11.406   3.259  10.566  0.2482  0.0350  0.3778
   11MOL0     O 1350  11.501   3.354  10.531 -0.4755 -0.3379 -1.0409
   11MOL0     C 1351  11.637   3.320  10.543  1.2092 -0.6165 -0.5205
   11MOL0     C 1352  11.723   3.430  10.572 -0.3781 -0.2618  0.3587
   11MOL0     C 1353  11.861   3.403  10.570 -0.0060 -0.5475 -0.0286
   11MOL0     C 1354  11.912   3.273  10.549  0.7962  0.4161 -1.2073
   11MOL0     O 1355  12.041   3.240  10.567 -0.0731  0.1297  0.2924
   11MOL0     C 1356  12.131   3.328  10.499 -0.3549  0.1570  1.2315
   11MOL0     C 1357  12.260   3.256  10.443 -0.5423  0.1639 -0.3531
   11MOL0     C 1358  12.311   3.154  10.540 -0.5966 -0.0052 -0.0936
   11MOL0     C 1359  12.438   3.082  10.492  0.5118  0.1852 -0.3911
   11MOL0     C 1360  12.506   3.012  10.618 -0.0313 -0.1159  0.5118
   11MOL0     C 1361  12.642   2.959  10.571 -0.4614 -0.6664 -0.4984
   11MOL0     C 1362  12.754   3.072  10.573 -0.4042 -0.5590  0.3430
   11MOL0     C 1363  12.813   3.080  10.711  1.1958 -0.3665  1.4338
   11MOL0    Cl 1364  12.983   3.157  10.695  0.0438  0.1239 -0.0781
   11MOL0     C 1365  11.822   3.164  10.522 -0.2102 -0.3938 -0.2511
   11MOL0     C 1366  11.687   3.190  10.512 -0.1309 -0.9361  0.8430
   11MOL0     O 1367  11.431   3.148  10.618 -0.3149 -0.4411  0.5958
   11MOL0     C 1368  11.171   3.187  10.509 -0.6728 -0.3226  0.3320
   11MOL0     C 1369  11.044   3.208  10.456 -0.1499 -0.4680  1.1812
   11MOL0     N 1370  10.502   3.709  10.698 -0.0667  0.3144  0.1397
   11MOL0     N 1371  10.406   3.709  10.785  0.8783  0.3827  0.6136
   11MOL0     C 1372  10.702   3.117  10.745  0.5245 -0.2279  0.4296
   11MOL0     C 1373  10.827   3.063  10.731  0.6624  0.3287 -0.7634
   11MOL0     C 1374  11.199   2.811  10.564 -0.7483 -0.1557  0.6987
   11MOL0     C 1375  11.265   2.744  10.455  0.0317 -0.0734  0.1479
   11MOL0     C 1376  11.400   2.716  10.461 -0.2150 -0.4680  0.7748
   11MOL0     C 1377  11.481   2.764  10.564  0.4959 -0.1694  0.3840
   11MOL0     O 1378  11.617   2.749  10.573  0.0660  0.0234 -0.0016
   11MOL0     C 1379  11.700   2.670  10.480 -0.2086  0.5543 -0.4193
   11MOL0     C 1380  11.845   2.676  10.538  0.0417 -0.7617  0.5761
   11MOL0     C 1381  11.938   2.613  10.431 -0.4037 -0.1393  0.5536
   11MOL0     C 1382  12.084   2.653  10.456  0.1197 -0.2024 -0.4519
   11MOL0     C 1383  12.106   2.796  10.420  0.5307  0.2502  0.5818
   11MOL0     C 1384  12.125   2.908  10.378  0.3094  0.1890 -0.1244
   11MOL0     C 1385  11.418   2.828  10.667 -0.1247  0.0794 -0.5811
   11MOL0     C 1386  11.278   2.853  10.674  0.0719  0.8201  0.0665
   11MOL0     H 1387  10.796   2.823  10.507 -0.1133 -0.2188  0.1315
   11MOL0     H 1388  10.578   2.912  10.500  0.4582 -1.5043  0.6067
   11MOL0     H 1389  10.368   3.021  10.514 -0.7681  2.8278 -4.6320
   11MOL0     H 1390  10.450   3.174  10.485 -0.0945  0.8871  0.5713
   11MOL0     H 1391  10.197   3.130  10.638  0.8638  0.2086 -0.0611
   11MOL0     H 1392  10.202   3.189  10.472  1.5839  1.4752 -0.6075
   11MOL0     H 1393  10.281   3.388  10.516 -3.4247  0.0229 -1.9234
   11MOL0     H 1394  10.335   3.342  10.686  1.7277 -3.7599 -1.9927
   11MOL0     H 1395  10.114   3.476  10.648  1.6199  0.4156  1.4835
   11MOL0     H 1396  10.047   3.325  10.576 -1.2040  1.9251  0.3480
   11MOL0     H 1397  10.071   3.210  10.787  0.6393 -0.1770 -2.4633
   11MOL0     H 1398   9.990   3.365  10.818  1.0128  1.2080  3.2793
   11MOL0     H 1399  10.287   3.330  10.889 -0.9592 -0.8937 -1.2556
   11MOL0     H 1400  10.166   3.320  11.003 -0.4451  1.0406 -0.2374
   11MOL0     H 1401  10.178   3.562  10.828 -1.1035 -2.4838 -1.6156
   11MOL0     H 1402  10.113   3.542  10.998  2.7349  2.9083  1.3867
   11MOL0     H 1403  10.379   3.495  11.044  0.5342 -0.5501 -0.1992
   11MOL0     H 1404  10.327   3.658  11.037 -0.1600  0.8953 -1.5159
   11MOL0     H 1405  10.551   3.433  10.855 -0.9220 -0.1631 -0.7128
   11MOL0     H 1406  10.745   3.473  10.668 -2.4884 -1.6370 -2.0231
   11MOL0     H 1407  10.774   3.647  10.653  0.7938 -0.2569  1.9669
   11MOL0     H 1408  10.793   3.591  10.445  0.2012 -0.2322 -1.6638
   11MOL0     H 1409  10.626   3.643  10.456 -0.1523 -0.5521 -1.1703
   11MOL0     H 1410  10.553   3.390  10.489 -1.2131  1.1084 -1.9140
   11MOL0     H 1411  10.612   3.423  10.338 -2.7268  2.0916  0.2585
   11MOL0     H 1412  10.728   3.226  10.401 -0.8487  0.6048 -0.8663
   11MOL0     H 1413  10.793   3.307  10.552 -0.0731 -2.1657 -0.9538
   11MOL0     H 1414  11.066   3.541  10.395 -0.5747  0.4798 -0.0890
   11MOL0     H 1415  11.277   3.517  10.499  1.0052 -0.4753 -0.0260
   11MOL0     H 1416  11.680   3.528  10.591 -2.5756 -1.4847  2.1629
   11MOL0     H 1417  11.924   3.490  10.580  1.2844 -1.0703 -2.5797
   11MOL0     H 1418  12.150   3.417  10.559 -3.9211  1.5192  0.6225
   11MOL0     H 1419  12.084   3.377  10.414  1.3517  0.8920  0.6694
   11MOL0     H 1420  12.335   3.333  10.421 -1.9473  0.8151 -3.3705
   11MOL0     H 1421  12.225   3.218  10.346  1.4151 -0.4969 -0.8464
   11MOL0     H 1422  12.237   3.077  10.563  0.6474 -0.7273  1.7478
   11MOL0     H 1423  12.337   3.206  10.632 -1.8660  0.0164  0.2791
   11MOL0     H 1424  12.412   2.999  10.426  0.7065 -0.3002  0.1392
   11MOL0     H 1425  12.508   3.152  10.447  2.2482 -0.5775  1.0133
   11MOL0     H 1426  12.450   2.921  10.641  3.2688 -1.9446  1.9491
   11MOL0     H 1427  12.508   3.084  10.700 -0.1122  2.0991 -1.3445
   11MOL0     H 1428  12.626   2.912  10.473 -2.3785  1.4703 -1.3021
   11MOL0     H 1429  12.669   2.878  10.639  0.8164  1.7659  2.0843
   11MOL0     H 1430  12.837   3.028  10.517  1.5669 -0.3789  2.9096
   11MOL0     H 1431  12.727   3.166  10.524  1.4110 -1.0091 -1.6762
   11MOL0     H 1432  12.806   2.977  10.748  1.6755 -1.3605 -1.0513
   11MOL0     H 1433  12.754   3.154  10.766  3.8612  2.9404  0.2284
   11MOL0     H 1434  11.858   3.069  10.484  1.2466  0.9246 -2.4318
   11MOL0     H 1435  11.621   3.112  10.476 -1.3650  0.2364  0.4569
   11MOL0     H 1436  11.199   3.085  10.537  0.7720 -0.4579 -1.3547
   11MOL0     H 1437  10.993   3.116  10.430  1.5581 -0.9399 -0.6931
   11MOL0     H 1438  10.673   3.194  10.816 -4.8541  2.1272 -3.5653
   11MOL0     H 1439  10.901   3.117  10.789  2.1742 -2.7021  0.3276
   11MOL0     H 1440  11.207   2.713  10.369 -2.0227  0.2325  1.3501
   11MOL0     H 1441  11.446   2.672  10.373 -2.5094 -1.3083 -0.0981
   11MOL0     H 1442  11.699   2.726  10.386  0.7526  1.1099 -0.1166
   11MOL0     H 1443  11.666   2.567  10.467  0.5817 -0.0165  1.5597
   11MOL0     H 1444  11.854   2.785  10.547 -2.8751 -0.0346 -2.8446
   11MOL0     H 1445  11.846   2.629  10.637 -1.2846  0.2880  1.1123
   11MOL0     H 1446  11.898   2.632  10.331 -3.0789  0.6957  1.6949
   11MOL0     H 1447  11.931   2.504  10.441 -2.6164  0.0147  1.3269
   11MOL0     H 1448  12.117   2.629  10.558  2.2881 -0.1095 -1.0892
   11MOL0     H 1449  12.143   2.589  10.391 -1.6876 -0.5844 -1.7942
   11MOL0     H 1450  12.138   3.009  10.345  1.3053  0.7534  1.8123
   11MOL0     H 1451  11.488   2.861  10.744  0.7614 -0.6260 -1.0616
   11MOL0     H 1452  11.235   2.903  10.761  0.1320  0.9010  0.0495
   12MOL0     O 1453   8.781   3.390   9.405 -0.8940 -0.1559  0.3519
   12MOL0     C 1454   8.837   3.427   9.509  0.2422 -0.3339  0.3427
   12MOL0     O 1455   8.793   3.533   9.578  0.2312 -0.0128 -0.0436
   12MOL0     C 1456   8.685   3.614   9.538 -0.2249 -0.2323  0.3195
   12MOL0     C 1457   8.685   3.749   9.555 -0.4871 -0.3743 -0.1323
   12MOL0     C 1458   8.594   3.845   9.501 -0.5682  0.3804  0.5544
   12MOL0     C 1459   8.482   3.790   9.447  0.1218 -0.0903 -0.4260
   12MOL0     O 1460   8.380   3.857   9.390  0.4917 -0.0539 -0.2276
   12MOL0     C 1461   8.328   3.968   9.474 -0.3521  0.1085 -0.6288
   12MOL0     C 1462   8.216   4.059   9.405 -0.7644 -0.1260  0.1909
   12MOL0     C 1463   8.202   4.198   9.469 -0.2385 -0.0366 -0.4555
   12MOL0     C 1464   8.143   4.180   9.615  0.0629 -0.3698  0.4688
   12MOL0     C 1465   8.123   4.301   9.708 -0.1862 -1.1120 -0.4479
   12MOL0     C 1466   8.033   4.419   9.652 -1.3095  0.3619 -0.2505
   12MOL0     C 1467   8.054   4.551   9.731  0.4218  0.1407 -0.0873
   12MOL0     C 1468   8.171   4.642   9.692 -0.1203  0.1829  0.3047
   12MOL0     N 1469   8.141   4.787   9.720 -0.0815 -0.8843  0.2970
   12MOL0     C 1470   8.134   4.851   9.840 -0.2363 -0.2844 -0.0438
   12MOL0     C 1471   8.097   4.984   9.814 -1.0903  0.2521 -0.5193
   12MOL0     C 1472   8.079   5.102   9.908 -0.3538 -0.4486 -0.4362
   12MOL0     C 1473   8.071   5.244   9.854  0.6575 -0.0256  0.4856
   12MOL0     C 1474   8.083   5.341   9.971 -0.0793 -1.1918 -0.1850
   12MOL0     C 1475   8.019   5.477   9.949  0.4291  0.4909  0.1583
   12MOL0     O 1476   8.026   5.562  10.063  0.3319  0.1315  0.9091
   12MOL0     C 1477   8.152   5.623  10.091  0.2244 -0.2126  0.4107
   12MOL0     C 1478   8.269   5.600  10.017  0.4667 -0.5457  0.1953
   12MOL0     C 1479   8.401   5.659  10.050  0.6833 -0.6061  0.6636
   12MOL0     C 1480   8.391   5.755  10.148 -0.6441  0.2722  0.0738
   12MOL0     C 1481   8.517   5.823  10.188  0.2022  0.4546 -0.8131
   12MOL0     O 1482   8.529   5.851  10.315  0.2720 -0.6468 -0.4031
   12MOL0     C 1483   8.656   5.894  10.352  0.4493 -0.9273 -0.2625
   12MOL0     C 1484   8.693   6.027  10.348 -0.4817 -0.0710 -0.8795
   12MOL0     C 1485   8.825   6.062  10.370  0.4315  0.2090 -0.3256
   12MOL0     C 1486   8.921   5.967  10.402  0.0723 -1.0206  0.2985
   12MOL0     O 1487   9.050   6.008  10.434 -0.1345  0.3040 -0.4315
   12MOL0     C 1488   9.108   6.126  10.373 -0.3642  0.8253  0.4705
   12MOL0     C 1489   9.260   6.102  10.393 -0.3381 -0.1761  0.1097
   12MOL0     C 1490   9.301   6.026  10.265  0.6122  0.3684  0.5670
   12MOL0     C 1491   9.452   6.002  10.270 -0.2897 -0.2450 -0.1953
   12MOL0     C 1492   9.500   5.911  10.151  0.3779 -0.0263 -0.2213
   12MOL0     C 1493   9.642   5.936  10.109 -0.7082  0.6715  0.1183
   12MOL0     C 1494   9.745   5.908  10.211 -0.2585 -0.3435  0.8007
   12MOL0     C 1495   9.889   5.918  10.167  0.8815 -0.2084  0.2393
   12MOL0    Cl 1496   9.982   5.941  10.325 -0.1220  0.0527  0.0696
   12MOL0     C 1497   8.874   5.839  10.426 -0.2475 -0.2965  0.4632
   12MOL0     C 1498   8.748   5.798  10.392 -0.1703  0.1552 -0.2809
   12MOL0     O 1499   8.597   5.847  10.099 -0.5079 -0.9909 -0.0498
   12MOL0     C 1500   8.269   5.779  10.225  0.3574 -0.3289  0.3841
   12MOL0     C 1501   8.151   5.705  10.197  0.4572 -0.2340 -0.0294
   12MOL0     N 1502   8.075   4.990   9.678  0.3604 -0.1499 -0.1982
   12MOL0     N 1503   8.093   4.873   9.626  0.2963 -0.0030 -0.5845
   12MOL0     C 1504   8.471   3.650   9.438 -0.5963  0.1035  0.8787
   12MOL0     C 1505   8.569   3.559   9.485  0.9942  0.6224 -0.0395
   12MOL0     C 1506   8.957   3.360   9.556  0.3848 -0.7939 -0.3237
   12MOL0     C 1507   9.026   3.427   9.669  0.8366 -0.0575  0.0266
   12MOL0     C 1508   9.133   3.356   9.728 -0.1446 -0.8672  0.2033
   12MOL0     C 1509   9.180   3.240   9.677 -0.2289  0.1034  0.5918
   12MOL0     O 1510   9.297   3.195   9.730  0.8570  0.0746  0.5899
   12MOL0     C 1511   9.346   3.064   9.684  0.5383 -1.2031  0.9303
   12MOL0     C 1512   9.469   3.021   9.771 -0.6534 -0.7770 -0.3601
   12MOL0     C 1513   9.569   3.139   9.774 -0.4576 -0.3866 -0.5026
   12MOL0     C 1514   9.671   3.120   9.888  0.2578  0.9620  0.0494
   12MOL0     C 1515   9.771   3.027   9.851 -1.4440 -0.2854 -0.1601
   12MOL0     C 1516   9.863   2.947   9.828  0.1473  0.2257  0.6117
   12MOL0     C 1517   9.110   3.176   9.577  0.5909  0.1503  0.6034
   12MOL0     C 1518   9.003   3.233   9.513  0.2649 -0.7805 -0.0109
   12MOL0     H 1519   8.770   3.795   9.604 -1.7098 -0.3621  2.0633
   12MOL0     H 1520   8.609   3.949   9.528  0.1938  0.0545  1.4414
   12MOL0     H 1521   8.415   4.029   9.498 -0.8710 -0.2160  2.4829
   12MOL0     H 1522   8.288   3.926   9.567  2.3359  0.1618  0.6392
   12MOL0     H 1523   8.125   3.998   9.406  0.7939 -2.6487 -1.2631
   12MOL0     H 1524   8.241   4.074   9.300 -1.2001  0.7736  0.2023
   12MOL0     H 1525   8.144   4.273   9.414 -0.5439  0.4773  0.5540
   12MOL0     H 1526   8.304   4.236   9.476  1.2849 -3.0840 -3.1412
   12MOL0     H 1527   8.041   4.144   9.602 -0.8771  2.0231  0.6245
   12MOL0     H 1528   8.205   4.106   9.667 -1.4858 -1.7530  0.4157
   12MOL0     H 1529   8.226   4.334   9.725 -1.6876  5.3716 -1.1466
   12MOL0     H 1530   8.081   4.252   9.797 -1.7068  1.4393  0.3483
   12MOL0     H 1531   7.928   4.391   9.667 -0.5350 -1.7367  1.7053
   12MOL0     H 1532   8.055   4.433   9.546 -0.6117  1.2398  0.0006
   12MOL0     H 1533   7.960   4.607   9.732 -0.7303 -1.6554 -1.4159
   12MOL0     H 1534   8.061   4.517   9.834  1.5960 -0.4324 -0.3314
   12MOL0     H 1535   8.188   4.625   9.585  3.7853  1.1649  0.6331
   12MOL0     H 1536   8.258   4.599   9.742  0.3317  0.8819  0.1217
   12MOL0     H 1537   8.162   4.811   9.937 -0.0955  1.5076  0.6939
   12MOL0     H 1538   8.167   5.107   9.973 -0.6570  1.7503 -0.1181
   12MOL0     H 1539   7.987   5.099   9.968 -0.0045  1.5783  0.3137
   12MOL0     H 1540   7.977   5.262   9.802 -0.5245  1.0731  2.8876
   12MOL0     H 1541   8.149   5.249   9.777  0.1685  0.6965  0.0191
   12MOL0     H 1542   8.024   5.311  10.058 -2.1321  0.9224 -0.7673
   12MOL0     H 1543   8.190   5.351   9.994  0.0382  0.1054 -1.1978
   12MOL0     H 1544   7.917   5.457   9.914  0.4641  0.4917  0.0579
   12MOL0     H 1545   8.065   5.518   9.859 -2.9133  2.3969 -0.8574
   12MOL0     H 1546   8.260   5.544   9.925 -2.6932  2.2390 -1.4262
   12MOL0     H 1547   8.488   5.645   9.986  0.2200 -2.5388  0.4071
   12MOL0     H 1548   8.619   6.102  10.323 -1.4393 -0.0358  1.7699
   12MOL0     H 1549   8.859   6.166  10.372  1.4240 -0.1100  0.0429
   12MOL0     H 1550   9.066   6.211  10.427 -2.9363 -0.3706  0.4969
   12MOL0     H 1551   9.094   6.145  10.267 -1.6161  0.4726  0.5532
   12MOL0     H 1552   9.286   6.052  10.487  0.4027  0.0589  0.0377
   12MOL0     H 1553   9.306   6.201  10.394  0.7731 -0.6744  1.4864
   12MOL0     H 1554   9.281   6.085  10.175  0.4767 -1.4428 -0.6470
   12MOL0     H 1555   9.244   5.933  10.261 -1.0571  1.3426  0.8640
   12MOL0     H 1556   9.505   6.097  10.259  2.3474 -1.6039 -0.0496
   12MOL0     H 1557   9.472   5.958  10.368 -4.3349  1.5611  1.6842
   12MOL0     H 1558   9.433   5.929  10.066  1.8323  0.6600 -1.2589
   12MOL0     H 1559   9.499   5.805  10.176  0.2619  0.0224 -0.0123
   12MOL0     H 1560   9.652   6.039  10.072  0.7496 -0.7020 -3.9053
   12MOL0     H 1561   9.669   5.880  10.019  1.7975 -0.6074  1.5650
   12MOL0     H 1562   9.721   5.980  10.289 -0.9363  0.8740 -0.4852
   12MOL0     H 1563   9.737   5.810  10.259  1.2544  0.1351  2.1237
   12MOL0     H 1564   9.900   6.006  10.102  0.0469  0.5402  1.0766
   12MOL0     H 1565   9.918   5.825  10.118 -3.0948 -1.5062  0.0481
   12MOL0     H 1566   8.948   5.761  10.445  1.0329  1.3279  2.5781
   12MOL0     H 1567   8.719   5.694  10.385 -1.0497 -0.3808  5.6943
   12MOL0     H 1568   8.271   5.851  10.306  1.8097  0.6034 -0.4220
   12MOL0     H 1569   8.063   5.714  10.260  0.1114 -0.7833 -0.4260
   12MOL0     H 1570   8.377   3.613   9.398 -0.2569 -1.9798  1.8272
   12MOL0     H 1571   8.537   3.456   9.479 -0.1311  0.9635 -0.1767
   12MOL0     H 1572   9.002   3.525   9.709 -2.2660 -0.4404 -0.6107
   12MOL0     H 1573   9.155   3.399   9.825 -1.6224 -2.1369  1.1708
   12MOL0     H 1574   9.374   3.082   9.580 -1.2268  2.8787  0.9566
   12MOL0     H 1575   9.272   2.984   9.692 -1.0943 -0.0484 -1.4353
   12MOL0     H 1576   9.430   2.993   9.869  1.8749  0.6782  1.1803
   12MOL0     H 1577   9.508   2.929   9.725  0.1898 -2.4674  3.4172
   12MOL0     H 1578   9.519   3.231   9.806  1.6623  0.7497 -0.2673
   12MOL0     H 1579   9.621   3.158   9.680  2.4057  0.4222  1.1082
   12MOL0     H 1580   9.721   3.217   9.905  1.2376  0.3260  1.0139
   12MOL0     H 1581   9.632   3.092   9.986  1.5663 -2.7342 -0.3216
   12MOL0     H 1582   9.939   2.872   9.818 -0.3474 -0.5699  2.4587
   12MOL0     H 1583   9.136   3.075   9.545 -3.2661 -0.4076 -1.3607
   12MOL0     H 1584   8.953   3.182   9.432 -2.0160  0.2801  0.6163
   13MOL0     O 1585   9.742   8.846   3.227  0.7423 -0.5060  0.2709
   13MOL0     C 1586   9.764   8.959   3.272 -0.8488  0.8043  0.1348
   13MOL0     O 1587   9.677   9.039   3.325 -0.4195  0.9557 -0.3604
   13MOL0     C 1588   9.546   8.997   3.338  0.1415 -0.3548  0.3335
   13MOL0     C 1589   9.492   8.972   3.463 -0.3175  0.3982 -0.0237
   13MOL0     C 1590   9.360   8.931   3.471  0.6236 -0.6107 -0.7166
   13MOL0     C 1591   9.282   8.904   3.357 -0.4584 -0.0898 -0.4103
   13MOL0     O 1592   9.158   8.854   3.352  0.9602  0.8083  0.2297
   13MOL0     C 1593   9.081   8.791   3.453  1.4943  0.0970  1.1660
   13MOL0     C 1594   8.971   8.898   3.495 -0.4362 -0.3945  0.0019
   13MOL0     C 1595   8.881   8.838   3.608 -0.4208 -0.0135  0.9342
   13MOL0     C 1596   8.731   8.873   3.600  0.1712  0.2281  0.5567
   13MOL0     C 1597   8.652   8.809   3.715 -0.5779  0.6331 -0.5065
   13MOL0     C 1598   8.498   8.841   3.701  1.0210 -1.1499 -0.4654
   13MOL0     C 1599   8.416   8.763   3.806  0.6906  0.2218 -0.6864
   13MOL0     C 1600   8.385   8.620   3.761 -0.1412 -0.3389 -0.7502
   13MOL0     N 1601   8.317   8.540   3.868 -0.4528 -0.4801 -0.2551
   13MOL0     C 1602   8.213   8.592   3.951 -0.9191  0.1140  0.3587
   13MOL0     C 1603   8.167   8.484   4.018 -0.4004 -0.3798  0.2027
   13MOL0     C 1604   8.057   8.488   4.122  0.3707  0.4716  0.6937
   13MOL0     C 1605   8.019   8.340   4.160 -0.3097 -0.0946 -0.3744
   13MOL0     C 1606   7.884   8.346   4.230 -0.0245 -0.1289 -0.0721
   13MOL0     C 1607   7.904   8.396   4.370 -0.2245  0.1710 -0.6023
   13MOL0     O 1608   7.908   8.535   4.385 -0.4200 -0.4480 -0.7811
   13MOL0     C 1609   7.800   8.612   4.378 -0.1963 -0.4684  0.4532
   13MOL0     C 1610   7.827   8.744   4.395  0.0960  0.4433  0.5309
   13MOL0     C 1611   7.719   8.838   4.391  0.4361  0.0906 -0.0617
   13MOL0     C 1612   7.586   8.797   4.398 -0.5055 -0.3535 -0.5623
   13MOL0     C 1613   7.469   8.891   4.412 -0.5018  0.0601 -0.0400
   13MOL0     O 1614   7.345   8.838   4.417  0.1364  0.4043  0.8792
   13MOL0     C 1615   7.243   8.925   4.410 -0.0947 -0.2981 -0.4061
   13MOL0     C 1616   7.209   8.993   4.524  0.5834  0.1460 -0.7904
   13MOL0     C 1617   7.106   9.096   4.513 -0.1068 -0.0315 -0.7153
   13MOL0     C 1618   7.035   9.123   4.403 -0.2873 -0.1594  0.2023
   13MOL0     O 1619   6.943   9.222   4.399 -0.9745  0.0036 -0.3433
   13MOL0     C 1620   6.804   9.183   4.432 -0.5654 -0.6447 -0.0546
   13MOL0     C 1621   6.756   9.242   4.566  0.3614 -1.0837  0.0756
   13MOL0     C 1622   6.759   9.395   4.569 -0.5185  0.3643  0.1893
   13MOL0     C 1623   6.696   9.442   4.693  0.8671 -0.0832 -0.2694
   13MOL0     C 1624   6.682   9.590   4.680  0.4146 -0.5491  0.1290
   13MOL0     C 1625   6.806   9.669   4.638 -0.0482  0.3627  0.2678
   13MOL0     C 1626   6.911   9.674   4.752  1.1040 -0.1101 -0.1334
   13MOL0     C 1627   7.001   9.783   4.733 -0.0792  0.4699 -0.0242
   13MOL0    Cl 1628   7.130   9.762   4.851  0.1886 -0.1022 -0.1809
   13MOL0     C 1629   7.068   9.045   4.289 -0.4288  0.1385  0.5971
   13MOL0     C 1630   7.177   8.953   4.290 -0.2030 -0.2661 -0.5952
   13MOL0     O 1631   7.506   9.007   4.398  0.4628  0.0818 -0.2824
   13MOL0     C 1632   7.560   8.666   4.390  0.3983 -0.9835  0.6438
   13MOL0     C 1633   7.666   8.575   4.367  0.3234  1.4253 -0.2790
   13MOL0     N 1634   8.248   8.376   3.982  0.1733  0.8406  0.2935
   13MOL0     N 1635   8.334   8.407   3.895  0.6573 -0.0981  0.5528
   13MOL0     C 1636   9.345   8.930   3.233 -0.1675 -0.1507 -0.3363
   13MOL0     C 1637   9.469   8.985   3.223 -0.0028  0.1391 -1.2129
   13MOL0     C 1638   9.912   8.993   3.288  0.2867 -0.9267  0.0504
   13MOL0     C 1639  10.005   8.892   3.260 -0.0294 -0.0032  0.1714
   13MOL0     C 1640  10.143   8.923   3.284 -0.1269  0.1908 -0.0148
   13MOL0     C 1641  10.200   9.039   3.332  0.3611 -0.2886  0.2249
   13MOL0     O 1642  10.331   9.064   3.345 -0.2692  0.3575 -0.1394
   13MOL0     C 1643  10.418   8.963   3.387 -0.6909 -0.3447 -0.2778
   13MOL0     C 1644  10.477   8.893   3.260 -0.5438  0.4022  0.3080
   13MOL0     C 1645  10.584   8.806   3.324  0.3239 -0.0624 -0.3783
   13MOL0     C 1646  10.698   8.753   3.236  0.5049  0.0938 -0.3957
   13MOL0     C 1647  10.774   8.846   3.162  0.3894  0.0549  0.1743
   13MOL0     C 1648  10.814   8.928   3.092 -0.5707 -0.6397  0.1376
   13MOL0     C 1649  10.107   9.137   3.350  0.0792 -0.3470  0.3577
   13MOL0     C 1650   9.966   9.114   3.329 -0.0184 -0.2413 -0.3127
   13MOL0     H 1651   9.557   8.977   3.549  1.7799  3.3501 -1.6011
   13MOL0     H 1652   9.323   8.907   3.570  0.7536 -2.0597 -0.9986
   13MOL0     H 1653   9.147   8.773   3.538  1.8941 -1.2946  0.5831
   13MOL0     H 1654   9.033   8.701   3.413  3.9334 -0.3714 -0.9493
   13MOL0     H 1655   8.904   8.929   3.414  0.0404 -1.1756 -0.7046
   13MOL0     H 1656   9.011   8.991   3.538 -3.8581  0.6097  1.3470
   13MOL0     H 1657   8.916   8.857   3.709 -2.5361  2.6294  1.3018
   13MOL0     H 1658   8.893   8.732   3.581 -0.7145  0.3137 -0.6125
   13MOL0     H 1659   8.711   8.981   3.601 -1.0688  0.0065  1.4678
   13MOL0     H 1660   8.697   8.834   3.503  0.0060  2.0041 -0.1512
   13MOL0     H 1661   8.688   8.853   3.808 -1.4685  2.4279 -0.9657
   13MOL0     H 1662   8.667   8.701   3.708 -0.2397  0.7256 -1.3922
   13MOL0     H 1663   8.471   8.811   3.599  0.2267  1.0612 -0.9504
   13MOL0     H 1664   8.468   8.945   3.713 -0.2503 -1.3208 -1.7992
   13MOL0     H 1665   8.469   8.759   3.901  3.0995 -1.1410 -1.9921
   13MOL0     H 1666   8.324   8.820   3.823  0.8172  0.4994 -0.9287
   13MOL0     H 1667   8.470   8.567   3.717 -0.7467  0.8295 -3.5895
   13MOL0     H 1668   8.313   8.639   3.681 -1.7409  1.8234  1.0829
   13MOL0     H 1669   8.172   8.691   3.963  2.3820  1.5335  0.9399
   13MOL0     H 1670   7.963   8.533   4.090  0.0460 -1.1088 -0.7332
   13MOL0     H 1671   8.087   8.549   4.208 -0.7378  1.1557  0.6070
   13MOL0     H 1672   8.099   8.297   4.221  0.2145  0.8922 -0.3509
   13MOL0     H 1673   8.010   8.274   4.073 -2.7671 -1.9357  1.1570
   13MOL0     H 1674   7.811   8.407   4.176 -2.2744  1.2652  4.1131
   13MOL0     H 1675   7.836   8.249   4.245 -0.5497  0.2941  1.0961
   13MOL0     H 1676   7.996   8.356   4.414 -0.6035  0.6845  0.6995
   13MOL0     H 1677   7.819   8.360   4.430 -0.7156  0.7962 -0.9038
   13MOL0     H 1678   7.933   8.769   4.397 -0.2283  1.8662  1.3413
   13MOL0     H 1679   7.748   8.943   4.389 -1.8826  0.8249 -3.5254
   13MOL0     H 1680   7.259   8.971   4.618 -0.5448  2.3770  0.4390
   13MOL0     H 1681   7.077   9.152   4.601  1.6002 -0.5766  0.2407
   13MOL0     H 1682   6.788   9.075   4.429 -3.9911 -0.2161 -1.2096
   13MOL0     H 1683   6.730   9.219   4.361 -1.9739 -0.1182  1.6039
   13MOL0     H 1684   6.821   9.215   4.650 -3.4208  1.8257  4.4225
   13MOL0     H 1685   6.661   9.202   4.603  0.3208 -0.2972  0.8566
   13MOL0     H 1686   6.704   9.432   4.481 -0.9433 -2.2354 -0.7489
   13MOL0     H 1687   6.866   9.417   4.563  0.0782 -1.5742  2.3477
   13MOL0     H 1688   6.595   9.404   4.707 -0.1477  2.0916 -1.2203
   13MOL0     H 1689   6.760   9.411   4.776 -1.5037 -1.3255  1.1729
   13MOL0     H 1690   6.637   9.623   4.774 -2.3920  0.5630 -1.4821
   13MOL0     H 1691   6.610   9.613   4.600  2.4580  0.3199 -1.5489
   13MOL0     H 1692   6.776   9.773   4.625  1.5303  0.8420  0.2679
   13MOL0     H 1693   6.849   9.650   4.539 -0.1429  1.0799  0.0843
   13MOL0     H 1694   6.861   9.681   4.849  0.2335 -2.8957 -0.2990
   13MOL0     H 1695   6.971   9.582   4.760 -0.0340 -0.8260  0.4625
   13MOL0     H 1696   6.959   9.883   4.745 -1.5851 -0.4462  4.5750
   13MOL0     H 1697   7.039   9.774   4.631  0.2859  2.4223 -0.0821
   13MOL0     H 1698   7.000   9.065   4.207 -1.9014 -0.6247  1.5795
   13MOL0     H 1699   7.211   8.904   4.199 -0.1330  0.2887 -0.8688
   13MOL0     H 1700   7.457   8.637   4.377  0.0096 -0.0898  1.6594
   13MOL0     H 1701   7.645   8.470   4.354  0.8570  1.0542  1.6244
   13MOL0     H 1702   9.292   8.898   3.144  0.0726  1.5400 -1.1236
   13MOL0     H 1703   9.522   8.994   3.129  1.8434  3.0501 -0.0509
   13MOL0     H 1704   9.977   8.792   3.228 -2.4633  0.5994  0.2317
   13MOL0     H 1705  10.222   8.851   3.267  0.9563  0.9154  1.6879
   13MOL0     H 1706  10.373   8.890   3.454  0.7334 -1.4158 -0.4621
   13MOL0     H 1707  10.491   9.016   3.448 -0.1963 -1.4317  0.0769
   13MOL0     H 1708  10.402   8.844   3.198 -1.3880 -2.0839  3.0726
   13MOL0     H 1709  10.523   8.964   3.191 -0.5613 -1.4816 -1.7601
   13MOL0     H 1710  10.542   8.718   3.375  2.3361 -2.4182 -2.5110
   13MOL0     H 1711  10.638   8.860   3.402 -2.0325  0.5302  0.9558
   13MOL0     H 1712  10.764   8.688   3.293 -0.7792 -1.1904 -0.3060
   13MOL0     H 1713  10.664   8.672   3.171  1.8585 -0.5845 -0.2935
   13MOL0     H 1714  10.856   9.006   3.032  0.4984  0.2819  2.0110
   13MOL0     H 1715  10.141   9.233   3.388  0.6902  0.5683 -2.3258
   13MOL0     H 1716   9.900   9.200   3.339  1.1356  0.3897  3.8567
   14MOL0     O 1717   6.683   0.458   1.594  0.7251  0.2719  0.5649
   14MOL0     C 1718   6.725   0.456   1.474  0.2517 -0.3498 -0.1425
   14MOL0     O 1719   6.822   0.540   1.425 -0.7746 -0.3455  0.5084
   14MOL0     C 1720   6.872   0.648   1.493 -0.0398  1.1463 -0.5325
   14MOL0     C 1721   6.786   0.752   1.517  0.2040  0.5215 -0.2087
   14MOL0     C 1722   6.824   0.864   1.587 -0.6472  0.3870 -0.7196
   14MOL0     C 1723   6.952   0.868   1.643 -0.5650 -0.0196 -0.8711
   14MOL0     O 1724   7.008   0.975   1.715 -0.2035  0.3653 -0.8053
   14MOL0     C 1725   6.921   1.075   1.763  0.3757  0.4050  0.3777
   14MOL0     C 1726   6.984   1.183   1.842 -0.1601  0.0775  0.9042
   14MOL0     C 1727   7.099   1.248   1.764 -0.9106 -1.2840  0.2739
   14MOL0     C 1728   7.171   1.352   1.860 -0.4195  0.2169  0.6301
   14MOL0     C 1729   7.298   1.407   1.795 -0.1862 -0.1683 -0.8251
   14MOL0     C 1730   7.386   1.452   1.919  0.2897 -0.2390  1.1510
   14MOL0     C 1731   7.534   1.498   1.870  0.6759 -0.0561 -0.6196
   14MOL0     C 1732   7.617   1.560   1.986 -0.6329  0.2356  0.5754
   14MOL0     N 1733   7.627   1.482   2.103  0.3772  0.3049 -0.5623
   14MOL0     C 1734   7.736   1.394   2.133 -0.0578  0.4601 -0.1995
   14MOL0     C 1735   7.708   1.343   2.253  1.0946 -0.3388  0.3535
   14MOL0     C 1736   7.794   1.243   2.318 -0.0653  0.2539  0.1425
   14MOL0     C 1737   7.715   1.137   2.389 -0.1412  0.1406 -0.4291
   14MOL0     C 1738   7.637   1.032   2.306  0.6246  0.6135 -0.1895
   14MOL0     C 1739   7.588   0.927   2.406 -0.7748 -0.4134 -1.1709
   14MOL0     O 1740   7.534   0.808   2.337  0.7654  0.4235  0.1508
   14MOL0     C 1741   7.412   0.770   2.382  0.0822 -0.9445  0.4786
   14MOL0     C 1742   7.344   0.797   2.501 -0.9023  0.3390  0.4897
   14MOL0     C 1743   7.222   0.733   2.521 -0.6032 -0.4686 -0.2188
   14MOL0     C 1744   7.163   0.642   2.431 -0.7722  0.5519 -0.0276
   14MOL0     C 1745   7.026   0.583   2.457 -0.2479 -0.2819  0.3067
   14MOL0     O 1746   6.950   0.647   2.552  0.0185  1.0385  0.1451
   14MOL0     C 1747   6.824   0.590   2.573  0.3512  0.4040  0.0106
   14MOL0     C 1748   6.800   0.475   2.641 -0.1750 -0.2372 -0.5147
   14MOL0     C 1749   6.668   0.427   2.656 -0.0725  0.6273  0.0900
   14MOL0     C 1750   6.559   0.490   2.582 -0.1648 -0.0489 -0.0316
   14MOL0     O 1751   6.424   0.465   2.591  0.5083  0.8913 -0.5463
   14MOL0     C 1752   6.385   0.347   2.652 -0.2497  0.3834 -0.1173
   14MOL0     C 1753   6.253   0.296   2.612 -0.0955  0.2776 -0.0079
   14MOL0     C 1754   6.228   0.165   2.667 -0.4514  0.7925 -0.4258
   14MOL0     C 1755   6.084   0.123   2.662 -0.5494  0.0678 -0.1219
   14MOL0     C 1756   6.025   0.146   2.526 -0.2950 -0.3641  0.0347
   14MOL0     C 1757   5.884   0.074   2.530  0.7589  0.2993  0.0923
   14MOL0     C 1758   5.812   0.062   2.399  0.3055 -0.2544 -0.7163
   14MOL0     C 1759   5.713  -0.051   2.391  0.3666  0.1658 -0.8492
   14MOL0    Cl 1760   5.606  -0.066   2.538 -0.2381  0.1689 -0.0699
   14MOL0     C 1761   6.587   0.602   2.496 -0.6714 -0.0732 -0.1584
   14MOL0     C 1762   6.724   0.646   2.490  0.7908  0.5940 -0.0222
   14MOL0     O 1763   6.984   0.506   2.372 -0.2209  0.7358 -0.3916
   14MOL0     C 1764   7.236   0.610   2.315  0.5912 -0.0120  0.4580
   14MOL0     C 1765   7.354   0.683   2.289 -0.1501  0.8615 -0.4343
   14MOL0     N 1766   7.582   1.395   2.299  0.0905 -0.1635  0.7611
   14MOL0     N 1767   7.532   1.474   2.198 -1.1032  0.1070 -0.5487
   14MOL0     C 1768   7.046   0.773   1.606  0.7317  0.7746  1.0030
   14MOL0     C 1769   7.005   0.663   1.529 -0.0323 -0.0028 -1.0391
   14MOL0     C 1770   6.684   0.342   1.391  0.6890  1.0424  0.1321
   14MOL0     C 1771   6.702   0.341   1.254  0.5004  0.6455  0.9147
   14MOL0     C 1772   6.653   0.242   1.166  0.0460  0.1809 -0.6191
   14MOL0     C 1773   6.597   0.127   1.224  0.1592  0.0860 -0.0147
   14MOL0     O 1774   6.549   0.023   1.149 -0.4213  0.4512  0.5564
   14MOL0     C 1775   6.636  -0.091   1.136  0.0381 -0.1125  0.4168
   14MOL0     C 1776   6.546  -0.217   1.092 -0.8779 -0.1558 -0.5673
   14MOL0     C 1777   6.631  -0.310   1.009  0.0554 -0.3599  0.2768
   14MOL0     C 1778   6.740  -0.392   1.092  1.0152 -0.2788  0.1827
   14MOL0     C 1779   6.792  -0.502   1.019 -0.3747 -0.3401  0.3958
   14MOL0     C 1780   6.835  -0.596   0.957 -0.8180 -0.1465  0.3218
   14MOL0     C 1781   6.586   0.125   1.361  0.5888  0.2303 -0.2442
   14MOL0     C 1782   6.623   0.234   1.445  0.7288 -0.1937 -0.2245
   14MOL0     H 1783   6.680   0.740   1.494 -0.2957  2.1795  1.0729
   14MOL0     H 1784   6.745   0.937   1.603 -2.8901 -1.6766 -1.6227
   14MOL0     H 1785   6.849   1.033   1.834 -0.6467  1.7972  0.1963
   14MOL0     H 1786   6.864   1.113   1.678  2.1832 -1.6499 -1.9279
   14MOL0     H 1787   7.034   1.144   1.931  1.0285 -1.4044 -0.3627
   14MOL0     H 1788   6.911   1.262   1.863  0.7821  1.0087  0.7815
   14MOL0     H 1789   7.062   1.291   1.671 -1.2380  0.1913  1.0568
   14MOL0     H 1790   7.173   1.171   1.741 -0.6508 -1.3206  1.2002
   14MOL0     H 1791   7.109   1.439   1.883  0.2421  2.0164 -3.5290
   14MOL0     H 1792   7.191   1.311   1.960 -0.1451  4.8681  2.7378
   14MOL0     H 1793   7.274   1.486   1.723  1.7652 -0.3760 -1.7603
   14MOL0     H 1794   7.353   1.340   1.729  0.8902  0.3890 -0.5241
   14MOL0     H 1795   7.398   1.369   1.990  0.1341 -0.2810  1.1270
   14MOL0     H 1796   7.340   1.537   1.971 -1.8582 -0.6136 -0.0339
   14MOL0     H 1797   7.589   1.416   1.824  0.7561 -0.1039 -0.4416
   14MOL0     H 1798   7.521   1.564   1.784 -1.9487  2.3435  1.4197
   14MOL0     H 1799   7.579   1.655   2.025  0.3389  0.1557  1.8000
   14MOL0     H 1800   7.719   1.576   1.952  0.0779  0.1640  2.5549
   14MOL0     H 1801   7.822   1.374   2.070 -0.6529 -0.2923 -0.7866
   14MOL0     H 1802   7.859   1.304   2.382 -1.0704  2.9342 -1.2703
   14MOL0     H 1803   7.857   1.191   2.245  2.0707  1.4972  1.0046
   14MOL0     H 1804   7.644   1.183   2.458 -0.3307 -1.9858  0.9074
   14MOL0     H 1805   7.784   1.080   2.452 -1.6142 -1.9590 -0.6174
   14MOL0     H 1806   7.554   1.082   2.254 -0.1861 -1.4227 -0.9556
   14MOL0     H 1807   7.709   0.998   2.231  0.3897  2.2441 -1.2160
   14MOL0     H 1808   7.527   0.987   2.474  2.5141  1.7584  0.1032
   14MOL0     H 1809   7.665   0.889   2.474 -2.6129 -0.1996  1.1762
   14MOL0     H 1810   7.390   0.859   2.577 -0.7618  0.2230  0.5003
   14MOL0     H 1811   7.160   0.759   2.606  0.8239 -0.3129  0.8135
   14MOL0     H 1812   6.878   0.430   2.701 -0.3040  1.6360  1.1206
   14MOL0     H 1813   6.646   0.339   2.715  2.0400 -0.5821 -0.8149
   14MOL0     H 1814   6.391   0.374   2.758  2.2680  2.8518 -0.7617
   14MOL0     H 1815   6.466   0.274   2.645  1.8599  2.1120  3.3164
   14MOL0     H 1816   6.245   0.286   2.503  2.0405 -2.9386  0.0209
   14MOL0     H 1817   6.172   0.357   2.653  0.8788 -0.1784  2.8215
   14MOL0     H 1818   6.259   0.171   2.772 -0.8520  1.8803 -0.3562
   14MOL0     H 1819   6.277   0.081   2.618 -2.3820 -1.0710  0.6586
   14MOL0     H 1820   6.071   0.022   2.701 -2.1807 -0.2186 -1.3034
   14MOL0     H 1821   6.031   0.191   2.729  1.4174  1.3821  0.2014
   14MOL0     H 1822   6.082   0.096   2.448  1.1170  0.4393  0.5260
   14MOL0     H 1823   6.024   0.249   2.492 -2.7548 -0.7932 -1.5022
   14MOL0     H 1824   5.806   0.123   2.590  0.7453  0.9156 -0.4200
   14MOL0     H 1825   5.896  -0.025   2.574  0.0330  0.1427 -0.0477
   14MOL0     H 1826   5.772   0.158   2.365 -1.7074 -1.5412 -2.2228
   14MOL0     H 1827   5.897   0.048   2.331  0.3018  1.1855 -1.0479
   14MOL0     H 1828   5.775  -0.141   2.379 -0.4914 -0.5194 -0.2545
   14MOL0     H 1829   5.653  -0.043   2.300 -0.3123  0.3617 -0.3920
   14MOL0     H 1830   6.515   0.661   2.440  1.5452  2.3894 -0.6264
   14MOL0     H 1831   6.749   0.728   2.423  0.8604 -0.8888 -1.8836
   14MOL0     H 1832   7.193   0.549   2.236 -1.5342  1.6252  0.2428
   14MOL0     H 1833   7.402   0.673   2.192 -0.7033 -0.6692 -0.5688
   14MOL0     H 1834   7.148   0.779   1.642  1.9016 -2.9682 -1.2013
   14MOL0     H 1835   7.079   0.589   1.499  1.1483  0.4531  0.6525
   14MOL0     H 1836   6.749   0.430   1.213  0.8714 -0.0417 -0.1879
   14MOL0     H 1837   6.665   0.254   1.059  3.7857 -0.3986 -0.4179
   14MOL0     H 1838   6.689  -0.116   1.228  0.4817 -0.8027 -0.0106
   14MOL0     H 1839   6.704  -0.064   1.055 -1.6908  1.5422 -0.5634
   14MOL0     H 1840   6.504  -0.257   1.185  1.1688  0.6905  0.8034
   14MOL0     H 1841   6.452  -0.181   1.049 -0.7111  2.7503  1.2289
   14MOL0     H 1842   6.681  -0.262   0.924  2.1620 -2.0394  0.4872
   14MOL0     H 1843   6.560  -0.382   0.965  0.0892  0.9074 -2.0061
   14MOL0     H 1844   6.825  -0.330   1.122 -0.3962  4.1403 -3.6923
   14MOL0     H 1845   6.696  -0.440   1.180 -0.5437 -0.5370 -0.6947
   14MOL0     H 1846   6.888  -0.682   0.921 -0.2999 -0.5206  1.8810
   14MOL0     H 1847   6.530   0.041   1.402 -0.5169  1.3002  0.5003
   14MOL0     H 1848   6.603   0.232   1.552  0.6045  0.1861 -0.2402
   15MOL0     O 1849   8.133  10.605   3.801  0.6232 -0.0429 -0.1510
   15MOL0     C 1850   8.116  10.488   3.768 -0.8033 -1.0429 -0.2164
   15MOL0     O 1851   8.199  10.410   3.698 -0.1716 -0.2660  0.6519
   15MOL0     C 1852   8.336  10.430   3.712 -0.0125  0.3317 -0.1747
   15MOL0     C 1853   8.411  10.547   3.683 -0.0473  0.1779 -0.1381
   15MOL0     C 1854   8.545  10.568   3.718  0.3796 -0.4144 -0.2993
   15MOL0     C 1855   8.613  10.459   3.785 -0.2090 -0.0407  0.7154
   15MOL0     O 1856   8.742  10.462   3.820 -0.5402  0.0072 -0.0467
   15MOL0     C 1857   8.793  10.589   3.859 -0.7553  0.1693 -0.3709
   15MOL0     C 1858   8.942  10.581   3.871 -0.0861 -0.1453 -0.1228
   15MOL0     C 1859   9.029  10.553   3.753 -0.0701 -0.4248 -0.0364
   15MOL0     C 1860   9.186  10.577   3.782  0.1013  0.3704  0.5979
   15MOL0     C 1861   9.267  10.585   3.652  0.4005 -0.3835  0.6893
   15MOL0     C 1862   9.425  10.577   3.684 -0.4459  0.6632  0.7579
   15MOL0     C 1863   9.514  10.586   3.554 -0.1280 -0.8986  0.2689
   15MOL0     C 1864   9.656  10.512   3.568  0.8204 -0.2738 -0.7456
   15MOL0     N 1865   9.761  10.600   3.630 -0.8441 -0.0974  0.0829
   15MOL0     C 1866   9.849  10.677   3.564  0.5138 -0.5555 -0.5764
   15MOL0     C 1867   9.921  10.746   3.659 -0.4202  0.4321 -0.1874
   15MOL0     C 1868  10.035  10.847   3.639 -0.2681 -0.4942 -0.0001
   15MOL0     C 1869   9.986  10.980   3.606  0.1112  0.5432 -0.0817
   15MOL0     C 1870   9.926  11.059   3.730  0.0722  0.4848 -0.1526
   15MOL0     C 1871   9.879  11.203   3.695  0.0989  0.3536  0.5239
   15MOL0     O 1872   9.795  11.214   3.577  0.2295  0.2360 -0.6302
   15MOL0     C 1873   9.667  11.170   3.563 -0.5005  0.0061 -0.5114
   15MOL0     C 1874   9.595  11.114   3.669 -1.2101 -0.6543  0.6369
   15MOL0     C 1875   9.465  11.079   3.648  0.2202  0.4044  0.8065
   15MOL0     C 1876   9.399  11.095   3.523 -0.5205  0.2199 -0.1786
   15MOL0     C 1877   9.254  11.067   3.503  0.2085 -0.4671 -0.9492
   15MOL0     O 1878   9.187  10.994   3.593 -0.6539  0.2725  0.1848
   15MOL0     C 1879   9.053  10.991   3.596  0.3328  0.4364  0.2456
   15MOL0     C 1880   8.970  11.100   3.612  0.6325 -0.2667  0.9896
   15MOL0     C 1881   8.837  11.090   3.586  0.3500 -0.6113 -0.0762
   15MOL0     C 1882   8.782  10.969   3.553  0.1854  0.2046  0.1679
   15MOL0     O 1883   8.645  10.946   3.537 -0.0893  0.1213  0.0991
   15MOL0     C 1884   8.549  11.033   3.581 -0.1413  0.0228 -0.8177
   15MOL0     C 1885   8.414  10.968   3.556 -0.2338  0.1422 -0.5111
   15MOL0     C 1886   8.277  11.045   3.597  0.4322  1.1059 -0.5125
   15MOL0     C 1887   8.149  10.955   3.590 -0.1040 -0.1496  0.1700
   15MOL0     C 1888   8.015  11.026   3.599  0.2893 -0.8631  0.4268
   15MOL0     C 1889   7.903  10.925   3.601  0.8186  0.3333 -0.0154
   15MOL0     C 1890   7.776  10.990   3.640  1.3318 -0.4319 -0.8186
   15MOL0     C 1891   7.650  10.899   3.614  0.8058  0.4360  0.1360
   15MOL0    Cl 1892   7.675  10.747   3.713  0.1018  0.1810  0.2301
   15MOL0     C 1893   8.858  10.851   3.544  0.2532 -0.6141  0.1718
   15MOL0     C 1894   8.990  10.867   3.578  0.0815 -0.4562  0.1305
   15MOL0     O 1895   9.196  11.134   3.411  0.3225  0.5270  0.3309
   15MOL0     C 1896   9.479  11.157   3.428  0.3083  0.2566  0.2208
   15MOL0     C 1897   9.614  11.187   3.436 -1.1581 -0.4399  0.5999
   15MOL0     N 1898   9.862  10.706   3.782 -0.0382  0.2765 -0.3297
   15MOL0     N 1899   9.775  10.608   3.767  0.6754  0.3592  0.1417
   15MOL0     C 1900   8.548  10.333   3.794 -0.0209 -0.0946 -0.3422
   15MOL0     C 1901   8.409  10.321   3.766 -0.0979  1.1917  0.5809
   15MOL0     C 1902   7.990  10.419   3.805  0.1818 -0.4577  0.3425
   15MOL0     C 1903   7.990  10.284   3.827  0.1221 -1.0875 -0.4916
   15MOL0     C 1904   7.879  10.212   3.874  0.4549 -0.4176 -0.4286
   15MOL0     C 1905   7.760  10.280   3.885  0.2574  0.5320 -0.8940
   15MOL0     O 1906   7.650  10.211   3.939  0.2236 -0.0976  0.0355
   15MOL0     C 1907   7.602  10.089   3.880 -0.1872  0.0515 -0.4487
   15MOL0     C 1908   7.478  10.037   3.945  0.6393 -0.4196 -0.2975
   15MOL0     C 1909   7.349  10.078   3.884  0.2442  0.1053 -0.1899
   15MOL0     C 1910   7.221   9.997   3.932 -0.0295  0.3468 -0.9647
   15MOL0     C 1911   7.223   9.848   3.924 -0.9549  0.7569 -0.2138
   15MOL0     C 1912   7.225   9.726   3.910 -0.0930 -0.5350  0.4348
   15MOL0     C 1913   7.756  10.423   3.865  0.1731 -0.0967  0.2026
   15MOL0     C 1914   7.870  10.492   3.828  0.5951  0.4683  0.0160
   15MOL0     H 1915   8.355  10.629   3.640 -0.4480  0.1790  0.3745
   15MOL0     H 1916   8.582  10.665   3.687 -1.5348  0.4518 -0.0352
   15MOL0     H 1917   8.751  10.626   3.952 -1.4146  0.3613 -0.7396
   15MOL0     H 1918   8.771  10.668   3.786 -1.5311  1.2367  0.9768
   15MOL0     H 1919   8.974  10.497   3.933 -0.1798  0.7501  1.1924
   15MOL0     H 1920   8.970  10.673   3.924  2.4019 -0.4605 -0.7605
   15MOL0     H 1921   9.006  10.627   3.676 -1.6962 -0.4460  0.3899
   15MOL0     H 1922   9.017  10.450   3.717 -0.1316 -0.8006  1.0238
   15MOL0     H 1923   9.211  10.658   3.852  1.5039 -0.4742  1.1141
   15MOL0     H 1924   9.231  10.490   3.831  0.5364  0.3640  0.1866
   15MOL0     H 1925   9.251  10.672   3.588  1.0364  0.1541  1.2353
   15MOL0     H 1926   9.245  10.498   3.591  2.2779  0.8252 -1.9032
   15MOL0     H 1927   9.441  10.478   3.728  0.3128  0.6385  0.4378
   15MOL0     H 1928   9.452  10.656   3.754 -2.2454  1.2122  0.8718
   15MOL0     H 1929   9.468  10.539   3.466  2.2415 -1.3275 -0.8312
   15MOL0     H 1930   9.511  10.689   3.518 -2.2155 -0.7207  0.7953
   15MOL0     H 1931   9.692  10.491   3.467 -2.9381 -1.1725 -2.0665
   15MOL0     H 1932   9.645  10.417   3.621  0.0530 -1.0948 -2.3275
   15MOL0     H 1933   9.858  10.679   3.456  1.0479 -0.7199 -0.5356
   15MOL0     H 1934  10.092  10.818   3.550 -1.1714  1.4924 -1.3156
   15MOL0     H 1935  10.090  10.841   3.733  1.6416  0.1843 -1.0331
   15MOL0     H 1936   9.908  10.965   3.531  0.5456  0.3815 -0.5064
   15MOL0     H 1937  10.068  11.033   3.556  0.3403 -0.4099 -0.7353
   15MOL0     H 1938   9.841  11.000   3.763  0.6175  0.9028  2.1901
   15MOL0     H 1939   9.998  11.058   3.812  0.4006 -3.6436 -0.2934
   15MOL0     H 1940   9.976  11.247   3.671  0.9067 -1.5503  0.0891
   15MOL0     H 1941   9.829  11.255   3.777  0.7503  1.8936 -0.0273
   15MOL0     H 1942   9.626  11.085   3.769 -0.8012 -3.7912 -0.3023
   15MOL0     H 1943   9.407  11.043   3.732 -0.6559  1.9954  0.9106
   15MOL0     H 1944   9.013  11.194   3.645 -1.3307  0.5060  1.4595
   15MOL0     H 1945   8.765  11.170   3.595 -0.9338 -1.6738 -0.5635
   15MOL0     H 1946   8.543  11.128   3.527 -1.5350  0.4366  0.0031
   15MOL0     H 1947   8.557  11.045   3.689 -2.4067 -0.5484 -0.5332
   15MOL0     H 1948   8.414  10.865   3.593  0.0484  0.0380 -0.7949
   15MOL0     H 1949   8.407  10.958   3.447 -1.2916 -1.0919 -0.3578
   15MOL0     H 1950   8.274  11.127   3.525  1.2371  1.1800 -0.4746
   15MOL0     H 1951   8.279  11.075   3.702 -2.9855 -1.1461  0.3709
   15MOL0     H 1952   8.146  10.895   3.498 -0.1223  0.9794 -0.5792
   15MOL0     H 1953   8.157  10.882   3.671  0.2583 -1.8947 -1.3681
   15MOL0     H 1954   8.009  11.093   3.513  3.2876 -1.8296 -0.6700
   15MOL0     H 1955   8.009  11.084   3.691  3.6336  0.0162  0.2300
   15MOL0     H 1956   7.919  10.837   3.663  0.3715 -0.9453 -1.6700
   15MOL0     H 1957   7.903  10.892   3.497 -1.8495 -3.1110  0.8897
   15MOL0     H 1958   7.771  11.015   3.746  3.7610  1.6956 -1.1205
   15MOL0     H 1959   7.759  11.080   3.581 -1.0065  0.2570  0.7745
   15MOL0     H 1960   7.635  10.880   3.507  1.3859  3.1693 -0.5008
   15MOL0     H 1961   7.569  10.962   3.651 -0.0877 -2.2822  3.2595
   15MOL0     H 1962   8.819  10.754   3.516  2.5224 -1.4190 -0.3484
   15MOL0     H 1963   9.059  10.784   3.573  2.4212  1.3662  0.7036
   15MOL0     H 1964   9.434  11.162   3.329  2.7762 -3.6696 -1.3663
   15MOL0     H 1965   9.683  11.217   3.357  3.1322 -0.7361  3.8932
   15MOL0     H 1966   8.603  10.253   3.844  0.8295  1.0338  0.6176
   15MOL0     H 1967   8.361  10.224   3.779  0.3047  1.1305  1.7025
   15MOL0     H 1968   8.079  10.224   3.814  2.6494  1.7816  2.0577
   15MOL0     H 1969   7.898  10.106   3.879 -0.5077 -0.6191 -0.8123
   15MOL0     H 1970   7.673  10.007   3.886  0.3438  0.2947 -2.6638
   15MOL0     H 1971   7.582  10.098   3.773 -0.2241  2.7114 -0.2813
   15MOL0     H 1972   7.482   9.928   3.937 -2.1591 -0.5805 -0.6374
   15MOL0     H 1973   7.483  10.075   4.047  0.1606  0.8347 -0.7271
   15MOL0     H 1974   7.352  10.058   3.777  0.1815  1.6293 -0.4917
   15MOL0     H 1975   7.335  10.185   3.903  0.8404  0.3031 -0.8111
   15MOL0     H 1976   7.225  10.012   4.040  2.2989 -0.5004 -0.8779
   15MOL0     H 1977   7.126  10.041   3.901 -0.4372 -0.7995 -1.3750
   15MOL0     H 1978   7.241   9.621   3.899 -3.2720 -1.2774  1.8373
   15MOL0     H 1979   7.669  10.488   3.865  0.4330  0.2743 -0.8599
   15MOL0     H 1980   7.876  10.599   3.812 -1.6128  0.3956 -2.0515
   16MOL0     O 1981   8.146  10.079   9.083  0.3325 -0.1683  0.2185
   16MOL0     C 1982   8.088  10.159   9.148  0.7802 -1.1164  0.2307
   16MOL0     O 1983   8.135  10.267   9.213 -0.4230  0.5294 -0.5224
   16MOL0     C 1984   8.281  10.262   9.223  0.2618 -0.2933  0.1197
   16MOL0     C 1985   8.355  10.299   9.116 -0.1491 -0.0649  0.1341
   16MOL0     C 1986   8.497  10.299   9.128 -0.2302  0.7151  0.5996
   16MOL0     C 1987   8.557  10.249   9.248  0.2907  1.6986  0.9153
   16MOL0     O 1988   8.696  10.250   9.246  0.0299  0.2231 -0.6759
   16MOL0     C 1989   8.764  10.186   9.350 -0.0447  0.8180  0.1199
   16MOL0     C 1990   8.919  10.191   9.312 -0.6405 -0.6837  0.3432
   16MOL0     C 1991   8.995  10.302   9.396  0.3989 -0.3419 -0.0917
   16MOL0     C 1992   8.996  10.426   9.311 -0.4323 -0.2984 -0.1205
   16MOL0     C 1993   9.048  10.536   9.407 -0.0396  0.8547  0.2880
   16MOL0     C 1994   9.095  10.665   9.322  0.0051 -0.2386 -0.7573
   16MOL0     C 1995   8.975  10.741   9.240  0.7141 -0.1719  0.2002
   16MOL0     C 1996   8.844  10.753   9.313  0.7452 -0.4534 -0.4392
   16MOL0     N 1997   8.848  10.827   9.433  0.3594 -0.1313 -0.3620
   16MOL0     C 1998   8.783  10.791   9.551  0.6403  0.5612 -0.1056
   16MOL0     C 1999   8.803  10.898   9.631 -0.8152 -0.2823  0.3394
   16MOL0     C 2000   8.751  10.929   9.770 -0.4484  0.8681 -0.9481
   16MOL0     C 2001   8.718  11.077   9.798  0.1028  0.5478  0.7605
   16MOL0     C 2002   8.665  11.101   9.941  0.7751 -0.5134 -0.1628
   16MOL0     C 2003   8.509  11.058   9.973 -0.5618 -0.8711  0.8124
   16MOL0     O 2004   8.412  11.113   9.873  0.2860  0.8946 -0.6201
   16MOL0     C 2005   8.294  11.043   9.881 -0.5377 -0.3499 -0.2868
   16MOL0     C 2006   8.222  11.038  10.002  0.3252 -0.3970  0.5226
   16MOL0     C 2007   8.089  10.987  10.008  0.6420  0.5416  0.3677
   16MOL0     C 2008   8.026  10.940   9.899 -0.1873  1.1746  0.4115
   16MOL0     C 2009   7.887  10.863   9.905 -0.0832 -0.7825  0.0441
   16MOL0     O 2010   7.818  10.864  10.030 -0.3000 -0.0561 -0.8800
   16MOL0     C 2011   7.708  10.786  10.030  0.3499  0.0551  0.0838
   16MOL0     C 2012   7.709  10.659  10.087  0.3700 -0.4489  0.3505
   16MOL0     C 2013   7.589  10.589  10.113 -0.2459  0.4459  0.4968
   16MOL0     C 2014   7.461  10.647  10.095 -0.0487  0.3223 -0.8417
   16MOL0     O 2015   7.344  10.571  10.117 -0.0735 -1.0410 -0.2163
   16MOL0     C 2016   7.213  10.631  10.113  0.3592 -0.6959 -0.6449
   16MOL0     C 2017   7.111  10.533  10.160 -0.1678  0.2568 -0.1449
   16MOL0     C 2018   6.966  10.565  10.124  1.2411  0.1193  0.1549
   16MOL0     C 2019   6.873  10.473  10.207  1.0760  0.9467 -0.2268
   16MOL0     C 2020   6.730  10.444  10.161  0.5378  0.6796 -0.2804
   16MOL0     C 2021   6.630  10.421  10.279 -0.4112  0.1799  0.7862
   16MOL0     C 2022   6.484  10.380  10.258  0.0314 -0.6954 -0.4754
   16MOL0     C 2023   6.482  10.242  10.194  1.4006 -0.4690  0.6529
   16MOL0    Cl 2024   6.312  10.199  10.193 -0.1434  0.1984 -0.0123
   16MOL0     C 2025   7.460  10.774  10.033 -0.2052  0.3416  0.5958
   16MOL0     C 2026   7.584  10.838   9.999  0.7038 -0.9993 -0.3094
   16MOL0     O 2027   7.858  10.800   9.810  0.8047 -0.0535 -0.5653
   16MOL0     C 2028   8.097  10.955   9.776  0.0546  1.0386 -0.2158
   16MOL0     C 2029   8.229  11.008   9.768 -1.1139 -0.7931 -0.6024
   16MOL0     N 2030   8.891  10.991   9.574 -0.5596 -0.2715  0.1717
   16MOL0     N 2031   8.921  10.945   9.456  0.4647  0.6517  0.1591
   16MOL0     C 2032   8.476  10.206   9.349  0.1899  1.1149 -0.4282
   16MOL0     C 2033   8.335  10.206   9.336 -0.3205  0.1811  0.6946
   16MOL0     C 2034   7.938  10.153   9.150 -0.0435  0.0574  0.7004
   16MOL0     C 2035   7.870  10.187   9.270 -0.7334  0.4796 -0.1976
   16MOL0     C 2036   7.733  10.153   9.284 -0.2894 -0.0855  0.0834
   16MOL0     C 2037   7.665  10.099   9.168  0.0096  0.1981  0.6407
   16MOL0     O 2038   7.529  10.095   9.183 -0.0724  0.2470 -0.0369
   16MOL0     C 2039   7.445  10.053   9.073  0.4029 -0.1410  0.1414
   16MOL0     C 2040   7.316  10.006   9.119  0.1825 -0.0224 -0.7666
   16MOL0     C 2041   7.318   9.868   9.179  0.6015  0.8237  0.4456
   16MOL0     C 2042   7.175   9.831   9.196  0.2402 -0.4512 -0.0057
   16MOL0     C 2043   7.106   9.821   9.068  1.1978  0.0942  0.1140
   16MOL0     C 2044   7.048   9.813   8.962  0.6437 -0.3180  1.0130
   16MOL0     C 2045   7.730  10.079   9.049 -0.5064  0.6965 -0.0436
   16MOL0     C 2046   7.866  10.102   9.040  0.2401  0.4319 -0.3545
   16MOL0     H 2047   8.301  10.328   9.026  1.0202 -3.7663 -1.9741
   16MOL0     H 2048   8.572  10.323   9.054 -0.0652  2.1385  1.2109
   16MOL0     H 2049   8.726  10.083   9.348  0.7644  0.4330  2.1992
   16MOL0     H 2050   8.736  10.244   9.438 -0.2587  1.5474 -0.4194
   16MOL0     H 2051   8.941  10.218   9.208 -1.2153  1.5958  0.7592
   16MOL0     H 2052   8.963  10.091   9.326  1.7834  0.3039  0.1424
   16MOL0     H 2053   9.099  10.272   9.411  0.0148 -1.4889  0.3217
   16MOL0     H 2054   8.945  10.313   9.492  0.6318  0.9570 -0.0942
   16MOL0     H 2055   9.072  10.416   9.234  1.4804  1.3389  1.4478
   16MOL0     H 2056   8.899  10.458   9.272 -0.5780 -2.4722 -1.7321
   16MOL0     H 2057   9.139  10.491   9.448 -1.7790 -0.6483  2.8137
   16MOL0     H 2058   8.973  10.569   9.479 -0.5523  1.0283 -0.3173
   16MOL0     H 2059   9.190  10.637   9.275  1.5237 -0.8437  2.4077
   16MOL0     H 2060   9.130  10.744   9.389 -0.9924  0.6457 -1.2435
   16MOL0     H 2061   9.013  10.842   9.229  1.8280 -0.6491 -0.5215
   16MOL0     H 2062   8.945  10.708   9.140 -0.5034 -1.7480  1.0292
   16MOL0     H 2063   8.797  10.656   9.332 -3.7160  1.7172  0.8280
   16MOL0     H 2064   8.785  10.808   9.239  0.3486 -0.2435  0.0304
   16MOL0     H 2065   8.729  10.698   9.572  2.1806 -1.3858 -3.9314
   16MOL0     H 2066   8.829  10.899   9.841 -0.0918 -1.8508 -2.3511
   16MOL0     H 2067   8.667  10.866   9.801  1.3591 -1.2744 -0.1145
   16MOL0     H 2068   8.633  11.096   9.732  1.0726 -0.8356 -1.0018
   16MOL0     H 2069   8.808  11.136   9.778  0.2738  0.0908  0.1509
   16MOL0     H 2070   8.734  11.043  10.003 -0.1088 -2.2943 -0.7714
   16MOL0     H 2071   8.668  11.207   9.967 -0.4564 -0.9395  2.0486
   16MOL0     H 2072   8.484  11.091  10.074  0.3181  1.0002  0.4636
   16MOL0     H 2073   8.501  10.949   9.973  1.0648 -1.1017 -2.2112
   16MOL0     H 2074   8.271  11.084  10.087 -0.6928 -0.8470  1.3585
   16MOL0     H 2075   8.049  10.961  10.106 -0.4728  0.1220 -0.1701
   16MOL0     H 2076   7.800  10.603  10.107 -0.4848 -1.3587  1.7940
   16MOL0     H 2077   7.609  10.485  10.136  2.6984  0.8747  0.3521
   16MOL0     H 2078   7.189  10.662  10.011  0.0871 -1.0718 -0.7004
   16MOL0     H 2079   7.217  10.712  10.185 -2.1103  0.5760 -1.8066
   16MOL0     H 2080   7.115  10.515  10.268  0.0100  0.8591 -0.0493
   16MOL0     H 2081   7.133  10.437  10.113  1.1572  1.5577 -2.4121
   16MOL0     H 2082   6.964  10.549  10.016  5.4223 -1.3209  0.1196
   16MOL0     H 2083   6.945  10.670  10.147 -3.0464 -0.6450  0.5540
   16MOL0     H 2084   6.913  10.372  10.218 -1.7419 -0.1733  0.8271
   16MOL0     H 2085   6.865  10.511  10.310 -0.5658 -0.5330  0.2314
   16MOL0     H 2086   6.728  10.366  10.085  3.8613 -1.4568  1.5692
   16MOL0     H 2087   6.704  10.538  10.112 -1.8518  0.4672  0.4531
   16MOL0     H 2088   6.631  10.506  10.348 -0.8825 -0.0599  1.1001
   16MOL0     H 2089   6.672  10.343  10.343  0.3172  0.4815  0.6818
   16MOL0     H 2090   6.431  10.359  10.351  0.1346 -0.9650 -0.4764
   16MOL0     H 2091   6.437  10.454  10.194 -0.4170 -0.2981  0.2971
   16MOL0     H 2092   6.550  10.164  10.231 -0.6291 -2.2539  0.8743
   16MOL0     H 2093   6.512  10.260  10.090  2.3764  0.0525  1.0155
   16MOL0     H 2094   7.370  10.833  10.018  0.9644  1.8705 -0.9046
   16MOL0     H 2095   7.597  10.939   9.961  2.8145 -2.1359 -2.8505
   16MOL0     H 2096   8.044  10.923   9.686  0.9750 -2.4320  0.3088
   16MOL0     H 2097   8.268  11.023   9.668 -0.1792 -0.9276 -0.2633
   16MOL0     H 2098   8.516  10.169   9.443  2.4487  2.3561 -0.8215
   16MOL0     H 2099   8.272  10.167   9.415  0.2750 -1.3624  0.4380
   16MOL0     H 2100   7.917  10.237   9.354 -0.3357 -0.8813  0.4089
   16MOL0     H 2101   7.676  10.177   9.373  0.5801  1.0664  0.3447
   16MOL0     H 2102   7.484   9.980   9.001 -3.4348  1.8902 -4.5295
   16MOL0     H 2103   7.427  10.140   9.010 -0.7642 -2.1751 -2.5062
   16MOL0     H 2104   7.289  10.077   9.198 -0.8695 -0.3536 -0.8028
   16MOL0     H 2105   7.245  10.039   9.042 -1.4845  1.1855  1.1714
   16MOL0     H 2106   7.373   9.863   9.273 -1.1778  3.8361  1.7874
   16MOL0     H 2107   7.356   9.786   9.117 -1.1300 -2.8161  3.8150
   16MOL0     H 2108   7.171   9.728   9.231 -0.4213  0.3315  2.3701
   16MOL0     H 2109   7.131   9.889   9.278  3.9909  1.0975  1.1228
   16MOL0     H 2110   7.019   9.804   8.859 -1.0810  0.4711  1.3879
   16MOL0     H 2111   7.662  10.054   8.969 -1.9388  1.6147  0.8467
   16MOL0     H 2112   7.931  10.084   8.955 -0.5699 -2.1134 -0.5247
   17MOL0     O 2113   9.460   9.219   5.782  0.2732  0.5210  0.1890
   17MOL0     C 2114   9.524   9.148   5.857  0.9407 -0.0795 -0.4724
   17MOL0     O 2115   9.467   9.056   5.950 -0.1260  0.2261 -0.0195
   17MOL0     C 2116   9.331   9.049   5.942 -0.4064 -0.8618  0.0160
   17MOL0     C 2117   9.268   9.141   6.026 -0.2345  0.6893 -0.2907
   17MOL0     C 2118   9.128   9.136   6.037  0.0820 -0.0676 -0.2740
   17MOL0     C 2119   9.062   9.037   5.964  0.2058 -0.5574 -0.4187
   17MOL0     O 2120   8.928   9.014   5.996 -0.0094 -0.2935  0.7647
   17MOL0     C 2121   8.841   8.996   5.881  0.1482  0.8386  0.9390
   17MOL0     C 2122   8.795   8.848   5.891 -0.5555 -0.1496 -0.0293
   17MOL0     C 2123   8.706   8.813   6.018 -0.0480  0.2421  0.8079
   17MOL0     C 2124   8.635   8.678   5.997 -0.3630 -0.0218  0.7085
   17MOL0     C 2125   8.493   8.681   6.057  0.3616 -0.5983 -0.2538
   17MOL0     C 2126   8.451   8.533   6.062 -0.0127 -0.8909 -0.4136
   17MOL0     C 2127   8.303   8.494   6.071 -0.2273  0.7124  0.0213
   17MOL0     C 2128   8.252   8.488   6.220 -0.0695  0.5183 -0.5523
   17MOL0     N 2129   8.106   8.486   6.229 -0.2455  0.1443 -0.0416
   17MOL0     C 2130   8.036   8.597   6.201  0.4108  0.6001 -1.0518
   17MOL0     C 2131   7.900   8.567   6.233 -0.1039  0.4824  0.3511
   17MOL0     C 2132   7.802   8.678   6.240  0.3453  0.0747 -0.2336
   17MOL0     C 2133   7.662   8.619   6.216  0.1320  0.6678 -0.7799
   17MOL0     C 2134   7.564   8.676   6.316  0.6772  0.5719  0.1328
   17MOL0     C 2135   7.429   8.609   6.324  0.3300  1.2203 -0.5427
   17MOL0     O 2136   7.330   8.699   6.379 -0.2576  0.1552 -0.0836
   17MOL0     C 2137   7.201   8.662   6.352  0.7092  0.2340  0.5573
   17MOL0     C 2138   7.155   8.528   6.327  1.0908 -0.1269 -1.9745
   17MOL0     C 2139   7.016   8.503   6.304 -0.3131  0.6070  0.1522
   17MOL0     C 2140   6.921   8.611   6.302  0.1233 -0.3527  0.3139
   17MOL0     C 2141   6.777   8.583   6.292 -1.1423 -0.5953  0.1938
   17MOL0     O 2142   6.689   8.680   6.346 -0.6949  0.0349  0.3988
   17MOL0     C 2143   6.565   8.650   6.323  0.6339 -0.2663 -0.6199
   17MOL0     C 2144   6.497   8.732   6.225  0.7125 -0.0267 -1.0088
   17MOL0     C 2145   6.362   8.702   6.212  0.0778 -0.5907 -0.1875
   17MOL0     C 2146   6.295   8.617   6.299 -0.3404 -0.5816 -0.4111
   17MOL0     O 2147   6.158   8.619   6.282 -0.5911 -0.5770  0.1081
   17MOL0     C 2148   6.069   8.551   6.375  0.1148  0.6096  0.5000
   17MOL0     C 2149   6.078   8.403   6.330  0.4815 -0.5178  0.6019
   17MOL0     C 2150   5.989   8.305   6.411  0.6245  0.1215 -0.6201
   17MOL0     C 2151   5.967   8.175   6.334 -0.3846  0.3709 -0.5191
   17MOL0     C 2152   5.840   8.103   6.391  1.2989  0.7366 -0.5009
   17MOL0     C 2153   5.705   8.173   6.375 -0.6094  0.0839  0.0183
   17MOL0     C 2154   5.582   8.098   6.433 -0.4771  0.3048 -0.2801
   17MOL0     C 2155   5.467   8.177   6.486 -0.4399 -0.9859 -0.3276
   17MOL0    Cl 2156   5.382   8.254   6.356  0.6258 -0.0140 -0.2595
   17MOL0     C 2157   6.366   8.544   6.396 -0.1154  0.1003 -0.5605
   17MOL0     C 2158   6.501   8.561   6.410 -0.1776 -0.0708 -0.6644
   17MOL0     O 2159   6.753   8.471   6.245 -0.5104 -0.5257 -0.4076
   17MOL0     C 2160   6.967   8.743   6.321  0.0179  0.5387  0.2505
   17MOL0     C 2161   7.109   8.762   6.353  0.5386 -0.3457 -0.0759
   17MOL0     N 2162   7.894   8.435   6.277  0.8376 -0.6621  0.4362
   17MOL0     N 2163   8.013   8.385   6.267  0.5275  1.2712 -0.2925
   17MOL0     C 2164   9.127   8.948   5.877 -0.3569  0.3397  0.4424
   17MOL0     C 2165   9.266   8.955   5.864 -0.1778  0.3561 -0.2871
   17MOL0     C 2166   9.671   9.163   5.853 -0.6689 -0.2850  0.4840
   17MOL0     C 2167   9.738   9.245   5.757 -0.3835 -0.5412 -0.9627
   17MOL0     C 2168   9.876   9.266   5.764  0.2285  0.3943 -0.0219
   17MOL0     C 2169   9.945   9.200   5.867  0.8431  0.0499 -0.7724
   17MOL0     O 2170  10.079   9.216   5.897 -0.7213 -0.6291 -0.0725
   17MOL0     C 2171  10.175   9.246   5.793  0.2313  0.0050  1.3515
   17MOL0     C 2172  10.199   9.126   5.701  0.5549 -0.4516 -0.7117
   17MOL0     C 2173  10.267   9.006   5.771  0.0621 -0.0474  0.4580
   17MOL0     C 2174  10.293   8.883   5.687  0.0249  0.5630  0.3338
   17MOL0     C 2175  10.394   8.797   5.748  0.5918 -0.9304 -1.1282
   17MOL0     C 2176  10.466   8.729   5.815 -0.0630 -0.4642 -0.5726
   17MOL0     C 2177   9.877   9.119   5.956 -0.4852 -0.6023 -0.0504
   17MOL0     C 2178   9.744   9.095   5.947  0.0824 -0.4856  0.9743
   17MOL0     H 2179   9.336   9.207   6.079  0.2027 -0.7603  1.0553
   17MOL0     H 2180   9.070   9.204   6.099  2.1705 -0.0988  1.8531
   17MOL0     H 2181   8.891   9.021   5.787  1.0182 -0.4388  1.0310
   17MOL0     H 2182   8.755   9.064   5.888  0.1786  0.7729  2.2508
   17MOL0     H 2183   8.883   8.784   5.878  0.4474  0.8513  1.4269
   17MOL0     H 2184   8.741   8.827   5.798 -4.2561 -0.8317  2.0811
   17MOL0     H 2185   8.622   8.883   6.019  0.3808  0.7843  0.2407
   17MOL0     H 2186   8.773   8.817   6.105 -0.8608 -1.9648  1.5869
   17MOL0     H 2187   8.627   8.649   5.892  2.4659 -2.0513  0.9284
   17MOL0     H 2188   8.702   8.611   6.052  0.3307  0.4261  0.4340
   17MOL0     H 2189   8.426   8.738   5.992  1.6845  0.0133 -1.1208
   17MOL0     H 2190   8.490   8.721   6.159  2.8738 -1.6627  0.3262
   17MOL0     H 2191   8.507   8.499   6.149  1.5270  0.5797 -0.7803
   17MOL0     H 2192   8.486   8.490   5.967  0.6330  0.9733 -1.0518
   17MOL0     H 2193   8.242   8.569   6.019 -0.9626  1.1088  1.4072
   17MOL0     H 2194   8.287   8.397   6.024  0.5451  0.6586 -0.1342
   17MOL0     H 2195   8.306   8.572   6.264  4.0250 -1.3977 -1.3977
   17MOL0     H 2196   8.287   8.395   6.266  1.5916  1.6007  0.4963
   17MOL0     H 2197   8.078   8.694   6.181  2.4841 -0.3842 -1.7067
   17MOL0     H 2198   7.821   8.764   6.176  0.5446  1.1481  1.2274
   17MOL0     H 2199   7.823   8.724   6.337 -0.4928 -0.7745  0.3690
   17MOL0     H 2200   7.652   8.510   6.215 -0.8517  0.7421 -0.7677
   17MOL0     H 2201   7.629   8.649   6.116  1.9256  1.0636 -1.2827
   17MOL0     H 2202   7.597   8.680   6.420 -1.7911  2.2278  0.9589
   17MOL0     H 2203   7.551   8.781   6.285 -2.6991  0.2263 -0.0557
   17MOL0     H 2204   7.440   8.516   6.382  1.0370  1.6532  0.0282
   17MOL0     H 2205   7.406   8.574   6.223 -0.7558 -1.1697  0.4457
   17MOL0     H 2206   7.225   8.446   6.337  1.7635  0.7149  2.0152
   17MOL0     H 2207   6.988   8.401   6.280  2.2232 -0.1285  0.0401
   17MOL0     H 2208   6.555   8.798   6.162  1.8734 -2.1829 -2.3169
   17MOL0     H 2209   6.298   8.764   6.150 -0.5368  0.1579  1.1402
   17MOL0     H 2210   5.968   8.581   6.347  0.4517  0.3768 -1.0705
   17MOL0     H 2211   6.086   8.555   6.483  0.8975 -0.8938  0.4609
   17MOL0     H 2212   6.177   8.357   6.338  1.7804  1.4778 -2.2899
   17MOL0     H 2213   6.051   8.405   6.224 -1.7998 -1.1097  1.1144
   17MOL0     H 2214   5.900   8.362   6.438  0.9854  1.1305 -1.4942
   17MOL0     H 2215   6.036   8.279   6.506  0.5680  0.0312 -0.6163
   17MOL0     H 2216   5.956   8.194   6.226  1.2288  1.4828 -0.5115
   17MOL0     H 2217   6.050   8.106   6.352 -0.0838  0.4684 -1.4834
   17MOL0     H 2218   5.854   8.080   6.497 -0.0608  1.2084 -0.2030
   17MOL0     H 2219   5.828   8.008   6.338 -1.1437  1.4836 -1.4005
   17MOL0     H 2220   5.682   8.186   6.269 -1.7426 -0.2033  0.2118
   17MOL0     H 2221   5.706   8.267   6.431 -1.7009 -1.4494  2.8075
   17MOL0     H 2222   5.545   8.037   6.350 -1.0301 -0.8918  0.8206
   17MOL0     H 2223   5.620   8.024   6.503  1.5393  2.9963  1.6868
   17MOL0     H 2224   5.514   8.251   6.552 -0.1187  0.1265 -1.7449
   17MOL0     H 2225   5.387   8.126   6.540 -0.9501 -1.0064 -1.0935
   17MOL0     H 2226   6.314   8.470   6.456 -0.5757  2.7406  2.5887
   17MOL0     H 2227   6.554   8.503   6.485 -1.0161  1.5031  1.2457
   17MOL0     H 2228   6.894   8.823   6.314  0.6760  1.0517 -1.5048
   17MOL0     H 2229   7.146   8.861   6.377  4.1189 -1.9495  1.8225
   17MOL0     H 2230   9.072   8.867   5.829 -2.4197  1.1461  1.3392
   17MOL0     H 2231   9.325   8.890   5.799 -2.7624 -1.7770 -0.6511
   17MOL0     H 2232   9.679   9.302   5.686 -2.8581  0.7313  1.8619
   17MOL0     H 2233   9.937   9.331   5.701  0.8270 -0.0202  0.1154
   17MOL0     H 2234  10.264   9.288   5.838  0.6071  2.8029 -1.6170
   17MOL0     H 2235  10.148   9.330   5.729  0.2317 -0.7374  0.3432
   17MOL0     H 2236  10.103   9.093   5.661 -0.8713 -0.1754  2.2020
   17MOL0     H 2237  10.264   9.159   5.619  1.0791  1.2140  0.3302
   17MOL0     H 2238  10.226   8.975   5.868 -2.8916  0.9110 -0.3627
   17MOL0     H 2239  10.365   9.047   5.797 -0.6811 -0.2253  4.0854
   17MOL0     H 2240  10.198   8.830   5.689  0.0469  0.4813  2.8375
   17MOL0     H 2241  10.322   8.911   5.585  2.7517 -0.3822  0.7744
   17MOL0     H 2242  10.530   8.674   5.882  0.4437  0.7205 -0.0541
   17MOL0     H 2243   9.932   9.054   6.023 -0.1145 -3.1452 -2.6346
   17MOL0     H 2244   9.694   9.033   6.021 -0.9057  1.3532  1.9401
   18MOL0     O 2245   4.624   1.144   1.540  0.4404  0.1049  0.0448
   18MOL0     C 2246   4.713   1.063   1.527 -1.0218 -0.2936  0.7928
   18MOL0     O 2247   4.702   0.926   1.531  0.0986 -0.3600 -0.7593
   18MOL0     C 2248   4.565   0.886   1.505 -0.4051  0.4100  0.8345
   18MOL0     C 2249   4.546   0.788   1.408  0.2784 -0.5549  0.0602
   18MOL0     C 2250   4.417   0.736   1.382 -0.2423  0.4549 -0.1488
   18MOL0     C 2251   4.309   0.791   1.433  0.6490 -0.3475  0.3400
   18MOL0     O 2252   4.184   0.742   1.393  0.0666 -0.8255  1.3860
   18MOL0     C 2253   4.109   0.689   1.502 -0.6735 -0.4386 -1.4237
   18MOL0     C 2254   4.007   0.590   1.450  0.6684  0.5529 -0.1837
   18MOL0     C 2255   3.918   0.535   1.555  0.1114 -0.6911  0.1931
   18MOL0     C 2256   3.800   0.456   1.496  0.2936 -0.3990  0.3091
   18MOL0     C 2257   3.682   0.550   1.456 -1.2763  0.6003 -1.4523
   18MOL0     C 2258   3.588   0.476   1.371  0.6203 -0.3041 -0.0788
   18MOL0     C 2259   3.456   0.554   1.331 -0.6495  0.1274 -0.0810
   18MOL0     C 2260   3.367   0.481   1.233  0.3479 -0.1722 -1.0706
   18MOL0     N 2261   3.244   0.563   1.193 -0.3428 -0.6516 -0.7099
   18MOL0     C 2262   3.229   0.648   1.088  0.2070  1.1375  0.4359
   18MOL0     C 2263   3.101   0.689   1.095  0.3274 -0.3612  0.0569
   18MOL0     C 2264   3.033   0.795   1.002 -0.2622  0.3877  0.2313
   18MOL0     C 2265   3.132   0.851   0.893  1.0612  0.6466 -0.0133
   18MOL0     C 2266   3.067   0.940   0.786 -0.3525  1.1633 -0.0067
   18MOL0     C 2267   2.941   0.885   0.728  0.4804  0.0985  0.3302
   18MOL0     O 2268   2.886   0.984   0.643  0.0056  0.2594 -0.2967
   18MOL0     C 2269   2.750   0.990   0.637  0.3384  0.0360 -0.1274
   18MOL0     C 2270   2.695   1.117   0.606 -0.6491 -0.1579  0.2793
   18MOL0     C 2271   2.556   1.129   0.607  0.3045  0.0589  0.4347
   18MOL0     C 2272   2.470   1.019   0.633 -0.8406 -0.2850 -0.6091
   18MOL0     C 2273   2.319   1.027   0.631 -0.8514  0.5827 -0.1767
   18MOL0     O 2274   2.274   1.136   0.561 -0.1226 -0.2621  0.0972
   18MOL0     C 2275   2.139   1.159   0.546 -0.3585 -0.4757 -0.7561
   18MOL0     C 2276   2.054   1.061   0.495 -0.3566 -0.4830 -0.7348
   18MOL0     C 2277   1.921   1.089   0.481 -0.1140  0.0387 -0.6715
   18MOL0     C 2278   1.867   1.216   0.512 -1.2030  0.7664  0.1966
   18MOL0     O 2279   1.736   1.241   0.525  0.1717 -0.2269 -1.0324
   18MOL0     C 2280   1.630   1.149   0.495 -0.7873 -0.0930  0.2195
   18MOL0     C 2281   1.490   1.228   0.484 -1.1290  0.1570  0.4779
   18MOL0     C 2282   1.374   1.135   0.436  0.3215  0.1749 -0.3715
   18MOL0     C 2283   1.325   1.071   0.562 -0.1147  0.1916 -0.1618
   18MOL0     C 2284   1.206   0.982   0.534 -0.6922  0.4734 -1.3984
   18MOL0     C 2285   1.174   0.883   0.649  0.2544  0.1955 -0.0136
   18MOL0     C 2286   1.026   0.845   0.668  0.1665 -0.0716  0.5474
   18MOL0     C 2287   1.007   0.710   0.740 -0.2375  0.4532  0.3449
   18MOL0    Cl 2288   0.823   0.660   0.718 -0.3352 -0.0597  0.0616
   18MOL0     C 2289   1.953   1.321   0.541 -0.2457  0.2935  0.7967
   18MOL0     C 2290   2.087   1.293   0.569 -0.3108 -0.2149  0.9639
   18MOL0     O 2291   2.257   0.942   0.694  0.1012 -0.7303 -0.0138
   18MOL0     C 2292   2.529   0.895   0.665  0.1751  0.1331  0.2665
   18MOL0     C 2293   2.669   0.877   0.668  0.6252 -0.7507  0.1287
   18MOL0     N 2294   3.050   0.652   1.211  0.1543 -0.1815 -0.2573
   18MOL0     N 2295   3.140   0.584   1.281  0.8195 -0.1226 -0.7440
   18MOL0     C 2296   4.323   0.884   1.535 -0.1022 -0.4472 -0.5022
   18MOL0     C 2297   4.452   0.926   1.573  0.2664 -0.7401 -0.4534
   18MOL0     C 2298   4.847   1.124   1.500  1.0652 -0.0072 -0.3498
   18MOL0     C 2299   4.956   1.044   1.521  0.8422  0.1467  0.5884
   18MOL0     C 2300   5.081   1.098   1.521  0.1639  0.3118  1.2278
   18MOL0     C 2301   5.102   1.228   1.480 -0.7127 -0.5708  0.5651
   18MOL0     O 2302   5.234   1.270   1.475  0.8020 -0.1400 -0.5519
   18MOL0     C 2303   5.269   1.369   1.371  0.1241  0.0671 -0.3143
   18MOL0     C 2304   5.290   1.519   1.440 -0.4520  0.3118  0.3595
   18MOL0     C 2305   5.360   1.633   1.346 -0.5643  0.3044 -0.3770
   18MOL0     C 2306   5.475   1.576   1.279 -1.2293  0.3389  0.8773
   18MOL0     C 2307   5.551   1.698   1.234 -0.0265  0.1276  0.1720
   18MOL0     C 2308   5.605   1.797   1.197  0.2632  0.5633  0.3821
   18MOL0     C 2309   4.995   1.310   1.462  0.1880  0.7307  0.2307
   18MOL0     C 2310   4.866   1.255   1.470  0.0166 -0.1522 -0.3324
   18MOL0     H 2311   4.628   0.742   1.354 -0.0123 -0.0505 -0.8326
   18MOL0     H 2312   4.400   0.648   1.320  0.2196  0.3991 -0.1935
   18MOL0     H 2313   4.072   0.776   1.557 -0.4206 -2.5634  2.4270
   18MOL0     H 2314   4.169   0.635   1.576  2.1414  3.7819 -0.3039
   18MOL0     H 2315   4.061   0.511   1.397  0.5978  1.5943 -1.8381
   18MOL0     H 2316   3.948   0.648   1.379 -1.1229 -0.7359  0.1698
   18MOL0     H 2317   3.900   0.610   1.632  1.6924  0.2192 -0.2716
   18MOL0     H 2318   3.974   0.454   1.603 -1.2861 -1.1078  1.1857
   18MOL0     H 2319   3.820   0.398   1.405 -1.4998 -1.3607  0.4829
   18MOL0     H 2320   3.770   0.386   1.573 -0.1077 -0.7889 -0.1953
   18MOL0     H 2321   3.729   0.634   1.404  3.0473 -0.6406 -0.0064
   18MOL0     H 2322   3.632   0.585   1.547 -2.5501 -0.7854 -1.5771
   18MOL0     H 2323   3.553   0.394   1.435 -0.6391  1.4392  1.5711
   18MOL0     H 2324   3.633   0.455   1.273 -0.0402  1.1130 -0.7158
   18MOL0     H 2325   3.398   0.576   1.422  3.4899  2.3244  2.3527
   18MOL0     H 2326   3.487   0.644   1.278  0.8162 -0.2272  0.1372
   18MOL0     H 2327   3.331   0.383   1.267 -1.5934  0.1736 -1.9938
   18MOL0     H 2328   3.421   0.460   1.141  1.3784  1.2935 -0.8285
   18MOL0     H 2329   3.307   0.684   1.022  1.4256  1.3645  1.9216
   18MOL0     H 2330   2.998   0.876   1.067  0.1733  1.6515 -1.0483
   18MOL0     H 2331   2.952   0.734   0.962  0.6863 -1.1075  0.5240
   18MOL0     H 2332   3.168   0.765   0.836  0.4969  1.6364 -1.9333
   18MOL0     H 2333   3.219   0.897   0.940  1.5723 -1.1982  0.9492
   18MOL0     H 2334   3.038   1.040   0.819  2.4980  2.4940 -1.1970
   18MOL0     H 2335   3.152   0.952   0.718  0.4269  0.0091  0.7125
   18MOL0     H 2336   2.873   0.858   0.809 -0.9629 -1.0622 -1.1998
   18MOL0     H 2337   2.955   0.793   0.670  0.5730 -0.0371  0.5624
   18MOL0     H 2338   2.757   1.203   0.587 -0.5056 -0.2337  0.4015
   18MOL0     H 2339   2.506   1.224   0.594  1.2380  0.9734  2.8720
   18MOL0     H 2340   2.098   0.967   0.463  2.1189  0.2856  0.2141
   18MOL0     H 2341   1.853   1.008   0.455  1.3606 -2.2178  1.9819
   18MOL0     H 2342   1.625   1.088   0.586  1.6250 -0.0058  0.4686
   18MOL0     H 2343   1.643   1.096   0.401 -4.0575  0.3921 -0.6396
   18MOL0     H 2344   1.516   1.297   0.403  0.9540 -1.0511  0.0534
   18MOL0     H 2345   1.478   1.275   0.582 -1.2021  2.0464 -0.3840
   18MOL0     H 2346   1.402   1.069   0.354 -3.2420  0.5063 -2.0355
   18MOL0     H 2347   1.293   1.199   0.399 -1.6956  0.5350  3.9971
   18MOL0     H 2348   1.405   1.003   0.591 -0.8892 -1.5197 -1.8374
   18MOL0     H 2349   1.288   1.148   0.630  0.5367  0.1287  0.2687
   18MOL0     H 2350   1.224   0.922   0.445  0.2768  0.2997 -1.1015
   18MOL0     H 2351   1.116   1.041   0.513 -1.7226 -0.1685  0.8438
   18MOL0     H 2352   1.213   0.930   0.740  0.8279 -1.1533  0.4660
   18MOL0     H 2353   1.232   0.796   0.616 -0.3765  0.3740 -1.6820
   18MOL0     H 2354   0.973   0.926   0.720 -0.7334 -0.1101 -0.2848
   18MOL0     H 2355   0.978   0.832   0.571 -0.3476 -1.8031  0.9999
   18MOL0     H 2356   1.036   0.714   0.845 -1.8150  1.0059  0.7906
   18MOL0     H 2357   1.068   0.645   0.677 -1.2120 -1.7554  1.5853
   18MOL0     H 2358   1.913   1.417   0.570 -1.3735  0.4393 -1.0814
   18MOL0     H 2359   2.159   1.358   0.618  0.5997 -0.2621 -0.2625
   18MOL0     H 2360   2.471   0.805   0.680  0.4351  0.1599  1.4747
   18MOL0     H 2361   2.699   0.773   0.675 -1.8022 -1.5223 -0.0576
   18MOL0     H 2362   4.235   0.932   1.575 -0.0819  0.9166 -2.0106
   18MOL0     H 2363   4.466   1.007   1.643  0.6621  0.1554 -1.5420
   18MOL0     H 2364   4.939   0.947   1.567 -0.7591 -1.0668 -2.2876
   18MOL0     H 2365   5.176   1.049   1.539  0.3426  0.9463  2.0482
   18MOL0     H 2366   5.192   1.382   1.294  1.5820  2.4039 -1.4823
   18MOL0     H 2367   5.363   1.339   1.323  1.9049  2.1915  1.6200
   18MOL0     H 2368   5.194   1.555   1.478  0.6630  1.7191  1.9758
   18MOL0     H 2369   5.357   1.507   1.526  0.6889 -0.6664 -0.6240
   18MOL0     H 2370   5.395   1.717   1.407  0.1433 -0.6725  0.5931
   18MOL0     H 2371   5.278   1.674   1.286 -1.0769 -0.9434 -0.5550
   18MOL0     H 2372   5.542   1.514   1.339  2.2083  2.9705  0.0800
   18MOL0     H 2373   5.439   1.520   1.191 -0.0007  0.8042  0.0570
   18MOL0     H 2374   5.670   1.879   1.172 -0.3634  0.6175 -1.1482
   18MOL0     H 2375   5.012   1.409   1.421  1.3346 -0.1165 -1.4768
   18MOL0     H 2376   4.785   1.321   1.443 -1.1328 -1.4967 -0.2779
   19MOL0     O 2377   3.180   9.338   8.483  0.1946 -0.3832 -0.0520
   19MOL0     C 2378   3.251   9.414   8.548  1.3055 -0.0476 -1.6320
   19MOL0     O 2379   3.199   9.488   8.649 -0.4888 -1.4225 -0.5267
   19MOL0     C 2380   3.066   9.512   8.641  0.6802  0.1545 -0.5045
   19MOL0     C 2381   3.016   9.618   8.563 -0.2464 -0.3038  0.5631
   19MOL0     C 2382   2.878   9.635   8.543 -0.9971  0.7203  0.5497
   19MOL0     C 2383   2.793   9.548   8.607  0.0585  0.4932  0.4852
   19MOL0     O 2384   2.660   9.576   8.579 -0.2921  0.0611 -0.0034
   19MOL0     C 2385   2.553   9.485   8.598 -0.3946  0.1531  0.5892
   19MOL0     C 2386   2.410   9.561   8.609  0.1050  0.0803  0.2284
   19MOL0     C 2387   2.317   9.449   8.577 -0.2136 -0.3255  0.7932
   19MOL0     C 2388   2.172   9.478   8.536  0.6388 -0.2013  0.6485
   19MOL0     C 2389   2.074   9.370   8.551  0.4749 -0.3236 -0.6189
   19MOL0     C 2390   1.944   9.400   8.483 -0.6280 -0.2841  0.1190
   19MOL0     C 2391   1.840   9.281   8.468  0.3581  0.1120 -0.6472
   19MOL0     C 2392   1.716   9.340   8.405 -0.1245 -0.5179 -0.0833
   19MOL0     N 2393   1.626   9.224   8.373  0.1371  0.3007 -0.0848
   19MOL0     C 2394   1.609   9.164   8.247  0.5556 -0.0952  0.2647
   19MOL0     C 2395   1.487   9.100   8.244 -0.0002  0.1304 -0.1120
   19MOL0     C 2396   1.408   9.046   8.123  0.7017 -0.1818 -0.2266
   19MOL0     C 2397   1.393   9.137   8.003 -0.6808  0.7271  0.3564
   19MOL0     C 2398   1.287   9.075   7.914  0.3796  0.2330 -0.5640
   19MOL0     C 2399   1.239   9.165   7.801  0.2837  0.1316 -0.2682
   19MOL0     O 2400   1.223   9.300   7.849 -0.3391 -0.0154 -0.2656
   19MOL0     C 2401   1.101   9.357   7.885  0.3306 -0.2492  0.0723
   19MOL0     C 2402   0.986   9.286   7.881  0.6079 -0.1742 -1.1100
   19MOL0     C 2403   0.857   9.338   7.904 -0.7040 -0.3785  0.0433
   19MOL0     C 2404   0.845   9.478   7.920 -0.8969  0.3663 -0.5772
   19MOL0     C 2405   0.706   9.534   7.919 -0.5758 -0.7985 -0.6928
   19MOL0     O 2406   0.687   9.601   8.042  0.0357  0.3625  0.5106
   19MOL0     C 2407   0.556   9.637   8.072 -0.7131 -0.3060  0.1034
   19MOL0     C 2408   0.492   9.557   8.168  0.2252 -1.2093 -0.1039
   19MOL0     C 2409   0.366   9.577   8.214 -0.1526 -0.0152 -0.3005
   19MOL0     C 2410   0.284   9.671   8.148 -0.6252  0.9109 -0.0217
   19MOL0     O 2411   0.155   9.697   8.166 -0.5111 -0.2805  0.1179
   19MOL0     C 2412   0.073   9.608   8.231  0.7794 -0.4502  0.3237
   19MOL0     C 2413   0.016   9.517   8.113  0.3902  0.2405  0.5209
   19MOL0     C 2414  -0.091   9.602   8.031 -0.0573  0.3588  0.1164
   19MOL0     C 2415  -0.213   9.519   8.009  0.2015  1.3110 -0.3520
   19MOL0     C 2416  -0.335   9.600   7.977 -0.2709 -0.7132  0.4414
   19MOL0     C 2417  -0.458   9.513   7.942  0.5689 -0.7327 -0.5254
   19MOL0     C 2418  -0.561   9.593   7.863 -0.3813 -0.0895  0.5960
   19MOL0     C 2419  -0.536   9.600   7.698  0.1634  0.2095  1.2536
   19MOL0    Cl 2420  -0.612   9.461   7.615  0.1596  0.3030  0.2927
   19MOL0     C 2421   0.345   9.760   8.055 -0.2029 -0.7926  0.2370
   19MOL0     C 2422   0.474   9.735   8.015  0.1277 -0.7403  0.5272
   19MOL0     O 2423   0.622   9.531   7.829 -0.4820 -0.0001  0.1162
   19MOL0     C 2424   0.971   9.553   7.920 -0.6245  0.1461  0.6427
   19MOL0     C 2425   1.092   9.496   7.895  0.4909  1.2422 -0.2099
   19MOL0     N 2426   1.434   9.119   8.368  0.5304 -0.1622 -0.0364
   19MOL0     N 2427   1.507   9.201   8.440 -0.0049  0.5565  0.2704
   19MOL0     C 2428   2.838   9.438   8.676  0.8958 -1.3428 -0.8442
   19MOL0     C 2429   2.977   9.418   8.701 -0.4437 -0.3661 -0.9527
   19MOL0     C 2430   3.384   9.433   8.505  1.1776  0.7055 -0.7329
   19MOL0     C 2431   3.439   9.343   8.407  0.0071 -0.2309 -0.3636
   19MOL0     C 2432   3.570   9.340   8.378  0.0656 -0.4916  0.2921
   19MOL0     C 2433   3.654   9.429   8.441 -0.2812 -0.2974 -0.1014
   19MOL0     O 2434   3.783   9.420   8.407 -0.3291 -0.2378 -0.0645
   19MOL0     C 2435   3.878   9.505   8.467  0.7601  0.1440  0.5542
   19MOL0     C 2436   4.021   9.457   8.438 -0.3607 -0.2479 -1.0948
   19MOL0     C 2437   4.050   9.319   8.500 -0.4401 -0.3100  0.4060
   19MOL0     C 2438   4.170   9.245   8.441  0.0697 -0.4444 -1.1367
   19MOL0     C 2439   4.281   9.339   8.412 -0.2455  0.9013  0.1602
   19MOL0     C 2440   4.377   9.409   8.388 -0.9323  0.2343 -0.5929
   19MOL0     C 2441   3.603   9.521   8.535  0.1447 -0.1603 -0.1645
   19MOL0     C 2442   3.467   9.530   8.555 -0.1263 -0.2919 -0.6112
   19MOL0     H 2443   3.092   9.680   8.516  1.2902 -0.5545  2.5574
   19MOL0     H 2444   2.846   9.722   8.486  0.5524  0.9775  0.0206
   19MOL0     H 2445   2.562   9.422   8.688  1.6973 -1.3539 -0.5782
   19MOL0     H 2446   2.559   9.425   8.507 -0.1160  5.7646 -3.5712
   19MOL0     H 2447   2.404   9.635   8.528  2.8122  0.1643 -0.0179
   19MOL0     H 2448   2.387   9.615   8.700 -1.1356 -1.0025  0.5834
   19MOL0     H 2449   2.326   9.370   8.652  1.0733  1.1674  2.3011
   19MOL0     H 2450   2.349   9.392   8.489 -4.5946 -0.9739 -0.6284
   19MOL0     H 2451   2.121   9.556   8.593 -1.4368  0.1993 -1.5888
   19MOL0     H 2452   2.165   9.513   8.432  1.0140 -3.0245 -0.4026
   19MOL0     H 2453   2.056   9.359   8.658 -0.4966  2.2040 -0.4593
   19MOL0     H 2454   2.129   9.291   8.499  5.2063  1.0708  1.6873
   19MOL0     H 2455   1.974   9.415   8.379 -0.0250 -0.1459  0.3086
   19MOL0     H 2456   1.889   9.489   8.516 -2.7621 -1.0173 -1.2664
   19MOL0     H 2457   1.878   9.214   8.391 -0.4480 -0.5360 -0.4874
   19MOL0     H 2458   1.824   9.234   8.565  3.1002  0.6873  0.1832
   19MOL0     H 2459   1.738   9.407   8.322  0.7359  0.5657  0.9852
   19MOL0     H 2460   1.653   9.403   8.469  0.4612  0.8798 -0.8497
   19MOL0     H 2461   1.670   9.164   8.157  2.3626 -0.8967  1.4324
   19MOL0     H 2462   1.308   9.013   8.155  0.5903 -0.1168 -0.5069
   19MOL0     H 2463   1.457   8.953   8.093 -0.7006 -1.2583  0.6527
   19MOL0     H 2464   1.492   9.156   7.961 -1.3104  3.7252 -0.0548
   19MOL0     H 2465   1.361   9.240   8.026  0.3788  1.0800  0.3253
   19MOL0     H 2466   1.323   8.981   7.871  0.4342  0.3890 -0.8624
   19MOL0     H 2467   1.198   9.050   7.973  2.2952 -2.5313  1.4123
   19MOL0     H 2468   1.144   9.122   7.770 -0.3824  2.7675 -2.2403
   19MOL0     H 2469   1.300   9.156   7.710 -2.7489  0.9950 -2.5732
   19MOL0     H 2470   0.985   9.178   7.872 -3.4462 -0.4547  0.3902
   19MOL0     H 2471   0.771   9.273   7.896 -1.6224  0.7193  0.6437
   19MOL0     H 2472   0.538   9.478   8.227  1.0135 -0.6073  0.1146
   19MOL0     H 2473   0.334   9.516   8.299  3.6111  0.7789  1.9032
   19MOL0     H 2474   0.007   9.665   8.296  0.1130  1.9167 -2.2699
   19MOL0     H 2475   0.116   9.549   8.313  0.6451  1.9396  2.2396
   19MOL0     H 2476  -0.041   9.439   8.164 -2.8076  2.4236  0.5654
   19MOL0     H 2477   0.090   9.470   8.046  0.0906 -0.1679  0.4693
   19MOL0     H 2478  -0.058   9.635   7.932 -3.2741 -0.0558 -1.2011
   19MOL0     H 2479  -0.116   9.691   8.088  1.2119  1.0114 -0.3015
   19MOL0     H 2480  -0.187   9.454   7.925  0.0037  0.8619 -0.0713
   19MOL0     H 2481  -0.230   9.456   8.097 -1.8086 -1.6181 -2.6411
   19MOL0     H 2482  -0.311   9.646   7.880  1.3974 -1.0572  0.6682
   19MOL0     H 2483  -0.375   9.673   8.048 -0.7072 -0.5694  0.0548
   19MOL0     H 2484  -0.508   9.489   8.036  0.9473  0.9418  0.1408
   19MOL0     H 2485  -0.440   9.413   7.903  0.5908 -1.6142  1.6017
   19MOL0     H 2486  -0.662   9.555   7.879  0.6397 -3.1223  0.4874
   19MOL0     H 2487  -0.551   9.695   7.900  1.1514 -0.3985  1.1122
   19MOL0     H 2488  -0.429   9.597   7.679  0.2040  0.5266  1.4197
   19MOL0     H 2489  -0.585   9.688   7.654 -0.8113 -1.4002 -1.1009
   19MOL0     H 2490   0.290   9.834   7.998 -0.8724 -0.0605  1.7592
   19MOL0     H 2491   0.521   9.801   7.943 -1.5899  2.0616  1.7905
   19MOL0     H 2492   0.963   9.662   7.923  0.1804  0.3101 -1.6950
   19MOL0     H 2493   1.182   9.556   7.890  2.0738 -1.0196 -0.2603
   19MOL0     H 2494   2.763   9.373   8.719 -1.5816  1.2578 -0.8531
   19MOL0     H 2495   3.009   9.347   8.777 -2.4295  1.3144  1.6601
   19MOL0     H 2496   3.381   9.271   8.350 -1.1855 -0.1693  0.7152
   19MOL0     H 2497   3.611   9.271   8.305 -0.1298 -3.1154  2.5500
   19MOL0     H 2498   3.861   9.523   8.573 -0.3278 -0.5059  0.4973
   19MOL0     H 2499   3.864   9.603   8.419 -1.3076  0.5262  1.8015
   19MOL0     H 2500   4.031   9.448   8.330  2.9888 -0.8934 -0.8290
   19MOL0     H 2501   4.092   9.529   8.480 -1.3710  1.4614 -2.1786
   19MOL0     H 2502   3.955   9.265   8.489 -1.1244  0.6699  1.3076
   19MOL0     H 2503   4.058   9.338   8.607 -1.2927  1.3312  0.2027
   19MOL0     H 2504   4.214   9.167   8.503  3.7497 -0.6752 -3.7427
   19MOL0     H 2505   4.138   9.201   8.346 -1.5952 -0.6485 -0.5235
   19MOL0     H 2506   4.456   9.475   8.359  1.3118 -1.2882  1.5838
   19MOL0     H 2507   3.665   9.587   8.595  2.5295 -1.8828 -0.5773
   19MOL0     H 2508   3.427   9.608   8.619  0.0834 -0.3554 -0.4002
   20MOL0     O 2509   4.559   3.565  10.627 -0.0699  0.4861 -0.5429
   20MOL0     C 2510   4.604   3.558  10.517 -0.4727 -0.6875  0.2493
   20MOL0     O 2511   4.529   3.559  10.401 -0.1199 -0.4626  0.3868
   20MOL0     C 2512   4.392   3.580  10.407  0.3838  0.1976  0.7214
   20MOL0     C 2513   4.342   3.685  10.478  0.2828  0.3432  0.7047
   20MOL0     C 2514   4.207   3.710  10.476  0.1558 -0.2131 -0.5474
   20MOL0     C 2515   4.115   3.631  10.409 -0.8544 -0.1023  0.1687
   20MOL0     O 2516   3.983   3.664  10.395  0.7166  0.1175  0.6341
   20MOL0     C 2517   3.885   3.556  10.390 -0.2853 -0.3912  0.1386
   20MOL0     C 2518   3.741   3.596  10.410  0.7754  0.4368  0.4009
   20MOL0     C 2519   3.633   3.489  10.382  0.0017  0.6360 -0.1252
   20MOL0     C 2520   3.495   3.545  10.348  0.1315  0.2586  0.5579
   20MOL0     C 2521   3.385   3.437  10.386  0.2825 -0.5381  0.1596
   20MOL0     C 2522   3.255   3.479  10.342  0.5108 -0.1749 -0.6917
   20MOL0     C 2523   3.139   3.415  10.446  0.5688  0.7888 -0.2136
   20MOL0     C 2524   3.003   3.442  10.383  0.0683  0.1180  0.5735
   20MOL0     N 2525   2.895   3.368  10.454 -0.2974  0.5469 -0.4613
   20MOL0     C 2526   2.844   3.375  10.583 -0.5115  0.7747 -0.5315
   20MOL0     C 2527   2.743   3.284  10.591  0.2611 -0.4746  0.4060
   20MOL0     C 2528   2.643   3.273  10.705 -0.9171 -0.1656  0.6180
   20MOL0     C 2529   2.516   3.347  10.674  0.8276  0.5915 -0.1406
   20MOL0     C 2530   2.413   3.346  10.793 -0.8201 -1.0724  0.9510
   20MOL0     C 2531   2.272   3.400  10.749 -0.2269  0.7432  0.4930
   20MOL0     O 2532   2.202   3.315  10.657  0.3921 -0.6449  0.7931
   20MOL0     C 2533   2.072   3.357  10.618 -0.2193 -0.8800 -0.4761
   20MOL0     C 2534   2.001   3.276  10.528  0.1860 -0.3211 -0.2095
   20MOL0     C 2535   1.879   3.310  10.478 -0.1476 -0.1693 -0.1037
   20MOL0     C 2536   1.799   3.417  10.523 -0.0219  0.7348 -0.4704
   20MOL0     C 2537   1.654   3.442  10.476 -0.0150 -0.5779  0.8762
   20MOL0     O 2538   1.594   3.555  10.532  0.1670  0.0808 -0.0672
   20MOL0     C 2539   1.459   3.564  10.516  0.2414  0.7611  0.1762
   20MOL0     C 2540   1.379   3.471  10.583  0.4798 -0.0818 -0.8405
   20MOL0     C 2541   1.241   3.479  10.598 -0.7196 -0.8127  0.3106
   20MOL0     C 2542   1.183   3.595  10.533 -0.3452  0.4984  0.2885
   20MOL0     O 2543   1.049   3.587  10.537  0.1130 -0.5787 -0.2814
   20MOL0     C 2544   0.965   3.712  10.563 -0.5517  0.4688 -0.3534
   20MOL0     C 2545   0.910   3.760  10.432 -0.5579  1.0753 -0.4187
   20MOL0     C 2546   0.779   3.834  10.438  0.2160  0.0401 -0.6319
   20MOL0     C 2547   0.646   3.748  10.458 -1.1536  0.0384 -0.1393
   20MOL0     C 2548   0.507   3.819  10.488 -0.7174 -0.1662  0.6707
   20MOL0     C 2549   0.388   3.774  10.405  0.1127  0.1039 -0.9467
   20MOL0     C 2550   0.267   3.867  10.423 -0.4271 -0.0067  0.2127
   20MOL0     C 2551   0.186   3.850  10.299  0.3314 -0.0516  0.0758
   20MOL0    Cl 2552   0.044   3.966  10.288 -0.3591  0.3056 -0.0524
   20MOL0     C 2553   1.262   3.691  10.476  0.4357 -0.6907 -0.0183
   20MOL0     C 2554   1.400   3.677  10.458  0.0494 -1.1306  0.4413
   20MOL0     O 2555   1.599   3.358  10.399  0.8363  0.1251 -0.2899
   20MOL0     C 2556   1.868   3.497  10.617  0.1481 -0.0364 -0.2789
   20MOL0     C 2557   2.003   3.474  10.654 -0.0543 -0.2347  0.2058
   20MOL0     N 2558   2.726   3.227  10.463 -0.7572  0.2938 -0.3053
   20MOL0     N 2559   2.821   3.267  10.391  0.9935 -0.0993  0.5034
   20MOL0     C 2560   4.172   3.520  10.341  0.1782  0.6701  0.4434
   20MOL0     C 2561   4.309   3.494  10.338 -0.0362  0.1492  0.2297
   20MOL0     C 2562   4.752   3.555  10.501  0.7243  0.0943  0.3921
   20MOL0     C 2563   4.835   3.587  10.607  0.2615 -0.8520  0.3756
   20MOL0     C 2564   4.971   3.579  10.590  0.3429  0.4407 -0.4496
   20MOL0     C 2565   5.024   3.552  10.461 -0.0826 -0.1994 -0.5599
   20MOL0     O 2566   5.154   3.564  10.430  0.7748 -0.3470  0.4752
   20MOL0     C 2567   5.244   3.514  10.536  0.5400 -1.0415  0.1052
   20MOL0     C 2568   5.386   3.483  10.479  1.0098  0.0944 -0.1292
   20MOL0     C 2569   5.387   3.379  10.370  0.5903 -0.5145  0.9836
   20MOL0     C 2570   5.521   3.359  10.300  0.5145 -0.3684  0.8179
   20MOL0     C 2571   5.553   3.463  10.204 -0.5147  0.2890 -0.9481
   20MOL0     C 2572   5.576   3.523  10.099  0.4763 -0.0574 -1.1800
   20MOL0     C 2573   4.938   3.527  10.355  0.0263  0.5398  0.1648
   20MOL0     C 2574   4.799   3.515  10.374 -0.0391  0.7731 -1.0502
   20MOL0     H 2575   4.409   3.741  10.543  3.7150 -1.0405 -1.3476
   20MOL0     H 2576   4.165   3.787  10.540 -1.0471 -2.3268  1.3493
   20MOL0     H 2577   3.904   3.472  10.457 -0.8959 -2.0303 -1.6465
   20MOL0     H 2578   3.893   3.511  10.291 -0.5786  1.2410 -0.6588
   20MOL0     H 2579   3.725   3.681  10.342  1.2144 -1.0773 -1.6905
   20MOL0     H 2580   3.719   3.635  10.510 -2.6633  2.3279 -0.9206
   20MOL0     H 2581   3.628   3.408  10.456  0.5784  2.2444  1.7739
   20MOL0     H 2582   3.662   3.433  10.293 -2.1475  0.1412 -0.5835
   20MOL0     H 2583   3.463   3.632  10.406 -2.2443 -0.3811  0.3342
   20MOL0     H 2584   3.489   3.573  10.242 -0.8949  0.4241  0.6516
   20MOL0     H 2585   3.381   3.411  10.492  0.5985  1.7219  0.7860
   20MOL0     H 2586   3.407   3.348  10.327  3.2450 -0.0356  0.3467
   20MOL0     H 2587   3.245   3.460  10.235  0.6381  2.1814 -1.1761
   20MOL0     H 2588   3.250   3.587  10.357  0.8244 -0.1112 -1.0329
   20MOL0     H 2589   3.158   3.308  10.446 -3.0717  0.0383  0.6324
   20MOL0     H 2590   3.147   3.462  10.544  1.6319 -1.1232  0.6614
   20MOL0     H 2591   2.993   3.410  10.279 -1.3613  1.3933  0.2810
   20MOL0     H 2592   2.975   3.547  10.380  1.3103  0.4279 -1.7872
   20MOL0     H 2593   2.876   3.441  10.663  0.4436 -2.0571  1.5709
   20MOL0     H 2594   2.678   3.324  10.795 -0.5743  3.2582 -1.2915
   20MOL0     H 2595   2.622   3.167  10.725  2.2021 -1.1731 -0.8919
   20MOL0     H 2596   2.469   3.292  10.592  0.0312  0.5657  0.3210
   20MOL0     H 2597   2.527   3.450  10.640 -1.3846  0.6538 -0.8729
   20MOL0     H 2598   2.400   3.241  10.819  2.4489 -1.7369  0.3259
   20MOL0     H 2599   2.444   3.413  10.874 -3.2571  1.5380 -0.0617
   20MOL0     H 2600   2.287   3.490  10.689  0.9985  0.5279  0.4476
   20MOL0     H 2601   2.204   3.407  10.834 -2.8870 -1.2430 -1.2863
   20MOL0     H 2602   2.054   3.183  10.507  0.0338 -0.9965  2.0446
   20MOL0     H 2603   1.842   3.230  10.415 -2.6582 -0.5886  1.7612
   20MOL0     H 2604   1.435   3.387  10.625 -0.5539 -1.2176 -1.6725
   20MOL0     H 2605   1.182   3.404  10.649 -0.4609 -1.6112 -0.5277
   20MOL0     H 2606   1.018   3.795  10.610 -0.4974 -1.7670  4.0422
   20MOL0     H 2607   0.883   3.693  10.633  0.4974  0.4036  0.8960
   20MOL0     H 2608   0.903   3.672  10.368  1.7650 -0.4426  1.2551
   20MOL0     H 2609   0.980   3.825  10.380 -0.9113  0.5645 -1.5608
   20MOL0     H 2610   0.780   3.905  10.354 -0.6337  0.8174  0.0007
   20MOL0     H 2611   0.770   3.899  10.526  0.7022 -3.0499  1.8433
   20MOL0     H 2612   0.629   3.699  10.361 -0.6696 -0.4236  0.0027
   20MOL0     H 2613   0.669   3.668  10.528  3.6915  0.8757 -0.3754
   20MOL0     H 2614   0.514   3.926  10.466 -4.1281 -0.2118 -1.3325
   20MOL0     H 2615   0.503   3.806  10.596  1.3696  0.2516  0.8475
   20MOL0     H 2616   0.358   3.669  10.409 -2.0752  0.6378 -1.9627
   20MOL0     H 2617   0.427   3.786  10.304  1.6877  2.4914 -0.1495
   20MOL0     H 2618   0.209   3.837  10.510  1.8297 -4.0193  0.5572
   20MOL0     H 2619   0.299   3.972  10.420 -2.7326  0.8031  1.5347
   20MOL0     H 2620   0.150   3.748  10.311  0.5091 -0.3011 -1.3655
   20MOL0     H 2621   0.249   3.866  10.211  0.7945 -1.7892  0.0734
   20MOL0     H 2622   1.220   3.781  10.433 -0.2531 -0.3328  1.3449
   20MOL0     H 2623   1.465   3.744  10.402  2.5307 -0.6295  3.5742
   20MOL0     H 2624   1.820   3.588  10.651  0.9708  0.3913 -0.2582
   20MOL0     H 2625   2.046   3.541  10.728 -1.0402  1.5149 -0.7471
   20MOL0     H 2626   4.116   3.462  10.268  3.7050 -1.1112 -1.1282
   20MOL0     H 2627   4.349   3.400  10.302  1.3788  0.4069  1.0534
   20MOL0     H 2628   4.803   3.614  10.707  1.1978 -1.2146  0.7895
   20MOL0     H 2629   5.041   3.588  10.672 -0.1955 -2.1408  0.3956
   20MOL0     H 2630   5.205   3.424  10.584  1.2730 -0.3722  2.0595
   20MOL0     H 2631   5.252   3.593  10.612 -0.7965 -2.4049  1.7645
   20MOL0     H 2632   5.431   3.575  10.440  0.1339 -0.3178 -2.1851
   20MOL0     H 2633   5.447   3.450  10.565 -0.6885 -0.5478  0.8798
   20MOL0     H 2634   5.314   3.406  10.293  1.3996 -1.7910 -0.2937
   20MOL0     H 2635   5.347   3.286  10.413  0.3451 -1.5374 -1.2989
   20MOL0     H 2636   5.605   3.359  10.369  2.1467 -0.8468 -1.0946
   20MOL0     H 2637   5.508   3.267  10.243  0.1894  1.1056 -1.6326
   20MOL0     H 2638   5.597   3.586  10.015 -2.5385  2.1577 -0.4644
   20MOL0     H 2639   4.985   3.515  10.258 -0.2712 -0.4274  0.1353
   20MOL0     H 2640   4.728   3.473  10.303  2.5627 -2.4398 -2.0145
   21MOL0     O 2641   7.418   7.591  10.608 -0.0457 -0.1951 -0.5756
   21MOL0     C 2642   7.419   7.580  10.487  1.1188 -0.8813 -1.0153
   21MOL0     O 2643   7.529   7.556  10.397 -0.5730 -0.4872  0.6022
   21MOL0     C 2644   7.657   7.537  10.443 -0.4056 -0.8643  0.8109
   21MOL0     C 2645   7.737   7.441  10.374 -0.1106 -0.0211  1.0592
   21MOL0     C 2646   7.866   7.422  10.412  0.1290 -0.4924 -0.5506
   21MOL0     C 2647   7.922   7.487  10.517 -0.9984  0.7098  1.3403
   21MOL0     O 2648   8.060   7.466  10.542  0.0603  0.5812  0.2194
   21MOL0     C 2649   8.119   7.546  10.639  1.0852  0.5911 -0.3987
   21MOL0     C 2650   8.265   7.504  10.620 -0.1219  0.2280 -0.4272
   21MOL0     C 2651   8.348   7.553  10.741 -0.0764  0.0519  0.0233
   21MOL0     C 2652   8.488   7.485  10.744  0.0874 -0.0957  0.6640
   21MOL0     C 2653   8.564   7.526  10.866  0.0051 -0.8489 -0.0204
   21MOL0     C 2654   8.494   7.478  10.998 -0.5438  0.1540  0.3097
   21MOL0     C 2655   8.557   7.532  11.127 -0.0557  0.4541  0.2710
   21MOL0     C 2656   8.709   7.491  11.149  0.6637  0.1261  0.5148
   21MOL0     N 2657   8.768   7.516  11.282 -0.4738  0.0242  0.4128
   21MOL0     C 2658   8.892   7.466  11.325  1.0706  0.6283  0.0021
   21MOL0     C 2659   8.888   7.462  11.455 -0.3374  0.4273  0.0197
   21MOL0     C 2660   8.997   7.416  11.548  0.4293 -0.6695  0.6477
   21MOL0     C 2661   9.140   7.462  11.501 -0.1953  0.3820 -0.5761
   21MOL0     C 2662   9.236   7.454  11.625  0.4257  0.4657  0.7776
   21MOL0     C 2663   9.369   7.520  11.603 -0.1358  0.3285  0.4774
   21MOL0     O 2664   9.380   7.631  11.515  0.0363 -0.2068 -1.0891
   21MOL0     C 2665   9.501   7.685  11.497 -0.1925  0.9456 -0.3555
   21MOL0     C 2666   9.526   7.727  11.366  0.3559  0.2643  0.3996
   21MOL0     C 2667   9.640   7.802  11.341 -0.0256 -1.2398 -0.0858
   21MOL0     C 2668   9.737   7.828  11.443  0.3041  0.6167 -0.3984
   21MOL0     C 2669   9.855   7.914  11.415 -0.1292  0.6922 -0.6333
   21MOL0     O 2670   9.937   7.949  11.531  0.3218 -0.3875 -0.0273
   21MOL0     C 2671  10.044   8.024  11.503 -0.8012  0.2528 -0.6940
   21MOL0     C 2672  10.026   8.153  11.444 -0.2076 -0.3351  0.1902
   21MOL0     C 2673  10.131   8.246  11.423 -0.5177  0.2397  0.7154
   21MOL0     C 2674  10.261   8.191  11.447  0.0477 -0.5951 -0.6726
   21MOL0     O 2675  10.371   8.274  11.429 -0.0133 -0.2645  0.6193
   21MOL0     C 2676  10.366   8.374  11.324 -0.0393  0.9665  0.0252
   21MOL0     C 2677  10.352   8.309  11.182 -0.6059 -0.8680  0.7256
   21MOL0     C 2678  10.448   8.366  11.077 -0.6370  0.3900  0.1451
   21MOL0     C 2679  10.424   8.316  10.940 -0.1724  0.5451 -0.0691
   21MOL0     C 2680  10.309   8.364  10.852 -0.0228 -1.1632  0.2242
   21MOL0     C 2681  10.296   8.294  10.718  0.2728 -0.5270 -0.0634
   21MOL0     C 2682  10.165   8.330  10.635  0.2435  0.3121 -0.4258
   21MOL0     C 2683  10.042   8.245  10.678 -0.6582  0.0129 -0.1325
   21MOL0    Cl 2684  10.076   8.081  10.644 -0.3554  0.3332  0.6193
   21MOL0     C 2685  10.286   8.067  11.504 -0.9406  0.0156 -0.0377
   21MOL0     C 2686  10.174   7.984  11.536 -0.9941 -0.5169  0.3054
   21MOL0     O 2687   9.885   7.937  11.298 -0.4691  0.0137 -0.3237
   21MOL0     C 2688   9.713   7.777  11.568  0.2524  0.7142 -0.6071
   21MOL0     C 2689   9.596   7.712  11.595  0.4430 -0.4500 -0.8289
   21MOL0     N 2690   8.766   7.517  11.501  0.3592  0.4769 -0.1016
   21MOL0     N 2691   8.696   7.542  11.395  0.6157 -0.2610  0.3689
   21MOL0     C 2692   7.837   7.574  10.596  0.3849 -0.8768  0.6746
   21MOL0     C 2693   7.708   7.602  10.553  0.3340  0.3998  0.1219
   21MOL0     C 2694   7.285   7.583  10.413 -0.6791  0.3092 -0.1057
   21MOL0     C 2695   7.277   7.624  10.283 -0.0887  0.1361  0.5541
   21MOL0     C 2696   7.160   7.615  10.214  0.0856  0.2617  0.2064
   21MOL0     C 2697   7.040   7.574  10.272  0.1035 -0.3354  0.9583
   21MOL0     O 2698   6.922   7.579  10.196 -0.9204  0.1324 -0.2246
   21MOL0     C 2699   6.819   7.494  10.226 -0.3142 -0.4739  0.0102
   21MOL0     C 2700   6.710   7.560  10.311 -0.5182  0.0172 -0.2302
   21MOL0     C 2701   6.624   7.671  10.231 -0.5674 -0.6559 -0.4459
   21MOL0     C 2702   6.681   7.812  10.250  1.0871  0.4053  1.1393
   21MOL0     C 2703   6.669   7.870  10.383 -0.1003  0.0952 -0.1317
   21MOL0     C 2704   6.649   7.912  10.490  0.0166 -0.2171  0.0030
   21MOL0     C 2705   7.046   7.536  10.404  0.2500 -0.7741 -0.1521
   21MOL0     C 2706   7.168   7.544  10.473  0.7880 -0.2300 -0.5419
   21MOL0     H 2707   7.709   7.375  10.293  1.5757 -0.4228  0.7698
   21MOL0     H 2708   7.928   7.353  10.355  0.8183 -1.8106  1.6619
   21MOL0     H 2709   8.076   7.519  10.736 -2.4409 -0.3608 -2.0627
   21MOL0     H 2710   8.109   7.655  10.632  0.2418  0.4701 -1.3415
   21MOL0     H 2711   8.310   7.536  10.526  1.1438  1.5657  0.5857
   21MOL0     H 2712   8.260   7.395  10.632 -0.4873  0.2801 -0.0619
   21MOL0     H 2713   8.291   7.538  10.833 -1.9401 -2.8386 -1.4382
   21MOL0     H 2714   8.362   7.660  10.722 -1.3018  0.2098 -0.0582
   21MOL0     H 2715   8.466   7.378  10.751  1.5351 -0.4209  0.6564
   21MOL0     H 2716   8.549   7.499  10.655  0.5375  0.8923  1.1113
   21MOL0     H 2717   8.567   7.634  10.884  0.2042 -0.8992  0.2604
   21MOL0     H 2718   8.668   7.494  10.851  0.8454  1.5740  0.2488
   21MOL0     H 2719   8.493   7.369  10.996  3.5238 -0.0251 -0.4612
   21MOL0     H 2720   8.398   7.529  10.999 -0.9732 -0.6324 -0.0518
   21MOL0     H 2721   8.565   7.640  11.112 -0.2686  0.6144  1.2429
   21MOL0     H 2722   8.487   7.509  11.208  0.3830  0.5285  0.6773
   21MOL0     H 2723   8.765   7.549  11.075 -1.3343 -0.4268 -1.5628
   21MOL0     H 2724   8.717   7.385  11.124 -0.8050 -0.0076  0.5347
   21MOL0     H 2725   8.971   7.422  11.266 -0.5021  2.3365 -3.7177
   21MOL0     H 2726   9.006   7.309  11.567  1.8195 -0.6545  0.1468
   21MOL0     H 2727   8.982   7.472  11.641  2.0955 -1.5124  1.4634
   21MOL0     H 2728   9.136   7.568  11.474 -0.2716  0.6000  0.2576
   21MOL0     H 2729   9.173   7.394  11.422  1.6905 -1.3607  1.5897
   21MOL0     H 2730   9.195   7.513  11.708  1.7553  0.8164  1.2151
   21MOL0     H 2731   9.254   7.350  11.652 -2.5933 -1.2822 -2.9604
   21MOL0     H 2732   9.442   7.448  11.566 -0.6862  0.9455 -2.0094
   21MOL0     H 2733   9.401   7.551  11.703  2.0034 -2.2322  0.6947
   21MOL0     H 2734   9.453   7.720  11.286 -0.6695  1.4448  1.1982
   21MOL0     H 2735   9.666   7.830  11.240 -0.9936 -1.0052 -0.2754
   21MOL0     H 2736   9.923   8.178  11.421 -0.6345 -4.6490 -4.2882
   21MOL0     H 2737  10.109   8.342  11.376 -0.4632 -1.9533 -4.4912
   21MOL0     H 2738  10.455   8.437  11.327  1.1811 -0.6354  3.5373
   21MOL0     H 2739  10.284   8.444  11.342 -0.0998  0.5227  1.7051
   21MOL0     H 2740  10.256   8.333  11.135  0.5013 -0.7163 -1.5656
   21MOL0     H 2741  10.365   8.201  11.190 -0.8649 -1.0508 -0.9335
   21MOL0     H 2742  10.552   8.340  11.100  0.1771  2.0188 -1.5032
   21MOL0     H 2743  10.447   8.475  11.073 -2.1618  0.4747  1.4958
   21MOL0     H 2744  10.515   8.351  10.889  0.1295  1.6753  1.1754
   21MOL0     H 2745  10.423   8.207  10.942  0.4874  0.4946 -1.3371
   21MOL0     H 2746  10.327   8.464  10.812  0.1536 -1.3902 -0.2672
   21MOL0     H 2747  10.215   8.361  10.909 -0.7892  4.1990 -0.2433
   21MOL0     H 2748  10.296   8.187  10.740 -2.1333 -0.3502  1.0633
   21MOL0     H 2749  10.383   8.322  10.658 -1.5101  0.4597 -2.3417
   21MOL0     H 2750  10.144   8.437  10.641 -1.4847 -0.0470  0.4117
   21MOL0     H 2751  10.196   8.314  10.531 -0.7194 -1.2491 -0.5056
   21MOL0     H 2752   9.948   8.276  10.632 -0.8810 -1.1877 -0.5096
   21MOL0     H 2753  10.039   8.256  10.787  2.2033  0.3885 -0.0069
   21MOL0     H 2754  10.387   8.034  11.525 -0.2460  2.6043  1.0470
   21MOL0     H 2755  10.179   7.886  11.583  1.1611 -0.6869 -0.1786
   21MOL0     H 2756   9.790   7.791  11.644 -1.4041  3.5163  0.7077
   21MOL0     H 2757   9.589   7.695  11.702 -0.3793  2.6023 -0.3194
   21MOL0     H 2758   7.883   7.635  10.673  0.4149  1.0454 -0.7759
   21MOL0     H 2759   7.645   7.666  10.614 -1.5783  1.4105 -2.6773
   21MOL0     H 2760   7.363   7.665  10.231 -0.0700  2.3695  2.2230
   21MOL0     H 2761   7.156   7.641  10.109  0.2673  1.1746  0.4127
   21MOL0     H 2762   6.860   7.410  10.285 -0.7374 -0.6842  0.0034
   21MOL0     H 2763   6.783   7.446  10.135  1.0977 -2.2429  0.3032
   21MOL0     H 2764   6.631   7.489  10.336 -2.6301  2.8858  2.0484
   21MOL0     H 2765   6.740   7.606  10.406  1.0852  1.0733 -1.1875
   21MOL0     H 2766   6.521   7.666  10.267 -0.9990  2.4879 -1.0244
   21MOL0     H 2767   6.629   7.647  10.124  3.5647 -0.1687 -0.5111
   21MOL0     H 2768   6.781   7.806  10.208 -0.2030 -1.9290 -2.0214
   21MOL0     H 2769   6.628   7.873  10.176  0.9670 -1.7025 -0.6174
   21MOL0     H 2770   6.629   7.961  10.583  1.2091  2.0252 -0.8623
   21MOL0     H 2771   6.962   7.500  10.463 -0.7450  0.5682 -0.7199
   21MOL0     H 2772   7.167   7.512  10.577  4.3356 -0.9625 -0.6036
   22MOL0     O 2773   0.562   1.994   5.538 -0.5620 -0.7758 -0.1474
   22MOL0     C 2774   0.565   1.920   5.637 -0.2345 -0.5715 -0.0136
   22MOL0     O 2775   0.521   1.951   5.767  0.1871  0.0259  0.1794
   22MOL0     C 2776   0.541   2.077   5.813 -0.7209 -0.6299 -0.5266
   22MOL0     C 2777   0.657   2.149   5.790  0.6657 -0.3777  0.2260
   22MOL0     C 2778   0.679   2.265   5.843 -0.8186  0.3546 -0.7765
   22MOL0     C 2779   0.578   2.328   5.932  0.3290  0.9068 -1.1349
   22MOL0     O 2780   0.581   2.445   6.005  0.1341 -0.1148  0.1611
   22MOL0     C 2781   0.690   2.539   5.978  0.6986  1.1484  0.4211
   22MOL0     C 2782   0.651   2.679   5.980 -0.2471 -0.6027 -0.8259
   22MOL0     C 2783   0.558   2.706   5.863 -0.6480  0.5380 -0.1444
   22MOL0     C 2784   0.535   2.853   5.835 -0.4111  0.3689 -0.0986
   22MOL0     C 2785   0.394   2.869   5.769  0.9223 -0.0073  1.2526
   22MOL0     C 2786   0.408   2.977   5.658 -0.4534  0.2597  0.0170
   22MOL0     C 2787   0.274   3.037   5.619 -0.5713  0.0346 -0.3604
   22MOL0     C 2788   0.176   2.960   5.529  0.6434  0.5383 -0.3135
   22MOL0     N 2789   0.184   2.994   5.386  0.3277  0.0879  0.7547
   22MOL0     C 2790   0.301   3.009   5.310  0.8500  0.4132  0.4615
   22MOL0     C 2791   0.256   3.054   5.189  0.1740 -0.4019 -0.0857
   22MOL0     C 2792   0.336   3.077   5.063  0.5738 -0.1403  0.3457
   22MOL0     C 2793   0.240   3.135   4.951  0.3119 -0.0641 -1.0910
   22MOL0     C 2794   0.319   3.158   4.819  0.0214 -0.1402 -0.7716
   22MOL0     C 2795   0.236   3.223   4.714  1.0886  0.0454 -0.2289
   22MOL0     O 2796   0.118   3.140   4.692 -0.4565  0.8419  0.6137
   22MOL0     C 2797   0.054   3.149   4.573  0.2487 -0.1997 -0.1164
   22MOL0     C 2798   0.064   3.045   4.482  0.3514  0.6529 -0.0729
   22MOL0     C 2799  -0.033   3.051   4.380 -0.2993 -0.0470  0.5311
   22MOL0     C 2800  -0.130   3.152   4.358 -0.7441  0.5804 -0.6434
   22MOL0     C 2801  -0.233   3.136   4.257  0.0627 -0.0435  0.4894
   22MOL0     O 2802  -0.202   3.055   4.145 -0.7008 -0.0558  0.1636
   22MOL0     C 2803  -0.307   3.004   4.072 -0.2024  0.1266  0.1758
   22MOL0     C 2804  -0.350   3.050   3.951 -0.1740 -0.4676 -0.2217
   22MOL0     C 2805  -0.459   2.990   3.885 -0.0214 -0.2171  0.5123
   22MOL0     C 2806  -0.532   2.887   3.944  0.4434  0.3652  1.1330
   22MOL0     O 2807  -0.635   2.818   3.885 -0.1807 -0.0185 -0.2448
   22MOL0     C 2808  -0.685   2.862   3.751  0.0450  0.1081  0.0783
   22MOL0     C 2809  -0.826   2.812   3.733  0.1787  0.1466  0.0767
   22MOL0     C 2810  -0.881   2.833   3.594 -0.3823 -0.2561 -0.5380
   22MOL0     C 2811  -1.008   2.748   3.567 -0.1548 -1.2723 -1.0096
   22MOL0     C 2812  -1.079   2.794   3.441  0.8179  0.4010 -0.3622
   22MOL0     C 2813  -1.174   2.691   3.410  0.4617 -0.4855  1.3061
   22MOL0     C 2814  -1.272   2.732   3.295 -0.2059  0.6078  0.2321
   22MOL0     C 2815  -1.371   2.621   3.259  0.1598 -0.0529 -0.5948
   22MOL0    Cl 2816  -1.455   2.675   3.109  0.3051  0.4569  0.2206
   22MOL0     C 2817  -0.498   2.848   4.064 -0.4746 -0.0874 -1.3082
   22MOL0     C 2818  -0.380   2.902   4.132 -0.2686 -0.7680  0.8761
   22MOL0     O 2819  -0.335   3.202   4.273 -0.2040 -0.0584 -0.4595
   22MOL0     C 2820  -0.124   3.264   4.451 -0.7017 -0.1899 -1.2750
   22MOL0     C 2821  -0.032   3.252   4.558  0.4923  0.0972 -0.4791
   22MOL0     N 2822   0.120   3.068   5.199  0.2361 -0.5620 -0.2644
   22MOL0     N 2823   0.074   3.037   5.312 -0.7105 -0.0892  0.1665
   22MOL0     C 2824   0.469   2.247   5.965  0.2440  0.1494  0.3695
   22MOL0     C 2825   0.448   2.126   5.902 -0.1210  0.2869 -0.1889
   22MOL0     C 2826   0.581   1.777   5.612  0.2164  0.8112  0.3262
   22MOL0     C 2827   0.625   1.725   5.481 -0.7359 -0.5467 -0.5008
   22MOL0     C 2828   0.654   1.589   5.473 -0.4577  0.2256  0.0031
   22MOL0     C 2829   0.655   1.504   5.588  0.7097  0.4697  1.0045
   22MOL0     O 2830   0.715   1.384   5.580  0.6121  0.5753  0.7796
   22MOL0     C 2831   0.730   1.312   5.699  0.9535  0.4304  1.5816
   22MOL0     C 2832   0.804   1.178   5.662 -0.4644  0.2088 -0.1458
   22MOL0     C 2833   0.834   1.069   5.772  0.9789 -0.3373 -0.0804
   22MOL0     C 2834   0.972   1.006   5.778 -0.6379 -0.2584 -0.0598
   22MOL0     C 2835   0.989   0.936   5.647  0.9761  0.4569 -0.9091
   22MOL0     C 2836   0.999   0.870   5.540  0.0469 -0.5607 -0.4498
   22MOL0     C 2837   0.591   1.560   5.705  0.2396 -0.2072 -0.3824
   22MOL0     C 2838   0.553   1.689   5.714  0.8855 -0.1736  0.6931
   22MOL0     H 2839   0.739   2.103   5.736  0.5167  0.2726 -0.5770
   22MOL0     H 2840   0.774   2.316   5.840 -1.0984  0.8635 -1.2745
   22MOL0     H 2841   0.730   2.519   5.878 -1.7359 -1.7567 -0.1395
   22MOL0     H 2842   0.767   2.512   6.050 -0.8917 -2.2923  1.0591
   22MOL0     H 2843   0.733   2.750   5.964  1.4533 -1.5383  2.8356
   22MOL0     H 2844   0.602   2.707   6.074  1.1896  1.1592 -0.5456
   22MOL0     H 2845   0.461   2.663   5.889 -0.2237 -1.3325 -1.4620
   22MOL0     H 2846   0.592   2.658   5.771 -1.8120 -2.0401  0.6930
   22MOL0     H 2847   0.540   2.917   5.923 -1.0576  0.6212 -0.2423
   22MOL0     H 2848   0.617   2.887   5.771  1.9108 -0.2322  2.3741
   22MOL0     H 2849   0.330   2.903   5.851  1.3062  0.4062  1.3847
   22MOL0     H 2850   0.356   2.780   5.719 -4.2874  2.5882  0.0005
   22MOL0     H 2851   0.456   2.923   5.576  3.7968  1.2556  1.5930
   22MOL0     H 2852   0.476   3.061   5.675 -0.9949  0.8582 -0.6722
   22MOL0     H 2853   0.222   3.060   5.713 -1.8951 -1.8656 -0.5676
   22MOL0     H 2854   0.291   3.128   5.561  3.9842 -0.5329 -0.2765
   22MOL0     H 2855   0.075   2.982   5.563  0.3063  0.7567 -1.4238
   22MOL0     H 2856   0.205   2.856   5.541 -0.1646  0.3314 -0.1299
   22MOL0     H 2857   0.404   2.995   5.343  0.4024 -2.0468  1.0138
   22MOL0     H 2858   0.389   2.991   5.023  1.3595  0.6550 -0.3505
   22MOL0     H 2859   0.419   3.146   5.081  1.7096 -1.1390 -0.9033
   22MOL0     H 2860   0.188   3.225   4.984  0.1060 -0.1831 -1.0870
   22MOL0     H 2861   0.161   3.059   4.943 -0.4987  0.3896  1.5827
   22MOL0     H 2862   0.410   3.213   4.842 -1.2027  1.4915  0.3944
   22MOL0     H 2863   0.341   3.059   4.779 -1.9192 -2.0575  2.4403
   22MOL0     H 2864   0.299   3.229   4.625  3.3207  0.1984  1.2966
   22MOL0     H 2865   0.206   3.326   4.739  0.8786  0.2377 -1.2268
   22MOL0     H 2866   0.134   2.963   4.490  1.2947  1.3583 -0.9222
   22MOL0     H 2867  -0.038   2.959   4.323 -2.4436 -0.3761  1.1569
   22MOL0     H 2868  -0.298   3.128   3.896  1.1298 -0.3003  1.1737
   22MOL0     H 2869  -0.487   3.036   3.791  4.3553 -2.9219 -2.4529
   22MOL0     H 2870  -0.621   2.815   3.676 -0.2967  4.5182 -3.3726
   22MOL0     H 2871  -0.686   2.968   3.724 -1.2753 -0.5030 -2.6427
   22MOL0     H 2872  -0.884   2.856   3.814 -1.3745 -2.0517  0.2535
   22MOL0     H 2873  -0.831   2.705   3.758 -1.5927  0.6668  2.2670
   22MOL0     H 2874  -0.808   2.814   3.515  0.8287  2.7646 -0.2949
   22MOL0     H 2875  -0.911   2.937   3.577 -0.3008 -0.4841 -2.3096
   22MOL0     H 2876  -0.991   2.640   3.567  0.4418 -1.1900 -1.9537
   22MOL0     H 2877  -1.076   2.760   3.652  1.6723 -7.1413  1.8255
   22MOL0     H 2878  -1.008   2.810   3.359  0.6966  3.9880  0.1072
   22MOL0     H 2879  -1.125   2.890   3.465  2.6007  1.4002 -0.7367
   22MOL0     H 2880  -1.247   2.685   3.492  0.9147 -0.6355  1.7028
   22MOL0     H 2881  -1.138   2.591   3.386 -0.9465 -0.4063 -1.5931
   22MOL0     H 2882  -1.321   2.826   3.321 -0.8421  1.1230 -2.5719
   22MOL0     H 2883  -1.203   2.741   3.211 -1.7253  1.9069 -0.9221
   22MOL0     H 2884  -1.444   2.597   3.336  1.6005  2.4726  1.7174
   22MOL0     H 2885  -1.321   2.527   3.232 -3.4596 -2.7741  1.3679
   22MOL0     H 2886  -0.557   2.775   4.119  0.0307  0.9958  0.7581
   22MOL0     H 2887  -0.350   2.860   4.228 -0.1318 -0.8022  0.8187
   22MOL0     H 2888  -0.195   3.345   4.441  0.3007  0.7660 -0.8541
   22MOL0     H 2889  -0.047   3.326   4.636 -0.8010 -3.1443  2.6005
   22MOL0     H 2890   0.404   2.272   6.048 -1.1695  0.4275 -0.7739
   22MOL0     H 2891   0.371   2.057   5.935  0.6384 -2.3385 -3.3864
   22MOL0     H 2892   0.641   1.799   5.403 -0.5118 -2.1557 -2.0296
   22MOL0     H 2893   0.706   1.555   5.384  1.5113  0.1819  1.1338
   22MOL0     H 2894   0.639   1.274   5.747 -0.1413  1.0373  0.0814
   22MOL0     H 2895   0.775   1.372   5.778 -2.0089  0.8816  3.0685
   22MOL0     H 2896   0.744   1.138   5.580 -0.7081  0.3709 -0.0459
   22MOL0     H 2897   0.901   1.198   5.616  1.1508 -0.2180  2.8369
   22MOL0     H 2898   0.761   0.990   5.752 -0.6503  0.8345  1.0177
   22MOL0     H 2899   0.806   1.117   5.867 -0.7302  0.4108 -0.9393
   22MOL0     H 2900   1.044   1.087   5.794  0.0413 -0.6815 -0.9176
   22MOL0     H 2901   0.983   0.929   5.854  2.5866  0.7586  0.6652
   22MOL0     H 2902   1.007   0.817   5.447  0.5132 -0.3297 -0.5426
   22MOL0     H 2903   0.558   1.498   5.788  0.2790  0.6786  0.3157
   22MOL0     H 2904   0.512   1.729   5.806 -0.1735  2.2605 -0.7356
   23MOL0     O 2905   0.864   5.479   6.361  0.9358 -0.4145 -0.0629
   23MOL0     C 2906   0.819   5.493   6.243  0.4954 -0.5171  0.9962
   23MOL0     O 2907   0.871   5.583   6.151  0.1665 -0.2612  0.2547
   23MOL0     C 2908   0.986   5.643   6.193  0.1973  0.0970 -0.0438
   23MOL0     C 2909   1.111   5.581   6.200  0.0474  0.2449  0.7591
   23MOL0     C 2910   1.216   5.655   6.252 -0.1115  0.2191 -0.3621
   23MOL0     C 2911   1.197   5.788   6.297 -0.4003  0.9293 -0.2651
   23MOL0     O 2912   1.292   5.869   6.348 -0.6102  0.0777 -0.3757
   23MOL0     C 2913   1.419   5.849   6.303  0.6101 -0.1129  0.1150
   23MOL0     C 2914   1.526   5.943   6.364  0.1388 -0.1641 -0.6192
   23MOL0     C 2915   1.660   5.955   6.287  0.1450 -0.6461  0.2384
   23MOL0     C 2916   1.739   6.071   6.344 -0.2592  0.3546 -0.6427
   23MOL0     C 2917   1.865   6.091   6.261 -1.1404 -0.7718  0.7448
   23MOL0     C 2918   1.951   6.222   6.290  0.4819  0.3336 -0.7430
   23MOL0     C 2919   2.080   6.211   6.213  0.2404  0.2107  0.2348
   23MOL0     C 2920   2.160   6.343   6.230  0.3374 -0.2804  0.0255
   23MOL0     N 2921   2.224   6.363   6.362 -0.3996  0.7503 -0.6047
   23MOL0     C 2922   2.217   6.477   6.439 -0.6332 -0.5544 -0.4923
   23MOL0     C 2923   2.325   6.461   6.517 -1.1155  0.3751 -0.3226
   23MOL0     C 2924   2.384   6.571   6.604  0.5691 -0.7723  0.1079
   23MOL0     C 2925   2.316   6.566   6.744  0.4217  0.5261 -0.5400
   23MOL0     C 2926   2.312   6.707   6.797 -0.1377 -0.2383  0.0247
   23MOL0     C 2927   2.221   6.722   6.913  1.0595 -0.0622 -0.0583
   23MOL0     O 2928   2.080   6.713   6.867 -0.9120  0.1144  0.2611
   23MOL0     C 2929   1.980   6.705   6.961  0.5688  0.9030 -0.0539
   23MOL0     C 2930   2.001   6.710   7.097 -0.2947  0.4999  0.6023
   23MOL0     C 2931   1.904   6.719   7.188  0.0221  0.3035 -0.0831
   23MOL0     C 2932   1.766   6.708   7.153  0.3347 -0.5871  0.6705
   23MOL0     C 2933   1.653   6.714   7.238 -0.1111  0.1057 -1.2249
   23MOL0     O 2934   1.537   6.660   7.196  0.7212 -0.2603 -1.1766
   23MOL0     C 2935   1.427   6.660   7.275 -0.0390 -0.3513  0.4570
   23MOL0     C 2936   1.376   6.547   7.329 -0.0492  0.5292 -1.1540
   23MOL0     C 2937   1.250   6.543   7.392 -0.3597 -0.4922  0.5509
   23MOL0     C 2938   1.190   6.667   7.413 -0.9239  0.1125 -1.0690
   23MOL0     O 2939   1.070   6.684   7.476  0.0851  0.1431  0.5117
   23MOL0     C 2940   0.961   6.584   7.480  0.3227 -0.3629 -0.0422
   23MOL0     C 2941   0.856   6.627   7.380 -0.2462  0.2523  0.1817
   23MOL0     C 2942   0.786   6.750   7.450  0.7413  0.0330  0.0317
   23MOL0     C 2943   0.640   6.782   7.386 -0.1643 -0.5864 -0.9136
   23MOL0     C 2944   0.565   6.888   7.471 -0.4023  0.2247 -0.0181
   23MOL0     C 2945   0.414   6.887   7.427  0.3148  0.4537  0.0221
   23MOL0     C 2946   0.326   6.773   7.474  0.0142 -0.3543 -0.5518
   23MOL0     C 2947   0.260   6.695   7.357 -0.2971 -0.0634  0.4569
   23MOL0    Cl 2948   0.195   6.837   7.245 -0.2084  0.0118  0.0027
   23MOL0     C 2949   1.244   6.787   7.360 -0.8114 -0.1101 -0.3328
   23MOL0     C 2950   1.358   6.780   7.292 -0.1233  0.0849  0.0698
   23MOL0     O 2951   1.671   6.776   7.341 -0.0744 -0.6353 -0.3157
   23MOL0     C 2952   1.741   6.693   7.011  1.3244 -0.4551 -0.6023
   23MOL0     C 2953   1.848   6.698   6.919 -0.2510 -0.8391  0.6193
   23MOL0     N 2954   2.393   6.348   6.496  0.3056 -0.4062 -0.3404
   23MOL0     N 2955   2.323   6.285   6.397 -0.6436  0.6493  0.0014
   23MOL0     C 2956   1.076   5.849   6.293  0.7431  0.0253  0.2479
   23MOL0     C 2957   0.969   5.783   6.230 -0.0996  0.0386 -0.9491
   23MOL0     C 2958   0.724   5.387   6.192  0.0010 -0.6689 -0.1530
   23MOL0     C 2959   0.726   5.261   6.253  0.9798 -1.3578 -0.3554
   23MOL0     C 2960   0.640   5.162   6.217 -0.3267 -0.6932 -0.3995
   23MOL0     C 2961   0.553   5.173   6.108 -0.1394  0.3608 -0.5366
   23MOL0     O 2962   0.498   5.066   6.034  0.2425  0.0485  0.0520
   23MOL0     C 2963   0.505   4.930   6.083  0.3907 -0.0558  0.8655
   23MOL0     C 2964   0.399   4.892   6.184  0.7633 -0.7675  0.6194
   23MOL0     C 2965   0.349   4.752   6.150  0.0003 -0.2667  0.0762
   23MOL0     C 2966   0.240   4.749   6.047  0.3926 -0.3730 -0.8817
   23MOL0     C 2967   0.178   4.615   6.027 -0.5551 -0.3009 -0.9793
   23MOL0     C 2968   0.142   4.499   6.010 -0.2084 -0.0648  1.3391
   23MOL0     C 2969   0.557   5.291   6.036 -1.2071 -0.2300 -0.1667
   23MOL0     C 2970   0.636   5.398   6.082 -1.4629 -0.0248  0.4724
   23MOL0     H 2971   1.130   5.476   6.178 -1.6785 -0.2741  1.5624
   23MOL0     H 2972   1.317   5.617   6.262 -0.4380 -0.2418  1.4726
   23MOL0     H 2973   1.415   5.885   6.199  1.1723 -0.9787 -0.2217
   23MOL0     H 2974   1.461   5.749   6.289  0.1661 -0.1331 -1.2899
   23MOL0     H 2975   1.549   5.905   6.464  3.2440  1.1406 -0.7211
   23MOL0     H 2976   1.474   6.038   6.378  2.1509  1.0762 -1.0972
   23MOL0     H 2977   1.641   5.969   6.180 -5.4332 -0.9867  0.8979
   23MOL0     H 2978   1.721   5.867   6.307  0.3851 -0.1369  1.8752
   23MOL0     H 2979   1.681   6.163   6.356  1.1245  1.1652  0.1029
   23MOL0     H 2980   1.780   6.045   6.442  3.0982  2.0420 -1.4614
   23MOL0     H 2981   1.834   6.086   6.156  0.5606  2.2424 -0.0196
   23MOL0     H 2982   1.916   5.998   6.288 -0.0359  0.1779  2.0590
   23MOL0     H 2983   1.972   6.227   6.397 -0.2258  1.9362 -0.6526
   23MOL0     H 2984   1.894   6.309   6.258  2.2444  1.3054 -1.3202
   23MOL0     H 2985   2.143   6.129   6.250  0.6594 -0.1996 -1.3333
   23MOL0     H 2986   2.046   6.202   6.110 -1.0748  0.1908  0.6546
   23MOL0     H 2987   2.091   6.425   6.206 -2.6088 -2.3645  0.8063
   23MOL0     H 2988   2.246   6.346   6.163 -0.2892  0.3848 -0.7695
   23MOL0     H 2989   2.171   6.573   6.415  4.9520  2.0840 -2.3873
   23MOL0     H 2990   2.356   6.668   6.561  1.9691 -0.2522  0.2999
   23MOL0     H 2991   2.493   6.564   6.613  0.4270 -1.4072  1.7143
   23MOL0     H 2992   2.389   6.510   6.804  0.4589 -0.6726 -1.6553
   23MOL0     H 2993   2.218   6.517   6.743 -0.7761  2.7783 -2.2996
   23MOL0     H 2994   2.413   6.733   6.831 -0.4683  1.5859 -0.2689
   23MOL0     H 2995   2.284   6.780   6.720  2.2845 -0.8200 -1.5382
   23MOL0     H 2996   2.231   6.826   6.946 -1.4852 -0.1913  1.4300
   23MOL0     H 2997   2.253   6.647   6.986 -0.3625 -1.1566 -0.5183
   23MOL0     H 2998   2.103   6.710   7.133  1.0563 -3.9462 -2.3981
   23MOL0     H 2999   1.929   6.730   7.293  2.6285  1.7229 -0.7776
   23MOL0     H 3000   1.433   6.455   7.327  0.1883  0.4608  2.1474
   23MOL0     H 3001   1.207   6.452   7.432 -0.3935 -1.5745 -1.7489
   23MOL0     H 3002   0.921   6.575   7.581  0.6787  4.0312  0.6635
   23MOL0     H 3003   1.008   6.491   7.446  0.7924 -1.5014  3.3611
   23MOL0     H 3004   0.793   6.542   7.351  1.3923 -0.3946 -1.7540
   23MOL0     H 3005   0.894   6.672   7.288 -1.8419  2.4459  0.5198
   23MOL0     H 3006   0.849   6.839   7.447  1.3736 -0.2071  2.9807
   23MOL0     H 3007   0.777   6.727   7.556 -0.5934 -0.9329 -0.2643
   23MOL0     H 3008   0.651   6.832   7.289 -2.0636  1.5190 -0.1441
   23MOL0     H 3009   0.575   6.695   7.381 -2.7914  1.2560 -1.3139
   23MOL0     H 3010   0.595   6.988   7.437 -2.5112  1.2719  1.0000
   23MOL0     H 3011   0.585   6.865   7.576  2.4344  2.2098 -0.0035
   23MOL0     H 3012   0.413   6.912   7.321  1.1805  0.9533  0.1268
   23MOL0     H 3013   0.372   6.976   7.475  1.4050  2.3418 -2.3559
   23MOL0     H 3014   0.381   6.700   7.535  0.2445  0.6645  0.4892
   23MOL0     H 3015   0.260   6.822   7.545  0.9002 -1.6895  1.2784
   23MOL0     H 3016   0.184   6.621   7.382 -1.9929  0.2296 -3.1646
   23MOL0     H 3017   0.335   6.642   7.297 -3.7537 -3.4955 -1.3124
   23MOL0     H 3018   1.185   6.876   7.380  0.0449  0.3804  0.0905
   23MOL0     H 3019   1.404   6.867   7.246 -1.7110  0.6589 -0.4964
   23MOL0     H 3020   1.641   6.687   6.968  0.9865  2.9645 -0.6163
   23MOL0     H 3021   1.823   6.696   6.814  2.3804  0.9789 -0.1495
   23MOL0     H 3022   1.060   5.950   6.331  0.0766 -0.1623  0.4726
   23MOL0     H 3023   0.875   5.837   6.232  0.1178  0.4098 -0.6266
   23MOL0     H 3024   0.785   5.247   6.342  1.7708  3.1631  0.0346
   23MOL0     H 3025   0.645   5.064   6.265  2.4883 -1.4051 -1.9391
   23MOL0     H 3026   0.601   4.907   6.130  0.1034 -1.2414  0.8974
   23MOL0     H 3027   0.516   4.862   5.998  2.6798  0.3938  0.7326
   23MOL0     H 3028   0.429   4.897   6.289 -1.3705 -3.7654  1.4988
   23MOL0     H 3029   0.314   4.960   6.175 -0.5311 -2.5778 -2.0706
   23MOL0     H 3030   0.307   4.711   6.243 -0.9590 -0.8670 -0.6030
   23MOL0     H 3031   0.433   4.692   6.115 -0.1158 -0.3630 -0.0399
   23MOL0     H 3032   0.163   4.813   6.092  1.8969 -0.6081  2.2856
   23MOL0     H 3033   0.267   4.794   5.951 -0.9773 -1.2775 -1.7162
   23MOL0     H 3034   0.141   4.394   5.987  2.0424  0.3827 -1.4725
   23MOL0     H 3035   0.496   5.287   5.947  0.0148 -1.7286 -0.9888
   23MOL0     H 3036   0.642   5.495   6.032 -1.4921 -0.7264 -0.9431
   24MOL0     O 3037   5.930  10.741   2.094  0.1925 -0.3598  0.5360
   24MOL0     C 3038   6.024  10.738   2.017 -0.8939 -0.9625  1.0335
   24MOL0     O 3039   6.059  10.842   1.939 -0.4688 -0.1242  1.0432
   24MOL0     C 3040   6.002  10.966   1.926 -1.2290 -0.2243 -0.5092
   24MOL0     C 3041   6.089  11.073   1.953 -0.7170  0.0944 -0.2427
   24MOL0     C 3042   6.059  11.205   1.936  0.2173 -0.6133 -0.2314
   24MOL0     C 3043   5.925  11.241   1.909  0.6146 -0.0440  0.9836
   24MOL0     O 3044   5.891  11.371   1.889 -0.5307 -0.3274 -0.3381
   24MOL0     C 3045   5.785  11.415   1.979 -0.4316 -0.1667 -0.3388
   24MOL0     C 3046   5.820  11.567   2.006  0.4063  0.2619 -0.3368
   24MOL0     C 3047   5.963  11.599   2.050 -0.1458  1.0885  0.6411
   24MOL0     C 3048   6.018  11.730   2.006 -0.4974 -0.3258 -0.0295
   24MOL0     C 3049   6.156  11.761   2.062  1.6854  0.4298  0.3810
   24MOL0     C 3050   6.240  11.859   1.980  0.3938 -0.8598 -0.5205
   24MOL0     C 3051   6.381  11.879   2.042 -0.4238 -0.0123  0.1658
   24MOL0     C 3052   6.369  11.941   2.183  0.1353  0.4649 -0.7849
   24MOL0     N 3053   6.282  12.056   2.185  0.4242  0.0446  0.3446
   24MOL0     C 3054   6.178  12.100   2.263 -0.1254  0.4324  1.2549
   24MOL0     C 3055   6.165  12.237   2.246 -0.2460  0.2573  0.2270
   24MOL0     C 3056   6.065  12.311   2.314  0.3462 -0.1572 -0.5281
   24MOL0     C 3057   5.923  12.282   2.248 -0.2434  0.3533 -0.6499
   24MOL0     C 3058   5.804  12.321   2.329  0.4448  0.1409 -0.4739
   24MOL0     C 3059   5.680  12.252   2.276 -0.6385  0.5300  0.3999
   24MOL0     O 3060   5.560  12.310   2.333 -0.0171 -0.1174 -0.2466
   24MOL0     C 3061   5.438  12.249   2.301 -0.0806  0.3805  0.1631
   24MOL0     C 3062   5.418  12.164   2.190 -0.1056  0.2346  0.1829
   24MOL0     C 3063   5.297  12.105   2.163  0.9051 -0.6591 -0.7265
   24MOL0     C 3064   5.187  12.128   2.248  0.7666 -0.5166  0.2247
   24MOL0     C 3065   5.053  12.047   2.237 -0.6570  0.0238 -0.2268
   24MOL0     O 3066   5.047  11.949   2.140  0.6708 -1.4679  0.1846
   24MOL0     C 3067   4.933  11.887   2.105 -0.7063 -0.0216  0.5284
   24MOL0     C 3068   4.799  11.928   2.104  0.2998 -0.6152 -0.1722
   24MOL0     C 3069   4.702  11.855   2.045  0.0622  0.7460 -0.0865
   24MOL0     C 3070   4.729  11.732   1.980  0.6324  0.1806 -0.6649
   24MOL0     O 3071   4.632  11.665   1.914  0.3913  0.1844 -0.1916
   24MOL0     C 3072   4.645  11.522   1.892 -0.2376 -0.2356 -0.1351
   24MOL0     C 3073   4.633  11.441   2.021 -0.1914 -0.3230  0.5144
   24MOL0     C 3074   4.485  11.440   2.080 -0.2425  0.0802 -0.4968
   24MOL0     C 3075   4.444  11.304   2.140 -0.4245  0.9226  0.0126
   24MOL0     C 3076   4.296  11.313   2.166 -0.2708 -0.9588 -0.3726
   24MOL0     C 3077   4.237  11.184   2.228  0.5601 -0.3932 -0.1503
   24MOL0     C 3078   4.085  11.177   2.283 -0.3406 -0.4734 -0.0919
   24MOL0     C 3079   3.988  11.214   2.166 -0.0648  1.0548  0.0348
   24MOL0    Cl 3080   3.824  11.156   2.218 -0.1776 -0.3048  0.1128
   24MOL0     C 3081   4.865  11.691   1.979  0.8090  0.3049 -0.1690
   24MOL0     C 3082   4.960  11.770   2.032 -0.6852 -0.0069 -0.7249
   24MOL0     O 3083   4.959  12.079   2.312 -0.2002  0.4207  0.4853
   24MOL0     C 3084   5.206  12.209   2.359  0.5688  0.0682  1.0729
   24MOL0     C 3085   5.324  12.281   2.375  0.7252  0.3908  0.3491
   24MOL0     N 3086   6.254  12.276   2.144  0.0494  0.0917 -0.3888
   24MOL0     N 3087   6.317  12.168   2.101 -0.1019 -0.3889  0.2975
   24MOL0     C 3088   5.828  11.136   1.900 -0.5310  0.7326  0.4930
   24MOL0     C 3089   5.871  10.997   1.897 -0.3876  0.2387 -0.4715
   24MOL0     C 3090   6.113  10.625   2.029  0.3078  0.8029 -0.8500
   24MOL0     C 3091   6.085  10.509   2.107  0.2073 -0.1944  0.8233
   24MOL0     C 3092   6.175  10.405   2.117  0.2999 -0.3287  0.1514
   24MOL0     C 3093   6.301  10.413   2.057 -0.4270  0.2386  0.3717
   24MOL0     O 3094   6.396  10.318   2.066 -1.0095 -0.3762 -0.1279
   24MOL0     C 3095   6.372  10.187   2.128  0.4379  0.1841  0.4694
   24MOL0     C 3096   6.404  10.183   2.278 -0.1320  1.2669 -0.7004
   24MOL0     C 3097   6.385  10.035   2.333 -0.2147 -0.1734 -0.6082
   24MOL0     C 3098   6.232   9.980   2.343 -0.3579  0.7649  0.6434
   24MOL0     C 3099   6.241   9.836   2.330  0.9401 -0.2745  0.6742
   24MOL0     C 3100   6.238   9.719   2.322 -0.0191  0.0723  0.4887
   24MOL0     C 3101   6.324  10.520   1.971 -0.5479 -0.6642  0.7250
   24MOL0     C 3102   6.237  10.632   1.964 -0.4547  0.6514  0.3113
   24MOL0     H 3103   6.191  11.044   1.978 -1.6320 -3.2911  0.1336
   24MOL0     H 3104   6.124  11.291   1.952 -1.7140  0.4446  2.7501
   24MOL0     H 3105   5.784  11.365   2.076 -5.3795 -0.1806 -0.1077
   24MOL0     H 3106   5.684  11.400   1.939 -0.7940 -1.9016  1.1437
   24MOL0     H 3107   5.759  11.605   2.088 -1.2704  3.0857 -2.7118
   24MOL0     H 3108   5.775  11.617   1.920 -1.5160  0.4487  0.7396
   24MOL0     H 3109   6.030  11.517   2.026  2.2891  2.9994  0.5491
   24MOL0     H 3110   5.969  11.594   2.159 -0.7866  3.0711  0.8151
   24MOL0     H 3111   6.027  11.731   1.897 -0.3464 -0.5678 -0.0205
   24MOL0     H 3112   5.945  11.808   2.030 -2.2519 -1.7239 -0.6259
   24MOL0     H 3113   6.217  11.670   2.056  0.1393 -0.5783 -0.9414
   24MOL0     H 3114   6.137  11.798   2.163  0.7076  0.1380  0.3137
   24MOL0     H 3115   6.187  11.954   1.968  2.0286  0.1312 -0.2434
   24MOL0     H 3116   6.249  11.821   1.878 -1.5685  2.7441 -2.2175
   24MOL0     H 3117   6.430  11.782   2.045 -1.0863 -0.5732 -3.3632
   24MOL0     H 3118   6.442  11.945   1.980  2.9294 -0.5970  2.5830
   24MOL0     H 3119   6.471  11.965   2.215  0.2138  1.0879 -1.4714
   24MOL0     H 3120   6.327  11.863   2.246 -2.1358  0.9180 -1.6570
   24MOL0     H 3121   6.124  12.037   2.332  0.2343 -1.4813 -0.1406
   24MOL0     H 3122   6.103  12.413   2.303  0.5550 -0.4228 -2.4979
   24MOL0     H 3123   6.059  12.280   2.419 -1.0166 -2.2562 -1.1785
   24MOL0     H 3124   5.913  12.174   2.234 -2.9266  0.8129 -3.1912
   24MOL0     H 3125   5.938  12.330   2.151  3.5000 -1.0244 -0.9374
   24MOL0     H 3126   5.812  12.293   2.434 -2.6118 -1.2026 -0.4996
   24MOL0     H 3127   5.776  12.426   2.316  1.2012  0.2901 -0.9670
   24MOL0     H 3128   5.693  12.144   2.294 -0.3314  0.8954  2.7143
   24MOL0     H 3129   5.683  12.260   2.167 -0.6317 -2.5461  0.0619
   24MOL0     H 3130   5.506  12.131   2.135 -0.7528 -0.2673 -0.5758
   24MOL0     H 3131   5.299  12.026   2.089 -0.5602  0.0372 -1.5444
   24MOL0     H 3132   4.773  12.029   2.133  0.6640 -0.2060 -1.1999
   24MOL0     H 3133   4.604  11.901   2.032  0.9940  2.7519 -0.4276
   24MOL0     H 3134   4.736  11.498   1.837  1.3613  2.9895  0.8400
   24MOL0     H 3135   4.557  11.495   1.833 -0.6319  0.3586  0.1712
   24MOL0     H 3136   4.710  11.478   2.090 -0.5579  2.3209 -0.3885
   24MOL0     H 3137   4.652  11.337   1.992 -2.4237 -0.4272 -0.8043
   24MOL0     H 3138   4.413  11.443   1.997  1.2657 -2.0210 -2.0075
   24MOL0     H 3139   4.477  11.523   2.150  0.7471  0.5632 -0.9304
   24MOL0     H 3140   4.479  11.222   2.077  0.1305 -1.1794  2.8436
   24MOL0     H 3141   4.497  11.290   2.235  0.5204 -1.1317 -0.7455
   24MOL0     H 3142   4.246  11.328   2.069 -1.9176 -2.0115  0.2753
   24MOL0     H 3143   4.272  11.406   2.220 -5.2322  1.5258 -5.6655
   24MOL0     H 3144   4.302  11.150   2.309 -1.4716 -0.3184  1.5789
   24MOL0     H 3145   4.243  11.110   2.147 -1.6982 -1.3614  0.4814
   24MOL0     H 3146   4.064  11.073   2.306  3.1760 -1.3777 -0.3417
   24MOL0     H 3147   4.078  11.233   2.377 -0.1658 -2.7899  1.3644
   24MOL0     H 3148   4.028  11.162   2.078 -1.4149  1.9239 -1.1383
   24MOL0     H 3149   3.993  11.320   2.141  1.9536  0.2938 -3.4399
   24MOL0     H 3150   4.894  11.600   1.929  3.1902  0.9391 -0.0699
   24MOL0     H 3151   5.061  11.732   2.027  0.1351  1.8969  0.3552
   24MOL0     H 3152   5.125  12.232   2.427  0.6991  2.7089  0.4351
   24MOL0     H 3153   5.323  12.353   2.456 -2.7888 -0.9291  1.6895
   24MOL0     H 3154   5.728  11.175   1.887 -0.6272  1.0606  2.0175
   24MOL0     H 3155   5.806  10.913   1.879  1.1872 -1.2915  0.6070
   24MOL0     H 3156   5.988  10.514   2.153  0.6175 -0.0581  1.6837
   24MOL0     H 3157   6.146  10.320   2.180 -1.0240  0.8283  1.1846
   24MOL0     H 3158   6.431  10.114   2.072 -1.6666  1.1726 -3.3950
   24MOL0     H 3159   6.266  10.167   2.111  0.7108 -1.4733  0.5305
   24MOL0     H 3160   6.504  10.219   2.305 -0.8906  1.6563  1.8120
   24MOL0     H 3161   6.338  10.240   2.344 -3.0205 -0.0792 -2.2475
   24MOL0     H 3162   6.414  10.030   2.439 -2.3467 -2.3154 -0.0312
   24MOL0     H 3163   6.444   9.969   2.270  0.9508 -1.9188  2.1157
   24MOL0     H 3164   6.196  10.001   2.445 -1.7418  0.0074  0.3304
   24MOL0     H 3165   6.167  10.017   2.262 -0.2093 -1.7917 -0.7299
   24MOL0     H 3166   6.238   9.612   2.313 -0.3319  0.1813 -1.3546
   24MOL0     H 3167   6.416  10.536   1.915 -2.3522  1.4743 -1.9224
   24MOL0     H 3168   6.266  10.720   1.909 -1.9569  2.5813  2.4268
   25MOL0     O 3169   5.933   8.679   8.685 -0.4591  0.3053 -0.5258
   25MOL0     C 3170   5.973   8.785   8.632 -0.0010 -0.0027  0.2180
   25MOL0     O 3171   5.893   8.899   8.600  0.4716  0.1152 -0.3854
   25MOL0     C 3172   5.758   8.897   8.604  0.8063 -0.4613  0.3362
   25MOL0     C 3173   5.690   9.018   8.618  0.0198  0.7744 -0.5053
   25MOL0     C 3174   5.543   9.028   8.618 -0.1669  0.3158  0.3778
   25MOL0     C 3175   5.465   8.914   8.602  0.0834  0.6254 -0.2202
   25MOL0     O 3176   5.326   8.907   8.602  0.2370  0.0233 -0.5400
   25MOL0     C 3177   5.241   9.022   8.564 -0.8055 -0.0847 -0.4143
   25MOL0     C 3178   5.088   9.001   8.588  0.2148  0.8764  0.7436
   25MOL0     C 3179   5.040   8.864   8.533  0.0335 -0.0937 -0.8458
   25MOL0     C 3180   4.895   8.827   8.519 -0.7589  0.0497  1.2841
   25MOL0     C 3181   4.876   8.686   8.469  0.5107  1.5948 -0.2563
   25MOL0     C 3182   4.731   8.643   8.466  0.5889 -0.1297 -2.2258
   25MOL0     C 3183   4.709   8.509   8.396  0.3908 -0.2160  0.3696
   25MOL0     C 3184   4.564   8.498   8.341 -0.0561 -0.7584  0.4854
   25MOL0     N 3185   4.534   8.369   8.274  0.7157  0.3104 -0.7177
   25MOL0     C 3186   4.484   8.251   8.345 -0.0332 -0.4614 -0.0580
   25MOL0     C 3187   4.449   8.166   8.245  0.2916 -0.3911 -0.2614
   25MOL0     C 3188   4.414   8.022   8.278 -0.8662 -0.2435  1.0835
   25MOL0     C 3189   4.289   8.026   8.355  0.2375 -1.0019 -0.3166
   25MOL0     C 3190   4.213   7.895   8.333  0.7250 -0.8017 -0.1299
   25MOL0     C 3191   4.085   7.903   8.422  0.1528  0.6476 -0.6393
   25MOL0     O 3192   4.004   8.009   8.378  0.5529 -0.2849 -0.5669
   25MOL0     C 3193   3.870   8.004   8.401  0.3944 -0.5077 -0.1605
   25MOL0     C 3194   3.797   8.063   8.297 -0.1199 -0.6819  0.2729
   25MOL0     C 3195   3.651   8.069   8.308  0.5638 -0.2598  0.0871
   25MOL0     C 3196   3.581   8.005   8.415 -0.6122 -0.1347 -0.1042
   25MOL0     C 3197   3.434   8.013   8.430 -0.4355 -0.2412 -0.6713
   25MOL0     O 3198   3.381   7.941   8.531  0.0969  0.0885 -0.0181
   25MOL0     C 3199   3.244   7.959   8.549 -0.2721  0.3663  0.8460
   25MOL0     C 3200   3.193   8.040   8.658  0.0716 -1.0731 -0.0052
   25MOL0     C 3201   3.060   8.043   8.696 -0.6863 -0.4262  0.6069
   25MOL0     C 3202   2.970   7.954   8.645  0.2948  0.9034  0.1684
   25MOL0     O 3203   2.842   7.933   8.691 -0.3155  0.4377  0.4769
   25MOL0     C 3204   2.788   8.027   8.792  0.3580 -0.1890  0.8763
   25MOL0     C 3205   2.645   7.987   8.848 -1.7220 -0.3884  0.1110
   25MOL0     C 3206   2.544   7.991   8.737 -0.7444  0.5467 -0.1440
   25MOL0     C 3207   2.409   7.960   8.800 -0.4292  1.1054 -0.1160
   25MOL0     C 3208   2.304   7.961   8.690  0.0671 -0.0867 -0.2676
   25MOL0     C 3209   2.169   7.970   8.748  0.9067 -0.1202 -0.7520
   25MOL0     C 3210   2.069   7.906   8.660 -0.1074 -0.8114 -0.3179
   25MOL0     C 3211   1.929   7.917   8.716  1.4849  0.3584 -0.2779
   25MOL0    Cl 3212   1.895   7.807   8.850  0.1936  0.5296 -0.3070
   25MOL0     C 3213   3.010   7.872   8.542 -0.0661  0.2169 -1.2959
   25MOL0     C 3214   3.141   7.875   8.493 -0.4515  0.6429 -0.2084
   25MOL0     O 3215   3.368   8.055   8.336 -0.4680 -0.2201 -0.3155
   25MOL0     C 3216   3.665   7.941   8.513 -0.8571 -0.2214  0.6076
   25MOL0     C 3217   3.801   7.934   8.505 -0.1292  1.0737  0.0885
   25MOL0     N 3218   4.480   8.223   8.126  0.0250 -0.3238 -0.9830
   25MOL0     N 3219   4.530   8.340   8.146 -0.2218 -0.1465  0.3402
   25MOL0     C 3220   5.539   8.796   8.574 -0.2033 -0.7014 -0.0119
   25MOL0     C 3221   5.676   8.784   8.576 -0.2931 -0.0576  0.3144
   25MOL0     C 3222   6.115   8.795   8.598 -0.2507  0.0001 -0.4701
   25MOL0     C 3223   6.171   8.884   8.510 -0.1547  0.3824  0.3649
   25MOL0     C 3224   6.302   8.910   8.498 -0.4352  0.3926 -1.1546
   25MOL0     C 3225   6.393   8.838   8.573  0.3780  0.1405 -0.4138
   25MOL0     O 3226   6.526   8.870   8.558 -0.5275 -0.9050  0.3244
   25MOL0     C 3227   6.620   8.809   8.654 -0.7429 -0.0685  0.4195
   25MOL0     C 3228   6.767   8.871   8.640 -0.6683 -0.1210  0.2999
   25MOL0     C 3229   6.775   9.027   8.643 -0.3359 -0.2371  0.1955
   25MOL0     C 3230   6.922   9.069   8.639  0.5888 -0.6455 -0.1451
   25MOL0     C 3231   6.963   9.057   8.500 -0.8328 -0.1284 -0.1297
   25MOL0     C 3232   7.006   9.051   8.386  0.2917 -0.0480  0.1008
   25MOL0     C 3233   6.345   8.734   8.660 -0.2968 -0.7227 -0.0344
   25MOL0     C 3234   6.207   8.713   8.668 -0.9301 -0.3571 -0.8281
   25MOL0     H 3235   5.747   9.108   8.640 -2.0944  2.0160  0.2879
   25MOL0     H 3236   5.497   9.121   8.650 -0.6420  1.4243 -3.1083
   25MOL0     H 3237   5.263   9.051   8.461  2.1272 -0.1216  0.1103
   25MOL0     H 3238   5.261   9.108   8.629 -0.5560 -1.1756  1.0100
   25MOL0     H 3239   5.038   9.080   8.531  1.9854  2.0761  0.7928
   25MOL0     H 3240   5.057   9.008   8.692  2.3492 -4.7590  2.1196
   25MOL0     H 3241   5.087   8.791   8.600 -4.1565  0.0296  2.6931
   25MOL0     H 3242   5.073   8.846   8.430 -1.8659 -4.9405 -0.8499
   25MOL0     H 3243   4.854   8.832   8.620  1.0531  0.6426  2.0331
   25MOL0     H 3244   4.838   8.892   8.451  0.4405 -0.6700 -0.4893
   25MOL0     H 3245   4.937   8.616   8.527 -0.0714  0.4981 -0.9373
   25MOL0     H 3246   4.916   8.679   8.367  0.0188 -2.0257 -0.3302
   25MOL0     H 3247   4.667   8.723   8.428 -0.4984  0.7254  1.0601
   25MOL0     H 3248   4.704   8.645   8.572 -1.3999  1.5486 -2.7027
   25MOL0     H 3249   4.782   8.504   8.316  0.3098  1.8693  0.1074
   25MOL0     H 3250   4.727   8.422   8.460  0.7082  0.6431  1.4832
   25MOL0     H 3251   4.551   8.573   8.262  0.3931 -2.1515 -0.9732
   25MOL0     H 3252   4.493   8.503   8.424 -0.4151  4.0322  0.1939
   25MOL0     H 3253   4.484   8.238   8.453 -2.0289  3.0871  0.5197
   25MOL0     H 3254   4.477   7.982   8.358 -2.4436  1.5384  3.3606
   25MOL0     H 3255   4.412   7.964   8.186  3.5224 -1.2923  1.4755
   25MOL0     H 3256   4.231   8.112   8.321  1.7926 -0.7019 -2.4297
   25MOL0     H 3257   4.290   8.047   8.462  0.0064  1.2567 -0.7081
   25MOL0     H 3258   4.169   7.884   8.234  0.3082 -0.4276  0.0084
   25MOL0     H 3259   4.278   7.812   8.361 -0.7577 -2.3068 -0.9594
   25MOL0     H 3260   4.107   7.926   8.526 -1.4764  0.6811 -0.2746
   25MOL0     H 3261   4.034   7.807   8.415 -0.0665  0.8283 -1.7022
   25MOL0     H 3262   3.854   8.089   8.208  2.7610 -3.8261  0.9836
   25MOL0     H 3263   3.599   8.116   8.225  1.8108  0.2454 -0.4305
   25MOL0     H 3264   3.267   8.106   8.704  1.0864 -3.0573  1.3699
   25MOL0     H 3265   3.037   8.107   8.781  1.8495 -0.9666  1.7976
   25MOL0     H 3266   2.783   8.127   8.746 -0.3609 -1.1260 -1.2349
   25MOL0     H 3267   2.854   8.018   8.878 -1.1771  1.2840  2.2782
   25MOL0     H 3268   2.619   8.052   8.931  0.8099  0.8275  0.0470
   25MOL0     H 3269   2.652   7.887   8.891 -1.6014  0.0023  1.0056
   25MOL0     H 3270   2.574   7.915   8.664 -0.4654 -0.2552  0.7902
   25MOL0     H 3271   2.547   8.094   8.702  0.3101  1.5289  2.6190
   25MOL0     H 3272   2.406   7.860   8.844 -0.3225  1.4451  0.6775
   25MOL0     H 3273   2.375   8.025   8.881 -2.2210 -0.9506  0.8985
   25MOL0     H 3274   2.323   7.872   8.629  3.2441  0.5712 -0.4395
   25MOL0     H 3275   2.328   8.045   8.624  1.2241  0.5209  0.8650
   25MOL0     H 3276   2.141   8.075   8.763  0.6335 -0.2386 -0.4189
   25MOL0     H 3277   2.168   7.925   8.848  2.9387  1.5331  0.0723
   25MOL0     H 3278   2.081   7.946   8.559  0.1793 -3.8847 -1.6149
   25MOL0     H 3279   2.092   7.801   8.642  3.9770 -0.0362 -0.5807
   25MOL0     H 3280   1.860   7.905   8.632  1.5547  1.6508 -0.5326
   25MOL0     H 3281   1.913   8.016   8.759 -0.7129 -0.0193 -0.1174
   25MOL0     H 3282   2.938   7.803   8.500 -1.7422  1.7816 -1.0694
   25MOL0     H 3283   3.174   7.799   8.423 -0.4864 -1.2648  1.7446
   25MOL0     H 3284   3.612   7.882   8.588  0.6077 -0.2269  1.6791
   25MOL0     H 3285   3.857   7.878   8.579 -1.1986 -1.1372 -0.6829
   25MOL0     H 3286   5.472   8.711   8.562  0.1467 -0.8484 -1.0140
   25MOL0     H 3287   5.725   8.688   8.565  1.1697  0.7168 -0.1297
   25MOL0     H 3288   6.103   8.946   8.453  0.1619  2.3931  2.0594
   25MOL0     H 3289   6.353   8.971   8.425  0.2930 -1.5995 -2.4045
   25MOL0     H 3290   6.632   8.704   8.628 -1.6505 -0.5299  1.7423
   25MOL0     H 3291   6.587   8.823   8.758 -0.5010  2.3963  0.2195
   25MOL0     H 3292   6.830   8.825   8.717  0.9982 -2.5556 -2.3232
   25MOL0     H 3293   6.815   8.832   8.550  0.4533  1.4681  0.1703
   25MOL0     H 3294   6.725   9.068   8.731  2.6271  1.2758  1.2870
   25MOL0     H 3295   6.717   9.062   8.557  0.4969 -0.8719 -0.6530
   25MOL0     H 3296   6.908   9.171   8.674 -2.0207 -0.5698 -1.1777
   25MOL0     H 3297   6.973   9.003   8.709 -0.6824 -3.6466 -1.8477
   25MOL0     H 3298   7.042   9.040   8.286 -0.0914 -0.9326  0.0455
   25MOL0     H 3299   6.401   8.677   8.733  4.2504 -0.5296 -2.9210
   25MOL0     H 3300   6.179   8.637   8.741 -1.2613  0.8011  0.2984
   26MOL0     O 3301   5.395   8.256  10.596 -0.0487 -0.7056 -0.6337
   26MOL0     C 3302   5.397   8.311  10.707  0.2908 -0.1693  1.1353
   26MOL0     O 3303   5.285   8.353  10.770  0.3812  0.0382  0.0713
   26MOL0     C 3304   5.160   8.302  10.734 -0.0619  0.9522 -0.6814
   26MOL0     C 3305   5.105   8.186  10.783  0.0468 -0.1343  0.3246
   26MOL0     C 3306   4.986   8.134  10.731  0.5712 -0.3722 -0.0668
   26MOL0     C 3307   4.918   8.200  10.630 -0.4790 -0.1319 -0.4984
   26MOL0     O 3308   4.801   8.147  10.593 -0.4653 -0.5339  0.3894
   26MOL0     C 3309   4.776   8.150  10.450 -0.0611 -0.9138  0.1249
   26MOL0     C 3310   4.662   8.049  10.411  0.2521  0.7247  0.8495
   26MOL0     C 3311   4.520   8.100  10.430 -0.8077 -0.2614  0.5415
   26MOL0     C 3312   4.420   7.995  10.392 -0.2737  0.3649 -0.6520
   26MOL0     C 3313   4.272   8.042  10.375 -0.4037  0.0563 -0.4925
   26MOL0     C 3314   4.251   8.115  10.244 -0.2499 -0.6869  0.4759
   26MOL0     C 3315   4.110   8.172  10.241 -0.2764 -0.6327 -0.1739
   26MOL0     C 3316   4.060   8.229  10.107  0.4816  0.4176  0.1273
   26MOL0     N 3317   4.035   8.130   9.999 -0.4264 -0.6465  0.2185
   26MOL0     C 3318   3.926   8.036  10.010 -1.2303  0.5919 -0.3817
   26MOL0     C 3319   3.923   7.973   9.889 -0.7632 -0.5803  0.1575
   26MOL0     C 3320   3.853   7.851   9.847 -0.2992  0.1129  0.1617
   26MOL0     C 3321   3.727   7.883   9.764  0.2424 -1.7792 -0.2784
   26MOL0     C 3322   3.638   7.763   9.757  0.2121  0.4453  0.1139
   26MOL0     C 3323   3.492   7.801   9.752 -0.9441  0.6960  0.2908
   26MOL0     O 3324   3.468   7.858   9.628  0.4285 -0.4263  0.4866
   26MOL0     C 3325   3.340   7.905   9.602 -0.4553  0.2912 -0.0838
   26MOL0     C 3326   3.235   7.902   9.693 -0.0429  0.0886 -0.0122
   26MOL0     C 3327   3.103   7.953   9.655  0.4819  0.0845 -0.1770
   26MOL0     C 3328   3.079   8.022   9.533  0.2732  0.4245 -1.7387
   26MOL0     C 3329   2.947   8.077   9.488  1.0398  0.6546  0.1118
   26MOL0     O 3330   2.844   8.047   9.568  0.2044  0.4292  0.0389
   26MOL0     C 3331   2.719   8.074   9.533  0.7333  0.2651  0.3630
   26MOL0     C 3332   2.670   8.193   9.476 -0.3009 -0.8034 -0.3810
   26MOL0     C 3333   2.528   8.214   9.445 -0.1015 -0.5218 -0.1509
   26MOL0     C 3334   2.437   8.119   9.496  0.1367 -0.1834  0.8942
   26MOL0     O 3335   2.300   8.140   9.489  0.0069 -1.0951 -0.5465
   26MOL0     C 3336   2.227   8.067   9.577 -0.3159 -0.4486  1.0744
   26MOL0     C 3337   2.084   8.120   9.579 -0.0606 -0.2870 -0.1052
   26MOL0     C 3338   2.003   8.007   9.639  0.4057  0.3755  0.4714
   26MOL0     C 3339   1.862   8.053   9.657 -0.0618 -0.0226 -0.1948
   26MOL0     C 3340   1.763   7.935   9.683 -0.8771  0.2145 -0.4625
   26MOL0     C 3341   1.617   7.973   9.653  0.1858 -0.9879  0.6938
   26MOL0     C 3342   1.526   7.909   9.763 -0.7299 -0.5681  0.1398
   26MOL0     C 3343   1.526   7.760   9.778 -0.4563 -0.7405 -0.1033
   26MOL0    Cl 3344   1.398   7.709   9.887 -0.3776  0.3461 -0.4880
   26MOL0     C 3345   2.487   8.001   9.559  1.0509  0.0630 -0.2959
   26MOL0     C 3346   2.627   7.979   9.577 -0.5549 -0.2831 -0.1832
   26MOL0     O 3347   2.942   8.149   9.389 -0.4776 -0.2376  1.0740
   26MOL0     C 3348   3.182   8.013   9.449  0.5284 -0.1724  0.0630
   26MOL0     C 3349   3.313   7.963   9.480  0.5604  0.5607  0.4782
   26MOL0     N 3350   4.022   8.022   9.815  0.4654  0.1377 -0.2139
   26MOL0     N 3351   4.098   8.112   9.880  0.2990 -0.8591 -0.7488
   26MOL0     C 3352   4.979   8.309  10.581  0.4263 -1.3651 -0.0567
   26MOL0     C 3353   5.090   8.368  10.636 -0.6330  0.4535 -0.5411
   26MOL0     C 3354   5.538   8.353  10.753 -0.0258 -0.3299  0.9344
   26MOL0     C 3355   5.555   8.461  10.848  0.1980  0.3399  0.0372
   26MOL0     C 3356   5.677   8.495  10.899 -0.3017 -0.4578  0.8353
   26MOL0     C 3357   5.783   8.418  10.867  1.6217 -0.1260 -0.9510
   26MOL0     O 3358   5.897   8.461  10.929  0.1554 -0.5421  0.1674
   26MOL0     C 3359   5.996   8.358  10.948  0.8797  0.4463 -0.1871
   26MOL0     C 3360   6.094   8.426  11.047  0.2268 -0.2534  0.3507
   26MOL0     C 3361   6.040   8.439  11.192  0.0098 -0.3567  0.2338
   26MOL0     C 3362   5.980   8.312  11.253  0.0194 -0.3632  0.3143
   26MOL0     C 3363   5.839   8.314  11.235  0.5095 -0.0298 -0.2325
   26MOL0     C 3364   5.722   8.324  11.225  1.0479 -0.2972 -0.5731
   26MOL0     C 3365   5.779   8.320  10.769  0.5546 -0.0218  0.4998
   26MOL0     C 3366   5.654   8.282  10.713  0.4728  0.4093  1.1872
   26MOL0     H 3367   5.170   8.126  10.847 -1.6509 -3.0761 -0.4976
   26MOL0     H 3368   4.949   8.043  10.778  0.5782  0.3292  1.3405
   26MOL0     H 3369   4.872   8.130  10.401  0.7533 -1.3013  1.8314
   26MOL0     H 3370   4.731   8.247  10.426 -1.3384 -1.4239  0.3654
   26MOL0     H 3371   4.676   7.962  10.477  0.6263 -0.8270 -1.1792
   26MOL0     H 3372   4.671   8.006  10.311 -4.7492  3.5943 -1.1544
   26MOL0     H 3373   4.504   8.184  10.363 -1.0374 -1.4560 -0.9533
   26MOL0     H 3374   4.495   8.122  10.535  0.6532 -1.2473  1.1389
   26MOL0     H 3375   4.452   7.942  10.302  2.7961 -0.0779  0.5879
   26MOL0     H 3376   4.414   7.910  10.461  1.3351  0.2817 -0.5871
   26MOL0     H 3377   4.249   8.106  10.460  1.0348 -1.0749  0.7980
   26MOL0     H 3378   4.203   7.957  10.382 -0.2260 -0.5213 -4.0082
   26MOL0     H 3379   4.250   8.051  10.155  2.6003  1.2345 -1.1149
   26MOL0     H 3380   4.319   8.201  10.244 -2.2004  0.9325  1.9408
   26MOL0     H 3381   4.047   8.105  10.300  0.3350  0.4010  1.7395
   26MOL0     H 3382   4.107   8.254  10.313  0.0715 -1.3487  0.6734
   26MOL0     H 3383   4.138   8.294  10.067  1.5059 -1.1583 -0.4826
   26MOL0     H 3384   3.969   8.290  10.118  0.9768  0.9755  1.3537
   26MOL0     H 3385   3.874   8.016  10.103  3.8273 -0.4358  2.6236
   26MOL0     H 3386   3.820   7.795   9.935 -0.4426  0.5693  0.4022
   26MOL0     H 3387   3.917   7.787   9.786  2.0365  2.7213 -0.2758
   26MOL0     H 3388   3.757   7.899   9.660  2.0651 -0.7576  0.3516
   26MOL0     H 3389   3.683   7.973   9.807  0.7113 -0.9106 -1.5542
   26MOL0     H 3390   3.655   7.706   9.665 -1.8017  3.2711 -2.2110
   26MOL0     H 3391   3.649   7.699   9.845  0.4119  0.5855  0.1925
   26MOL0     H 3392   3.471   7.868   9.837 -0.8604  0.4497  0.5071
   26MOL0     H 3393   3.419   7.721   9.766 -2.1439  1.6950 -0.1000
   26MOL0     H 3394   3.250   7.862   9.793 -0.7562 -0.4253 -0.1059
   26MOL0     H 3395   3.018   7.931   9.720 -0.5388 -0.9530 -1.7884
   26MOL0     H 3396   2.738   8.276   9.459  0.3356 -1.7327 -2.7241
   26MOL0     H 3397   2.507   8.307   9.393 -0.7987 -0.9107 -0.5911
   26MOL0     H 3398   2.266   8.074   9.679 -1.6646  2.4789  1.4894
   26MOL0     H 3399   2.232   7.961   9.551  0.7172  0.3304 -2.3731
   26MOL0     H 3400   2.039   8.140   9.481 -2.0626 -0.2206  0.7684
   26MOL0     H 3401   2.074   8.205   9.648  2.1732 -0.9290  1.0980
   26MOL0     H 3402   2.044   7.975   9.736  0.2657  0.6043  0.6061
   26MOL0     H 3403   2.002   7.919   9.574 -0.2721  1.2343 -0.6947
   26MOL0     H 3404   1.846   8.123   9.740  0.2246 -0.0882 -0.0842
   26MOL0     H 3405   1.830   8.097   9.561  2.2090 -1.4760 -1.6981
   26MOL0     H 3406   1.777   7.907   9.788  1.5878 -2.0447 -1.2857
   26MOL0     H 3407   1.792   7.846   9.626 -2.0716 -1.5018  1.4957
   26MOL0     H 3408   1.580   7.948   9.554 -2.0364 -0.5687  1.3635
   26MOL0     H 3409   1.605   8.081   9.660 -0.2445 -1.0525  1.0044
   26MOL0     H 3410   1.553   7.958   9.857  0.8466  1.0715 -1.0782
   26MOL0     H 3411   1.427   7.946   9.738  0.2504  2.7282  0.5932
   26MOL0     H 3412   1.629   7.736   9.803  0.0798  0.5884 -0.9270
   26MOL0     H 3413   1.513   7.708   9.682 -0.3378  1.8875 -1.6420
   26MOL0     H 3414   2.433   7.912   9.592  2.1669 -0.8652 -0.8924
   26MOL0     H 3415   2.662   7.903   9.646  0.3589  2.7618  3.0068
   26MOL0     H 3416   3.166   8.052   9.349 -1.9063 -0.1237  0.4144
   26MOL0     H 3417   3.390   7.968   9.403 -1.1751 -4.0860 -1.9570
   26MOL0     H 3418   4.936   8.351  10.490  4.9282  0.0670 -1.8105
   26MOL0     H 3419   5.131   8.460  10.596 -1.4823  1.5748  1.0782
   26MOL0     H 3420   5.464   8.499  10.892  0.4596  0.4030  0.5341
   26MOL0     H 3421   5.688   8.586  10.957  0.3635 -0.5797  0.9142
   26MOL0     H 3422   6.049   8.341  10.854  3.2101 -2.3660  1.4600
   26MOL0     H 3423   5.951   8.268  10.991  1.7365 -0.0831 -0.3770
   26MOL0     H 3424   6.191   8.376  11.045  0.4547  0.1454  0.9835
   26MOL0     H 3425   6.107   8.529  11.011  1.7872 -0.3068  0.6939
   26MOL0     H 3426   5.965   8.519  11.188  2.1173  1.6701 -1.2375
   26MOL0     H 3427   6.125   8.477  11.249  0.8359  0.5765 -1.5392
   26MOL0     H 3428   6.024   8.219  11.216  1.0452  0.4811 -0.6616
   26MOL0     H 3429   6.006   8.307  11.358  0.1875 -0.8380  0.2490
   26MOL0     H 3430   5.616   8.338  11.219  1.0733 -0.6082 -4.0274
   26MOL0     H 3431   5.873   8.277  10.736  1.2479  1.1844  0.8310
   26MOL0     H 3432   5.641   8.199  10.644 -0.8182  0.9157  0.8003
   27MOL0     O 3433  11.241  11.008   7.770  0.0083 -0.7921 -0.4457
   27MOL0     C 3434  11.238  11.115   7.738  0.9528 -0.7787 -0.2819
   27MOL0     O 3435  11.130  11.170   7.674  0.0183 -0.4176  0.4350
   27MOL0     C 3436  11.014  11.107   7.650 -0.0861 -0.8488 -0.1742
   27MOL0     C 3437  10.993  11.050   7.529  0.6877  0.1816  0.8651
   27MOL0     C 3438  10.876  10.977   7.505 -0.1300 -0.2460  0.1409
   27MOL0     C 3439  10.782  10.962   7.603  0.2770 -0.4421  0.2564
   27MOL0     O 3440  10.658  10.906   7.572 -0.5841  0.0864 -0.7223
   27MOL0     C 3441  10.561  10.998   7.542 -0.7728 -0.0071 -0.3637
   27MOL0     C 3442  10.442  10.926   7.491  0.0049 -0.0513 -0.6814
   27MOL0     C 3443  10.334  11.016   7.426  0.0543  0.0864  0.2890
   27MOL0     C 3444  10.228  10.912   7.383  0.7798 -0.4176 -0.0819
   27MOL0     C 3445  10.105  10.981   7.334 -0.5896  0.2563  1.2284
   27MOL0     C 3446  10.041  11.090   7.421 -0.5486 -0.2495  0.5873
   27MOL0     C 3447   9.921  11.152   7.360 -1.0113 -0.3467  0.1435
   27MOL0     C 3448   9.816  11.202   7.460 -0.4465  0.2689 -1.1547
   27MOL0     N 3449   9.681  11.220   7.388  0.7041  0.5846 -0.1365
   27MOL0     C 3450   9.646  11.330   7.301  0.3342  0.9205  0.4268
   27MOL0     C 3451   9.511  11.318   7.278  0.5500  0.2420 -0.2026
   27MOL0     C 3452   9.433  11.437   7.224  0.9641  0.4638  0.5489
   27MOL0     C 3453   9.312  11.482   7.321 -0.2705  0.2131  0.1574
   27MOL0     C 3454   9.366  11.518   7.456 -0.5766 -0.2749 -0.2130
   27MOL0     C 3455   9.257  11.586   7.540  0.4924 -0.7605 -0.0764
   27MOL0     O 3456   9.207  11.700   7.467 -0.0990  0.1698 -0.0825
   27MOL0     C 3457   9.115  11.785   7.533  0.1222 -0.8310 -0.0221
   27MOL0     C 3458   9.068  11.769   7.668 -0.7101 -0.6611  0.4024
   27MOL0     C 3459   8.981  11.862   7.726  0.9151  0.3672  1.1961
   27MOL0     C 3460   8.961  11.983   7.658 -0.6783  0.6932 -0.0402
   27MOL0     C 3461   8.864  12.079   7.711 -0.2679  0.9595 -1.3615
   27MOL0     O 3462   8.811  12.056   7.834  0.5653  0.3290 -0.2047
   27MOL0     C 3463   8.678  12.079   7.855  1.4177 -0.6092  0.1302
   27MOL0     C 3464   8.578  12.089   7.749  0.8189  0.1444  0.2973
   27MOL0     C 3465   8.447  12.116   7.781 -1.3292 -0.7492 -0.4090
   27MOL0     C 3466   8.407  12.148   7.910  0.3575  0.6818  0.1452
   27MOL0     O 3467   8.273  12.182   7.919  0.0203  0.8579  0.4485
   27MOL0     C 3468   8.219  12.213   8.048 -0.6021 -0.1382 -0.5599
   27MOL0     C 3469   8.070  12.165   8.050  0.7858  0.2538 -0.2906
   27MOL0     C 3470   7.968  12.267   8.013  0.7714 -0.1218 -0.9008
   27MOL0     C 3471   7.834  12.183   7.996 -0.3021 -0.2632  0.1349
   27MOL0     C 3472   7.721  12.279   7.949 -0.3318  0.3732 -0.3216
   27MOL0     C 3473   7.602  12.194   7.879 -0.6495 -0.1368 -0.5025
   27MOL0     C 3474   7.478  12.287   7.865 -0.0365  0.6902 -0.1951
   27MOL0     C 3475   7.356  12.233   7.949 -0.1705 -0.4217 -0.2715
   27MOL0    Cl 3476   7.324  12.069   7.871  0.0625  0.0183  0.3929
   27MOL0     C 3477   8.501  12.139   8.014 -0.8608 -0.0216 -0.0541
   27MOL0     C 3478   8.636  12.106   7.986 -0.3693 -0.3096 -0.4002
   27MOL0     O 3479   8.834  12.177   7.640 -0.2547  0.0985 -0.1089
   27MOL0     C 3480   9.034  12.002   7.534  0.9704 -0.4989 -1.2676
   27MOL0     C 3481   9.104  11.908   7.467  0.7747 -0.3052  0.2281
   27MOL0     N 3482   9.459  11.208   7.350  0.3056 -0.0739 -0.1106
   27MOL0     N 3483   9.561  11.151   7.416  0.0959 -1.2034 -0.4352
   27MOL0     C 3484  10.799  11.025   7.723 -0.5017 -0.5899 -0.4990
   27MOL0     C 3485  10.919  11.090   7.756 -0.2385 -0.1042 -0.3805
   27MOL0     C 3486  11.364  11.192   7.760 -0.1071  0.3812  0.1886
   27MOL0     C 3487  11.464  11.139   7.851  0.2098  0.4377  0.3050
   27MOL0     C 3488  11.575  11.226   7.864 -0.0539  0.4859 -0.2894
   27MOL0     C 3489  11.595  11.351   7.802  0.0337 -0.7247 -0.1052
   27MOL0     O 3490  11.703  11.437   7.816  1.0326  0.3273 -0.3792
   27MOL0     C 3491  11.810  11.396   7.904 -0.3703  0.6782  0.2889
   27MOL0     C 3492  11.915  11.510   7.901 -0.1168  0.3731 -0.6709
   27MOL0     C 3493  12.049  11.461   7.955 -0.0244  0.7514  0.3679
   27MOL0     C 3494  12.089  11.538   8.087 -0.2546  0.4710  0.8758
   27MOL0     C 3495  12.004  11.506   8.197  0.2456  1.1955 -0.5129
   27MOL0     C 3496  11.932  11.466   8.285  0.1039  0.7094 -1.6648
   27MOL0     C 3497  11.491  11.393   7.724 -0.4618 -0.0433 -0.0931
   27MOL0     C 3498  11.376  11.317   7.698 -0.8694 -0.5273  1.1784
   27MOL0     H 3499  11.072  11.074   7.459 -0.9637  0.6255 -0.9411
   27MOL0     H 3500  10.874  10.928   7.408  1.2105  0.0554 -0.0552
   27MOL0     H 3501  10.602  11.052   7.456 -1.4550 -1.7891 -1.8853
   27MOL0     H 3502  10.535  11.055   7.632  1.6591  0.2388  0.2768
   27MOL0     H 3503  10.397  10.884   7.581  2.2026 -0.8553  0.0905
   27MOL0     H 3504  10.458  10.833   7.436 -0.9274 -1.1325  0.7907
   27MOL0     H 3505  10.382  11.065   7.341 -0.6910 -2.8212 -1.9685
   27MOL0     H 3506  10.301  11.089   7.501 -0.1099  3.2509 -2.6115
   27MOL0     H 3507  10.269  10.846   7.306  1.8348  1.2251 -1.0013
   27MOL0     H 3508  10.208  10.844   7.466 -1.8199  0.5571  0.1758
   27MOL0     H 3509  10.027  10.907   7.313 -0.5853  0.7344 -0.6419
   27MOL0     H 3510  10.131  11.026   7.237  2.9901 -2.3514  0.7653
   27MOL0     H 3511  10.121  11.158   7.451  0.4820 -1.3991  0.5416
   27MOL0     H 3512  10.018  11.035   7.512  0.7962 -2.9452 -0.5842
   27MOL0     H 3513   9.948  11.246   7.312  1.7089 -0.6167  1.0355
   27MOL0     H 3514   9.868  11.101   7.279 -0.6560  2.5802 -2.1034
   27MOL0     H 3515   9.845  11.298   7.504  2.3063 -0.5459 -0.9692
   27MOL0     H 3516   9.814  11.125   7.537  1.5363  1.6065  0.3254
   27MOL0     H 3517   9.711  11.413   7.276  0.5965  0.3547 -0.8724
   27MOL0     H 3518   9.397  11.403   7.126  0.2482  0.1237  0.9295
   27MOL0     H 3519   9.504  11.520   7.212  1.9624 -0.3152  0.9271
   27MOL0     H 3520   9.231  11.409   7.331 -0.9156  1.0528  1.4149
   27MOL0     H 3521   9.266  11.571   7.276  0.4870  0.7898  0.4989
   27MOL0     H 3522   9.394  11.427   7.510 -2.3647 -2.4647 -2.7719
   27MOL0     H 3523   9.452  11.585   7.453  0.6152 -1.7911 -2.2772
   27MOL0     H 3524   9.293  11.615   7.639 -2.1064  0.8126  0.5256
   27MOL0     H 3525   9.172  11.521   7.563  0.2506  0.1302  1.7411
   27MOL0     H 3526   9.090  11.673   7.715  0.4775 -0.4303  0.3410
   27MOL0     H 3527   8.943  11.852   7.827 -0.1994  2.6112  1.0736
   27MOL0     H 3528   8.607  12.077   7.645 -0.1664 -1.8679  0.2001
   27MOL0     H 3529   8.385  12.126   7.693 -2.0824 -0.7488  0.1097
   27MOL0     H 3530   8.248  12.314   8.080  0.8836 -0.6823 -0.1362
   27MOL0     H 3531   8.268  12.154   8.125 -0.2128 -2.1093 -2.2261
   27MOL0     H 3532   8.051  12.118   8.147  0.4853 -2.7865 -1.7003
   27MOL0     H 3533   8.070  12.084   7.977  0.9738  0.6885 -0.7771
   27MOL0     H 3534   7.997  12.325   7.925  0.8546 -0.4713 -1.1085
   27MOL0     H 3535   7.955  12.342   8.091 -1.1717 -1.8960  0.5962
   27MOL0     H 3536   7.836  12.099   7.926 -1.3146  1.4047 -2.0332
   27MOL0     H 3537   7.809  12.125   8.085  0.9432  0.3098  0.8929
   27MOL0     H 3538   7.759  12.342   7.867 -1.4019  2.0594  0.4175
   27MOL0     H 3539   7.693  12.353   8.024  1.3743  0.4660  0.2663
   27MOL0     H 3540   7.585  12.104   7.938 -0.5385 -0.3886 -0.8492
   27MOL0     H 3541   7.648  12.166   7.783  1.5648  1.8257 -0.1320
   27MOL0     H 3542   7.488  12.393   7.888 -0.2360  1.0806 -1.8048
   27MOL0     H 3543   7.450  12.273   7.760 -0.0499  0.3819 -0.1528
   27MOL0     H 3544   7.267  12.295   7.937  0.0765  0.0850  0.4357
   27MOL0     H 3545   7.385  12.229   8.055  2.1780 -3.6585 -0.8732
   27MOL0     H 3546   8.475  12.167   8.116 -0.8868  1.5868 -0.4686
   27MOL0     H 3547   8.701  12.112   8.073 -1.4603  0.2537  0.3990
   27MOL0     H 3548   9.034  12.098   7.483  3.0234 -0.2983 -1.0000
   27MOL0     H 3549   9.171  11.923   7.383  1.3039  4.2149  1.2055
   27MOL0     H 3550  10.711  11.018   7.787 -0.5014 -0.2565 -0.4565
   27MOL0     H 3551  10.929  11.124   7.859 -2.0116  2.0095 -0.8234
   27MOL0     H 3552  11.455  11.042   7.899 -3.8770  1.2704  1.5886
   27MOL0     H 3553  11.657  11.189   7.924  1.6847  3.6816 -0.5117
   27MOL0     H 3554  11.856  11.301   7.876 -0.8485  0.1591  1.1922
   27MOL0     H 3555  11.774  11.374   8.005 -3.8272 -2.8358 -1.4183
   27MOL0     H 3556  11.934  11.538   7.797  1.7360 -3.3843 -1.5547
   27MOL0     H 3557  11.881  11.602   7.948 -0.2786  1.1699 -2.2834
   27MOL0     H 3558  12.120  11.473   7.873 -0.1553 -1.3683 -0.1044
   27MOL0     H 3559  12.055  11.354   7.977 -0.4915  0.1730 -1.9993
   27MOL0     H 3560  12.194  11.517   8.109  0.4648  3.8007  1.1444
   27MOL0     H 3561  12.086  11.646   8.074  1.2771  0.8260  2.8537
   27MOL0     H 3562  11.867  11.434   8.364  0.0235 -1.6691 -2.6061
   27MOL0     H 3563  11.502  11.491   7.677  0.2502  0.1120  0.3902
   27MOL0     H 3564  11.301  11.354   7.629 -1.4843  0.4484  2.3230
   28MOL0     O 3565   3.735   2.036   6.979  0.0207 -0.6598 -0.3414
   28MOL0     C 3566   3.745   2.157   7.002  0.4550 -0.4218 -0.9401
   28MOL0     O 3567   3.644   2.247   7.043 -0.0439  0.4417 -0.2914
   28MOL0     C 3568   3.518   2.202   7.063 -0.5292  0.1289  0.0605
   28MOL0     C 3569   3.421   2.277   7.001  0.1338 -0.0539 -0.6398
   28MOL0     C 3570   3.284   2.260   7.026 -1.2980  0.3884 -0.8126
   28MOL0     C 3571   3.249   2.151   7.111 -0.1458 -0.2850 -0.4326
   28MOL0     O 3572   3.132   2.146   7.174  0.1474 -0.3344  0.2513
   28MOL0     C 3573   3.042   2.259   7.184  0.6999  0.8412 -0.4351
   28MOL0     C 3574   2.950   2.246   7.301 -0.4398 -0.4790  0.1263
   28MOL0     C 3575   2.828   2.331   7.275  0.0534 -0.2516 -0.1125
   28MOL0     C 3576   2.751   2.289   7.143  0.8678 -0.7622 -0.0963
   28MOL0     C 3577   2.608   2.351   7.146 -0.3785 -0.5884  0.5660
   28MOL0     C 3578   2.529   2.306   7.021  0.5823 -0.0236  0.2537
   28MOL0     C 3579   2.375   2.315   7.026 -0.0134 -0.5456  1.1006
   28MOL0     C 3580   2.311   2.254   6.893  0.7619 -0.1623 -0.4443
   28MOL0     N 3581   2.166   2.216   6.895 -0.0221  0.2295 -0.3086
   28MOL0     C 3582   2.078   2.281   6.983 -0.8991  0.3344  0.2437
   28MOL0     C 3583   1.966   2.206   6.986 -0.0946  0.2907 -0.7071
   28MOL0     C 3584   1.844   2.230   7.072  0.4633 -0.5010 -0.1912
   28MOL0     C 3585   1.722   2.243   6.990  0.3659  0.6946 -0.0241
   28MOL0     C 3586   1.607   2.242   7.089  1.4448  0.1130  0.3594
   28MOL0     C 3587   1.476   2.269   7.018 -0.1218  0.5818  0.2095
   28MOL0     O 3588   1.388   2.295   7.124  0.3969  0.6774 -0.2916
   28MOL0     C 3589   1.291   2.205   7.166  0.3703 -0.4914  0.2179
   28MOL0     C 3590   1.248   2.100   7.100  0.0676 -0.7827  0.2990
   28MOL0     C 3591   1.125   2.036   7.129  0.5555 -0.0632  0.0570
   28MOL0     C 3592   1.057   2.068   7.253  0.7274  0.8063  0.1672
   28MOL0     C 3593   0.928   2.005   7.289 -0.6692 -0.1979  0.7781
   28MOL0     O 3594   0.908   2.006   7.427  0.6991 -0.1914  0.3019
   28MOL0     C 3595   0.785   1.958   7.469 -0.3065 -0.0755 -1.6212
   28MOL0     C 3596   0.767   1.824   7.505 -0.3352 -0.5296 -0.0646
   28MOL0     C 3597   0.642   1.774   7.557 -0.6439 -0.9519  0.6042
   28MOL0     C 3598   0.532   1.866   7.582 -1.0432 -0.3526 -0.2193
   28MOL0     O 3599   0.410   1.822   7.629 -0.7519 -1.1208 -0.0393
   28MOL0     C 3600   0.368   1.707   7.566 -0.3997  0.3860  0.9994
   28MOL0     C 3601   0.250   1.643   7.645  0.5566  0.2975  0.6096
   28MOL0     C 3602   0.119   1.689   7.590 -0.0026 -0.5735 -0.4508
   28MOL0     C 3603  -0.002   1.609   7.641 -0.2333  0.0382  0.2565
   28MOL0     C 3604  -0.013   1.465   7.590  0.5361  1.1258 -0.4867
   28MOL0     C 3605  -0.145   1.403   7.650 -0.2471 -0.3502  0.6069
   28MOL0     C 3606  -0.137   1.254   7.650  0.2072 -0.4535  0.0601
   28MOL0     C 3607  -0.276   1.182   7.663  0.2380  0.3071 -0.4422
   28MOL0    Cl 3608  -0.326   1.154   7.840 -0.4694 -0.1949  0.2161
   28MOL0     C 3609   0.559   2.000   7.549 -0.3859  0.0528  0.2844
   28MOL0     C 3610   0.680   2.048   7.498 -0.8520  0.1496 -0.3437
   28MOL0     O 3611   0.863   1.947   7.203 -0.0126  0.0236  0.4403
   28MOL0     C 3612   1.117   2.161   7.337 -0.3490  0.4463  0.0795
   28MOL0     C 3613   1.227   2.231   7.285 -0.0066 -0.0463 -0.3484
   28MOL0     N 3614   1.990   2.093   6.910  0.1982 -0.6607  0.4142
   28MOL0     N 3615   2.106   2.105   6.850  0.4046 -0.0774  0.0554
   28MOL0     C 3616   3.349   2.062   7.161  0.3521 -0.1437  0.6607
   28MOL0     C 3617   3.485   2.090   7.134 -0.0750  0.6182  0.1261
   28MOL0     C 3618   3.878   2.215   7.001  0.1057 -0.5919 -0.6528
   28MOL0     C 3619   3.891   2.356   7.008 -0.0419  0.3095  0.5812
   28MOL0     C 3620   4.014   2.414   7.030  0.0560  0.0082 -0.4000
   28MOL0     C 3621   4.132   2.336   7.036 -0.5006 -1.2381  0.0160
   28MOL0     O 3622   4.244   2.407   7.066  0.1324 -0.2539 -0.2821
   28MOL0     C 3623   4.370   2.347   7.100  1.1402 -0.0254 -0.5876
   28MOL0     C 3624   4.436   2.296   6.977  0.2016 -0.5433  0.4410
   28MOL0     C 3625   4.447   2.405   6.862  0.0051 -0.2002 -0.3837
   28MOL0     C 3626   4.529   2.531   6.902  0.4994 -0.8144 -0.0472
   28MOL0     C 3627   4.664   2.493   6.955 -0.4465  0.0915  0.4579
   28MOL0     C 3628   4.784   2.477   6.978  0.8523 -0.4941  0.7472
   28MOL0     C 3629   4.121   2.199   7.021 -0.5513  0.3787  0.5012
   28MOL0     C 3630   4.003   2.133   6.992  0.2091  0.8871  0.0406
   28MOL0     H 3631   3.458   2.349   6.928 -0.6988  0.3821 -0.6344
   28MOL0     H 3632   3.213   2.329   6.980 -2.1724 -0.0414 -0.1464
   28MOL0     H 3633   2.988   2.268   7.089 -0.9459  0.1260  0.3967
   28MOL0     H 3634   3.085   2.358   7.202  0.2659  0.7352  1.3361
   28MOL0     H 3635   2.996   2.281   7.394 -0.3312  1.2668 -0.5499
   28MOL0     H 3636   2.911   2.144   7.310  0.1053 -0.9983 -2.4981
   28MOL0     H 3637   2.855   2.437   7.277 -0.7736 -0.0229 -0.4738
   28MOL0     H 3638   2.757   2.330   7.359  0.8317  2.7811  0.7096
   28MOL0     H 3639   2.805   2.307   7.049  1.6726 -2.5006 -0.0034
   28MOL0     H 3640   2.718   2.186   7.159 -1.8052  0.0417 -0.0126
   28MOL0     H 3641   2.612   2.460   7.153  0.4297 -0.6419  1.0633
   28MOL0     H 3642   2.558   2.307   7.232  1.6731 -0.3042  1.9871
   28MOL0     H 3643   2.563   2.204   7.003 -0.2420 -0.7755  2.5727
   28MOL0     H 3644   2.563   2.375   6.942 -1.4631  1.1355  0.3128
   28MOL0     H 3645   2.327   2.266   7.111  0.3732 -1.4832  0.7848
   28MOL0     H 3646   2.345   2.420   7.037 -3.2209 -1.1001 -0.9808
   28MOL0     H 3647   2.361   2.159   6.873 -0.5214 -0.7312 -1.0357
   28MOL0     H 3648   2.329   2.318   6.807 -3.1043  2.8279  0.6341
   28MOL0     H 3649   2.097   2.377   7.030 -1.8333 -0.4387  2.2944
   28MOL0     H 3650   1.858   2.320   7.133  0.4083  0.4400 -1.5376
   28MOL0     H 3651   1.824   2.149   7.142  0.7052  1.4749  2.3545
   28MOL0     H 3652   1.708   2.152   6.930 -2.3536  1.8065 -1.2558
   28MOL0     H 3653   1.723   2.331   6.925 -0.3054  0.9516  0.2991
   28MOL0     H 3654   1.589   2.144   7.134  0.1677  0.4663  0.6773
   28MOL0     H 3655   1.621   2.316   7.168 -3.0948  0.7861  0.7979
   28MOL0     H 3656   1.446   2.179   6.964 -1.2143  1.9805 -1.6538
   28MOL0     H 3657   1.482   2.350   6.944  2.2360  0.1060 -0.1947
   28MOL0     H 3658   1.292   2.057   7.011  0.0991 -1.4066  0.6078
   28MOL0     H 3659   1.091   1.962   7.058  3.5679 -1.0089 -0.5401
   28MOL0     H 3660   0.849   1.752   7.508  0.0802 -0.0314  1.0013
   28MOL0     H 3661   0.637   1.668   7.580 -2.2332 -1.5645 -2.1400
   28MOL0     H 3662   0.442   1.626   7.573  0.3324  0.9923  0.3273
   28MOL0     H 3663   0.346   1.723   7.460 -0.3753  1.7749  1.1843
   28MOL0     H 3664   0.246   1.663   7.752  1.6324  0.6025  0.6053
   28MOL0     H 3665   0.261   1.535   7.629  5.6946  0.5209  0.7652
   28MOL0     H 3666   0.110   1.705   7.482  1.1956 -0.0686 -0.4883
   28MOL0     H 3667   0.115   1.790   7.632  4.9091 -0.4373  0.2601
   28MOL0     H 3668  -0.007   1.593   7.749 -0.3527 -4.6177 -0.2503
   28MOL0     H 3669  -0.083   1.673   7.604  0.1366  0.5089  0.2567
   28MOL0     H 3670   0.079   1.414   7.620 -1.4292 -1.5162  1.4922
   28MOL0     H 3671  -0.015   1.471   7.481  2.0362  0.4111 -0.5804
   28MOL0     H 3672  -0.236   1.421   7.591  0.8402 -0.5037 -1.1970
   28MOL0     H 3673  -0.148   1.432   7.755  2.8778  2.2344  0.1380
   28MOL0     H 3674  -0.089   1.219   7.558  2.3481 -0.0913  0.9636
   28MOL0     H 3675  -0.070   1.209   7.724  1.2867  0.3667 -0.3965
   28MOL0     H 3676  -0.254   1.083   7.621 -0.6898 -0.5219  0.9558
   28MOL0     H 3677  -0.347   1.231   7.595 -2.3197 -3.4043 -0.7514
   28MOL0     H 3678   0.481   2.074   7.563  1.3508  1.7833  1.3573
   28MOL0     H 3679   0.692   2.154   7.477 -1.5055  0.1115 -0.9675
   28MOL0     H 3680   1.065   2.190   7.428 -1.8795 -1.1027 -0.2358
   28MOL0     H 3681   1.265   2.308   7.351 -0.2091 -1.7338  1.8353
   28MOL0     H 3682   3.314   1.988   7.232  0.6142 -2.2852 -1.3342
   28MOL0     H 3683   3.559   2.031   7.187 -1.3635 -1.5203 -0.3587
   28MOL0     H 3684   3.803   2.419   6.999  1.1034  2.2619  2.1942
   28MOL0     H 3685   4.031   2.520   7.047  2.1476 -0.5260  1.3644
   28MOL0     H 3686   4.348   2.263   7.166 -4.6907  0.7185 -1.0881
   28MOL0     H 3687   4.429   2.432   7.137  1.1716  0.5798 -1.9770
   28MOL0     H 3688   4.533   2.256   7.009  0.9850  0.3392 -0.6999
   28MOL0     H 3689   4.383   2.212   6.933 -0.3530  0.3788 -0.7221
   28MOL0     H 3690   4.345   2.442   6.851  0.0182 -0.2505 -0.6783
   28MOL0     H 3691   4.489   2.366   6.769 -1.7090 -0.4039 -1.1105
   28MOL0     H 3692   4.540   2.602   6.819  0.1485 -2.4258 -1.5074
   28MOL0     H 3693   4.472   2.587   6.976  0.2332 -1.3900  0.1824
   28MOL0     H 3694   4.890   2.469   6.992  0.6259 -1.8092  1.8681
   28MOL0     H 3695   4.205   2.132   7.041 -1.7529 -1.0656  0.9589
   28MOL0     H 3696   4.002   2.025   6.982 -0.5894  0.9351 -0.4485
   29MOL0     O 3697   5.908   4.940   4.622 -0.2783  0.0427 -0.5385
   29MOL0     C 3698   5.932   4.833   4.685  0.5667 -0.5115 -0.5987
   29MOL0     O 3699   5.854   4.721   4.681 -0.0055  0.0485  0.1740
   29MOL0     C 3700   5.726   4.722   4.622 -0.7711 -0.1568 -0.1916
   29MOL0     C 3701   5.698   4.611   4.540 -0.8206 -1.0428 -0.2665
   29MOL0     C 3702   5.577   4.594   4.485 -0.0618  0.0686  0.7543
   29MOL0     C 3703   5.476   4.699   4.493  0.4404 -0.1460  0.2027
   29MOL0     O 3704   5.350   4.684   4.431  0.0489 -0.3262 -0.1756
   29MOL0     C 3705   5.321   4.579   4.335  0.5312 -0.1176  0.5387
   29MOL0     C 3706   5.173   4.575   4.304  0.4922 -0.0217  0.1119
   29MOL0     C 3707   5.081   4.564   4.434 -0.5009 -0.0083  0.2593
   29MOL0     C 3708   4.935   4.579   4.407  0.2051  0.7696 -0.5411
   29MOL0     C 3709   4.845   4.534   4.523 -0.0244  0.5934  0.2206
   29MOL0     C 3710   4.853   4.610   4.657 -0.7883 -0.1850 -0.3405
   29MOL0     C 3711   4.764   4.563   4.766 -0.0115 -0.6020  0.4530
   29MOL0     C 3712   4.746   4.410   4.784 -0.4618 -0.4904 -1.5562
   29MOL0     N 3713   4.627   4.397   4.877  0.9487 -0.1576 -0.4107
   29MOL0     C 3714   4.495   4.366   4.825 -0.1888 -0.3542 -0.1846
   29MOL0     C 3715   4.413   4.376   4.933  0.1606  0.9241  0.2260
   29MOL0     C 3716   4.262   4.366   4.928  0.3401 -0.2461 -0.5604
   29MOL0     C 3717   4.184   4.491   4.883 -0.3184  0.5977  0.8734
   29MOL0     C 3718   4.190   4.617   4.971 -1.0589 -0.1222  0.0651
   29MOL0     C 3719   4.051   4.675   5.012  0.1871  0.1532 -0.2374
   29MOL0     O 3720   3.978   4.734   4.901 -0.5936  0.5087 -0.1452
   29MOL0     C 3721   3.848   4.767   4.924  0.3013 -0.3922  0.4055
   29MOL0     C 3722   3.776   4.756   5.043 -1.1296 -0.3025 -0.1511
   29MOL0     C 3723   3.632   4.777   5.031  0.8105 -0.5882  0.2536
   29MOL0     C 3724   3.568   4.824   4.913 -0.1843  0.1880 -0.5494
   29MOL0     C 3725   3.427   4.866   4.914  0.0936 -0.9272  0.2144
   29MOL0     O 3726   3.363   4.846   4.798  0.5469  0.1348  0.7963
   29MOL0     C 3727   3.225   4.862   4.776 -0.7321 -0.1463  0.0337
   29MOL0     C 3728   3.130   4.884   4.873  0.2784 -0.8006  0.4589
   29MOL0     C 3729   2.997   4.892   4.834 -0.4228  0.4833  0.5170
   29MOL0     C 3730   2.966   4.898   4.696 -0.7613  0.5399 -0.9001
   29MOL0     O 3731   2.836   4.915   4.650  0.0775 -0.2874 -0.2888
   29MOL0     C 3732   2.798   5.053   4.659  0.4932  0.4639  0.1619
   29MOL0     C 3733   2.648   5.069   4.617 -0.6201 -0.0771  0.0242
   29MOL0     C 3734   2.596   5.223   4.609 -1.2396  1.8345 -0.1758
   29MOL0     C 3735   2.444   5.243   4.556 -0.3598  1.1248  0.0511
   29MOL0     C 3736   2.344   5.169   4.648  0.8935 -0.1052 -0.6254
   29MOL0     C 3737   2.195   5.175   4.618 -0.5573 -0.9018  0.2068
   29MOL0     C 3738   2.147   5.086   4.511  0.0017  0.3214  0.2783
   29MOL0     C 3739   1.991   5.102   4.478 -0.4763  0.7428  0.6324
   29MOL0    Cl 3740   1.981   5.259   4.375  0.2954  0.2540 -0.2343
   29MOL0     C 3741   3.062   4.864   4.606 -0.1166 -0.3312  0.5458
   29MOL0     C 3742   3.188   4.847   4.648  0.5416 -0.1154  0.1490
   29MOL0     O 3743   3.379   4.916   5.019 -0.3820  0.5212  0.5072
   29MOL0     C 3744   3.650   4.835   4.791 -0.4206  0.0157 -0.1085
   29MOL0     C 3745   3.786   4.808   4.802  0.0644  0.1877  0.2302
   29MOL0     N 3746   4.492   4.414   5.041 -0.2575  1.3216  0.0922
   29MOL0     N 3747   4.619   4.426   5.009 -0.6189 -0.3432  1.1542
   29MOL0     C 3748   5.503   4.818   4.571 -0.3522 -0.4542  0.9481
   29MOL0     C 3749   5.630   4.834   4.632 -0.3362  0.4361  0.2268
   29MOL0     C 3750   6.061   4.828   4.751 -1.0565  0.3992 -0.4933
   29MOL0     C 3751   6.120   4.703   4.793  0.1011  0.6213  0.5320
   29MOL0     C 3752   6.248   4.698   4.842 -0.3136  0.4770  0.3299
   29MOL0     C 3753   6.319   4.824   4.872  0.8139 -0.3874 -1.0806
   29MOL0     O 3754   6.447   4.829   4.921  0.1541 -0.2982  0.5288
   29MOL0     C 3755   6.508   4.714   4.975 -0.0299 -0.2751 -0.4989
   29MOL0     C 3756   6.455   4.669   5.112  0.4489  0.2176 -0.3100
   29MOL0     C 3757   6.522   4.540   5.147 -0.5391  0.3462 -0.7925
   29MOL0     C 3758   6.429   4.460   5.246 -0.0558 -1.0306  0.0873
   29MOL0     C 3759   6.327   4.373   5.185  0.4336 -0.4637  0.2213
   29MOL0     C 3760   6.259   4.288   5.142  0.5883 -0.1488  0.1580
   29MOL0     C 3761   6.258   4.948   4.843  0.7135  1.0376  1.0380
   29MOL0     C 3762   6.135   4.944   4.774 -0.5881 -0.0347 -0.4936
   29MOL0     H 3763   5.778   4.547   4.505  2.3100  0.9416  2.6175
   29MOL0     H 3764   5.546   4.510   4.424 -0.8209  0.5069  0.5211
   29MOL0     H 3765   5.336   4.491   4.398 -2.3578  0.7859  2.7217
   29MOL0     H 3766   5.396   4.581   4.255  2.0862 -1.1820  1.9208
   29MOL0     H 3767   5.157   4.496   4.230  0.7407  1.7814 -1.9742
   29MOL0     H 3768   5.139   4.670   4.259  5.3778  2.4358  0.9277
   29MOL0     H 3769   5.118   4.640   4.505  2.8296  0.3695 -1.6900
   29MOL0     H 3770   5.097   4.470   4.488 -4.1085  0.0204  1.6534
   29MOL0     H 3771   4.915   4.686   4.396  0.0478  0.9375  1.0663
   29MOL0     H 3772   4.907   4.532   4.312 -3.5866  1.0323  0.2871
   29MOL0     H 3773   4.861   4.427   4.540  2.8662  1.1340  1.5059
   29MOL0     H 3774   4.738   4.554   4.507 -0.7079 -3.2311 -0.9992
   29MOL0     H 3775   4.829   4.714   4.633  1.1074  1.2123  3.0414
   29MOL0     H 3776   4.959   4.622   4.685 -0.6904  1.0322 -1.1189
   29MOL0     H 3777   4.794   4.605   4.862 -0.3961 -4.9710  2.7779
   29MOL0     H 3778   4.666   4.598   4.733  0.8542  1.0750 -0.4343
   29MOL0     H 3779   4.835   4.373   4.836  0.3865  3.0529 -0.2383
   29MOL0     H 3780   4.724   4.353   4.693 -1.3235 -2.4128 -0.2129
   29MOL0     H 3781   4.484   4.341   4.720 -1.7179 -1.5196  0.2109
   29MOL0     H 3782   4.221   4.355   5.029 -1.5578  1.2562 -1.1006
   29MOL0     H 3783   4.238   4.275   4.874 -2.0702 -1.9993  3.1057
   29MOL0     H 3784   4.080   4.468   4.858  0.1738  0.1918 -0.8772
   29MOL0     H 3785   4.232   4.516   4.788 -0.7491 -4.3664 -0.9157
   29MOL0     H 3786   4.239   4.597   5.066 -0.8879  0.4109  0.0905
   29MOL0     H 3787   4.250   4.690   4.918  0.3904  0.2929  2.1735
   29MOL0     H 3788   4.071   4.767   5.067 -1.7578 -0.3205  1.3600
   29MOL0     H 3789   3.995   4.600   5.068 -2.1869 -0.6613 -3.4396
   29MOL0     H 3790   3.815   4.719   5.137 -0.0589 -1.3880 -1.0067
   29MOL0     H 3791   3.564   4.750   5.112 -2.0118 -0.4611 -1.9296
   29MOL0     H 3792   3.157   4.892   4.977 -1.3067  0.2174  0.8372
   29MOL0     H 3793   2.911   4.889   4.901 -0.4733 -1.3163  0.4203
   29MOL0     H 3794   2.862   5.113   4.594 -1.5855  2.6377  0.0114
   29MOL0     H 3795   2.808   5.094   4.760 -1.6176  0.6853  0.3220
   29MOL0     H 3796   2.594   5.018   4.698  0.5477  1.5575  1.9044
   29MOL0     H 3797   2.632   5.021   4.519  0.7503  0.4867 -0.4923
   29MOL0     H 3798   2.669   5.281   4.551 -0.8605  0.5918 -0.9725
   29MOL0     H 3799   2.600   5.257   4.713  0.0718 -1.0709  0.8094
   29MOL0     H 3800   2.411   5.347   4.565 -0.8954  0.8818  1.1168
   29MOL0     H 3801   2.439   5.206   4.453 -3.7527 -1.4371  0.9103
   29MOL0     H 3802   2.361   5.214   4.746  0.9950 -1.7235  0.1294
   29MOL0     H 3803   2.365   5.062   4.650  0.2886 -0.2253 -0.4940
   29MOL0     H 3804   2.159   5.277   4.604  0.6104 -0.2627  1.5416
   29MOL0     H 3805   2.157   5.149   4.717 -0.7060 -0.6498  0.2162
   29MOL0     H 3806   2.206   5.097   4.419  0.3771 -1.3545  0.2816
   29MOL0     H 3807   2.166   4.982   4.538 -0.0789 -0.3465 -2.0128
   29MOL0     H 3808   1.948   5.102   4.579  0.1618 -2.0317  0.9904
   29MOL0     H 3809   1.951   5.014   4.427  2.4324  0.1541 -0.8478
   29MOL0     H 3810   3.043   4.862   4.500  0.9454 -1.5457  0.3592
   29MOL0     H 3811   3.271   4.835   4.579  2.2272  0.5859  1.9511
   29MOL0     H 3812   3.613   4.874   4.697 -2.7185 -1.7816 -0.0268
   29MOL0     H 3813   3.841   4.830   4.711  1.0221  0.2963  0.8215
   29MOL0     H 3814   5.423   4.891   4.571 -1.3362 -1.5081  1.4469
   29MOL0     H 3815   5.657   4.924   4.687 -2.7616  0.0846  2.1694
   29MOL0     H 3816   6.065   4.610   4.777 -0.7256  1.0558  0.7753
   29MOL0     H 3817   6.297   4.603   4.863  1.5036  1.2161 -0.3801
   29MOL0     H 3818   6.615   4.735   4.982  0.0313 -1.1387  2.4891
   29MOL0     H 3819   6.489   4.629   4.910 -1.4580  0.0424 -0.5395
   29MOL0     H 3820   6.477   4.740   5.193 -1.7327 -2.0812  2.5029
   29MOL0     H 3821   6.346   4.658   5.113  0.4868 -0.1456  0.6068
   29MOL0     H 3822   6.619   4.563   5.193 -1.2706 -1.5295  1.9449
   29MOL0     H 3823   6.548   4.476   5.062  4.0967  1.5729 -0.5524
   29MOL0     H 3824   6.502   4.390   5.288  0.8775  0.4567  1.0025
   29MOL0     H 3825   6.400   4.531   5.324  0.5115  0.5959 -1.1181
   29MOL0     H 3826   6.172   4.232   5.115 -1.6655  1.6891  2.9340
   29MOL0     H 3827   6.320   5.032   4.872  2.0371  0.1624  0.8720
   29MOL0     H 3828   6.101   5.044   4.751  0.8390  0.4775 -0.4726
   30MOL0     O 3829   3.106   2.955   4.927  0.0694 -0.6845 -0.4451
   30MOL0     C 3830   3.223   2.993   4.910  0.9152 -0.8464  0.6792
   30MOL0     O 3831   3.263   3.068   4.807 -0.4706  0.5261 -0.5580
   30MOL0     C 3832   3.181   3.076   4.694 -0.9326  0.4092 -0.7848
   30MOL0     C 3833   3.113   2.963   4.638 -0.1033 -0.1583 -0.0435
   30MOL0     C 3834   3.030   2.978   4.536  0.3055  0.1131 -0.5785
   30MOL0     C 3835   3.021   3.106   4.474 -0.9418 -1.0234  0.2943
   30MOL0     O 3836   2.934   3.118   4.369 -0.9574 -0.1377 -0.4695
   30MOL0     C 3837   2.866   3.241   4.344  0.5584  0.3856 -1.1911
   30MOL0     C 3838   2.703   3.204   4.350 -1.6347  0.1883 -0.5310
   30MOL0     C 3839   2.646   3.145   4.222  0.7683 -0.5068  0.7871
   30MOL0     C 3840   2.495   3.098   4.227 -0.3915  0.2329  0.3160
   30MOL0     C 3841   2.426   3.075   4.087 -0.6654  0.4469 -1.1216
   30MOL0     C 3842   2.425   3.193   4.001 -0.3950  0.8871 -0.8215
   30MOL0     C 3843   2.345   3.179   3.874 -0.6237 -0.0764 -0.0327
   30MOL0     C 3844   2.193   3.172   3.918 -0.2383 -0.1769  0.3228
   30MOL0     N 3845   2.102   3.193   3.804 -0.5804  0.2735  0.9374
   30MOL0     C 3846   1.975   3.147   3.824  0.3475 -0.8001  0.3907
   30MOL0     C 3847   1.899   3.195   3.724  0.2948  0.8470  0.1268
   30MOL0     C 3848   1.748   3.184   3.695 -0.3701  0.7564  0.2901
   30MOL0     C 3849   1.683   3.324   3.704 -0.2074 -0.4353 -0.5200
   30MOL0     C 3850   1.558   3.332   3.619  0.0654 -0.5059 -0.2304
   30MOL0     C 3851   1.502   3.476   3.595 -0.7238  0.6453  0.2027
   30MOL0     O 3852   1.371   3.465   3.544 -0.0322 -0.0565 -0.1866
   30MOL0     C 3853   1.303   3.589   3.528  0.8465 -0.0563 -0.0078
   30MOL0     C 3854   1.357   3.715   3.507  0.5994 -0.0151 -0.9606
   30MOL0     C 3855   1.280   3.832   3.469 -0.1787  0.6972 -0.5175
   30MOL0     C 3856   1.145   3.817   3.459 -1.3306  0.0165 -0.1354
   30MOL0     C 3857   1.053   3.926   3.418 -0.3406  0.1239  1.0128
   30MOL0     O 3858   0.929   3.893   3.390 -0.3906  0.0677  0.7222
   30MOL0     C 3859   0.823   3.986   3.391 -0.7054 -0.2521  0.2436
   30MOL0     C 3860   0.734   3.967   3.282 -0.2089  0.9962 -0.2155
   30MOL0     C 3861   0.616   4.045   3.285  0.0218  0.4981 -0.2321
   30MOL0     C 3862   0.575   4.125   3.391  0.5290 -0.0789 -0.0844
   30MOL0     O 3863   0.445   4.184   3.381 -0.9300  0.1099 -0.2905
   30MOL0     C 3864   0.429   4.319   3.430  0.2073  0.0728 -0.0430
   30MOL0     C 3865   0.335   4.389   3.324 -0.3713  0.3349 -0.6586
   30MOL0     C 3866   0.200   4.322   3.337 -0.2401 -0.7936  0.3973
   30MOL0     C 3867   0.109   4.400   3.234  0.3313  0.4869  0.3784
   30MOL0     C 3868  -0.017   4.309   3.203  0.1239  0.8046  0.4818
   30MOL0     C 3869  -0.110   4.374   3.096 -0.4320  0.1485 -0.4056
   30MOL0     C 3870  -0.242   4.294   3.092  0.2175 -0.0263 -0.3355
   30MOL0     C 3871  -0.337   4.332   2.980  0.1346 -0.8003  0.4656
   30MOL0    Cl 3872  -0.396   4.497   3.020 -0.1998 -0.2245 -0.3529
   30MOL0     C 3873   0.661   4.144   3.493  0.0760  0.2679  0.1703
   30MOL0     C 3874   0.784   4.076   3.502 -0.1054  1.3571  0.8148
   30MOL0     O 3875   1.090   4.046   3.426 -0.2743  0.1399  0.4749
   30MOL0     C 3876   1.087   3.692   3.482  0.9836 -0.0765 -0.4869
   30MOL0     C 3877   1.165   3.583   3.513  0.6479  0.7058 -0.5289
   30MOL0     N 3878   1.984   3.260   3.635  0.4339 -0.3043  0.7707
   30MOL0     N 3879   2.107   3.263   3.680  0.0776 -0.0351 -0.1448
   30MOL0     C 3880   3.105   3.208   4.523  0.2010 -0.2674  0.0724
   30MOL0     C 3881   3.188   3.194   4.629 -0.3968  0.1991  0.5280
   30MOL0     C 3882   3.334   2.960   5.008  1.1599 -0.4981 -0.0127
   30MOL0     C 3883   3.450   3.038   5.009  0.5506  0.2634 -0.2565
   30MOL0     C 3884   3.554   3.005   5.099  0.0648 -0.0862 -0.8943
   30MOL0     C 3885   3.541   2.907   5.196 -0.2947  0.6952  0.9435
   30MOL0     O 3886   3.641   2.894   5.284  0.5619  0.3408 -0.0410
   30MOL0     C 3887   3.635   2.806   5.391  0.1264 -0.6767  1.2252
   30MOL0     C 3888   3.754   2.807   5.476 -0.1502 -0.2296 -0.0415
   30MOL0     C 3889   3.760   2.889   5.596 -0.5255 -1.0884 -0.0839
   30MOL0     C 3890   3.903   2.880   5.656  0.7449 -0.6403 -0.2602
   30MOL0     C 3891   3.893   2.908   5.800 -0.5473  0.5110  0.9627
   30MOL0     C 3892   3.886   2.924   5.917 -0.2457 -0.1489  0.2797
   30MOL0     C 3893   3.419   2.834   5.198  0.3412 -0.6047 -0.0906
   30MOL0     C 3894   3.324   2.856   5.098 -0.4585 -0.6451 -0.0094
   30MOL0     H 3895   3.107   2.869   4.694 -0.5979  0.4254  0.9076
   30MOL0     H 3896   2.990   2.890   4.487  0.7989  0.8996 -2.5006
   30MOL0     H 3897   2.906   3.286   4.252 -0.5305 -0.4878 -2.1177
   30MOL0     H 3898   2.881   3.312   4.426  0.5729 -0.5878 -0.3364
   30MOL0     H 3899   2.637   3.286   4.380  0.0590  0.7714  2.0118
   30MOL0     H 3900   2.693   3.124   4.425  2.0159  1.1681  1.2307
   30MOL0     H 3901   2.709   3.065   4.183  0.3217 -0.2439 -0.5395
   30MOL0     H 3902   2.649   3.227   4.149  0.4637 -0.1753  1.1428
   30MOL0     H 3903   2.495   3.007   4.288  2.9440 -0.9799 -1.2242
   30MOL0     H 3904   2.435   3.170   4.283  0.1513  0.6971  0.3054
   30MOL0     H 3905   2.327   3.035   4.107 -0.1030 -1.5307 -2.0451
   30MOL0     H 3906   2.488   3.000   4.038  0.2154  1.9483 -2.4105
   30MOL0     H 3907   2.529   3.204   3.971 -0.0971  1.5610  0.4141
   30MOL0     H 3908   2.397   3.279   4.062 -1.1583 -1.7475  2.8768
   30MOL0     H 3909   2.372   3.253   3.799 -0.5827 -1.3261 -1.2831
   30MOL0     H 3910   2.370   3.086   3.822 -0.6616  1.2544 -2.5276
   30MOL0     H 3911   2.165   3.238   4.001 -0.2498  1.1010 -0.6659
   30MOL0     H 3912   2.182   3.070   3.956  0.1900  0.3606  1.9514
   30MOL0     H 3913   1.943   3.097   3.914 -0.2421 -0.8207  0.1707
   30MOL0     H 3914   1.701   3.122   3.772 -0.2340 -0.7995 -0.8233
   30MOL0     H 3915   1.733   3.129   3.601 -0.6229 -0.9520  1.2933
   30MOL0     H 3916   1.763   3.397   3.689  0.5771 -0.7968  1.5261
   30MOL0     H 3917   1.662   3.346   3.809 -0.1870 -2.0374 -0.1628
   30MOL0     H 3918   1.571   3.282   3.522  4.1861 -1.7872  0.8003
   30MOL0     H 3919   1.485   3.281   3.682  2.4794 -1.0121  2.3073
   30MOL0     H 3920   1.577   3.513   3.524  0.1434 -2.2898 -0.5209
   30MOL0     H 3921   1.508   3.529   3.691 -0.7804 -0.8276  1.0377
   30MOL0     H 3922   1.463   3.726   3.489  0.8420  0.8993  0.8272
   30MOL0     H 3923   1.322   3.930   3.453  1.5464  0.3432  1.4369
   30MOL0     H 3924   0.744   3.894   3.202 -0.4826  1.2238 -0.4596
   30MOL0     H 3925   0.550   4.030   3.201 -0.0497 -3.0331  0.2947
   30MOL0     H 3926   0.523   4.373   3.444  2.3680 -3.3309 -0.2253
   30MOL0     H 3927   0.371   4.306   3.522  0.2102  2.5615  0.3557
   30MOL0     H 3928   0.381   4.370   3.226 -0.9604  0.8379 -1.0338
   30MOL0     H 3929   0.329   4.493   3.354 -0.1170 -0.1178  1.0741
   30MOL0     H 3930   0.176   4.339   3.442  0.4124  0.2121  0.4044
   30MOL0     H 3931   0.195   4.216   3.312 -0.4251 -0.3227 -1.7934
   30MOL0     H 3932   0.082   4.496   3.279  2.0258  0.4492  1.5727
   30MOL0     H 3933   0.155   4.434   3.141  2.1482  0.5209  1.2471
   30MOL0     H 3934  -0.073   4.296   3.296 -2.2702  1.0156 -0.8621
   30MOL0     H 3935   0.020   4.212   3.167 -1.1884  0.8518 -1.1162
   30MOL0     H 3936  -0.056   4.389   3.002 -0.5482  1.3583 -0.3028
   30MOL0     H 3937  -0.128   4.480   3.119 -3.4591 -0.1255 -1.1770
   30MOL0     H 3938  -0.204   4.193   3.072 -0.1171  0.0224 -1.2404
   30MOL0     H 3939  -0.299   4.278   3.185 -1.4192 -2.9399 -1.6898
   30MOL0     H 3940  -0.425   4.266   2.974 -0.5007 -0.5028  4.2497
   30MOL0     H 3941  -0.290   4.324   2.882  0.5566 -1.9499  0.7469
   30MOL0     H 3942   0.636   4.211   3.574  1.3467  1.4394 -0.3708
   30MOL0     H 3943   0.850   4.084   3.588  0.6830 -1.1563  0.5290
   30MOL0     H 3944   0.980   3.674   3.479  0.6398  1.5483  0.5943
   30MOL0     H 3945   1.116   3.486   3.518 -0.8319  1.4842  1.5082
   30MOL0     H 3946   3.098   3.309   4.483  3.1843 -0.2322 -0.6055
   30MOL0     H 3947   3.250   3.276   4.664 -1.6259  2.4065 -2.0940
   30MOL0     H 3948   3.463   3.124   4.944  1.5898  0.9250  0.7827
   30MOL0     H 3949   3.637   3.075   5.086 -0.8531  0.7389 -2.7240
   30MOL0     H 3950   3.632   2.704   5.350  0.0296  0.3221 -1.4677
   30MOL0     H 3951   3.544   2.839   5.441 -0.4807  0.6706 -0.6601
   30MOL0     H 3952   3.763   2.703   5.508 -1.4059 -0.2330  0.3643
   30MOL0     H 3953   3.836   2.826   5.406  1.6301 -0.3584  1.9218
   30MOL0     H 3954   3.700   2.843   5.675 -2.4989  0.7461 -0.4268
   30MOL0     H 3955   3.732   2.993   5.574 -2.9241 -1.6852 -0.1380
   30MOL0     H 3956   3.942   2.778   5.649  0.5158 -0.6862 -0.9587
   30MOL0     H 3957   3.982   2.941   5.612  1.8342 -2.9865 -1.7665
   30MOL0     H 3958   3.881   2.937   6.024  2.4755 -0.5709  0.5329
   30MOL0     H 3959   3.404   2.758   5.274  0.0214  1.5679  2.1679
   30MOL0     H 3960   3.236   2.793   5.091 -1.3217  0.7133 -2.4898
   31MOL0     O 3961   5.845   6.750   9.303  0.4921 -0.2611 -0.0808
   31MOL0     C 3962   5.833   6.743   9.180  0.0424  0.1750  1.0017
   31MOL0     O 3963   5.718   6.730   9.109  0.1581  0.0970  0.7787
   31MOL0     C 3964   5.600   6.688   9.172 -0.1093 -0.6488 -0.2226
   31MOL0     C 3965   5.548   6.752   9.285 -0.0721 -0.0217  0.6471
   31MOL0     C 3966   5.426   6.705   9.345 -1.3606 -0.5316  0.1802
   31MOL0     C 3967   5.368   6.592   9.293 -0.4986  0.1762 -0.0145
   31MOL0     O 3968   5.249   6.539   9.325 -0.1531 -0.0694 -0.3567
   31MOL0     C 3969   5.163   6.625   9.392  0.5482  0.5501  0.6113
   31MOL0     C 3970   5.026   6.552   9.387 -0.2953  0.6735 -0.1780
   31MOL0     C 3971   4.912   6.617   9.461 -0.2543 -0.3017  0.0834
   31MOL0     C 3972   4.783   6.546   9.440  0.9593  0.0162  0.1113
   31MOL0     C 3973   4.769   6.409   9.512 -0.0788  0.3760  0.1373
   31MOL0     C 3974   4.650   6.320   9.483 -0.7115  0.3898  0.1990
   31MOL0     C 3975   4.654   6.187   9.546 -0.4335  0.1322  0.3617
   31MOL0     C 3976   4.659   6.192   9.699  0.1710  0.5644 -0.0548
   31MOL0     N 3977   4.563   6.107   9.776  0.3449  0.8171 -1.1174
   31MOL0     C 3978   4.572   5.977   9.786 -0.2565  1.1742  0.0604
   31MOL0     C 3979   4.458   5.932   9.847  0.4795  0.1293  0.0218
   31MOL0     C 3980   4.413   5.791   9.869  0.7298 -1.0032 -0.0322
   31MOL0     C 3981   4.294   5.771   9.965  0.2700 -0.5355  0.1557
   31MOL0     C 3982   4.160   5.811   9.903 -0.0054  0.4360 -0.7149
   31MOL0     C 3983   4.044   5.715   9.921 -0.3724  0.3334  0.1859
   31MOL0     O 3984   3.917   5.783   9.887 -0.3496  0.2620 -0.5125
   31MOL0     C 3985   3.801   5.703   9.890 -1.4085  1.0655  0.0463
   31MOL0     C 3986   3.688   5.752   9.829 -0.2776  0.3486 -0.2544
   31MOL0     C 3987   3.568   5.686   9.839  0.0858  0.3489  0.1963
   31MOL0     C 3988   3.545   5.563   9.909  0.1529 -0.9464  0.1349
   31MOL0     C 3989   3.411   5.495   9.919 -0.6751  0.4237  0.1691
   31MOL0     O 3990   3.400   5.396  10.019 -0.2093 -0.6279 -0.2641
   31MOL0     C 3991   3.313   5.300   9.985  0.3082 -0.0007 -0.2457
   31MOL0     C 3992   3.354   5.171   9.958 -0.0187 -0.3332 -0.0802
   31MOL0     C 3993   3.264   5.070   9.959  0.9316  0.3326 -0.6172
   31MOL0     C 3994   3.130   5.090   9.977  0.7587  0.9702  0.5867
   31MOL0     O 3995   3.035   4.996   9.974 -0.8342 -0.2934 -0.4585
   31MOL0     C 3996   3.066   4.867   9.930  0.0780  0.7531  0.5832
   31MOL0     C 3997   2.932   4.819   9.870  0.1189  0.2631  0.4292
   31MOL0     C 3998   2.916   4.674   9.820 -0.0296 -0.6026 -0.4018
   31MOL0     C 3999   2.785   4.669   9.737  1.0246  1.1382  0.1397
   31MOL0     C 4000   2.655   4.627   9.815  0.0659 -0.8079  0.4552
   31MOL0     C 4001   2.530   4.687   9.750 -0.4621 -0.1540  0.4338
   31MOL0     C 4002   2.401   4.630   9.819 -0.0518 -0.8194 -0.5042
   31MOL0     C 4003   2.275   4.725   9.788 -0.1131  0.0703 -0.7498
   31MOL0    Cl 4004   2.267   4.784   9.618 -0.0948  0.2613  0.2577
   31MOL0     C 4005   3.082   5.220  10.011 -0.2184 -0.0572  0.9789
   31MOL0     C 4006   3.178   5.328  10.020  1.4372 -0.1612 -0.4103
   31MOL0     O 4007   3.336   5.518   9.822 -0.2789 -0.0579  0.1817
   31MOL0     C 4008   3.661   5.505   9.960 -0.8838  0.4069 -0.4704
   31MOL0     C 4009   3.785   5.568   9.940 -0.1116  0.0900 -1.4327
   31MOL0     N 4010   4.382   6.045   9.861 -0.0862 -0.7758  0.4560
   31MOL0     N 4011   4.445   6.145   9.819 -0.8400 -0.1390 -0.3052
   31MOL0     C 4012   5.428   6.532   9.181 -0.4488  0.3399  0.0905
   31MOL0     C 4013   5.537   6.577   9.113  0.7172  0.0207  0.8280
   31MOL0     C 4014   5.966   6.739   9.108 -0.1699 -0.8242 -0.3200
   31MOL0     C 4015   5.974   6.753   8.975  0.4792 -0.0729  0.9685
   31MOL0     C 4016   6.091   6.763   8.909 -1.0367  0.8477  0.6595
   31MOL0     C 4017   6.211   6.749   8.977  0.3859  0.9386  0.3873
   31MOL0     O 4018   6.322   6.747   8.896 -0.0848  0.0161  0.2558
   31MOL0     C 4019   6.455   6.728   8.943 -0.8019  0.2743 -0.3223
   31MOL0     C 4020   6.566   6.754   8.842  0.4468 -0.5127 -0.0401
   31MOL0     C 4021   6.565   6.894   8.766  0.5718  0.5815 -0.3842
   31MOL0     C 4022   6.649   6.890   8.641  0.6952 -0.1823 -0.5327
   31MOL0     C 4023   6.787   6.833   8.663  0.1741  0.1902 -0.0186
   31MOL0     C 4024   6.889   6.787   8.698 -0.8485  0.6326 -0.3679
   31MOL0     C 4025   6.215   6.739   9.114  0.2978 -1.0179 -0.1526
   31MOL0     C 4026   6.091   6.739   9.180  0.2359  0.0284  0.0561
   31MOL0     H 4027   5.599   6.840   9.325  3.0877 -1.4585  0.1080
   31MOL0     H 4028   5.373   6.757   9.425 -1.4740 -2.6558  1.5675
   31MOL0     H 4029   5.153   6.725   9.349  1.6575 -0.0614 -1.1872
   31MOL0     H 4030   5.201   6.625   9.495  0.7557  1.9080  0.5446
   31MOL0     H 4031   5.050   6.455   9.432  2.2270 -0.2504 -3.1766
   31MOL0     H 4032   4.991   6.533   9.286 -1.4255 -0.1171  0.3417
   31MOL0     H 4033   4.901   6.720   9.427  3.7728  0.8910  1.8212
   31MOL0     H 4034   4.934   6.618   9.568  1.5828 -1.1386 -0.2571
   31MOL0     H 4035   4.698   6.606   9.474 -0.5478 -3.0370  2.2357
   31MOL0     H 4036   4.783   6.528   9.332  1.4637 -1.6563  0.3604
   31MOL0     H 4037   4.761   6.427   9.619 -0.2552 -0.8064  0.3388
   31MOL0     H 4038   4.861   6.353   9.497  0.2654  0.9941 -0.1045
   31MOL0     H 4039   4.641   6.320   9.374 -3.6139  3.4519  0.2751
   31MOL0     H 4040   4.559   6.372   9.516  0.3297  1.5338  1.3620
   31MOL0     H 4041   4.564   6.135   9.513 -0.5826  0.5621  0.0816
   31MOL0     H 4042   4.741   6.131   9.509  0.3747  1.9754 -0.7091
   31MOL0     H 4043   4.616   6.287   9.733 -2.2604 -0.7558  0.8780
   31MOL0     H 4044   4.761   6.178   9.734 -0.5747 -1.4313  1.5729
   31MOL0     H 4045   4.658   5.911   9.774  0.5169  2.4701 -1.9062
   31MOL0     H 4046   4.501   5.737   9.904  1.3527  1.7486  3.2189
   31MOL0     H 4047   4.404   5.739   9.773  0.9419  1.3128 -1.3968
   31MOL0     H 4048   4.307   5.822  10.061 -2.0662  0.6406 -0.0714
   31MOL0     H 4049   4.288   5.663   9.983 -4.6739 -0.7625 -1.3709
   31MOL0     H 4050   4.139   5.906   9.953  1.3337 -1.4250  3.8931
   31MOL0     H 4051   4.169   5.828   9.796 -0.6980  1.7558 -0.5842
   31MOL0     H 4052   4.038   5.700  10.029 -3.6263  1.6094  0.2949
   31MOL0     H 4053   4.053   5.616   9.876  0.9181 -1.3476  3.7594
   31MOL0     H 4054   3.694   5.849   9.780  1.3649 -0.3078 -1.4227
   31MOL0     H 4055   3.484   5.740   9.795  0.8212  1.0962 -0.3190
   31MOL0     H 4056   3.462   5.157   9.951  0.1186  0.4607  0.3340
   31MOL0     H 4057   3.308   4.970   9.958  1.2568  0.4696 -0.4562
   31MOL0     H 4058   3.102   4.794  10.004 -0.4756  0.0378  0.1628
   31MOL0     H 4059   3.140   4.876   9.850 -1.2821  0.8777 -0.7252
   31MOL0     H 4060   2.908   4.884   9.785  2.9089  0.2658 -0.4541
   31MOL0     H 4061   2.858   4.844   9.947 -1.5279  1.3914 -1.4282
   31MOL0     H 4062   2.917   4.601   9.902  0.5477 -1.5720 -1.2371
   31MOL0     H 4063   3.005   4.662   9.758  1.9069 -0.9709  2.2726
   31MOL0     H 4064   2.769   4.762   9.682  0.7115  0.4637 -0.9317
   31MOL0     H 4065   2.802   4.595   9.658  1.9122  2.3267 -0.8261
   31MOL0     H 4066   2.644   4.656   9.920 -2.5163 -0.1071  0.0713
   31MOL0     H 4067   2.639   4.519   9.816  2.5359 -1.2447  2.4022
   31MOL0     H 4068   2.534   4.657   9.645  3.4532 -0.5991  0.5610
   31MOL0     H 4069   2.528   4.796   9.759 -1.7679 -0.2242  1.2862
   31MOL0     H 4070   2.394   4.533   9.770  0.4792 -2.7281  2.8732
   31MOL0     H 4071   2.414   4.627   9.928  1.8130 -1.5649 -0.7009
   31MOL0     H 4072   2.304   4.809   9.852  2.4100 -1.7057  0.6252
   31MOL0     H 4073   2.179   4.679   9.813  0.4873 -1.2649 -0.8034
   31MOL0     H 4074   2.977   5.232  10.034 -0.1893  0.4718  0.8266
   31MOL0     H 4075   3.145   5.424  10.059 -1.4048 -1.2267  0.0180
   31MOL0     H 4076   3.667   5.409  10.009  1.1394  0.5661 -0.3199
   31MOL0     H 4077   3.871   5.522   9.987 -0.3454 -2.2281 -3.1176
   31MOL0     H 4078   5.390   6.438   9.142  1.1312 -2.0922  3.7580
   31MOL0     H 4079   5.562   6.523   9.023 -0.9619  0.9504 -0.2417
   31MOL0     H 4080   5.884   6.766   8.915 -0.7430 -3.7907  1.7330
   31MOL0     H 4081   6.095   6.784   8.802 -0.4843 -0.5446  0.3765
   31MOL0     H 4082   6.460   6.620   8.962 -0.0803 -1.0059 -5.9901
   31MOL0     H 4083   6.482   6.776   9.037 -1.4794 -0.3893  0.2272
   31MOL0     H 4084   6.657   6.758   8.904  0.3303  0.7807  0.0813
   31MOL0     H 4085   6.575   6.681   8.762  1.0359  2.3757 -2.8175
   31MOL0     H 4086   6.600   6.984   8.819 -0.1175  0.7433 -0.1982
   31MOL0     H 4087   6.465   6.933   8.744 -0.4036  0.7053  3.4213
   31MOL0     H 4088   6.594   6.824   8.573  1.6592 -3.0926  1.2794
   31MOL0     H 4089   6.661   6.985   8.590 -0.0250 -0.8620 -2.0255
   31MOL0     H 4090   6.984   6.744   8.722 -0.6124  1.2571 -0.1716
   31MOL0     H 4091   6.305   6.735   9.175 -1.8041  0.9471  3.4142
   31MOL0     H 4092   6.100   6.725   9.287 -2.3646  0.0063  0.3315
   32MOL0     O 4093   9.362   8.505   7.858 -0.2735  0.2914  0.1434
   32MOL0     C 4094   9.298   8.400   7.850 -0.3196 -0.7103  0.4313
   32MOL0     O 4095   9.351   8.273   7.842 -0.4409  0.5735 -0.4898
   32MOL0     C 4096   9.487   8.237   7.868  0.3890 -0.2939 -0.4798
   32MOL0     C 4097   9.596   8.325   7.901  1.2045 -0.4023  0.2079
   32MOL0     C 4098   9.725   8.279   7.899 -0.1908 -0.7704 -0.4769
   32MOL0     C 4099   9.752   8.148   7.858 -0.2018  0.0363  0.8446
   32MOL0     O 4100   9.882   8.110   7.874  0.2190  0.3657  0.0392
   32MOL0     C 4101   9.915   7.964   7.857 -0.8359  0.2338  0.1102
   32MOL0     C 4102  10.063   7.935   7.907  0.0828  0.2944  1.3219
   32MOL0     C 4103  10.162   7.979   7.797  0.1114 -0.3713 -0.6019
   32MOL0     C 4104  10.294   7.917   7.845 -0.4794 -0.6274  0.9103
   32MOL0     C 4105  10.415   7.952   7.757 -0.6462 -0.1411 -0.0249
   32MOL0     C 4106  10.530   7.859   7.769  0.3941  0.0835 -0.7524
   32MOL0     C 4107  10.498   7.749   7.662 -0.0445 -0.3558 -0.8931
   32MOL0     C 4108  10.538   7.775   7.523 -0.1190 -0.1093 -0.7204
   32MOL0     N 4109  10.682   7.790   7.509  0.5865  0.3101  0.3358
   32MOL0     C 4110  10.774   7.696   7.540 -0.6310  1.1237  0.2543
   32MOL0     C 4111  10.890   7.757   7.499 -0.0581 -2.1641 -0.9427
   32MOL0     C 4112  11.041   7.724   7.510 -0.6074  0.0398 -0.0727
   32MOL0     C 4113  11.082   7.598   7.432 -0.3380 -0.3412  0.0488
   32MOL0     C 4114  11.110   7.622   7.279 -0.7986  0.5203  0.7791
   32MOL0     C 4115  11.013   7.723   7.207 -0.0014  0.6708  0.3602
   32MOL0     O 4116  11.010   7.693   7.069 -0.4853  0.4650  0.1169
   32MOL0     C 4117  10.922   7.755   6.987  0.9712 -0.8994 -1.1110
   32MOL0     C 4118  10.824   7.684   6.922  0.1631  0.0953 -0.1417
   32MOL0     C 4119  10.734   7.750   6.831 -0.5018  0.2416 -0.2001
   32MOL0     C 4120  10.742   7.893   6.822  0.1033 -0.3992  0.3603
   32MOL0     C 4121  10.656   7.958   6.719  0.1595  1.3857 -0.2005
   32MOL0     O 4122  10.654   8.083   6.706 -0.1494 -0.0038 -0.1094
   32MOL0     C 4123  10.593   8.132   6.595 -0.3109  0.5021  0.6739
   32MOL0     C 4124  10.663   8.121   6.472 -0.0254  1.2409 -0.4184
   32MOL0     C 4125  10.619   8.181   6.355 -0.0977  0.0998  0.1092
   32MOL0     C 4126  10.507   8.256   6.351  0.6125 -0.1223  0.3537
   32MOL0     O 4127  10.454   8.321   6.235 -0.2234 -0.2699  0.5119
   32MOL0     C 4128  10.322   8.378   6.213  0.0053 -0.4233 -0.2751
   32MOL0     C 4129  10.234   8.260   6.168 -0.4404  0.5636 -0.3319
   32MOL0     C 4130  10.090   8.325   6.158  0.6604  0.2558  0.0311
   32MOL0     C 4131   9.983   8.224   6.147  1.2594  0.3337 -0.8253
   32MOL0     C 4132   9.838   8.289   6.137  0.1159 -0.9415 -0.6928
   32MOL0     C 4133   9.720   8.198   6.171  0.2312  0.2720  0.2294
   32MOL0     C 4134   9.583   8.266   6.136 -0.0715 -0.0142  0.1255
   32MOL0     C 4135   9.493   8.303   6.258  0.5606  0.2446  0.0604
   32MOL0    Cl 4136   9.586   8.428   6.359 -0.2480 -0.1194 -0.3889
   32MOL0     C 4137  10.431   8.261   6.465  0.5036  0.0311 -0.0953
   32MOL0     C 4138  10.470   8.201   6.592 -0.1814 -0.0654  1.0640
   32MOL0     O 4139  10.577   7.878   6.661  0.5508 -0.8441 -0.0333
   32MOL0     C 4140  10.847   7.964   6.887 -0.3456 -0.0244 -0.3439
   32MOL0     C 4141  10.928   7.897   6.972 -0.2944 -0.1185  0.0466
   32MOL0     N 4142  10.860   7.880   7.439  0.3373 -0.5601 -0.3875
   32MOL0     N 4143  10.736   7.899   7.443 -0.1286  0.0757 -0.2622
   32MOL0     C 4144   9.648   8.058   7.828 -0.1138 -0.5370 -0.7639
   32MOL0     C 4145   9.513   8.106   7.834  0.8087 -0.0836  1.0862
   32MOL0     C 4146   9.153   8.412   7.863 -0.2900 -0.1728  0.2207
   32MOL0     C 4147   9.078   8.286   7.877  0.0155 -0.1898  0.6245
   32MOL0     C 4148   8.947   8.287   7.911  0.7766  0.2316  0.5114
   32MOL0     C 4149   8.875   8.413   7.928  0.8806  0.3958  0.1049
   32MOL0     O 4150   8.747   8.389   7.972  0.7162  0.4030  0.0760
   32MOL0     C 4151   8.654   8.503   7.973  0.5406  0.2981  0.1236
   32MOL0     C 4152   8.515   8.460   8.008  0.5984  0.4180 -0.6803
   32MOL0     C 4153   8.405   8.569   7.989  1.0492 -0.7211  0.1620
   32MOL0     C 4154   8.301   8.585   8.099 -0.0757 -0.8552 -0.5212
   32MOL0     C 4155   8.219   8.460   8.098 -0.2016 -0.6907 -0.2522
   32MOL0     C 4156   8.156   8.356   8.096 -0.0037  0.2103  0.6640
   32MOL0     C 4157   8.946   8.531   7.905 -0.0589 -0.2851 -0.3854
   32MOL0     C 4158   9.086   8.535   7.890  0.2027  0.3736  0.2502
   32MOL0     H 4159   9.579   8.428   7.929  0.5452 -0.5028  0.2082
   32MOL0     H 4160   9.807   8.349   7.917  0.1475 -1.1286 -0.6239
   32MOL0     H 4161   9.918   7.931   7.753  1.7183  2.4855 -0.6827
   32MOL0     H 4162   9.843   7.906   7.915 -1.2107 -0.8994 -1.4321
   32MOL0     H 4163  10.061   7.826   7.904 -0.9772  0.3211 -0.7571
   32MOL0     H 4164  10.070   7.985   8.004  2.3264  2.8365 -0.0150
   32MOL0     H 4165  10.164   8.089   7.800 -2.7113 -0.2686  1.6335
   32MOL0     H 4166  10.132   7.953   7.696  1.5361  1.4563 -1.5558
   32MOL0     H 4167  10.326   7.959   7.940 -0.7469 -1.0489  1.1915
   32MOL0     H 4168  10.286   7.808   7.852 -1.3780 -1.0683 -3.6542
   32MOL0     H 4169  10.448   8.047   7.799  1.7729 -0.7450 -0.3704
   32MOL0     H 4170  10.390   7.972   7.652  0.0764 -2.4514 -0.6954
   32MOL0     H 4171  10.542   7.817   7.870 -4.7088  0.8003  0.4814
   32MOL0     H 4172  10.618   7.915   7.736 -0.0645  2.0952  1.1183
   32MOL0     H 4173  10.544   7.655   7.694 -1.7535 -1.6094 -1.9326
   32MOL0     H 4174  10.392   7.722   7.664  0.0521 -0.7162 -0.3576
   32MOL0     H 4175  10.484   7.859   7.477  0.8067  0.5314 -0.6552
   32MOL0     H 4176  10.521   7.674   7.484  2.6522 -0.9068 -0.0290
   32MOL0     H 4177  10.764   7.607   7.601 -1.2685 -0.3497 -1.8927
   32MOL0     H 4178  11.070   7.702   7.613  1.0670 -2.3570 -0.9789
   32MOL0     H 4179  11.106   7.805   7.474 -0.1954 -0.2957 -0.0961
   32MOL0     H 4180  11.004   7.522   7.447 -0.3623 -0.0826  1.3626
   32MOL0     H 4181  11.174   7.553   7.471  2.5637  4.3884 -0.5603
   32MOL0     H 4182  11.217   7.646   7.276  0.3173 -3.8175 -0.1103
   32MOL0     H 4183  11.102   7.527   7.227  0.3630  1.6394 -1.6241
   32MOL0     H 4184  11.039   7.827   7.227 -3.2261  1.5946  0.1550
   32MOL0     H 4185  10.912   7.707   7.243  0.4528 -0.8513  1.0363
   32MOL0     H 4186  10.811   7.578   6.936 -1.5276 -0.2606 -3.3303
   32MOL0     H 4187  10.663   7.682   6.784  1.5234 -0.2979 -2.6815
   32MOL0     H 4188  10.758   8.069   6.474 -0.0738  1.1093 -1.3780
   32MOL0     H 4189  10.677   8.182   6.264  0.3970  0.1892  0.4226
   32MOL0     H 4190  10.322   8.453   6.134  0.5523 -0.3708 -0.2249
   32MOL0     H 4191  10.298   8.429   6.307  0.4011  0.8998 -0.8716
   32MOL0     H 4192  10.232   8.182   6.244 -1.3275  2.0588  1.2500
   32MOL0     H 4193  10.273   8.212   6.078  4.5943 -1.0006  2.2869
   32MOL0     H 4194  10.083   8.383   6.065  0.5004 -1.1988 -0.9036
   32MOL0     H 4195  10.071   8.395   6.239 -0.0139  2.8566 -2.2419
   32MOL0     H 4196  10.003   8.152   6.066 -0.8477 -0.4024 -0.7509
   32MOL0     H 4197   9.994   8.164   6.238 -1.6634  0.3453 -0.3718
   32MOL0     H 4198   9.821   8.323   6.035  1.0718 -1.1489 -0.9284
   32MOL0     H 4199   9.847   8.368   6.212  0.9354 -0.6317 -1.1064
   32MOL0     H 4200   9.726   8.177   6.278 -0.1816 -1.1815 -0.0160
   32MOL0     H 4201   9.717   8.102   6.118 -1.9626  1.1587 -1.3821
   32MOL0     H 4202   9.603   8.361   6.085 -0.8208  0.0162 -0.1188
   32MOL0     H 4203   9.539   8.197   6.063  3.3417  0.2520 -2.4840
   32MOL0     H 4204   9.482   8.208   6.311  4.3751 -2.0270 -2.6367
   32MOL0     H 4205   9.393   8.342   6.239  1.0155  1.6911  0.4925
   32MOL0     H 4206  10.338   8.316   6.483  0.1271 -1.7020  4.6613
   32MOL0     H 4207  10.415   8.205   6.686  2.0033 -0.2966  2.4468
   32MOL0     H 4208  10.870   8.068   6.866 -0.3126  0.0746  0.1729
   32MOL0     H 4209  11.015   7.942   7.017  0.8352  1.1114 -3.1115
   32MOL0     H 4210   9.655   7.959   7.784  0.0577  0.6717 -3.7369
   32MOL0     H 4211   9.431   8.058   7.783 -0.8438  2.9266  0.6292
   32MOL0     H 4212   9.133   8.193   7.865 -1.4496 -0.7651 -2.9294
   32MOL0     H 4213   8.894   8.194   7.930 -3.1214  2.3632  0.9632
   32MOL0     H 4214   8.648   8.539   7.871 -1.4578 -1.6030 -0.5272
   32MOL0     H 4215   8.688   8.584   8.038 -0.7359  0.1836  0.9822
   32MOL0     H 4216   8.478   8.366   7.966  2.3934 -0.9893  0.7488
   32MOL0     H 4217   8.527   8.435   8.114 -0.3634  1.4598 -0.3014
   32MOL0     H 4218   8.349   8.549   7.897  0.1584 -1.1999  0.7944
   32MOL0     H 4219   8.449   8.669   7.978  0.7150 -0.5359  0.4879
   32MOL0     H 4220   8.353   8.598   8.194 -3.5040  0.2364  1.3873
   32MOL0     H 4221   8.233   8.669   8.082 -0.4894 -1.5420 -2.5017
   32MOL0     H 4222   8.112   8.259   8.085  0.7117 -0.1018  0.4508
   32MOL0     H 4223   8.907   8.631   7.921 -2.7058 -1.2210 -0.3533
   32MOL0     H 4224   9.127   8.634   7.872  0.0790  0.0435 -2.1672
   33MOL0     O 4225   2.888   1.885   2.767 -0.6664  0.3394  0.0918
   33MOL0     C 4226   2.921   1.932   2.879  0.0077 -0.4821 -0.8319
   33MOL0     O 4227   2.849   2.027   2.948 -0.7191  0.0974 -0.0939
   33MOL0     C 4228   2.718   2.038   2.942  0.5622  0.7327 -0.2651
   33MOL0     C 4229   2.655   2.154   2.985  0.2444  0.8573 -0.9984
   33MOL0     C 4230   2.518   2.161   3.000  0.2890  0.2605  0.6294
   33MOL0     C 4231   2.431   2.060   2.969  0.0864  0.9050  0.1920
   33MOL0     O 4232   2.295   2.076   2.977 -0.3368 -0.2358  0.9597
   33MOL0     C 4233   2.236   2.180   2.887  0.4444  0.2079 -0.0163
   33MOL0     C 4234   2.085   2.145   2.879  0.6816 -0.0677 -0.0726
   33MOL0     C 4235   2.000   2.216   2.778  0.5284  0.6886  0.5431
   33MOL0     C 4236   1.859   2.162   2.742  0.8578  0.2702 -0.4371
   33MOL0     C 4237   1.754   2.263   2.714  0.6995 -0.3119 -0.0620
   33MOL0     C 4238   1.782   2.344   2.583 -0.3090  0.0999  0.1053
   33MOL0     C 4239   1.685   2.463   2.556  0.7823 -0.2764  1.0458
   33MOL0     C 4240   1.676   2.487   2.404  0.4823  0.2621  0.0529
   33MOL0     N 4241   1.622   2.620   2.362 -0.1800 -0.6324 -0.5274
   33MOL0     C 4242   1.659   2.742   2.424 -0.0886 -0.5857  0.0270
   33MOL0     C 4243   1.594   2.843   2.349 -0.3981  0.3652  0.1363
   33MOL0     C 4244   1.598   2.995   2.387 -0.3993 -0.6764  0.3983
   33MOL0     C 4245   1.458   3.068   2.372 -0.2032  0.0750 -0.8089
   33MOL0     C 4246   1.362   3.040   2.485  0.7345  0.7009  0.9093
   33MOL0     C 4247   1.291   2.899   2.478 -0.6691  0.0193 -0.2605
   33MOL0     O 4248   1.181   2.887   2.560 -0.1218 -0.0521 -0.6351
   33MOL0     C 4249   1.050   2.886   2.517  0.6764  0.8434  0.0562
   33MOL0     C 4250   0.959   2.873   2.617 -0.1861 -0.2545 -0.0927
   33MOL0     C 4251   0.822   2.856   2.590 -0.9184 -0.5820  0.4978
   33MOL0     C 4252   0.780   2.849   2.456  0.3300 -0.4553 -0.2136
   33MOL0     C 4253   0.644   2.818   2.415  0.6366 -0.3153  0.5662
   33MOL0     O 4254   0.614   2.811   2.288  0.0980  0.4441  0.8979
   33MOL0     C 4255   0.493   2.766   2.249 -0.5405  0.2105  0.3615
   33MOL0     C 4256   0.491   2.633   2.201  0.4031 -0.0701 -0.8918
   33MOL0     C 4257   0.371   2.572   2.156  0.4852  0.0542  0.4410
   33MOL0     C 4258   0.254   2.642   2.155  0.0975  0.2244 -0.2844
   33MOL0     O 4259   0.148   2.567   2.120  0.7403  0.5490  0.9893
   33MOL0     C 4260   0.035   2.622   2.051  0.4661 -0.3685 -0.9455
   33MOL0     C 4261  -0.069   2.513   2.050  0.0758 -0.6550  0.4972
   33MOL0     C 4262  -0.190   2.547   1.966 -0.3326 -0.5874  0.1102
   33MOL0     C 4263  -0.295   2.451   1.989  0.3102  0.1558 -0.5364
   33MOL0     C 4264  -0.391   2.462   1.877 -0.4343 -0.6604 -0.0062
   33MOL0     C 4265  -0.447   2.596   1.840  0.6380  0.6900  0.6444
   33MOL0     C 4266  -0.577   2.588   1.751  0.1067 -0.5695 -0.0249
   33MOL0     C 4267  -0.687   2.695   1.770  0.6066  0.1546 -0.4981
   33MOL0    Cl 4268  -0.645   2.862   1.728 -0.3696  0.2342 -0.3559
   33MOL0     C 4269   0.248   2.783   2.197  0.3340 -0.1168 -0.1003
   33MOL0     C 4270   0.369   2.836   2.244  0.0887  0.0940 -0.3005
   33MOL0     O 4271   0.562   2.796   2.504  0.6111  0.5439 -0.4606
   33MOL0     C 4272   0.869   2.886   2.357 -0.1028  0.5457  1.1277
   33MOL0     C 4273   1.003   2.896   2.380 -1.0822  0.8452 -0.5505
   33MOL0     N 4274   1.545   2.777   2.231 -0.6803 -0.0459 -1.2002
   33MOL0     N 4275   1.549   2.643   2.254 -0.4025  0.1084  0.9353
   33MOL0     C 4276   2.492   1.952   2.901  0.2227  0.0261  0.0451
   33MOL0     C 4277   2.626   1.940   2.889  0.1614 -0.1308 -0.3538
   33MOL0     C 4278   3.043   1.865   2.941  0.0494 -0.6233 -0.1565
   33MOL0     C 4279   3.128   1.783   2.864 -0.6741  0.2558  0.4688
   33MOL0     C 4280   3.244   1.717   2.905 -0.5883  1.0764 -0.5822
   33MOL0     C 4281   3.283   1.731   3.039  0.5760  0.1557 -0.3575
   33MOL0     O 4282   3.398   1.669   3.076 -0.9296  0.7883 -0.6700
   33MOL0     C 4283   3.486   1.750   3.165  0.0514 -0.1275  0.3688
   33MOL0     C 4284   3.584   1.852   3.098 -0.1072 -0.2278 -0.2313
   33MOL0     C 4285   3.692   1.810   2.998  0.2829  0.1280 -0.5516
   33MOL0     C 4286   3.630   1.738   2.888  0.7647 -0.3232  0.3251
   33MOL0     C 4287   3.726   1.693   2.792  0.8725 -0.0988  0.8443
   33MOL0     C 4288   3.794   1.674   2.689 -0.5318 -0.4528 -0.6381
   33MOL0     C 4289   3.201   1.812   3.123  0.1310 -0.1415  0.4772
   33MOL0     C 4290   3.088   1.881   3.070 -0.5446 -0.3855 -0.7758
   33MOL0     H 4291   2.698   2.246   3.025  3.3743 -1.3035  1.1514
   33MOL0     H 4292   2.465   2.249   3.034  1.7648  1.9085 -1.0783
   33MOL0     H 4293   2.277   2.159   2.787  2.1966 -2.4186  1.1570
   33MOL0     H 4294   2.259   2.276   2.934 -0.0945  0.8398 -0.9943
   33MOL0     H 4295   2.043   2.160   2.978 -1.3026  1.1047 -1.0267
   33MOL0     H 4296   2.085   2.037   2.859 -1.5678 -0.1048 -0.1646
   33MOL0     H 4297   2.066   2.206   2.691  1.4590 -0.0583  1.3138
   33MOL0     H 4298   1.999   2.324   2.797 -0.4062  1.7098 -3.9882
   33MOL0     H 4299   1.859   2.100   2.652 -2.5752  1.1247 -1.1621
   33MOL0     H 4300   1.827   2.099   2.826  1.4747 -0.3636 -0.6641
   33MOL0     H 4301   1.748   2.327   2.803  0.3896 -2.1311  1.3045
   33MOL0     H 4302   1.656   2.214   2.705  1.2221 -1.7893  1.6411
   33MOL0     H 4303   1.768   2.271   2.503 -2.2503 -2.5562  2.6812
   33MOL0     H 4304   1.885   2.382   2.591 -0.1011 -0.0712 -1.4651
   33MOL0     H 4305   1.586   2.432   2.591 -0.0356  1.5014  0.4109
   33MOL0     H 4306   1.726   2.548   2.613  0.8844 -0.7868  1.7543
   33MOL0     H 4307   1.613   2.411   2.358  3.1828 -2.3160  0.3658
   33MOL0     H 4308   1.773   2.478   2.356 -0.1072 -0.6384 -1.0070
   33MOL0     H 4309   1.709   2.753   2.520 -6.3136  4.5336  3.4930
   33MOL0     H 4310   1.675   3.032   2.319  0.0729 -1.9425  0.2163
   33MOL0     H 4311   1.635   2.994   2.490  0.6281 -3.7098  0.0823
   33MOL0     H 4312   1.411   3.033   2.280  0.0654  0.5844 -1.1393
   33MOL0     H 4313   1.472   3.176   2.376  2.7002 -0.2577 -0.2331
   33MOL0     H 4314   1.407   3.055   2.584  1.3642  0.3225  0.6873
   33MOL0     H 4315   1.287   3.119   2.475  2.1142  1.9315  0.0078
   33MOL0     H 4316   1.363   2.825   2.515  0.3064  1.0047 -0.1320
   33MOL0     H 4317   1.270   2.870   2.375  0.7603  0.4876 -0.7117
   33MOL0     H 4318   0.995   2.878   2.720 -1.7820  0.2471  0.4637
   33MOL0     H 4319   0.750   2.868   2.671  0.1156  3.3026  1.0662
   33MOL0     H 4320   0.578   2.568   2.206 -0.0075 -1.0710 -4.3880
   33MOL0     H 4321   0.363   2.467   2.132 -3.6906  0.6009 -1.3420
   33MOL0     H 4322   0.069   2.654   1.952  0.9384  1.4185 -0.2462
   33MOL0     H 4323  -0.013   2.708   2.097  1.7467  0.7881 -1.6970
   33MOL0     H 4324  -0.101   2.490   2.152 -0.9667  0.4912  0.4370
   33MOL0     H 4325  -0.020   2.422   2.012  3.5803  1.2854 -0.0985
   33MOL0     H 4326  -0.160   2.542   1.861  1.1009 -1.6063  0.5360
   33MOL0     H 4327  -0.219   2.651   1.981  2.4100  0.2014  0.3760
   33MOL0     H 4328  -0.259   2.349   1.978 -3.6887 -1.3088 -2.1403
   33MOL0     H 4329  -0.342   2.457   2.088  3.9908 -0.0194  1.3845
   33MOL0     H 4330  -0.481   2.403   1.897 -0.7778 -0.1784 -0.1040
   33MOL0     H 4331  -0.336   2.420   1.792  1.5401 -0.8363  1.2795
   33MOL0     H 4332  -0.368   2.648   1.785  2.0067 -5.3205 -4.0609
   33MOL0     H 4333  -0.469   2.650   1.933  0.2909  0.6783  0.5714
   33MOL0     H 4334  -0.548   2.583   1.645  1.1997 -0.9741  0.2893
   33MOL0     H 4335  -0.629   2.499   1.787 -1.4759  0.6520  0.8414
   33MOL0     H 4336  -0.730   2.683   1.870  4.9099 -2.2251  1.3730
   33MOL0     H 4337  -0.768   2.664   1.704 -1.1298 -0.3916  1.7687
   33MOL0     H 4338   0.158   2.842   2.193  1.1444  1.0968 -1.3194
   33MOL0     H 4339   0.378   2.941   2.272  0.3616  0.4014 -1.4877
   33MOL0     H 4340   0.837   2.881   2.253 -0.0335  0.5576  1.1058
   33MOL0     H 4341   1.078   2.909   2.303  0.0772 -1.3438  0.1379
   33MOL0     H 4342   2.420   1.879   2.866  0.7484 -0.8845  0.8282
   33MOL0     H 4343   2.655   1.842   2.852 -2.8846 -0.4082 -2.3054
   33MOL0     H 4344   3.103   1.764   2.760 -0.6063 -2.6346  0.9041
   33MOL0     H 4345   3.298   1.649   2.839 -0.4311 -1.7284  2.1563
   33MOL0     H 4346   3.543   1.676   3.222 -2.1660 -2.1299  0.1764
   33MOL0     H 4347   3.425   1.794   3.244  0.4751  0.7402  0.2221
   33MOL0     H 4348   3.522   1.925   3.046 -1.7566 -2.4872 -1.6300
   33MOL0     H 4349   3.642   1.892   3.182  0.1303 -0.8413 -0.0930
   33MOL0     H 4350   3.758   1.737   3.045  0.2978 -1.5109 -2.9591
   33MOL0     H 4351   3.748   1.897   2.962 -1.2149  0.6382 -1.7945
   33MOL0     H 4352   3.582   1.650   2.933  0.0928  0.0377  0.3282
   33MOL0     H 4353   3.547   1.793   2.843  1.3000 -0.5577 -0.9795
   33MOL0     H 4354   3.845   1.671   2.595  0.8668  0.1702  0.0576
   33MOL0     H 4355   3.222   1.841   3.225  0.6568  0.1392  0.2937
   33MOL0     H 4356   3.031   1.947   3.135  0.4760 -1.4069  1.2541
   34MOL0     O 4357  10.880   2.171   9.166  0.0350 -0.1491  0.3637
   34MOL0     C 4358  10.939   2.084   9.235 -0.7185  0.0650 -0.0656
   34MOL0     O 4359  10.889   1.957   9.267  0.0202  0.5821 -0.3337
   34MOL0     C 4360  10.757   1.932   9.240 -0.2550  0.4223  0.3192
   34MOL0     C 4361  10.694   1.978   9.123 -0.2026 -0.2592 -0.1844
   34MOL0     C 4362  10.556   1.960   9.121  0.5782  0.2037 -0.6401
   34MOL0     C 4363  10.478   1.896   9.218 -0.3200 -0.2823 -0.9206
   34MOL0     O 4364  10.342   1.907   9.200  0.1626 -0.3457 -0.0108
   34MOL0     C 4365  10.259   1.827   9.285  0.7498 -0.5659  0.0336
   34MOL0     C 4366  10.122   1.808   9.215  0.1076 -0.5932  0.0655
   34MOL0     C 4367  10.034   1.931   9.233  0.3121 -0.2577 -0.3168
   34MOL0     C 4368   9.931   1.941   9.120 -0.3109 -0.7576 -0.5109
   34MOL0     C 4369   9.853   2.071   9.155  0.2189  0.0200  0.2335
   34MOL0     C 4370   9.769   2.103   9.026 -0.5087 -0.3580 -0.0448
   34MOL0     C 4371   9.631   2.027   9.026 -1.1033 -0.2520  0.3538
   34MOL0     C 4372   9.537   2.077   8.912  0.0834 -0.2366  0.2386
   34MOL0     N 4373   9.440   2.182   8.952 -0.3537 -0.7112 -0.4227
   34MOL0     C 4374   9.303   2.187   8.916 -1.3156 -0.1329  0.3458
   34MOL0     C 4375   9.271   2.307   8.967 -0.8933  0.6096  0.3371
   34MOL0     C 4376   9.142   2.377   8.958  0.7404  0.7665  0.4990
   34MOL0     C 4377   9.024   2.289   8.929 -0.3586  0.7398  0.8783
   34MOL0     C 4378   8.885   2.354   8.967  0.0962  0.1847  0.7453
   34MOL0     C 4379   8.842   2.455   8.866  0.1250  0.1660  0.7939
   34MOL0     O 4380   8.740   2.539   8.918 -0.2073  0.1690 -0.3626
   34MOL0     C 4381   8.761   2.635   9.011 -0.5179 -0.0053 -0.6668
   34MOL0     C 4382   8.643   2.692   9.060  0.6834  0.4536 -0.0503
   34MOL0     C 4383   8.648   2.789   9.165  0.0788  0.8249 -1.2518
   34MOL0     C 4384   8.769   2.829   9.224  0.1842 -0.4348  0.0845
   34MOL0     C 4385   8.774   2.922   9.340  0.0053 -0.5388  0.8271
   34MOL0     O 4386   8.659   2.962   9.394 -0.0536 -0.2639 -0.3797
   34MOL0     C 4387   8.659   3.011   9.524 -0.3160 -0.0370  0.6758
   34MOL0     C 4388   8.691   2.939   9.642 -0.9082 -0.1795  0.1271
   34MOL0     C 4389   8.667   3.001   9.768  0.4253 -0.4024 -0.5704
   34MOL0     C 4390   8.633   3.136   9.786  0.0953  0.2902  0.9050
   34MOL0     O 4391   8.630   3.201   9.907  0.5828  0.3649  0.0508
   34MOL0     C 4392   8.679   3.334   9.915 -0.4555 -0.2821  0.7947
   34MOL0     C 4393   8.556   3.419   9.929 -0.0022 -0.1010  0.5969
   34MOL0     C 4394   8.585   3.565   9.977  0.1809 -0.4730  0.2747
   34MOL0     C 4395   8.469   3.661   9.946  0.3203 -0.3606 -0.2559
   34MOL0     C 4396   8.330   3.609  10.001 -0.8989  0.1305 -0.9467
   34MOL0     C 4397   8.210   3.699   9.977  0.7664  0.0934  0.6110
   34MOL0     C 4398   8.194   3.721   9.823 -0.4702  0.1019 -0.7376
   34MOL0     C 4399   8.055   3.773   9.806  0.5783  0.8329  0.0992
   34MOL0    Cl 4400   8.016   3.807   9.631  0.1378  0.0649  0.0486
   34MOL0     C 4401   8.605   3.207   9.670  0.5429 -0.1834  0.9799
   34MOL0     C 4402   8.613   3.143   9.543  0.2624 -0.6256 -0.5185
   34MOL0     O 4403   8.884   2.956   9.377  0.3775  0.4509 -0.1549
   34MOL0     C 4404   8.879   2.777   9.168 -0.7951 -0.1049 -0.0502
   34MOL0     C 4405   8.879   2.675   9.073  0.3746 -0.4251  0.2011
   34MOL0     N 4406   9.375   2.370   9.019 -0.5246  0.4898 -0.5491
   34MOL0     N 4407   9.483   2.294   9.018  0.1430 -0.3298  0.0151
   34MOL0     C 4408  10.550   1.833   9.324 -1.0090  0.3435  0.0578
   34MOL0     C 4409  10.691   1.850   9.326  0.0829  0.0059  0.0504
   34MOL0     C 4410  11.075   2.123   9.281  0.0624  0.2391  0.4703
   34MOL0     C 4411  11.154   2.040   9.366  0.5659 -0.9614  0.5085
   34MOL0     C 4412  11.280   2.073   9.410  0.1083 -0.1000 -0.6643
   34MOL0     C 4413  11.338   2.199   9.367 -0.5108  0.3788  0.1834
   34MOL0     O 4414  11.464   2.243   9.406  0.1445 -0.1821  0.5744
   34MOL0     C 4415  11.515   2.191   9.530  0.4877 -0.6168  0.5167
   34MOL0     C 4416  11.593   2.317   9.577  0.0809 -0.4444 -0.2331
   34MOL0     C 4417  11.682   2.387   9.483 -0.8599 -0.2370 -0.1910
   34MOL0     C 4418  11.616   2.509   9.425  0.3331 -0.0876  0.2000
   34MOL0     C 4419  11.666   2.636   9.479  0.9915 -0.5933  0.6841
   34MOL0     C 4420  11.705   2.744   9.513  0.1803 -0.8217 -0.2192
   34MOL0     C 4421  11.266   2.276   9.278  0.3669 -1.0715 -1.1027
   34MOL0     C 4422  11.136   2.239   9.238  0.0227  0.0094  1.1332
   34MOL0     H 4423  10.753   2.037   9.053  1.4513 -2.8326 -1.0870
   34MOL0     H 4424  10.500   1.996   9.035  0.1792  2.5916  0.5383
   34MOL0     H 4425  10.249   1.881   9.379 -4.0412 -1.1057  0.1062
   34MOL0     H 4426  10.292   1.723   9.300 -0.6949 -1.3050 -1.5365
   34MOL0     H 4427  10.070   1.722   9.258  2.0318 -1.9782 -0.2524
   34MOL0     H 4428  10.134   1.786   9.108  0.1969  1.6844 -0.4417
   34MOL0     H 4429  10.098   2.019   9.223  0.6665 -0.4012  0.6051
   34MOL0     H 4430   9.976   1.929   9.326 -0.4889 -2.9431 -0.7926
   34MOL0     H 4431   9.986   1.949   9.026  2.0354 -0.9951  0.7452
   34MOL0     H 4432   9.872   1.849   9.114  1.7205 -2.1361 -0.3101
   34MOL0     H 4433   9.924   2.153   9.170 -0.5017  0.2389  2.9711
   34MOL0     H 4434   9.796   2.064   9.248  0.1295 -0.2163  0.1617
   34MOL0     H 4435   9.820   2.086   8.931  1.8357  3.5037  0.3295
   34MOL0     H 4436   9.745   2.210   9.026 -1.0901 -0.4786  0.5643
   34MOL0     H 4437   9.652   1.919   9.029  0.4545  0.0358  0.9196
   34MOL0     H 4438   9.590   2.045   9.126 -0.7529  0.2737  0.4043
   34MOL0     H 4439   9.473   2.001   8.866 -0.9026  0.9818 -0.4520
   34MOL0     H 4440   9.597   2.129   8.837 -1.2795 -1.2373 -1.6258
   34MOL0     H 4441   9.244   2.124   8.850  0.3900 -1.2826 -0.1585
   34MOL0     H 4442   9.143   2.459   8.886 -1.6173 -1.7776 -2.7482
   34MOL0     H 4443   9.131   2.410   9.062 -0.2086  0.8924  0.3727
   34MOL0     H 4444   9.039   2.193   8.979 -0.1141  0.3529  0.0717
   34MOL0     H 4445   9.029   2.279   8.820 -0.6615 -1.5220  1.0273
   34MOL0     H 4446   8.805   2.280   8.970 -3.0281  3.3494  1.8664
   34MOL0     H 4447   8.897   2.391   9.070 -0.8982 -0.1626  0.9921
   34MOL0     H 4448   8.810   2.406   8.774  0.2486 -0.5349  1.1148
   34MOL0     H 4449   8.932   2.512   8.843  0.7798 -0.1046  2.4902
   34MOL0     H 4450   8.552   2.667   9.005 -0.7737  1.4105  1.8226
   34MOL0     H 4451   8.547   2.819   9.192 -1.1638 -4.1444  1.0166
   34MOL0     H 4452   8.729   2.838   9.638  0.2426  0.1598  1.5068
   34MOL0     H 4453   8.680   2.947   9.860 -1.9261  0.6905  0.4981
   34MOL0     H 4454   8.727   3.380   9.828 -0.7081 -0.0915  0.7544
   34MOL0     H 4455   8.747   3.342  10.000 -1.7579  2.0573  1.7060
   34MOL0     H 4456   8.494   3.375  10.007 -1.1457 -2.1459 -1.3475
   34MOL0     H 4457   8.502   3.422   9.834  0.8136 -1.8040  0.0479
   34MOL0     H 4458   8.676   3.601   9.927 -0.6377 -1.7496 -2.3052
   34MOL0     H 4459   8.601   3.560  10.085 -0.4733 -2.2861  0.3232
   34MOL0     H 4460   8.483   3.751  10.007 -1.5243  0.1568 -0.5209
   34MOL0     H 4461   8.459   3.695   9.842  0.7604  1.3699  0.2226
   34MOL0     H 4462   8.340   3.572  10.103  0.3124 -1.1965 -1.4992
   34MOL0     H 4463   8.308   3.513   9.952  2.1150 -0.0033 -2.2828
   34MOL0     H 4464   8.210   3.800  10.018 -4.0908  1.1139 -1.1611
   34MOL0     H 4465   8.116   3.659  10.017  2.1136 -2.3214  1.5472
   34MOL0     H 4466   8.260   3.798   9.784 -0.3390  1.1246  1.3974
   34MOL0     H 4467   8.215   3.628   9.768  1.7092  1.1205 -1.7238
   34MOL0     H 4468   8.021   3.860   9.863  0.3939 -0.9428  2.9411
   34MOL0     H 4469   7.986   3.693   9.834 -1.6263  1.2027 -3.6927
   34MOL0     H 4470   8.581   3.313   9.675 -1.2655 -0.6244  3.1044
   34MOL0     H 4471   8.595   3.210   9.459 -1.1060 -0.6890 -0.2947
   34MOL0     H 4472   8.976   2.809   9.203 -0.3513 -1.4906  0.0541
   34MOL0     H 4473   8.970   2.624   9.042  0.9184  0.6944 -0.0981
   34MOL0     H 4474  10.500   1.775   9.401  0.3095 -2.0105 -0.7575
   34MOL0     H 4475  10.741   1.814   9.415  0.9432  1.6645  0.2711
   34MOL0     H 4476  11.108   1.952   9.410  0.3945 -1.1014  0.0545
   34MOL0     H 4477  11.340   2.007   9.472 -0.5146  0.5096  0.6420
   34MOL0     H 4478  11.590   2.114   9.509  1.4266 -0.1226  1.8948
   34MOL0     H 4479  11.447   2.161   9.610  0.4311  0.9359  1.0923
   34MOL0     H 4480  11.518   2.377   9.630  0.2809 -3.1602  3.5831
   34MOL0     H 4481  11.663   2.285   9.655  0.4919 -1.8284 -1.1392
   34MOL0     H 4482  11.713   2.325   9.399 -1.7729  1.1789 -1.6263
   34MOL0     H 4483  11.773   2.422   9.533 -1.6558  1.3634  0.2279
   34MOL0     H 4484  11.634   2.523   9.318 -0.0193  0.3325  0.1929
   34MOL0     H 4485  11.508   2.493   9.438  0.6571 -1.0710  2.0543
   34MOL0     H 4486  11.746   2.838   9.545  0.2604 -0.5811 -1.0129
   34MOL0     H 4487  11.300   2.368   9.232 -2.0370  0.5750  0.1812
   34MOL0     H 4488  11.082   2.310   9.177 -1.5362  0.6503  3.1513
   35MOL0     O 4489  10.918   4.295   7.942  0.5834 -0.0461  1.2665
   35MOL0     C 4490  10.892   4.338   7.831 -0.2449 -0.3434 -0.2051
   35MOL0     O 4491  10.781   4.415   7.799  0.1914 -0.7084 -0.2466
   35MOL0     C 4492  10.701   4.478   7.890  0.9970 -0.4483  0.0287
   35MOL0     C 4493  10.724   4.517   8.022  0.3202  0.3429  0.6598
   35MOL0     C 4494  10.636   4.583   8.102 -0.4348 -0.0978 -0.1828
   35MOL0     C 4495  10.502   4.607   8.055  0.2378 -0.4700  0.3049
   35MOL0     O 4496  10.393   4.646   8.123  0.3677  0.7202  0.2585
   35MOL0     C 4497  10.420   4.716   8.247  0.3492  0.1612  0.2163
   35MOL0     C 4498  10.281   4.718   8.326  0.2980  0.6646 -1.0630
   35MOL0     C 4499  10.191   4.826   8.279 -0.0426 -0.4550 -0.0285
   35MOL0     C 4500  10.053   4.813   8.353  0.6202  0.0449 -0.3263
   35MOL0     C 4501   9.948   4.880   8.270  0.3091 -0.4765 -0.5716
   35MOL0     C 4502   9.816   4.873   8.359  0.5367 -0.0040 -0.1827
   35MOL0     C 4503   9.724   4.994   8.342  0.5195  0.8860 -0.7268
   35MOL0     C 4504   9.657   5.003   8.209 -0.3846 -0.1590 -0.6135
   35MOL0     N 4505   9.553   5.099   8.192  0.4015 -1.0541 -0.9421
   35MOL0     C 4506   9.445   5.104   8.275 -0.4073 -1.3191 -0.3581
   35MOL0     C 4507   9.350   5.172   8.205 -0.7986  0.7702 -0.1194
   35MOL0     C 4508   9.208   5.200   8.245 -1.0064  0.2391 -0.1977
   35MOL0     C 4509   9.120   5.266   8.125  0.0767 -0.3843 -0.6913
   35MOL0     C 4510   9.005   5.334   8.184 -0.5188 -1.0144  0.1450
   35MOL0     C 4511   8.934   5.406   8.073 -0.2322 -0.0128 -0.5186
   35MOL0     O 4512   8.881   5.535   8.125 -0.0873  0.6134  0.4630
   35MOL0     C 4513   8.748   5.541   8.158 -0.5170 -0.3219 -0.0130
   35MOL0     C 4514   8.705   5.562   8.292 -0.3622  0.5150 -0.0669
   35MOL0     C 4515   8.568   5.562   8.327 -0.5613  0.3803 -0.7046
   35MOL0     C 4516   8.470   5.542   8.228 -0.8560  0.2053  0.2247
   35MOL0     C 4517   8.326   5.540   8.257  0.2195 -0.2852 -0.7277
   35MOL0     O 4518   8.232   5.539   8.155  0.0057  0.3686  0.6629
   35MOL0     C 4519   8.108   5.490   8.184  0.1961  0.5356  0.8593
   35MOL0     C 4520   7.996   5.563   8.156  0.2766  0.5576 -0.2216
   35MOL0     C 4521   7.870   5.524   8.213  0.1399  0.6050  0.5366
   35MOL0     C 4522   7.856   5.407   8.286  0.1997  0.3316 -0.0967
   35MOL0     O 4523   7.733   5.376   8.347  0.0927 -0.4330 -0.4019
   35MOL0     C 4524   7.611   5.370   8.269 -0.3154  0.8898 -0.5977
   35MOL0     C 4525   7.500   5.327   8.367  0.2440  0.0325  0.3420
   35MOL0     C 4526   7.370   5.304   8.285  0.1746  0.1643 -0.0710
   35MOL0     C 4527   7.261   5.248   8.376 -0.1177  0.0499 -0.0167
   35MOL0     C 4528   7.132   5.191   8.297  0.6599 -0.0741  0.6837
   35MOL0     C 4529   7.029   5.124   8.383  1.5265 -0.0752 -0.0676
   35MOL0     C 4530   6.898   5.101   8.312  0.4124  0.2733  0.4034
   35MOL0     C 4531   6.778   5.059   8.405 -0.1857 -0.1941  0.1225
   35MOL0    Cl 4532   6.805   4.899   8.472  0.2422 -0.0876 -0.0971
   35MOL0     C 4533   7.969   5.330   8.303 -0.0964 -1.0244  0.8788
   35MOL0     C 4534   8.093   5.372   8.261 -0.7019 -0.1036  0.7383
   35MOL0     O 4535   8.302   5.546   8.379 -0.8162 -0.1572 -0.4211
   35MOL0     C 4536   8.513   5.515   8.099  0.1777 -0.6034 -0.1788
   35MOL0     C 4537   8.649   5.523   8.061 -0.2887  0.7781 -0.0386
   35MOL0     N 4538   9.407   5.210   8.086 -0.4362  0.2157  0.8174
   35MOL0     N 4539   9.532   5.165   8.077  0.1495  0.3248  0.1359
   35MOL0     C 4540  10.472   4.567   7.923 -0.0850  0.2266 -1.2046
   35MOL0     C 4541  10.572   4.507   7.840  0.7476  0.3894 -0.3307
   35MOL0     C 4542  10.985   4.298   7.723  0.3255  0.3475 -0.2073
   35MOL0     C 4543  11.085   4.205   7.750  0.1154 -0.5724 -0.2973
   35MOL0     C 4544  11.163   4.155   7.644  0.4702 -0.2292  0.3609
   35MOL0     C 4545  11.147   4.204   7.519 -0.5939 -0.5455  0.2530
   35MOL0     O 4546  11.234   4.149   7.422  1.0378 -0.0834  0.4174
   35MOL0     C 4547  11.212   4.180   7.279  0.1596 -0.4255  0.1624
   35MOL0     C 4548  11.121   4.074   7.217  0.5937 -1.0244  0.0386
   35MOL0     C 4549  11.080   4.105   7.069 -0.5206 -0.0050  0.1790
   35MOL0     C 4550  11.199   4.082   6.968  0.7229 -0.1842 -0.5311
   35MOL0     C 4551  11.247   3.949   6.972 -0.3837 -0.4775 -1.9623
   35MOL0     C 4552  11.290   3.836   6.972 -0.1780  0.7972  0.3166
   35MOL0     C 4553  11.045   4.304   7.486 -0.2820 -0.0524 -0.5538
   35MOL0     C 4554  10.966   4.341   7.592 -0.7985  0.3859 -1.1696
   35MOL0     H 4555  10.813   4.482   8.073 -0.3120 -3.4670 -0.5163
   35MOL0     H 4556  10.666   4.604   8.204  0.2576  1.5090 -0.6859
   35MOL0     H 4557  10.460   4.817   8.235  1.3659 -0.0783  1.3713
   35MOL0     H 4558  10.496   4.659   8.302  2.5574  0.6203 -2.1580
   35MOL0     H 4559  10.300   4.731   8.433 -2.0545 -1.7968 -0.2180
   35MOL0     H 4560  10.236   4.618   8.329  0.7048  0.2089 -5.0398
   35MOL0     H 4561  10.168   4.829   8.172 -2.5624  3.2175  0.4156
   35MOL0     H 4562  10.237   4.921   8.308 -0.6208  0.5226 -2.0943
   35MOL0     H 4563  10.028   4.708   8.364  2.6762 -0.5167 -0.6828
   35MOL0     H 4564  10.066   4.850   8.455 -0.8035 -2.4355  0.8302
   35MOL0     H 4565   9.944   4.839   8.169 -1.0883 -3.5277  0.6104
   35MOL0     H 4566   9.978   4.985   8.262  0.3983 -0.4842 -0.3435
   35MOL0     H 4567   9.828   4.849   8.465  0.8279 -1.7858 -0.5883
   35MOL0     H 4568   9.768   4.781   8.324  2.4644 -1.1994  0.1457
   35MOL0     H 4569   9.647   4.972   8.417 -0.6630  0.8348 -1.9134
   35MOL0     H 4570   9.780   5.087   8.356 -0.1038  1.2342 -0.4623
   35MOL0     H 4571   9.605   4.908   8.190 -3.9477  0.8987  2.5511
   35MOL0     H 4572   9.738   5.016   8.137 -0.3125  0.7896 -0.3706
   35MOL0     H 4573   9.435   5.068   8.377  0.7611  1.2743  0.7560
   35MOL0     H 4574   9.210   5.275   8.324  0.3184 -1.5999  1.6327
   35MOL0     H 4575   9.161   5.109   8.285  1.8414 -2.7052 -2.9176
   35MOL0     H 4576   9.078   5.184   8.066  0.7888 -1.5829  0.4007
   35MOL0     H 4577   9.176   5.337   8.063 -1.2548  0.1835 -1.3012
   35MOL0     H 4578   8.940   5.265   8.239  1.1472 -1.3224  1.8350
   35MOL0     H 4579   9.038   5.415   8.250  2.0750  0.0639 -2.2574
   35MOL0     H 4580   8.855   5.332   8.058 -1.0692  0.4499  1.2899
   35MOL0     H 4581   8.990   5.419   7.980 -2.4761 -1.4338 -2.1831
   35MOL0     H 4582   8.785   5.580   8.363 -0.0411  0.0911 -0.3161
   35MOL0     H 4583   8.542   5.564   8.433  2.7274 -2.9189  0.3626
   35MOL0     H 4584   8.019   5.639   8.082 -1.9936 -0.1789 -1.8190
   35MOL0     H 4585   7.782   5.583   8.189  1.1753  2.1192  0.2898
   35MOL0     H 4586   7.641   5.298   8.191 -1.8373  0.8756 -1.2115
   35MOL0     H 4587   7.584   5.469   8.231 -2.7900  0.5758  0.1385
   35MOL0     H 4588   7.474   5.407   8.437 -1.0294  0.2544 -0.3554
   35MOL0     H 4589   7.541   5.236   8.413  0.1608 -0.6478 -0.8872
   35MOL0     H 4590   7.385   5.228   8.207  1.0372 -3.1970  3.0919
   35MOL0     H 4591   7.339   5.401   8.245 -0.5954  0.3801  0.9822
   35MOL0     H 4592   7.304   5.176   8.446 -0.0591  0.4927  0.4104
   35MOL0     H 4593   7.222   5.322   8.446  0.3176  2.1607 -1.8987
   35MOL0     H 4594   7.171   5.113   8.231 -0.0838  0.6797 -0.7007
   35MOL0     H 4595   7.086   5.267   8.233 -0.8437  0.6761  2.5514
   35MOL0     H 4596   7.011   5.195   8.464 -1.7908 -2.3686  1.4478
   35MOL0     H 4597   7.069   5.028   8.416 -0.2671 -0.1889  1.9627
   35MOL0     H 4598   6.859   5.189   8.260 -1.2891  0.2301  1.5315
   35MOL0     H 4599   6.913   5.025   8.235 -0.5151  1.3435 -0.8687
   35MOL0     H 4600   6.690   5.045   8.342 -0.7023  1.2187  0.4817
   35MOL0     H 4601   6.751   5.139   8.475  4.5022 -0.3416  2.4972
   35MOL0     H 4602   7.972   5.229   8.343  2.0868 -1.1286  0.5990
   35MOL0     H 4603   8.176   5.316   8.304  1.2491  1.4161 -0.8152
   35MOL0     H 4604   8.440   5.485   8.024  0.2194 -1.7572  0.2251
   35MOL0     H 4605   8.680   5.503   7.959  1.5250  0.2474  0.5797
   35MOL0     H 4606  10.371   4.596   7.896 -0.5526 -0.8378 -0.6916
   35MOL0     H 4607  10.530   4.486   7.742 -1.9529  1.7736  0.4226
   35MOL0     H 4608  11.108   4.183   7.853 -3.1576  3.0189  1.4495
   35MOL0     H 4609  11.238   4.079   7.664 -0.0091 -0.4844  1.3000
   35MOL0     H 4610  11.310   4.179   7.230 -0.7283  0.0206 -1.7233
   35MOL0     H 4611  11.168   4.277   7.254  2.6637  1.1436  1.4123
   35MOL0     H 4612  11.169   3.977   7.233  2.6420 -0.5971 -2.7196
   35MOL0     H 4613  11.026   4.060   7.268  0.1496 -2.2850 -1.0847
   35MOL0     H 4614  11.041   4.207   7.066  0.0770  0.2551  0.9844
   35MOL0     H 4615  11.001   4.033   7.046  0.9540 -1.5366 -0.2705
   35MOL0     H 4616  11.167   4.105   6.866 -0.7682 -3.0905 -0.8010
   35MOL0     H 4617  11.288   4.140   6.996  0.9326 -1.7382  2.4641
   35MOL0     H 4618  11.334   3.738   6.975 -0.9982  0.4008 -0.0718
   35MOL0     H 4619  11.030   4.344   7.387 -1.0800 -0.3239 -0.5544
   35MOL0     H 4620  10.888   4.415   7.579 -1.5953 -0.1629  0.3160
   36MOL0     O 4621   5.414   2.036   0.123 -0.2316 -0.4101 -0.0486
   36MOL0     C 4622   5.435   1.978   0.227  0.1880  0.3165  0.4745
   36MOL0     O 4623   5.368   1.876   0.271  0.5484 -0.1584 -0.1673
   36MOL0     C 4624   5.268   1.821   0.202 -0.4553  0.0079  0.1922
   36MOL0     C 4625   5.136   1.886   0.214  0.2992  0.0850  0.6374
   36MOL0     C 4626   5.026   1.841   0.135 -0.7096 -0.2409  0.1566
   36MOL0     C 4627   5.051   1.728   0.041  0.0993 -0.9019 -1.0467
   36MOL0     O 4628   4.944   1.694  -0.039 -0.8936 -0.8143 -0.1538
   36MOL0     C 4629   4.863   1.584   0.004  0.4337  0.7176  0.0658
   36MOL0     C 4630   4.719   1.643   0.038 -0.4283 -0.2201  0.9268
   36MOL0     C 4631   4.617   1.554   0.098  0.4151 -0.1878  0.7780
   36MOL0     C 4632   4.652   1.513   0.243 -1.2541  0.0115 -0.2193
   36MOL0     C 4633   4.537   1.450   0.322 -0.1418 -0.1104 -0.2313
   36MOL0     C 4634   4.409   1.529   0.345  0.2881  0.3556  0.8274
   36MOL0     C 4635   4.313   1.451   0.444  0.2344 -0.3652 -0.8834
   36MOL0     C 4636   4.167   1.500   0.451 -0.8415 -0.0919 -0.0140
   36MOL0     N 4637   4.080   1.400   0.524  0.3262 -0.1579  0.0792
   36MOL0     C 4638   4.007   1.432   0.628  0.1375 -0.2053 -0.5047
   36MOL0     C 4639   3.896   1.350   0.621 -0.1635  0.0743  0.5178
   36MOL0     C 4640   3.778   1.361   0.707  0.3263  0.3074  0.3788
   36MOL0     C 4641   3.704   1.233   0.732 -0.9487  0.5075  0.0223
   36MOL0     C 4642   3.601   1.242   0.848 -0.2087 -0.5109  0.2087
   36MOL0     C 4643   3.526   1.113   0.861 -0.4929  0.1742 -0.6218
   36MOL0     O 4644   3.465   1.101   0.993 -0.0018 -0.0349  0.0178
   36MOL0     C 4645   3.339   1.156   0.999  0.0357 -0.0594  0.0161
   36MOL0     C 4646   3.276   1.147   1.124  0.3309  0.8310  1.1245
   36MOL0     C 4647   3.153   1.194   1.137  0.1282 -0.2645  0.0762
   36MOL0     C 4648   3.082   1.251   1.031 -0.1503  0.6305 -0.1310
   36MOL0     C 4649   2.936   1.285   1.060 -0.1237 -0.4900  0.2485
   36MOL0     O 4650   2.853   1.333   0.959 -0.0323 -0.7544 -1.5465
   36MOL0     C 4651   2.720   1.350   0.978  0.4669  0.2165  0.6464
   36MOL0     C 4652   2.659   1.460   1.035 -0.3180 -0.2484 -0.9946
   36MOL0     C 4653   2.519   1.468   1.042 -0.2973 -0.2168  0.1020
   36MOL0     C 4654   2.441   1.358   1.012 -0.3869  0.5827  0.2747
   36MOL0     O 4655   2.303   1.352   0.999 -0.3452 -0.0869 -0.7525
   36MOL0     C 4656   2.242   1.342   1.127 -1.0060  0.0014  0.9380
   36MOL0     C 4657   2.081   1.335   1.131 -0.2667  0.8024 -0.1634
   36MOL0     C 4658   2.026   1.218   1.037 -0.7804 -0.3607  0.4651
   36MOL0     C 4659   1.879   1.225   1.047  0.1701  0.4058  1.0614
   36MOL0     C 4660   1.808   1.137   0.943 -0.5865  0.0715  0.1099
   36MOL0     C 4661   1.651   1.123   0.965 -0.7335 -0.9368 -0.2904
   36MOL0     C 4662   1.604   1.000   0.885  0.7655 -0.9027  0.0351
   36MOL0     C 4663   1.460   0.965   0.921 -0.0537  0.9642  0.7575
   36MOL0    Cl 4664   1.350   1.099   0.901  0.2096  0.3888  0.0938
   36MOL0     C 4665   2.511   1.249   0.950  0.3634 -1.0460  0.0762
   36MOL0     C 4666   2.645   1.247   0.936 -0.1906 -0.4443 -0.3962
   36MOL0     O 4667   2.895   1.267   1.173  0.2279 -0.2094  0.0491
   36MOL0     C 4668   3.144   1.275   0.909  0.0491  0.0041  0.3466
   36MOL0     C 4669   3.269   1.227   0.898  0.1571  0.1153  0.5369
   36MOL0     N 4670   3.919   1.251   0.521 -0.3306 -0.0788 -0.6978
   36MOL0     N 4671   4.033   1.285   0.467  1.0354 -0.1791  0.5504
   36MOL0     C 4672   5.183   1.676   0.030  0.6490  0.3546 -0.1829
   36MOL0     C 4673   5.285   1.720   0.113 -0.2712 -0.1211 -0.5348
   36MOL0     C 4674   5.557   2.015   0.299 -0.8825  0.6791  0.2174
   36MOL0     C 4675   5.645   2.113   0.251 -0.0747  0.0499  0.5145
   36MOL0     C 4676   5.756   2.138   0.337  0.3518  0.3617 -0.0863
   36MOL0     C 4677   5.783   2.056   0.452  0.8524 -0.9342  0.9998
   36MOL0     O 4678   5.896   2.073   0.536 -0.0861 -0.4420 -0.0072
   36MOL0     C 4679   5.992   2.179   0.506 -0.2967  1.2241  0.2288
   36MOL0     C 4680   6.116   2.167   0.589  1.3379 -1.1392  0.7070
   36MOL0     C 4681   6.242   2.248   0.535  0.2202 -0.1177  0.8400
   36MOL0     C 4682   6.364   2.227   0.617  0.6897  0.9003 -0.7755
   36MOL0     C 4683   6.483   2.303   0.562 -0.0078  0.0792 -1.0531
   36MOL0     C 4684   6.580   2.358   0.516 -0.3491  1.4311 -0.4927
   36MOL0     C 4685   5.704   1.952   0.486  0.4114 -0.3082 -0.1895
   36MOL0     C 4686   5.596   1.930   0.411  0.0627 -1.0213  0.7658
   36MOL0     H 4687   5.127   1.981   0.267  0.3030  0.9196 -0.8069
   36MOL0     H 4688   4.931   1.890   0.153 -0.2250  0.3488  1.1628
   36MOL0     H 4689   4.897   1.542   0.100 -2.3554  1.1355  1.3142
   36MOL0     H 4690   4.870   1.508  -0.074  2.4226  0.8989  0.0156
   36MOL0     H 4691   4.683   1.677  -0.060  1.8368  2.0165  0.7769
   36MOL0     H 4692   4.714   1.739   0.090 -0.9288 -0.4684  1.3388
   36MOL0     H 4693   4.598   1.466   0.037  0.1642  0.4663 -0.0985
   36MOL0     H 4694   4.525   1.612   0.108 -0.0066 -1.1372  3.0676
   36MOL0     H 4695   4.737   1.445   0.246 -0.7516  0.0943 -4.6944
   36MOL0     H 4696   4.698   1.598   0.294  3.2914 -2.9748  1.2524
   36MOL0     H 4697   4.571   1.426   0.423 -1.9551  1.1229  0.7316
   36MOL0     H 4698   4.507   1.352   0.284  0.5479 -1.0141  1.4328
   36MOL0     H 4699   4.349   1.558   0.258 -1.0750  1.3247  2.0422
   36MOL0     H 4700   4.433   1.623   0.396 -2.0720 -0.7580  4.3495
   36MOL0     H 4701   4.303   1.342   0.433 -1.8916 -0.8628  3.5259
   36MOL0     H 4702   4.346   1.464   0.548  2.1609  0.5439 -1.5687
   36MOL0     H 4703   4.137   1.522   0.348 -2.6564 -0.5306  0.3870
   36MOL0     H 4704   4.175   1.585   0.519  0.2924  0.8258 -1.2220
   36MOL0     H 4705   4.029   1.512   0.698  1.1012 -2.1218  1.4825
   36MOL0     H 4706   3.709   1.428   0.655  1.4720  1.4655  0.2961
   36MOL0     H 4707   3.803   1.411   0.801 -1.6992 -0.7208  1.5311
   36MOL0     H 4708   3.768   1.147   0.750  0.9140  2.2211  2.0068
   36MOL0     H 4709   3.640   1.214   0.645 -1.6185  0.3784  0.5321
   36MOL0     H 4710   3.641   1.264   0.947 -3.8102 -0.4974  1.8236
   36MOL0     H 4711   3.529   1.318   0.817 -0.6093 -1.0693 -0.2561
   36MOL0     H 4712   3.603   1.035   0.856 -1.6496 -1.6689  4.1427
   36MOL0     H 4713   3.450   1.095   0.785 -0.0151  1.6924 -1.4899
   36MOL0     H 4714   3.320   1.090   1.205  2.9521  1.0537 -0.0313
   36MOL0     H 4715   3.099   1.185   1.231  1.3435  0.2660  0.8596
   36MOL0     H 4716   2.716   1.542   1.079  2.7530 -1.9815 -1.4696
   36MOL0     H 4717   2.473   1.553   1.091  0.0687 -1.0807  2.0537
   36MOL0     H 4718   2.266   1.415   1.205  1.1285 -0.8255  1.1224
   36MOL0     H 4719   2.268   1.242   1.162 -1.1520 -0.8698 -1.3038
   36MOL0     H 4720   2.051   1.432   1.090 -0.3589  0.6294 -0.5120
   36MOL0     H 4721   2.058   1.324   1.237  1.7259  1.7253  0.4057
   36MOL0     H 4722   2.058   1.116   1.061  3.8236  0.7471  0.0219
   36MOL0     H 4723   2.068   1.249   0.940  2.3498  2.9960  2.6160
   36MOL0     H 4724   1.845   1.217   1.151  1.6608 -2.6514  1.4326
   36MOL0     H 4725   1.847   1.327   1.026 -0.6151  0.7721  3.6095
   36MOL0     H 4726   1.846   1.035   0.956 -3.1295 -1.1907 -1.5696
   36MOL0     H 4727   1.830   1.172   0.842 -0.0143 -0.7347 -0.0534
   36MOL0     H 4728   1.591   1.205   0.925 -0.3382 -0.3561  0.2899
   36MOL0     H 4729   1.627   1.096   1.068  3.5781 -0.7152  0.9554
   36MOL0     H 4730   1.613   1.022   0.779  0.0858  1.4230  0.3770
   36MOL0     H 4731   1.661   0.912   0.914  0.1474 -1.5565 -0.6862
   36MOL0     H 4732   1.463   0.927   1.023  1.5558  1.4261  0.9072
   36MOL0     H 4733   1.426   0.878   0.865  2.8694 -0.6404  1.2364
   36MOL0     H 4734   2.445   1.166   0.929  0.4362 -1.9839  3.0741
   36MOL0     H 4735   2.685   1.161   0.882 -1.6202 -0.0729 -2.1390
   36MOL0     H 4736   3.085   1.318   0.829 -0.5326  1.9715  1.7509
   36MOL0     H 4737   3.316   1.250   0.803  1.7768  0.3445  1.3567
   36MOL0     H 4738   5.213   1.600  -0.042 -0.2438 -1.5709  1.3694
   36MOL0     H 4739   5.385   1.678   0.116  0.3710  1.4230  0.7120
   36MOL0     H 4740   5.623   2.178   0.166  0.1094 -2.0415 -1.2286
   36MOL0     H 4741   5.817   2.226   0.317 -0.8998  0.9012 -1.8125
   36MOL0     H 4742   5.953   2.281   0.505  0.7287  1.6622 -2.0522
   36MOL0     H 4743   6.026   2.158   0.404 -1.0152 -3.8617  0.7842
   36MOL0     H 4744   6.091   2.203   0.689  0.0318 -0.2086  0.0758
   36MOL0     H 4745   6.145   2.062   0.588 -0.2232 -1.6901  3.3200
   36MOL0     H 4746   6.203   2.350   0.526  3.0006  0.8208 -2.4327
   36MOL0     H 4747   6.257   2.223   0.429 -3.1181  2.7015 -0.5031
   36MOL0     H 4748   6.344   2.253   0.721  1.4307 -1.1542 -0.0612
   36MOL0     H 4749   6.383   2.120   0.627  0.2123  0.9246  0.5670
   36MOL0     H 4750   6.664   2.419   0.492  0.5532  0.8498  1.0309
   36MOL0     H 4751   5.733   1.883   0.565 -0.8598  1.7658  2.2683
   36MOL0     H 4752   5.532   1.849   0.445 -2.9327  1.3901  1.3165
   37MOL0     O 4753   1.078   5.375   0.912  0.6044  0.0354 -0.5179
   37MOL0     C 4754   1.151   5.276   0.918  1.1507  0.4564 -0.2199
   37MOL0     O 4755   1.183   5.207   1.036  0.1029  0.2550 -0.0756
   37MOL0     C 4756   1.102   5.222   1.150  0.6307 -0.2583  0.7974
   37MOL0     C 4757   1.123   5.128   1.250  0.0914  0.1762 -0.9585
   37MOL0     C 4758   1.044   5.113   1.369 -0.7161 -0.0834  0.2933
   37MOL0     C 4759   0.934   5.198   1.388  0.5215 -0.6278  0.2334
   37MOL0     O 4760   0.855   5.188   1.500 -0.8757 -0.9788 -0.5589
   37MOL0     C 4761   0.722   5.225   1.520 -0.4247  0.5179  0.1468
   37MOL0     C 4762   0.655   5.127   1.619 -0.7471 -0.6555  0.2294
   37MOL0     C 4763   0.502   5.158   1.621 -0.4949  0.2960  0.6158
   37MOL0     C 4764   0.437   5.049   1.703  0.7941 -0.4918  0.4790
   37MOL0     C 4765   0.288   5.092   1.739 -1.1118 -0.0664  1.2304
   37MOL0     C 4766   0.219   4.989   1.817 -0.2927 -0.0565 -0.3138
   37MOL0     C 4767   0.071   5.027   1.829 -0.0287 -0.6962 -0.7267
   37MOL0     C 4768  -0.008   4.924   1.918  0.4765  0.0769 -0.2429
   37MOL0     N 4769  -0.157   4.947   1.914 -0.2834  0.2470  0.5162
   37MOL0     C 4770  -0.225   4.907   1.804 -0.0569 -0.5530  1.5953
   37MOL0     C 4771  -0.359   4.920   1.840 -0.6437  0.4643 -0.2075
   37MOL0     C 4772  -0.469   4.875   1.757  0.2743 -0.0041 -1.5437
   37MOL0     C 4773  -0.492   4.964   1.634  0.0874  0.0801  0.5913
   37MOL0     C 4774  -0.626   4.937   1.570 -0.4774  0.3728  0.9621
   37MOL0     C 4775  -0.732   4.983   1.674  0.2065 -0.5119  0.4169
   37MOL0     O 4776  -0.839   5.061   1.605 -0.6719  0.5226 -0.0875
   37MOL0     C 4777  -0.957   5.065   1.673  0.1041  0.4831  0.3062
   37MOL0     C 4778  -0.980   5.017   1.806 -0.7061  0.0282 -0.2465
   37MOL0     C 4779  -1.097   5.049   1.866 -0.5270  0.5454  0.5167
   37MOL0     C 4780  -1.200   5.120   1.805  0.0187 -0.7636  0.5573
   37MOL0     C 4781  -1.326   5.134   1.875 -0.4112 -0.2253 -0.2464
   37MOL0     O 4782  -1.429   5.163   1.794  0.3404 -0.0161 -0.0737
   37MOL0     C 4783  -1.566   5.174   1.821 -0.6542  0.2813 -0.4122
   37MOL0     C 4784  -1.641   5.113   1.928 -0.2624 -0.4071 -0.7344
   37MOL0     C 4785  -1.782   5.140   1.944 -1.2230  0.1725 -0.3087
   37MOL0     C 4786  -1.852   5.201   1.849  0.0304 -0.0067  0.0910
   37MOL0     O 4787  -1.991   5.224   1.860 -0.6626 -0.2595  0.1889
   37MOL0     C 4788  -2.069   5.147   1.948 -0.1098  0.3475  0.6472
   37MOL0     C 4789  -2.210   5.131   1.887 -0.1957  0.0415 -0.3294
   37MOL0     C 4790  -2.315   5.091   1.988 -0.5565  0.8767  0.3141
   37MOL0     C 4791  -2.456   5.059   1.920  0.3344 -0.8736  0.4369
   37MOL0     C 4792  -2.573   5.069   2.022 -0.2854 -0.7106 -0.5643
   37MOL0     C 4793  -2.706   5.029   1.960 -0.0100 -0.2713  0.4560
   37MOL0     C 4794  -2.823   5.086   2.040  0.4198  0.9904 -0.8855
   37MOL0     C 4795  -2.956   5.093   1.959 -0.7559  0.7990 -0.0786
   37MOL0    Cl 4796  -2.984   4.931   1.874  0.0043  0.3177  0.1087
   37MOL0     C 4797  -1.790   5.265   1.742 -0.3463  0.7384 -1.0146
   37MOL0     C 4798  -1.642   5.250   1.733  1.1812  0.5835 -0.9210
   37MOL0     O 4799  -1.333   5.117   1.995  0.2827  0.1729  0.0016
   37MOL0     C 4800  -1.182   5.159   1.674 -0.0135 -0.4685  0.5794
   37MOL0     C 4801  -1.063   5.129   1.609  0.4728  0.1043  0.2889
   37MOL0     N 4802  -0.362   4.963   1.972  0.0510 -1.4256 -0.8951
   37MOL0     N 4803  -0.240   4.973   2.014  0.7294 -0.4005  0.1724
   37MOL0     C 4804   0.902   5.291   1.285 -0.7239  1.0386 -0.2454
   37MOL0     C 4805   0.983   5.302   1.175 -0.4890 -0.2760  0.7369
   37MOL0     C 4806   1.200   5.223   0.797  0.7541  0.4632  0.1830
   37MOL0     C 4807   1.142   5.255   0.676  0.5975  0.6914 -0.8402
   37MOL0     C 4808   1.176   5.189   0.562  0.5610  1.0365 -0.5062
   37MOL0     C 4809   1.283   5.104   0.558  0.0230  0.1400 -0.6100
   37MOL0     O 4810   1.345   5.039   0.450  0.4029  0.7065 -0.3099
   37MOL0     C 4811   1.325   5.106   0.324 -0.1091 -0.4845 -0.1261
   37MOL0     C 4812   1.403   5.240   0.309  0.0239 -0.7417  0.4313
   37MOL0     C 4813   1.552   5.215   0.272 -0.8360  0.2798  0.2748
   37MOL0     C 4814   1.636   5.338   0.298  0.3327  0.0681 -0.3696
   37MOL0     C 4815   1.772   5.300   0.286 -0.6716 -0.2058 -0.7994
   37MOL0     C 4816   1.880   5.259   0.259 -0.1028  1.0671 -0.1386
   37MOL0     C 4817   1.342   5.064   0.681 -0.2902  0.5793 -0.9985
   37MOL0     C 4818   1.296   5.118   0.802  0.1185  0.0120  0.0508
   37MOL0     H 4819   1.203   5.055   1.236  0.6118 -0.4530  3.7148
   37MOL0     H 4820   1.065   5.039   1.445  0.1906  0.9967  1.1399
   37MOL0     H 4821   0.673   5.211   1.423  0.7729 -1.9123 -0.1561
   37MOL0     H 4822   0.713   5.331   1.546 -2.6699  0.8269 -1.5555
   37MOL0     H 4823   0.701   5.149   1.716 -4.2242 -0.9962  2.1287
   37MOL0     H 4824   0.686   5.028   1.586  0.8926 -0.2398  0.4327
   37MOL0     H 4825   0.484   5.150   1.514  3.6726 -2.4651 -0.0926
   37MOL0     H 4826   0.480   5.257   1.662 -0.6382  0.0608  1.1197
   37MOL0     H 4827   0.425   4.958   1.643 -1.1467 -0.3187  0.5420
   37MOL0     H 4828   0.494   5.024   1.793  3.4942  2.8043 -0.1281
   37MOL0     H 4829   0.234   5.104   1.644  0.6729 -0.4380  0.1252
   37MOL0     H 4830   0.273   5.192   1.780 -1.2193  1.1122 -1.4609
   37MOL0     H 4831   0.263   4.997   1.917  0.6450  0.3473 -0.7470
   37MOL0     H 4832   0.225   4.889   1.773  2.3753 -1.6618  3.1956
   37MOL0     H 4833   0.064   5.126   1.875  2.1656 -0.0728 -1.5876
   37MOL0     H 4834   0.014   5.037   1.737 -2.7045  1.0904  0.9616
   37MOL0     H 4835   0.030   4.941   2.019  0.7183 -2.0409  0.0665
   37MOL0     H 4836   0.033   4.827   1.890 -0.5658 -0.4668  0.0770
   37MOL0     H 4837  -0.189   4.855   1.715 -0.8373  0.6750  0.5159
   37MOL0     H 4838  -0.551   4.862   1.829  2.8554 -1.2334  1.4100
   37MOL0     H 4839  -0.466   4.777   1.708  2.6872 -0.0762 -1.3824
   37MOL0     H 4840  -0.409   4.936   1.568  0.1298 -0.7699  1.0005
   37MOL0     H 4841  -0.478   5.070   1.660 -2.4132  0.3840  0.8983
   37MOL0     H 4842  -0.643   4.991   1.476  1.1417 -0.8658 -0.0984
   37MOL0     H 4843  -0.622   4.833   1.536  4.2780 -0.1763  2.4917
   37MOL0     H 4844  -0.692   5.060   1.741  0.7801 -0.9385  0.5757
   37MOL0     H 4845  -0.763   4.891   1.725  3.9849 -1.7617  0.7453
   37MOL0     H 4846  -0.903   4.968   1.864 -0.4607  0.3683 -0.2853
   37MOL0     H 4847  -1.097   5.040   1.975 -0.0428  3.2471  0.8084
   37MOL0     H 4848  -1.577   5.061   1.999 -1.9722 -2.9077 -0.8724
   37MOL0     H 4849  -1.834   5.110   2.035  1.7296 -2.4073  0.7492
   37MOL0     H 4850  -2.081   5.187   2.049 -1.4019 -2.5405  1.7347
   37MOL0     H 4851  -2.023   5.048   1.952  0.8156  0.7964  1.3705
   37MOL0     H 4852  -2.205   5.057   1.806 -2.1450 -2.6108  1.7873
   37MOL0     H 4853  -2.225   5.231   1.845  0.9073  1.0633  1.5720
   37MOL0     H 4854  -2.323   5.169   2.064  1.8229  1.5063 -0.0041
   37MOL0     H 4855  -2.283   5.004   2.045  0.6814  3.1089  3.2480
   37MOL0     H 4856  -2.467   5.121   1.830  1.6921 -2.4732 -0.8785
   37MOL0     H 4857  -2.445   4.954   1.894 -0.8549 -1.0242  0.4803
   37MOL0     H 4858  -2.565   5.168   2.067  4.2461 -0.9465 -0.4610
   37MOL0     H 4859  -2.552   4.999   2.103  0.5946 -0.5994 -0.6888
   37MOL0     H 4860  -2.714   4.921   1.943  0.5697 -0.1643 -0.5667
   37MOL0     H 4861  -2.715   5.081   1.864  1.4752  0.9151  0.9274
   37MOL0     H 4862  -2.843   5.003   2.109  1.7308 -0.1148 -1.7864
   37MOL0     H 4863  -2.806   5.185   2.084 -1.7120  1.6448 -1.4183
   37MOL0     H 4864  -2.947   5.164   1.875 -1.0415 -2.5835 -3.2133
   37MOL0     H 4865  -3.039   5.122   2.024  0.5831  2.0906  1.1390
   37MOL0     H 4866  -1.852   5.317   1.670 -1.2918  3.2114  1.3894
   37MOL0     H 4867  -1.590   5.298   1.650  1.9824  0.9367 -0.2255
   37MOL0     H 4868  -1.254   5.213   1.614  1.7276  2.8911  1.2547
   37MOL0     H 4869  -1.052   5.146   1.502 -0.1021 -1.5604 -0.0772
   37MOL0     H 4870   0.816   5.353   1.308 -1.7908 -1.2962  2.6830
   37MOL0     H 4871   0.937   5.362   1.098 -1.9105 -1.2121  0.8169
   37MOL0     H 4872   1.079   5.341   0.658 -1.7195 -0.4147  1.2816
   37MOL0     H 4873   1.136   5.218   0.466  0.8364 -0.5525 -1.1360
   37MOL0     H 4874   1.220   5.129   0.308 -0.8125 -2.9095  0.6175
   37MOL0     H 4875   1.348   5.040   0.240 -0.0272  0.9756 -1.3039
   37MOL0     H 4876   1.373   5.286   0.214  1.1220 -0.6507  0.1041
   37MOL0     H 4877   1.392   5.303   0.398 -0.8622 -0.5644  0.1990
   37MOL0     H 4878   1.561   5.181   0.168  1.2017  1.6433 -0.0579
   37MOL0     H 4879   1.591   5.138   0.339 -2.0005 -0.7990 -0.2523
   37MOL0     H 4880   1.627   5.406   0.213  0.4700  0.6179  0.0470
   37MOL0     H 4881   1.595   5.394   0.383  2.5127  2.8042 -1.0132
   37MOL0     H 4882   1.970   5.209   0.229  0.5625  2.8016 -1.1343
   37MOL0     H 4883   1.421   4.991   0.670 -1.4083 -0.5319 -1.9230
   37MOL0     H 4884   1.336   5.081   0.896 -0.7621 -2.0100 -0.3297
   38MOL0     O 4885   1.073   7.692   6.833  0.2721  0.0772 -0.3852
   38MOL0     C 4886   1.115   7.656   6.945  0.5203  0.0394  0.1555
   38MOL0     O 4887   1.048   7.679   7.069  0.9639  0.5467  0.3719
   38MOL0     C 4888   0.914   7.714   7.075  0.3850  0.8005  0.4380
   38MOL0     C 4889   0.866   7.707   7.204 -0.2210 -0.2567  0.0660
   38MOL0     C 4890   0.729   7.727   7.235  1.2501  0.8449  0.3846
   38MOL0     C 4891   0.631   7.751   7.128 -0.5602 -0.2631 -0.0711
   38MOL0     O 4892   0.499   7.754   7.150  0.4111  0.0900 -0.1117
   38MOL0     C 4893   0.452   7.818   7.267 -0.0985  0.4292 -1.6838
   38MOL0     C 4894   0.304   7.804   7.281 -0.1033 -0.0489 -0.3357
   38MOL0     C 4895   0.235   7.861   7.154  0.0094  0.1018 -0.1320
   38MOL0     C 4896   0.078   7.863   7.165 -0.4611  0.8782  0.2072
   38MOL0     C 4897   0.021   7.922   7.026  0.2484 -1.5451  0.2852
   38MOL0     C 4898   0.041   7.817   6.915 -0.6182  1.0832 -0.1577
   38MOL0     C 4899  -0.010   7.856   6.781 -0.9143  0.3285  0.4360
   38MOL0     C 4900  -0.157   7.835   6.759 -0.4275 -1.1128  0.5154
   38MOL0     N 4901  -0.195   7.862   6.620 -0.3834 -0.0528 -0.0418
   38MOL0     C 4902  -0.197   7.772   6.510 -0.2367  0.6934 -0.3997
   38MOL0     C 4903  -0.271   7.840   6.413 -0.1370 -0.5192 -0.3229
   38MOL0     C 4904  -0.291   7.788   6.282  0.0865 -0.0845  0.8029
   38MOL0     C 4905  -0.430   7.786   6.223  0.1418 -0.1822 -0.5231
   38MOL0     C 4906  -0.518   7.670   6.273 -0.0579 -0.1736  0.5736
   38MOL0     C 4907  -0.647   7.653   6.191 -0.6680  0.3763 -0.4743
   38MOL0     O 4908  -0.685   7.512   6.211  0.3436  0.0208 -0.5433
   38MOL0     C 4909  -0.818   7.469   6.192  0.8516  0.7787 -1.3813
   38MOL0     C 4910  -0.931   7.553   6.202 -0.0765  0.1817  0.0893
   38MOL0     C 4911  -1.061   7.494   6.193  0.2362  0.2228  0.4072
   38MOL0     C 4912  -1.087   7.354   6.182  0.0903  0.2133 -0.9291
   38MOL0     C 4913  -1.221   7.303   6.208 -0.1332  0.3862  0.1254
   38MOL0     O 4914  -1.326   7.388   6.225  0.4800 -0.3940 -0.0286
   38MOL0     C 4915  -1.448   7.354   6.276  0.1821  1.0686  0.8482
   38MOL0     C 4916  -1.498   7.452   6.356 -0.6226  0.1332 -1.1306
   38MOL0     C 4917  -1.629   7.450   6.402  0.7475  0.2651 -0.3399
   38MOL0     C 4918  -1.705   7.333   6.380 -0.2670 -0.1183  0.6797
   38MOL0     O 4919  -1.834   7.310   6.417 -0.2000 -0.0224 -0.2017
   38MOL0     C 4920  -1.920   7.389   6.492  0.5743  0.2803  0.0659
   38MOL0     C 4921  -1.981   7.499   6.401  0.2460  0.5209 -0.1443
   38MOL0     C 4922  -2.079   7.594   6.471 -0.1209 -0.0458 -1.0047
   38MOL0     C 4923  -2.124   7.711   6.378  0.1448 -0.3915 -0.7516
   38MOL0     C 4924  -2.257   7.766   6.423 -0.1423 -1.0315 -1.3255
   38MOL0     C 4925  -2.375   7.731   6.321 -1.1429  0.3495 -0.0852
   38MOL0     C 4926  -2.426   7.577   6.339  0.6076 -0.4264 -0.1891
   38MOL0     C 4927  -2.576   7.587   6.297  1.4154  1.1277  0.6281
   38MOL0    Cl 4928  -2.687   7.504   6.408  0.3265 -0.1366 -0.2865
   38MOL0     C 4929  -1.660   7.232   6.296 -0.0784 -0.0362 -0.8652
   38MOL0     C 4930  -1.526   7.236   6.246 -0.3694 -0.4536  0.7194
   38MOL0     O 4931  -1.219   7.181   6.237  0.5860  0.1415  0.1187
   38MOL0     C 4932  -0.972   7.269   6.186  0.2762 -0.4732 -0.4795
   38MOL0     C 4933  -0.839   7.325   6.190  0.1405  0.0980 -0.3638
   38MOL0     N 4934  -0.308   7.962   6.458  0.4118 -0.0424  0.6747
   38MOL0     N 4935  -0.265   7.970   6.577 -0.4518  0.1227  0.9943
   38MOL0     C 4936   0.686   7.744   6.997 -0.1752  0.1568 -0.4093
   38MOL0     C 4937   0.821   7.729   6.965 -0.5317  0.8290  0.1390
   38MOL0     C 4938   1.249   7.614   6.947 -0.1575 -0.3468  0.0215
   38MOL0     C 4939   1.336   7.630   6.839  0.9314  0.2070  0.1495
   38MOL0     C 4940   1.474   7.606   6.849  0.8018  0.6039 -0.0083
   38MOL0     C 4941   1.522   7.554   6.976  0.1127  0.7268 -0.5782
   38MOL0     O 4942   1.648   7.518   7.006 -0.4142 -0.6670 -0.4536
   38MOL0     C 4943   1.752   7.563   6.917 -0.0016  0.3421  0.1835
   38MOL0     C 4944   1.782   7.450   6.819 -0.6850  0.3708  0.0711
   38MOL0     C 4945   1.926   7.456   6.760 -0.5611 -0.2415 -0.3383
   38MOL0     C 4946   1.964   7.323   6.681  0.1885  0.1780 -0.7029
   38MOL0     C 4947   2.006   7.220   6.778  0.2960 -0.0660  0.2195
   38MOL0     C 4948   2.054   7.143   6.853  0.1051  0.0109 -0.3760
   38MOL0     C 4949   1.436   7.538   7.078 -0.0815 -0.3279 -0.5155
   38MOL0     C 4950   1.303   7.560   7.061  1.1402  0.3309 -0.2384
   38MOL0     H 4951   0.929   7.687   7.290  3.8673 -0.5214 -2.7107
   38MOL0     H 4952   0.694   7.722   7.338  1.4884  0.9307  0.4699
   38MOL0     H 4953   0.478   7.924   7.257  3.6313 -0.3308 -1.2721
   38MOL0     H 4954   0.494   7.776   7.358 -1.2273 -0.6042 -1.6186
   38MOL0     H 4955   0.275   7.863   7.368  1.7586 -0.6223  0.7097
   38MOL0     H 4956   0.269   7.701   7.297 -0.5193 -0.1308 -1.6225
   38MOL0     H 4957   0.265   7.800   7.068  0.7009 -0.1554  0.2769
   38MOL0     H 4958   0.270   7.964   7.140 -2.2537  0.7254 -1.5994
   38MOL0     H 4959   0.032   7.764   7.169 -2.0241  1.4437 -1.6729
   38MOL0     H 4960   0.054   7.930   7.248 -1.5292  3.7343 -2.2039
   38MOL0     H 4961   0.067   8.019   7.006  1.9105 -1.8873  2.1636
   38MOL0     H 4962  -0.086   7.941   7.037 -0.0792 -2.9428 -0.2194
   38MOL0     H 4963   0.003   7.720   6.948 -0.3614  0.3848 -1.8341
   38MOL0     H 4964   0.147   7.807   6.889 -1.2513 -1.5364 -2.1688
   38MOL0     H 4965   0.016   7.962   6.768  1.8152 -0.0236  2.1805
   38MOL0     H 4966   0.041   7.796   6.705 -2.5090 -2.4801  1.4271
   38MOL0     H 4967  -0.207   7.920   6.806  2.2244  0.9514 -0.1466
   38MOL0     H 4968  -0.198   7.743   6.801  0.4361 -0.4094  3.0843
   38MOL0     H 4969  -0.155   7.673   6.493  0.6200  1.4168 -3.0537
   38MOL0     H 4970  -0.261   7.683   6.286 -1.1935 -0.4867  0.2397
   38MOL0     H 4971  -0.222   7.837   6.212  2.1105 -3.7526 -0.0631
   38MOL0     H 4972  -0.427   7.789   6.114 -1.7483 -0.6432 -0.6169
   38MOL0     H 4973  -0.467   7.886   6.247 -0.3785 -0.6801  0.8536
   38MOL0     H 4974  -0.455   7.582   6.259  0.1859 -0.5742  3.4704
   38MOL0     H 4975  -0.542   7.671   6.380 -1.5439 -3.3119  0.3833
   38MOL0     H 4976  -0.623   7.671   6.086  0.7546  5.4721  0.4774
   38MOL0     H 4977  -0.723   7.728   6.216 -0.4929 -0.2395  2.3256
   38MOL0     H 4978  -0.927   7.657   6.230 -1.0756  0.5240 -0.9247
   38MOL0     H 4979  -1.135   7.572   6.177  0.6777 -0.0025 -3.6780
   38MOL0     H 4980  -1.452   7.550   6.355 -3.5450  1.8810  3.3989
   38MOL0     H 4981  -1.665   7.523   6.473  1.3982 -0.4437  0.7475
   38MOL0     H 4982  -1.854   7.429   6.569 -1.0895 -1.2557  2.4106
   38MOL0     H 4983  -2.005   7.339   6.540 -1.7475  3.9461  0.1672
   38MOL0     H 4984  -2.025   7.442   6.319  0.1824 -1.1052  0.9670
   38MOL0     H 4985  -1.903   7.559   6.355  0.0823  0.3107 -0.6997
   38MOL0     H 4986  -2.027   7.637   6.557  4.4288 -2.2988 -2.3016
   38MOL0     H 4987  -2.169   7.537   6.493 -1.6446  1.6099 -2.6753
   38MOL0     H 4988  -2.041   7.775   6.412  1.3236 -3.5041  3.0508
   38MOL0     H 4989  -2.111   7.692   6.271  0.8699 -1.6534 -0.4601
   38MOL0     H 4990  -2.249   7.874   6.431 -2.9448 -0.8106 -0.3004
   38MOL0     H 4991  -2.286   7.726   6.521 -1.1833 -0.2723 -1.3055
   38MOL0     H 4992  -2.334   7.754   6.222 -1.2305 -0.8951 -0.4343
   38MOL0     H 4993  -2.456   7.802   6.336 -1.3448 -0.0686  0.9001
   38MOL0     H 4994  -2.374   7.514   6.267 -1.3228  0.2633 -2.3019
   38MOL0     H 4995  -2.421   7.542   6.443 -1.7483  1.9983  0.8667
   38MOL0     H 4996  -2.589   7.545   6.196 -0.5146  1.2059  0.8038
   38MOL0     H 4997  -2.622   7.686   6.286 -0.4272  0.1726 -0.9597
   38MOL0     H 4998  -1.720   7.147   6.267  0.3217 -0.5976 -0.1044
   38MOL0     H 4999  -1.504   7.145   6.191 -0.5205 -1.8679  2.8904
   38MOL0     H 5000  -0.983   7.162   6.194 -3.6675 -0.1410  1.0290
   38MOL0     H 5001  -0.754   7.260   6.171  0.5521  0.3905  0.4303
   38MOL0     H 5002   0.624   7.771   6.911 -0.7260  0.6594  0.1353
   38MOL0     H 5003   0.853   7.712   6.863  0.2854  1.0341  0.3523
   38MOL0     H 5004   1.280   7.680   6.761 -0.2518  2.2047  2.1637
   38MOL0     H 5005   1.528   7.606   6.755 -0.6647  1.0843 -0.8865
   38MOL0     H 5006   1.838   7.591   6.978  0.9835  0.5340 -1.2401
   38MOL0     H 5007   1.739   7.657   6.863  0.0439 -1.0409 -2.3846
   38MOL0     H 5008   1.753   7.358   6.870 -0.2314  0.3167  0.2340
   38MOL0     H 5009   1.704   7.455   6.742  0.2311  0.3283 -0.8822
   38MOL0     H 5010   2.006   7.453   6.834  0.5913  3.4043 -1.1865
   38MOL0     H 5011   1.945   7.553   6.713 -1.0500  0.8770  1.6272
   38MOL0     H 5012   1.879   7.283   6.624 -0.6397 -0.3748  0.8417
   38MOL0     H 5013   2.042   7.355   6.613  1.9215  2.2791  2.0750
   38MOL0     H 5014   2.100   7.080   6.927  2.3356  2.9629  0.9801
   38MOL0     H 5015   1.479   7.495   7.168 -0.8965 -2.4803 -1.0750
   38MOL0     H 5016   1.239   7.531   7.144  4.2036  0.0340  2.1901
   39MOL0     O 5017   6.115   4.697   9.525 -0.0059  0.4259 -0.6320
   39MOL0     C 5018   6.166   4.797   9.575  1.2512 -0.3936  0.2102
   39MOL0     O 5019   6.102   4.883   9.661 -0.0862 -0.3184  0.2519
   39MOL0     C 5020   5.964   4.874   9.679 -0.3429 -0.2057  0.1987
   39MOL0     C 5021   5.886   4.980   9.628  0.5304  0.2810  1.1665
   39MOL0     C 5022   5.744   4.986   9.639 -1.2296  0.1908 -0.1517
   39MOL0     C 5023   5.678   4.878   9.701 -0.7169  0.1512  0.2925
   39MOL0     O 5024   5.547   4.891   9.714 -0.8061 -0.0054  0.5486
   39MOL0     C 5025   5.491   4.835   9.835 -0.0020 -0.0970 -0.0596
   39MOL0     C 5026   5.337   4.852   9.839  0.0918 -0.9559 -1.0963
   39MOL0     C 5027   5.274   4.783   9.722 -0.3572 -0.5491  0.0842
   39MOL0     C 5028   5.118   4.779   9.743  0.2921  0.1412 -0.8918
   39MOL0     C 5029   5.036   4.694   9.646 -0.2125 -1.0483  0.3211
   39MOL0     C 5030   5.025   4.749   9.501  0.0182  0.8369  0.6841
   39MOL0     C 5031   4.931   4.663   9.422  0.1689  0.2241  0.1067
   39MOL0     C 5032   4.985   4.516   9.394  0.8691  0.1675 -0.2504
   39MOL0     N 5033   5.127   4.500   9.350 -0.3819  0.1218 -0.4128
   39MOL0     C 5034   5.236   4.517   9.434 -0.3568 -0.7292 -0.1566
   39MOL0     C 5035   5.341   4.508   9.349  0.0630  0.8203 -0.1173
   39MOL0     C 5036   5.487   4.497   9.393 -0.6191  0.3972  0.0306
   39MOL0     C 5037   5.579   4.602   9.331  0.3391 -0.4347  0.0039
   39MOL0     C 5038   5.698   4.635   9.408  0.4370  0.3035 -0.4032
   39MOL0     C 5039   5.788   4.755   9.356 -0.3270  0.3416  0.1518
   39MOL0     O 5040   5.818   4.734   9.212  0.8039  0.8205 -0.1229
   39MOL0     C 5041   5.917   4.798   9.144 -0.5401  0.2578 -0.4481
   39MOL0     C 5042   6.049   4.799   9.190 -0.1651 -0.5893 -0.0172
   39MOL0     C 5043   6.155   4.862   9.132 -0.7308  0.5745 -0.0093
   39MOL0     C 5044   6.139   4.913   9.001 -0.4655  0.8203  0.7602
   39MOL0     C 5045   6.247   4.981   8.934 -0.5678 -0.1652 -0.1158
   39MOL0     O 5046   6.363   4.985   8.993  0.0301  0.5264  0.0405
   39MOL0     C 5047   6.471   5.041   8.932 -1.0812 -0.8275 -0.3549
   39MOL0     C 5048   6.537   4.959   8.836  0.3531 -0.8657 -0.5964
   39MOL0     C 5049   6.647   5.008   8.765 -1.0436  0.1639  0.3950
   39MOL0     C 5050   6.709   5.132   8.804  0.3743  0.5337  0.9572
   39MOL0     O 5051   6.835   5.161   8.766 -0.5522  0.0815 -0.2348
   39MOL0     C 5052   6.943   5.070   8.794  0.1410 -0.6006 -0.4895
   39MOL0     C 5053   7.030   5.140   8.892 -0.2628  0.0373 -0.6422
   39MOL0     C 5054   7.128   5.235   8.819  0.3556 -0.6538 -0.3510
   39MOL0     C 5055   7.218   5.313   8.906  0.5991 -1.0614  0.2330
   39MOL0     C 5056   7.145   5.410   9.016 -0.2711  0.4285  0.5266
   39MOL0     C 5057   7.243   5.463   9.121  0.4653  0.0392 -0.2659
   39MOL0     C 5058   7.165   5.541   9.232  0.3936  0.7744 -0.3753
   39MOL0     C 5059   7.250   5.642   9.304  0.3425  0.5070 -0.2415
   39MOL0    Cl 5060   7.379   5.555   9.399 -0.1064 -0.2612 -0.0946
   39MOL0     C 5061   6.647   5.209   8.900  0.4378  0.6029 -0.9744
   39MOL0     C 5062   6.525   5.167   8.964  0.7036 -0.4552 -0.3363
   39MOL0     O 5063   6.222   5.027   8.823 -0.0511  0.5748  0.2555
   39MOL0     C 5064   6.001   4.913   8.948 -0.7718  0.6538 -0.4280
   39MOL0     C 5065   5.899   4.853   9.021  1.0837  0.4579  0.4239
   39MOL0     N 5066   5.291   4.494   9.223 -0.2416 -0.0303  0.2421
   39MOL0     N 5067   5.164   4.480   9.221 -0.5598 -0.2017  0.5156
   39MOL0     C 5068   5.752   4.777   9.757  0.0981  1.6291  1.2085
   39MOL0     C 5069   5.894   4.773   9.753  0.0215  0.0336  0.2139
   39MOL0     C 5070   6.295   4.848   9.524  0.8761  0.7832 -0.0337
   39MOL0     C 5071   6.346   4.976   9.557 -0.4769 -0.0664  1.0050
   39MOL0     C 5072   6.470   5.011   9.511 -0.0812 -0.5189  0.2017
   39MOL0     C 5073   6.531   4.938   9.410  0.3539 -1.0498  0.0675
   39MOL0     O 5074   6.652   4.995   9.367 -0.5469  0.4088 -0.3033
   39MOL0     C 5075   6.707   4.942   9.249 -0.6739  0.9361  0.7632
   39MOL0     C 5076   6.783   5.054   9.166  0.1725  0.9509 -0.4462
   39MOL0     C 5077   6.914   5.089   9.234 -1.0380  0.0539  0.1275
   39MOL0     C 5078   7.028   4.984   9.219  0.1202  0.5553 -0.8340
   39MOL0     C 5079   7.166   5.045   9.226  0.2685 -0.2664 -0.5329
   39MOL0     C 5080   7.278   5.095   9.216  0.2053  0.3292  0.9728
   39MOL0     C 5081   6.471   4.817   9.366 -0.4995 -0.9605  0.2682
   39MOL0     C 5082   6.358   4.765   9.421  0.3408 -0.5351  0.7461
   39MOL0     H 5083   5.945   5.054   9.576  0.5012 -0.2733  0.3254
   39MOL0     H 5084   5.683   5.061   9.590  0.5172  1.3020 -0.7099
   39MOL0     H 5085   5.524   4.891   9.924  1.8795  2.1017 -1.9988
   39MOL0     H 5086   5.494   4.726   9.840 -1.5616 -0.1348  0.5333
   39MOL0     H 5087   5.312   4.959   9.840  0.7487 -0.7976 -0.3526
   39MOL0     H 5088   5.300   4.808   9.932  0.4588 -0.8257 -0.8845
   39MOL0     H 5089   5.307   4.679   9.715 -2.1308 -1.1792  0.5467
   39MOL0     H 5090   5.295   4.841   9.632  1.5388 -2.9346 -1.1390
   39MOL0     H 5091   5.088   4.736   9.839 -1.7052 -1.4986 -2.1626
   39MOL0     H 5092   5.080   4.881   9.733  2.0053  0.9240  0.2504
   39MOL0     H 5093   4.933   4.707   9.681 -1.1812 -1.7354 -2.0568
   39MOL0     H 5094   5.057   4.588   9.661 -0.3900 -1.0593  0.5072
   39MOL0     H 5095   5.123   4.751   9.453 -1.4361  0.8587 -2.5349
   39MOL0     H 5096   4.978   4.848   9.489  0.1219  0.6747 -1.5054
   39MOL0     H 5097   4.837   4.669   9.478  1.3711  1.0911  2.1480
   39MOL0     H 5098   4.927   4.711   9.324 -3.9808  0.1391  0.0379
   39MOL0     H 5099   4.908   4.462   9.339  2.0087 -2.2165  0.3626
   39MOL0     H 5100   4.976   4.453   9.483  2.0630 -1.5514 -1.2791
   39MOL0     H 5101   5.239   4.523   9.543  0.6784 -1.1162 -0.1517
   39MOL0     H 5102   5.525   4.399   9.363 -0.6067  0.9310 -1.8102
   39MOL0     H 5103   5.497   4.504   9.502 -0.1911  1.2551 -0.0529
   39MOL0     H 5104   5.528   4.699   9.323  0.6816 -0.3963 -3.0321
   39MOL0     H 5105   5.601   4.571   9.228  0.1198 -3.1291  0.7042
   39MOL0     H 5106   5.681   4.655   9.514  3.2458  0.3533  0.1127
   39MOL0     H 5107   5.764   4.548   9.408  1.8616  1.1548  3.9341
   39MOL0     H 5108   5.882   4.755   9.412  0.5258  1.9101 -1.2002
   39MOL0     H 5109   5.736   4.848   9.380  0.3964 -0.2952  5.4820
   39MOL0     H 5110   6.060   4.760   9.290 -1.3971 -2.5193 -0.5721
   39MOL0     H 5111   6.254   4.861   9.177 -0.1211 -1.4536 -1.2561
   39MOL0     H 5112   6.485   4.865   8.825  1.1343 -1.1410 -2.2016
   39MOL0     H 5113   6.672   4.940   8.684 -2.1927  0.4871 -0.2494
   39MOL0     H 5114   6.993   5.061   8.697  0.7669 -0.3072 -0.1982
   39MOL0     H 5115   6.916   4.977   8.845 -0.3125  0.3436  1.0682
   39MOL0     H 5116   7.091   5.065   8.943 -1.0143 -0.2302 -0.1277
   39MOL0     H 5117   6.969   5.188   8.969 -1.5951  0.1987 -1.7462
   39MOL0     H 5118   7.074   5.310   8.761  2.6888  0.0852 -1.7149
   39MOL0     H 5119   7.181   5.172   8.747  3.2203 -0.2509  1.2495
   39MOL0     H 5120   7.288   5.236   8.941  2.8464  0.1226 -1.4215
   39MOL0     H 5121   7.283   5.374   8.843  0.1781 -0.1333  0.6918
   39MOL0     H 5122   7.066   5.359   9.071  2.1461 -2.3417  1.7331
   39MOL0     H 5123   7.103   5.498   8.967 -0.9711  0.8416  1.8362
   39MOL0     H 5124   7.307   5.538   9.074  3.0536 -1.2264  1.0103
   39MOL0     H 5125   7.306   5.382   9.158 -0.0699  0.4516  1.6462
   39MOL0     H 5126   7.078   5.586   9.184 -0.4248 -1.4761 -1.1391
   39MOL0     H 5127   7.128   5.470   9.307  0.3386 -1.8805 -2.7329
   39MOL0     H 5128   7.185   5.704   9.366 -1.1855  1.0742 -2.3138
   39MOL0     H 5129   7.294   5.714   9.235 -1.4902  1.1029 -0.8368
   39MOL0     H 5130   6.696   5.303   8.920 -0.2912  1.1825 -1.8141
   39MOL0     H 5131   6.470   5.217   9.043 -1.9151 -0.8006 -1.8173
   39MOL0     H 5132   5.983   4.941   8.845  0.2102 -2.7694 -1.6976
   39MOL0     H 5133   5.798   4.853   8.981  1.1150 -0.8255  0.2937
   39MOL0     H 5134   5.697   4.702   9.812 -1.7419  2.3123  0.3993
   39MOL0     H 5135   5.950   4.695   9.803  1.2546  0.0985 -1.0043
   39MOL0     H 5136   6.279   5.041   9.612 -1.1716  2.4837 -2.5490
   39MOL0     H 5137   6.514   5.108   9.528 -0.7571 -0.1243 -0.2495
   39MOL0     H 5138   6.623   4.909   9.188  0.1784 -4.2369  1.9627
   39MOL0     H 5139   6.765   4.851   9.265 -1.0724  0.9532  2.6064
   39MOL0     H 5140   6.804   5.008   9.070  0.8781 -1.9727  0.9977
   39MOL0     H 5141   6.713   5.135   9.145 -0.3151  0.0340 -2.5383
   39MOL0     H 5142   6.901   5.113   9.340  1.8067 -0.3683  0.6461
   39MOL0     H 5143   6.961   5.175   9.186  2.5787 -1.2058  1.0625
   39MOL0     H 5144   7.017   4.897   9.284  0.1937  1.4191  0.3788
   39MOL0     H 5145   7.012   4.941   9.120 -1.2315  1.2462 -0.9432
   39MOL0     H 5146   7.382   5.114   9.202  0.6915 -0.7645  2.7821
   39MOL0     H 5147   6.521   4.757   9.290 -2.8377 -1.8652 -0.6248
   39MOL0     H 5148   6.308   4.669   9.405 -0.5799 -0.4648  2.8674
   40MOL0     O 5149   6.952   4.779   7.672  0.8205  0.9113  0.7833
   40MOL0     C 5150   6.994   4.691   7.748 -0.7960  0.5772 -0.1794
   40MOL0     O 5151   6.938   4.632   7.847 -0.3251  0.1774  0.2023
   40MOL0     C 5152   6.803   4.667   7.868  0.7080  0.1975 -1.1256
   40MOL0     C 5153   6.707   4.610   7.784 -0.1277 -0.1927  0.1091
   40MOL0     C 5154   6.575   4.661   7.810 -0.1928 -1.0736 -0.6845
   40MOL0     C 5155   6.547   4.772   7.900  0.6916  0.7217 -0.0481
   40MOL0     O 5156   6.424   4.826   7.923 -0.3142 -0.4690  0.2908
   40MOL0     C 5157   6.324   4.745   7.862  0.7111  0.1243 -1.0337
   40MOL0     C 5158   6.188   4.798   7.901 -0.2848 -0.1038 -0.6048
   40MOL0     C 5159   6.083   4.705   7.846 -0.1696  0.2796 -0.4207
   40MOL0     C 5160   5.961   4.791   7.856  0.8753  0.1811 -0.1585
   40MOL0     C 5161   5.837   4.713   7.799  0.8244  0.0233 -0.3328
   40MOL0     C 5162   5.732   4.804   7.746  0.7858  0.2521 -0.4721
   40MOL0     C 5163   5.766   4.888   7.625 -0.1483  0.2744  0.4995
   40MOL0     C 5164   5.818   4.806   7.506 -0.7492 -0.1292 -0.9501
   40MOL0     N 5165   5.717   4.717   7.448 -0.1030  0.4379 -0.6831
   40MOL0     C 5166   5.590   4.747   7.423  0.0835  0.3854  0.5985
   40MOL0     C 5167   5.532   4.626   7.404  0.0755  0.7648  0.5256
   40MOL0     C 5168   5.389   4.586   7.380 -0.6639 -0.5798  0.2098
   40MOL0     C 5169   5.291   4.702   7.397 -1.0590 -0.3335 -0.5519
   40MOL0     C 5170   5.282   4.796   7.275 -0.7504 -0.9003 -0.2009
   40MOL0     C 5171   5.203   4.921   7.313 -0.0722  0.2991 -0.1270
   40MOL0     O 5172   5.076   4.899   7.356  1.0786 -0.5047  0.5176
   40MOL0     C 5173   4.963   4.947   7.290  0.4911 -0.1265 -0.2971
   40MOL0     C 5174   4.933   5.081   7.297  0.1747 -0.4632 -0.3583
   40MOL0     C 5175   4.805   5.123   7.236 -0.3340 -0.5181  0.4238
   40MOL0     C 5176   4.721   5.037   7.160 -1.0295 -0.5010  0.5644
   40MOL0     C 5177   4.594   5.076   7.095 -0.3514  0.0438  0.3648
   40MOL0     O 5178   4.533   5.198   7.132 -0.3196 -0.5875 -0.1328
   40MOL0     C 5179   4.389   5.222   7.116 -0.9694 -0.2588  0.4826
   40MOL0     C 5180   4.296   5.135   7.058 -0.1762 -0.4220  0.0006
   40MOL0     C 5181   4.166   5.168   7.038  0.3712  0.2296 -0.2466
   40MOL0     C 5182   4.114   5.272   7.103  0.1554 -0.4264 -0.6696
   40MOL0     O 5183   3.981   5.284   7.098 -0.7192 -0.0311 -0.1615
   40MOL0     C 5184   3.934   5.315   6.965  0.6514  0.2394  0.4090
   40MOL0     C 5185   3.786   5.334   6.954  0.1742  0.0160 -0.5732
   40MOL0     C 5186   3.707   5.206   6.994 -0.7144 -0.3785 -1.2361
   40MOL0     C 5187   3.554   5.223   6.992  0.2008 -0.0713  0.4966
   40MOL0     C 5188   3.489   5.087   6.958  0.1343 -0.8499  0.7595
   40MOL0     C 5189   3.338   5.093   6.941 -0.4576 -0.2159 -0.0285
   40MOL0     C 5190   3.264   5.125   7.069  0.5169  0.3839  0.1206
   40MOL0     C 5191   3.135   5.037   7.087  0.2036  0.3850  0.5475
   40MOL0    Cl 5192   3.007   5.041   6.970 -0.3846 -0.5266  0.3392
   40MOL0     C 5193   4.196   5.357   7.185 -0.3290 -0.0661  0.6705
   40MOL0     C 5194   4.332   5.328   7.186 -0.2229  0.9668  0.3087
   40MOL0     O 5195   4.552   4.998   7.010 -0.1685  0.3382  0.0805
   40MOL0     C 5196   4.774   4.907   7.149 -0.1019 -0.1958 -0.4875
   40MOL0     C 5197   4.883   4.860   7.210  0.2520 -0.5779  0.9593
   40MOL0     N 5198   5.624   4.528   7.417 -0.5329  0.0262  0.2443
   40MOL0     N 5199   5.739   4.582   7.448  0.0642 -0.4578 -0.5405
   40MOL0     C 5200   6.650   4.825   7.974  0.2648 -0.0975 -0.2387
   40MOL0     C 5201   6.773   4.771   7.959  0.3300  0.3996 -0.2977
   40MOL0     C 5202   7.132   4.662   7.729  0.0275  0.5612 -0.6370
   40MOL0     C 5203   7.216   4.733   7.636  0.3273 -0.0941 -0.2136
   40MOL0     C 5204   7.341   4.698   7.611 -0.8214 -0.1981  0.2686
   40MOL0     C 5205   7.401   4.594   7.683  0.1035 -0.9158  0.2858
   40MOL0     O 5206   7.527   4.556   7.676 -0.0860  1.0469 -0.9819
   40MOL0     C 5207   7.630   4.657   7.663 -0.7525 -0.3724  0.2667
   40MOL0     C 5208   7.704   4.629   7.527 -0.0909 -0.6107 -0.8532
   40MOL0     C 5209   7.804   4.746   7.508 -0.9161  0.0153  0.5163
   40MOL0     C 5210   7.830   4.764   7.357 -1.0529  0.0589  0.3315
   40MOL0     C 5211   7.895   4.892   7.331 -0.6211 -0.5793 -0.5224
   40MOL0     C 5212   7.947   4.997   7.312  0.0002 -0.5619  0.6342
   40MOL0     C 5213   7.323   4.516   7.771  0.4610  0.3188  0.7083
   40MOL0     C 5214   7.189   4.546   7.785 -0.1240  0.4131 -0.3582
   40MOL0     H 5215   6.729   4.528   7.717  1.4710  0.7531 -0.5674
   40MOL0     H 5216   6.501   4.635   7.735 -1.9524  1.4126  0.0647
   40MOL0     H 5217   6.334   4.639   7.890 -0.4563  0.0005 -1.0353
   40MOL0     H 5218   6.327   4.749   7.753 -2.3658 -3.6525 -1.5018
   40MOL0     H 5219   6.187   4.890   7.841 -2.4571  0.8312  0.7576
   40MOL0     H 5220   6.179   4.835   8.003  2.2137 -1.6442  0.2525
   40MOL0     H 5221   6.062   4.613   7.900  1.7495 -0.2340 -0.4823
   40MOL0     H 5222   6.092   4.675   7.742 -0.7034 -1.2628 -0.0420
   40MOL0     H 5223   5.947   4.825   7.959  0.7860 -1.4278  0.3820
   40MOL0     H 5224   5.976   4.878   7.792 -0.4451  1.8802  1.7134
   40MOL0     H 5225   5.808   4.659   7.890  1.5695  0.5424  0.2199
   40MOL0     H 5226   5.861   4.636   7.724 -0.6017 -0.8612  0.0758
   40MOL0     H 5227   5.701   4.866   7.830 -1.4986 -2.3302  0.7722
   40MOL0     H 5228   5.641   4.754   7.712  0.8595  1.7045 -3.0582
   40MOL0     H 5229   5.673   4.942   7.604  0.2143  1.2878  1.4312
   40MOL0     H 5230   5.844   4.962   7.646 -0.7844  1.6258 -1.5873
   40MOL0     H 5231   5.911   4.757   7.535 -0.4736  1.8011  1.8370
   40MOL0     H 5232   5.845   4.882   7.431 -1.6255  0.9112 -0.2420
   40MOL0     H 5233   5.544   4.845   7.413  3.4993  2.0391 -0.4408
   40MOL0     H 5234   5.376   4.503   7.450  1.3976  0.2835  1.7272
   40MOL0     H 5235   5.379   4.554   7.276  2.5777  0.2604 -0.4761
   40MOL0     H 5236   5.324   4.749   7.490 -1.6263 -1.3067  0.1616
   40MOL0     H 5237   5.191   4.662   7.417 -1.0871  0.6941  1.6164
   40MOL0     H 5238   5.380   4.839   7.250 -0.6710 -1.4242 -0.7951
   40MOL0     H 5239   5.229   4.758   7.188 -4.0091 -2.9121  2.4159
   40MOL0     H 5240   5.191   4.990   7.229 -1.2664 -0.1985 -0.3843
   40MOL0     H 5241   5.260   4.979   7.386 -0.7131  0.4597  0.2456
   40MOL0     H 5242   4.990   5.143   7.365 -0.3930  0.3939 -0.6457
   40MOL0     H 5243   4.774   5.227   7.230 -1.3146 -0.8930 -1.6729
   40MOL0     H 5244   4.329   5.041   7.016 -0.3471 -0.1401 -0.7724
   40MOL0     H 5245   4.096   5.103   6.986  1.9182 -1.1397 -0.7203
   40MOL0     H 5246   3.960   5.239   6.892 -2.1057 -1.5616  1.1474
   40MOL0     H 5247   3.983   5.409   6.937 -4.2321  2.6389 -1.3469
   40MOL0     H 5248   3.751   5.368   6.857 -3.9610 -0.2382  0.6188
   40MOL0     H 5249   3.754   5.402   7.034 -2.9288  1.0560 -2.5392
   40MOL0     H 5250   3.728   5.179   7.098 -3.0966  0.4395 -0.4571
   40MOL0     H 5251   3.737   5.124   6.928 -1.1638 -2.5611  1.1023
   40MOL0     H 5252   3.523   5.262   7.090  1.0902  2.8790 -0.2916
   40MOL0     H 5253   3.528   5.285   6.906 -0.7048  1.1967  1.6463
   40MOL0     H 5254   3.509   5.017   7.040 -2.0214 -0.5410  1.6395
   40MOL0     H 5255   3.534   5.054   6.864  0.2405  2.1376 -0.3613
   40MOL0     H 5256   3.315   4.993   6.904 -1.1465  0.3857 -1.2703
   40MOL0     H 5257   3.310   5.166   6.865 -1.5360 -0.6503 -0.0735
   40MOL0     H 5258   3.327   5.113   7.157  1.3346 -0.1361 -0.5221
   40MOL0     H 5259   3.233   5.229   7.078 -0.7715  0.0441 -0.2140
   40MOL0     H 5260   3.087   5.055   7.183 -0.5969 -1.2024  0.4817
   40MOL0     H 5261   3.151   4.928   7.088 -0.7546  0.2370  1.5506
   40MOL0     H 5262   4.156   5.438   7.245  0.7832  0.9212  0.1284
   40MOL0     H 5263   4.389   5.387   7.257  0.4816 -1.5448  1.9966
   40MOL0     H 5264   4.714   4.833   7.096  0.3943 -1.1136  0.2016
   40MOL0     H 5265   4.898   4.753   7.203  3.9129 -0.1876  0.5857
   40MOL0     H 5266   6.626   4.892   8.056  1.2355  0.4976 -0.4286
   40MOL0     H 5267   6.853   4.809   8.022  1.8120 -0.1302 -1.7646
   40MOL0     H 5268   7.168   4.803   7.568  2.2322  1.7389  0.2419
   40MOL0     H 5269   7.385   4.740   7.521 -0.1841  2.6741  1.8146
   40MOL0     H 5270   7.696   4.651   7.749  2.0447 -0.2609 -1.7421
   40MOL0     H 5271   7.597   4.761   7.650 -0.9029 -0.3067  1.1433
   40MOL0     H 5272   7.760   4.535   7.532 -0.5055 -0.9039 -1.5687
   40MOL0     H 5273   7.626   4.632   7.451 -0.5808  5.2339 -0.5397
   40MOL0     H 5274   7.890   4.742   7.575 -0.1060  0.3742 -0.4628
   40MOL0     H 5275   7.760   4.835   7.552  2.2749  1.5964  0.8459
   40MOL0     H 5276   7.894   4.675   7.345 -2.0437 -1.1144  2.8999
   40MOL0     H 5277   7.739   4.762   7.296 -0.4959 -2.5227 -0.5720
   40MOL0     H 5278   7.998   5.088   7.288  1.3158 -1.9384 -2.3340
   40MOL0     H 5279   7.361   4.422   7.809 -1.7695  0.5132  3.8683
   40MOL0     H 5280   7.133   4.472   7.842  1.2883 -0.0239  0.5161
   41MOL0     O 5281   5.011   9.236   5.016  0.6919 -1.0459  0.8144
   41MOL0     C 5282   4.892   9.206   4.983  0.5371 -0.2892 -0.4817
   41MOL0     O 5283   4.824   9.091   5.026 -0.3189 -0.4058 -0.7080
   41MOL0     C 5284   4.894   8.997   5.095  0.2039  0.7730 -0.3186
   41MOL0     C 5285   4.943   8.890   5.021  0.4347  0.2729  0.1451
   41MOL0     C 5286   5.006   8.787   5.090  0.2346 -0.2558 -0.7484
   41MOL0     C 5287   5.026   8.785   5.235  0.3956  0.0228 -0.4565
   41MOL0     O 5288   5.081   8.677   5.303 -0.3734 -0.0786 -0.0727
   41MOL0     C 5289   5.124   8.678   5.443  0.3168  0.2254  0.0971
   41MOL0     C 5290   5.034   8.586   5.508  0.5201 -0.6635  0.8011
   41MOL0     C 5291   5.062   8.436   5.470  0.0587 -0.0281 -0.4249
   41MOL0     C 5292   5.185   8.379   5.539 -0.7156  0.0515  0.2213
   41MOL0     C 5293   5.196   8.233   5.505  0.2392 -0.0985  0.1415
   41MOL0     C 5294   5.315   8.151   5.554  0.1087  0.0606 -0.4207
   41MOL0     C 5295   5.322   8.143   5.704 -0.2808 -0.2148 -0.2379
   41MOL0     C 5296   5.452   8.206   5.758 -0.0495 -0.5472  0.7111
   41MOL0     N 5297   5.569   8.127   5.710 -0.1166 -0.0281  0.6478
   41MOL0     C 5298   5.632   8.028   5.777  0.6088  0.0919 -0.2352
   41MOL0     C 5299   5.724   7.983   5.691 -0.5917 -1.1621 -1.1698
   41MOL0     C 5300   5.824   7.887   5.731 -0.1131 -0.3960 -0.6560
   41MOL0     C 5301   5.951   7.959   5.759 -1.1931 -0.4081  0.6305
   41MOL0     C 5302   6.030   8.012   5.639 -0.3618 -0.5164  0.4920
   41MOL0     C 5303   6.097   7.891   5.565  0.3748 -1.3429 -0.1084
   41MOL0     O 5304   6.222   7.851   5.642 -0.7764  0.3746 -0.4361
   41MOL0     C 5305   6.335   7.826   5.565  0.1118  0.1927 -0.1646
   41MOL0     C 5306   6.328   7.756   5.450 -0.0282 -0.4737  0.2804
   41MOL0     C 5307   6.440   7.725   5.369  0.3040 -1.0245  0.2773
   41MOL0     C 5308   6.563   7.781   5.395 -0.8844  0.2632 -0.4446
   41MOL0     C 5309   6.681   7.764   5.306 -0.2349  0.0653 -0.2290
   41MOL0     O 5310   6.665   7.687   5.185  0.1754 -0.4777 -0.0825
   41MOL0     C 5311   6.781   7.638   5.128  1.4533  0.8008  1.5690
   41MOL0     C 5312   6.833   7.512   5.168 -0.0065 -0.4098 -1.1128
   41MOL0     C 5313   6.943   7.454   5.107  0.3957 -1.0674 -0.1438
   41MOL0     C 5314   7.022   7.519   5.014 -0.4324  0.8749  0.0952
   41MOL0     O 5315   7.136   7.461   4.966  0.3372 -0.5306 -0.2641
   41MOL0     C 5316   7.209   7.369   5.045 -0.1289  0.1509 -0.4695
   41MOL0     C 5317   7.335   7.325   4.969 -0.5733  0.0081 -1.3043
   41MOL0     C 5318   7.447   7.266   5.056 -0.8109  0.7552  0.1011
   41MOL0     C 5319   7.497   7.130   5.007 -0.1617  0.6670  0.8719
   41MOL0     C 5320   7.567   7.136   4.875 -0.7615 -0.1302  0.0488
   41MOL0     C 5321   7.682   7.035   4.857  0.2800  0.4476 -0.2463
   41MOL0     C 5322   7.766   7.042   4.730 -0.6944  0.0202  0.4827
   41MOL0     C 5323   7.720   7.140   4.616  0.5193 -0.5476 -0.9565
   41MOL0    Cl 5324   7.823   7.100   4.477 -0.2056 -0.4585  0.3356
   41MOL0     C 5325   6.977   7.646   4.968  0.6182  1.0426  0.5337
   41MOL0     C 5326   6.848   7.693   5.014  0.0816 -0.1011 -0.2062
   41MOL0     O 5327   6.783   7.821   5.342  0.1552 -0.4550 -0.5651
   41MOL0     C 5328   6.572   7.849   5.512  0.3087  0.2353 -0.1781
   41MOL0     C 5329   6.462   7.870   5.605 -0.4887  0.9159  1.5136
   41MOL0     N 5330   5.712   8.056   5.575 -0.6532 -0.8742  0.1480
   41MOL0     N 5331   5.633   8.152   5.592 -0.3052 -0.3096  0.4140
   41MOL0     C 5332   4.978   8.903   5.301  0.3708  0.1425  0.4007
   41MOL0     C 5333   4.909   8.998   5.232 -1.1057 -0.0913 -0.5735
   41MOL0     C 5334   4.817   9.297   4.893  0.3159  0.7233 -0.1770
   41MOL0     C 5335   4.876   9.402   4.832  0.3850  0.0013 -0.1997
   41MOL0     C 5336   4.809   9.484   4.744 -0.3611  0.2509  0.4959
   41MOL0     C 5337   4.681   9.446   4.697 -0.0554  0.7323 -0.4975
   41MOL0     O 5338   4.610   9.528   4.616 -0.6080 -0.1098 -0.7528
   41MOL0     C 5339   4.474   9.500   4.601  0.5530 -0.4740  0.5384
   41MOL0     C 5340   4.418   9.611   4.508 -0.4822 -0.1158  0.6943
   41MOL0     C 5341   4.429   9.758   4.560  0.4227  0.8872  0.2000
   41MOL0     C 5342   4.373   9.843   4.439 -0.3111 -1.0025 -0.4810
   41MOL0     C 5343   4.380   9.995   4.450  0.4230  0.9446  0.1213
   41MOL0     C 5344   4.385  10.114   4.466 -0.6232  1.1119  0.6861
   41MOL0     C 5345   4.623   9.330   4.747 -0.6408 -0.3222 -0.1120
   41MOL0     C 5346   4.688   9.265   4.855 -0.3221  1.1295 -0.2619
   41MOL0     H 5347   4.937   8.874   4.914  1.3254 -0.1880  0.1549
   41MOL0     H 5348   5.043   8.710   5.023  2.7894 -0.9968  1.3534
   41MOL0     H 5349   5.121   8.778   5.486  0.2109 -0.0315  0.6955
   41MOL0     H 5350   5.226   8.639   5.455 -0.9935 -3.5588  0.5271
   41MOL0     H 5351   4.931   8.605   5.474  1.1897 -1.3491 -1.9099
   41MOL0     H 5352   5.032   8.595   5.616 -1.4023  0.9664  0.6824
   41MOL0     H 5353   5.048   8.411   5.365  1.3524  0.2243 -0.6793
   41MOL0     H 5354   4.983   8.387   5.527 -0.0716 -0.3264 -0.8570
   41MOL0     H 5355   5.274   8.438   5.515 -0.5824  0.3264  1.3280
   41MOL0     H 5356   5.165   8.389   5.646 -0.9128 -1.0584  0.2991
   41MOL0     H 5357   5.191   8.227   5.396 -0.7437 -0.3074  0.1898
   41MOL0     H 5358   5.115   8.173   5.549  1.0886 -1.2752  0.1504
   41MOL0     H 5359   5.399   8.209   5.516 -0.3157 -0.3250 -1.9907
   41MOL0     H 5360   5.315   8.047   5.523 -0.4551  0.3516 -1.4364
   41MOL0     H 5361   5.238   8.183   5.762  0.5962  1.0136  0.2256
   41MOL0     H 5362   5.327   8.043   5.748  1.6708  0.5320  1.3956
   41MOL0     H 5363   5.453   8.218   5.867 -0.1951  0.5671  0.6086
   41MOL0     H 5364   5.452   8.305   5.712 -2.1386 -1.1566 -0.7334
   41MOL0     H 5365   5.603   7.987   5.873  0.5522 -3.1194 -1.4896
   41MOL0     H 5366   5.837   7.816   5.648  3.9556  0.7304 -1.2264
   41MOL0     H 5367   5.796   7.841   5.826  1.0289  3.6461  1.8734
   41MOL0     H 5368   6.021   7.899   5.818  0.9943 -1.1475 -2.4352
   41MOL0     H 5369   5.921   8.046   5.818  1.4383  1.1321 -0.1118
   41MOL0     H 5370   5.976   8.072   5.565  2.0895  0.3301 -0.7235
   41MOL0     H 5371   6.104   8.087   5.669 -0.5142  0.6394 -1.8083
   41MOL0     H 5372   6.120   7.928   5.464  1.8959 -0.8207  0.3884
   41MOL0     H 5373   6.030   7.806   5.550 -0.6863 -0.9683  2.0941
   41MOL0     H 5374   6.233   7.721   5.411  0.4181 -0.3695 -0.9409
   41MOL0     H 5375   6.418   7.680   5.273  2.6777 -1.6805 -0.0216
   41MOL0     H 5376   6.786   7.479   5.260  1.8627  1.7694  0.7297
   41MOL0     H 5377   6.976   7.354   5.132  1.3784 -0.4852  0.9948
   41MOL0     H 5378   7.149   7.279   5.057  1.5489 -0.7758  1.7286
   41MOL0     H 5379   7.222   7.407   5.147 -0.1299 -0.3502 -0.2806
   41MOL0     H 5380   7.369   7.412   4.913 -1.1833  1.0984 -0.0227
   41MOL0     H 5381   7.305   7.253   4.892 -1.7366 -0.9459 -0.0138
   41MOL0     H 5382   7.424   7.253   5.162  2.1293  1.5449  0.9385
   41MOL0     H 5383   7.531   7.336   5.062  1.1729 -1.1450 -2.9873
   41MOL0     H 5384   7.571   7.101   5.082  0.4027 -1.0428 -0.2886
   41MOL0     H 5385   7.414   7.059   5.012 -0.6505  1.1875  0.3082
   41MOL0     H 5386   7.605   7.237   4.861  1.1983 -0.6702  1.0812
   41MOL0     H 5387   7.491   7.124   4.797 -0.7546  0.9040 -0.1266
   41MOL0     H 5388   7.652   6.930   4.862  0.5394  0.4395  2.9393
   41MOL0     H 5389   7.746   7.046   4.945 -1.9385 -0.5590  1.6079
   41MOL0     H 5390   7.864   7.081   4.759 -0.2412  1.0161 -2.1361
   41MOL0     H 5391   7.784   6.944   4.685 -0.1729  0.4385 -0.2445
   41MOL0     H 5392   7.738   7.236   4.665 -0.9437 -1.3418  1.3252
   41MOL0     H 5393   7.613   7.135   4.591  0.3821  0.4813 -0.6148
   41MOL0     H 5394   7.027   7.703   4.890  1.7722 -0.4194  0.1580
   41MOL0     H 5395   6.810   7.785   4.970  1.6890 -0.5803 -2.7622
   41MOL0     H 5396   6.664   7.900   5.538  0.6560 -0.0755 -0.7800
   41MOL0     H 5397   6.471   7.929   5.695  0.3423 -0.5807  2.4301
   41MOL0     H 5398   4.979   8.916   5.409  0.9692 -0.4216  0.4704
   41MOL0     H 5399   4.873   9.082   5.291  0.0958 -0.6579  1.0299
   41MOL0     H 5400   4.978   9.432   4.852  0.1033  0.7220  0.1837
   41MOL0     H 5401   4.859   9.576   4.714  0.2895 -0.0573  0.6264
   41MOL0     H 5402   4.417   9.492   4.694 -0.5970 -0.4815 -0.1379
   41MOL0     H 5403   4.457   9.407   4.546  0.3184 -0.3300  0.3667
   41MOL0     H 5404   4.469   9.596   4.413 -0.7165  0.4556  0.4754
   41MOL0     H 5405   4.312   9.591   4.489 -1.6215  2.8454  3.1564
   41MOL0     H 5406   4.535   9.773   4.585  0.9908 -1.3817 -0.6057
   41MOL0     H 5407   4.363   9.782   4.644 -0.4516 -3.0443  0.8315
   41MOL0     H 5408   4.419   9.832   4.340 -0.9956  0.3491 -0.9780
   41MOL0     H 5409   4.265   9.828   4.432 -0.8829  1.2573  2.0417
   41MOL0     H 5410   4.395  10.220   4.479  0.8187  1.1921 -0.8416
   41MOL0     H 5411   4.528   9.287   4.717 -0.1744 -0.8789 -0.8162
   41MOL0     H 5412   4.640   9.191   4.919  2.3204 -0.5791 -0.0977
   42MOL0     O 5413   0.209   6.467   9.294 -0.0816  0.3693  0.2753
   42MOL0     C 5414   0.159   6.355   9.275  0.3744  0.1062  0.2304
   42MOL0     O 5415   0.210   6.233   9.274 -0.6099 -0.4974  0.0117
   42MOL0     C 5416   0.345   6.216   9.300  0.1524  0.0488 -0.1706
   42MOL0     C 5417   0.388   6.197   9.432 -0.0546  0.7420 -0.4664
   42MOL0     C 5418   0.523   6.175   9.456 -0.2746 -0.2398 -0.6732
   42MOL0     C 5419   0.618   6.175   9.351  1.0337 -0.3561  0.4053
   42MOL0     O 5420   0.749   6.149   9.355 -0.7140 -0.1030  0.7031
   42MOL0     C 5421   0.799   6.107   9.481 -0.3660  0.4696 -1.3706
   42MOL0     C 5422   0.941   6.052   9.481 -0.2173 -0.1597 -0.0870
   42MOL0     C 5423   0.958   5.921   9.423  0.5362 -0.3046  0.0718
   42MOL0     C 5424   1.098   5.862   9.447  0.0454  1.7590  0.2578
   42MOL0     C 5425   1.114   5.712   9.396 -0.7265 -0.4273 -1.2642
   42MOL0     C 5426   1.091   5.685   9.251 -0.1268  0.8317  0.6574
   42MOL0     C 5427   1.063   5.536   9.223 -0.3024 -0.3338  0.4353
   42MOL0     C 5428   0.934   5.466   9.277  0.3104  0.5937 -1.0539
   42MOL0     N 5429   0.816   5.525   9.225 -0.1473 -1.0228 -0.8931
   42MOL0     C 5430   0.734   5.611   9.299  0.6108  1.1190  0.6450
   42MOL0     C 5431   0.668   5.681   9.210  0.5812 -0.3480  0.2867
   42MOL0     C 5432   0.571   5.800   9.245  0.1662 -0.1637  0.5438
   42MOL0     C 5433   0.425   5.757   9.261  0.7983  0.1363  0.2168
   42MOL0     C 5434   0.335   5.878   9.292  0.1761  0.0093 -0.4126
   42MOL0     C 5435   0.195   5.827   9.298  0.0213 -0.2253 -0.2365
   42MOL0     O 5436   0.113   5.946   9.325 -1.2343  0.0371 -0.1841
   42MOL0     C 5437  -0.002   5.932   9.400  0.9189  0.9578  0.1956
   42MOL0     C 5438  -0.075   5.812   9.408 -0.9319  0.1601 -0.0318
   42MOL0     C 5439  -0.196   5.802   9.473 -0.6117 -0.0495  0.3140
   42MOL0     C 5440  -0.236   5.910   9.553 -0.2208  0.2277 -0.4560
   42MOL0     C 5441  -0.365   5.901   9.620 -0.7121  0.4758 -0.1484
   42MOL0     O 5442  -0.382   5.989   9.725  0.3277  0.0861 -0.0427
   42MOL0     C 5443  -0.510   6.020   9.755 -0.1379 -0.4373  0.1543
   42MOL0     C 5444  -0.562   5.989   9.884  0.6753  0.1731 -0.3617
   42MOL0     C 5445  -0.704   6.010   9.913 -0.2875  0.5961  0.3875
   42MOL0     C 5446  -0.789   6.054   9.811  0.1428 -0.1448  0.3271
   42MOL0     O 5447  -0.920   6.062   9.826  0.0511 -0.2424 -0.4034
   42MOL0     C 5448  -0.972   6.098   9.959 -1.3908  0.6015  0.4979
   42MOL0     C 5449  -1.113   6.133   9.944  1.2718 -1.5648  0.7491
   42MOL0     C 5450  -1.132   6.248   9.840 -0.1585  0.5390  0.2739
   42MOL0     C 5451  -1.277   6.300   9.849 -0.0244  0.0567  0.4752
   42MOL0     C 5452  -1.318   6.392   9.732 -0.2972  1.1882  0.1655
   42MOL0     C 5453  -1.467   6.415   9.726  0.5444 -1.1512 -0.6663
   42MOL0     C 5454  -1.482   6.527   9.614 -0.3256  0.7501 -0.0607
   42MOL0     C 5455  -1.623   6.577   9.605  0.1230 -0.3370 -0.1350
   42MOL0    Cl 5456  -1.670   6.661   9.755 -0.3622  0.2151  0.1193
   42MOL0     C 5457  -0.736   6.080   9.684  0.2379  0.0566  0.7249
   42MOL0     C 5458  -0.598   6.065   9.657  0.0364  0.1438  0.2420
   42MOL0     O 5459  -0.445   5.822   9.575 -0.1844  0.0463  0.0677
   42MOL0     C 5460  -0.159   6.025   9.556  1.3447 -0.5690  0.0740
   42MOL0     C 5461  -0.049   6.037   9.474  0.2154  0.0054  0.2194
   42MOL0     N 5462   0.712   5.647   9.082 -0.2069  1.2107 -0.4528
   42MOL0     N 5463   0.802   5.555   9.089  0.0826  0.0078 -0.8089
   42MOL0     C 5464   0.568   6.185   9.216 -0.9746  0.1972 -0.3892
   42MOL0     C 5465   0.431   6.202   9.194 -0.3709  0.0974 -0.1804
   42MOL0     C 5466   0.012   6.357   9.239 -1.6419 -0.8263  0.1751
   42MOL0     C 5467  -0.067   6.463   9.271 -1.4635 -0.5753 -0.5234
   42MOL0     C 5468  -0.209   6.461   9.247  0.3052 -0.1226  0.5432
   42MOL0     C 5469  -0.275   6.358   9.185  0.2843 -0.5794  0.3697
   42MOL0     O 5470  -0.412   6.369   9.188 -0.2969  0.0163  0.2766
   42MOL0     C 5471  -0.494   6.277   9.124 -0.6025 -0.0345 -0.2813
   42MOL0     C 5472  -0.629   6.316   9.069 -0.6863  0.1925  0.0273
   42MOL0     C 5473  -0.716   6.391   9.182 -0.9921  0.1973 -0.0709
   42MOL0     C 5474  -0.748   6.303   9.299 -0.4818  0.0742  0.4480
   42MOL0     C 5475  -0.819   6.181   9.246 -0.3366  0.3237  0.4082
   42MOL0     C 5476  -0.870   6.082   9.205  0.6101 -0.1623 -0.3265
   42MOL0     C 5477  -0.191   6.247   9.148  0.9491  0.3421 -0.3746
   42MOL0     C 5478  -0.056   6.250   9.181  0.0176  0.9083  0.0304
   42MOL0     H 5479   0.319   6.193   9.516  2.8168 -1.6077  2.0270
   42MOL0     H 5480   0.548   6.155   9.560  0.0758 -0.7487 -0.8528
   42MOL0     H 5481   0.732   6.029   9.516 -1.4193  0.4789 -3.2884
   42MOL0     H 5482   0.793   6.196   9.545 -1.0447 -0.0841 -0.6492
   42MOL0     H 5483   0.978   6.054   9.584 -1.3821  0.5312  0.3371
   42MOL0     H 5484   1.011   6.116   9.426  0.7685 -0.4022  0.8599
   42MOL0     H 5485   0.951   5.932   9.314  2.0242  0.9803  0.0682
   42MOL0     H 5486   0.880   5.859   9.468  0.7193  1.2876  2.8089
   42MOL0     H 5487   1.176   5.918   9.394 -0.3292  0.2210 -2.0764
   42MOL0     H 5488   1.127   5.859   9.552  3.8119 -0.7506 -0.6307
   42MOL0     H 5489   1.046   5.656   9.461 -1.3143  2.2762  0.6463
   42MOL0     H 5490   1.213   5.681   9.431 -1.5090 -0.5936  0.9740
   42MOL0     H 5491   1.179   5.719   9.195  0.7412 -1.4097  0.5283
   42MOL0     H 5492   1.007   5.737   9.205  0.4924  0.9032 -0.4235
   42MOL0     H 5493   1.058   5.519   9.115 -2.0290  0.8571  0.2937
   42MOL0     H 5494   1.153   5.494   9.270  0.5458 -2.1030 -2.5118
   42MOL0     H 5495   0.930   5.472   9.386  0.6119 -0.6186 -0.9682
   42MOL0     H 5496   0.938   5.358   9.262  2.0718 -0.1346  3.1112
   42MOL0     H 5497   0.695   5.615   9.400 -2.5059  3.4695 -0.4846
   42MOL0     H 5498   0.571   5.867   9.158  0.2754  1.5761  1.8198
   42MOL0     H 5499   0.607   5.864   9.327  2.6426 -0.4411 -0.2318
   42MOL0     H 5500   0.410   5.687   9.343 -4.9078 -0.1759 -0.7222
   42MOL0     H 5501   0.386   5.719   9.166  0.0696  2.7454 -0.6293
   42MOL0     H 5502   0.373   5.912   9.389  0.6887  0.3978 -0.7417
   42MOL0     H 5503   0.343   5.950   9.210 -0.5558 -0.4019 -0.8514
   42MOL0     H 5504   0.192   5.749   9.374 -1.5491  0.2588  0.2384
   42MOL0     H 5505   0.167   5.799   9.196  0.5480  1.4759 -0.8881
   42MOL0     H 5506  -0.043   5.720   9.360 -1.4114 -1.5199  2.6199
   42MOL0     H 5507  -0.236   5.701   9.472 -1.3011  0.2094  1.1521
   42MOL0     H 5508  -0.488   5.941   9.946  1.5211  1.0481 -0.6791
   42MOL0     H 5509  -0.742   5.982  10.010  0.9776  0.4315  0.8459
   42MOL0     H 5510  -0.911   6.184   9.988  3.3083 -2.1511 -0.1480
   42MOL0     H 5511  -0.956   6.011  10.023 -0.4170 -1.9317 -2.8998
   42MOL0     H 5512  -1.140   6.176  10.041  2.5272  4.1676 -1.0573
   42MOL0     H 5513  -1.177   6.050   9.912 -1.9369  1.5348 -1.5795
   42MOL0     H 5514  -1.102   6.207   9.743 -0.0434 -1.2216  1.0241
   42MOL0     H 5515  -1.069   6.337   9.855 -0.3169  0.5770  0.7351
   42MOL0     H 5516  -1.341   6.212   9.856 -1.4638  1.0442  0.0884
   42MOL0     H 5517  -1.292   6.370   9.932 -2.1011  5.3369 -3.7307
   42MOL0     H 5518  -1.290   6.334   9.644 -1.4803 -4.7506  3.1756
   42MOL0     H 5519  -1.265   6.486   9.747  3.0690 -0.6327  0.4444
   42MOL0     H 5520  -1.498   6.458   9.822 -3.9731  1.3664 -2.9277
   42MOL0     H 5521  -1.524   6.325   9.702 -0.9213  0.1441 -2.3190
   42MOL0     H 5522  -1.415   6.611   9.636 -1.7008  2.6087 -2.5364
   42MOL0     H 5523  -1.449   6.485   9.519 -1.3167  0.5477 -0.3218
   42MOL0     H 5524  -1.691   6.494   9.586 -0.6911  0.1706  0.4842
   42MOL0     H 5525  -1.640   6.640   9.517  2.2367  1.9175  0.9272
   42MOL0     H 5526  -0.802   6.107   9.602 -0.1223 -0.5310  0.8172
   42MOL0     H 5527  -0.555   6.071   9.557  1.8769 -3.3783  0.6329
   42MOL0     H 5528  -0.185   6.105   9.624  2.7121 -0.2561  0.2578
   42MOL0     H 5529  -0.003   6.136   9.468 -1.7941  0.9645 -0.2926
   42MOL0     H 5530   0.636   6.182   9.131  1.3445  1.2593  1.3231
   42MOL0     H 5531   0.391   6.201   9.093 -2.7044  2.3354  0.6106
   42MOL0     H 5532  -0.031   6.551   9.324 -0.2258 -2.0362  1.2110
   42MOL0     H 5533  -0.267   6.543   9.287 -3.5811 -1.0972 -2.4535
   42MOL0     H 5534  -0.505   6.193   9.193 -1.5599  1.2235  1.1727
   42MOL0     H 5535  -0.439   6.247   9.034  0.3384  0.9404 -0.0541
   42MOL0     H 5536  -0.609   6.388   8.989  0.6867  1.9542  1.8494
   42MOL0     H 5537  -0.679   6.230   9.024 -1.2892  1.5417 -2.0376
   42MOL0     H 5538  -0.809   6.430   9.140  1.3234  1.9643 -4.0441
   42MOL0     H 5539  -0.661   6.473   9.230 -3.7789  1.2617  1.5436
   42MOL0     H 5540  -0.652   6.281   9.347  0.6171  1.7319 -0.8623
   42MOL0     H 5541  -0.820   6.346   9.369 -1.8769 -1.9640  0.3463
   42MOL0     H 5542  -0.921   6.005   9.151  0.0721  0.2587 -0.4282
   42MOL0     H 5543  -0.239   6.152   9.123 -0.8365  1.0392  0.2544
   42MOL0     H 5544   0.004   6.162   9.162  1.4514  1.7149  0.6228
   43MOL0     O 5545   4.512   9.227   1.167  0.1794  0.0298 -0.2467
   43MOL0     C 5546   4.550   9.231   1.282  0.1620 -0.1875  0.3827
   43MOL0     O 5547   4.483   9.167   1.386 -0.9144 -0.3497 -0.1162
   43MOL0     C 5548   4.366   9.088   1.382 -0.1786 -0.0593 -0.0501
   43MOL0     C 5549   4.272   9.115   1.289 -0.6141 -0.1848  0.2161
   43MOL0     C 5550   4.152   9.046   1.292  0.5878 -0.2015  0.4605
   43MOL0     C 5551   4.116   8.950   1.385  0.0656 -0.2174  0.2355
   43MOL0     O 5552   3.999   8.883   1.372 -0.0004  0.0554 -0.3382
   43MOL0     C 5553   3.901   8.887   1.480 -1.3562 -0.5284 -0.1105
   43MOL0     C 5554   3.768   8.841   1.411 -0.1245 -0.3832 -0.0468
   43MOL0     C 5555   3.643   8.826   1.505  0.8264  0.3634  0.8718
   43MOL0     C 5556   3.513   8.801   1.419 -0.8580 -0.9068  0.3114
   43MOL0     C 5557   3.404   8.790   1.521 -0.1973 -0.7221 -0.1744
   43MOL0     C 5558   3.274   8.753   1.457 -0.2855  0.1369 -0.8434
   43MOL0     C 5559   3.201   8.661   1.554 -0.1201  0.2266  0.1232
   43MOL0     C 5560   3.079   8.610   1.483  0.4531  0.3125  0.2290
   43MOL0     N 5561   2.959   8.701   1.500  0.0669 -0.7329 -1.1459
   43MOL0     C 5562   2.892   8.730   1.625 -0.8761 -0.2932 -0.9058
   43MOL0     C 5563   2.791   8.810   1.588 -0.6352 -0.1213  0.1991
   43MOL0     C 5564   2.665   8.825   1.669  0.5021 -0.1163 -0.2683
   43MOL0     C 5565   2.639   8.973   1.703  0.3833  0.3584  0.3085
   43MOL0     C 5566   2.727   9.033   1.818 -0.1668  0.7686  0.2281
   43MOL0     C 5567   2.875   9.041   1.782 -0.7305 -0.0642  0.0752
   43MOL0     O 5568   2.927   9.140   1.876  0.0895  0.9023  0.5183
   43MOL0     C 5569   3.054   9.188   1.860  0.5979  0.6004 -0.7919
   43MOL0     C 5570   3.134   9.138   1.755 -0.4530 -1.4505 -0.2440
   43MOL0     C 5571   3.253   9.202   1.736  0.0779 -0.3434 -0.7285
   43MOL0     C 5572   3.305   9.298   1.827 -0.0369  0.4846  0.3287
   43MOL0     C 5573   3.441   9.360   1.809 -0.3105  0.9934  0.6332
   43MOL0     O 5574   3.529   9.277   1.744  0.4618  0.5242  0.3217
   43MOL0     C 5575   3.669   9.290   1.750  0.5532  0.1477 -1.1884
   43MOL0     C 5576   3.738   9.234   1.645  0.0175  0.0427 -0.3965
   43MOL0     C 5577   3.875   9.236   1.644 -0.4472  0.3838  0.1878
   43MOL0     C 5578   3.956   9.307   1.745 -0.7145  0.1561  0.5004
   43MOL0     O 5579   4.093   9.324   1.750 -0.1726  0.7282 -0.2250
   43MOL0     C 5580   4.160   9.194   1.721  0.3178 -1.0263 -0.4712
   43MOL0     C 5581   4.290   9.189   1.798  0.4171  1.2245  0.1461
   43MOL0     C 5582   4.381   9.313   1.767 -0.4512 -0.5808  0.6734
   43MOL0     C 5583   4.515   9.306   1.845 -0.0662  0.4209  0.7518
   43MOL0     C 5584   4.613   9.397   1.786  0.3833  0.7467 -0.0620
   43MOL0     C 5585   4.727   9.441   1.885  0.6566  0.3326 -0.0784
   43MOL0     C 5586   4.812   9.549   1.829 -0.4183  0.4669 -0.0059
   43MOL0     C 5587   4.937   9.571   1.919  0.7933  0.2232  0.4039
   43MOL0    Cl 5588   5.021   9.705   1.851  0.0968 -0.1263  0.6285
   43MOL0     C 5589   3.883   9.362   1.847 -0.4215  0.0017  0.0367
   43MOL0     C 5590   3.746   9.347   1.856  0.6179  0.9158  0.7322
   43MOL0     O 5591   3.477   9.466   1.865  0.1697 -0.2481  0.7823
   43MOL0     C 5592   3.222   9.338   1.934  0.1040  0.0035 -0.3083
   43MOL0     C 5593   3.086   9.292   1.937  0.0447 -0.2042 -0.0281
   43MOL0     N 5594   2.808   8.839   1.448  0.6963 -1.3218 -0.1360
   43MOL0     N 5595   2.904   8.766   1.394  0.0903  0.7492 -0.3307
   43MOL0     C 5596   4.217   8.921   1.476  0.6327  0.3992 -0.8644
   43MOL0     C 5597   4.340   8.992   1.473 -0.1638 -0.4222  0.0090
   43MOL0     C 5598   4.680   9.298   1.332 -0.3565  0.1389  1.0703
   43MOL0     C 5599   4.727   9.419   1.270 -0.6752  0.1038 -0.1251
   43MOL0     C 5600   4.840   9.491   1.309  0.1052  0.0055 -0.0830
   43MOL0     C 5601   4.903   9.451   1.428 -0.2322 -0.1092  0.3090
   43MOL0     O 5602   5.009   9.518   1.489  0.1374 -0.5232 -0.7289
   43MOL0     C 5603   5.070   9.627   1.438 -0.2665 -1.0937  0.6259
   43MOL0     C 5604   5.193   9.636   1.515 -0.1442 -0.7389 -0.2458
   43MOL0     C 5605   5.269   9.759   1.471 -1.1406  0.1188  0.1288
   43MOL0     C 5606   5.358   9.815   1.582 -0.2538 -0.1391  0.0018
   43MOL0     C 5607   5.423   9.942   1.550 -0.3029  0.3180  0.5247
   43MOL0     C 5608   5.484  10.043   1.513  0.5705  0.3495 -0.5504
   43MOL0     C 5609   4.856   9.337   1.499 -0.2209  0.6919  1.1107
   43MOL0     C 5610   4.755   9.255   1.448 -0.1391  0.9842  0.0304
   43MOL0     H 5611   4.288   9.178   1.202  1.7148 -0.6128  0.2709
   43MOL0     H 5612   4.088   9.062   1.206  2.1831  3.5095 -0.2677
   43MOL0     H 5613   3.890   8.992   1.511 -1.6723 -0.8888  1.0648
   43MOL0     H 5614   3.924   8.827   1.568 -1.3173  1.9209  1.6643
   43MOL0     H 5615   3.784   8.741   1.369 -1.3733 -0.1450 -1.1639
   43MOL0     H 5616   3.755   8.913   1.330  3.9978  1.1404  0.3872
   43MOL0     H 5617   3.631   8.923   1.553  3.0439  0.5798  1.1234
   43MOL0     H 5618   3.641   8.744   1.578 -1.4441 -2.9779 -2.6059
   43MOL0     H 5619   3.490   8.894   1.366  0.5901  0.2624  1.6128
   43MOL0     H 5620   3.522   8.716   1.351  3.0271 -0.6460  0.2516
   43MOL0     H 5621   3.383   8.893   1.551 -2.0249 -0.6040 -1.6966
   43MOL0     H 5622   3.433   8.733   1.610 -2.7201 -1.5604  0.1958
   43MOL0     H 5623   3.303   8.688   1.374  2.1859  2.5474 -2.0493
   43MOL0     H 5624   3.213   8.842   1.435 -0.8123 -0.1717 -0.6609
   43MOL0     H 5625   3.271   8.584   1.587  1.1345  0.0533 -2.6558
   43MOL0     H 5626   3.173   8.731   1.634 -0.1431 -0.5600  0.8170
   43MOL0     H 5627   3.052   8.518   1.535 -1.5560  0.4869 -0.3901
   43MOL0     H 5628   3.102   8.577   1.381  0.6300  2.9726 -0.6544
   43MOL0     H 5629   2.922   8.691   1.721 -0.4569  0.5308 -0.6896
   43MOL0     H 5630   2.677   8.780   1.768  0.8846  2.3219  0.8668
   43MOL0     H 5631   2.585   8.770   1.619 -0.1016  0.8211 -0.3565
   43MOL0     H 5632   2.536   8.974   1.739  0.2951  0.1328  0.0684
   43MOL0     H 5633   2.649   9.035   1.613 -0.3437  0.6213  0.4049
   43MOL0     H 5634   2.693   9.135   1.833  0.8741  1.2570 -0.6008
   43MOL0     H 5635   2.712   8.980   1.913  3.4294 -1.6574 -0.3553
   43MOL0     H 5636   2.892   9.072   1.679 -2.0820  1.9372  0.3992
   43MOL0     H 5637   2.913   8.939   1.794 -1.2832 -0.4385 -1.1688
   43MOL0     H 5638   3.118   9.053   1.690 -2.6342 -2.7703  1.8891
   43MOL0     H 5639   3.315   9.177   1.651  2.2169 -0.0957  0.6807
   43MOL0     H 5640   3.678   9.179   1.573  0.7807  1.9292 -2.6073
   43MOL0     H 5641   3.934   9.191   1.564 -0.3777 -0.4528  0.6957
   43MOL0     H 5642   4.184   9.193   1.615 -1.7547 -1.9613 -0.9750
   43MOL0     H 5643   4.098   9.110   1.753  0.0189 -0.8171 -0.5039
   43MOL0     H 5644   4.346   9.099   1.771 -0.6229  0.0717  1.6527
   43MOL0     H 5645   4.262   9.183   1.904 -2.1086  0.0505 -0.5193
   43MOL0     H 5646   4.328   9.405   1.790  0.7238  0.5354 -0.8397
   43MOL0     H 5647   4.395   9.320   1.658  0.0106 -2.1383  0.6074
   43MOL0     H 5648   4.500   9.340   1.948  2.5395  0.3889  1.2000
   43MOL0     H 5649   4.555   9.204   1.839  3.9667  1.8984 -1.6541
   43MOL0     H 5650   4.547   9.479   1.757 -1.1488 -0.5236 -0.3172
   43MOL0     H 5651   4.655   9.343   1.701 -1.4787  0.0445 -0.5882
   43MOL0     H 5652   4.792   9.354   1.898  0.9401 -0.1491 -3.5949
   43MOL0     H 5653   4.680   9.475   1.977 -2.1575 -2.1939 -0.4613
   43MOL0     H 5654   4.851   9.511   1.734  3.7103  0.0849  1.6086
   43MOL0     H 5655   4.754   9.638   1.806  2.3844  2.1564 -1.0801
   43MOL0     H 5656   5.007   9.487   1.923 -1.1532 -1.4324  1.4930
   43MOL0     H 5657   4.901   9.595   2.020 -0.1797 -1.0541  0.3741
   43MOL0     H 5658   3.946   9.411   1.921 -1.1917 -0.2105  0.8469
   43MOL0     H 5659   3.695   9.348   1.951  0.8698  1.9704  0.8667
   43MOL0     H 5660   3.253   9.420   1.998 -2.7571  0.6131  0.4724
   43MOL0     H 5661   3.005   9.338   1.993  2.2546  3.1884  0.7301
   43MOL0     H 5662   4.189   8.854   1.556  0.3350  2.1176  0.5269
   43MOL0     H 5663   4.418   8.981   1.547 -0.1022 -0.0337  0.0057
   43MOL0     H 5664   4.678   9.451   1.179  2.2420  1.8868 -1.2034
   43MOL0     H 5665   4.867   9.576   1.247 -2.7847 -1.0347 -2.9871
   43MOL0     H 5666   5.009   9.717   1.426  2.6145  0.7256 -1.8692
   43MOL0     H 5667   5.114   9.607   1.340 -3.0579  2.8170 -1.7034
   43MOL0     H 5668   5.170   9.659   1.619  2.9826  1.4694  0.1177
   43MOL0     H 5669   5.240   9.538   1.514 -2.6444 -2.0338  1.0886
   43MOL0     H 5670   5.201   9.842   1.451 -0.6662  0.6595  0.7383
   43MOL0     H 5671   5.319   9.723   1.381  2.6993 -0.8731  2.4038
   43MOL0     H 5672   5.296   9.835   1.670  1.2060 -1.0131  1.2845
   43MOL0     H 5673   5.426   9.731   1.596  0.6793  0.8368  1.6214
   43MOL0     H 5674   5.528  10.123   1.457  3.0162  0.6222  1.5830
   43MOL0     H 5675   4.911   9.314   1.589  2.2031  2.4688  0.1897
   43MOL0     H 5676   4.711   9.177   1.508 -4.5578  0.2157 -3.6601
   44MOL0     O 5677   9.992   2.852   6.158  0.4010 -0.9034 -0.7871
   44MOL0     C 5678   9.993   2.958   6.097 -0.8171 -0.1969  0.3302
   44MOL0     O 5679   9.881   3.031   6.073  0.1929  0.0329  1.2680
   44MOL0     C 5680   9.760   2.992   6.129 -0.0943  0.6484  0.0774
   44MOL0     C 5681   9.704   3.078   6.227 -0.1243 -0.6863  0.6455
   44MOL0     C 5682   9.580   3.061   6.284  1.0099  0.2560 -0.7182
   44MOL0     C 5683   9.497   2.952   6.239  0.7641  0.5772 -0.7061
   44MOL0     O 5684   9.370   2.949   6.295  0.4632  0.2469 -0.0165
   44MOL0     C 5685   9.279   2.851   6.246 -0.4716  0.8962 -0.3799
   44MOL0     C 5686   9.151   2.851   6.330 -1.0698  0.1677  0.4213
   44MOL0     C 5687   9.088   2.713   6.337  0.7524  0.1769 -0.1146
   44MOL0     C 5688   8.958   2.702   6.423  0.3347  0.3614  0.6770
   44MOL0     C 5689   8.837   2.788   6.379 -0.0725  0.2025 -0.0808
   44MOL0     C 5690   8.783   2.740   6.238 -0.6946  0.2455 -0.5181
   44MOL0     C 5691   8.643   2.788   6.233 -0.4024  1.4249 -0.1467
   44MOL0     C 5692   8.604   2.810   6.085  0.3453 -0.3742  0.5240
   44MOL0     N 5693   8.614   2.708   5.981  0.2388  0.0438  0.9318
   44MOL0     C 5694   8.730   2.707   5.899 -0.7421  0.0408 -0.4103
   44MOL0     C 5695   8.712   2.609   5.811 -0.0004  0.5716  1.3973
   44MOL0     C 5696   8.786   2.550   5.691  1.1358  0.5681  0.1569
   44MOL0     C 5697   8.688   2.491   5.579 -0.5543 -0.7894 -0.5376
   44MOL0     C 5698   8.589   2.601   5.524  0.4945  0.1980  0.3500
   44MOL0     C 5699   8.453   2.562   5.478 -0.0334  0.7638 -0.1675
   44MOL0     O 5700   8.371   2.501   5.578  1.0934  0.1647 -0.3843
   44MOL0     C 5701   8.267   2.581   5.625  0.2850  0.0758 -0.6697
   44MOL0     C 5702   8.279   2.658   5.739  0.2449  0.0607 -0.4037
   44MOL0     C 5703   8.162   2.723   5.793  0.1895 -0.0718  1.0863
   44MOL0     C 5704   8.046   2.725   5.722  0.1307  0.5828  0.3837
   44MOL0     C 5705   7.923   2.793   5.766  0.2083  1.1393 -0.1579
   44MOL0     O 5706   7.796   2.746   5.699 -0.3605 -0.9075 -0.1328
   44MOL0     C 5707   7.675   2.808   5.724 -0.6186 -0.1754  0.3419
   44MOL0     C 5708   7.589   2.794   5.615 -0.8376  0.4093  0.0148
   44MOL0     C 5709   7.474   2.878   5.608  0.0472  0.9184  0.9493
   44MOL0     C 5710   7.456   2.974   5.703  1.0283  0.0549  0.1671
   44MOL0     O 5711   7.365   3.079   5.693 -0.3247 -0.6151  0.1556
   44MOL0     C 5712   7.263   3.091   5.599  0.3498  0.1841  0.1429
   44MOL0     C 5713   7.302   3.211   5.515  0.3439 -0.1762  0.8069
   44MOL0     C 5714   7.294   3.342   5.588 -0.6937 -0.2916  0.1056
   44MOL0     C 5715   7.343   3.461   5.506  1.0327  0.2149 -0.4881
   44MOL0     C 5716   7.495   3.473   5.499 -0.2989 -0.2814  0.0340
   44MOL0     C 5717   7.558   3.565   5.607  0.3679 -0.2529  0.1169
   44MOL0     C 5718   7.705   3.567   5.635 -0.1113 -1.2346  0.4996
   44MOL0     C 5719   7.782   3.446   5.592  0.3915 -0.1268  0.4543
   44MOL0    Cl 5720   7.951   3.472   5.620 -0.1202  0.2714 -0.6464
   44MOL0     C 5721   7.536   2.973   5.817  0.1800 -0.4354  0.6398
   44MOL0     C 5722   7.638   2.884   5.836 -0.3861  0.6829  0.0861
   44MOL0     O 5723   7.932   2.874   5.854  0.6416 -0.5295 -0.0720
   44MOL0     C 5724   8.048   2.669   5.593  0.8161  0.1335  0.5334
   44MOL0     C 5725   8.151   2.589   5.552 -0.4170 -0.2009 -0.5201
   44MOL0     N 5726   8.601   2.546   5.851  0.2511  0.4579  0.6204
   44MOL0     N 5727   8.537   2.604   5.950  0.4317  0.8113 -0.5965
   44MOL0     C 5728   9.553   2.854   6.154 -0.0599  0.7512  0.7609
   44MOL0     C 5729   9.683   2.876   6.095 -0.6252  0.0861 -0.2853
   44MOL0     C 5730  10.125   3.010   6.050 -0.8318 -0.8020 -0.4526
   44MOL0     C 5731  10.211   2.935   5.982 -0.4272 -0.1808 -0.0936
   44MOL0     C 5732  10.335   2.980   5.945 -1.0487 -0.5088 -0.8569
   44MOL0     C 5733  10.380   3.110   5.980  1.0380  0.0629 -0.3349
   44MOL0     O 5734  10.508   3.150   5.940  0.8397  0.3732 -0.2865
   44MOL0     C 5735  10.550   3.270   5.995 -0.5075  0.3044  0.2038
   44MOL0     C 5736  10.698   3.266   5.957  0.6311 -0.2091  0.0614
   44MOL0     C 5737  10.761   3.374   6.038 -0.1652 -0.1019  0.0179
   44MOL0     C 5738  10.824   3.318   6.169  0.0804 -0.0603 -0.2864
   44MOL0     C 5739  10.887   3.418   6.263 -0.1134  0.1851 -0.2616
   44MOL0     C 5740  10.932   3.512   6.326 -0.2684  0.1920  0.3096
   44MOL0     C 5741  10.296   3.183   6.067  0.0616  0.3253  0.0915
   44MOL0     C 5742  10.170   3.130   6.106  0.1080 -0.7042  0.1842
   44MOL0     H 5743   9.773   3.157   6.254 -0.1124 -1.5279  3.3717
   44MOL0     H 5744   9.545   3.132   6.358 -3.6412  0.8164 -3.1003
   44MOL0     H 5745   9.325   2.754   6.267 -0.1060  1.1654  0.1013
   44MOL0     H 5746   9.260   2.862   6.139 -0.8923 -1.0361 -0.5436
   44MOL0     H 5747   9.081   2.914   6.274 -1.5479  0.6569  1.5151
   44MOL0     H 5748   9.172   2.899   6.427  0.2064  1.3341 -0.4071
   44MOL0     H 5749   9.163   2.647   6.380 -1.2184 -0.7210  2.1697
   44MOL0     H 5750   9.067   2.684   6.234  0.1486 -2.9279  0.7919
   44MOL0     H 5751   8.925   2.600   6.443 -0.2618  0.1304 -1.2903
   44MOL0     H 5752   8.989   2.746   6.519  2.1193 -1.8179  1.1721
   44MOL0     H 5753   8.869   2.893   6.375 -1.7830  0.8451  1.7814
   44MOL0     H 5754   8.758   2.760   6.449  0.6035 -2.2347 -0.1853
   44MOL0     H 5755   8.799   2.632   6.237 -0.8978  0.2003 -2.6459
   44MOL0     H 5756   8.846   2.778   6.156 -0.4611 -3.1344 -2.0512
   44MOL0     H 5757   8.591   2.706   6.283  2.6324 -1.0346 -0.6566
   44MOL0     H 5758   8.635   2.878   6.294 -1.0155  0.5673  1.0792
   44MOL0     H 5759   8.644   2.904   6.045 -0.7205  0.6454  1.7767
   44MOL0     H 5760   8.497   2.829   6.075  0.5801  0.9862  0.4053
   44MOL0     H 5761   8.812   2.777   5.912 -0.5391 -0.4597  1.1363
   44MOL0     H 5762   8.852   2.474   5.736 -2.2136 -0.3651  4.1084
   44MOL0     H 5763   8.835   2.638   5.649 -1.3904  2.3076  0.6375
   44MOL0     H 5764   8.640   2.402   5.621 -0.5100  0.2679  1.9175
   44MOL0     H 5765   8.759   2.459   5.502 -2.1765  0.9108 -2.8785
   44MOL0     H 5766   8.569   2.671   5.605  1.8686 -2.5074  3.2495
   44MOL0     H 5767   8.638   2.642   5.435  1.1238 -1.0617  0.0945
   44MOL0     H 5768   8.482   2.491   5.400  4.5495  3.9092 -1.7668
   44MOL0     H 5769   8.408   2.647   5.425 -1.4023  0.9132  1.1691
   44MOL0     H 5770   8.377   2.660   5.785 -0.0258 -1.1465  0.2720
   44MOL0     H 5771   8.160   2.777   5.888 -2.9951  0.7527  0.6438
   44MOL0     H 5772   7.620   2.729   5.533  0.2011 -1.1329  1.5690
   44MOL0     H 5773   7.413   2.857   5.521  2.9345  0.7343 -1.1607
   44MOL0     H 5774   7.169   3.112   5.651  0.1067  1.6449 -0.8237
   44MOL0     H 5775   7.251   3.002   5.537  1.8557  0.8087 -1.1086
   44MOL0     H 5776   7.242   3.220   5.424  1.5280 -0.5244 -0.0388
   44MOL0     H 5777   7.397   3.179   5.470 -0.7345 -2.0184 -0.2953
   44MOL0     H 5778   7.355   3.335   5.678  0.2389  0.2709 -0.4640
   44MOL0     H 5779   7.192   3.359   5.623  0.2171  1.8695  1.8999
   44MOL0     H 5780   7.296   3.457   5.407 -0.8916  0.9320  0.3458
   44MOL0     H 5781   7.309   3.559   5.540  0.5356 -0.1500  0.0976
   44MOL0     H 5782   7.533   3.496   5.399  0.4336 -1.7563 -0.0523
   44MOL0     H 5783   7.535   3.373   5.515 -0.7448 -0.3172  0.9494
   44MOL0     H 5784   7.507   3.540   5.701 -0.8146 -0.8111 -0.6479
   44MOL0     H 5785   7.533   3.668   5.581 -0.0585 -0.0970  1.0962
   44MOL0     H 5786   7.748   3.650   5.577  1.3932 -0.1115  3.0363
   44MOL0     H 5787   7.719   3.592   5.741  4.1499 -0.1581 -0.1186
   44MOL0     H 5788   7.774   3.447   5.483 -0.9129  1.0044  0.5205
   44MOL0     H 5789   7.737   3.354   5.629 -2.4613  0.5162 -1.0969
   44MOL0     H 5790   7.514   3.049   5.891  1.5401  0.1348  0.4871
   44MOL0     H 5791   7.694   2.894   5.929 -1.9448 -2.1295  1.4741
   44MOL0     H 5792   7.961   2.671   5.528  0.3202 -0.7820  1.1444
   44MOL0     H 5793   8.139   2.541   5.455  1.9698  2.4589 -2.2964
   44MOL0     H 5794   9.500   2.771   6.109  1.4915 -0.7232  1.5432
   44MOL0     H 5795   9.727   2.807   6.024  1.3961  2.4461 -1.4440
   44MOL0     H 5796  10.188   2.837   5.941 -0.8593  0.1205 -0.5721
   44MOL0     H 5797  10.406   2.909   5.906  0.7354 -0.2554  1.6358
   44MOL0     H 5798  10.542   3.270   6.104  2.3472  0.6972  0.4823
   44MOL0     H 5799  10.493   3.356   5.958  1.9224  0.4704 -3.7725
   44MOL0     H 5800  10.752   3.171   5.959  0.8465 -0.2781 -3.2923
   44MOL0     H 5801  10.705   3.304   5.854 -2.4403  1.5963  0.3985
   44MOL0     H 5802  10.694   3.459   6.052  0.1889  0.4272 -1.2881
   44MOL0     H 5803  10.849   3.411   5.985 -0.3363 -0.7135 -0.7122
   44MOL0     H 5804  10.739   3.284   6.229 -0.1555  2.0744  0.7002
   44MOL0     H 5805  10.902   3.247   6.141  3.4574  3.1059  0.4160
   44MOL0     H 5806  10.971   3.602   6.370 -1.8154  1.3527 -0.5979
   44MOL0     H 5807  10.318   3.276   6.118  1.0411 -0.8980  2.0228
   44MOL0     H 5808  10.103   3.176   6.177 -0.6441 -0.0427 -0.9245
   45MOL0     O 5809  10.210   9.066   5.348  0.5350  0.2102  0.2066
   45MOL0     C 5810  10.211   9.191   5.377  0.2747  0.3253 -1.1625
   45MOL0     O 5811  10.326   9.275   5.377 -0.3959 -0.0659  0.6436
   45MOL0     C 5812  10.453   9.226   5.416  0.6060 -0.7956  0.8502
   45MOL0     C 5813  10.520   9.140   5.324 -0.7039  0.0669  0.1217
   45MOL0     C 5814  10.649   9.094   5.360  0.2937 -0.5058 -0.1644
   45MOL0     C 5815  10.697   9.127   5.487 -0.4838 -0.1898 -0.3071
   45MOL0     O 5816  10.823   9.081   5.521 -0.5410  0.0204 -0.7964
   45MOL0     C 5817  10.833   8.936   5.532  0.1422 -0.0550 -0.6970
   45MOL0     C 5818  10.985   8.897   5.550 -0.3606  0.3131 -0.2427
   45MOL0     C 5819  11.007   8.744   5.562 -0.0214 -0.5123 -0.4180
   45MOL0     C 5820  10.965   8.671   5.433 -0.3155  0.0615  0.4444
   45MOL0     C 5821  10.979   8.516   5.442  0.5527 -0.3145 -0.5582
   45MOL0     C 5822  10.950   8.469   5.302 -1.1528  0.2455  0.0503
   45MOL0     C 5823  10.971   8.315   5.275 -0.1651 -0.6418  1.5332
   45MOL0     C 5824  10.943   8.266   5.129 -0.4111 -0.0579  0.4330
   45MOL0     N 5825  10.983   8.366   5.026 -0.1838 -0.9627  1.2492
   45MOL0     C 5826  10.912   8.483   4.981 -0.1881 -0.1561 -0.2000
   45MOL0     C 5827  10.990   8.532   4.885  0.3559  0.6970  0.2166
   45MOL0     C 5828  10.952   8.649   4.812  0.0809  0.5907 -0.8601
   45MOL0     C 5829  10.981   8.640   4.663  0.2802  0.6720  0.2209
   45MOL0     C 5830  10.917   8.756   4.580  0.5042  0.0612  0.2118
   45MOL0     C 5831  10.770   8.738   4.552  0.0353 -0.8733  0.4846
   45MOL0     O 5832  10.679   8.744   4.660 -0.3064  0.1884 -0.0567
   45MOL0     C 5833  10.545   8.730   4.636 -1.3344  0.8856  0.0239
   45MOL0     C 5834  10.495   8.712   4.516  1.0283 -0.6319  0.4347
   45MOL0     C 5835  10.356   8.678   4.500 -0.9851  0.4506  0.0228
   45MOL0     C 5836  10.268   8.666   4.606 -0.6607 -0.1032 -0.5799
   45MOL0     C 5837  10.125   8.647   4.588  1.3549  0.6016 -0.1126
   45MOL0     O 5838  10.045   8.664   4.698 -0.4280  0.0016  0.1935
   45MOL0     C 5839   9.910   8.645   4.674  0.8716 -0.0591  0.1450
   45MOL0     C 5840   9.854   8.522   4.680  0.1111 -0.1848  0.0251
   45MOL0     C 5841   9.719   8.509   4.658 -1.0197 -0.5104 -0.4225
   45MOL0     C 5842   9.632   8.622   4.638  0.4230  0.4118  0.1939
   45MOL0     O 5843   9.502   8.619   4.597 -0.5815 -0.0443  0.0439
   45MOL0     C 5844   9.414   8.518   4.653  0.3892  0.1119  0.0425
   45MOL0     C 5845   9.267   8.565   4.671  0.3223 -0.3591  1.0151
   45MOL0     C 5846   9.250   8.655   4.789  0.4284 -0.7886  0.0318
   45MOL0     C 5847   9.098   8.676   4.835 -0.5676 -0.8430 -0.2866
   45MOL0     C 5848   9.032   8.779   4.731 -0.1507  0.4869 -0.1870
   45MOL0     C 5849   8.877   8.793   4.754  0.0569  0.1312 -1.1691
   45MOL0     C 5850   8.815   8.885   4.658 -0.3858 -0.6319 -0.4691
   45MOL0     C 5851   8.667   8.854   4.664  1.2062 -0.0560  0.0157
   45MOL0    Cl 5852   8.643   8.691   4.597 -0.0042  0.2439 -0.5755
   45MOL0     C 5853   9.692   8.747   4.647  0.1320 -0.2241 -0.4091
   45MOL0     C 5854   9.833   8.758   4.656 -1.0332 -0.5645  0.2738
   45MOL0     O 5855  10.085   8.631   4.467  0.2311 -0.5293  0.2221
   45MOL0     C 5856  10.323   8.688   4.734  1.1565 -0.9539 -1.1603
   45MOL0     C 5857  10.463   8.720   4.749  0.7498 -0.4139  0.3953
   45MOL0     N 5858  11.107   8.457   4.876  0.3469  0.0382  0.5663
   45MOL0     N 5859  11.109   8.364   4.968  0.2924 -0.0372  0.7315
   45MOL0     C 5860  10.635   9.214   5.576  1.4224 -0.1049  0.0056
   45MOL0     C 5861  10.511   9.268   5.536  0.4039 -0.0074  0.1491
   45MOL0     C 5862  10.077   9.253   5.399  0.2692  0.0398 -0.0794
   45MOL0     C 5863  10.074   9.385   5.432  0.5307  0.0813  0.1331
   45MOL0     C 5864   9.955   9.459   5.432  0.1679  0.0776 -0.0991
   45MOL0     C 5865   9.827   9.394   5.422 -0.4528 -0.0411 -0.0589
   45MOL0     O 5866   9.705   9.461   5.409 -0.2025 -0.5503 -0.1010
   45MOL0     C 5867   9.716   9.598   5.451 -1.2098  0.5313  0.2637
   45MOL0     C 5868   9.576   9.660   5.456  0.1982 -0.4468  0.1216
   45MOL0     C 5869   9.502   9.600   5.575 -1.3669 -0.1593  0.6359
   45MOL0     C 5870   9.369   9.678   5.604  0.1011 -0.9949  0.8171
   45MOL0     C 5871   9.388   9.796   5.690  0.4956  0.2307  0.5419
   45MOL0     C 5872   9.377   9.893   5.765 -0.3523 -0.3908 -0.5953
   45MOL0     C 5873   9.834   9.255   5.410 -0.4914 -0.3623 -0.1734
   45MOL0     C 5874   9.959   9.187   5.404  1.0121  0.5662 -0.0989
   45MOL0     H 5875  10.466   9.099   5.239  2.4700  0.9927 -2.5755
   45MOL0     H 5876  10.701   9.022   5.298 -1.6340 -2.4956  0.3967
   45MOL0     H 5877  10.795   8.893   5.439 -0.3358  0.7321 -0.8720
   45MOL0     H 5878  10.777   8.904   5.620  0.7682 -0.0011 -0.2704
   45MOL0     H 5879  11.016   8.947   5.642 -0.9553  0.1121  0.0674
   45MOL0     H 5880  11.041   8.934   5.463  1.0637 -1.1306  0.0169
   45MOL0     H 5881  10.933   8.693   5.624 -2.4119 -3.6339 -5.2339
   45MOL0     H 5882  11.111   8.720   5.585 -0.1317 -2.8075 -2.0775
   45MOL0     H 5883  10.866   8.697   5.396 -1.1894 -0.3729  2.3729
   45MOL0     H 5884  11.040   8.714   5.365  0.8902  2.0085  2.8538
   45MOL0     H 5885  10.920   8.473   5.524  1.4758  0.4045  0.5193
   45MOL0     H 5886  11.081   8.484   5.469 -0.3806 -0.3802  3.6858
   45MOL0     H 5887  11.021   8.521   5.237  1.9385 -1.7544  1.5630
   45MOL0     H 5888  10.848   8.495   5.274 -0.9072  1.2491  0.0658
   45MOL0     H 5889  11.068   8.282   5.312 -0.2865 -0.1294  2.3126
   45MOL0     H 5890  10.888   8.270   5.330 -4.0684  2.9977 -0.7041
   45MOL0     H 5891  10.835   8.249   5.126 -0.5538  0.9319 -0.8658
   45MOL0     H 5892  11.001   8.174   5.117 -0.0965  0.0987  0.7488
   45MOL0     H 5893  10.816   8.528   5.002  0.8763  3.1478 -1.7277
   45MOL0     H 5894  11.006   8.736   4.851  0.2716  0.4399 -0.7827
   45MOL0     H 5895  10.849   8.676   4.836  0.6917  1.7315  0.6202
   45MOL0     H 5896  10.931   8.547   4.636  2.3973 -0.2192 -0.7889
   45MOL0     H 5897  11.088   8.633   4.642  0.0552  0.9642 -1.1302
   45MOL0     H 5898  10.933   8.852   4.630  2.0326 -1.1429  2.1905
   45MOL0     H 5899  10.973   8.749   4.486  1.4778 -0.4609  0.8168
   45MOL0     H 5900  10.753   8.646   4.497 -0.2433 -1.0316  0.8276
   45MOL0     H 5901  10.742   8.818   4.483  2.2543 -2.1060 -2.0192
   45MOL0     H 5902  10.554   8.715   4.426 -0.2731  0.3571 -0.4241
   45MOL0     H 5903  10.332   8.656   4.397  0.6050  0.4616 -0.3722
   45MOL0     H 5904   9.910   8.430   4.693 -1.9438 -1.9021 -2.3598
   45MOL0     H 5905   9.670   8.413   4.671 -1.9284 -0.4196 -2.7573
   45MOL0     H 5906   9.463   8.497   4.749  0.3474 -1.3586 -0.2330
   45MOL0     H 5907   9.410   8.425   4.596  1.7484 -1.6533  2.6007
   45MOL0     H 5908   9.194   8.484   4.679 -1.1402 -0.0472 -4.8128
   45MOL0     H 5909   9.249   8.613   4.575  2.8008 -1.8672 -0.3209
   45MOL0     H 5910   9.273   8.753   4.746 -3.2977 -0.7515 -2.3494
   45MOL0     H 5911   9.321   8.631   4.868 -0.0475  1.4545  1.2191
   45MOL0     H 5912   9.039   8.584   4.837 -0.8593 -0.6544  0.0186
   45MOL0     H 5913   9.099   8.705   4.941 -0.3436  0.0707 -0.5275
   45MOL0     H 5914   9.047   8.747   4.627  1.7428 -1.4544  0.6123
   45MOL0     H 5915   9.081   8.876   4.744  1.1626  0.2720 -2.7821
   45MOL0     H 5916   8.855   8.819   4.857  0.3440 -2.4544 -0.3733
   45MOL0     H 5917   8.833   8.693   4.759 -1.6537  0.9229  1.7175
   45MOL0     H 5918   8.824   8.990   4.685 -0.3976 -0.5809 -0.6638
   45MOL0     H 5919   8.865   8.884   4.560 -0.6680 -1.9788 -0.6170
   45MOL0     H 5920   8.621   8.926   4.595  0.0485 -1.7082 -1.0127
   45MOL0     H 5921   8.614   8.863   4.759 -1.5244 -1.2058 -1.2689
   45MOL0     H 5922   9.632   8.835   4.625  0.0692  0.0028  0.6564
   45MOL0     H 5923   9.888   8.851   4.657  1.0309 -1.7417  0.7284
   45MOL0     H 5924  10.259   8.689   4.822  1.9705 -3.6085 -0.4468
   45MOL0     H 5925  10.513   8.734   4.845 -0.4804  0.3227  0.9503
   45MOL0     H 5926  10.683   9.238   5.670  0.6484 -0.3088  0.4613
   45MOL0     H 5927  10.458   9.340   5.598  1.6713 -1.2991  2.9059
   45MOL0     H 5928  10.162   9.448   5.428 -0.6738  1.7616 -2.0871
   45MOL0     H 5929   9.960   9.567   5.444 -0.1368  0.0016  0.7739
   45MOL0     H 5930   9.778   9.659   5.384 -0.9786 -0.4629 -0.4495
   45MOL0     H 5931   9.762   9.605   5.550  3.6960  1.9651 -1.7993
   45MOL0     H 5932   9.582   9.769   5.469 -2.3329 -0.0286 -1.5023
   45MOL0     H 5933   9.523   9.637   5.363 -2.6950 -3.1069  2.2297
   45MOL0     H 5934   9.566   9.613   5.663 -1.5415  2.4910  0.4624
   45MOL0     H 5935   9.473   9.496   5.560  0.2591 -0.6832  1.0114
   45MOL0     H 5936   9.329   9.715   5.509 -0.3339  0.0343  1.3797
   45MOL0     H 5937   9.292   9.613   5.648  1.6482 -3.2417  0.3428
   45MOL0     H 5938   9.383   9.975   5.834 -2.2270  0.5625 -1.4771
   45MOL0     H 5939   9.743   9.197   5.419  0.1057 -1.2963 -0.0781
   45MOL0     H 5940   9.940   9.080   5.400  3.6841  0.0805 -1.6229
   46MOL0     O 5941   5.881   8.971   3.410  0.2337  0.1785  1.1519
   46MOL0     C 5942   5.985   8.901   3.412 -0.4488 -0.9520  0.4543
   46MOL0     O 5943   6.028   8.820   3.509 -0.1365  0.1328 -0.3005
   46MOL0     C 5944   5.942   8.790   3.606 -0.3848 -0.9579 -0.0502
   46MOL0     C 5945   5.807   8.764   3.591 -0.2654 -0.7427  0.0255
   46MOL0     C 5946   5.729   8.728   3.704  0.2001 -0.0147 -0.6706
   46MOL0     C 5947   5.789   8.738   3.832  0.3601  0.6435 -0.2275
   46MOL0     O 5948   5.698   8.727   3.938 -0.0503 -0.3436  0.0718
   46MOL0     C 5949   5.747   8.775   4.070  0.6131  0.3442  0.5005
   46MOL0     C 5950   5.658   8.729   4.180  0.0898  0.6291 -0.5455
   46MOL0     C 5951   5.507   8.759   4.158 -1.0804 -0.1627 -1.1165
   46MOL0     C 5952   5.422   8.725   4.281  0.2732 -0.0987  0.3659
   46MOL0     C 5953   5.281   8.739   4.245  0.9104  0.6579  1.0729
   46MOL0     C 5954   5.196   8.684   4.366  0.3653  0.3494  0.5801
   46MOL0     C 5955   5.048   8.680   4.327 -0.5801  0.1624  0.4859
   46MOL0     C 5956   4.967   8.623   4.441  0.1840  1.2784  0.4339
   46MOL0     N 5957   4.841   8.557   4.407 -0.0031  0.7419 -0.0749
   46MOL0     C 5958   4.726   8.617   4.365 -0.2608  0.1327  0.1534
   46MOL0     C 5959   4.655   8.523   4.300  0.1526  0.9018 -0.5138
   46MOL0     C 5960   4.523   8.540   4.227 -0.9290  0.0629  0.5883
   46MOL0     C 5961   4.537   8.492   4.082 -0.2401  0.4986 -0.4026
   46MOL0     C 5962   4.405   8.467   4.015 -0.2045  0.0950 -0.6649
   46MOL0     C 5963   4.327   8.590   3.968  0.8060  0.5761  0.1061
   46MOL0     O 5964   4.213   8.562   3.889 -0.2197 -0.5417 -0.9694
   46MOL0     C 5965   4.108   8.480   3.947 -1.2971 -0.4792  1.4613
   46MOL0     C 5966   4.033   8.407   3.852  0.1660  0.8255 -0.1944
   46MOL0     C 5967   3.926   8.325   3.899 -1.0392  0.4797 -0.3728
   46MOL0     C 5968   3.887   8.329   4.032  0.5223 -0.0818  0.5529
   46MOL0     C 5969   3.768   8.256   4.077 -0.1902  0.7545 -0.4480
   46MOL0     O 5970   3.697   8.192   3.982 -0.3077  0.3658 -0.0856
   46MOL0     C 5971   3.580   8.126   3.999  0.3486 -0.0180  0.9506
   46MOL0     C 5972   3.542   8.043   3.896  0.0059  0.1693  1.0715
   46MOL0     C 5973   3.430   7.955   3.919 -0.2167  0.1643  0.4668
   46MOL0     C 5974   3.351   7.972   4.034 -0.4678  0.4498  0.4416
   46MOL0     O 5975   3.249   7.885   4.034  0.2237  0.0726 -0.5101
   46MOL0     C 5976   3.147   7.912   4.121 -0.7409  0.0795 -0.6402
   46MOL0     C 5977   3.177   7.837   4.252  0.4094  0.1769 -0.3856
   46MOL0     C 5978   3.072   7.881   4.360  0.1275  0.4187 -0.5318
   46MOL0     C 5979   3.079   7.795   4.491  0.1286 -0.0185 -0.4303
   46MOL0     C 5980   3.016   7.875   4.614 -0.3408 -0.2020  0.0357
   46MOL0     C 5981   3.024   7.781   4.739 -0.1324  0.5658 -0.3036
   46MOL0     C 5982   2.977   7.873   4.849  0.0474 -0.9093  0.8149
   46MOL0     C 5983   2.978   7.805   4.985  0.1394 -0.7518  0.4815
   46MOL0    Cl 5984   2.837   7.700   4.997  0.2136  0.0542 -0.2278
   46MOL0     C 5985   3.381   8.069   4.126 -0.1664 -0.2741 -0.6380
   46MOL0     C 5986   3.494   8.148   4.109  0.3147  0.1834 -0.9432
   46MOL0     O 5987   3.729   8.277   4.194  0.2587 -0.3852 -0.1809
   46MOL0     C 5988   3.969   8.399   4.123  0.6282 -0.7312  0.5208
   46MOL0     C 5989   4.073   8.474   4.076 -0.7632  0.0422 -0.0859
   46MOL0     N 5990   4.725   8.397   4.315 -0.8025 -0.6472 -0.2637
   46MOL0     N 5991   4.847   8.427   4.364  0.3158 -0.2728 -0.3617
   46MOL0     C 5992   5.928   8.757   3.842  0.6935  0.4462 -0.1896
   46MOL0     C 5993   6.001   8.794   3.732 -0.2760  0.4781  0.3821
   46MOL0     C 5994   6.083   8.903   3.295 -0.0248  0.6025  0.1671
   46MOL0     C 5995   6.036   8.914   3.155 -0.9256 -0.5082 -0.1788
   46MOL0     C 5996   6.125   8.917   3.051  0.1014 -0.0865 -0.0494
   46MOL0     C 5997   6.256   8.917   3.077  0.4192 -0.0784  0.6754
   46MOL0     O 5998   6.339   8.936   2.972 -0.4542 -0.4832  0.0079
   46MOL0     C 5999   6.485   8.945   2.991  0.0783  0.0150 -0.0400
   46MOL0     C 6000   6.563   8.991   2.864  0.3831  0.5991 -0.2997
   46MOL0     C 6001   6.707   9.031   2.870 -0.1249 -0.1121  0.1534
   46MOL0     C 6002   6.754   9.102   2.744 -0.1703 -0.7044  0.4594
   46MOL0     C 6003   6.729   9.019   2.629 -0.2385  0.5596  0.2490
   46MOL0     C 6004   6.694   8.963   2.531  0.4313  0.0828  0.2497
   46MOL0     C 6005   6.312   8.908   3.204  0.3410  0.2811 -0.2252
   46MOL0     C 6006   6.224   8.895   3.316 -0.1664  0.4005  0.3251
   46MOL0     H 6007   5.767   8.783   3.492  0.8137 -1.2845 -0.5414
   46MOL0     H 6008   5.623   8.705   3.698 -0.1853  0.7042  2.0833
   46MOL0     H 6009   5.743   8.884   4.070  1.2636  0.4557 -2.2327
   46MOL0     H 6010   5.849   8.741   4.089 -0.2451 -3.8460 -1.1971
   46MOL0     H 6011   5.684   8.763   4.281  0.3755 -1.1519  0.0063
   46MOL0     H 6012   5.672   8.621   4.176 -2.0960  0.3042 -0.6641
   46MOL0     H 6013   5.462   8.695   4.081 -3.7082 -1.2051  1.1310
   46MOL0     H 6014   5.482   8.861   4.130 -0.3570  0.6045  0.8796
   46MOL0     H 6015   5.445   8.619   4.292  2.0902  0.2351  0.1159
   46MOL0     H 6016   5.450   8.782   4.370  1.7819  2.6760 -1.6980
   46MOL0     H 6017   5.266   8.682   4.153 -0.1225  1.3253  0.8091
   46MOL0     H 6018   5.263   8.845   4.226 -3.6576 -0.1644 -0.4670
   46MOL0     H 6019   5.220   8.753   4.448 -0.4370  1.6372 -0.2202
   46MOL0     H 6020   5.237   8.586   4.388  1.6555 -0.3285 -3.9363
   46MOL0     H 6021   5.007   8.780   4.309 -0.3632  0.9813  3.8681
   46MOL0     H 6022   5.032   8.620   4.237 -2.7701 -0.6235  1.3294
   46MOL0     H 6023   4.963   8.693   4.525  3.4728  0.9095  1.0182
   46MOL0     H 6024   5.027   8.544   4.488  1.5734  1.8294 -0.3828
   46MOL0     H 6025   4.716   8.725   4.372  1.1873  0.6954 -3.7587
   46MOL0     H 6026   4.481   8.641   4.225 -3.6007 -0.8486 -3.9683
   46MOL0     H 6027   4.453   8.473   4.278 -1.2715 -1.1719 -1.3841
   46MOL0     H 6028   4.590   8.397   4.083  2.0250  1.6024 -2.8364
   46MOL0     H 6029   4.584   8.558   4.008 -3.8444 -0.5000 -3.9476
   46MOL0     H 6030   4.434   8.410   3.927  0.6500  1.4356 -1.2789
   46MOL0     H 6031   4.345   8.409   4.087  0.7576  1.4729  1.3402
   46MOL0     H 6032   4.395   8.649   3.906  0.4107  3.0399  1.8325
   46MOL0     H 6033   4.281   8.641   4.054  0.5283 -1.0159  0.9363
   46MOL0     H 6034   4.075   8.400   3.752  3.0268  1.6958  0.8497
   46MOL0     H 6035   3.867   8.269   3.826 -1.0091  2.7877 -2.3125
   46MOL0     H 6036   3.602   8.043   3.805  1.1882 -0.4022  1.8275
   46MOL0     H 6037   3.407   7.871   3.853  1.3364 -1.5692  2.0205
   46MOL0     H 6038   3.053   7.870   4.084 -1.2651 -0.3090  1.0563
   46MOL0     H 6039   3.132   8.019   4.135 -1.3434 -0.1295  0.3917
   46MOL0     H 6040   3.280   7.868   4.277  1.0567  1.2769 -3.8992
   46MOL0     H 6041   3.166   7.730   4.231 -1.9171 -0.2799  2.4717
   46MOL0     H 6042   2.968   7.869   4.328 -0.6926  0.2810  1.9748
   46MOL0     H 6043   3.093   7.986   4.380  2.8471 -0.2540  0.6463
   46MOL0     H 6044   3.034   7.699   4.465  1.5181 -0.9725  0.5304
   46MOL0     H 6045   3.181   7.775   4.525 -0.2703  0.2498  0.9883
   46MOL0     H 6046   2.914   7.906   4.588 -0.6887 -0.9441  0.4891
   46MOL0     H 6047   3.073   7.968   4.625 -1.2587  0.9331 -3.3926
   46MOL0     H 6048   3.130   7.765   4.760 -0.5386  2.3242  3.9801
   46MOL0     H 6049   2.956   7.698   4.719 -4.4364  4.5978 -5.8459
   46MOL0     H 6050   3.042   7.961   4.850 -3.3156  1.8160  2.0400
   46MOL0     H 6051   2.878   7.913   4.826 -0.1060 -0.0789  2.7375
   46MOL0     H 6052   2.983   7.887   5.057 -0.7961  2.4977 -2.8306
   46MOL0     H 6053   3.064   7.739   5.001  0.3212 -0.7977 -0.5895
   46MOL0     H 6054   3.323   8.089   4.216 -2.7637  3.7865 -2.9379
   46MOL0     H 6055   3.504   8.215   4.194 -1.4515 -0.5151 -0.1305
   46MOL0     H 6056   3.948   8.404   4.229  3.0379  2.6820  0.9981
   46MOL0     H 6057   4.120   8.532   4.155 -4.0255  1.2308  1.1215
   46MOL0     H 6058   5.996   8.773   3.925  1.2784 -1.6324 -0.2341
   46MOL0     H 6059   6.108   8.807   3.748 -0.1245 -1.6410  1.4116
   46MOL0     H 6060   5.930   8.911   3.133 -1.3814 -0.5439  1.8199
   46MOL0     H 6061   6.098   8.906   2.946  0.3330  0.2746 -0.1463
   46MOL0     H 6062   6.520   8.844   3.014 -0.9266 -0.1862  0.6821
   46MOL0     H 6063   6.501   9.015   3.074  0.0619 -1.4990  1.2867
   46MOL0     H 6064   6.546   8.920   2.783  1.3168 -1.4268  1.1853
   46MOL0     H 6065   6.518   9.085   2.830  1.6842  0.9561 -1.1042
   46MOL0     H 6066   6.768   8.946   2.901 -0.1391 -0.3965 -0.5837
   46MOL0     H 6067   6.714   9.105   2.950 -1.5581 -2.8361  2.9726
   46MOL0     H 6068   6.704   9.196   2.721  0.0325 -0.6182  0.3686
   46MOL0     H 6069   6.860   9.124   2.761 -0.2998 -0.4738  0.9504
   46MOL0     H 6070   6.642   8.908   2.455 -0.1209  0.2545  0.4976
   46MOL0     H 6071   6.418   8.901   3.229 -0.3216  1.1419  3.3818
   46MOL0     H 6072   6.256   8.891   3.420 -2.0594  1.7807  1.0301
   47MOL0     O 6073   2.728  11.310   8.289 -0.7390 -0.3929  0.5015
   47MOL0     C 6074   2.790  11.399   8.350  0.6191  0.2747 -0.0603
   47MOL0     O 6075   2.886  11.481   8.282 -0.4152  0.1883  0.0449
   47MOL0     C 6076   2.881  11.508   8.147 -0.1445  0.7706 -0.8820
   47MOL0     C 6077   2.843  11.634   8.095  0.7615  0.1988  0.1564
   47MOL0     C 6078   2.844  11.654   7.955  0.1252 -0.1373 -0.3720
   47MOL0     C 6079   2.892  11.554   7.861  0.2472 -0.0151 -0.4127
   47MOL0     O 6080   2.894  11.580   7.728 -0.6654  0.3829  0.1580
   47MOL0     C 6081   2.918  11.489   7.619 -0.0832  0.6759 -1.2064
   47MOL0     C 6082   3.060  11.434   7.598 -0.0510  0.5633 -0.2974
   47MOL0     C 6083   3.178  11.523   7.554  0.9043  0.2798 -0.4166
   47MOL0     C 6084   3.311  11.452   7.544 -0.3173 -0.4646 -1.0020
   47MOL0     C 6085   3.409  11.558   7.483  0.3798  0.6614  0.9902
   47MOL0     C 6086   3.561  11.518   7.476 -0.8006  0.3516 -0.5870
   47MOL0     C 6087   3.648  11.595   7.367 -0.7178 -0.4228 -0.3277
   47MOL0     C 6088   3.700  11.730   7.435 -0.5444  0.1294 -0.1487
   47MOL0     N 6089   3.826  11.758   7.362  0.0766  0.3532  0.0575
   47MOL0     C 6090   3.923  11.842   7.410  0.6433  0.3560  0.3593
   47MOL0     C 6091   4.017  11.850   7.311 -0.6619  0.3435 -0.5216
   47MOL0     C 6092   4.138  11.930   7.311  0.5847  0.0828  1.0796
   47MOL0     C 6093   4.259  11.860   7.386 -0.2929 -0.3691 -0.3356
   47MOL0     C 6094   4.319  11.731   7.323 -0.4113  0.2704 -0.6074
   47MOL0     C 6095   4.459  11.699   7.371  0.0054 -0.3109 -0.0574
   47MOL0     O 6096   4.561  11.793   7.322  0.2348  0.7995 -0.1731
   47MOL0     C 6097   4.694  11.776   7.368  0.3674  0.0679 -0.0336
   47MOL0     C 6098   4.785  11.857   7.302  1.2529 -0.2642 -0.3039
   47MOL0     C 6099   4.925  11.843   7.343  0.8333 -0.8986 -0.7083
   47MOL0     C 6100   4.966  11.761   7.450 -0.1525 -0.7437 -0.7365
   47MOL0     C 6101   5.111  11.742   7.494  0.7676 -0.0667  0.5668
   47MOL0     O 6102   5.162  11.657   7.591 -0.2542  0.8187  0.3321
   47MOL0     C 6103   5.294  11.670   7.640  0.7878  0.0466  0.2648
   47MOL0     C 6104   5.356  11.792   7.668 -1.0543  0.1319 -0.5854
   47MOL0     C 6105   5.491  11.801   7.694 -0.3314 -0.0449 -1.0343
   47MOL0     C 6106   5.566  11.689   7.719  0.1375  0.9189  0.3302
   47MOL0     O 6107   5.697  11.689   7.761  0.3577 -0.1312 -0.5799
   47MOL0     C 6108   5.774  11.813   7.755  0.1414 -0.9063  0.1546
   47MOL0     C 6109   5.893  11.778   7.831 -1.6904 -0.5931 -0.5602
   47MOL0     C 6110   5.975  11.907   7.846  0.0279 -0.1765  0.7693
   47MOL0     C 6111   6.078  11.895   7.956 -0.6820  1.1001 -0.8375
   47MOL0     C 6112   6.191  12.003   7.941 -0.4166 -0.1568 -0.2541
   47MOL0     C 6113   6.135  12.150   7.916  0.2446  0.3998  0.1070
   47MOL0     C 6114   6.233  12.265   7.933  0.1795  0.0150  0.1197
   47MOL0     C 6115   6.199  12.364   7.816  0.6753  0.2706 -0.9451
   47MOL0    Cl 6116   6.253  12.299   7.663  0.7184 -0.3632 -0.1145
   47MOL0     C 6117   5.503  11.563   7.696 -0.7725 -0.6120 -0.2972
   47MOL0     C 6118   5.375  11.562   7.655  0.0723  0.6793  0.2483
   47MOL0     O 6119   5.177  11.834   7.436  0.3705 -0.2558 -0.0164
   47MOL0     C 6120   4.861  11.692   7.517 -0.9740 -0.8609  0.1921
   47MOL0     C 6121   4.730  11.696   7.477  0.4961  0.6672 -0.6212
   47MOL0     N 6122   3.974  11.782   7.204  0.1953 -0.5341 -0.0579
   47MOL0     N 6123   3.861  11.734   7.234  0.0774 -0.0734 -0.4221
   47MOL0     C 6124   2.921  11.430   7.925 -0.4757 -0.0949  0.3226
   47MOL0     C 6125   2.915  11.409   8.063 -0.9107  0.3287  0.4576
   47MOL0     C 6126   2.799  11.399   8.502  1.0026 -0.0824 -0.3515
   47MOL0     C 6127   2.693  11.351   8.579 -0.5163  0.4525 -0.0723
   47MOL0     C 6128   2.697  11.348   8.720 -0.1721  1.0140  0.4529
   47MOL0     C 6129   2.801  11.413   8.788 -0.0968  0.5672  0.3148
   47MOL0     O 6130   2.807  11.427   8.919 -0.4364  0.2641  0.0909
   47MOL0     C 6131   2.711  11.370   9.009  0.1448  0.2433  0.5547
   47MOL0     C 6132   2.589  11.466   9.031 -0.1559 -0.1531  1.3606
   47MOL0     C 6133   2.630  11.618   9.043  0.2330  0.7751 -1.1045
   47MOL0     C 6134   2.513  11.700   9.106  0.1674 -0.4794  0.1530
   47MOL0     C 6135   2.389  11.713   9.031 -0.2399  0.4964 -1.3538
   47MOL0     C 6136   2.286  11.705   8.966 -0.8649 -0.2973 -1.1755
   47MOL0     C 6137   2.909  11.455   8.711 -0.1630  0.1755 -0.0045
   47MOL0     C 6138   2.909  11.456   8.578 -0.2573  0.7787 -0.0550
   47MOL0     H 6139   2.817  11.706   8.172 -1.8094 -1.1936  0.6949
   47MOL0     H 6140   2.818  11.755   7.923  2.5147  0.5094 -0.4452
   47MOL0     H 6141   2.884  11.538   7.527 -1.1465  2.4408  0.0878
   47MOL0     H 6142   2.861  11.399   7.643 -1.7684  1.9926 -0.0580
   47MOL0     H 6143   3.047  11.366   7.514 -0.2638 -0.6574  0.6840
   47MOL0     H 6144   3.086  11.364   7.678  0.0070  0.3596 -0.4928
   47MOL0     H 6145   3.182  11.599   7.632 -2.3740  0.2133 -0.0640
   47MOL0     H 6146   3.157  11.574   7.459  0.3090  0.2939 -0.2784
   47MOL0     H 6147   3.338  11.421   7.645 -0.1718  1.3193 -0.4719
   47MOL0     H 6148   3.299  11.369   7.474  0.4479 -0.1436 -1.5172
   47MOL0     H 6149   3.403  11.662   7.515  0.9702  0.9680  0.1467
   47MOL0     H 6150   3.371  11.564   7.380  0.4447 -0.6857  0.8650
   47MOL0     H 6151   3.568  11.412   7.453  0.9629  0.3274 -0.0457
   47MOL0     H 6152   3.601  11.519   7.578 -0.0802 -3.1170 -0.7352
   47MOL0     H 6153   3.731  11.530   7.337  0.4669  1.3167 -0.9642
   47MOL0     H 6154   3.595  11.628   7.278 -0.5960 -0.5071 -0.4323
   47MOL0     H 6155   3.740  11.724   7.537  3.5147  2.2262 -1.3705
   47MOL0     H 6156   3.629  11.811   7.417  1.5704  1.6700 -2.3824
   47MOL0     H 6157   3.915  11.895   7.504 -2.8704  0.8103 -0.0618
   47MOL0     H 6158   4.115  12.034   7.339 -0.5794  0.0755  0.2437
   47MOL0     H 6159   4.173  11.933   7.208  0.6366 -1.7524  1.0052
   47MOL0     H 6160   4.224  11.833   7.486 -4.7369  1.7276 -1.0777
   47MOL0     H 6161   4.336  11.936   7.400  0.2581 -0.8255 -0.8159
   47MOL0     H 6162   4.261  11.642   7.349 -0.9290  1.1852  1.6191
   47MOL0     H 6163   4.312  11.732   7.214 -0.4039  0.5924 -0.6044
   47MOL0     H 6164   4.492  11.595   7.359 -1.3390 -0.6487 -1.1273
   47MOL0     H 6165   4.449  11.713   7.479 -1.7120  2.4684 -0.4742
   47MOL0     H 6166   4.754  11.932   7.230  2.5806 -1.2409 -1.9740
   47MOL0     H 6167   5.003  11.905   7.300 -0.0782  0.8376  0.0448
   47MOL0     H 6168   5.329  11.897   7.661 -0.2392  0.2996 -1.5266
   47MOL0     H 6169   5.536  11.897   7.713 -0.6618 -0.5666  3.3302
   47MOL0     H 6170   5.724  11.889   7.816  0.7735 -0.3849  0.0324
   47MOL0     H 6171   5.790  11.857   7.657 -1.8346 -0.8565 -0.1944
   47MOL0     H 6172   5.949  11.699   7.779  0.3052  1.2341 -1.3600
   47MOL0     H 6173   5.867  11.745   7.932  1.2511 -0.9187  0.1834
   47MOL0     H 6174   5.902  11.985   7.869 -0.0159 -0.0789  0.2980
   47MOL0     H 6175   6.012  11.923   7.745 -1.5589 -2.9819 -0.3687
   47MOL0     H 6176   6.035  11.898   8.056 -1.7951 -2.1353 -1.1171
   47MOL0     H 6177   6.130  11.799   7.959 -0.2959  1.3212 -0.3686
   47MOL0     H 6178   6.257  11.977   7.858  1.3185 -1.7583  1.5083
   47MOL0     H 6179   6.261  12.003   8.025  1.4355  4.6198 -1.4284
   47MOL0     H 6180   6.059  12.173   7.991 -1.1772 -2.0168 -0.4813
   47MOL0     H 6181   6.076  12.148   7.824  1.1532  3.0917 -0.6255
   47MOL0     H 6182   6.230  12.320   8.027  2.7583 -0.8744  0.8036
   47MOL0     H 6183   6.338  12.234   7.924 -0.2343 -1.3298 -0.2272
   47MOL0     H 6184   6.247  12.462   7.826  0.0895  0.3681  1.4629
   47MOL0     H 6185   6.090  12.373   7.816  0.2507 -2.3550  3.2277
   47MOL0     H 6186   5.555  11.469   7.708 -0.9626 -0.4836  2.1904
   47MOL0     H 6187   5.330  11.466   7.630  2.3366 -0.2114 -0.6991
   47MOL0     H 6188   4.893  11.637   7.605  4.5994  3.4135  1.4976
   47MOL0     H 6189   4.650  11.651   7.536  0.1688  1.7279 -0.2253
   47MOL0     H 6190   2.955  11.340   7.874 -2.2703 -0.5618 -0.1024
   47MOL0     H 6191   2.932  11.309   8.102 -3.0977 -1.2457 -2.2798
   47MOL0     H 6192   2.601  11.306   8.543  0.4313 -1.3483 -0.3640
   47MOL0     H 6193   2.612  11.305   8.773 -0.7562  0.2352 -1.0672
   47MOL0     H 6194   2.766  11.377   9.103 -0.6889  1.3767  0.9765
   47MOL0     H 6195   2.682  11.266   8.994  0.4691  0.3042 -0.5995
   47MOL0     H 6196   2.519  11.461   8.947 -1.1873  1.3825  2.0737
   47MOL0     H 6197   2.532  11.445   9.122 -1.0736  0.4225  0.9287
   47MOL0     H 6198   2.651  11.660   8.944 -1.0295  1.3761 -1.1388
   47MOL0     H 6199   2.720  11.635   9.103  1.2332 -2.1247 -1.6395
   47MOL0     H 6200   2.486  11.656   9.202 -1.2480 -2.5042 -1.0886
   47MOL0     H 6201   2.556  11.799   9.123  2.3765 -1.4476  0.5319
   47MOL0     H 6202   2.198  11.681   8.908 -0.7277 -1.8064 -0.8029
   47MOL0     H 6203   2.995  11.500   8.760  1.6626 -3.2882  0.2717
   47MOL0     H 6204   2.987  11.509   8.524 -0.2661 -1.1335 -2.1018
   48MOL0     O 6205   9.445   7.265   1.829 -0.3278 -0.8621  0.7223
   48MOL0     C 6206   9.476   7.363   1.900 -0.6232  0.5009  0.1070
   48MOL0     O 6207   9.605   7.418   1.906 -0.9015  0.0213 -0.3791
   48MOL0     C 6208   9.722   7.364   1.859  0.6533 -0.8908 -0.6778
   48MOL0     C 6209   9.833   7.446   1.849 -0.1609  1.1343 -0.2971
   48MOL0     C 6210   9.958   7.402   1.804  0.2651  0.3672 -0.2586
   48MOL0     C 6211   9.972   7.269   1.769  0.4777 -0.9837 -0.1895
   48MOL0     O 6212  10.080   7.187   1.747 -0.2091 -0.3392  0.7080
   48MOL0     C 6213  10.214   7.254   1.751  0.5485  0.1537 -0.5381
   48MOL0     C 6214  10.261   7.259   1.903 -0.2514 -0.3243 -0.2741
   48MOL0     C 6215  10.409   7.301   1.906 -0.3999 -0.3551  0.2171
   48MOL0     C 6216  10.473   7.292   2.052  0.8000  0.0379 -0.2400
   48MOL0     C 6217  10.607   7.360   2.046 -1.3071 -0.3420 -0.5307
   48MOL0     C 6218  10.656   7.375   2.191 -0.4900 -0.6563  1.0774
   48MOL0     C 6219  10.777   7.465   2.215  0.3830 -0.4308 -0.2160
   48MOL0     C 6220  10.912   7.392   2.187 -0.1603 -0.6932 -0.1695
   48MOL0     N 6221  11.032   7.463   2.222 -0.5433 -0.2840 -1.1295
   48MOL0     C 6222  11.063   7.492   2.355  0.0610  0.0054  0.2728
   48MOL0     C 6223  11.191   7.539   2.349  0.6639 -0.1682 -0.4899
   48MOL0     C 6224  11.271   7.595   2.457  0.6881 -0.2519 -0.5666
   48MOL0     C 6225  11.205   7.596   2.601 -0.3717 -0.5380 -0.0740
   48MOL0     C 6226  11.211   7.452   2.657 -0.6874 -0.2022  0.2929
   48MOL0     C 6227  11.122   7.430   2.780  0.3186 -0.3525  0.7591
   48MOL0     O 6228  10.983   7.477   2.758 -0.6309 -0.2470  0.1584
   48MOL0     C 6229  10.902   7.405   2.684  0.2998  0.9541  0.4538
   48MOL0     C 6230  10.917   7.274   2.639  0.2951  0.9815 -0.4524
   48MOL0     C 6231  10.808   7.203   2.572 -0.1295 -0.5958 -0.7265
   48MOL0     C 6232  10.686   7.274   2.550 -0.3646 -0.1300  0.8534
   48MOL0     C 6233  10.571   7.204   2.499 -0.1741  0.4147 -0.7908
   48MOL0     O 6234  10.457   7.248   2.556  0.6521  0.7761  0.4719
   48MOL0     C 6235  10.337   7.179   2.537  0.0377 -0.2401  0.6800
   48MOL0     C 6236  10.313   7.065   2.614  0.2128 -0.4620 -1.3636
   48MOL0     C 6237  10.188   7.005   2.613  0.0006 -0.9704  0.2399
   48MOL0     C 6238  10.085   7.055   2.529 -0.5533  0.5742  0.5414
   48MOL0     O 6239   9.958   6.998   2.534  0.6154 -0.1659 -0.2202
   48MOL0     C 6240   9.905   6.950   2.656  0.1980  0.2816  0.7086
   48MOL0     C 6241   9.758   6.912   2.633  1.2761 -0.6518 -0.0508
   48MOL0     C 6242   9.669   7.038   2.624  0.0397 -0.4500  0.0202
   48MOL0     C 6243   9.520   7.000   2.609  0.0052  0.5778  0.1420
   48MOL0     C 6244   9.416   7.111   2.648  0.0723  0.1545 -0.4634
   48MOL0     C 6245   9.373   7.103   2.794  0.0292 -0.8959 -0.1460
   48MOL0     C 6246   9.233   7.167   2.801 -0.2014 -0.7458 -1.0944
   48MOL0     C 6247   9.167   7.152   2.940 -0.2552 -0.0812 -0.4393
   48MOL0    Cl 6248   8.995   7.213   2.925  0.2677 -0.3059  0.0174
   48MOL0     C 6249  10.104   7.174   2.456  0.1457 -0.3651 -0.0777
   48MOL0     C 6250  10.229   7.233   2.456 -0.3388  0.2555 -0.7179
   48MOL0     O 6251  10.573   7.117   2.412 -0.3904  0.4028 -0.0204
   48MOL0     C 6252  10.685   7.407   2.588 -0.6521 -0.7817  0.1938
   48MOL0     C 6253  10.792   7.476   2.640 -0.6167  1.1170  0.4440
   48MOL0     N 6254  11.222   7.547   2.214  0.6596 -0.5184  0.1141
   48MOL0     N 6255  11.136   7.501   2.143  0.3040 -0.6861 -0.9227
   48MOL0     C 6256   9.861   7.187   1.763  1.0127  0.5295  0.6715
   48MOL0     C 6257   9.744   7.230   1.814 -0.1819  0.2083 -0.9990
   48MOL0     C 6258   9.359   7.428   1.964 -0.1611  0.4763 -0.8110
   48MOL0     C 6259   9.244   7.349   1.981 -0.3814 -0.3014 -0.6995
   48MOL0     C 6260   9.126   7.409   2.027 -0.6508  0.0149  1.1709
   48MOL0     C 6261   9.120   7.552   2.047 -0.2570 -0.7336  0.6478
   48MOL0     O 6262   9.004   7.612   2.081 -0.0959  0.8480  0.1573
   48MOL0     C 6263   8.892   7.584   1.998 -0.4782  0.4244  0.7000
   48MOL0     C 6264   8.790   7.693   1.990  0.8661 -0.3065 -0.0869
   48MOL0     C 6265   8.719   7.705   2.131  0.0240 -0.1678  0.4643
   48MOL0     C 6266   8.604   7.796   2.121 -0.6342  0.2725 -0.2265
   48MOL0     C 6267   8.511   7.746   2.029  0.1469  0.0749 -0.0438
   48MOL0     C 6268   8.430   7.677   1.972  0.4418  0.1161  0.5725
   48MOL0     C 6269   9.231   7.625   2.031  0.2564 -0.6109  0.0518
   48MOL0     C 6270   9.354   7.568   1.999  0.0364 -1.1301 -0.3170
   48MOL0     H 6271   9.822   7.550   1.877  1.5254  0.5124  3.2752
   48MOL0     H 6272  10.042   7.470   1.808 -0.3846  1.1632  0.2200
   48MOL0     H 6273  10.213   7.350   1.700  2.2350  0.1609 -0.6043
   48MOL0     H 6274  10.284   7.201   1.686 -0.5635 -0.0351 -1.6239
   48MOL0     H 6275  10.253   7.165   1.959 -3.4510  0.4977  0.8391
   48MOL0     H 6276  10.205   7.326   1.969 -0.4620  0.5847 -1.3483
   48MOL0     H 6277  10.417   7.401   1.863 -2.4992  0.6731  2.0219
   48MOL0     H 6278  10.463   7.237   1.837 -0.3481  1.4736 -1.5294
   48MOL0     H 6279  10.407   7.349   2.118  1.4244  1.7535 -1.0454
   48MOL0     H 6280  10.472   7.185   2.076 -1.2483 -0.2110 -1.2128
   48MOL0     H 6281  10.608   7.461   2.003 -0.5697 -0.3206 -0.4778
   48MOL0     H 6282  10.678   7.301   1.985 -0.0934  1.8899 -1.3954
   48MOL0     H 6283  10.690   7.277   2.225  1.7067  0.4083  2.1952
   48MOL0     H 6284  10.568   7.409   2.247 -1.2207 -0.5013 -0.1315
   48MOL0     H 6285  10.766   7.559   2.159 -0.3979 -1.1625 -1.3206
   48MOL0     H 6286  10.769   7.504   2.317  2.9896 -1.6123  0.5060
   48MOL0     H 6287  10.926   7.378   2.079  2.6421 -3.1117  0.3881
   48MOL0     H 6288  10.916   7.291   2.227  0.3985 -1.8601 -2.9140
   48MOL0     H 6289  11.008   7.466   2.445  0.0160 -1.0827 -0.0573
   48MOL0     H 6290  11.271   7.700   2.425 -4.9761  0.3872  0.4480
   48MOL0     H 6291  11.376   7.565   2.466  1.2199  1.6760  0.4171
   48MOL0     H 6292  11.104   7.638   2.597  0.1254  0.6495 -1.2358
   48MOL0     H 6293  11.259   7.674   2.656  0.0334 -1.0681  0.2911
   48MOL0     H 6294  11.175   7.389   2.575 -0.0944 -2.6395  1.7772
   48MOL0     H 6295  11.312   7.414   2.677 -0.1803  0.7610 -0.3577
   48MOL0     H 6296  11.171   7.487   2.860 -0.7042 -1.5949  2.3414
   48MOL0     H 6297  11.131   7.327   2.817  1.9874 -0.3334  0.5023
   48MOL0     H 6298  11.009   7.220   2.662  0.1604  0.7674 -0.4076
   48MOL0     H 6299  10.799   7.103   2.532 -0.9512 -1.4402  1.4155
   48MOL0     H 6300  10.394   7.018   2.669 -0.5134  0.2189  0.3714
   48MOL0     H 6301  10.165   6.918   2.673 -3.2947 -0.9696 -0.8456
   48MOL0     H 6302   9.909   7.034   2.726  1.2133 -0.6883  1.8539
   48MOL0     H 6303   9.970   6.868   2.689 -0.3039  0.0273  1.0753
   48MOL0     H 6304   9.729   6.868   2.729  1.3532  0.3223  0.4315
   48MOL0     H 6305   9.745   6.851   2.543  1.3333 -1.5261  0.5172
   48MOL0     H 6306   9.705   7.096   2.539  1.4899  1.6988  1.9526
   48MOL0     H 6307   9.682   7.105   2.710 -2.4166 -0.0813  0.1652
   48MOL0     H 6308   9.508   6.972   2.504 -1.4259  0.6652  0.2507
   48MOL0     H 6309   9.506   6.904   2.659  0.0007 -0.6020 -1.9944
   48MOL0     H 6310   9.324   7.090   2.592 -1.3741  0.2038  1.7506
   48MOL0     H 6311   9.436   7.215   2.620 -0.2121 -0.2118 -2.1323
   48MOL0     H 6312   9.446   7.160   2.853 -0.4391  0.1795 -0.5788
   48MOL0     H 6313   9.365   7.004   2.839 -0.6074 -1.7210 -1.9947
   48MOL0     H 6314   9.221   7.274   2.782 -2.3174 -0.6516  0.3891
   48MOL0     H 6315   9.169   7.109   2.734  0.7216 -0.6241 -2.1049
   48MOL0     H 6316   9.222   7.214   3.012 -1.1946  0.4116 -0.1299
   48MOL0     H 6317   9.173   7.047   2.972 -0.0802 -0.8173 -2.7401
   48MOL0     H 6318  10.030   7.206   2.383  0.8216  2.3785  0.3522
   48MOL0     H 6319  10.245   7.319   2.390  2.0945  0.4985  0.0791
   48MOL0     H 6320  10.601   7.476   2.582 -0.4309 -0.6094 -1.1353
   48MOL0     H 6321  10.786   7.583   2.651  0.6227  1.0878  1.7839
   48MOL0     H 6322   9.872   7.084   1.731 -2.5623 -0.5993  2.5858
   48MOL0     H 6323   9.664   7.158   1.805 -0.3394 -0.1797  2.2575
   48MOL0     H 6324   9.249   7.241   1.972 -0.8462 -0.6391  2.1487
   48MOL0     H 6325   9.046   7.336   2.021 -0.3320 -0.2294 -1.4500
   48MOL0     H 6326   8.847   7.487   2.020 -1.9066  0.6182 -1.1479
   48MOL0     H 6327   8.933   7.571   1.898  2.2661  0.1076  1.7773
   48MOL0     H 6328   8.835   7.790   1.968 -0.4438 -0.0891 -2.1065
   48MOL0     H 6329   8.715   7.680   1.911 -0.3941  3.5038  0.2719
   48MOL0     H 6330   8.798   7.752   2.191 -0.7356  4.8240 -1.9764
   48MOL0     H 6331   8.679   7.609   2.167  1.7908 -1.1203  0.0083
   48MOL0     H 6332   8.545   7.802   2.213 -1.3613 -1.5782 -0.5320
   48MOL0     H 6333   8.634   7.891   2.076 -1.7165  1.1945  0.9231
   48MOL0     H 6334   8.357   7.616   1.924 -0.2042  2.0630 -1.0859
   48MOL0     H 6335   9.228   7.732   2.047  0.5232 -0.9221  2.6048
   48MOL0     H 6336   9.445   7.626   1.984 -1.2442  0.7249 -1.2559
   49MOL0     O 6337   8.145   8.730   3.274  0.9750  0.2784 -0.3384
   49MOL0     C 6338   8.135   8.775   3.159 -0.5749 -0.6050  0.2859
   49MOL0     O 6339   8.014   8.802   3.098  0.4072 -0.5512  0.1396
   49MOL0     C 6340   7.897   8.741   3.136  1.1885 -0.6148 -0.4595
   49MOL0     C 6341   7.873   8.607   3.161 -0.5752  0.4026  0.2114
   49MOL0     C 6342   7.743   8.561   3.193  1.0036  0.5415 -0.0500
   49MOL0     C 6343   7.637   8.649   3.191  0.2804  0.1361  0.2152
   49MOL0     O 6344   7.506   8.626   3.229  0.0209  0.0464 -0.6640
   49MOL0     C 6345   7.486   8.503   3.305  0.3978  0.2718  0.2575
   49MOL0     C 6346   7.360   8.515   3.389  0.5193 -0.1146  0.3470
   49MOL0     C 6347   7.245   8.562   3.299 -0.2468 -0.0322 -0.5663
   49MOL0     C 6348   7.118   8.556   3.378  0.5359 -0.7793 -0.1583
   49MOL0     C 6349   7.058   8.411   3.379 -1.0233 -0.2942  0.4755
   49MOL0     C 6350   6.943   8.405   3.475  0.2058 -0.2252  0.1994
   49MOL0     C 6351   6.833   8.298   3.438  0.3234 -0.2575  0.0430
   49MOL0     C 6352   6.701   8.301   3.513 -0.2567 -0.4449 -0.3929
   49MOL0     N 6353   6.696   8.259   3.652 -0.4614  0.0455 -0.6213
   49MOL0     C 6354   6.805   8.260   3.739 -0.4301 -1.1754  0.4481
   49MOL0     C 6355   6.755   8.230   3.863  0.7957 -0.0587 -0.9988
   49MOL0     C 6356   6.836   8.202   3.996 -0.0542 -0.2863 -0.3204
   49MOL0     C 6357   6.861   8.059   4.046 -0.3050  0.3274  0.6304
   49MOL0     C 6358   6.905   7.960   3.941  0.3311 -0.9337  0.6026
   49MOL0     C 6359   7.052   7.978   3.900 -0.2481  0.3606  0.1928
   49MOL0     O 6360   7.082   8.081   3.811  0.1953  0.6195 -0.5048
   49MOL0     C 6361   7.211   8.079   3.769 -0.5280 -0.1883 -0.3172
   49MOL0     C 6362   7.223   8.113   3.639 -0.2985  0.0536  0.1128
   49MOL0     C 6363   7.349   8.123   3.575 -0.7437  1.3593  0.0760
   49MOL0     C 6364   7.466   8.104   3.656 -0.1329 -1.1444  0.1087
   49MOL0     C 6365   7.589   8.147   3.596  0.8022  0.4435 -0.7208
   49MOL0     O 6366   7.576   8.203   3.475  0.0808  0.3931 -0.1183
   49MOL0     C 6367   7.683   8.202   3.388 -0.0929  0.0975 -0.7356
   49MOL0     C 6368   7.670   8.125   3.269  0.2702 -0.8760 -0.6426
   49MOL0     C 6369   7.780   8.108   3.177  0.0345 -0.3134  0.1574
   49MOL0     C 6370   7.899   8.178   3.203 -0.0683 -0.2131 -0.2560
   49MOL0     O 6371   8.020   8.172   3.137  0.5614  0.7909  0.4578
   49MOL0     C 6372   8.047   8.050   3.067 -0.4804  0.7242 -0.8777
   49MOL0     C 6373   8.189   8.034   3.015  1.2393 -0.5566 -0.1010
   49MOL0     C 6374   8.229   7.887   3.049  0.3595  0.1278 -0.7337
   49MOL0     C 6375   8.372   7.843   3.006  0.0205 -0.1947  0.2283
   49MOL0     C 6376   8.416   7.892   2.874  0.0135  0.5224 -0.2363
   49MOL0     C 6377   8.539   7.812   2.828  0.3047  0.2393  0.7459
   49MOL0     C 6378   8.579   7.834   2.684  0.2774 -0.1327  0.1844
   49MOL0     C 6379   8.721   7.783   2.655 -0.1748 -0.8505 -0.2255
   49MOL0    Cl 6380   8.738   7.625   2.721  0.1394  0.4259 -0.4157
   49MOL0     C 6381   7.913   8.254   3.326  0.4610  0.3152 -0.4522
   49MOL0     C 6382   7.802   8.263   3.414 -1.0963  0.2088 -0.3816
   49MOL0     O 6383   7.688   8.123   3.655 -0.1141  0.8580  0.3150
   49MOL0     C 6384   7.454   8.067   3.791  0.3570 -0.2761  0.1525
   49MOL0     C 6385   7.327   8.060   3.844 -0.1492 -0.0330  1.1142
   49MOL0     N 6386   6.616   8.225   3.850  0.8305 -0.5746 -0.0110
   49MOL0     N 6387   6.583   8.249   3.728  0.7105  0.4426 -0.1967
   49MOL0     C 6388   7.658   8.778   3.155 -0.6922 -0.4076  0.1142
   49MOL0     C 6389   7.784   8.829   3.125  1.3135  0.3499 -0.6459
   49MOL0     C 6390   8.259   8.827   3.103 -0.4880 -0.2579  0.1958
   49MOL0     C 6391   8.267   8.883   2.970  0.5571  1.1135 -0.7378
   49MOL0     C 6392   8.382   8.936   2.917  0.3853 -0.3154  0.3839
   49MOL0     C 6393   8.501   8.950   2.994 -0.0095  0.7010 -0.8433
   49MOL0     O 6394   8.610   9.007   2.936  0.4163 -0.0709  0.7137
   49MOL0     C 6395   8.737   8.959   2.970  0.2276 -0.7294 -0.4819
   49MOL0     C 6396   8.779   8.826   2.910 -0.7917  1.1934  1.4395
   49MOL0     C 6397   8.897   8.773   2.990 -0.6230  0.1857  0.1040
   49MOL0     C 6398   8.984   8.682   2.901 -1.1456  0.2493  1.0934
   49MOL0     C 6399   9.104   8.646   2.967 -0.0527  0.3343 -0.3109
   49MOL0     C 6400   9.198   8.594   3.025  0.2036  1.8276 -0.1668
   49MOL0     C 6401   8.496   8.905   3.133  0.6171  0.9470 -0.7262
   49MOL0     C 6402   8.381   8.842   3.187  0.0962 -0.8874  0.0931
   49MOL0     H 6403   7.959   8.543   3.177 -0.2001  0.6863 -0.6385
   49MOL0     H 6404   7.727   8.455   3.212  0.5932  0.9493  2.0614
   49MOL0     H 6405   7.565   8.483   3.379  0.8284  1.1687  0.0552
   49MOL0     H 6406   7.481   8.413   3.243 -0.6946  1.5914 -1.6726
   49MOL0     H 6407   7.387   8.594   3.459  4.1815  0.0512 -1.0152
   49MOL0     H 6408   7.331   8.425   3.445 -4.2303  0.6019 -0.5658
   49MOL0     H 6409   7.236   8.509   3.203  3.8058 -0.8151 -0.7010
   49MOL0     H 6410   7.273   8.666   3.283  2.8943 -0.3954  1.6439
   49MOL0     H 6411   7.128   8.600   3.477 -1.5345 -1.5279  0.4387
   49MOL0     H 6412   7.049   8.617   3.318  0.7687 -1.3570 -1.0429
   49MOL0     H 6413   7.139   8.338   3.389  1.8926  2.4166 -1.3340
   49MOL0     H 6414   7.022   8.417   3.275 -0.5866 -0.7059  0.2984
   49MOL0     H 6415   6.887   8.498   3.466 -0.9969 -1.0938 -2.0501
   49MOL0     H 6416   6.987   8.385   3.574  2.1557 -1.8580 -0.9161
   49MOL0     H 6417   6.817   8.312   3.331  2.5839  2.4847 -0.0741
   49MOL0     H 6418   6.881   8.201   3.453  0.5926 -0.0548  0.5274
   49MOL0     H 6419   6.630   8.238   3.457 -2.0139  1.7215 -0.7523
   49MOL0     H 6420   6.653   8.399   3.503 -2.7298 -1.4579  0.8402
   49MOL0     H 6421   6.909   8.274   3.713 -1.2077  0.2780 -2.1330
   49MOL0     H 6422   6.786   8.253   4.079 -2.5640 -0.9225 -1.3537
   49MOL0     H 6423   6.938   8.243   3.995 -0.2873  0.3015 -1.5355
   49MOL0     H 6424   6.766   8.017   4.077 -0.9065  0.7462 -0.5746
   49MOL0     H 6425   6.939   8.056   4.122  1.1542 -3.1176 -0.8163
   49MOL0     H 6426   6.885   7.861   3.984 -3.9433  1.0397  3.8572
   49MOL0     H 6427   6.831   7.960   3.861 -0.7558 -1.1024  1.5802
   49MOL0     H 6428   7.088   7.887   3.851 -1.6794 -0.6346  0.9174
   49MOL0     H 6429   7.115   7.982   3.989  2.0758 -0.8029 -1.3136
   49MOL0     H 6430   7.128   8.122   3.586 -0.4473 -3.1478 -0.3759
   49MOL0     H 6431   7.346   8.136   3.468  0.3838 -1.2642 -0.3536
   49MOL0     H 6432   7.587   8.061   3.240  1.0403 -1.7931 -0.8333
   49MOL0     H 6433   7.756   8.049   3.089  1.1474 -1.8188  0.8180
   49MOL0     H 6434   7.977   8.038   2.984 -1.2542 -0.8495 -0.0447
   49MOL0     H 6435   8.035   7.967   3.138  0.2984  1.8156  0.5897
   49MOL0     H 6436   8.250   8.106   3.070 -0.8569 -0.7527  2.7571
   49MOL0     H 6437   8.199   8.060   2.910 -0.3574  1.0737  0.0897
   49MOL0     H 6438   8.157   7.836   2.985  0.0756  0.5052 -0.7213
   49MOL0     H 6439   8.212   7.857   3.153 -1.6443 -0.5070 -1.1976
   49MOL0     H 6440   8.450   7.864   3.080 -0.4847  0.8425  0.4827
   49MOL0     H 6441   8.369   7.734   3.004  0.8159 -0.2323 -2.0043
   49MOL0     H 6442   8.446   7.997   2.883  1.9592 -0.1032  1.2494
   49MOL0     H 6443   8.332   7.884   2.804  0.1418 -1.7110 -0.2079
   49MOL0     H 6444   8.507   7.709   2.845  1.2673 -0.7870 -2.8237
   49MOL0     H 6445   8.625   7.839   2.889 -1.4184  3.1443  2.0729
   49MOL0     H 6446   8.528   7.765   2.616  2.8809 -0.3473 -1.7224
   49MOL0     H 6447   8.568   7.940   2.658  0.1978 -0.4584 -1.2089
   49MOL0     H 6448   8.795   7.847   2.704 -1.0125 -0.1930  0.1907
   49MOL0     H 6449   8.733   7.781   2.546  2.0130  0.0833 -0.0514
   49MOL0     H 6450   8.008   8.299   3.352  0.6532  0.2689 -1.0635
   49MOL0     H 6451   7.802   8.321   3.506 -1.1228 -1.2400  0.5840
   49MOL0     H 6452   7.543   8.060   3.853  0.9996  3.4601 -0.1110
   49MOL0     H 6453   7.309   8.024   3.945 -2.5044 -1.2040  0.3457
   49MOL0     H 6454   7.575   8.847   3.164 -0.3766 -0.1189  0.9630
   49MOL0     H 6455   7.796   8.936   3.106 -0.0952  0.9877  1.6595
   49MOL0     H 6456   8.175   8.882   2.913  1.1907  0.3311 -1.7841
   49MOL0     H 6457   8.366   8.981   2.820 -2.3539 -2.3467 -0.2392
   49MOL0     H 6458   8.747   8.954   3.079  0.4272  0.3598 -0.4303
   49MOL0     H 6459   8.805   9.036   2.932 -1.0743 -0.5330 -2.5239
   49MOL0     H 6460   8.700   8.751   2.907 -0.5074  0.8424 -2.3840
   49MOL0     H 6461   8.808   8.835   2.805  3.7857 -3.1688  1.9038
   49MOL0     H 6462   8.863   8.721   3.080  1.4338  0.1350  0.8856
   49MOL0     H 6463   8.963   8.851   3.027  1.1773 -0.9606 -0.5492
   49MOL0     H 6464   8.939   8.586   2.876 -0.2093  0.6670 -2.7274
   49MOL0     H 6465   9.014   8.737   2.812 -0.3291 -0.0889  1.1518
   49MOL0     H 6466   9.291   8.571   3.073  0.6194  2.8745 -0.4305
   49MOL0     H 6467   8.582   8.912   3.198  1.0227 -0.5508 -1.0772
   49MOL0     H 6468   8.380   8.811   3.291  6.2801 -0.1276  0.7244
   50MOL0     O 6469   1.097   4.667   3.536 -0.3090 -0.4456 -0.2840
   50MOL0     C 6470   1.084   4.544   3.563 -0.4164 -0.4264  0.1080
   50MOL0     O 6471   0.969   4.478   3.567  0.4717  0.0304  0.2761
   50MOL0     C 6472   0.845   4.536   3.569  0.6447  0.2268  0.2252
   50MOL0     C 6473   0.796   4.609   3.463  0.3625  0.2973 -0.5046
   50MOL0     C 6474   0.663   4.648   3.458  0.3857 -0.4447 -0.8658
   50MOL0     C 6475   0.586   4.620   3.576  0.5413 -0.4914 -1.0738
   50MOL0     O 6476   0.456   4.663   3.592  0.6009  0.4630  0.2182
   50MOL0     C 6477   0.417   4.762   3.502  0.7781 -0.2406  0.4531
   50MOL0     C 6478   0.270   4.813   3.542 -0.2402  0.7214 -0.7035
   50MOL0     C 6479   0.164   4.703   3.540  0.6013  0.5799 -1.0459
   50MOL0     C 6480   0.038   4.713   3.631  0.3849 -0.3266 -0.4682
   50MOL0     C 6481  -0.090   4.739   3.560  0.6885  0.1249 -1.1610
   50MOL0     C 6482  -0.154   4.612   3.498 -0.7520 -0.0305  0.7469
   50MOL0     C 6483  -0.304   4.616   3.522  0.2427 -0.5109 -0.4921
   50MOL0     C 6484  -0.377   4.494   3.460 -0.7378  0.1342  0.0175
   50MOL0     N 6485  -0.511   4.479   3.499 -0.2604 -1.6403 -1.3672
   50MOL0     C 6486  -0.547   4.442   3.624 -0.1715  0.8401 -0.7794
   50MOL0     C 6487  -0.684   4.434   3.623  0.5165 -0.4714  0.1260
   50MOL0     C 6488  -0.781   4.402   3.732  0.6416  0.4721  0.1273
   50MOL0     C 6489  -0.724   4.370   3.872 -0.1755  0.2398  0.9505
   50MOL0     C 6490  -0.822   4.389   3.988  1.0808 -0.4474  0.7961
   50MOL0     C 6491  -0.943   4.295   3.976  0.5246  0.0558  0.6666
   50MOL0     O 6492  -1.013   4.294   4.105 -0.0300 -0.3623 -0.2254
   50MOL0     C 6493  -1.136   4.242   4.116  0.4866  0.0210 -0.2617
   50MOL0     C 6494  -1.216   4.181   4.013  0.0493 -0.3803 -0.1335
   50MOL0     C 6495  -1.352   4.153   4.026 -0.1223  0.2895 -0.5433
   50MOL0     C 6496  -1.419   4.196   4.150  0.5099 -0.0363  0.7134
   50MOL0     C 6497  -1.557   4.160   4.181 -0.5741  1.0700 -0.4469
   50MOL0     O 6498  -1.631   4.103   4.082  0.1534 -0.9041  0.4932
   50MOL0     C 6499  -1.774   4.114   4.085 -0.7437 -0.1496 -0.1402
   50MOL0     C 6500  -1.855   4.010   4.039  0.2755  0.4251 -0.4139
   50MOL0     C 6501  -1.992   3.995   4.049  0.2551 -0.1334 -0.9015
   50MOL0     C 6502  -2.060   4.097   4.123 -0.3270  0.4476 -0.2343
   50MOL0     O 6503  -2.195   4.078   4.157 -0.0876 -0.0851 -0.3627
   50MOL0     C 6504  -2.270   4.173   4.236  0.2836 -0.3588 -0.6632
   50MOL0     C 6505  -2.410   4.123   4.264 -0.4805 -0.1062 -0.2695
   50MOL0     C 6506  -2.466   4.212   4.368 -0.7947 -0.1855  0.1096
   50MOL0     C 6507  -2.603   4.162   4.418 -0.0816 -1.2572  0.0889
   50MOL0     C 6508  -2.698   4.131   4.301  0.3417  0.4309 -0.1561
   50MOL0     C 6509  -2.841   4.081   4.346 -0.5231  0.8127 -0.6076
   50MOL0     C 6510  -2.926   4.167   4.436 -0.0546  0.5987  0.0402
   50MOL0     C 6511  -3.070   4.122   4.424  0.5795  0.1904 -0.5100
   50MOL0    Cl 6512  -3.188   4.253   4.466  0.1163 -0.1107 -0.0982
   50MOL0     C 6513  -1.987   4.209   4.175  0.1000 -0.0185  0.2515
   50MOL0     C 6514  -1.845   4.214   4.158 -0.1519  1.2568  0.1422
   50MOL0     O 6515  -1.581   4.152   4.300  0.5617 -0.5937  0.1127
   50MOL0     C 6516  -1.336   4.262   4.248  0.8896  0.6458  0.1064
   50MOL0     C 6517  -1.200   4.277   4.234  0.7932 -0.1424 -0.3607
   50MOL0     N 6518  -0.726   4.438   3.491  0.2720  0.5748  0.0898
   50MOL0     N 6519  -0.629   4.495   3.426  0.4684 -0.1720  0.4125
   50MOL0     C 6520   0.634   4.538   3.674 -0.4279  0.0821  0.7965
   50MOL0     C 6521   0.764   4.494   3.682  0.2735  0.7127  0.2134
   50MOL0     C 6522   1.199   4.460   3.596  0.0551 -0.8557  0.1186
   50MOL0     C 6523   1.326   4.519   3.589  0.3776 -0.7162  0.9771
   50MOL0     C 6524   1.439   4.445   3.610 -0.3330  0.5900 -0.0204
   50MOL0     C 6525   1.438   4.313   3.664 -0.2341 -0.3162 -0.4860
   50MOL0     O 6526   1.555   4.245   3.680  0.1544  0.1418 -0.7457
   50MOL0     C 6527   1.671   4.283   3.613 -0.2231 -0.1881 -0.3874
   50MOL0     C 6528   1.744   4.367   3.725 -0.0062  0.7714  0.5726
   50MOL0     C 6529   1.775   4.303   3.867 -0.0083  0.6786  0.6204
   50MOL0     C 6530   1.906   4.233   3.871 -0.3925  0.8575 -0.5256
   50MOL0     C 6531   2.025   4.317   3.852  0.2235  0.4917  0.9133
   50MOL0     C 6532   2.126   4.376   3.834 -0.5253 -0.3646 -0.0925
   50MOL0     C 6533   1.311   4.255   3.681  0.1952  0.4890  0.1940
   50MOL0     C 6534   1.186   4.333   3.651 -0.5612 -0.1012 -0.2442
   50MOL0     H 6535   0.852   4.629   3.372  2.3528 -0.8088  0.4148
   50MOL0     H 6536   0.634   4.698   3.366  0.1654  0.7526 -0.1647
   50MOL0     H 6537   0.413   4.723   3.400 -0.1275  0.4575  0.2076
   50MOL0     H 6538   0.481   4.850   3.510 -1.0917  1.1160  1.4247
   50MOL0     H 6539   0.242   4.895   3.475 -1.5637  1.6079  0.8596
   50MOL0     H 6540   0.280   4.851   3.644  0.0518  1.1914 -0.9032
   50MOL0     H 6541   0.202   4.603   3.564  0.3175  0.6695 -0.1851
   50MOL0     H 6542   0.130   4.697   3.436  2.6629  2.4656 -1.8917
   50MOL0     H 6543   0.034   4.628   3.699  0.7902  0.5447  0.6875
   50MOL0     H 6544   0.054   4.796   3.701  2.9433 -2.5359  1.7939
   50MOL0     H 6545  -0.100   4.828   3.498 -2.7956  1.6029  1.1787
   50MOL0     H 6546  -0.157   4.756   3.645 -2.2325  0.7234 -3.4096
   50MOL0     H 6547  -0.117   4.529   3.559 -0.8174  1.6269  3.2091
   50MOL0     H 6548  -0.120   4.599   3.395 -2.5468 -0.5416  0.1859
   50MOL0     H 6549  -0.321   4.608   3.630 -4.2552  0.2570 -0.9306
   50MOL0     H 6550  -0.342   4.715   3.492 -0.3512 -0.6119 -0.1026
   50MOL0     H 6551  -0.318   4.407   3.491 -0.0637  1.0256  1.3286
   50MOL0     H 6552  -0.366   4.487   3.352 -1.2333 -2.6904  0.0714
   50MOL0     H 6553  -0.481   4.418   3.707 -0.4423 -2.2619 -1.3213
   50MOL0     H 6554  -0.828   4.311   3.694  1.2209 -0.1295  0.8242
   50MOL0     H 6555  -0.848   4.489   3.726  0.4403  0.4840  1.9506
   50MOL0     H 6556  -0.642   4.439   3.891 -2.4430  2.7443  2.3516
   50MOL0     H 6557  -0.684   4.269   3.879 -1.3056 -0.6938 -3.1972
   50MOL0     H 6558  -0.770   4.379   4.084  2.9534  0.0752 -0.1112
   50MOL0     H 6559  -0.866   4.489   3.980  0.7481 -0.5451  1.3506
   50MOL0     H 6560  -0.916   4.191   3.960  1.2927  0.5401 -1.4925
   50MOL0     H 6561  -1.005   4.326   3.891 -0.1970 -1.4848  0.6040
   50MOL0     H 6562  -1.172   4.164   3.916  1.8225 -0.8385  0.7089
   50MOL0     H 6563  -1.413   4.099   3.954  1.2709 -1.0045 -0.8042
   50MOL0     H 6564  -1.811   3.930   3.980  0.6432 -0.0977  0.5482
   50MOL0     H 6565  -2.049   3.918   3.998 -3.5223  1.3628  0.6393
   50MOL0     H 6566  -2.276   4.270   4.186  2.1192  0.3318  0.3627
   50MOL0     H 6567  -2.217   4.171   4.332 -0.7160 -2.8931 -0.0773
   50MOL0     H 6568  -2.397   4.023   4.306 -0.4929 -1.1238 -2.5329
   50MOL0     H 6569  -2.471   4.117   4.173 -4.0169  0.4764  1.8758
   50MOL0     H 6570  -2.475   4.316   4.338 -1.1604 -0.5591 -1.1470
   50MOL0     H 6571  -2.398   4.201   4.454 -2.6216 -5.3031  1.2720
   50MOL0     H 6572  -2.587   4.070   4.477 -0.7207 -1.5738 -0.2246
   50MOL0     H 6573  -2.649   4.237   4.482 -0.8143 -1.3713 -0.2995
   50MOL0     H 6574  -2.652   4.049   4.245  0.6479  0.8520 -0.5276
   50MOL0     H 6575  -2.709   4.221   4.240  3.8473  1.2291  0.2162
   50MOL0     H 6576  -2.839   3.989   4.404  1.4180  1.7143  0.8504
   50MOL0     H 6577  -2.885   4.065   4.247 -1.3014 -0.9013 -0.0297
   50MOL0     H 6578  -2.877   4.149   4.532 -3.3490 -2.7910  1.3243
   50MOL0     H 6579  -2.914   4.267   4.394  2.3389  0.9354  1.2983
   50MOL0     H 6580  -3.090   4.033   4.484 -1.6580  1.4231  0.6759
   50MOL0     H 6581  -3.094   4.091   4.323 -0.0800 -0.9995  0.0018
   50MOL0     H 6582  -2.023   4.296   4.230  1.2607  0.2842  0.5626
   50MOL0     H 6583  -1.786   4.293   4.203  2.9298 -0.4436 -0.6369
   50MOL0     H 6584  -1.380   4.302   4.339  1.5659  0.4514  0.5296
   50MOL0     H 6585  -1.142   4.337   4.304 -1.1579  2.2524 -0.6552
   50MOL0     H 6586   0.549   4.520   3.739 -2.7501 -0.2271 -2.0890
   50MOL0     H 6587   0.807   4.436   3.764 -1.3679 -2.4898 -0.9897
   50MOL0     H 6588   1.338   4.619   3.548 -0.2853 -1.4044 -1.0086
   50MOL0     H 6589   1.526   4.509   3.606  1.0770 -1.2476  0.1457
   50MOL0     H 6590   1.646   4.345   3.527  1.9287  1.3516  0.0262
   50MOL0     H 6591   1.729   4.200   3.570 -1.4983 -1.5890  0.5050
   50MOL0     H 6592   1.839   4.399   3.682  0.9204 -1.6285  0.6647
   50MOL0     H 6593   1.683   4.455   3.745 -2.2206 -0.5616  0.0299
   50MOL0     H 6594   1.703   4.227   3.899 -0.1529  0.2963 -0.5745
   50MOL0     H 6595   1.783   4.385   3.939 -1.5100  0.9555  0.4941
   50MOL0     H 6596   1.914   4.168   3.959  1.4074  2.0915  0.2782
   50MOL0     H 6597   1.907   4.162   3.787  0.7339 -0.7372  0.7594
   50MOL0     H 6598   2.210   4.442   3.821 -1.2048  1.2588  2.8829
   50MOL0     H 6599   1.314   4.151   3.711 -1.3454  0.1872 -0.5805
   50MOL0     H 6600   1.087   4.290   3.658 -0.0880 -1.1383  0.3756
   51MOL0     O 6601  10.034   0.486   2.092 -0.1259 -0.0512 -0.4757
   51MOL0     C 6602  10.043   0.596   2.149  0.9090 -0.2729 -0.5427
   51MOL0     O 6603   9.938   0.682   2.161 -0.0015 -0.1960  0.0375
   51MOL0     C 6604   9.815   0.637   2.134  0.0375  0.1785  0.7267
   51MOL0     C 6605   9.725   0.708   2.064  0.2675  0.5402  0.7629
   51MOL0     C 6606   9.592   0.659   2.041 -0.7907  0.0473  0.0012
   51MOL0     C 6607   9.549   0.545   2.105 -0.2486  0.3897  0.0410
   51MOL0     O 6608   9.413   0.507   2.118  0.0820  0.0643  0.7994
   51MOL0     C 6609   9.324   0.611   2.073  0.0298  0.3528  0.8518
   51MOL0     C 6610   9.180   0.587   2.109  0.5040 -0.3491 -0.3977
   51MOL0     C 6611   9.119   0.457   2.074  0.3323 -0.5784  0.4601
   51MOL0     C 6612   8.960   0.466   2.071  0.0521  0.0195  0.1141
   51MOL0     C 6613   8.904   0.328   2.015  0.4920  0.1921  0.2437
   51MOL0     C 6614   8.771   0.290   2.089  0.0995  0.1845  0.3017
   51MOL0     C 6615   8.711   0.158   2.049 -0.6041 -0.1215  0.2112
   51MOL0     C 6616   8.679   0.147   1.900 -0.5257 -0.6833 -0.5204
   51MOL0     N 6617   8.615   0.024   1.867 -0.0038  0.3005  0.0289
   51MOL0     C 6618   8.491  -0.012   1.919 -0.0258 -0.5654  0.2470
   51MOL0     C 6619   8.474  -0.139   1.862 -0.1017 -0.1177  0.6828
   51MOL0     C 6620   8.340  -0.199   1.875 -0.3726  0.0202  0.0488
   51MOL0     C 6621   8.309  -0.232   2.015  0.2287  0.3404 -0.1156
   51MOL0     C 6622   8.175  -0.301   2.031 -0.6957  0.1121 -0.0593
   51MOL0     C 6623   8.152  -0.358   2.178  0.3956  0.6408  0.3786
   51MOL0     O 6624   8.010  -0.394   2.198  0.8406 -0.2148 -0.0235
   51MOL0     C 6625   7.959  -0.452   2.316  0.5036  1.3001 -0.8222
   51MOL0     C 6626   7.820  -0.464   2.321 -0.0910  0.4446  0.0827
   51MOL0     C 6627   7.765  -0.514   2.440  0.6814 -0.3017  0.3059
   51MOL0     C 6628   7.842  -0.552   2.548 -0.0586  0.5160  0.1590
   51MOL0     C 6629   7.772  -0.598   2.667 -0.5226  0.1865  0.9062
   51MOL0     O 6630   7.647  -0.645   2.657  1.0295  0.3640  0.8817
   51MOL0     C 6631   7.575  -0.699   2.759  0.2316  0.5159 -0.6587
   51MOL0     C 6632   7.625  -0.776   2.870 -1.2377 -0.4356  0.0985
   51MOL0     C 6633   7.536  -0.814   2.977  0.2853 -1.0320 -0.8972
   51MOL0     C 6634   7.401  -0.781   2.984  0.0860  0.5720  0.7341
   51MOL0     O 6635   7.328  -0.835   3.083 -1.6570  0.0623  0.8082
   51MOL0     C 6636   7.218  -0.912   3.043  0.8791 -0.3295 -0.1347
   51MOL0     C 6637   7.144  -0.956   3.171  0.0403  0.0046  0.5013
   51MOL0     C 6638   7.110  -0.838   3.258 -0.4570 -0.3426 -0.2382
   51MOL0     C 6639   7.012  -0.739   3.191  0.3909 -0.3092  0.1177
   51MOL0     C 6640   6.866  -0.806   3.166 -0.0574 -0.3616 -0.0401
   51MOL0     C 6641   6.772  -0.700   3.117  0.1707 -0.7906 -0.6314
   51MOL0     C 6642   6.624  -0.743   3.119 -0.6383 -1.3791 -0.2855
   51MOL0     C 6643   6.595  -0.854   3.015  0.8228 -0.4113 -1.5389
   51MOL0    Cl 6644   6.611  -0.793   2.847  0.3575 -0.5883  0.4222
   51MOL0     C 6645   7.356  -0.717   2.872 -0.3273 -0.0065  0.1966
   51MOL0     C 6646   7.436  -0.666   2.768  0.2208  0.0137  0.4890
   51MOL0     O 6647   7.834  -0.582   2.764  0.0737  0.0155 -0.0460
   51MOL0     C 6648   7.988  -0.557   2.534  0.0381 -0.4495  0.6666
   51MOL0     C 6649   8.041  -0.497   2.420  0.4702 -1.0877 -0.9479
   51MOL0     N 6650   8.589  -0.170   1.785  0.0138  0.3417 -0.6340
   51MOL0     N 6651   8.671  -0.071   1.785 -0.5557  0.7107  0.9325
   51MOL0     C 6652   9.635   0.479   2.191  0.0689  0.2155 -0.4255
   51MOL0     C 6653   9.766   0.525   2.198 -0.0552  0.6633 -0.0253
   51MOL0     C 6654  10.179   0.633   2.189 -0.1247 -0.9029  0.2940
   51MOL0     C 6655  10.209   0.735   2.286  0.2931 -0.4380  0.4919
   51MOL0     C 6656  10.340   0.770   2.328  0.7208 -0.9283  0.0533
   51MOL0     C 6657  10.448   0.707   2.265  0.2934  0.0607  0.1474
   51MOL0     O 6658  10.571   0.734   2.318 -0.2944 -0.2624 -0.0368
   51MOL0     C 6659  10.689   0.736   2.231 -0.1561  0.0995  0.7659
   51MOL0     C 6660  10.809   0.728   2.317  0.8120  1.2113 -0.0083
   51MOL0     C 6661  10.928   0.690   2.228 -0.2383  1.0708 -0.9124
   51MOL0     C 6662  11.046   0.663   2.320 -0.2154  0.0751  0.0406
   51MOL0     C 6663  11.168   0.646   2.251 -1.1101  0.3007  0.2927
   51MOL0     C 6664  11.268   0.630   2.176  0.1059 -1.2149  0.7770
   51MOL0     C 6665  10.430   0.611   2.162  1.1092  0.4079 -0.8865
   51MOL0     C 6666  10.296   0.573   2.124  0.0891  0.0944 -0.2750
   51MOL0     H 6667   9.756   0.789   1.998 -1.0424 -0.9117 -1.7826
   51MOL0     H 6668   9.534   0.726   1.979  1.7847  1.7778 -0.7049
   51MOL0     H 6669   9.332   0.607   1.964  2.6983  1.5620  0.9180
   51MOL0     H 6670   9.361   0.706   2.112 -1.7491  0.3116  2.8445
   51MOL0     H 6671   9.130   0.666   2.052  0.3896  0.3349  0.6031
   51MOL0     H 6672   9.158   0.605   2.215 -1.1854 -0.8055 -0.6510
   51MOL0     H 6673   9.152   0.375   2.139  0.0363 -0.8355  0.2907
   51MOL0     H 6674   9.151   0.425   1.974 -1.1807 -1.8563  0.3468
   51MOL0     H 6675   8.918   0.503   2.165 -2.3975  2.6974 -1.8890
   51MOL0     H 6676   8.938   0.547   2.002  3.2210  0.2121 -0.8328
   51MOL0     H 6677   8.972   0.242   2.024 -1.2558 -1.1754  0.9401
   51MOL0     H 6678   8.872   0.335   1.911 -2.0530  2.6350  1.0745
   51MOL0     H 6679   8.701   0.374   2.085 -3.1998 -2.3491  0.3862
   51MOL0     H 6680   8.797   0.288   2.195  4.5332  4.1302 -0.3476
   51MOL0     H 6681   8.786   0.088   2.085  1.0230  2.6619  2.7104
   51MOL0     H 6682   8.621   0.145   2.110 -0.1893 -2.0000  0.4502
   51MOL0     H 6683   8.770   0.159   1.840 -0.6438 -1.2909 -0.8294
   51MOL0     H 6684   8.616   0.233   1.875  0.0107  0.4241  1.7148
   51MOL0     H 6685   8.413   0.043   1.969  2.0019  1.1792  1.6937
   51MOL0     H 6686   8.345  -0.288   1.811  0.4374 -0.5711  0.8933
   51MOL0     H 6687   8.262  -0.139   1.828  0.0102 -1.0205 -2.0132
   51MOL0     H 6688   8.312  -0.141   2.075 -1.3091  1.5334 -1.7404
   51MOL0     H 6689   8.373  -0.311   2.056  0.0421 -0.1807 -0.8015
   51MOL0     H 6690   8.087  -0.239   2.010 -1.7587 -1.0876  0.6894
   51MOL0     H 6691   8.182  -0.385   1.961 -2.7960 -1.5905  1.6424
   51MOL0     H 6692   8.191  -0.292   2.256  1.5142 -1.7770  2.0003
   51MOL0     H 6693   8.218  -0.446   2.176 -0.1643  0.2024  0.8423
   51MOL0     H 6694   7.766  -0.439   2.230  0.0519 -1.8533 -0.6956
   51MOL0     H 6695   7.658  -0.525   2.453  0.2810 -1.1786 -2.8427
   51MOL0     H 6696   7.730  -0.802   2.878 -0.2869  2.9157  0.1235
   51MOL0     H 6697   7.577  -0.863   3.065 -0.3125 -0.9174 -0.5523
   51MOL0     H 6698   7.234  -1.002   2.983 -2.5377  1.0618 -3.5377
   51MOL0     H 6699   7.160  -0.852   2.972 -0.6969  1.2176  2.3191
   51MOL0     H 6700   7.223  -1.001   3.232  2.8059  1.9220 -1.3899
   51MOL0     H 6701   7.058  -1.022   3.161  2.1427 -3.3467  2.5574
   51MOL0     H 6702   7.202  -0.785   3.286 -0.1120  0.8267 -3.1897
   51MOL0     H 6703   7.071  -0.884   3.350  0.1175 -3.1778 -1.3181
   51MOL0     H 6704   7.001  -0.657   3.262  0.1582  1.3669 -1.7308
   51MOL0     H 6705   7.052  -0.700   3.096 -2.3178  1.3840 -0.4179
   51MOL0     H 6706   6.826  -0.860   3.253 -0.6144 -2.2317 -1.3911
   51MOL0     H 6707   6.875  -0.879   3.085  0.3767  0.8576 -1.1314
   51MOL0     H 6708   6.796  -0.649   3.023  2.0534 -0.9137 -0.2629
   51MOL0     H 6709   6.784  -0.618   3.188 -1.4148 -0.8509 -0.2742
   51MOL0     H 6710   6.611  -0.763   3.226 -0.3003 -0.4526 -0.0612
   51MOL0     H 6711   6.560  -0.655   3.108  1.1742  0.7195  3.6374
   51MOL0     H 6712   6.496  -0.897   3.033  0.4334  0.6776 -0.9761
   51MOL0     H 6713   6.657  -0.940   3.041 -0.1780 -0.1254  2.5984
   51MOL0     H 6714   7.249  -0.699   2.863 -0.3212 -0.1524 -0.1766
   51MOL0     H 6715   7.393  -0.598   2.696  1.2248  1.3200  1.0764
   51MOL0     H 6716   8.051  -0.594   2.614  0.4339  0.5070  0.8074
   51MOL0     H 6717   8.149  -0.498   2.413  0.8621 -1.1755  2.9248
   51MOL0     H 6718   9.595   0.393   2.244 -1.9901  1.4874  0.2348
   51MOL0     H 6719   9.838   0.473   2.261  0.9561  1.8097 -0.2026
   51MOL0     H 6720  10.122   0.778   2.335  0.0210 -3.1463  2.5698
   51MOL0     H 6721  10.345   0.844   2.407 -0.8769  1.7101 -2.1521
   51MOL0     H 6722  10.686   0.832   2.180  0.2638  0.9823  2.3479
   51MOL0     H 6723  10.694   0.656   2.156  1.4323  0.3294  0.6004
   51MOL0     H 6724  10.825   0.824   2.368  0.6018  1.7370 -0.9076
   51MOL0     H 6725  10.793   0.643   2.385  0.8320  1.9005  0.8845
   51MOL0     H 6726  10.949   0.775   2.162  2.1937  1.2763  0.0069
   51MOL0     H 6727  10.915   0.601   2.167  0.1805  0.2195  0.1927
   51MOL0     H 6728  11.062   0.751   2.382  3.6932 -1.0358  0.8817
   51MOL0     H 6729  11.027   0.582   2.392 -2.6850  1.4895  1.1255
   51MOL0     H 6730  11.356   0.620   2.117 -1.4310 -4.6345 -1.2203
   51MOL0     H 6731  10.511   0.557   2.115  0.6811  0.1847 -1.3830
   51MOL0     H 6732  10.273   0.502   2.046 -5.9632 -2.0986  2.8146
   52MOL0     O 6733   4.118   3.455   8.171 -0.0979  0.0537  0.0002
   52MOL0     C 6734   4.037   3.549   8.198  0.5763  0.1368  0.2656
   52MOL0     O 6735   4.067   3.679   8.225 -0.1370  0.1699  0.5702
   52MOL0     C 6736   4.202   3.709   8.237  0.0431  0.6616 -0.2326
   52MOL0     C 6737   4.302   3.624   8.280 -1.0825 -0.2470  0.1516
   52MOL0     C 6738   4.435   3.674   8.279  0.7973  0.5818 -0.4429
   52MOL0     C 6739   4.468   3.795   8.210  0.3012 -0.7417 -0.1164
   52MOL0     O 6740   4.596   3.839   8.190  0.2750 -0.2929  0.7967
   52MOL0     C 6741   4.671   3.847   8.305 -0.3366 -0.1958 -0.5559
   52MOL0     C 6742   4.817   3.809   8.284 -0.0411 -0.8869 -0.3551
   52MOL0     C 6743   4.891   3.923   8.216 -0.0359  0.0896  0.3149
   52MOL0     C 6744   5.018   3.852   8.174  0.4449  0.2216  0.4275
   52MOL0     C 6745   5.130   3.938   8.119 -0.8535  0.2084  0.1852
   52MOL0     C 6746   5.086   4.008   7.992 -0.6196  0.4865  0.3550
   52MOL0     C 6747   5.204   4.076   7.923 -0.7118 -0.0411  0.4119
   52MOL0     C 6748   5.168   4.143   7.787 -0.1058  0.8885  0.3642
   52MOL0     N 6749   5.073   4.252   7.812 -0.0066 -0.0961  0.7166
   52MOL0     C 6750   4.937   4.249   7.792  1.1093 -0.6402  0.2201
   52MOL0     C 6751   4.905   4.375   7.818  0.3017  0.3637  1.0154
   52MOL0     C 6752   4.770   4.436   7.823  0.1608 -0.6144 -0.0839
   52MOL0     C 6753   4.703   4.442   7.963  0.0511 -1.2039  0.0012
   52MOL0     C 6754   4.737   4.322   8.061  0.3158 -0.7798  0.0329
   52MOL0     C 6755   4.687   4.331   8.202  1.1977  0.1873  0.0269
   52MOL0     O 6756   4.586   4.429   8.230 -0.4986 -0.7366  0.4924
   52MOL0     C 6757   4.455   4.410   8.201 -0.2907 -0.0303  0.1416
   52MOL0     C 6758   4.384   4.525   8.244 -0.3252  1.1377  0.3988
   52MOL0     C 6759   4.248   4.527   8.238  0.7811 -0.0363 -0.0548
   52MOL0     C 6760   4.172   4.413   8.179 -0.2788 -0.4368  0.7672
   52MOL0     C 6761   4.032   4.416   8.174  1.2363  0.0639  0.0688
   52MOL0     O 6762   3.971   4.533   8.224  0.8237  0.4552 -0.2864
   52MOL0     C 6763   3.834   4.545   8.229 -0.1964  0.4223  0.2811
   52MOL0     C 6764   3.780   4.492   8.343  0.1519  0.4203 -1.1486
   52MOL0     C 6765   3.646   4.509   8.373 -0.1298 -0.0701 -0.5084
   52MOL0     C 6766   3.568   4.588   8.286  0.5892  0.9550  0.7169
   52MOL0     O 6767   3.440   4.620   8.315  1.1618  0.5718  0.3947
   52MOL0     C 6768   3.401   4.758   8.323 -0.3338 -0.2359  0.3024
   52MOL0     C 6769   3.248   4.754   8.317 -0.2358  0.6037 -0.1547
   52MOL0     C 6770   3.195   4.656   8.203 -0.7579  0.9577 -0.1465
   52MOL0     C 6771   3.044   4.664   8.197 -0.1392 -0.2809 -0.1503
   52MOL0     C 6772   2.993   4.798   8.126 -0.1559  0.6273 -0.1248
   52MOL0     C 6773   2.860   4.765   8.068 -0.4609 -1.4244  0.3430
   52MOL0     C 6774   2.782   4.897   8.027 -0.3210  0.4819 -0.2990
   52MOL0     C 6775   2.850   4.959   7.899 -0.5552 -0.0305  0.4057
   52MOL0    Cl 6776   2.865   4.855   7.756 -0.0850 -0.0370  0.1837
   52MOL0     C 6777   3.631   4.644   8.169 -0.4211  0.3222  0.3461
   52MOL0     C 6778   3.764   4.619   8.137  0.1446  0.2089 -0.0073
   52MOL0     O 6779   3.966   4.328   8.110 -0.1574 -0.4167 -0.4565
   52MOL0     C 6780   4.249   4.307   8.130 -0.8448 -0.8994  0.7144
   52MOL0     C 6781   4.395   4.315   8.132  0.3034  0.7439 -0.1494
   52MOL0     N 6782   5.017   4.452   7.842  0.2669 -0.1273  0.6261
   52MOL0     N 6783   5.115   4.379   7.841 -0.2397  0.7098  1.0808
   52MOL0     C 6784   4.367   3.875   8.158 -0.2070  0.2851 -0.3444
   52MOL0     C 6785   4.234   3.825   8.166 -0.3268  0.5219 -0.5402
   52MOL0     C 6786   3.894   3.513   8.194  0.0665  0.8415 -0.2911
   52MOL0     C 6787   3.855   3.376   8.213  0.4971 -0.3859 -0.3443
   52MOL0     C 6788   3.719   3.340   8.223  0.6398  0.1752 -0.4404
   52MOL0     C 6789   3.614   3.434   8.204 -0.4298  0.3113  0.0023
   52MOL0     O 6790   3.478   3.422   8.225 -0.9386 -0.6975  0.6390
   52MOL0     C 6791   3.446   3.300   8.289  0.0695  0.5297  0.3532
   52MOL0     C 6792   3.304   3.301   8.327 -0.7313 -0.2755 -0.0512
   52MOL0     C 6793   3.250   3.171   8.393  0.8410  0.0885 -0.4030
   52MOL0     C 6794   3.123   3.197   8.475  0.1418 -0.0202 -0.5207
   52MOL0     C 6795   3.084   3.072   8.554 -0.5031  0.1541  0.7505
   52MOL0     C 6796   3.076   2.962   8.607 -0.4938  1.1269 -0.5524
   52MOL0     C 6797   3.656   3.571   8.187  0.0190 -0.1225 -0.0915
   52MOL0     C 6798   3.793   3.610   8.189  0.2891 -0.4253  0.6613
   52MOL0     H 6799   4.284   3.534   8.338 -0.3774 -1.0205 -0.7922
   52MOL0     H 6800   4.519   3.615   8.314  0.9397  0.6256 -0.7063
   52MOL0     H 6801   4.632   3.782   8.384  0.6684 -1.7337 -1.2704
   52MOL0     H 6802   4.663   3.950   8.342 -0.5513 -0.1120 -0.8371
   52MOL0     H 6803   4.830   3.715   8.231 -0.0921 -1.1105  0.0266
   52MOL0     H 6804   4.858   3.804   8.385 -1.1700 -1.4765  0.0963
   52MOL0     H 6805   4.920   3.996   8.291  0.5727 -0.9627  1.1271
   52MOL0     H 6806   4.836   3.968   8.132 -0.4873 -1.7392 -0.4156
   52MOL0     H 6807   5.061   3.822   8.270  1.5643 -0.5905 -0.2986
   52MOL0     H 6808   5.008   3.770   8.102  0.6295  0.7108 -0.1687
   52MOL0     H 6809   5.214   3.872   8.099  0.3791  1.8814 -0.4266
   52MOL0     H 6810   5.150   4.018   8.191 -0.3781  1.9783 -1.7965
   52MOL0     H 6811   5.011   4.081   8.022 -1.2422  0.7439 -1.7056
   52MOL0     H 6812   5.041   3.936   7.923  1.9339 -1.5448  0.6667
   52MOL0     H 6813   5.246   4.164   7.973 -0.7552  1.9398 -2.7303
   52MOL0     H 6814   5.287   4.004   7.921  1.7011  2.5107  1.1997
   52MOL0     H 6815   5.129   4.057   7.733  2.5092 -1.8081  2.4079
   52MOL0     H 6816   5.258   4.174   7.733 -0.1509 -0.7822 -0.7179
   52MOL0     H 6817   4.869   4.165   7.779  0.8768 -0.2321 -1.5066
   52MOL0     H 6818   4.709   4.368   7.763 -1.3424  1.3082 -0.8483
   52MOL0     H 6819   4.777   4.536   7.778  0.4890 -1.2641 -1.5421
   52MOL0     H 6820   4.597   4.454   7.939  0.5269 -0.5982 -1.9852
   52MOL0     H 6821   4.717   4.542   8.006  0.0556 -0.0982 -2.3760
   52MOL0     H 6822   4.691   4.231   8.022  0.6602 -1.3359  0.9297
   52MOL0     H 6823   4.841   4.288   8.060  0.1897 -1.1661  0.0132
   52MOL0     H 6824   4.782   4.358   8.249  2.4587  0.5438 -2.5729
   52MOL0     H 6825   4.660   4.229   8.232 -3.3368  1.5617  1.3888
   52MOL0     H 6826   4.445   4.601   8.291 -0.5040  0.8723  1.0835
   52MOL0     H 6827   4.202   4.618   8.274  1.6895  0.7857 -0.9287
   52MOL0     H 6828   3.837   4.436   8.417 -1.2488  0.1532 -0.2265
   52MOL0     H 6829   3.602   4.460   8.459 -0.9489 -1.1714 -1.5265
   52MOL0     H 6830   3.444   4.823   8.246  2.4203 -1.5849  0.5829
   52MOL0     H 6831   3.439   4.803   8.415 -0.6809  0.3580  0.1617
   52MOL0     H 6832   3.201   4.852   8.305  0.2380  0.7637 -0.7432
   52MOL0     H 6833   3.208   4.725   8.415 -1.1744  2.9211  0.2070
   52MOL0     H 6834   3.217   4.552   8.227 -2.2751  0.1860 -1.8710
   52MOL0     H 6835   3.231   4.674   8.101  1.4737  0.4000  0.4873
   52MOL0     H 6836   3.003   4.579   8.142 -0.7749  0.2178 -0.4586
   52MOL0     H 6837   2.998   4.653   8.296 -0.9800 -0.0788 -0.5090
   52MOL0     H 6838   3.068   4.816   8.048  0.4498 -0.8954  0.0777
   52MOL0     H 6839   2.993   4.887   8.190 -0.6309 -0.3867  1.3300
   52MOL0     H 6840   2.806   4.714   8.148 -1.7221 -0.2662  0.2636
   52MOL0     H 6841   2.867   4.703   7.978  0.3927 -2.9327  1.3958
   52MOL0     H 6842   2.682   4.866   7.995  0.5452 -1.7037 -1.0605
   52MOL0     H 6843   2.776   4.978   8.101 -0.4101 -0.8227  1.1700
   52MOL0     H 6844   2.946   5.006   7.920 -0.0826 -1.4472  1.5932
   52MOL0     H 6845   2.780   5.039   7.873  1.1159  1.4257  0.1984
   52MOL0     H 6846   3.563   4.702   8.107  0.7066 -0.0107 -1.2611
   52MOL0     H 6847   3.799   4.677   8.053 -1.7461 -0.7556 -1.5401
   52MOL0     H 6848   4.200   4.222   8.084  0.2721 -1.0777 -0.1818
   52MOL0     H 6849   4.453   4.235   8.087  2.9126  1.4673  1.6778
   52MOL0     H 6850   4.387   3.972   8.112 -0.0563  0.1470 -0.5776
   52MOL0     H 6851   4.159   3.891   8.125  0.1945  0.6213 -1.3424
   52MOL0     H 6852   3.928   3.296   8.217  1.3914  0.2883 -1.9134
   52MOL0     H 6853   3.701   3.239   8.257  2.4707  0.0757  0.3640
   52MOL0     H 6854   3.513   3.301   8.376  1.8694  2.1811 -0.9442
   52MOL0     H 6855   3.464   3.211   8.227 -1.2737  0.7585 -0.4058
   52MOL0     H 6856   3.301   3.385   8.397  0.6256  0.1880 -0.5151
   52MOL0     H 6857   3.252   3.330   8.235 -1.6401  2.4009  1.1754
   52MOL0     H 6858   3.324   3.129   8.462 -1.9622  1.7850  4.0261
   52MOL0     H 6859   3.218   3.096   8.319  2.9380 -1.9812  0.6586
   52MOL0     H 6860   3.123   3.279   8.547 -1.5622 -0.1233 -0.3664
   52MOL0     H 6861   3.042   3.222   8.406  0.3200  0.0787 -0.6979
   52MOL0     H 6862   3.085   2.868   8.658  2.3219  1.1022 -0.9412
   52MOL0     H 6863   3.587   3.649   8.157  4.9579  3.3977 -4.1716
   52MOL0     H 6864   3.822   3.713   8.171 -3.1443  0.8169  1.4117
   53MOL0     O 6865   7.467   7.628   4.609  0.2176  0.1221 -0.0559
   53MOL0     C 6866   7.551   7.682   4.677  0.5000 -0.9501  0.3941
   53MOL0     O 6867   7.516   7.795   4.745 -0.2815 -0.1181  0.2439
   53MOL0     C 6868   7.392   7.849   4.711 -0.1797  0.7231  0.0136
   53MOL0     C 6869   7.392   7.963   4.639  0.1995 -0.2146  0.6610
   53MOL0     C 6870   7.275   8.037   4.616  0.2701 -0.4562  0.8467
   53MOL0     C 6871   7.151   7.988   4.669  0.5830  0.2178 -0.3611
   53MOL0     O 6872   7.029   8.042   4.658 -0.1744 -0.5314  0.3303
   53MOL0     C 6873   7.003   8.091   4.530  1.0137 -0.2380  0.6480
   53MOL0     C 6874   6.848   8.088   4.511 -0.4166 -0.1804  0.2217
   53MOL0     C 6875   6.805   8.211   4.429  0.3318 -0.0084  0.1424
   53MOL0     C 6876   6.666   8.256   4.472 -0.2015  0.6275 -0.5297
   53MOL0     C 6877   6.614   8.367   4.378  0.3041 -0.1632  0.3335
   53MOL0     C 6878   6.496   8.313   4.279  0.1478 -0.2560  0.4847
   53MOL0     C 6879   6.457   8.422   4.174  0.0719  0.6867 -0.6706
   53MOL0     C 6880   6.343   8.392   4.086 -0.7599  0.3613 -0.2796
   53MOL0     N 6881   6.325   8.509   4.000 -0.1565  0.5961 -0.2072
   53MOL0     C 6882   6.396   8.519   3.875  0.4972 -0.6270  0.6422
   53MOL0     C 6883   6.389   8.652   3.843  1.0229 -0.4868 -0.1412
   53MOL0     C 6884   6.449   8.735   3.732  1.4214 -0.0364  0.6743
   53MOL0     C 6885   6.587   8.782   3.780 -0.9170 -0.5273  0.2721
   53MOL0     C 6886   6.687   8.665   3.807  0.7601 -0.9187 -0.0011
   53MOL0     C 6887   6.829   8.709   3.771 -0.5617  0.3304  0.9733
   53MOL0     O 6888   6.923   8.607   3.797 -0.1102  0.1046 -0.5661
   53MOL0     C 6889   7.061   8.628   3.776 -0.6144  0.0456 -0.6729
   53MOL0     C 6890   7.160   8.532   3.799  0.5993 -0.9669  0.0120
   53MOL0     C 6891   7.292   8.559   3.764  0.0451  0.0459 -0.4404
   53MOL0     C 6892   7.338   8.681   3.709  1.5346  0.4308  0.3958
   53MOL0     C 6893   7.473   8.697   3.673  0.3039  0.4611 -0.5491
   53MOL0     O 6894   7.554   8.594   3.697 -0.2371 -0.2537  0.2430
   53MOL0     C 6895   7.681   8.569   3.653 -0.0162  0.1074  0.7791
   53MOL0     C 6896   7.741   8.630   3.535 -0.8553  0.0906 -1.3389
   53MOL0     C 6897   7.880   8.593   3.511  0.6471  0.5589  0.4568
   53MOL0     C 6898   7.953   8.515   3.593  0.5847  0.0046 -0.0902
   53MOL0     O 6899   8.082   8.508   3.551 -0.0887 -0.0623  0.4391
   53MOL0     C 6900   8.153   8.394   3.579  0.0725  0.6080 -0.6595
   53MOL0     C 6901   8.278   8.382   3.496  0.2397  0.1645 -0.2461
   53MOL0     C 6902   8.348   8.256   3.552 -0.7453  0.4210  0.6672
   53MOL0     C 6903   8.422   8.173   3.437 -0.1055 -0.4676 -0.3823
   53MOL0     C 6904   8.533   8.240   3.359 -0.8794 -0.4313  1.3808
   53MOL0     C 6905   8.582   8.149   3.253 -0.0174 -0.6348  0.2815
   53MOL0     C 6906   8.706   8.210   3.177 -0.3302 -0.4946 -0.8081
   53MOL0     C 6907   8.663   8.331   3.108  0.8192  1.0689 -0.5099
   53MOL0    Cl 6908   8.773   8.394   2.990 -0.0143  0.2089 -0.1996
   53MOL0     C 6909   7.896   8.462   3.710 -1.0853  1.9864  0.0147
   53MOL0     C 6910   7.749   8.484   3.733 -0.7880 -0.7552  0.1762
   53MOL0     O 6911   7.500   8.794   3.601 -0.2781  1.1730 -0.4068
   53MOL0     C 6912   7.243   8.780   3.686  0.1501 -0.1546  0.6008
   53MOL0     C 6913   7.106   8.754   3.727  0.1568  0.2079 -0.3665
   53MOL0     N 6914   6.297   8.709   3.937 -0.0995 -0.4218  0.4738
   53MOL0     N 6915   6.269   8.628   4.033 -0.3148 -0.1680 -0.2926
   53MOL0     C 6916   7.149   7.869   4.738  0.1474  0.0139  0.2606
   53MOL0     C 6917   7.273   7.793   4.756  0.1565 -0.4509 -0.2583
   53MOL0     C 6918   7.688   7.639   4.655 -0.3628 -0.0319 -0.1997
   53MOL0     C 6919   7.711   7.518   4.600 -0.2615 -0.1770  0.3693
   53MOL0     C 6920   7.842   7.476   4.577  0.2483 -0.7614  0.0508
   53MOL0     C 6921   7.951   7.552   4.623  0.1595 -0.9723 -0.2940
   53MOL0     O 6922   8.078   7.502   4.615  0.2411 -0.5104  0.0844
   53MOL0     C 6923   8.185   7.565   4.681  0.5080  0.5405  0.1193
   53MOL0     C 6924   8.167   7.548   4.828 -0.6007  0.3114  0.1521
   53MOL0     C 6925   8.119   7.409   4.882 -0.3423 -0.1289  0.7225
   53MOL0     C 6926   8.191   7.288   4.820  0.3359  0.8404  0.0584
   53MOL0     C 6927   8.330   7.295   4.857  0.5461  0.0317  0.3681
   53MOL0     C 6928   8.447   7.291   4.883  0.2956  0.2165  0.2572
   53MOL0     C 6929   7.923   7.674   4.700  0.7203  0.2558 -0.0372
   53MOL0     C 6930   7.793   7.715   4.707  0.6997 -0.6600 -0.4626
   53MOL0     H 6931   7.485   7.991   4.590 -0.0079 -2.7540 -1.3821
   53MOL0     H 6932   7.268   8.115   4.541 -2.3876 -1.7628 -0.4031
   53MOL0     H 6933   7.055   8.042   4.448  1.2025  3.8666 -1.9930
   53MOL0     H 6934   7.031   8.197   4.529 -2.1575  0.8122  3.2820
   53MOL0     H 6935   6.801   8.101   4.609 -1.3058 -1.7789  0.0398
   53MOL0     H 6936   6.821   7.990   4.470  0.5279 -2.0064  3.5659
   53MOL0     H 6937   6.813   8.186   4.323 -1.3285  0.6787 -0.1804
   53MOL0     H 6938   6.872   8.293   4.454  0.8121 -0.9431  2.1678
   53MOL0     H 6939   6.592   8.175   4.474 -2.6838  2.7632 -0.3640
   53MOL0     H 6940   6.674   8.290   4.576  0.7505  0.8039 -0.6540
   53MOL0     H 6941   6.699   8.404   4.319  2.8289 -3.2335  1.6954
   53MOL0     H 6942   6.574   8.440   4.448 -0.0514 -0.1973  0.1637
   53MOL0     H 6943   6.419   8.270   4.343 -0.4861 -0.7446 -0.5743
   53MOL0     H 6944   6.531   8.229   4.218  0.8734  0.7156 -0.4769
   53MOL0     H 6945   6.421   8.513   4.222  1.6509  1.9567 -1.8175
   53MOL0     H 6946   6.541   8.443   4.107 -0.6483  3.8277 -0.7141
   53MOL0     H 6947   6.252   8.374   4.144  0.3562  0.4637  1.5946
   53MOL0     H 6948   6.357   8.313   4.011  3.1161  0.4992  0.0922
   53MOL0     H 6949   6.461   8.448   3.824  2.5548  0.9529  0.9349
   53MOL0     H 6950   6.380   8.815   3.704  0.5992 -1.6212 -2.2520
   53MOL0     H 6951   6.459   8.679   3.639  0.9327  0.2762  0.4318
   53MOL0     H 6952   6.588   8.835   3.875  3.3989 -0.8918  0.6665
   53MOL0     H 6953   6.613   8.855   3.703 -1.9820  1.5251  1.7782
   53MOL0     H 6954   6.681   8.631   3.910 -0.4131  0.0950  0.2907
   53MOL0     H 6955   6.673   8.589   3.730  1.5519 -2.1285  1.0123
   53MOL0     H 6956   6.849   8.798   3.831  2.7920 -0.2913  0.9416
   53MOL0     H 6957   6.834   8.737   3.665  0.1421 -0.4270  0.7950
   53MOL0     H 6958   7.116   8.439   3.831 -2.6002  0.4479  0.1327
   53MOL0     H 6959   7.379   8.497   3.784  0.0607 -1.1350 -3.5422
   53MOL0     H 6960   7.694   8.706   3.475  0.4800  0.1280 -2.3906
   53MOL0     H 6961   7.921   8.628   3.417 -0.8353  0.6470 -0.1870
   53MOL0     H 6962   8.088   8.309   3.558  1.4762 -0.5078 -0.6368
   53MOL0     H 6963   8.180   8.398   3.685 -0.3882  0.3667 -0.5343
   53MOL0     H 6964   8.341   8.470   3.512  1.8416 -1.3925  3.1262
   53MOL0     H 6965   8.245   8.367   3.393  0.3923  0.7532 -0.3854
   53MOL0     H 6966   8.276   8.183   3.590  2.6099 -3.8693 -0.3048
   53MOL0     H 6967   8.416   8.279   3.635 -0.3355 -0.1009  0.4861
   53MOL0     H 6968   8.464   8.076   3.464  1.9384 -0.2726 -2.5186
   53MOL0     H 6969   8.340   8.155   3.368  1.0796  0.3425 -2.0769
   53MOL0     H 6970   8.617   8.275   3.419  0.8656  1.7526 -2.0233
   53MOL0     H 6971   8.482   8.330   3.322  0.5861  0.3845  1.3024
   53MOL0     H 6972   8.506   8.120   3.180  0.6561 -2.0238  0.1065
   53MOL0     H 6973   8.610   8.054   3.299  0.1358 -1.6835 -1.8337
   53MOL0     H 6974   8.783   8.222   3.254 -1.2662 -1.4660  0.3166
   53MOL0     H 6975   8.743   8.133   3.108 -0.6410 -1.4909  0.1008
   53MOL0     H 6976   8.638   8.407   3.183  1.2203 -1.0767  1.9264
   53MOL0     H 6977   8.571   8.297   3.059  1.4979  0.1002 -1.1606
   53MOL0     H 6978   7.943   8.401   3.787 -0.0961  1.4269 -0.9954
   53MOL0     H 6979   7.706   8.429   3.815  1.7834 -1.2751  1.2837
   53MOL0     H 6980   7.261   8.882   3.656 -0.0626  0.6068  2.8442
   53MOL0     H 6981   7.035   8.834   3.714  0.6887  0.3582 -2.8210
   53MOL0     H 6982   7.050   7.844   4.774  0.5108 -0.4010  1.0109
   53MOL0     H 6983   7.278   7.703   4.817 -0.3719 -1.3861 -1.5437
   53MOL0     H 6984   7.634   7.443   4.580 -0.8139 -0.0385  1.8264
   53MOL0     H 6985   7.874   7.379   4.540 -0.0273 -0.3432 -1.3249
   53MOL0     H 6986   8.204   7.667   4.645 -1.1765  1.0698  0.6328
   53MOL0     H 6987   8.280   7.515   4.661  0.0670 -1.1149  1.8959
   53MOL0     H 6988   8.270   7.563   4.864 -1.0417 -0.4762  1.8343
   53MOL0     H 6989   8.108   7.630   4.869 -0.1625  0.1833  1.0696
   53MOL0     H 6990   8.016   7.401   4.845  0.7150 -0.3213 -2.5576
   53MOL0     H 6991   8.126   7.406   4.991  2.8279 -0.1572  0.5988
   53MOL0     H 6992   8.142   7.198   4.859 -0.4856 -1.3194 -5.2138
   53MOL0     H 6993   8.181   7.295   4.712  2.9429  1.8309 -0.1970
   53MOL0     H 6994   8.553   7.275   4.891  1.0356  3.5800 -0.9033
   53MOL0     H 6995   8.003   7.734   4.742 -1.1153  1.1593  2.4181
   53MOL0     H 6996   7.780   7.811   4.754  1.3208  0.8759 -3.2000
   54MOL0     O 6997   1.278   7.189   4.975  0.5298 -0.0178  0.4074
   54MOL0     C 6998   1.263   7.275   5.062 -0.2748 -0.0486 -0.5343
   54MOL0     O 6999   1.361   7.326   5.138 -0.5071  0.2175  0.0636
   54MOL0     C 7000   1.496   7.317   5.114  0.2237  0.2288 -0.4215
   54MOL0     C 7001   1.579   7.376   5.222 -0.0921  0.1441  0.3006
   54MOL0     C 7002   1.722   7.367   5.222  0.3500 -0.0748  0.3715
   54MOL0     C 7003   1.774   7.305   5.105  0.6429  0.4004 -0.9346
   54MOL0     O 7004   1.909   7.276   5.107  0.4491  0.2911 -1.2366
   54MOL0     C 7005   1.993   7.368   5.181  0.7689 -0.3579 -0.5793
   54MOL0     C 7006   2.137   7.345   5.161 -0.1615  0.1540  0.4018
   54MOL0     C 7007   2.180   7.345   5.019  1.1281 -0.5748 -0.1232
   54MOL0     C 7008   2.328   7.302   5.000 -0.0629 -0.2422  0.9658
   54MOL0     C 7009   2.364   7.317   4.846  0.9031  0.1080 -0.4066
   54MOL0     C 7010   2.524   7.321   4.840  0.2325  0.1788  0.6305
   54MOL0     C 7011   2.568   7.355   4.700 -2.1382  0.9482  0.1872
   54MOL0     C 7012   2.542   7.237   4.609  1.0033 -0.1664  0.7511
   54MOL0     N 7013   2.579   7.277   4.469 -1.3314 -0.1881 -0.4752
   54MOL0     C 7014   2.587   7.400   4.405 -0.0538 -0.2838 -0.6768
   54MOL0     C 7015   2.641   7.364   4.278 -0.0770 -0.4677 -1.0451
   54MOL0     C 7016   2.652   7.454   4.168 -0.3660 -0.2212 -0.4125
   54MOL0     C 7017   2.778   7.535   4.177  0.2421 -0.2670 -0.0092
   54MOL0     C 7018   2.904   7.454   4.188 -0.3819  0.0906 -0.3690
   54MOL0     C 7019   2.919   7.383   4.061 -1.0536 -0.4157  0.0628
   54MOL0     O 7020   3.041   7.304   4.067  0.0241 -0.5019  0.0805
   54MOL0     C 7021   3.160   7.370   4.055  0.1623  0.3058 -0.1402
   54MOL0     C 7022   3.177   7.505   4.011 -0.4362 -0.2260  0.4361
   54MOL0     C 7023   3.307   7.555   3.983  0.8077 -0.1344 -0.8665
   54MOL0     C 7024   3.428   7.478   4.002  0.1073 -0.6924 -0.7236
   54MOL0     C 7025   3.563   7.521   3.966 -0.9613  0.3865 -0.1084
   54MOL0     O 7026   3.651   7.412   3.943  0.4979  0.0210 -0.8289
   54MOL0     C 7027   3.786   7.425   3.920  0.4349 -0.0689 -0.4277
   54MOL0     C 7028   3.871   7.530   3.955  0.2439  0.7418 -0.1756
   54MOL0     C 7029   4.001   7.529   3.935  0.5546 -0.3942  0.5188
   54MOL0     C 7030   4.064   7.426   3.868  0.6978  0.2436  0.8179
   54MOL0     O 7031   4.198   7.422   3.824  0.3275 -0.3685 -0.1958
   54MOL0     C 7032   4.282   7.534   3.861 -0.9175 -0.2446 -0.0822
   54MOL0     C 7033   4.318   7.527   4.011  0.0648  0.1002 -0.4058
   54MOL0     C 7034   4.411   7.654   4.035  0.4324  0.5123  0.2231
   54MOL0     C 7035   4.465   7.672   4.175 -0.6934  0.1486 -0.5083
   54MOL0     C 7036   4.343   7.702   4.267  0.6891  0.4160 -0.7028
   54MOL0     C 7037   4.394   7.762   4.400 -0.1431 -0.8445 -0.8078
   54MOL0     C 7038   4.292   7.793   4.506  0.9118 -0.1643  0.7315
   54MOL0     C 7039   4.310   7.716   4.635  1.0616 -0.0721 -0.2188
   54MOL0    Cl 7040   4.459   7.803   4.703  0.1280 -0.0854 -0.1744
   54MOL0     C 7041   3.979   7.322   3.810 -1.0504 -0.0921  0.2771
   54MOL0     C 7042   3.840   7.322   3.834  0.2768  0.1573 -0.3153
   54MOL0     O 7043   3.600   7.639   3.966 -0.2996  0.0373 -0.0038
   54MOL0     C 7044   3.403   7.347   4.043  0.4235  0.1333  0.9265
   54MOL0     C 7045   3.277   7.296   4.073 -1.0557  0.7725  0.0869
   54MOL0     N 7046   2.661   7.236   4.280 -0.6411  0.2181  0.3868
   54MOL0     N 7047   2.629   7.181   4.391 -0.1973  0.1556 -0.0991
   54MOL0     C 7048   1.703   7.253   5.008 -0.6573 -1.6649  0.4908
   54MOL0     C 7049   1.565   7.269   4.999  0.6142  0.3193 -0.5194
   54MOL0     C 7050   1.133   7.309   5.099  0.2196  0.1729  0.4367
   54MOL0     C 7051   1.022   7.231   5.072  0.0834 -0.2708  0.0428
   54MOL0     C 7052   0.905   7.253   5.144  1.1265 -0.2407 -0.0614
   54MOL0     C 7053   0.881   7.360   5.228 -0.0034 -0.7035 -0.7531
   54MOL0     O 7054   0.764   7.357   5.301 -0.5632 -0.3126  0.1806
   54MOL0     C 7055   0.745   7.446   5.408  0.3492  0.3474 -0.2159
   54MOL0     C 7056   0.608   7.424   5.465 -0.3515 -1.0297  0.1917
   54MOL0     C 7057   0.588   7.272   5.485  0.5607 -0.4250  0.5495
   54MOL0     C 7058   0.480   7.233   5.587  0.1984 -1.5630  0.5775
   54MOL0     C 7059   0.346   7.285   5.545 -0.1484 -0.0505  0.3285
   54MOL0     C 7060   0.232   7.314   5.508 -0.2505 -0.0985 -0.4242
   54MOL0     C 7061   0.991   7.444   5.236  0.7458 -0.0700  0.5126
   54MOL0     C 7062   1.112   7.427   5.171 -0.4063  0.1224 -0.4930
   54MOL0     H 7063   1.537   7.410   5.316  1.3926 -0.3752  1.1942
   54MOL0     H 7064   1.767   7.407   5.312 -2.0584 -0.6615  1.9490
   54MOL0     H 7065   1.983   7.358   5.290  1.4654  4.1136  0.0903
   54MOL0     H 7066   1.972   7.470   5.147 -3.1473 -0.6192  0.4903
   54MOL0     H 7067   2.149   7.241   5.194  0.4843  0.4202  1.0308
   54MOL0     H 7068   2.209   7.397   5.225  2.3044 -1.4314 -0.9150
   54MOL0     H 7069   2.156   7.447   4.987  0.4695 -1.1571 -1.5523
   54MOL0     H 7070   2.134   7.274   4.950  2.4596 -3.2418  1.5397
   54MOL0     H 7071   2.381   7.375   5.061 -3.8204  3.9119 -0.2106
   54MOL0     H 7072   2.324   7.197   5.030 -3.3376 -0.4653  0.1779
   54MOL0     H 7073   2.310   7.406   4.812 -3.2813 -2.2671 -0.6007
   54MOL0     H 7074   2.325   7.232   4.789 -1.1485  0.5039  0.3487
   54MOL0     H 7075   2.555   7.222   4.873  0.0223  0.1363  0.7031
   54MOL0     H 7076   2.560   7.387   4.919 -1.9606 -0.7409  2.5242
   54MOL0     H 7077   2.522   7.445   4.659 -0.8876  1.6244  0.2133
   54MOL0     H 7078   2.677   7.366   4.702 -1.5355 -2.4453 -2.6656
   54MOL0     H 7079   2.435   7.217   4.593  0.4310  1.8570  1.7600
   54MOL0     H 7080   2.593   7.144   4.638 -2.0363 -3.4762 -3.2038
   54MOL0     H 7081   2.541   7.494   4.431  0.4321 -0.9796  3.3161
   54MOL0     H 7082   2.568   7.523   4.172  2.3485  3.2836  0.8807
   54MOL0     H 7083   2.663   7.410   4.069  2.8350 -1.5055  0.3786
   54MOL0     H 7084   2.776   7.598   4.267 -1.3538 -2.4526  1.6151
   54MOL0     H 7085   2.784   7.602   4.091  1.9872 -0.3201  0.0338
   54MOL0     H 7086   2.981   7.527   4.213 -1.2118  1.4021 -1.5032
   54MOL0     H 7087   2.900   7.371   4.259  0.9059  0.4523  0.1424
   54MOL0     H 7088   2.924   7.460   3.984  0.3771  0.6373  1.1537
   54MOL0     H 7089   2.833   7.324   4.028 -2.1887  2.0200 -1.5839
   54MOL0     H 7090   3.094   7.567   3.979  0.4184  1.6990  1.7314
   54MOL0     H 7091   3.310   7.658   3.948 -0.6420 -0.4296 -1.9615
   54MOL0     H 7092   3.834   7.618   4.006 -2.9919 -1.5350  1.7744
   54MOL0     H 7093   4.056   7.607   3.986 -1.0293 -1.8531  4.9032
   54MOL0     H 7094   4.228   7.625   3.832 -2.9038 -1.5541 -0.6914
   54MOL0     H 7095   4.371   7.535   3.797 -1.8529 -0.8398 -1.4393
   54MOL0     H 7096   4.365   7.430   4.030  1.4477  1.0020  1.0421
   54MOL0     H 7097   4.229   7.534   4.074  0.0166 -3.0433  0.0365
   54MOL0     H 7098   4.352   7.745   4.018  1.6564  1.4914  1.0530
   54MOL0     H 7099   4.495   7.662   3.966  0.8534  2.1763  0.8909
   54MOL0     H 7100   4.516   7.578   4.201 -0.0677  0.4585 -0.6130
   54MOL0     H 7101   4.525   7.763   4.180  0.1322 -0.3875 -0.4118
   54MOL0     H 7102   4.291   7.607   4.286  1.2758  0.2133 -0.0820
   54MOL0     H 7103   4.274   7.776   4.224 -0.4149 -0.7842 -1.0911
   54MOL0     H 7104   4.453   7.851   4.373 -0.2011 -1.0712 -1.6890
   54MOL0     H 7105   4.459   7.683   4.438 -0.8161 -1.2465 -0.4831
   54MOL0     H 7106   4.288   7.899   4.533  0.0602 -0.3544  1.4066
   54MOL0     H 7107   4.195   7.768   4.462  1.9006 -0.6551 -1.3052
   54MOL0     H 7108   4.335   7.610   4.621  1.1087 -0.1642  0.5131
   54MOL0     H 7109   4.219   7.722   4.695 -0.3979  0.0806 -2.3542
   54MOL0     H 7110   4.017   7.257   3.732  1.8049  3.0873 -1.2310
   54MOL0     H 7111   3.786   7.236   3.796  2.1308 -2.2685  2.1385
   54MOL0     H 7112   3.469   7.260   4.053 -1.5984 -1.7384 -1.0685
   54MOL0     H 7113   3.269   7.197   4.115  1.0737  0.0100 -1.1319
   54MOL0     H 7114   1.760   7.212   4.925  0.6047 -0.7023  0.8330
   54MOL0     H 7115   1.527   7.228   4.906  1.8188  0.0237 -0.9084
   54MOL0     H 7116   1.029   7.142   5.010  0.3342  0.7267 -1.4235
   54MOL0     H 7117   0.829   7.176   5.136  0.7097  0.1370  0.1995
   54MOL0     H 7118   0.755   7.550   5.374  0.7069  1.1634  2.2317
   54MOL0     H 7119   0.818   7.434   5.488  0.2291  1.8600  0.1600
   54MOL0     H 7120   0.591   7.485   5.554  2.9225 -1.4758  1.2691
   54MOL0     H 7121   0.527   7.454   5.398 -1.1186 -2.7779  0.2808
   54MOL0     H 7122   0.683   7.230   5.520  1.2722  0.6058 -0.0838
   54MOL0     H 7123   0.575   7.217   5.392  3.5614 -1.5717  0.6760
   54MOL0     H 7124   0.472   7.125   5.601  0.9747 -1.8358 -0.9379
   54MOL0     H 7125   0.512   7.278   5.682 -0.1248  1.2787 -0.5736
   54MOL0     H 7126   0.144   7.353   5.461 -1.4485 -1.9372  0.2158
   54MOL0     H 7127   0.982   7.532   5.300 -0.7337 -2.0182  3.1655
   54MOL0     H 7128   1.194   7.493   5.194 -1.3139  1.1490 -0.1282
   55MOL0     O 7129   0.026   0.148   1.706 -0.8626 -0.3000  0.5971
   55MOL0     C 7130   0.084   0.039   1.682  0.8798 -0.9033  0.1112
   55MOL0     O 7131   0.023  -0.067   1.633 -0.1607 -0.6221 -0.0496
   55MOL0     C 7132  -0.115  -0.083   1.623  1.4500 -0.2774  0.3634
   55MOL0     C 7133  -0.164  -0.120   1.497 -0.3594 -0.4700 -0.2599
   55MOL0     C 7134  -0.303  -0.099   1.478  0.0170  0.4034 -0.3983
   55MOL0     C 7135  -0.389  -0.077   1.588  0.3769 -0.3809  0.7474
   55MOL0     O 7136  -0.532  -0.086   1.591 -0.2171 -0.2527 -0.4073
   55MOL0     C 7137  -0.612  -0.137   1.481 -0.4823  0.6128  0.1262
   55MOL0     C 7138  -0.760  -0.094   1.486 -0.2770 -0.0370 -0.2500
   55MOL0     C 7139  -0.852  -0.168   1.393  0.3735  0.3122 -0.0218
   55MOL0     C 7140  -0.999  -0.124   1.427 -0.3634  1.1542 -0.8718
   55MOL0     C 7141  -1.088  -0.158   1.306  1.2098 -1.1957 -0.7424
   55MOL0     C 7142  -1.239  -0.108   1.328 -1.5700  0.7990  0.8045
   55MOL0     C 7143  -1.328  -0.157   1.205 -0.4284  0.0181  0.3366
   55MOL0     C 7144  -1.480  -0.144   1.234 -0.4092 -0.1624 -0.8861
   55MOL0     N 7145  -1.539  -0.265   1.297  0.3287 -0.0088 -0.5128
   55MOL0     C 7146  -1.606  -0.354   1.224 -0.1795  0.2780  0.4596
   55MOL0     C 7147  -1.668  -0.428   1.325  0.0162 -0.1752 -0.2105
   55MOL0     C 7148  -1.753  -0.541   1.297 -0.0095  0.2759  0.6403
   55MOL0     C 7149  -1.678  -0.676   1.308 -0.2249 -0.1107  0.5358
   55MOL0     C 7150  -1.677  -0.729   1.457  0.5558  0.3415  0.0272
   55MOL0     C 7151  -1.805  -0.804   1.497 -0.0113  0.2848  0.6916
   55MOL0     O 7152  -1.825  -0.919   1.410  0.5461  0.2589 -0.2927
   55MOL0     C 7153  -1.951  -0.970   1.423 -1.2857  0.2627  0.1871
   55MOL0     C 7154  -2.069  -0.913   1.365 -0.5624 -0.9102 -0.3987
   55MOL0     C 7155  -2.196  -0.973   1.400 -0.6544 -0.5205  0.9924
   55MOL0     C 7156  -2.197  -1.091   1.477  0.2356  0.2480 -0.9116
   55MOL0     C 7157  -2.332  -1.168   1.515 -1.0173 -0.8996 -0.6338
   55MOL0     O 7158  -2.436  -1.095   1.468  0.4323  0.1088  0.1259
   55MOL0     C 7159  -2.564  -1.147   1.500 -0.6088 -0.4806 -0.6877
   55MOL0     C 7160  -2.670  -1.052   1.534 -1.0493  0.3887 -0.2621
   55MOL0     C 7161  -2.801  -1.098   1.551  0.3258  0.2434 -0.5768
   55MOL0     C 7162  -2.834  -1.235   1.529 -0.0416 -0.0466 -0.4390
   55MOL0     O 7163  -2.955  -1.288   1.555 -0.7453  0.7329 -0.2809
   55MOL0     C 7164  -3.073  -1.214   1.530 -0.1484  0.2692  0.4931
   55MOL0     C 7165  -3.194  -1.316   1.525  0.6853  0.6024  0.7951
   55MOL0     C 7166  -3.338  -1.257   1.557 -0.4835 -0.2263  0.9987
   55MOL0     C 7167  -3.455  -1.343   1.533  0.4059  0.5318  0.1194
   55MOL0     C 7168  -3.586  -1.264   1.537 -0.1021  0.9730 -0.1036
   55MOL0     C 7169  -3.606  -1.217   1.680  0.3946  0.0163  0.5789
   55MOL0     C 7170  -3.676  -1.081   1.690 -0.4012  0.7489  0.3876
   55MOL0     C 7171  -3.725  -1.052   1.832  0.0055 -0.0029 -0.1701
   55MOL0    Cl 7172  -3.851  -1.161   1.885 -0.0902 -0.0204 -0.5317
   55MOL0     C 7173  -2.729  -1.325   1.502 -0.3445 -0.3510 -0.4056
   55MOL0     C 7174  -2.599  -1.280   1.478  0.0089  0.2610 -0.3880
   55MOL0     O 7175  -2.332  -1.260   1.594  0.5138 -1.0358  0.7163
   55MOL0     C 7176  -2.078  -1.153   1.521  0.2987  0.1221 -0.4727
   55MOL0     C 7177  -1.959  -1.086   1.505 -0.5228  0.5447 -0.4048
   55MOL0     N 7178  -1.620  -0.387   1.450 -0.6048  0.3795  0.8114
   55MOL0     N 7179  -1.546  -0.285   1.431  0.2555  0.6057  0.4161
   55MOL0     C 7180  -0.331  -0.047   1.708 -0.1716 -0.5547 -0.5901
   55MOL0     C 7181  -0.204  -0.048   1.732 -0.8712  0.2924  0.1165
   55MOL0     C 7182   0.230   0.047   1.689 -0.2922 -0.6253 -0.2105
   55MOL0     C 7183   0.307  -0.071   1.672  0.5886 -0.1912 -0.3108
   55MOL0     C 7184   0.445  -0.074   1.679 -0.4588 -0.3881  0.2174
   55MOL0     C 7185   0.515   0.047   1.701 -0.5675  0.5420  0.6584
   55MOL0     O 7186   0.652   0.037   1.723  0.2193 -0.6188 -0.3985
   55MOL0     C 7187   0.724   0.158   1.744  0.2703  0.3024 -0.5960
   55MOL0     C 7188   0.743   0.246   1.612  0.3038  0.2536 -0.0921
   55MOL0     C 7189   0.790   0.163   1.503  0.1793 -0.2535 -0.1116
   55MOL0     C 7190   0.748   0.229   1.367  0.4062  0.2469  0.4378
   55MOL0     C 7191   0.819   0.350   1.315  0.3032  0.4099  0.1969
   55MOL0     C 7192   0.878   0.445   1.272  0.0598 -0.8927 -0.4154
   55MOL0     C 7193   0.439   0.169   1.708 -0.9906 -0.0332  0.2860
   55MOL0     C 7194   0.302   0.164   1.708 -0.2965 -0.4683 -0.2603
   55MOL0     H 7195  -0.102  -0.168   1.422 -0.1304  0.9446 -1.0029
   55MOL0     H 7196  -0.343  -0.131   1.383 -1.7385 -0.4340  0.5653
   55MOL0     H 7197  -0.599  -0.246   1.477 -0.2303  0.6271  0.5421
   55MOL0     H 7198  -0.571  -0.098   1.387 -0.1920 -0.8373 -0.3811
   55MOL0     H 7199  -0.759   0.013   1.463  1.6786 -0.3381 -1.8470
   55MOL0     H 7200  -0.799  -0.116   1.586  1.6365  0.5006  0.6483
   55MOL0     H 7201  -0.839  -0.276   1.404 -2.2358  0.0100  0.9942
   55MOL0     H 7202  -0.817  -0.149   1.292  3.7701  1.8035  1.2842
   55MOL0     H 7203  -1.040  -0.184   1.510 -2.0105 -2.2790 -3.8603
   55MOL0     H 7204  -1.006  -0.018   1.451  1.4500  0.4989  3.6434
   55MOL0     H 7205  -1.087  -0.268   1.301  2.3980 -1.3422  1.5001
   55MOL0     H 7206  -1.050  -0.127   1.208  1.5697  3.6121  0.6966
   55MOL0     H 7207  -1.235   0.001   1.335  2.6452  0.7331  3.3059
   55MOL0     H 7208  -1.273  -0.149   1.423 -0.7057  1.3637  1.3743
   55MOL0     H 7209  -1.302  -0.086   1.126 -1.1631  0.0686  0.1404
   55MOL0     H 7210  -1.311  -0.262   1.177  0.6849  0.3923 -0.4689
   55MOL0     H 7211  -1.530  -0.127   1.138  0.5927  3.7843 -0.8687
   55MOL0     H 7212  -1.493  -0.059   1.301  1.9759 -2.5207  2.9614
   55MOL0     H 7213  -1.604  -0.364   1.116  0.8290  1.8751  0.3060
   55MOL0     H 7214  -1.801  -0.537   1.198  2.4197 -1.2984 -0.7149
   55MOL0     H 7215  -1.826  -0.554   1.377 -0.2828 -3.0458 -0.0249
   55MOL0     H 7216  -1.576  -0.650   1.276 -0.7577 -0.1733 -1.2807
   55MOL0     H 7217  -1.713  -0.749   1.235 -3.1477  2.1310 -0.4805
   55MOL0     H 7218  -1.591  -0.793   1.476 -0.3790 -1.0919 -0.3913
   55MOL0     H 7219  -1.674  -0.636   1.515  0.4465  1.4119 -1.6322
   55MOL0     H 7220  -1.888  -0.734   1.481  0.6291  0.6697 -1.1817
   55MOL0     H 7221  -1.792  -0.831   1.602  1.4662 -1.8603  0.0265
   55MOL0     H 7222  -2.065  -0.825   1.302  1.2072 -0.4188  0.3394
   55MOL0     H 7223  -2.287  -0.923   1.369  0.9048  0.5709 -2.3260
   55MOL0     H 7224  -2.652  -0.945   1.541 -2.7521  0.7979 -1.3760
   55MOL0     H 7225  -2.874  -1.021   1.577 -0.6726 -0.6586 -0.6238
   55MOL0     H 7226  -3.077  -1.165   1.432 -2.2137  0.0933  0.4504
   55MOL0     H 7227  -3.095  -1.138   1.606  1.5417  1.0704  0.2112
   55MOL0     H 7228  -3.185  -1.398   1.597 -4.6987 -0.1263  1.0917
   55MOL0     H 7229  -3.198  -1.363   1.427 -0.3307  0.2779  0.9825
   55MOL0     H 7230  -3.361  -1.171   1.495  1.9811  0.6826  1.2060
   55MOL0     H 7231  -3.341  -1.217   1.659 -0.0146 -1.3120  1.4591
   55MOL0     H 7232  -3.439  -1.376   1.430  0.1782  2.2102 -0.4764
   55MOL0     H 7233  -3.450  -1.435   1.592 -0.7480  0.4819  0.1663
   55MOL0     H 7234  -3.670  -1.327   1.506  2.0773 -2.5230  0.4982
   55MOL0     H 7235  -3.581  -1.173   1.476 -0.3819  1.7864  1.0443
   55MOL0     H 7236  -3.518  -1.214   1.744  0.2875 -0.4923  0.7583
   55MOL0     H 7237  -3.674  -1.285   1.734 -1.0931  0.1720 -1.0107
   55MOL0     H 7238  -3.601  -1.009   1.655  0.7092  0.0624  1.2781
   55MOL0     H 7239  -3.761  -1.071   1.623 -0.2697  0.6174  0.2005
   55MOL0     H 7240  -3.768  -0.953   1.848 -0.2231 -0.1060 -0.1295
   55MOL0     H 7241  -3.642  -1.073   1.900  0.4163  0.3377 -0.5648
   55MOL0     H 7242  -2.746  -1.430   1.481  1.4271 -0.5002 -1.2278
   55MOL0     H 7243  -2.536  -1.363   1.446  1.0943  0.2591  1.5893
   55MOL0     H 7244  -2.094  -1.240   1.584 -2.3682  1.8914  1.5368
   55MOL0     H 7245  -1.869  -1.128   1.549 -2.3825 -2.0328  1.2187
   55MOL0     H 7246  -0.394  -0.016   1.791 -0.0514 -1.9716  0.0642
   55MOL0     H 7247  -0.158  -0.028   1.829  2.0775  0.0910 -1.1375
   55MOL0     H 7248   0.255  -0.166   1.665 -1.2377  0.6434  1.1828
   55MOL0     H 7249   0.513  -0.158   1.676 -0.3836 -0.4529  2.5498
   55MOL0     H 7250   0.825   0.133   1.777 -1.3383 -3.3491  2.2665
   55MOL0     H 7251   0.664   0.220   1.812 -6.0543 -0.4398 -4.6257
   55MOL0     H 7252   0.651   0.294   1.579  0.2523 -1.7302 -3.1972
   55MOL0     H 7253   0.818   0.323   1.632 -0.6581  1.9482 -2.5681
   55MOL0     H 7254   0.761   0.058   1.511  3.9192 -1.5892 -1.6038
   55MOL0     H 7255   0.899   0.157   1.499  0.1506 -0.5125 -0.6582
   55MOL0     H 7256   0.757   0.146   1.296 -2.9847  0.2599 -0.1759
   55MOL0     H 7257   0.642   0.253   1.364 -0.1133 -1.9115 -1.2536
   55MOL0     H 7258   0.953   0.515   1.243  2.7633 -2.1260  2.8564
   55MOL0     H 7259   0.490   0.263   1.722  6.8732 -3.4555 -0.0449
   55MOL0     H 7260   0.253   0.260   1.719  0.1315 -0.4705  2.0893
   56MOL0     O 7261   1.543   5.078  10.596  0.9912  0.7047 -0.2419
   56MOL0     C 7262   1.579   5.040  10.705  0.2462 -0.1907 -0.0087
   56MOL0     O 7263   1.503   5.047  10.817  0.8207 -0.4715 -0.3732
   56MOL0     C 7264   1.378   5.092  10.800 -0.0608  0.1271  0.3149
   56MOL0     C 7265   1.271   5.009  10.782  0.0726 -0.7861 -0.2864
   56MOL0     C 7266   1.139   5.052  10.778 -0.7077 -0.1958  0.0002
   56MOL0     C 7267   1.112   5.194  10.777 -0.5910 -0.0869  0.7480
   56MOL0     O 7268   0.983   5.249  10.759 -1.1754 -0.8091 -0.0155
   56MOL0     C 7269   0.869   5.188  10.713 -0.1185  0.2818  0.6441
   56MOL0     C 7270   0.769   5.291  10.666  0.5022  0.7058  0.9106
   56MOL0     C 7271   0.626   5.228  10.674  0.1723  0.0086  0.4593
   56MOL0     C 7272   0.519   5.312  10.621  0.2477 -0.2621  0.8048
   56MOL0     C 7273   0.388   5.250  10.635  0.7314 -0.6748 -0.1252
   56MOL0     C 7274   0.287   5.330  10.561 -0.0277  0.6013  0.5862
   56MOL0     C 7275   0.148   5.268  10.593  0.3941 -0.9150 -0.1677
   56MOL0     C 7276   0.039   5.348  10.519  1.8233 -0.3844  0.4038
   56MOL0     N 7277   0.004   5.475  10.583  0.1526  0.8133 -0.4244
   56MOL0     C 7278   0.041   5.596  10.540 -0.0840  0.4219 -0.2094
   56MOL0     C 7279   0.006   5.688  10.633 -0.9363  0.3076  0.0294
   56MOL0     C 7280   0.060   5.824  10.652 -0.5585 -0.2582  0.2248
   56MOL0     C 7281   0.212   5.841  10.692  0.3071 -0.2838  0.0941
   56MOL0     C 7282   0.240   5.766  10.824  0.3603  0.4291  0.8871
   56MOL0     C 7283   0.381   5.817  10.860  0.0728  0.6374 -0.4257
   56MOL0     O 7284   0.478   5.723  10.814  0.1078 -0.2300 -0.5086
   56MOL0     C 7285   0.612   5.751  10.827  0.0800 -0.0991  0.4607
   56MOL0     C 7286   0.701   5.680  10.741  0.4808 -0.0599 -0.6715
   56MOL0     C 7287   0.839   5.717  10.734  1.2973 -0.1457 -0.0399
   56MOL0     C 7288   0.894   5.818  10.812  0.1838  0.0843 -1.2101
   56MOL0     C 7289   1.034   5.845  10.814  0.9768  0.2695  0.0653
   56MOL0     O 7290   1.076   5.948  10.890  0.2845 -0.5674 -0.6772
   56MOL0     C 7291   1.210   5.962  10.924  0.4649  0.1630  0.2775
   56MOL0     C 7292   1.251   6.005  11.048 -0.0441  1.2275 -0.0976
   56MOL0     C 7293   1.386   6.020  11.087 -1.0578  0.6737  0.0497
   56MOL0     C 7294   1.491   5.985  10.997 -0.2802  0.7600  0.1116
   56MOL0     O 7295   1.620   5.975  11.034 -1.0717 -0.2361  0.2762
   56MOL0     C 7296   1.736   5.977  10.946  1.9631  0.4820  1.3784
   56MOL0     C 7297   1.855   5.991  11.032 -0.1064  0.4506  0.0717
   56MOL0     C 7298   1.976   5.988  10.938 -0.0367  0.3195  0.2842
   56MOL0     C 7299   2.108   6.008  11.012  0.2110  0.0464 -0.2931
   56MOL0     C 7300   2.227   5.955  10.932 -1.2378  0.3897 -0.0403
   56MOL0     C 7301   2.351   5.979  11.018  1.0385  0.0974 -0.0225
   56MOL0     C 7302   2.472   5.917  10.939  0.3676  0.3924 -0.6522
   56MOL0     C 7303   2.602   5.918  11.021 -0.4660 -0.0118 -0.3004
   56MOL0    Cl 7304   2.615   5.838  11.175  0.0796 -0.0354  0.1700
   56MOL0     C 7305   1.450   5.950  10.864  0.0943 -0.9323 -0.6678
   56MOL0     C 7306   1.311   5.937  10.827 -0.0823 -1.1227 -0.2771
   56MOL0     O 7307   1.108   5.759  10.763  0.6365 -0.0264 -0.3298
   56MOL0     C 7308   0.801   5.890  10.894  1.0655  0.5182  0.0175
   56MOL0     C 7309   0.664   5.856  10.900  0.2593  0.1033  0.7774
   56MOL0     N 7310  -0.060   5.613  10.734 -0.2863 -0.6605  0.0159
   56MOL0     N 7311  -0.064   5.486  10.695  0.2738 -0.3296 -0.2913
   56MOL0     C 7312   1.218   5.279  10.794 -0.5481  1.2368 -0.5399
   56MOL0     C 7313   1.352   5.229  10.814 -0.4434 -0.2727  0.1993
   56MOL0     C 7314   1.724   4.989  10.721 -0.0414 -0.0242 -0.7109
   56MOL0     C 7315   1.799   4.964  10.607 -0.1413 -0.6011 -0.0247
   56MOL0     C 7316   1.929   4.909  10.614  0.7846  0.5360  0.0942
   56MOL0     C 7317   1.981   4.885  10.741 -0.6166 -0.3553 -0.6780
   56MOL0     O 7318   2.101   4.817  10.750  0.1692 -0.3482 -0.0141
   56MOL0     C 7319   2.160   4.779  10.874  0.2847  0.0736  0.0830
   56MOL0     C 7320   2.265   4.677  10.844 -0.3407  0.2481  0.3449
   56MOL0     C 7321   2.386   4.741  10.773 -0.1008  0.1495  0.8929
   56MOL0     C 7322   2.474   4.825  10.873  0.0975  0.7907  0.6719
   56MOL0     C 7323   2.437   4.963  10.859  0.0957 -0.7343 -0.3025
   56MOL0     C 7324   2.401   5.079  10.863  0.0096  0.0462  0.6318
   56MOL0     C 7325   1.907   4.919  10.854 -0.6227  1.6828  0.7854
   56MOL0     C 7326   1.779   4.966  10.847 -0.2287 -0.0182  0.5323
   56MOL0     H 7327   1.299   4.904  10.774  1.0451 -0.4078 -2.8283
   56MOL0     H 7328   1.061   4.980  10.760  0.8251 -1.6405 -1.1890
   56MOL0     H 7329   0.826   5.147  10.805 -1.0644 -0.5551 -0.1324
   56MOL0     H 7330   0.879   5.110  10.636  1.8710  2.1481 -1.1268
   56MOL0     H 7331   0.795   5.335  10.569 -0.3904 -0.1918  0.2428
   56MOL0     H 7332   0.770   5.374  10.737 -0.7095  0.0508  1.7307
   56MOL0     H 7333   0.606   5.219  10.782  2.1112  3.0952  1.1982
   56MOL0     H 7334   0.614   5.129  10.629 -0.0321  1.2746 -2.4259
   56MOL0     H 7335   0.508   5.413  10.660 -0.5546 -0.3313  0.7728
   56MOL0     H 7336   0.536   5.318  10.513 -1.5287  1.3634  0.5674
   56MOL0     H 7337   0.362   5.236  10.740  5.2153  1.2989  1.5484
   56MOL0     H 7338   0.386   5.147  10.599  1.9179 -1.1910  1.1886
   56MOL0     H 7339   0.314   5.317  10.455 -2.0715  3.3029 -0.3938
   56MOL0     H 7340   0.294   5.437  10.577 -1.1115  0.6856  0.5845
   56MOL0     H 7341   0.145   5.163  10.563 -2.6968 -1.5425  1.8658
   56MOL0     H 7342   0.125   5.273  10.700 -2.0915 -1.4897 -0.6038
   56MOL0     H 7343  -0.055   5.294  10.513  1.4333  0.1686  1.2953
   56MOL0     H 7344   0.069   5.368  10.416 -0.8568  2.3638 -0.0019
   56MOL0     H 7345   0.109   5.621  10.459  0.5295  0.0961  0.1974
   56MOL0     H 7346   0.001   5.882  10.723  0.1735 -1.3443  1.7646
   56MOL0     H 7347   0.038   5.876  10.558  0.2967  0.1263  0.2279
   56MOL0     H 7348   0.227   5.949  10.699 -2.1128  0.1551 -0.6073
   56MOL0     H 7349   0.286   5.805  10.620  0.9591  1.1076  0.0519
   56MOL0     H 7350   0.166   5.785  10.902  0.8357 -0.8247  1.6847
   56MOL0     H 7351   0.238   5.658  10.808 -3.6705  0.7138 -1.8737
   56MOL0     H 7352   0.391   5.815  10.969 -1.9810 -1.9510 -0.1797
   56MOL0     H 7353   0.410   5.914  10.819 -1.2397  1.9173  1.4932
   56MOL0     H 7354   0.649   5.611  10.675 -0.2452 -2.3828  2.1103
   56MOL0     H 7355   0.902   5.656  10.670 -2.0413 -2.4438 -1.4411
   56MOL0     H 7356   1.168   6.019  11.116 -0.4094  0.4616 -0.3678
   56MOL0     H 7357   1.409   6.040  11.191 -0.3006 -2.2792  0.5475
   56MOL0     H 7358   1.734   6.053  10.868  0.9797 -0.4781  0.4237
   56MOL0     H 7359   1.732   5.882  10.891  1.5989  1.4753 -0.4110
   56MOL0     H 7360   1.864   5.914  11.108 -2.6068 -1.4516 -1.3950
   56MOL0     H 7361   1.843   6.086  11.085  1.5999  2.3592 -2.6983
   56MOL0     H 7362   1.962   6.061  10.858 -1.9410  3.1697  2.9735
   56MOL0     H 7363   1.981   5.891  10.889 -0.9250  0.2216  0.3849
   56MOL0     H 7364   2.123   6.112  11.040  2.3114 -0.4734  0.7193
   56MOL0     H 7365   2.092   5.956  11.107 -1.0369  2.7019  1.0695
   56MOL0     H 7366   2.234   6.020  10.845 -1.3488  2.9936  1.7881
   56MOL0     H 7367   2.214   5.852  10.899 -0.5394  0.3543 -0.2139
   56MOL0     H 7368   2.333   5.925  11.111 -0.0955  2.1723  1.0375
   56MOL0     H 7369   2.364   6.084  11.048  1.3864  0.2984 -0.8608
   56MOL0     H 7370   2.451   5.813  10.912 -0.5215  0.2784  0.3862
   56MOL0     H 7371   2.483   5.982  10.851 -2.5913 -0.3442 -1.6935
   56MOL0     H 7372   2.627   6.023  11.038  1.1362 -0.0764 -2.0225
   56MOL0     H 7373   2.674   5.872  10.953 -0.7979  2.3252 -2.3735
   56MOL0     H 7374   1.507   5.916  10.779  1.5688 -3.6415  1.2256
   56MOL0     H 7375   1.290   5.910  10.724  0.6681  0.9109 -1.0186
   56MOL0     H 7376   0.844   5.970  10.952  3.0726 -2.1433  2.5187
   56MOL0     H 7377   0.598   5.919  10.960  1.0973  2.5180 -0.6820
   56MOL0     H 7378   1.183   5.380  10.814 -0.7192  1.1867 -0.5831
   56MOL0     H 7379   1.432   5.301  10.826 -1.1830  0.6842 -0.3943
   56MOL0     H 7380   1.762   4.967  10.505 -0.3822 -3.1455 -0.0816
   56MOL0     H 7381   1.987   4.881  10.527 -0.2951 -0.7893 -0.2350
   56MOL0     H 7382   2.092   4.736  10.948 -2.6611  0.4628 -2.2224
   56MOL0     H 7383   2.196   4.876  10.908 -3.1932  1.4756  0.1197
   56MOL0     H 7384   2.290   4.619  10.933 -0.5901  0.3899  0.5059
   56MOL0     H 7385   2.237   4.595  10.776  2.7696 -0.1784 -0.6175
   56MOL0     H 7386   2.364   4.785  10.675 -0.1835 -3.8364 -1.0798
   56MOL0     H 7387   2.453   4.658  10.749 -1.3371 -0.0988 -2.0509
   56MOL0     H 7388   2.454   4.791  10.975 -1.5959 -0.9475 -0.1785
   56MOL0     H 7389   2.581   4.817  10.853 -0.1988 -0.2163 -0.6938
   56MOL0     H 7390   2.356   5.175  10.878 -1.1610  0.4931 -4.0250
   56MOL0     H 7391   1.960   4.903  10.947 -1.3990 -0.6576  0.8942
   56MOL0     H 7392   1.736   5.001  10.941  1.1462  1.2151  0.7410
   57MOL0     O 7393   0.906   8.004   7.665 -0.4464 -0.4140 -0.0790
   57MOL0     C 7394   0.906   7.958   7.552 -0.1630 -0.6332 -0.4613
   57MOL0     O 7395   0.790   7.931   7.475 -0.5760  0.6927  0.4407
   57MOL0     C 7396   0.669   7.941   7.528  0.3277  0.0033  0.0366
   57MOL0     C 7397   0.601   8.054   7.511  0.4224  0.3051  0.0736
   57MOL0     C 7398   0.474   8.061   7.565  0.7281  0.7739 -0.0857
   57MOL0     C 7399   0.421   7.962   7.650  0.6362 -0.4942 -0.0841
   57MOL0     O 7400   0.301   7.969   7.719  0.6955 -0.2160  0.2099
   57MOL0     C 7401   0.204   8.073   7.688  0.6262 -0.0034 -0.0076
   57MOL0     C 7402   0.112   8.035   7.567  0.4854 -0.4309 -0.5389
   57MOL0     C 7403  -0.008   8.133   7.563 -0.6164 -0.6565  0.7534
   57MOL0     C 7404  -0.130   8.085   7.643 -0.1257 -0.5518  0.8582
   57MOL0     C 7405  -0.260   8.154   7.585  0.1706  0.1514  0.8820
   57MOL0     C 7406  -0.386   8.135   7.673 -0.0054  0.3869 -0.5739
   57MOL0     C 7407  -0.517   8.215   7.630 -0.0457  0.8026 -0.1563
   57MOL0     C 7408  -0.617   8.212   7.755  0.2877  0.1992 -0.2199
   57MOL0     N 7409  -0.746   8.267   7.714  0.7364  0.4840 -0.0359
   57MOL0     C 7410  -0.809   8.270   7.592  1.1299  0.4255  0.6687
   57MOL0     C 7411  -0.933   8.309   7.616  0.7066 -0.0204  0.2033
   57MOL0     C 7412  -1.037   8.348   7.506 -0.5450  0.4488  0.1259
   57MOL0     C 7413  -1.180   8.284   7.518 -0.6238 -0.0387  0.2762
   57MOL0     C 7414  -1.275   8.317   7.396  0.1978 -0.1165 -0.4399
   57MOL0     C 7415  -1.325   8.458   7.385 -1.1878  0.5725 -1.1626
   57MOL0     O 7416  -1.409   8.504   7.493  0.3861 -0.0356  0.4632
   57MOL0     C 7417  -1.536   8.446   7.481 -0.8563 -0.0626  0.9161
   57MOL0     C 7418  -1.621   8.513   7.390  0.6152 -0.1526  0.4032
   57MOL0     C 7419  -1.753   8.475   7.372  1.0660  0.4291  0.3935
   57MOL0     C 7420  -1.807   8.367   7.443 -0.2632  0.8828 -0.0755
   57MOL0     C 7421  -1.939   8.325   7.428  0.5546  0.1597 -0.1010
   57MOL0     O 7422  -2.016   8.294   7.541  0.1555  0.0849  0.4601
   57MOL0     C 7423  -2.141   8.255   7.513 -0.3111 -0.2676  0.0086
   57MOL0     C 7424  -2.174   8.126   7.472 -0.8360  0.3644 -0.3559
   57MOL0     C 7425  -2.302   8.076   7.461  0.1334 -0.9277 -0.1033
   57MOL0     C 7426  -2.412   8.161   7.482 -0.1759 -0.1405  0.9026
   57MOL0     O 7427  -2.543   8.116   7.477  0.5983 -0.2335 -0.0648
   57MOL0     C 7428  -2.575   8.041   7.355 -0.3499 -0.4506  0.6487
   57MOL0     C 7429  -2.722   7.987   7.352 -0.5444  0.3033 -0.2003
   57MOL0     C 7430  -2.751   7.871   7.263 -0.5225 -0.6947  0.2274
   57MOL0     C 7431  -2.903   7.864   7.261 -0.4146  0.2677 -0.0410
   57MOL0     C 7432  -2.938   7.743   7.176  0.3546 -0.6583 -0.2596
   57MOL0     C 7433  -3.087   7.718   7.179  0.1099  0.3971  0.2119
   57MOL0     C 7434  -3.119   7.595   7.088 -0.3813 -0.0020  0.5736
   57MOL0     C 7435  -3.277   7.592   7.064  0.1086 -0.6424 -0.5928
   57MOL0    Cl 7436  -3.342   7.737   6.983  0.0849  0.0662 -0.1509
   57MOL0     C 7437  -2.382   8.293   7.515  0.3793 -0.8234 -0.0288
   57MOL0     C 7438  -2.251   8.338   7.536 -0.1829 -0.6258  1.0462
   57MOL0     O 7439  -1.983   8.328   7.308 -0.7724  0.1811  0.0697
   57MOL0     C 7440  -1.725   8.308   7.539  0.4876 -0.4272  0.4581
   57MOL0     C 7441  -1.588   8.334   7.552 -0.2268 -0.2988  0.4094
   57MOL0     N 7442  -0.945   8.328   7.754  0.8374 -0.6968 -0.2082
   57MOL0     N 7443  -0.824   8.316   7.808  0.2394 -0.8459  0.1281
   57MOL0     C 7444   0.492   7.843   7.667  0.2565 -0.4872 -0.0390
   57MOL0     C 7445   0.616   7.832   7.609  0.1272  0.1863  0.2361
   57MOL0     C 7446   1.045   7.940   7.508  0.2944 -0.8046  0.3487
   57MOL0     C 7447   1.151   7.910   7.593  0.4489  0.5404 -0.6260
   57MOL0     C 7448   1.278   7.875   7.537  0.1448  0.6941 -0.5260
   57MOL0     C 7449   1.310   7.877   7.406 -1.0280  0.2233  0.7402
   57MOL0     O 7450   1.438   7.838   7.367 -0.8348  0.4953 -0.9649
   57MOL0     C 7451   1.484   7.860   7.233  0.5072  0.4411  1.1682
   57MOL0     C 7452   1.611   7.788   7.210  0.9864  0.7017  0.1515
   57MOL0     C 7453   1.728   7.855   7.277 -0.1715 -0.4303 -0.1750
   57MOL0     C 7454   1.858   7.791   7.235 -0.6853 -0.1139 -0.6539
   57MOL0     C 7455   1.960   7.810   7.332 -0.5474  1.1941  0.0689
   57MOL0     C 7456   2.054   7.818   7.411  0.0950 -0.1351 -0.0940
   57MOL0     C 7457   1.214   7.931   7.325 -0.1915 -0.0722 -1.0037
   57MOL0     C 7458   1.081   7.948   7.365  0.2737 -1.2953 -0.5928
   57MOL0     H 7459   0.653   8.130   7.452 -1.4365  2.1757  0.6974
   57MOL0     H 7460   0.412   8.147   7.541 -2.4962 -0.6641  2.3412
   57MOL0     H 7461   0.260   8.167   7.681  0.2091  0.2483  0.0128
   57MOL0     H 7462   0.147   8.077   7.782  1.4043 -1.0228  0.5399
   57MOL0     H 7463   0.094   7.928   7.574  2.4061 -0.8802 -1.6283
   57MOL0     H 7464   0.171   8.046   7.475  2.2778  2.3115  0.7841
   57MOL0     H 7465  -0.039   8.138   7.458  1.1671  0.0949  0.2238
   57MOL0     H 7466   0.029   8.231   7.595 -2.1377  0.5570 -0.9748
   57MOL0     H 7467  -0.134   7.977   7.623  4.0389 -0.8516  0.7989
   57MOL0     H 7468  -0.134   8.119   7.747 -1.9975  1.9763  0.0538
   57MOL0     H 7469  -0.287   8.099   7.494  2.6230  0.9757 -0.4340
   57MOL0     H 7470  -0.236   8.260   7.576  1.4610  0.0528  2.5719
   57MOL0     H 7471  -0.348   8.170   7.769 -0.4024 -1.9063  0.4949
   57MOL0     H 7472  -0.412   8.029   7.684  0.0049  0.3934 -0.4967
   57MOL0     H 7473  -0.481   8.314   7.600  1.8399 -0.6451 -3.1918
   57MOL0     H 7474  -0.562   8.175   7.539 -0.0135 -1.6547  0.8214
   57MOL0     H 7475  -0.560   8.279   7.820  3.0970 -0.2597 -2.0496
   57MOL0     H 7476  -0.633   8.115   7.802 -0.5374  0.2845 -0.3167
   57MOL0     H 7477  -0.761   8.273   7.494 -0.6207 -0.0013 -0.2452
   57MOL0     H 7478  -1.001   8.325   7.405 -0.3208  4.8984 -1.0244
   57MOL0     H 7479  -1.048   8.456   7.525 -0.4733  0.6352 -0.8408
   57MOL0     H 7480  -1.228   8.329   7.605 -1.7328  0.4936 -0.5819
   57MOL0     H 7481  -1.168   8.176   7.527  0.5722  0.2206  2.3358
   57MOL0     H 7482  -1.224   8.297   7.302  0.7845  3.0433 -0.9083
   57MOL0     H 7483  -1.366   8.256   7.397  0.7383 -0.9504 -0.8233
   57MOL0     H 7484  -1.377   8.466   7.289  1.3644  4.9772 -2.4660
   57MOL0     H 7485  -1.233   8.518   7.387  1.5709 -3.1891  3.0158
   57MOL0     H 7486  -1.583   8.597   7.333 -1.5326 -0.1570 -1.1509
   57MOL0     H 7487  -1.820   8.522   7.301  1.2197 -0.9768 -0.7420
   57MOL0     H 7488  -2.091   8.059   7.453 -1.2165 -0.3795  0.5560
   57MOL0     H 7489  -2.315   7.971   7.438  1.0713 -0.5359 -2.7451
   57MOL0     H 7490  -2.508   7.956   7.344  0.5693  0.3958 -0.4555
   57MOL0     H 7491  -2.563   8.101   7.265  0.5237 -0.3668  0.8158
   57MOL0     H 7492  -2.795   8.064   7.326 -1.8255 -1.3758 -1.8823
   57MOL0     H 7493  -2.742   7.941   7.449  0.1726 -0.1958 -0.2769
   57MOL0     H 7494  -2.711   7.774   7.294 -3.0521 -2.2175 -0.9622
   57MOL0     H 7495  -2.713   7.906   7.166  1.8530  1.8575  1.9207
   57MOL0     H 7496  -2.946   7.853   7.362 -3.0917  0.5477 -1.0762
   57MOL0     H 7497  -2.945   7.956   7.222 -3.0047 -2.3523 -4.1429
   57MOL0     H 7498  -2.883   7.654   7.209 -0.1308 -1.2391 -0.9705
   57MOL0     H 7499  -2.919   7.764   7.070 -0.9289 -0.2681 -0.4264
   57MOL0     H 7500  -3.124   7.814   7.143  2.7433  0.8642 -1.4316
   57MOL0     H 7501  -3.115   7.700   7.284  2.1635 -3.1915  0.3236
   57MOL0     H 7502  -3.074   7.613   6.990 -0.9454  2.1770  0.6455
   57MOL0     H 7503  -3.075   7.504   7.131  1.1142  0.3778 -0.0832
   57MOL0     H 7504  -3.326   7.584   7.161  2.6918 -0.3317  0.8245
   57MOL0     H 7505  -3.305   7.511   6.996  0.3817 -0.5235 -0.8527
   57MOL0     H 7506  -2.464   8.364   7.520  1.1211  0.1955 -1.5453
   57MOL0     H 7507  -2.223   8.440   7.559  3.2011 -1.2755  0.4079
   57MOL0     H 7508  -1.765   8.222   7.592 -2.7165  0.1259 -0.8638
   57MOL0     H 7509  -1.541   8.269   7.625 -0.4970  0.2127  1.0543
   57MOL0     H 7510   0.447   7.764   7.727  0.9959 -0.5128  0.4957
   57MOL0     H 7511   0.682   7.746   7.610  1.3884  0.9239 -3.2742
   57MOL0     H 7512   1.130   7.891   7.698  2.5931 -4.5226 -0.8512
   57MOL0     H 7513   1.346   7.829   7.608  1.3172 -1.3034 -2.7788
   57MOL0     H 7514   1.482   7.968   7.213 -2.9437  1.0471  3.7135
   57MOL0     H 7515   1.417   7.812   7.161  1.8827 -1.3779  1.0371
   57MOL0     H 7516   1.590   7.688   7.251 -1.8861 -0.0456 -2.7181
   57MOL0     H 7517   1.609   7.777   7.101 -2.9349  0.0762  0.1505
   57MOL0     H 7518   1.706   7.837   7.383  0.2307 -4.6122 -0.6131
   57MOL0     H 7519   1.726   7.963   7.260 -1.1651 -0.7195 -2.1747
   57MOL0     H 7520   1.838   7.687   7.210 -0.6562  0.7113 -4.7766
   57MOL0     H 7521   1.887   7.845   7.144  0.5687 -1.2736 -0.9599
   57MOL0     H 7522   2.141   7.816   7.473 -0.1745  0.5495  0.3179
   57MOL0     H 7523   1.237   7.949   7.221  1.4300  4.4037 -0.0975
   57MOL0     H 7524   1.007   7.988   7.297 -0.4228 -2.0238 -0.2919
   58MOL0     O 7525   0.305   1.945   3.496  0.7544 -0.4359 -0.3600
   58MOL0     C 7526   0.280   1.833   3.530  0.5735  0.2492 -1.0124
   58MOL0     O 7527   0.372   1.747   3.575  0.2449 -0.0862  0.1527
   58MOL0     C 7528   0.503   1.795   3.585  0.4026 -0.4910 -1.0534
   58MOL0     C 7529   0.594   1.791   3.477  0.1298 -0.4015 -0.1663
   58MOL0     C 7530   0.717   1.855   3.481  0.0921  0.3760 -0.5026
   58MOL0     C 7531   0.753   1.939   3.594  0.1878 -0.2193 -0.3642
   58MOL0     O 7532   0.875   2.007   3.599 -0.6680 -0.5147  0.2497
   58MOL0     C 7533   0.975   1.970   3.508  0.3469  0.7479  0.0989
   58MOL0     C 7534   1.107   2.053   3.535 -0.1122  0.0624 -0.4113
   58MOL0     C 7535   1.169   2.019   3.670  0.0242 -0.2920 -0.8720
   58MOL0     C 7536   1.293   2.089   3.690 -0.1223 -0.1758  0.0190
   58MOL0     C 7537   1.355   2.055   3.829  0.3951  0.1485  0.5767
   58MOL0     C 7538   1.313   2.149   3.945 -0.2798 -0.6959 -0.0409
   58MOL0     C 7539   1.415   2.136   4.057 -0.5404  0.2134  0.1575
   58MOL0     C 7540   1.373   2.183   4.194 -0.6418  0.3139  0.2056
   58MOL0     N 7541   1.458   2.140   4.313  0.5356  0.1315  0.4212
   58MOL0     C 7542   1.592   2.160   4.316  0.0394  0.1124  0.0970
   58MOL0     C 7543   1.611   2.152   4.451  0.1335  0.3565  0.4497
   58MOL0     C 7544   1.730   2.198   4.534 -0.7944  0.0799 -0.4341
   58MOL0     C 7545   1.850   2.100   4.523 -0.5286 -0.1228  0.0361
   58MOL0     C 7546   1.953   2.104   4.631  0.5165 -0.0114  0.0498
   58MOL0     C 7547   2.034   2.228   4.635  0.0931  0.1735  0.7079
   58MOL0     O 7548   2.097   2.244   4.766  0.7980 -0.3194 -0.0904
   58MOL0     C 7549   2.219   2.178   4.783  0.4613  0.4193 -0.1779
   58MOL0     C 7550   2.338   2.241   4.761 -1.9198 -0.5878  0.3212
   58MOL0     C 7551   2.459   2.178   4.797 -0.6193  0.5209  0.2596
   58MOL0     C 7552   2.452   2.055   4.868  0.4714  0.1514  0.8945
   58MOL0     C 7553   2.570   1.999   4.932  0.3782 -0.5335  0.2284
   58MOL0     O 7554   2.554   1.876   4.991 -0.3112 -0.6771  0.1443
   58MOL0     C 7555   2.656   1.818   5.048 -0.0232  0.5324 -0.2485
   58MOL0     C 7556   2.661   1.676   5.041 -0.2581  0.5123 -0.9171
   58MOL0     C 7557   2.777   1.608   5.079  0.0850 -0.2330 -0.7967
   58MOL0     C 7558   2.873   1.673   5.157  0.0199  0.2174  0.2163
   58MOL0     O 7559   2.975   1.597   5.210 -0.3191 -0.5360  0.3084
   58MOL0     C 7560   2.948   1.552   5.343 -0.2551  0.5721  0.7686
   58MOL0     C 7561   3.059   1.454   5.359 -0.6250  0.8351 -0.1151
   58MOL0     C 7562   3.200   1.512   5.380  0.6586  0.5078 -1.5240
   58MOL0     C 7563   3.206   1.624   5.480  1.4827 -0.3751 -0.1693
   58MOL0     C 7564   3.341   1.681   5.494 -0.5737 -0.4453 -1.1100
   58MOL0     C 7565   3.355   1.782   5.612 -0.8236 -0.6076  0.1612
   58MOL0     C 7566   3.492   1.833   5.634 -0.2430 -0.5546 -0.3265
   58MOL0     C 7567   3.487   1.984   5.678 -0.3417 -0.4038 -0.4803
   58MOL0    Cl 7568   3.420   2.087   5.549 -0.0193  0.1670 -0.3841
   58MOL0     C 7569   2.863   1.808   5.187 -0.0931  1.0355  0.1811
   58MOL0     C 7570   2.760   1.880   5.123 -0.5466 -0.2176 -0.5765
   58MOL0     O 7571   2.679   2.060   4.910  0.0633  0.3639 -0.6328
   58MOL0     C 7572   2.333   1.987   4.878  0.0510  0.4205 -0.2893
   58MOL0     C 7573   2.215   2.049   4.842 -0.2970  0.1208  0.2674
   58MOL0     N 7574   1.489   2.121   4.516  0.0890  0.4424 -0.3531
   58MOL0     N 7575   1.392   2.119   4.432  0.3502 -0.2267 -0.8978
   58MOL0     C 7576   0.664   1.945   3.706 -0.7698  0.3392 -0.0375
   58MOL0     C 7577   0.539   1.875   3.705 -0.8292  0.9126  0.7359
   58MOL0     C 7578   0.139   1.789   3.528 -0.4515 -0.4611  0.1160
   58MOL0     C 7579   0.100   1.652   3.541 -0.5440  0.3937 -0.7999
   58MOL0     C 7580  -0.034   1.609   3.527 -0.7094  0.3479  0.0189
   58MOL0     C 7581  -0.138   1.698   3.499  0.0867 -0.3183 -0.7161
   58MOL0     O 7582  -0.266   1.667   3.483  0.1038 -0.2426 -0.8858
   58MOL0     C 7583  -0.304   1.546   3.551 -0.5040 -0.8459 -0.3063
   58MOL0     C 7584  -0.450   1.530   3.521 -0.2171  0.5238 -0.6455
   58MOL0     C 7585  -0.530   1.438   3.617 -0.6957  0.3222  0.3026
   58MOL0     C 7586  -0.541   1.498   3.762  0.1248  0.7777 -0.5762
   58MOL0     C 7587  -0.605   1.394   3.846 -0.4728  0.7116  0.7932
   58MOL0     C 7588  -0.632   1.298   3.922 -0.2543  0.0865  0.6080
   58MOL0     C 7589  -0.095   1.835   3.496  0.1919  0.2075 -0.1436
   58MOL0     C 7590   0.035   1.877   3.526 -0.1062 -0.3308 -0.8021
   58MOL0     H 7591   0.555   1.740   3.390  0.2502  0.0485 -0.4845
   58MOL0     H 7592   0.777   1.836   3.392 -3.1927 -0.4750 -2.7056
   58MOL0     H 7593   0.940   1.994   3.408  0.0804  1.7040  0.4120
   58MOL0     H 7594   0.996   1.863   3.514 -3.1677 -0.1657 -1.6605
   58MOL0     H 7595   1.090   2.160   3.523 -0.0130  0.3188  1.4247
   58MOL0     H 7596   1.174   2.022   3.454  0.1673  1.1854 -0.6152
   58MOL0     H 7597   1.187   1.911   3.672  2.0727  0.0155 -1.0347
   58MOL0     H 7598   1.096   2.040   3.749  2.8317  0.9152  1.6107
   58MOL0     H 7599   1.367   2.061   3.615  1.0549  0.3805  0.9355
   58MOL0     H 7600   1.272   2.195   3.673 -0.0746  0.4408  3.1145
   58MOL0     H 7601   1.464   2.048   3.817  0.2778 -0.4735 -0.1723
   58MOL0     H 7602   1.328   1.951   3.850 -0.7991 -0.5107 -3.3321
   58MOL0     H 7603   1.216   2.126   3.991 -1.2030 -0.3028 -1.6852
   58MOL0     H 7604   1.307   2.257   3.926  0.5362 -0.6187  0.1108
   58MOL0     H 7605   1.428   2.027   4.060 -4.5214 -0.4509 -0.9547
   58MOL0     H 7606   1.512   2.179   4.030  1.3906 -3.0452  1.3294
   58MOL0     H 7607   1.274   2.138   4.204 -1.1821  1.6841  1.5569
   58MOL0     H 7608   1.374   2.292   4.200  2.5415  0.3396  1.2392
   58MOL0     H 7609   1.657   2.200   4.239 -0.2386  2.0469  0.8143
   58MOL0     H 7610   1.694   2.200   4.637 -1.3832 -0.9660 -0.6120
   58MOL0     H 7611   1.753   2.302   4.507  0.3271 -0.4338 -1.5893
   58MOL0     H 7612   1.902   2.126   4.430  3.5488 -3.5887  1.0150
   58MOL0     H 7613   1.802   2.002   4.528  0.8712 -0.8504 -0.3619
   58MOL0     H 7614   1.893   2.112   4.722 -2.6385  0.9838 -1.9718
   58MOL0     H 7615   2.014   2.014   4.644  0.8880  0.4771  2.2415
   58MOL0     H 7616   1.960   2.306   4.619  0.9768  0.4859 -2.4346
   58MOL0     H 7617   2.108   2.222   4.554  0.7191 -1.2466  1.3509
   58MOL0     H 7618   2.334   2.343   4.724 -0.0150  0.1281  1.9456
   58MOL0     H 7619   2.545   2.240   4.776 -2.1702  2.6375 -0.1793
   58MOL0     H 7620   2.590   1.616   4.984  0.1562  0.2224 -1.1313
   58MOL0     H 7621   2.794   1.502   5.059 -1.9529 -0.9413  0.7974
   58MOL0     H 7622   2.850   1.503   5.339  0.9317 -1.8880 -1.3962
   58MOL0     H 7623   2.940   1.639   5.409 -1.4048 -0.4069  1.9922
   58MOL0     H 7624   3.061   1.380   5.278  0.8812  3.8958 -3.0909
   58MOL0     H 7625   3.042   1.402   5.454  0.5479  0.1389 -0.2646
   58MOL0     H 7626   3.252   1.529   5.285  1.8651 -2.5508 -1.5466
   58MOL0     H 7627   3.266   1.433   5.417  2.2122  1.5026 -2.0522
   58MOL0     H 7628   3.137   1.706   5.461 -3.4120 -3.6168  1.5482
   58MOL0     H 7629   3.174   1.593   5.580  1.4904  1.0381  0.2890
   58MOL0     H 7630   3.368   1.746   5.410  1.6533  2.9956  1.9336
   58MOL0     H 7631   3.410   1.598   5.513 -0.8205 -0.0070  2.4876
   58MOL0     H 7632   3.312   1.747   5.707  1.4536  0.9845  1.9109
   58MOL0     H 7633   3.292   1.867   5.584 -0.4393  0.1300  1.4313
   58MOL0     H 7634   3.549   1.788   5.716  0.7980  0.2882 -0.5630
   58MOL0     H 7635   3.561   1.821   5.550 -0.2393 -0.6613 -0.3087
   58MOL0     H 7636   3.592   2.014   5.689 -1.1391  2.1326  0.8010
   58MOL0     H 7637   3.436   1.994   5.774  1.6102 -4.4176  1.2228
   58MOL0     H 7638   2.932   1.858   5.254  0.8406 -0.2374  0.2069
   58MOL0     H 7639   2.748   1.987   5.143 -2.6972 -0.6182  0.6482
   58MOL0     H 7640   2.325   1.894   4.934 -0.7289  0.4756 -0.2983
   58MOL0     H 7641   2.126   2.003   4.884 -1.2203 -1.9554 -3.5121
   58MOL0     H 7642   0.689   2.002   3.795 -1.5560  0.7915 -0.0993
   58MOL0     H 7643   0.463   1.901   3.778 -0.6754 -3.4510  2.7570
   58MOL0     H 7644   0.158   1.561   3.551 -2.1111 -0.6628 -0.9644
   58MOL0     H 7645  -0.052   1.502   3.532 -1.2199  0.3735 -1.1166
   58MOL0     H 7646  -0.285   1.567   3.657  0.7095 -0.3997 -0.6035
   58MOL0     H 7647  -0.261   1.451   3.519  1.7543  0.1108 -0.2843
   58MOL0     H 7648  -0.498   1.628   3.526  0.5899  0.8650  0.7882
   58MOL0     H 7649  -0.461   1.487   3.421 -0.9995  0.3909 -0.5086
   58MOL0     H 7650  -0.477   1.343   3.629 -0.3086  0.3309 -1.0902
   58MOL0     H 7651  -0.631   1.425   3.577 -1.8980  1.5960  2.7268
   58MOL0     H 7652  -0.449   1.537   3.806  0.0204  0.3498  0.0353
   58MOL0     H 7653  -0.615   1.579   3.760  1.5601  2.1459 -0.3560
   58MOL0     H 7654  -0.658   1.213   3.982 -3.4852 -1.0900 -2.1596
   58MOL0     H 7655  -0.174   1.907   3.477 -1.7166 -0.9454  2.7608
   58MOL0     H 7656   0.058   1.982   3.511  0.2886 -0.3688 -0.4602
   59MOL0     O 7657  10.793  10.154  10.188 -0.2102 -0.4584  0.8924
   59MOL0     C 7658  10.785  10.081  10.285 -0.5549 -0.4773 -0.0362
   59MOL0     O 7659  10.900  10.029  10.341  0.3050  0.7766  0.3739
   59MOL0     C 7660  11.023  10.056  10.280  0.0474  1.2468 -0.0470
   59MOL0     C 7661  11.128  10.073  10.360  0.1733 -0.3450 -0.6841
   59MOL0     C 7662  11.258  10.085  10.307  0.0870 -1.0994 -1.3743
   59MOL0     C 7663  11.284  10.069  10.178  0.7029  0.3886 -0.0666
   59MOL0     O 7664  11.411  10.067  10.148 -1.3480 -0.6300  0.0941
   59MOL0     C 7665  11.456   9.931  10.104  0.0775  0.0559 -0.2795
   59MOL0     C 7666  11.609   9.919  10.136  0.5701  0.4039  0.3922
   59MOL0     C 7667  11.690  10.015  10.046 -0.2910 -0.5594 -0.2318
   59MOL0     C 7668  11.827  10.027  10.122 -0.0975  0.4902  0.4310
   59MOL0     C 7669  11.942  10.101  10.047  0.1036 -0.4007 -0.1811
   59MOL0     C 7670  12.081  10.101  10.120 -0.3924  1.2844  0.4262
   59MOL0     C 7671  12.169  10.195  10.034 -0.1000  0.8142  0.5076
   59MOL0     C 7672  12.212  10.124   9.907  0.8078  0.4146  0.6215
   59MOL0     N 7673  12.333  10.176   9.851  0.6765  0.1126 -0.0164
   59MOL0     C 7674  12.452  10.191   9.914  0.2523  0.9144  0.0448
   59MOL0     C 7675  12.525  10.270   9.832 -1.6064  0.3594  0.3678
   59MOL0     C 7676  12.674  10.310   9.850  0.2821  0.1407 -0.1499
   59MOL0     C 7677  12.740  10.374   9.734  0.8670  0.9581  0.7328
   59MOL0     C 7678  12.894  10.354   9.730  0.2241  0.4441 -0.4971
   59MOL0     C 7679  12.965  10.467   9.654  0.0915  0.0823 -0.1116
   59MOL0     O 7680  13.102  10.445   9.646 -0.1134 -0.3200 -0.3118
   59MOL0     C 7681  13.191  10.544   9.687  0.5161  0.5429  0.3991
   59MOL0     C 7682  13.157  10.621   9.801  0.6593 -0.8715  0.2489
   59MOL0     C 7683  13.232  10.730   9.840  0.4440  0.5687  0.5632
   59MOL0     C 7684  13.356  10.764   9.777 -0.5974  0.1709  0.1344
   59MOL0     C 7685  13.451  10.883   9.811  0.9107  0.2398  0.2501
   59MOL0     O 7686  13.395  10.976   9.880  0.2578  0.0640  0.5408
   59MOL0     C 7687  13.472  11.077   9.941  0.2776 -0.3656  0.6076
   59MOL0     C 7688  13.417  11.201   9.969 -0.3082  0.3106 -0.0712
   59MOL0     C 7689  13.475  11.284  10.056 -0.8119 -0.2817  0.0550
   59MOL0     C 7690  13.589  11.260  10.134  0.0347  0.1836 -0.5127
   59MOL0     O 7691  13.637  11.338  10.234  0.2202  0.4325  0.0499
   59MOL0     C 7692  13.558  11.449  10.271 -1.0627 -0.5072 -0.5944
   59MOL0     C 7693  13.636  11.502  10.397  0.9388  0.1855  0.1098
   59MOL0     C 7694  13.531  11.546  10.497  0.8485 -0.3505 -0.5789
   59MOL0     C 7695  13.582  11.602  10.629  0.1443  0.2188  0.3678
   59MOL0     C 7696  13.613  11.493  10.726  0.6182 -0.7583  0.1448
   59MOL0     C 7697  13.653  11.530  10.870 -0.1790 -0.7314  0.4856
   59MOL0     C 7698  13.780  11.616  10.874  0.5342  0.3597 -0.1492
   59MOL0     C 7699  13.844  11.640  11.012  0.3031 -0.1757  0.1366
   59MOL0    Cl 7700  13.889  11.473  11.065 -0.0255  0.0587 -0.2171
   59MOL0     C 7701  13.646  11.134  10.108 -0.0657  1.0872 -0.2167
   59MOL0     C 7702  13.588  11.049  10.012  0.1769  0.5224  0.8978
   59MOL0     O 7703  13.567  10.876   9.775  0.0506  0.4928  0.2094
   59MOL0     C 7704  13.388  10.679   9.661 -0.4368 -0.7659 -1.1079
   59MOL0     C 7705  13.301  10.575   9.616  0.0160 -0.6861  0.0948
   59MOL0     N 7706  12.456  10.292   9.720 -0.2689 -0.6093 -0.1699
   59MOL0     N 7707  12.333  10.244   9.731 -0.0794 -0.0456  0.6969
   59MOL0     C 7708  11.174  10.052  10.092 -0.0996 -0.0420  0.3453
   59MOL0     C 7709  11.051  10.045  10.146 -0.1012  0.0125  0.1342
   59MOL0     C 7710  10.653  10.060  10.348  0.1645 -0.2146 -0.8924
   59MOL0     C 7711  10.634  10.007  10.482 -0.1627  0.0504  0.3221
   59MOL0     C 7712  10.508   9.989  10.545 -0.3105 -0.4786  0.5337
   59MOL0     C 7713  10.395  10.032  10.476 -0.1437  0.1710 -0.3731
   59MOL0     O 7714  10.267  10.042  10.534  0.2687 -0.2958 -0.0852
   59MOL0     C 7715  10.248   9.989  10.664 -0.1966  0.9762  0.3136
   59MOL0     C 7716  10.104  10.026  10.704  0.1717 -0.2102 -0.9225
   59MOL0     C 7717  10.107  10.180  10.714  0.0685 -0.4206 -0.1875
   59MOL0     C 7718   9.976  10.236  10.791  0.0832  0.1394  0.1610
   59MOL0     C 7719   9.992  10.380  10.810  0.0531  0.2452 -0.3362
   59MOL0     C 7720  10.012  10.496  10.837 -0.4248 -0.9798 -0.0366
   59MOL0     C 7721  10.410  10.098  10.355 -0.3289 -0.2379 -0.2922
   59MOL0     C 7722  10.531  10.104  10.284  0.4588  1.0186 -0.7834
   59MOL0     H 7723  11.106  10.078  10.466 -0.0361  0.5189 -0.7637
   59MOL0     H 7724  11.341  10.103  10.374  0.9391 -1.4677 -2.3010
   59MOL0     H 7725  11.429   9.915  10.000 -0.6766  1.1804 -0.2804
   59MOL0     H 7726  11.401   9.857  10.163 -0.8021  1.8199  1.2648
   59MOL0     H 7727  11.639   9.816  10.116  2.2295  0.6247  1.5271
   59MOL0     H 7728  11.628   9.942  10.242 -1.1381  2.0107  0.4100
   59MOL0     H 7729  11.639  10.109  10.023  1.7141  0.1798 -2.0026
   59MOL0     H 7730  11.698   9.982   9.942  0.2763  0.8115 -0.6465
   59MOL0     H 7731  11.807  10.075  10.218 -0.3477 -0.1998  0.7266
   59MOL0     H 7732  11.869   9.928  10.140  0.6190  0.6465 -0.2701
   59MOL0     H 7733  11.911  10.205  10.035 -0.4938 -0.6766 -1.1627
   59MOL0     H 7734  11.940  10.061   9.945 -1.8596  1.4495 -0.9639
   59MOL0     H 7735  12.109   9.996  10.119 -2.2468  0.6906 -2.0487
   59MOL0     H 7736  12.064  10.137  10.222 -0.3931 -0.1254  0.9365
   59MOL0     H 7737  12.112  10.283  10.005 -2.3318 -1.1944 -1.6876
   59MOL0     H 7738  12.255  10.215  10.099  1.0958 -2.8629  0.3010
   59MOL0     H 7739  12.125  10.125   9.840 -0.5771  0.5518  2.3610
   59MOL0     H 7740  12.239  10.021   9.931  2.1215  0.7762  0.7751
   59MOL0     H 7741  12.477  10.138  10.005 -0.9990 -0.4296 -0.3650
   59MOL0     H 7742  12.736  10.229   9.890  0.2926  1.1038  1.9769
   59MOL0     H 7743  12.673  10.372   9.941 -2.6822  1.7477 -1.1508
   59MOL0     H 7744  12.711  10.479   9.738 -2.8129  0.5712 -4.8662
   59MOL0     H 7745  12.687  10.342   9.644 -0.1235  3.8937  0.1831
   59MOL0     H 7746  12.932  10.360   9.832  1.4094  4.3151 -1.0091
   59MOL0     H 7747  12.919  10.251   9.701 -0.9948  0.4262 -1.6239
   59MOL0     H 7748  12.956  10.565   9.701  3.0368 -1.2226  3.6950
   59MOL0     H 7749  12.922  10.473   9.553 -0.4278  0.5573  0.1357
   59MOL0     H 7750  13.072  10.589   9.860 -0.2463 -2.7976 -1.9339
   59MOL0     H 7751  13.191  10.796   9.916 -3.0020  2.5464 -2.6440
   59MOL0     H 7752  13.311  11.222   9.956 -1.1487 -3.2809 -0.0107
   59MOL0     H 7753  13.418  11.373  10.082 -0.6573 -0.2662  0.3457
   59MOL0     H 7754  13.452  11.424  10.280 -0.7011 -2.3398 -0.8410
   59MOL0     H 7755  13.568  11.527  10.195  1.8556  1.4184  1.5584
   59MOL0     H 7756  13.709  11.580  10.373  1.8611 -0.5859  0.3332
   59MOL0     H 7757  13.689  11.415  10.437  0.1631 -0.8775 -1.0776
   59MOL0     H 7758  13.447  11.477  10.506 -1.4769  2.2185 -1.1051
   59MOL0     H 7759  13.476  11.622  10.441 -1.5669 -0.6559  1.1980
   59MOL0     H 7760  13.672  11.663  10.616 -0.3207  0.6138 -1.2271
   59MOL0     H 7761  13.501  11.661  10.675  0.3188  0.6753  0.0996
   59MOL0     H 7762  13.694  11.434  10.682  2.8573  0.3249  2.5032
   59MOL0     H 7763  13.524  11.432  10.739  2.5847 -4.3064 -1.4871
   59MOL0     H 7764  13.681  11.437  10.921  1.3701 -0.5020  0.1047
   59MOL0     H 7765  13.569  11.574  10.924 -2.3839 -0.5123 -2.8274
   59MOL0     H 7766  13.851  11.559  10.813  0.2479 -0.2531  0.0760
   59MOL0     H 7767  13.750  11.716  10.842  2.1871  1.8047  2.3914
   59MOL0     H 7768  13.766  11.683  11.076  0.8684 -1.9758  2.1348
   59MOL0     H 7769  13.927  11.711  11.010 -0.6758  1.0053  0.2891
   59MOL0     H 7770  13.731  11.097  10.165 -0.9439 -0.1024  0.3587
   59MOL0     H 7771  13.639  10.956   9.987 -1.1967  0.6348 -3.1367
   59MOL0     H 7772  13.474  10.690   9.595  0.0859  0.4694 -0.2571
   59MOL0     H 7773  13.310  10.522   9.521 -0.6474  2.1772 -1.6575
   59MOL0     H 7774  11.200  10.038   9.988  0.6405  2.6839  0.0961
   59MOL0     H 7775  10.985  10.005  10.070  2.2347 -0.5824 -1.6779
   59MOL0     H 7776  10.721   9.974  10.539  1.1251  1.7825 -0.5265
   59MOL0     H 7777  10.488   9.937  10.638 -1.8227  2.2979  1.8927
   59MOL0     H 7778  10.316  10.045  10.729  1.6876  0.4903 -1.1497
   59MOL0     H 7779  10.260   9.881  10.675 -2.1882  0.7594  0.7912
   59MOL0     H 7780  10.024   9.992  10.639  0.7658 -1.4528 -1.0169
   59MOL0     H 7781  10.092   9.989  10.807 -0.6370  3.5179  0.5017
   59MOL0     H 7782  10.098  10.224  10.614  1.6523  0.5183  0.0449
   59MOL0     H 7783  10.199  10.222  10.755  0.2248 -2.0109  1.1824
   59MOL0     H 7784   9.895  10.207  10.723  0.0099  1.2686 -0.2598
   59MOL0     H 7785   9.966  10.177  10.883 -2.9098 -0.9674 -0.7633
   59MOL0     H 7786  10.021  10.602  10.843  0.2862 -1.0892  1.2000
   59MOL0     H 7787  10.319  10.132  10.308 -2.2161 -2.6660  1.3277
   59MOL0     H 7788  10.520  10.151  10.187 -2.7824  0.7568 -0.6314
   60MOL0     O 7789   7.363   5.458   7.492 -0.4371 -0.3423 -0.1925
   60MOL0     C 7790   7.344   5.573   7.529 -0.3981  0.0132  0.6044
   60MOL0     O 7791   7.438   5.678   7.524 -0.3817 -0.9245  0.2982
   60MOL0     C 7792   7.565   5.655   7.481  0.3081  0.6868 -0.3311
   60MOL0     C 7793   7.649   5.562   7.544  0.5980 -0.2908  0.1614
   60MOL0     C 7794   7.782   5.544   7.504  0.0611  0.4831 -0.0062
   60MOL0     C 7795   7.835   5.626   7.408 -0.3129  0.0770 -0.1657
   60MOL0     O 7796   7.961   5.623   7.353 -0.9848 -0.2333 -0.1366
   60MOL0     C 7797   8.044   5.510   7.370  0.5763  0.6527 -0.3849
   60MOL0     C 7798   8.175   5.523   7.296 -0.2390 -0.1225 -0.7133
   60MOL0     C 7799   8.283   5.439   7.366 -0.3449  0.3479  0.5743
   60MOL0     C 7800   8.412   5.434   7.282 -0.3016  0.0464  0.1665
   60MOL0     C 7801   8.538   5.447   7.360  0.0117 -0.2801  0.4507
   60MOL0     C 7802   8.556   5.334   7.453 -0.2221  0.6756 -0.3000
   60MOL0     C 7803   8.701   5.301   7.472 -0.2975  0.3152 -0.0651
   60MOL0     C 7804   8.774   5.412   7.540 -0.3884 -0.6750  0.7962
   60MOL0     N 7805   8.897   5.355   7.600 -0.1236 -0.2500  0.5325
   60MOL0     C 7806   8.997   5.280   7.539  0.2541 -0.0626 -0.6286
   60MOL0     C 7807   9.065   5.243   7.644 -0.5576  0.4575 -0.0396
   60MOL0     C 7808   9.190   5.157   7.637  0.9415  0.2038  0.5981
   60MOL0     C 7809   9.269   5.178   7.506 -0.5589  0.0729  0.3785
   60MOL0     C 7810   9.406   5.107   7.510 -0.1231  0.0698 -0.4023
   60MOL0     C 7811   9.488   5.119   7.376  0.0846  0.0575  0.3678
   60MOL0     O 7812   9.452   5.234   7.309  0.1781  0.2260 -0.3791
   60MOL0     C 7813   9.520   5.249   7.186 -0.4353  0.4845  0.2091
   60MOL0     C 7814   9.643   5.185   7.142  1.4844  0.2367  0.1930
   60MOL0     C 7815   9.706   5.219   7.031  1.0645 -0.5559  0.1659
   60MOL0     C 7816   9.657   5.321   6.944 -0.1420 -0.1497 -0.3661
   60MOL0     C 7817   9.739   5.372   6.831  0.2348  0.2424  0.2627
   60MOL0     O 7818   9.844   5.298   6.804 -0.6867 -0.0136 -0.0846
   60MOL0     C 7819   9.922   5.337   6.698  0.5087 -0.3691  0.4998
   60MOL0     C 7820   9.882   5.326   6.559  0.3363 -0.1281  0.2722
   60MOL0     C 7821   9.971   5.344   6.454 -0.4542 -0.0751  0.1339
   60MOL0     C 7822  10.101   5.371   6.477 -0.9903 -0.4819  0.4381
   60MOL0     O 7823  10.183   5.384   6.363 -0.0150  0.0773  0.8736
   60MOL0     C 7824  10.329   5.391   6.386 -0.2412 -0.0302 -0.0810
   60MOL0     C 7825  10.413   5.254   6.398  0.0877  0.2551 -0.3048
   60MOL0     C 7826  10.447   5.211   6.256 -0.4741 -0.0106 -0.1634
   60MOL0     C 7827  10.526   5.086   6.253  0.3257  0.6175  0.1440
   60MOL0     C 7828  10.652   5.075   6.329  0.1458  0.5135  0.7517
   60MOL0     C 7829  10.761   5.178   6.278  0.3330 -0.4153  0.1796
   60MOL0     C 7830  10.900   5.153   6.332  1.4284 -0.2257 -0.1259
   60MOL0     C 7831  10.991   5.269   6.301 -0.0701  0.5533 -0.0056
   60MOL0    Cl 7832  11.156   5.217   6.308 -0.7451 -0.0421 -0.5841
   60MOL0     C 7833  10.143   5.390   6.608 -0.5996  0.7245 -0.6501
   60MOL0     C 7834  10.060   5.371   6.727 -0.0410 -0.1477  0.4683
   60MOL0     O 7835   9.703   5.475   6.772  0.0729  0.2943 -0.2955
   60MOL0     C 7836   9.531   5.373   6.974 -0.3901 -0.0165 -1.0941
   60MOL0     C 7837   9.461   5.340   7.097  0.9639 -0.5247  0.2256
   60MOL0     N 7838   9.005   5.272   7.761 -0.1244 -0.5757 -0.1179
   60MOL0     N 7839   8.897   5.338   7.738 -0.0062  0.2776  0.3182
   60MOL0     C 7840   7.747   5.723   7.344 -0.7115  0.2314  0.1714
   60MOL0     C 7841   7.617   5.734   7.379  0.3452 -0.2852  0.0501
   60MOL0     C 7842   7.214   5.614   7.587 -0.4680 -0.5399 -0.2288
   60MOL0     C 7843   7.126   5.512   7.630  0.3251  0.3927 -0.6906
   60MOL0     C 7844   7.003   5.546   7.691  0.0236  0.0200  0.6417
   60MOL0     C 7845   6.974   5.687   7.725  0.9915 -0.4465  1.0047
   60MOL0     O 7846   6.867   5.727   7.796 -0.8595  0.2710  0.2912
   60MOL0     C 7847   6.738   5.709   7.727  0.1374  0.8761 -0.5271
   60MOL0     C 7848   6.639   5.793   7.808 -0.0080  0.8156 -0.1264
   60MOL0     C 7849   6.513   5.819   7.732  0.6676 -0.5760  1.0394
   60MOL0     C 7850   6.460   5.701   7.643 -0.0556  0.1995 -0.0098
   60MOL0     C 7851   6.335   5.729   7.572  0.3509 -0.4691  0.2593
   60MOL0     C 7852   6.236   5.782   7.521 -0.5616 -0.4367 -0.1204
   60MOL0     C 7853   7.065   5.783   7.692 -0.2007  0.1730 -0.8064
   60MOL0     C 7854   7.183   5.750   7.623  0.5251 -0.5076 -0.2946
   60MOL0     H 7855   7.609   5.502   7.626  1.0434  0.8303  1.2391
   60MOL0     H 7856   7.843   5.484   7.570 -1.0594  1.6031  2.1691
   60MOL0     H 7857   7.994   5.414   7.357 -0.3606  0.9915  0.5929
   60MOL0     H 7858   8.061   5.505   7.478 -3.6108 -1.4311  0.3665
   60MOL0     H 7859   8.229   5.619   7.301  4.4431 -2.4917  0.9566
   60MOL0     H 7860   8.172   5.502   7.189 -0.2435  1.0701 -0.9615
   60MOL0     H 7861   8.237   5.342   7.385 -1.0834  1.0871  2.8764
   60MOL0     H 7862   8.295   5.470   7.470 -1.3790  0.4284  0.6839
   60MOL0     H 7863   8.413   5.342   7.223 -2.8455 -0.2572  0.4809
   60MOL0     H 7864   8.411   5.516   7.210  0.7169  0.9767  1.1694
   60MOL0     H 7865   8.547   5.549   7.398  0.0147 -0.8101  1.9452
   60MOL0     H 7866   8.617   5.444   7.285 -1.9856 -0.9562 -1.7522
   60MOL0     H 7867   8.512   5.239   7.421 -0.1118  0.6634 -0.4144
   60MOL0     H 7868   8.506   5.347   7.550 -0.3930 -3.2619  0.3180
   60MOL0     H 7869   8.707   5.213   7.536 -2.4310  0.1302 -0.0567
   60MOL0     H 7870   8.745   5.279   7.374  4.0840  0.1312  1.7427
   60MOL0     H 7871   8.703   5.457   7.610 -1.1382 -0.0271 -0.3609
   60MOL0     H 7872   8.809   5.486   7.468  0.2880 -0.1377  1.6495
   60MOL0     H 7873   9.026   5.260   7.436  0.5360  1.0905 -0.7976
   60MOL0     H 7874   9.144   5.058   7.632 -0.2166  0.7785 -0.8418
   60MOL0     H 7875   9.253   5.160   7.727 -1.2375  0.0973  2.1886
   60MOL0     H 7876   9.277   5.282   7.473 -1.0205 -0.7705 -2.8026
   60MOL0     H 7877   9.212   5.136   7.422 -0.9139  0.8175  0.2397
   60MOL0     H 7878   9.461   5.136   7.600 -1.0769 -2.0035  0.9380
   60MOL0     H 7879   9.391   5.001   7.535  0.5771  0.0076 -0.2141
   60MOL0     H 7880   9.473   5.033   7.310  1.3324  0.1112 -0.0039
   60MOL0     H 7881   9.595   5.128   7.396 -0.0399  4.3378 -0.0346
   60MOL0     H 7882   9.670   5.102   7.207 -1.9869  0.6765  2.4346
   60MOL0     H 7883   9.796   5.175   6.989 -0.4306 -3.3155 -0.4161
   60MOL0     H 7884   9.777   5.301   6.546  0.1869  0.2327  0.7445
   60MOL0     H 7885   9.939   5.330   6.351 -0.8282 -1.3509  0.4002
   60MOL0     H 7886  10.357   5.441   6.479  0.2600 -2.4414  1.1244
   60MOL0     H 7887  10.390   5.444   6.312 -0.7511 -0.8282 -1.0899
   60MOL0     H 7888  10.335   5.185   6.434 -0.5746 -0.0354 -2.2022
   60MOL0     H 7889  10.512   5.268   6.441  2.1793 -2.9937 -3.5578
   60MOL0     H 7890  10.515   5.284   6.214 -1.7643  1.3146 -0.0363
   60MOL0     H 7891  10.356   5.203   6.196  0.1156  0.1342 -1.0866
   60MOL0     H 7892  10.464   5.002   6.286  0.2133  0.0068 -1.5388
   60MOL0     H 7893  10.550   5.057   6.150 -0.5371 -0.2072  0.1611
   60MOL0     H 7894  10.690   4.975   6.303 -4.2219 -0.9878 -0.7329
   60MOL0     H 7895  10.632   5.072   6.436 -1.5986 -2.9864  0.4446
   60MOL0     H 7896  10.733   5.278   6.311  1.4353 -0.3860  1.0827
   60MOL0     H 7897  10.763   5.185   6.169 -2.1199 -0.0637  0.0972
   60MOL0     H 7898  10.885   5.128   6.437  1.2548 -2.1846 -0.5596
   60MOL0     H 7899  10.933   5.062   6.280 -0.3558  0.0938 -1.9480
   60MOL0     H 7900  10.977   5.343   6.381  1.7943 -0.2474  1.1030
   60MOL0     H 7901  10.956   5.304   6.203 -2.3038  2.1296  1.2579
   60MOL0     H 7902  10.246   5.409   6.635 -0.1697 -1.4581 -0.5711
   60MOL0     H 7903  10.105   5.393   6.823  0.5364  2.9462 -0.4033
   60MOL0     H 7904   9.488   5.456   6.919  2.6148  2.0815 -0.4763
   60MOL0     H 7905   9.369   5.397   7.113  0.6916 -1.2714  1.4340
   60MOL0     H 7906   7.787   5.796   7.274 -3.8502  1.8766 -0.0797
   60MOL0     H 7907   7.546   5.807   7.342 -2.3421 -2.1741  1.1505
   60MOL0     H 7908   7.142   5.405   7.623  1.2378  0.3684  1.3220
   60MOL0     H 7909   6.934   5.469   7.723 -2.1771  2.7640  3.0221
   60MOL0     H 7910   6.707   5.605   7.713  0.5892  0.4651  1.3610
   60MOL0     H 7911   6.746   5.748   7.625 -1.3938 -2.3101 -1.9988
   60MOL0     H 7912   6.622   5.732   7.897 -0.3963 -0.6778 -1.1962
   60MOL0     H 7913   6.693   5.884   7.837  1.3164 -1.0477  4.0075
   60MOL0     H 7914   6.540   5.903   7.668  0.4954 -1.0615  0.3203
   60MOL0     H 7915   6.431   5.843   7.802  0.3282  1.5510 -0.0032
   60MOL0     H 7916   6.540   5.673   7.574 -1.2453 -0.9278 -0.9935
   60MOL0     H 7917   6.439   5.611   7.703 -0.2550  0.7815  0.8138
   60MOL0     H 7918   6.151   5.836   7.486 -0.1592  0.7252  0.6322
   60MOL0     H 7919   7.031   5.883   7.716 -1.8766 -0.8609  1.5705
   60MOL0     H 7920   7.253   5.826   7.592  2.0622 -2.9323 -3.1925
   61MOL0     O 7921   8.703   8.598   9.214 -0.7373 -0.4201  0.3036
   61MOL0     C 7922   8.780   8.594   9.313  0.6997  0.8033 -0.0923
   61MOL0     O 7923   8.753   8.569   9.442  0.0020  0.0974  0.3969
   61MOL0     C 7924   8.617   8.562   9.471  0.0013  1.2400  0.7072
   61MOL0     C 7925   8.542   8.444   9.434  0.3052 -0.3429 -0.7185
   61MOL0     C 7926   8.400   8.441   9.444  0.5429 -0.7980 -0.1865
   61MOL0     C 7927   8.331   8.564   9.486  0.4594  0.8496  0.0979
   61MOL0     O 7928   8.199   8.554   9.497  0.7498  0.0645 -0.2873
   61MOL0     C 7929   8.121   8.664   9.478 -0.8739 -0.9331 -0.2137
   61MOL0     C 7930   7.987   8.609   9.436 -0.3074  0.4310 -0.7491
   61MOL0     C 7931   7.903   8.540   9.554  1.2273  0.3169 -0.0829
   61MOL0     C 7932   7.773   8.475   9.515  0.1531 -0.2063  0.7406
   61MOL0     C 7933   7.666   8.479   9.630 -0.0345  0.3854  0.3673
   61MOL0     C 7934   7.706   8.388   9.748 -0.0599 -0.0812  0.2219
   61MOL0     C 7935   7.596   8.366   9.836  0.4399  0.4273  0.0493
   61MOL0     C 7936   7.545   8.489   9.913  0.8159 -0.2574  0.7879
   61MOL0     N 7937   7.442   8.459  10.009  0.5831  0.2241 -0.0006
   61MOL0     C 7938   7.308   8.454   9.993  0.0981  0.4827 -0.2427
   61MOL0     C 7939   7.258   8.414  10.118 -1.1289  1.9960  0.7077
   61MOL0     C 7940   7.117   8.392  10.159 -0.2098 -0.4797  0.1748
   61MOL0     C 7941   7.021   8.505  10.104  0.0017  0.0669 -1.1509
   61MOL0     C 7942   6.872   8.480  10.160 -0.1292  0.4906 -0.4033
   61MOL0     C 7943   6.761   8.514  10.069  0.0537  0.7742  0.4417
   61MOL0     O 7944   6.646   8.566  10.123  0.2069  0.6077 -0.6679
   61MOL0     C 7945   6.570   8.496  10.219 -0.5814 -0.3549  0.0005
   61MOL0     C 7946   6.582   8.357  10.249 -0.2658 -0.0164  0.5365
   61MOL0     C 7947   6.494   8.287  10.330  0.2369 -0.0547 -0.4285
   61MOL0     C 7948   6.381   8.350  10.385 -1.1894  0.3249  0.7778
   61MOL0     C 7949   6.274   8.280  10.457  0.0003 -0.2682  0.2085
   61MOL0     O 7950   6.264   8.139  10.451  0.5208  0.1973  0.3173
   61MOL0     C 7951   6.149   8.097  10.514 -0.2672 -0.7331  0.3608
   61MOL0     C 7952   6.058   8.028  10.442  0.0517  0.5930  0.0349
   61MOL0     C 7953   5.952   7.965  10.516  0.6195 -0.5564  1.1673
   61MOL0     C 7954   5.932   7.991  10.649  0.4481  0.4974 -0.4916
   61MOL0     O 7955   5.808   7.948  10.702 -0.6345 -0.7987  0.3668
   61MOL0     C 7956   5.782   7.934  10.845  0.4702 -0.9873  0.0418
   61MOL0     C 7957   5.730   7.794  10.868  1.2977  0.1027 -0.0664
   61MOL0     C 7958   5.623   7.758  10.762 -0.2503 -0.4876  1.1389
   61MOL0     C 7959   5.518   7.868  10.760  0.0584 -0.0519 -0.3718
   61MOL0     C 7960   5.397   7.809  10.680  0.4544 -0.4475  0.1822
   61MOL0     C 7961   5.337   7.927  10.601  0.9002  0.0384 -0.1216
   61MOL0     C 7962   5.227   7.889  10.498  0.3031 -0.1272 -0.1624
   61MOL0     C 7963   5.211   8.001  10.390  0.3768  0.3433 -0.5274
   61MOL0    Cl 7964   5.086   7.951  10.273  0.0751  0.3565 -0.3229
   61MOL0     C 7965   6.029   8.061  10.718  0.0514  0.1345 -0.0562
   61MOL0     C 7966   6.140   8.117  10.652 -0.3383  1.8221 -0.7293
   61MOL0     O 7967   6.194   8.349  10.520  0.5823 -0.8028  0.3178
   61MOL0     C 7968   6.362   8.480  10.335  0.2389 -0.0793 -0.5533
   61MOL0     C 7969   6.457   8.559  10.268  0.3474 -0.3143 -0.1172
   61MOL0     N 7970   7.367   8.361  10.192  0.1212 -0.6767 -0.1999
   61MOL0     N 7971   7.474   8.393  10.117 -0.0379  0.4095 -0.0709
   61MOL0     C 7972   8.404   8.680   9.510 -0.5233 -0.1812  0.0426
   61MOL0     C 7973   8.542   8.676   9.499  0.2837 -0.4404  0.8665
   61MOL0     C 7974   8.917   8.626   9.291  0.4426  0.2481 -0.0518
   61MOL0     C 7975   8.964   8.651   9.159 -0.3202  0.2545 -0.4188
   61MOL0     C 7976   9.098   8.684   9.127  0.4028  0.6488 -0.1060
   61MOL0     C 7977   9.193   8.691   9.229 -0.1212 -0.6574  0.9738
   61MOL0     O 7978   9.329   8.719   9.223  0.7075 -0.2606  0.5151
   61MOL0     C 7979   9.381   8.738   9.091 -0.5717 -0.5400 -1.3129
   61MOL0     C 7980   9.522   8.794   9.083 -0.0323  0.5676 -0.2598
   61MOL0     C 7981   9.557   8.918   9.153  1.5044  0.6254  1.0438
   61MOL0     C 7982   9.711   8.927   9.181 -0.3356 -0.2545 -0.4418
   61MOL0     C 7983   9.770   8.966   9.058  0.2256  0.1221 -0.3722
   61MOL0     C 7984   9.804   9.005   8.951  0.7053 -0.3985  0.2098
   61MOL0     C 7985   9.141   8.675   9.355  0.1805  0.0643  0.3627
   61MOL0     C 7986   9.006   8.645   9.391 -0.1040  0.0500 -0.6961
   61MOL0     H 7987   8.586   8.357   9.386  2.3416 -0.4778  1.2194
   61MOL0     H 7988   8.355   8.357   9.392 -1.0454 -1.1417  1.6380
   61MOL0     H 7989   8.161   8.733   9.404 -1.6262  0.1948  0.4093
   61MOL0     H 7990   8.120   8.707   9.579  0.4804  0.6504 -0.8467
   61MOL0     H 7991   8.003   8.527   9.365  2.5008 -0.5480  0.8023
   61MOL0     H 7992   7.925   8.682   9.384 -1.5625  0.3757  0.6013
   61MOL0     H 7993   7.877   8.625   9.617  1.9178  2.2880 -2.3148
   61MOL0     H 7994   7.954   8.475   9.625  0.5441  1.2050  1.2560
   61MOL0     H 7995   7.730   8.530   9.431  2.3054  1.2312  0.5109
   61MOL0     H 7996   7.780   8.371   9.481 -0.8406  0.0085 -0.1887
   61MOL0     H 7997   7.569   8.448   9.591 -0.2810  2.4026 -0.7592
   61MOL0     H 7998   7.652   8.580   9.671  1.0276  0.7101 -0.0342
   61MOL0     H 7999   7.784   8.445   9.799 -3.6654  1.9582  4.1412
   61MOL0     H 8000   7.750   8.300   9.700  1.9981  0.8176  0.3678
   61MOL0     H 8001   7.515   8.315   9.784 -0.5109  0.7134  1.2123
   61MOL0     H 8002   7.635   8.287   9.902  0.2611  1.8797  1.9787
   61MOL0     H 8003   7.502   8.563   9.845 -1.3925 -2.2436 -0.0759
   61MOL0     H 8004   7.625   8.535   9.972  0.0544  1.5395  0.4879
   61MOL0     H 8005   7.256   8.487   9.904 -0.8461 -0.8356 -0.2056
   61MOL0     H 8006   7.097   8.384  10.266  0.9615 -1.2759  0.3565
   61MOL0     H 8007   7.081   8.299  10.114  2.7514 -2.0435  0.7801
   61MOL0     H 8008   7.017   8.514   9.996 -1.1964 -1.1052 -1.2353
   61MOL0     H 8009   7.044   8.607  10.136 -2.1859  0.7972 -1.7106
   61MOL0     H 8010   6.852   8.376  10.188 -2.7964  1.7277  3.0462
   61MOL0     H 8011   6.868   8.534  10.255  1.3810 -2.4934  1.5043
   61MOL0     H 8012   6.735   8.423  10.015  0.4868  1.1426 -0.4206
   61MOL0     H 8013   6.801   8.591  10.002  1.2441  1.8059  2.2654
   61MOL0     H 8014   6.657   8.291  10.207 -1.1282  0.4060 -1.8757
   61MOL0     H 8015   6.508   8.180  10.333  1.2265  0.0116 -1.8395
   61MOL0     H 8016   6.060   7.993  10.340 -0.1801 -2.1621  0.8844
   61MOL0     H 8017   5.869   7.911  10.471 -2.3276  0.5065  4.7816
   61MOL0     H 8018   5.705   8.003  10.881 -0.3560 -0.7276 -2.0904
   61MOL0     H 8019   5.869   7.942  10.911 -0.2665 -0.7869  1.0221
   61MOL0     H 8020   5.677   7.795  10.963 -0.0146 -0.7204 -0.7676
   61MOL0     H 8021   5.812   7.722  10.878 -0.2390 -1.3912  3.1861
   61MOL0     H 8022   5.583   7.658  10.780 -1.9800 -0.3284 -1.2712
   61MOL0     H 8023   5.674   7.761  10.665  0.0961 -1.5748  1.2755
   61MOL0     H 8024   5.484   7.892  10.862  3.2818  1.4162  0.4804
   61MOL0     H 8025   5.549   7.964  10.717  0.0386  0.6910  1.2087
   61MOL0     H 8026   5.332   7.776  10.760  0.9441  0.9700  1.2030
   61MOL0     H 8027   5.418   7.730  10.607  2.6429  0.1499  0.0692
   61MOL0     H 8028   5.412   7.980  10.543  1.9885 -0.2310  0.9858
   61MOL0     H 8029   5.289   8.000  10.667 -1.3010 -1.6576  0.2800
   61MOL0     H 8030   5.252   7.792  10.456 -0.0207 -0.2750 -0.0143
   61MOL0     H 8031   5.131   7.872  10.547  0.0369 -0.9779 -0.9423
   61MOL0     H 8032   5.298   8.028  10.330 -0.2240  1.5353 -0.8946
   61MOL0     H 8033   5.182   8.098  10.433 -1.5609  1.2583 -3.5615
   61MOL0     H 8034   6.037   8.081  10.825 -1.4798 -0.9744  0.2988
   61MOL0     H 8035   6.213   8.182  10.699  0.1018  0.3918  0.6121
   61MOL0     H 8036   6.271   8.526  10.374  0.8894 -0.4774  1.6175
   61MOL0     H 8037   6.444   8.663  10.241  2.9910  0.2249  0.3715
   61MOL0     H 8038   8.358   8.778   9.523 -1.8692 -0.6637 -0.8738
   61MOL0     H 8039   8.595   8.771   9.502 -0.6184  0.1258  4.6836
   61MOL0     H 8040   8.895   8.652   9.075 -1.4581  1.8294  0.4813
   61MOL0     H 8041   9.130   8.694   9.024  1.7358  3.3951  0.4695
   61MOL0     H 8042   9.327   8.808   9.027  1.3134  1.8332 -0.4373
   61MOL0     H 8043   9.381   8.637   9.050 -1.4456 -0.2360 -2.0949
   61MOL0     H 8044   9.577   8.707   9.120 -1.5134  0.0494  0.7778
   61MOL0     H 8045   9.540   8.794   8.975 -2.1550 -0.1586 -0.6558
   61MOL0     H 8046   9.498   8.913   9.245 -1.3390  1.5846 -0.6113
   61MOL0     H 8047   9.505   8.997   9.098 -2.3972 -2.2498  0.2085
   61MOL0     H 8048   9.731   9.015   9.243 -2.7166  0.2622 -0.3007
   61MOL0     H 8049   9.765   8.837   9.211  0.3297 -0.5395 -2.3554
   61MOL0     H 8050   9.837   9.058   8.865  0.0117 -1.2644 -0.6112
   61MOL0     H 8051   9.216   8.671   9.433  1.0643  1.2333 -0.3806
   61MOL0     H 8052   8.977   8.649   9.495  0.2046  1.7591 -0.6597
   62MOL0     O 8053   3.307   2.914   3.804 -0.0362  0.0717 -0.1378
   62MOL0     C 8054   3.413   2.966   3.772  0.0489  1.4985 -0.7397
   62MOL0     O 8055   3.425   3.060   3.677  0.2804  0.1125  1.0647
   62MOL0     C 8056   3.312   3.098   3.599  0.0614  0.8879 -0.0889
   62MOL0     C 8057   3.233   3.010   3.520 -0.2372  0.7552 -0.2275
   62MOL0     C 8058   3.110   3.052   3.455  0.3684  0.4506 -0.2436
   62MOL0     C 8059   3.064   3.180   3.471  0.1470  0.4839  0.3116
   62MOL0     O 8060   2.948   3.218   3.407  0.3331  0.6227  0.3801
   62MOL0     C 8061   2.970   3.289   3.286  0.3973 -0.0426  0.1339
   62MOL0     C 8062   2.846   3.343   3.228  0.2928  0.2941  0.3517
   62MOL0     C 8063   2.750   3.256   3.145  0.1747  0.1153  0.1288
   62MOL0     C 8064   2.633   3.345   3.115  0.3474 -0.3576  0.3185
   62MOL0     C 8065   2.571   3.318   2.983 -0.0822  0.5019 -0.2268
   62MOL0     C 8066   2.419   3.362   2.975 -0.4878  0.6770 -0.0966
   62MOL0     C 8067   2.394   3.509   2.986 -0.5777  0.1553  0.3103
   62MOL0     C 8068   2.305   3.538   3.106  0.3201 -0.7387 -0.3816
   62MOL0     N 8069   2.170   3.475   3.101 -0.3434  0.0816  0.2521
   62MOL0     C 8070   2.103   3.412   3.199 -0.0484  0.1586  1.0778
   62MOL0     C 8071   1.986   3.383   3.133 -0.2506 -0.2834  0.9527
   62MOL0     C 8072   1.866   3.328   3.201 -0.0683 -0.2175 -0.1135
   62MOL0     C 8073   1.735   3.407   3.181  0.8735 -0.0054 -0.0496
   62MOL0     C 8074   1.616   3.314   3.215  0.1136 -0.0022  0.5388
   62MOL0     C 8075   1.494   3.396   3.212 -0.4693 -0.2026 -0.5199
   62MOL0     O 8076   1.376   3.308   3.229 -0.0704 -0.3591 -0.8481
   62MOL0     C 8077   1.251   3.365   3.226 -0.9878  0.0056 -0.3511
   62MOL0     C 8078   1.226   3.486   3.166 -0.2630  0.4730 -0.1938
   62MOL0     C 8079   1.100   3.532   3.149  0.9909  0.0895  0.9527
   62MOL0     C 8080   0.994   3.456   3.197  0.5577 -0.1714 -0.0936
   62MOL0     C 8081   0.856   3.499   3.161 -0.1906 -0.2397 -0.5539
   62MOL0     O 8082   0.766   3.390   3.155  0.6684  0.2449  0.0422
   62MOL0     C 8083   0.640   3.413   3.115  0.8195 -0.2865 -0.8853
   62MOL0     C 8084   0.539   3.422   3.205 -0.4346 -0.4995 -0.0053
   62MOL0     C 8085   0.401   3.430   3.166  0.5804 -0.2792  0.3886
   62MOL0     C 8086   0.365   3.448   3.026  0.0521 -0.1222 -1.1248
   62MOL0     O 8087   0.226   3.449   2.998 -0.7997 -0.4756  0.5664
   62MOL0     C 8088   0.190   3.460   2.860  0.2900 -0.3310  0.1009
   62MOL0     C 8089   0.037   3.466   2.858 -0.6149 -0.0022 -0.6599
   62MOL0     C 8090  -0.006   3.494   2.714 -0.1388  0.0638  0.4823
   62MOL0     C 8091  -0.163   3.505   2.705 -0.7080  0.6154  0.0316
   62MOL0     C 8092  -0.200   3.473   2.553  0.3668 -0.3587  0.1460
   62MOL0     C 8093  -0.349   3.483   2.526  0.0782 -0.2787  0.5596
   62MOL0     C 8094  -0.380   3.465   2.374 -0.5149 -0.0134 -0.4570
   62MOL0     C 8095  -0.439   3.328   2.323  0.0369 -0.8977  0.2836
   62MOL0    Cl 8096  -0.324   3.197   2.323 -0.0124 -0.1260 -0.5618
   62MOL0     C 8097   0.476   3.468   2.940  0.7914  0.2552  0.6774
   62MOL0     C 8098   0.602   3.438   2.981 -0.6134 -0.0022  0.3348
   62MOL0     O 8099   0.829   3.619   3.132 -0.4712  0.1879  0.4513
   62MOL0     C 8100   1.023   3.343   3.283  0.5993  0.3100  1.0286
   62MOL0     C 8101   1.150   3.297   3.299 -0.9517 -0.1364 -0.2662
   62MOL0     N 8102   1.991   3.424   3.003 -0.2356 -0.2511  0.4369
   62MOL0     N 8103   2.098   3.490   2.988  0.4830  0.6201 -0.2951
   62MOL0     C 8104   3.142   3.267   3.539  0.5491  0.0967 -0.1314
   62MOL0     C 8105   3.268   3.226   3.590 -0.4923  0.1460 -0.0130
   62MOL0     C 8106   3.536   2.945   3.858  0.5074 -1.1785  0.3027
   62MOL0     C 8107   3.527   2.845   3.955  0.2374  0.5312  1.7487
   62MOL0     C 8108   3.645   2.824   4.032  0.6168 -0.0569  0.1052
   62MOL0     C 8109   3.752   2.906   4.023  0.0014 -0.0188 -0.0975
   62MOL0     O 8110   3.873   2.893   4.095  0.5587  0.2084  0.0765
   62MOL0     C 8111   3.899   2.806   4.203 -0.6344  0.3364 -0.6809
   62MOL0     C 8112   3.916   2.873   4.338 -0.4056  0.0307 -0.1207
   62MOL0     C 8113   4.022   2.983   4.343 -0.1087 -0.7322 -0.1603
   62MOL0     C 8114   4.167   2.929   4.360  0.3090  0.8263 -0.1439
   62MOL0     C 8115   4.258   3.038   4.316  0.5935  0.2950  0.6096
   62MOL0     C 8116   4.325   3.135   4.307  0.4686  0.2936  0.1771
   62MOL0     C 8117   3.760   3.011   3.935  0.4916  0.6198  0.5882
   62MOL0     C 8118   3.650   3.038   3.850  0.2015 -0.1726  0.2171
   62MOL0     H 8119   3.274   2.911   3.505 -0.6362  0.9878 -3.7004
   62MOL0     H 8120   3.055   2.985   3.389 -2.5851  0.3925  2.0887
   62MOL0     H 8121   3.019   3.232   3.207 -0.7607 -0.8197 -0.0513
   62MOL0     H 8122   3.042   3.366   3.317 -0.2411  0.5515  0.1699
   62MOL0     H 8123   2.873   3.426   3.163  3.4829 -0.7749  0.1370
   62MOL0     H 8124   2.790   3.386   3.311  1.7762 -1.1313  2.2255
   62MOL0     H 8125   2.720   3.165   3.198  0.8178  0.1889  0.6258
   62MOL0     H 8126   2.793   3.219   3.051 -0.9717  0.1443 -0.4261
   62MOL0     H 8127   2.565   3.337   3.200 -0.3920 -1.2473 -0.3377
   62MOL0     H 8128   2.657   3.451   3.111  1.0562 -0.4673  1.2025
   62MOL0     H 8129   2.562   3.210   2.965 -2.0353  0.9831 -2.7916
   62MOL0     H 8130   2.633   3.366   2.907  1.2824  0.3864  0.7707
   62MOL0     H 8131   2.362   3.316   3.056  1.2014  2.0966  2.0220
   62MOL0     H 8132   2.388   3.322   2.878 -1.3638  0.3580  0.2996
   62MOL0     H 8133   2.492   3.558   2.992  0.8076 -2.3291 -0.7485
   62MOL0     H 8134   2.337   3.536   2.897  0.2383  1.6888  0.2088
   62MOL0     H 8135   2.285   3.644   3.125 -2.4589 -1.2474 -0.0389
   62MOL0     H 8136   2.354   3.497   3.195 -1.5803 -0.7497  0.7121
   62MOL0     H 8137   2.135   3.390   3.301  1.6748  0.5456  0.6572
   62MOL0     H 8138   1.884   3.317   3.308 -1.8205 -2.8545  0.0260
   62MOL0     H 8139   1.858   3.221   3.180 -1.3972 -0.5694  1.9280
   62MOL0     H 8140   1.724   3.442   3.078 -0.4638 -0.4093 -0.0667
   62MOL0     H 8141   1.728   3.505   3.230  0.5261 -0.1506  0.1915
   62MOL0     H 8142   1.607   3.228   3.148  0.8868  0.4399 -0.1581
   62MOL0     H 8143   1.632   3.270   3.314  3.9497 -0.1321 -0.0035
   62MOL0     H 8144   1.486   3.435   3.110 -3.1542  1.3073  0.1696
   62MOL0     H 8145   1.502   3.481   3.279  1.0297 -0.5559 -0.2177
   62MOL0     H 8146   1.301   3.543   3.114 -0.0687  1.4679  1.1204
   62MOL0     H 8147   1.083   3.619   3.087  0.4816 -1.9031 -1.9088
   62MOL0     H 8148   0.566   3.400   3.308  0.1533  2.0703  0.4441
   62MOL0     H 8149   0.325   3.429   3.244  0.2497 -0.9736  0.0754
   62MOL0     H 8150   0.211   3.380   2.788  2.8366  0.5371 -0.2446
   62MOL0     H 8151   0.244   3.546   2.819 -0.2512 -0.2251 -0.4163
   62MOL0     H 8152   0.010   3.551   2.920 -0.7776  1.6104 -2.8146
   62MOL0     H 8153  -0.015   3.374   2.888 -1.1095  0.0557 -1.3019
   62MOL0     H 8154   0.026   3.411   2.650  2.1207  1.7761 -0.7372
   62MOL0     H 8155   0.044   3.584   2.677 -2.8477  1.3243 -0.3878
   62MOL0     H 8156  -0.216   3.442   2.777 -0.3051  1.1145  0.7670
   62MOL0     H 8157  -0.182   3.608   2.735  5.6723  1.5977  2.2761
   62MOL0     H 8158  -0.157   3.377   2.524  1.3510  0.5995 -1.7053
   62MOL0     H 8159  -0.157   3.557   2.498 -0.3140  0.7542  1.2483
   62MOL0     H 8160  -0.392   3.578   2.557 -0.3936  0.7111 -2.7395
   62MOL0     H 8161  -0.403   3.403   2.577 -0.9365 -1.2254 -1.8576
   62MOL0     H 8162  -0.449   3.547   2.353  0.2315  1.1950  1.5519
   62MOL0     H 8163  -0.290   3.480   2.313  0.0922  0.1778  0.4749
   62MOL0     H 8164  -0.476   3.340   2.221  0.7977 -0.9567 -0.0010
   62MOL0     H 8165  -0.534   3.310   2.374 -0.0760  3.0103  1.7846
   62MOL0     H 8166   0.466   3.499   2.836  0.3623 -2.0389 -0.0269
   62MOL0     H 8167   0.677   3.447   2.903 -1.0300 -0.4053 -0.1168
   62MOL0     H 8168   0.942   3.293   3.334 -3.2918  2.6455 -2.2713
   62MOL0     H 8169   1.177   3.204   3.349  2.0809  1.7257  1.9041
   62MOL0     H 8170   3.112   3.371   3.546  2.0663  0.4809  1.9919
   62MOL0     H 8171   3.328   3.305   3.634  2.0193 -1.1564 -0.9016
   62MOL0     H 8172   3.442   2.778   3.965  1.2112 -1.4291 -1.4115
   62MOL0     H 8173   3.642   2.739   4.100 -2.2774  0.9312  1.4309
   62MOL0     H 8174   3.998   2.765   4.186 -0.3631 -1.0024  3.1203
   62MOL0     H 8175   3.844   2.712   4.211  0.8857 -0.6141 -1.1311
   62MOL0     H 8176   3.821   2.919   4.367 -0.0841  0.2809  0.5609
   62MOL0     H 8177   3.936   2.798   4.415 -0.6190 -0.5004 -0.5790
   62MOL0     H 8178   4.013   3.042   4.435  0.3445  0.9703 -1.1755
   62MOL0     H 8179   4.022   3.049   4.256  3.3450  1.3905  1.2380
   62MOL0     H 8180   4.188   2.890   4.460  0.7096  0.0849 -0.5123
   62MOL0     H 8181   4.184   2.851   4.286  0.1402 -1.5019  2.1502
   62MOL0     H 8182   4.383   3.224   4.319  0.1053  0.9889 -2.6535
   62MOL0     H 8183   3.842   3.081   3.923 -0.1838  1.2831 -0.3313
   62MOL0     H 8184   3.650   3.126   3.785  0.7590 -1.4331 -1.5665
   63MOL0     O 8185   7.663   0.156   6.485  0.3648 -0.6234 -0.1229
   63MOL0     C 8186   7.605   0.075   6.554  0.0551 -0.5541 -0.2434
   63MOL0     O 8187   7.629  -0.059   6.564  0.3393  0.5724 -0.6547
   63MOL0     C 8188   7.737  -0.132   6.508  1.2847  0.0244 -0.3707
   63MOL0     C 8189   7.718  -0.272   6.503 -0.3248 -0.4811  0.0421
   63MOL0     C 8190   7.813  -0.354   6.441  0.0074  0.2203 -0.5537
   63MOL0     C 8191   7.925  -0.301   6.374  0.5849 -0.1502  0.4627
   63MOL0     O 8192   8.019  -0.367   6.294  0.3748  0.2836  0.7348
   63MOL0     C 8193   7.971  -0.491   6.248 -0.5976  0.1659  1.0975
   63MOL0     C 8194   8.046  -0.530   6.118  0.3849  0.5449  0.3238
   63MOL0     C 8195   8.173  -0.626   6.122 -0.3435 -0.5787 -0.2218
   63MOL0     C 8196   8.287  -0.555   6.200  0.2384  0.3752 -0.2506
   63MOL0     C 8197   8.407  -0.640   6.213  0.5619  0.6603  0.4252
   63MOL0     C 8198   8.538  -0.578   6.280 -0.9221 -0.4581  0.7527
   63MOL0     C 8199   8.518  -0.575   6.439 -0.2379 -0.1867 -0.0726
   63MOL0     C 8200   8.597  -0.690   6.509  0.3493  0.4425 -0.0277
   63MOL0     N 8201   8.552  -0.823   6.466  0.8858  0.0058 -0.5822
   63MOL0     C 8202   8.428  -0.881   6.500  0.1012  0.5508 -0.1810
   63MOL0     C 8203   8.434  -1.014   6.448  0.0921  0.3188 -0.2524
   63MOL0     C 8204   8.322  -1.112   6.446  0.0484  0.5388 -0.8016
   63MOL0     C 8205   8.241  -1.077   6.318  0.3215 -0.8295 -0.0185
   63MOL0     C 8206   8.122  -1.179   6.302 -0.7122 -0.4597 -0.0755
   63MOL0     C 8207   7.990  -1.124   6.334  0.4263  0.0407  0.2463
   63MOL0     O 8208   7.956  -1.018   6.236 -0.0474  0.5821  0.2092
   63MOL0     C 8209   7.847  -0.944   6.273 -0.1192  0.4501  0.8018
   63MOL0     C 8210   7.858  -0.841   6.366 -0.0947 -0.0340  0.1818
   63MOL0     C 8211   7.744  -0.763   6.395 -0.9081  0.3152 -0.4359
   63MOL0     C 8212   7.623  -0.789   6.323 -0.8941 -0.2021  0.6392
   63MOL0     C 8213   7.506  -0.707   6.340 -0.4691 -0.6066 -0.3503
   63MOL0     O 8214   7.434  -0.682   6.231  0.0973  1.0513 -0.1433
   63MOL0     C 8215   7.310  -0.630   6.242 -0.1337  0.7586  0.3672
   63MOL0     C 8216   7.200  -0.691   6.182  0.2000  0.0511 -0.1847
   63MOL0     C 8217   7.072  -0.641   6.195  0.4590  0.9477  1.2107
   63MOL0     C 8218   7.050  -0.528   6.275 -0.2980  0.1101 -0.3606
   63MOL0     O 8219   6.916  -0.497   6.273 -0.1826 -0.6941 -0.1752
   63MOL0     C 8220   6.873  -0.416   6.379 -0.2803 -0.0811  0.1839
   63MOL0     C 8221   6.713  -0.388   6.380 -0.0826  0.3147  0.3008
   63MOL0     C 8222   6.647  -0.369   6.508 -0.0811 -0.4495 -0.1423
   63MOL0     C 8223   6.489  -0.366   6.504 -0.7104  0.3611  0.3802
   63MOL0     C 8224   6.449  -0.383   6.647 -0.1997 -0.6875 -0.1052
   63MOL0     C 8225   6.298  -0.423   6.657 -0.0744  0.6275  1.2592
   63MOL0     C 8226   6.246  -0.421   6.798  0.1686  0.5986  0.2519
   63MOL0     C 8227   6.102  -0.446   6.808 -0.5778 -0.0014 -0.0035
   63MOL0    Cl 8228   6.055  -0.618   6.788  0.4150  0.2358  0.1875
   63MOL0     C 8229   7.163  -0.465   6.338 -0.6161  0.8402  0.1932
   63MOL0     C 8230   7.285  -0.520   6.322 -0.3629 -0.2881 -1.2428
   63MOL0     O 8231   7.477  -0.671   6.454  0.2666  0.1007  0.0441
   63MOL0     C 8232   7.618  -0.882   6.214  0.5584 -0.0723 -0.2675
   63MOL0     C 8233   7.731  -0.959   6.197  0.4199  0.3408  0.5024
   63MOL0     N 8234   8.556  -1.015   6.383 -0.0688 -0.1371  0.0812
   63MOL0     N 8235   8.621  -0.907   6.385  0.4064 -0.3998 -0.4369
   63MOL0     C 8236   7.939  -0.161   6.381 -0.3856 -0.1463  0.6317
   63MOL0     C 8237   7.856  -0.080   6.457 -0.7114  0.3494 -0.1074
   63MOL0     C 8238   7.495   0.132   6.637 -0.8239 -0.3903  1.2823
   63MOL0     C 8239   7.454   0.074   6.758 -0.3163 -0.0331  0.1908
   63MOL0     C 8240   7.341   0.125   6.827 -0.5770 -0.9668  0.2150
   63MOL0     C 8241   7.278   0.245   6.784 -1.2861 -0.4666  0.3766
   63MOL0     O 8242   7.176   0.306   6.849  0.2097 -0.6205 -0.2104
   63MOL0     C 8243   7.114   0.223   6.951 -0.1214 -0.9647  1.1210
   63MOL0     C 8244   6.981   0.279   6.996  1.0722 -0.5803  0.4443
   63MOL0     C 8245   6.977   0.399   7.087  0.5268 -0.5979 -0.0540
   63MOL0     C 8246   6.839   0.468   7.098 -0.3779  0.3562  0.0336
   63MOL0     C 8247   6.814   0.536   6.966 -0.3659 -0.2279  0.8820
   63MOL0     C 8248   6.799   0.594   6.859  0.3576  0.2026  0.2598
   63MOL0     C 8249   7.317   0.302   6.667  0.6289  1.1398 -0.4272
   63MOL0     C 8250   7.422   0.248   6.593 -0.2895 -0.5863  1.0872
   63MOL0     H 8251   7.622  -0.312   6.533  0.5869 -1.7425  1.4993
   63MOL0     H 8252   7.794  -0.460   6.455 -0.1796  0.2567 -0.5216
   63MOL0     H 8253   7.865  -0.502   6.223 -0.0879  0.2718 -1.3518
   63MOL0     H 8254   7.986  -0.564   6.328  3.0797 -0.8521 -0.3109
   63MOL0     H 8255   8.053  -0.435   6.065 -0.0664  2.5093  3.4760
   63MOL0     H 8256   7.977  -0.587   6.054  0.1052  3.3079 -2.0038
   63MOL0     H 8257   8.215  -0.651   6.024  1.3759  0.0486  0.3131
   63MOL0     H 8258   8.147  -0.724   6.163 -1.0325 -0.6523 -0.8259
   63MOL0     H 8259   8.319  -0.460   6.157  0.7037  1.2166  1.8697
   63MOL0     H 8260   8.260  -0.537   6.304  1.5936 -0.6876  0.3157
   63MOL0     H 8261   8.438  -0.650   6.108  0.9803 -0.4976  0.6497
   63MOL0     H 8262   8.388  -0.736   6.261 -1.6006 -0.3317 -2.1899
   63MOL0     H 8263   8.553  -0.477   6.241  1.5390 -0.2599  1.9992
   63MOL0     H 8264   8.619  -0.640   6.239 -0.0523  1.7742 -1.1386
   63MOL0     H 8265   8.561  -0.484   6.484 -2.0766  0.6215  0.1368
   63MOL0     H 8266   8.413  -0.587   6.469  0.0065  1.5790  1.6817
   63MOL0     H 8267   8.590  -0.681   6.618 -2.6559  0.0404 -0.1242
   63MOL0     H 8268   8.701  -0.688   6.473  0.3462 -0.6808 -0.1273
   63MOL0     H 8269   8.345  -0.836   6.553 -0.4435 -1.9759  1.2992
   63MOL0     H 8270   8.255  -1.101   6.531  1.3348  1.6686  0.1021
   63MOL0     H 8271   8.355  -1.216   6.456 -1.4480  0.2059  1.1605
   63MOL0     H 8272   8.310  -1.081   6.233  1.7512  2.3698  0.8357
   63MOL0     H 8273   8.199  -0.977   6.334  1.5266 -0.6077  2.1260
   63MOL0     H 8274   8.120  -1.215   6.199  0.8434  1.9107 -1.0158
   63MOL0     H 8275   8.133  -1.261   6.374 -0.6442 -0.6278 -0.2735
   63MOL0     H 8276   7.997  -1.090   6.438  2.3978 -0.4202  0.3066
   63MOL0     H 8277   7.913  -1.202   6.331 -1.9599  2.1202  2.3169
   63MOL0     H 8278   7.953  -0.830   6.417 -1.1780  0.5965  2.1996
   63MOL0     H 8279   7.746  -0.687   6.472  0.4844  1.1500 -1.2537
   63MOL0     H 8280   7.211  -0.777   6.118  2.5318  1.0050 -1.1869
   63MOL0     H 8281   6.994  -0.692   6.139  1.7314  0.2615 -0.0160
   63MOL0     H 8282   6.921  -0.318   6.372  0.7338 -0.5539  0.3058
   63MOL0     H 8283   6.894  -0.473   6.470 -0.5038 -0.0478  0.2570
   63MOL0     H 8284   6.668  -0.478   6.336 -0.4611  0.1903  0.9264
   63MOL0     H 8285   6.683  -0.312   6.308 -0.7852  0.4117  0.6860
   63MOL0     H 8286   6.676  -0.273   6.552 -0.4324 -0.1267 -0.6073
   63MOL0     H 8287   6.674  -0.446   6.582  0.4493 -0.6775 -0.5627
   63MOL0     H 8288   6.456  -0.272   6.459 -1.7288 -0.8510 -1.5891
   63MOL0     H 8289   6.452  -0.445   6.436  6.0358 -0.3010 -3.3689
   63MOL0     H 8290   6.468  -0.293   6.706 -1.0626 -1.4405  1.3773
   63MOL0     H 8291   6.512  -0.454   6.703  0.2286  1.2392  2.0362
   63MOL0     H 8292   6.295  -0.523   6.612 -3.4385  0.9325  0.5148
   63MOL0     H 8293   6.235  -0.354   6.600 -0.0653  1.1266  1.8500
   63MOL0     H 8294   6.292  -0.507   6.847 -1.1437 -1.4450 -1.9326
   63MOL0     H 8295   6.271  -0.321   6.835  1.4120  1.1411 -1.8773
   63MOL0     H 8296   6.058  -0.380   6.733  0.4275  1.9276  1.0255
   63MOL0     H 8297   6.066  -0.423   6.909  0.7922  0.6820  0.3530
   63MOL0     H 8298   7.160  -0.370   6.389  1.4836  0.9761  0.1426
   63MOL0     H 8299   7.369  -0.475   6.374 -0.8076 -1.0896  0.2334
   63MOL0     H 8300   7.522  -0.904   6.171  0.5822 -1.3651  0.2877
   63MOL0     H 8301   7.721  -1.038   6.123  1.6452  0.5365  0.1010
   63MOL0     H 8302   8.027  -0.119   6.333 -0.1039 -1.8960 -0.4613
   63MOL0     H 8303   7.866   0.028   6.452  0.9351  0.1930 -0.5107
   63MOL0     H 8304   7.515   0.003   6.812  3.0613  1.4605 -1.3470
   63MOL0     H 8305   7.312   0.079   6.921 -1.4393  0.0020  0.4425
   63MOL0     H 8306   7.174   0.201   7.040  2.7240  0.5956 -0.3017
   63MOL0     H 8307   7.092   0.125   6.906 -2.1423  0.3184 -0.8998
   63MOL0     H 8308   6.920   0.291   6.906  1.9052 -1.5219 -0.2644
   63MOL0     H 8309   6.923   0.195   7.034 -0.1969 -1.1285 -2.4806
   63MOL0     H 8310   7.055   0.469   7.056  3.0156 -1.6206  3.2822
   63MOL0     H 8311   7.006   0.358   7.184  0.1047  1.0138  0.7982
   63MOL0     H 8312   6.764   0.392   7.121  0.8917 -1.0360 -0.2237
   63MOL0     H 8313   6.835   0.546   7.174 -0.0211  0.8478 -0.4465
   63MOL0     H 8314   6.787   0.648   6.767  3.9034  0.6635 -0.0426
   63MOL0     H 8315   7.257   0.387   6.636 -1.5818 -0.8035 -1.8218
   63MOL0     H 8316   7.437   0.297   6.497 -1.5308  1.3641  1.8267
   64MOL0     O 8317   9.650   5.346   5.013 -0.0298 -0.5405  0.6332
   64MOL0     C 8318   9.702   5.445   5.058  0.0099 -0.3186 -0.4753
   64MOL0     O 8319   9.663   5.575   5.025 -0.1363 -0.4489 -0.1598
   64MOL0     C 8320   9.569   5.585   4.925  0.2493 -0.2819 -0.0877
   64MOL0     C 8321   9.591   5.581   4.786 -0.2348 -0.2890  0.2587
   64MOL0     C 8322   9.494   5.603   4.694 -0.0901 -1.2158 -0.1414
   64MOL0     C 8323   9.365   5.625   4.741  0.7518  0.4243  0.1705
   64MOL0     O 8324   9.266   5.629   4.641  0.1995 -0.1092  0.2911
   64MOL0     C 8325   9.146   5.548   4.647 -0.7524 -0.6691 -0.4542
   64MOL0     C 8326   9.092   5.523   4.513 -1.1164 -0.3988  0.0479
   64MOL0     C 8327   8.961   5.439   4.502  0.3416 -0.0954  0.7381
   64MOL0     C 8328   8.956   5.336   4.605  0.2728 -0.0271 -0.6270
   64MOL0     C 8329   8.835   5.247   4.579  0.1774 -0.5581  0.2353
   64MOL0     C 8330   8.822   5.113   4.639  0.2525 -0.5741 -0.2879
   64MOL0     C 8331   8.709   5.027   4.582  0.2219 -0.0433  0.1545
   64MOL0     C 8332   8.577   5.107   4.555  0.0668  0.3518  0.0060
   64MOL0     N 8333   8.470   5.027   4.493 -0.2089  0.9134 -0.0828
   64MOL0     C 8334   8.422   4.901   4.538  0.7293  0.8171 -0.5269
   64MOL0     C 8335   8.345   4.866   4.434  0.3378 -0.3152 -0.1305
   64MOL0     C 8336   8.246   4.760   4.440  0.2151 -0.7913  0.3963
   64MOL0     C 8337   8.108   4.823   4.440 -1.3490 -0.0448  0.2150
   64MOL0     C 8338   8.006   4.717   4.391 -0.1192  0.0327 -0.0364
   64MOL0     C 8339   7.945   4.627   4.500 -0.7584  1.0470 -0.2379
   64MOL0     O 8340   7.911   4.502   4.435  0.7796  0.3993 -0.7297
   64MOL0     C 8341   7.782   4.457   4.425  0.4737 -0.7662  0.8105
   64MOL0     C 8342   7.672   4.499   4.506 -0.4050  0.6962 -0.4388
   64MOL0     C 8343   7.541   4.446   4.486 -0.3492  0.7895 -0.1205
   64MOL0     C 8344   7.520   4.361   4.375 -0.0355  0.6432 -0.5824
   64MOL0     C 8345   7.378   4.308   4.359  0.2208  0.3846  0.4548
   64MOL0     O 8346   7.278   4.377   4.411  0.1251 -0.1332 -0.2279
   64MOL0     C 8347   7.145   4.347   4.386  0.1108 -0.2884 -0.5514
   64MOL0     C 8348   7.069   4.255   4.461 -0.1786  0.0785 -0.1374
   64MOL0     C 8349   6.931   4.259   4.456 -0.6908 -1.0872  0.3906
   64MOL0     C 8350   6.866   4.344   4.379  0.2661 -0.0891 -0.0990
   64MOL0     O 8351   6.734   4.327   4.369  0.4035  0.7625  0.8473
   64MOL0     C 8352   6.672   4.358   4.242  0.2121 -0.1234  0.3402
   64MOL0     C 8353   6.537   4.278   4.231  0.7672  0.2591 -0.4368
   64MOL0     C 8354   6.447   4.348   4.127  0.1436 -0.0669 -0.1278
   64MOL0     C 8355   6.309   4.276   4.141 -0.3423  0.7829 -0.0383
   64MOL0     C 8356   6.266   4.158   4.058 -1.5229  0.1475  0.2699
   64MOL0     C 8357   6.139   4.092   4.112  0.4561 -0.4120 -0.6915
   64MOL0     C 8358   6.091   3.984   4.021  0.3395 -0.1712 -0.4441
   64MOL0     C 8359   6.017   4.039   3.894 -0.8829  0.0277  0.3641
   64MOL0    Cl 8360   5.866   4.141   3.919  0.0549 -0.1344  0.0918
   64MOL0     C 8361   6.945   4.420   4.293 -0.4051 -0.4534  0.7186
   64MOL0     C 8362   7.081   4.431   4.301  0.1260  1.1760  0.3593
   64MOL0     O 8363   7.364   4.198   4.306 -0.1794 -0.1146  0.1150
   64MOL0     C 8364   7.622   4.323   4.285  0.2418 -0.6214  0.4124
   64MOL0     C 8365   7.748   4.375   4.313  0.5903 -0.2000 -0.2182
   64MOL0     N 8366   8.352   4.957   4.329  0.4758 -0.0715 -0.0528
   64MOL0     N 8367   8.423   5.059   4.374 -0.3354  0.4713  0.9768
   64MOL0     C 8368   9.336   5.636   4.878 -0.6370 -0.4287 -0.3080
   64MOL0     C 8369   9.443   5.616   4.972 -0.4157 -0.7027 -0.8455
   64MOL0     C 8370   9.825   5.419   5.127 -0.4438  0.9642 -0.4189
   64MOL0     C 8371   9.874   5.282   5.154  0.6034 -0.7455  0.4541
   64MOL0     C 8372   9.991   5.265   5.221 -0.9529 -0.2159 -0.6279
   64MOL0     C 8373  10.079   5.375   5.246 -0.0792 -0.1334 -1.0570
   64MOL0     O 8374  10.201   5.369   5.303  0.2136 -0.1174  0.6808
   64MOL0     C 8375  10.264   5.241   5.321  0.3434 -0.1596 -0.3050
   64MOL0     C 8376  10.218   5.163   5.448  0.1267 -0.1662  0.2110
   64MOL0     C 8377  10.288   5.192   5.586 -0.2214  0.4314  0.5916
   64MOL0     C 8378  10.266   5.341   5.624  0.1588 -0.0920 -0.6324
   64MOL0     C 8379  10.291   5.349   5.765 -0.6007 -0.1291  0.5117
   64MOL0     C 8380  10.308   5.354   5.887  0.0338 -0.9765  0.0458
   64MOL0     C 8381  10.029   5.505   5.233  0.1770 -0.2366  0.2253
   64MOL0     C 8382   9.902   5.530   5.175  0.6221 -0.4151 -1.0504
   64MOL0     H 8383   9.687   5.564   4.737 -0.8415 -3.5128 -0.0443
   64MOL0     H 8384   9.529   5.582   4.593 -2.9825 -3.4577 -0.7917
   64MOL0     H 8385   9.062   5.587   4.706 -0.0458  1.5973 -0.8474
   64MOL0     H 8386   9.167   5.446   4.682  0.5943  0.5135  2.5399
   64MOL0     H 8387   9.176   5.483   4.456 -2.3359 -2.4888 -0.3845
   64MOL0     H 8388   9.090   5.624   4.472  5.0298 -1.0820 -3.1054
   64MOL0     H 8389   8.956   5.395   4.402  0.7740 -0.0815  0.7084
   64MOL0     H 8390   8.883   5.513   4.522  0.0545 -0.2032  0.0342
   64MOL0     H 8391   9.043   5.269   4.603  1.6203  1.6286 -3.1796
   64MOL0     H 8392   8.944   5.386   4.701 -3.5840 -0.3863 -0.7892
   64MOL0     H 8393   8.845   5.233   4.471 -1.4125  2.1342 -0.3572
   64MOL0     H 8394   8.747   5.307   4.605  0.7951  1.0027 -1.1494
   64MOL0     H 8395   8.808   5.127   4.746  1.2225  0.1443 -0.2400
   64MOL0     H 8396   8.915   5.057   4.625 -0.5450 -2.2416  0.6783
   64MOL0     H 8397   8.748   4.989   4.487 -1.9249 -0.9001 -0.4624
   64MOL0     H 8398   8.697   4.939   4.646  0.2904  0.3828  0.7501
   64MOL0     H 8399   8.592   5.195   4.491  0.1433  0.0085 -0.4575
   64MOL0     H 8400   8.535   5.142   4.650 -1.7452  1.8311 -1.2699
   64MOL0     H 8401   8.433   4.848   4.632 -0.1573  1.8234  0.1616
   64MOL0     H 8402   8.262   4.693   4.525  1.5131 -0.0004  0.8114
   64MOL0     H 8403   8.266   4.695   4.354 -1.2105 -1.2568  0.3876
   64MOL0     H 8404   8.112   4.909   4.373 -0.9570  0.2474  0.6083
   64MOL0     H 8405   8.076   4.861   4.537  1.5506  0.0490  1.2231
   64MOL0     H 8406   7.920   4.781   4.371  0.5594  1.9262  2.5482
   64MOL0     H 8407   8.044   4.662   4.304  1.0618  1.2611 -0.3280
   64MOL0     H 8408   7.864   4.681   4.550 -1.6750  1.4818 -2.1106
   64MOL0     H 8409   8.014   4.591   4.578 -0.8520  0.9289 -0.2086
   64MOL0     H 8410   7.692   4.566   4.588  0.9947 -2.8657  2.4247
   64MOL0     H 8411   7.454   4.492   4.532  0.1631  4.1874 -2.2326
   64MOL0     H 8412   7.120   4.193   4.534  0.0469  2.4390  1.8449
   64MOL0     H 8413   6.874   4.193   4.520 -1.7844 -2.9723 -2.3084
   64MOL0     H 8414   6.727   4.321   4.155 -1.8333  0.0216 -1.0879
   64MOL0     H 8415   6.661   4.467   4.238  0.2962 -0.1447 -1.7354
   64MOL0     H 8416   6.494   4.279   4.331 -1.2468  1.7257 -1.2554
   64MOL0     H 8417   6.567   4.175   4.213 -1.3572 -0.1338 -2.0637
   64MOL0     H 8418   6.489   4.320   4.031  0.7422 -2.3064  0.7279
   64MOL0     H 8419   6.435   4.454   4.151 -0.9605  0.6841 -3.5224
   64MOL0     H 8420   6.283   4.250   4.244  0.6018 -0.8889 -0.2010
   64MOL0     H 8421   6.234   4.350   4.109  1.1773  2.4208  0.0214
   64MOL0     H 8422   6.350   4.088   4.047 -1.5591  0.2346 -0.6271
   64MOL0     H 8423   6.247   4.199   3.959  0.1265 -1.2545 -0.6840
   64MOL0     H 8424   6.063   4.171   4.110  0.9075  0.0260 -0.9584
   64MOL0     H 8425   6.143   4.043   4.209  1.4052  0.7743 -0.1041
   64MOL0     H 8426   6.170   3.916   3.989 -1.2563 -2.0186 -0.6261
   64MOL0     H 8427   6.011   3.935   4.077 -0.5816  0.6931 -0.9849
   64MOL0     H 8428   5.993   3.954   3.830  1.2232  0.2789 -0.8516
   64MOL0     H 8429   6.090   4.098   3.837 -0.6963 -2.2979 -1.9860
   64MOL0     H 8430   6.917   4.490   4.215  0.4456  0.3191  1.0935
   64MOL0     H 8431   7.134   4.508   4.246 -2.8705  1.3024 -2.6968
   64MOL0     H 8432   7.602   4.258   4.200 -0.4359 -0.6501  0.5801
   64MOL0     H 8433   7.834   4.346   4.252  1.6124 -1.5636  1.7481
   64MOL0     H 8434   9.240   5.659   4.922  0.7994  0.7669  2.4212
   64MOL0     H 8435   9.424   5.632   5.077 -0.7838  0.1370 -1.0348
   64MOL0     H 8436   9.806   5.200   5.132  0.0365 -0.0544 -0.4594
   64MOL0     H 8437  10.018   5.164   5.251  2.0838  0.7945  0.4089
   64MOL0     H 8438  10.370   5.265   5.332  0.2193  0.6788 -0.8675
   64MOL0     H 8439  10.244   5.171   5.239  0.8294  0.8885 -1.3510
   64MOL0     H 8440  10.111   5.162   5.472  0.6462  0.2906  2.9001
   64MOL0     H 8441  10.238   5.061   5.415  1.2484  0.3476 -0.7366
   64MOL0     H 8442  10.396   5.177   5.576 -0.4783  0.1475 -3.0072
   64MOL0     H 8443  10.243   5.124   5.659 -0.8123  2.3089  2.0529
   64MOL0     H 8444  10.345   5.393   5.569  1.2292  0.1612  1.0926
   64MOL0     H 8445  10.165   5.370   5.592  0.9311  0.5725 -2.6555
   64MOL0     H 8446  10.330   5.344   5.991  1.5477  0.5488 -0.0878
   64MOL0     H 8447  10.104   5.578   5.259 -1.6091  1.4820  0.7762
   64MOL0     H 8448   9.872   5.634   5.184 -1.0491 -1.0368  2.1458
   65MOL0     O 8449   3.504   1.433   3.463 -1.2448  0.1499 -0.1821
   65MOL0     C 8450   3.537   1.540   3.508  0.7253 -0.1359 -0.0838
   65MOL0     O 8451   3.452   1.642   3.518 -0.2267 -0.6173 -0.0346
   65MOL0     C 8452   3.324   1.645   3.477 -0.0319 -0.5172  0.8149
   65MOL0     C 8453   3.269   1.564   3.378  1.0453  0.0649 -0.2162
   65MOL0     C 8454   3.137   1.580   3.342  0.3299 -0.6589  0.0003
   65MOL0     C 8455   3.059   1.692   3.391 -1.2718  0.1345 -0.2840
   65MOL0     O 8456   2.928   1.712   3.366  0.5165  0.6033  0.3080
   65MOL0     C 8457   2.874   1.640   3.248  0.1219  0.8255 -0.3401
   65MOL0     C 8458   2.744   1.702   3.206  1.1739 -0.1438  0.2364
   65MOL0     C 8459   2.622   1.647   3.293 -0.6293  0.5763 -0.1506
   65MOL0     C 8460   2.568   1.511   3.246 -0.7405  0.0364  0.0629
   65MOL0     C 8461   2.480   1.455   3.359  0.3751 -0.1280 -0.2427
   65MOL0     C 8462   2.365   1.545   3.402  0.0469  0.1822  0.3382
   65MOL0     C 8463   2.238   1.530   3.313  1.0427 -0.4037  0.0294
   65MOL0     C 8464   2.120   1.571   3.393  0.5255  0.3263 -0.0833
   65MOL0     N 8465   1.994   1.586   3.314 -0.2197 -0.4503  0.5840
   65MOL0     C 8466   1.937   1.685   3.234 -0.4881  0.3003 -0.0442
   65MOL0     C 8467   1.833   1.627   3.174 -0.1929  0.4185 -0.2356
   65MOL0     C 8468   1.743   1.682   3.068 -0.4202  0.7310  0.7709
   65MOL0     C 8469   1.714   1.837   3.091 -0.7746 -0.3347  0.1304
   65MOL0     C 8470   1.598   1.886   3.007 -0.5241 -0.6724 -0.6195
   65MOL0     C 8471   1.561   2.031   3.041 -0.4340 -0.2969 -0.0528
   65MOL0     O 8472   1.455   2.090   2.957  0.5114  0.0179 -0.6748
   65MOL0     C 8473   1.326   2.044   2.970 -0.0977 -0.3005 -0.1400
   65MOL0     C 8474   1.286   1.967   3.081 -0.1530  0.7989 -0.1142
   65MOL0     C 8475   1.152   1.920   3.093 -0.0748 -0.8659  0.2115
   65MOL0     C 8476   1.055   1.967   3.007  0.5425 -0.3077  0.4535
   65MOL0     C 8477   0.906   1.947   3.041  0.0858  0.4294 -0.4437
   65MOL0     O 8478   0.818   1.966   2.937 -0.4237  0.2498 -0.7231
   65MOL0     C 8479   0.685   2.002   2.964  0.4404 -0.2675 -0.4365
   65MOL0     C 8480   0.619   2.113   2.895  0.2382  0.4871 -0.0207
   65MOL0     C 8481   0.483   2.135   2.909  0.4401  1.3432 -0.7312
   65MOL0     C 8482   0.406   2.069   3.000 -0.0291  0.0357 -0.4700
   65MOL0     O 8483   0.287   2.129   3.029  0.6100 -0.3394  0.9885
   65MOL0     C 8484   0.197   2.045   3.097  0.0759 -0.1156  0.8702
   65MOL0     C 8485   0.054   2.107   3.138 -0.3976 -0.3579  0.6851
   65MOL0     C 8486  -0.035   2.116   3.011  0.0193  0.2076 -0.2523
   65MOL0     C 8487  -0.169   2.179   3.043  0.5603  0.8020  0.6287
   65MOL0     C 8488  -0.252   2.092   3.149 -0.0334 -0.5189 -0.1331
   65MOL0     C 8489  -0.401   2.102   3.121  0.2104  0.8803 -0.0537
   65MOL0     C 8490  -0.485   2.028   3.227 -0.6492 -0.5537  0.2762
   65MOL0     C 8491  -0.435   1.894   3.285 -0.1419  0.4734 -0.5414
   65MOL0    Cl 8492  -0.508   1.883   3.441  0.7081  0.3425 -0.6560
   65MOL0     C 8493   0.468   1.964   3.082 -0.2427  0.0782  0.3361
   65MOL0     C 8494   0.604   1.942   3.066  0.0785 -0.5294 -0.3626
   65MOL0     O 8495   0.880   1.914   3.152  0.2475  0.2412  0.3091
   65MOL0     C 8496   1.090   2.052   2.903 -0.4221  0.2052 -0.9854
   65MOL0     C 8497   1.228   2.086   2.883 -0.4672  0.4773  0.4020
   65MOL0     N 8498   1.813   1.496   3.225  0.3741  0.2322 -0.4752
   65MOL0     N 8499   1.908   1.477   3.300  0.2652  0.5369  0.3511
   65MOL0     C 8500   3.126   1.777   3.490  0.1610  0.6167  0.3527
   65MOL0     C 8501   3.256   1.750   3.526 -0.0915  0.7931 -1.0297
   65MOL0     C 8502   3.676   1.569   3.560 -0.2486  1.4048  0.2031
   65MOL0     C 8503   3.757   1.453   3.587  0.3180  0.0984  0.0381
   65MOL0     C 8504   3.894   1.465   3.623  0.2514 -0.3379 -1.1318
   65MOL0     C 8505   3.953   1.582   3.638 -0.0233 -0.5067 -0.3169
   65MOL0     O 8506   4.071   1.613   3.689  0.0438 -0.8240 -0.2655
   65MOL0     C 8507   4.172   1.511   3.697 -0.5488  1.1587  0.0457
   65MOL0     C 8508   4.298   1.567   3.754 -0.1174  0.3601 -0.0917
   65MOL0     C 8509   4.377   1.660   3.654  0.4433 -0.3008  0.6122
   65MOL0     C 8510   4.521   1.654   3.699 -0.3736 -0.9829  0.7965
   65MOL0     C 8511   4.579   1.539   3.630 -0.2218  0.6689 -0.4295
   65MOL0     C 8512   4.629   1.443   3.581  0.1860 -0.1952  0.0406
   65MOL0     C 8513   3.874   1.696   3.613  0.7341  0.0312  0.6010
   65MOL0     C 8514   3.738   1.693   3.577 -0.3000  0.5614 -0.1948
   65MOL0     H 8515   3.314   1.476   3.332 -0.4352 -0.8236 -0.0252
   65MOL0     H 8516   3.104   1.511   3.265  1.9935  1.2481 -2.6005
   65MOL0     H 8517   2.860   1.536   3.280 -1.8413  1.8633  2.5924
   65MOL0     H 8518   2.948   1.654   3.169 -0.2697 -0.5522 -0.9824
   65MOL0     H 8519   2.726   1.686   3.099 -1.4311  0.5145  0.5109
   65MOL0     H 8520   2.730   1.810   3.217 -0.8289 -0.4073  0.7261
   65MOL0     H 8521   2.536   1.712   3.276 -0.5701  0.1123 -2.7611
   65MOL0     H 8522   2.640   1.643   3.400 -1.1232 -1.2225 -0.1028
   65MOL0     H 8523   2.509   1.525   3.155  1.8164  0.6191 -1.6031
   65MOL0     H 8524   2.647   1.438   3.226 -1.1169 -0.5299  0.6087
   65MOL0     H 8525   2.546   1.449   3.445  0.5503  1.7205 -0.2025
   65MOL0     H 8526   2.448   1.354   3.331  0.9541  0.2942 -2.6427
   65MOL0     H 8527   2.395   1.650   3.405 -0.9740  0.5124 -0.1624
   65MOL0     H 8528   2.347   1.523   3.507 -0.5564 -1.2073 -0.0309
   65MOL0     H 8529   2.233   1.602   3.231 -2.9603  1.0447  1.3019
   65MOL0     H 8530   2.225   1.431   3.271  1.3078 -1.4692  2.2864
   65MOL0     H 8531   2.137   1.667   3.444 -1.1616  1.5992 -1.7622
   65MOL0     H 8532   2.098   1.501   3.474 -1.4862  0.8415 -0.1285
   65MOL0     H 8533   1.970   1.787   3.214 -0.7580  0.6096  1.0408
   65MOL0     H 8534   1.653   1.620   3.059  0.3602 -0.1775 -1.4638
   65MOL0     H 8535   1.789   1.674   2.969 -1.1059  1.6869  0.3591
   65MOL0     H 8536   1.807   1.891   3.071 -1.1622  0.2026 -0.2491
   65MOL0     H 8537   1.693   1.852   3.198 -2.0850 -0.5069 -0.0757
   65MOL0     H 8538   1.628   1.875   2.903  3.3418 -1.5211  0.4266
   65MOL0     H 8539   1.516   1.815   3.023 -2.7974  1.5246 -1.6885
   65MOL0     H 8540   1.651   2.093   3.031  0.3176 -1.0611  1.6670
   65MOL0     H 8541   1.535   2.040   3.146 -0.2006 -1.0005  0.0748
   65MOL0     H 8542   1.359   1.927   3.150  2.9417 -0.9976 -3.9879
   65MOL0     H 8543   1.123   1.862   3.179  0.3129 -2.9838 -1.0268
   65MOL0     H 8544   0.681   2.178   2.834 -0.5912  0.9064 -0.4384
   65MOL0     H 8545   0.430   2.223   2.873  0.5539  0.9918 -1.7878
   65MOL0     H 8546   0.241   2.017   3.193 -1.8923  0.4463  2.0094
   65MOL0     H 8547   0.180   1.950   3.045 -2.1494  0.0904  1.1022
   65MOL0     H 8548   0.058   2.208   3.182 -2.1063  0.1363 -0.2188
   65MOL0     H 8549  -0.002   2.041   3.204 -1.0211 -2.5469 -1.8650
   65MOL0     H 8550  -0.063   2.020   2.966 -1.3762  0.2616  0.4524
   65MOL0     H 8551   0.002   2.185   2.934 -0.4072  0.1729 -0.4969
   65MOL0     H 8552  -0.162   2.277   3.090  4.4113  0.1909  1.6873
   65MOL0     H 8553  -0.233   2.183   2.954 -0.8269 -0.7017  1.4840
   65MOL0     H 8554  -0.219   2.127   3.248 -0.1312 -3.0008  0.8532
   65MOL0     H 8555  -0.223   1.987   3.135 -1.7272 -0.8664 -1.2127
   65MOL0     H 8556  -0.430   2.070   3.020  2.4641 -1.5869 -0.0286
   65MOL0     H 8557  -0.427   2.208   3.117  1.2272  1.2727  2.2673
   65MOL0     H 8558  -0.497   2.107   3.302 -0.3461  0.1010 -0.3540
   65MOL0     H 8559  -0.588   2.011   3.193  0.3585 -0.1198 -3.5314
   65MOL0     H 8560  -0.326   1.883   3.294 -0.3042 -3.3827 -1.6379
   65MOL0     H 8561  -0.466   1.804   3.231  0.6625 -0.8732  1.1286
   65MOL0     H 8562   0.425   1.914   3.168 -0.6442  1.1506  0.7830
   65MOL0     H 8563   0.649   1.871   3.135 -1.7786  0.3235  1.8667
   65MOL0     H 8564   1.024   2.111   2.841 -0.7148  1.9247  0.8677
   65MOL0     H 8565   1.248   2.145   2.794 -0.1822  1.4021  1.0676
   65MOL0     H 8566   3.076   1.865   3.530  1.1210  1.1120  0.4922
   65MOL0     H 8567   3.310   1.807   3.601 -0.4153  0.9444 -0.9122
   65MOL0     H 8568   3.719   1.354   3.566 -1.1589  0.7506 -0.4782
   65MOL0     H 8569   3.942   1.370   3.645 -2.7368 -1.2471  2.4800
   65MOL0     H 8570   4.189   1.468   3.598 -1.2105  0.6080  0.1654
   65MOL0     H 8571   4.125   1.439   3.765  0.4643 -1.3425 -1.7470
   65MOL0     H 8572   4.288   1.629   3.844  0.2255  1.7597 -0.9890
   65MOL0     H 8573   4.357   1.482   3.790  1.1285  1.0762 -0.3623
   65MOL0     H 8574   4.334   1.758   3.676 -1.4794 -0.8199 -0.6529
   65MOL0     H 8575   4.358   1.638   3.549 -0.0290 -1.1132  0.8626
   65MOL0     H 8576   4.562   1.740   3.646  0.6100 -1.3338  0.9714
   65MOL0     H 8577   4.538   1.673   3.806  0.0634  2.6494  0.2148
   65MOL0     H 8578   4.681   1.355   3.550 -4.1200 -2.1438 -2.6837
   65MOL0     H 8579   3.919   1.794   3.622 -0.1727  0.5510 -0.2841
   65MOL0     H 8580   3.685   1.786   3.558  0.2440  0.8846 -0.1311
   66MOL0     O 8581   1.180   9.434   1.578 -0.2012  0.0020 -0.2391
   66MOL0     C 8582   1.150   9.467   1.466 -0.3153  0.5654 -0.6741
   66MOL0     O 8583   1.024   9.481   1.419  0.2638 -0.0420  0.3038
   66MOL0     C 8584   0.926   9.408   1.490 -0.1567 -0.0830  0.3406
   66MOL0     C 8585   0.859   9.313   1.427  0.6257  0.1970 -0.0041
   66MOL0     C 8586   0.759   9.253   1.503  0.0835  0.1733  0.3521
   66MOL0     C 8587   0.725   9.283   1.634 -0.8530  0.0958  0.9338
   66MOL0     O 8588   0.603   9.229   1.674  0.3408 -0.1903  0.1226
   66MOL0     C 8589   0.574   9.192   1.808 -0.4188  0.3035  0.6018
   66MOL0     C 8590   0.496   9.302   1.877 -0.0655 -0.3856 -0.1683
   66MOL0     C 8591   0.473   9.272   2.021 -0.5671  0.1494  0.0424
   66MOL0     C 8592   0.369   9.166   2.043  0.5190 -0.1075  0.0542
   66MOL0     C 8593   0.349   9.151   2.190 -0.0562  0.0143  0.2470
   66MOL0     C 8594   0.274   9.029   2.225  0.2927 -0.1532 -0.8009
   66MOL0     C 8595   0.218   9.033   2.360  0.0057  0.0787 -0.3808
   66MOL0     C 8596   0.162   8.903   2.405 -0.3631  0.2287  0.0438
   66MOL0     N 8597   0.029   8.880   2.352 -1.3219  0.7433  1.1579
   66MOL0     C 8598  -0.029   8.751   2.353 -0.4445  0.7505  0.2417
   66MOL0     C 8599  -0.125   8.752   2.255 -0.8381  0.1074 -0.1542
   66MOL0     C 8600  -0.198   8.634   2.210  0.3862  0.3666  0.0793
   66MOL0     C 8601  -0.306   8.600   2.310 -0.1433  0.9714 -0.3541
   66MOL0     C 8602  -0.421   8.707   2.310  0.2556 -0.1101 -0.2874
   66MOL0     C 8603  -0.514   8.697   2.192 -0.3439  0.0645  0.3027
   66MOL0     O 8604  -0.597   8.576   2.182  0.5409  0.3875  0.2045
   66MOL0     C 8605  -0.725   8.570   2.235 -0.3692 -0.0505 -1.0553
   66MOL0     C 8606  -0.819   8.477   2.183 -0.1247  0.7028 -0.3192
   66MOL0     C 8607  -0.952   8.479   2.220 -0.1389 -0.0491  0.4705
   66MOL0     C 8608  -1.006   8.582   2.294  0.2048  0.0419 -0.0167
   66MOL0     C 8609  -1.146   8.605   2.321  0.1698 -0.7355 -0.3989
   66MOL0     O 8610  -1.227   8.504   2.293 -0.4249 -0.2001 -0.1497
   66MOL0     C 8611  -1.355   8.510   2.337 -0.0065 -1.3019  0.4763
   66MOL0     C 8612  -1.395   8.466   2.460 -0.6108 -0.4169  0.0235
   66MOL0     C 8613  -1.532   8.447   2.491 -0.1687  0.1299  0.5731
   66MOL0     C 8614  -1.627   8.497   2.408 -0.7622  0.4117 -0.6891
   66MOL0     O 8615  -1.754   8.485   2.451  0.1288  0.7892 -0.2712
   66MOL0     C 8616  -1.867   8.530   2.384 -0.4661 -0.3413  0.8176
   66MOL0     C 8617  -1.975   8.557   2.486 -0.5881  0.3551  0.0174
   66MOL0     C 8618  -2.045   8.428   2.527 -0.5057 -0.3517  0.0075
   66MOL0     C 8619  -2.141   8.454   2.644 -0.9095 -1.0775  1.3399
   66MOL0     C 8620  -2.228   8.327   2.682  0.0393  0.1585  0.2693
   66MOL0     C 8621  -2.335   8.295   2.581  0.5173  0.1368  0.0319
   66MOL0     C 8622  -2.465   8.230   2.642  0.1282 -0.4430 -0.5340
   66MOL0     C 8623  -2.439   8.135   2.758  1.5968 -0.4595 -0.4190
   66MOL0    Cl 8624  -2.600   8.107   2.829  0.3278 -0.8269 -0.5739
   66MOL0     C 8625  -1.591   8.557   2.286 -0.9421  0.3324  0.0972
   66MOL0     C 8626  -1.454   8.555   2.253  0.0103 -0.5162  0.4729
   66MOL0     O 8627  -1.177   8.711   2.384 -0.3830 -0.5232  0.1299
   66MOL0     C 8628  -0.910   8.669   2.364  0.3308  0.7042 -0.5361
   66MOL0     C 8629  -0.776   8.660   2.327  1.2053 -0.0773 -0.8213
   66MOL0     N 8630  -0.135   8.875   2.204  0.5708  0.1671  0.1412
   66MOL0     N 8631  -0.043   8.950   2.257 -0.0821 -0.7572 -0.4782
   66MOL0     C 8632   0.799   9.380   1.699 -0.2975  0.4490  0.3603
   66MOL0     C 8633   0.896   9.442   1.621  0.1625 -0.2801  0.5874
   66MOL0     C 8634   1.264   9.488   1.373 -0.2289  0.6671  1.1225
   66MOL0     C 8635   1.397   9.490   1.427 -0.8919  0.5754 -0.7824
   66MOL0     C 8636   1.505   9.521   1.335 -0.2870  1.2777  0.6383
   66MOL0     C 8637   1.474   9.546   1.200 -0.4041  0.5253  1.2690
   66MOL0     O 8638   1.579   9.566   1.114 -0.4657 -0.1027 -0.2456
   66MOL0     C 8639   1.562   9.609   0.978 -0.8156 -0.6425 -0.2307
   66MOL0     C 8640   1.695   9.607   0.889  0.7938 -0.7741  0.9262
   66MOL0     C 8641   1.811   9.674   0.964 -0.3300  0.6830  0.1949
   66MOL0     C 8642   1.935   9.696   0.871 -0.1461  0.6757 -0.5748
   66MOL0     C 8643   2.043   9.735   0.961 -0.0934 -0.0180  1.1734
   66MOL0     C 8644   2.122   9.790   1.033  0.3370  0.6220 -0.2210
   66MOL0     C 8645   1.347   9.532   1.150 -0.2261 -0.3687 -0.9065
   66MOL0     C 8646   1.240   9.503   1.233  0.1554  1.1564  0.1864
   66MOL0     H 8647   0.889   9.281   1.328  2.3663  0.2549  0.4726
   66MOL0     H 8648   0.708   9.173   1.450  0.6433  0.7409 -1.0927
   66MOL0     H 8649   0.665   9.164   1.862 -0.5086  1.8602  1.6328
   66MOL0     H 8650   0.502   9.109   1.802  0.9966 -0.8610 -1.3373
   66MOL0     H 8651   0.401   9.312   1.823 -0.4713  0.2496  0.6383
   66MOL0     H 8652   0.569   9.383   1.875  1.2572 -1.5067 -2.4799
   66MOL0     H 8653   0.443   9.367   2.066 -0.6934  1.3438 -2.3999
   66MOL0     H 8654   0.567   9.226   2.052 -0.6996 -0.0162  0.2021
   66MOL0     H 8655   0.271   9.195   2.002  0.1843  1.3456  1.7533
   66MOL0     H 8656   0.399   9.072   1.995  2.8220  0.2361  0.7059
   66MOL0     H 8657   0.295   9.240   2.225  0.4250  0.3258  0.2105
   66MOL0     H 8658   0.447   9.153   2.239  0.2739  3.4478 -0.3034
   66MOL0     H 8659   0.350   8.951   2.212 -0.1203 -0.9435  1.1814
   66MOL0     H 8660   0.188   9.013   2.159 -0.7211  2.0978 -0.1332
   66MOL0     H 8661   0.306   9.055   2.421 -0.4198  1.4034 -0.2152
   66MOL0     H 8662   0.145   9.114   2.372  0.8679  0.7319  0.5882
   66MOL0     H 8663   0.152   8.907   2.514 -0.3730  2.1002 -0.0013
   66MOL0     H 8664   0.235   8.826   2.378 -0.2231  0.5315 -0.4579
   66MOL0     H 8665   0.001   8.670   2.418 -2.1512 -0.0983  0.0235
   66MOL0     H 8666  -0.132   8.547   2.193 -2.0026 -1.6673  0.6157
   66MOL0     H 8667  -0.252   8.649   2.117 -1.6974 -0.5244  1.0730
   66MOL0     H 8668  -0.258   8.602   2.408 -0.0966  1.3077 -0.3833
   66MOL0     H 8669  -0.345   8.500   2.288 -0.6287  1.1681 -0.4042
   66MOL0     H 8670  -0.479   8.692   2.402  2.6737  1.9249  1.7413
   66MOL0     H 8671  -0.379   8.808   2.309 -0.7302  0.3320  0.6699
   66MOL0     H 8672  -0.464   8.710   2.096  0.7357  0.6010  0.9227
   66MOL0     H 8673  -0.578   8.785   2.194  0.2804  0.5128  0.9868
   66MOL0     H 8674  -0.775   8.409   2.111 -1.2262 -0.6850  0.2607
   66MOL0     H 8675  -1.023   8.409   2.176 -0.5893  1.5783 -1.5389
   66MOL0     H 8676  -1.318   8.419   2.521  0.1392  1.4039  0.5371
   66MOL0     H 8677  -1.559   8.392   2.581 -2.5943 -0.7125 -0.5669
   66MOL0     H 8678  -1.893   8.459   2.305 -2.4687 -0.6196  1.6795
   66MOL0     H 8679  -1.855   8.619   2.322 -1.9878 -1.9888 -2.0122
   66MOL0     H 8680  -2.045   8.622   2.434 -0.4230 -0.5844 -1.4443
   66MOL0     H 8681  -1.937   8.607   2.576 -0.1034  1.8526 -0.9909
   66MOL0     H 8682  -1.971   8.358   2.568 -0.0787  1.1556  1.9367
   66MOL0     H 8683  -2.096   8.386   2.440 -4.7201  2.3588  0.8822
   66MOL0     H 8684  -2.077   8.494   2.723 -2.0764 -1.2520  2.4082
   66MOL0     H 8685  -2.206   8.526   2.593  0.6962 -0.7947 -0.4104
   66MOL0     H 8686  -2.274   8.358   2.777 -1.4364 -0.8987 -0.0738
   66MOL0     H 8687  -2.161   8.244   2.703 -0.1789 -0.1127 -0.0998
   66MOL0     H 8688  -2.293   8.224   2.509  0.8048  0.4540 -0.1212
   66MOL0     H 8689  -2.365   8.390   2.536  4.1799  1.4253 -0.0610
   66MOL0     H 8690  -2.517   8.314   2.689  0.6573 -0.7625  0.6635
   66MOL0     H 8691  -2.519   8.169   2.568  0.0853  0.7874 -1.5359
   66MOL0     H 8692  -2.380   8.195   2.828 -1.9675  0.3719  2.2328
   66MOL0     H 8693  -2.388   8.041   2.737 -1.8901 -2.2424 -1.7858
   66MOL0     H 8694  -1.662   8.599   2.215 -2.4023 -3.0054 -0.6212
   66MOL0     H 8695  -1.425   8.607   2.163 -2.5828 -1.5717 -1.0507
   66MOL0     H 8696  -0.927   8.756   2.425  0.2927 -2.2803  4.2210
   66MOL0     H 8697  -0.698   8.726   2.364  1.6455 -0.3445 -1.2619
   66MOL0     H 8698   0.775   9.427   1.794 -1.9560  1.9646 -0.7462
   66MOL0     H 8699   0.946   9.530   1.661  2.2964 -0.3356 -1.7499
   66MOL0     H 8700   1.418   9.458   1.528  1.8595  2.3933 -0.6910
   66MOL0     H 8701   1.611   9.510   1.357 -0.1954  0.2932 -0.2299
   66MOL0     H 8702   1.518   9.707   0.995 -1.0232 -0.6654 -0.6351
   66MOL0     H 8703   1.486   9.545   0.934 -3.6427 -0.3649  3.7254
   66MOL0     H 8704   1.729   9.505   0.867  3.5641  0.2369  0.1037
   66MOL0     H 8705   1.672   9.644   0.788 -1.5068  0.4715  1.8292
   66MOL0     H 8706   1.835   9.619   1.056  1.2307  2.3341  0.8296
   66MOL0     H 8707   1.772   9.768   1.004  0.5549  1.1550 -0.0307
   66MOL0     H 8708   1.964   9.603   0.821  2.0065  1.2292 -0.4855
   66MOL0     H 8709   1.917   9.773   0.795 -3.1682 -0.8145 -1.5207
   66MOL0     H 8710   2.205   9.835   1.083  3.4165 -5.4249  1.0210
   66MOL0     H 8711   1.327   9.538   1.044  4.1853  0.1124 -1.9302
   66MOL0     H 8712   1.147   9.492   1.177  0.8740  1.6686 -1.1682
   67MOL0     O 8713   1.963   7.046   5.844 -0.7617 -0.1173 -0.5251
   67MOL0     C 8714   2.016   7.145   5.896  0.2700 -0.3796 -0.0759
   67MOL0     O 8715   1.951   7.234   5.973 -0.1356 -0.9246  0.1035
   67MOL0     C 8716   1.818   7.220   6.003  0.9373 -0.1535 -0.3254
   67MOL0     C 8717   1.725   7.261   5.915 -0.2770  0.5999 -0.3228
   67MOL0     C 8718   1.587   7.256   5.940  1.3750 -0.2764  0.2329
   67MOL0     C 8719   1.534   7.200   6.060 -0.7240 -1.1652  0.6260
   67MOL0     O 8720   1.407   7.181   6.101 -0.0876  0.0387  0.0740
   67MOL0     C 8721   1.308   7.169   5.991 -0.8559  0.3256 -0.6014
   67MOL0     C 8722   1.167   7.110   6.035  0.8022  0.0149  0.0286
   67MOL0     C 8723   1.075   7.095   5.916 -0.6333  0.0958 -0.7748
   67MOL0     C 8724   0.928   7.070   5.959  1.3196 -0.2632 -0.5582
   67MOL0     C 8725   0.821   7.053   5.856  0.4471 -0.2465  0.5093
   67MOL0     C 8726   0.674   7.072   5.901  0.6800 -0.3000  0.3494
   67MOL0     C 8727   0.658   7.218   5.941 -0.3248 -0.2095  0.0801
   67MOL0     C 8728   0.540   7.238   6.041 -0.3002 -0.6320  0.6709
   67MOL0     N 8729   0.430   7.146   6.035  0.0258  0.1388  0.7702
   67MOL0     C 8730   0.321   7.165   5.945  0.1302 -0.7005  0.2649
   67MOL0     C 8731   0.216   7.099   5.985 -0.3149  0.5222  0.0486
   67MOL0     C 8732   0.078   7.096   5.922  0.0919  0.0340  0.4662
   67MOL0     C 8733   0.097   6.998   5.807 -0.2665 -0.2118 -0.4179
   67MOL0     C 8734  -0.036   6.941   5.765 -0.5861  0.9172  0.2122
   67MOL0     C 8735  -0.062   6.812   5.847 -0.8093 -0.3300  0.7373
   67MOL0     O 8736  -0.188   6.773   5.809  0.1868  0.1518 -0.5352
   67MOL0     C 8737  -0.295   6.800   5.895 -1.0317 -0.3193  0.6633
   67MOL0     C 8738  -0.323   6.919   5.973  0.6924  0.1532 -0.9590
   67MOL0     C 8739  -0.454   6.937   6.035 -0.5129  0.2542 -0.4762
   67MOL0     C 8740  -0.560   6.850   6.006  0.5812 -0.6966 -0.0789
   67MOL0     C 8741  -0.697   6.886   6.049  0.3803 -0.4008  0.0205
   67MOL0     O 8742  -0.795   6.803   6.001 -0.0543  1.3543 -0.3171
   67MOL0     C 8743  -0.907   6.803   6.071  0.4723 -0.5051  0.2236
   67MOL0     C 8744  -0.918   6.725   6.185 -0.2496  0.5782  1.0170
   67MOL0     C 8745  -1.041   6.719   6.251 -0.3564 -0.1956 -0.4153
   67MOL0     C 8746  -1.144   6.806   6.221  0.5945 -0.6013  0.4403
   67MOL0     O 8747  -1.254   6.797   6.299 -0.0589  0.1463 -0.0548
   67MOL0     C 8748  -1.375   6.846   6.246 -0.3961  0.2564  0.7545
   67MOL0     C 8749  -1.499   6.817   6.322  0.1904 -1.0458  0.6833
   67MOL0     C 8750  -1.622   6.840   6.240 -0.1187 -0.3200  0.2857
   67MOL0     C 8751  -1.736   6.851   6.330 -0.6126 -1.0492  0.3003
   67MOL0     C 8752  -1.865   6.889   6.264 -0.2426 -0.0906  0.7952
   67MOL0     C 8753  -1.956   6.960   6.366  0.0727 -0.0069  0.5928
   67MOL0     C 8754  -2.000   6.866   6.488 -0.4475 -0.0137  0.5002
   67MOL0     C 8755  -2.124   6.925   6.568 -0.2787  0.4190  0.9810
   67MOL0    Cl 8756  -2.059   7.080   6.630  0.2339  0.3543  0.2324
   67MOL0     C 8757  -1.128   6.883   6.106 -1.2194  0.2705  0.0004
   67MOL0     C 8758  -1.013   6.885   6.032  0.5206  0.4804  0.8437
   67MOL0     O 8759  -0.718   6.985   6.120 -0.4250  0.0677 -0.1894
   67MOL0     C 8760  -0.531   6.736   5.920  0.2745 -0.0555  1.0710
   67MOL0     C 8761  -0.405   6.713   5.873  0.3619  0.3168  0.5284
   67MOL0     N 8762   0.256   7.034   6.104 -0.4626  1.6594  0.5659
   67MOL0     N 8763   0.379   7.065   6.135 -0.2580 -0.0165  0.8712
   67MOL0     C 8764   1.631   7.162   6.151 -0.5632  0.8749  0.1066
   67MOL0     C 8765   1.770   7.164   6.129  0.0756 -0.6058  0.9912
   67MOL0     C 8766   2.161   7.136   5.903 -0.3168 -0.0357  0.3865
   67MOL0     C 8767   2.237   7.068   5.809  0.0384  0.1978 -0.0506
   67MOL0     C 8768   2.376   7.058   5.823  0.8379  0.6092  0.3308
   67MOL0     C 8769   2.440   7.131   5.919 -0.1776 -0.0639  0.7222
   67MOL0     O 8770   2.572   7.132   5.934 -0.4132  0.3668  0.1574
   67MOL0     C 8771   2.649   7.136   5.815  0.3694 -0.4221  0.5358
   67MOL0     C 8772   2.793   7.158   5.850  0.7891  0.7107 -0.1459
   67MOL0     C 8773   2.895   7.170   5.728 -0.6341 -0.1645  0.8414
   67MOL0     C 8774   3.035   7.209   5.792 -0.3043  0.0079 -0.6018
   67MOL0     C 8775   3.142   7.224   5.699  0.4685 -0.0189  0.3662
   67MOL0     C 8776   3.224   7.210   5.611  0.0082  0.1473  0.3192
   67MOL0     C 8777   2.370   7.194   6.024 -0.3925 -0.2778 -0.0949
   67MOL0     C 8778   2.229   7.195   6.015  0.0463  1.0653  0.4042
   67MOL0     H 8779   1.766   7.307   5.826 -1.6816 -1.2135 -1.9796
   67MOL0     H 8780   1.513   7.291   5.869  0.2561 -1.2591  0.8726
   67MOL0     H 8781   1.353   7.103   5.916 -0.2557 -0.3313  0.3078
   67MOL0     H 8782   1.297   7.269   5.948  2.3047 -0.6600 -4.2909
   67MOL0     H 8783   1.129   7.176   6.114 -1.5498  0.1709 -1.1324
   67MOL0     H 8784   1.178   7.005   6.061 -2.7007 -1.5045 -3.5925
   67MOL0     H 8785   1.116   7.012   5.857  1.2216  0.3358  0.1170
   67MOL0     H 8786   1.080   7.173   5.840 -0.3409  0.6168 -0.2213
   67MOL0     H 8787   0.912   6.983   6.022 -1.4665  1.4857  1.3918
   67MOL0     H 8788   0.896   7.153   6.024  0.8405  0.7911 -2.0694
   67MOL0     H 8789   0.827   6.948   5.827 -1.0339 -0.6790  1.6653
   67MOL0     H 8790   0.835   7.122   5.772 -2.6508 -0.3102 -0.1931
   67MOL0     H 8791   0.661   7.016   5.994 -1.8084  0.5483  0.5829
   67MOL0     H 8792   0.607   7.042   5.819  3.2596 -4.0210 -0.6700
   67MOL0     H 8793   0.747   7.270   5.977 -1.8010  1.4746  1.5411
   67MOL0     H 8794   0.629   7.266   5.847 -1.9482 -1.2727 -0.0033
   67MOL0     H 8795   0.499   7.337   6.019  0.1668 -0.7648 -0.9303
   67MOL0     H 8796   0.582   7.223   6.142 -0.8567 -3.4617  0.5470
   67MOL0     H 8797   0.318   7.238   5.864 -0.7454 -0.1875  0.7387
   67MOL0     H 8798   0.052   7.198   5.892  1.2007  0.4337  0.8136
   67MOL0     H 8799   0.000   7.066   5.993  1.3188 -3.0884  0.6172
   67MOL0     H 8800   0.167   6.917   5.829 -0.9762 -0.1279  2.5918
   67MOL0     H 8801   0.135   7.065   5.729 -1.2793 -2.3153 -2.8279
   67MOL0     H 8802  -0.121   7.008   5.776 -2.1392 -0.8692 -0.3901
   67MOL0     H 8803  -0.026   6.906   5.661 -2.7722 -3.5331  1.2224
   67MOL0     H 8804  -0.049   6.833   5.954  0.7327 -0.9203  0.6847
   67MOL0     H 8805   0.008   6.732   5.824  1.4271  0.8079  3.0352
   67MOL0     H 8806  -0.241   6.989   5.991  0.3015  1.2663 -3.1168
   67MOL0     H 8807  -0.479   7.023   6.095 -0.6151  0.3105 -0.6009
   67MOL0     H 8808  -0.835   6.675   6.234 -1.1158 -0.7251  1.2082
   67MOL0     H 8809  -1.046   6.662   6.343 -1.1954  0.7592  0.1504
   67MOL0     H 8810  -1.386   6.800   6.148  2.2440 -1.5903  1.2204
   67MOL0     H 8811  -1.362   6.952   6.225  2.6504 -0.5454 -2.3289
   67MOL0     H 8812  -1.495   6.890   6.404  0.9468 -0.8787  0.5027
   67MOL0     H 8813  -1.499   6.718   6.369  0.7332 -0.2926  2.3780
   67MOL0     H 8814  -1.640   6.763   6.164  1.8427  0.8133 -1.4438
   67MOL0     H 8815  -1.618   6.936   6.188  0.9557 -1.2001 -1.3843
   67MOL0     H 8816  -1.742   6.756   6.384 -0.3816 -1.1236  0.1965
   67MOL0     H 8817  -1.711   6.920   6.412 -0.7260 -0.5691 -0.0656
   67MOL0     H 8818  -1.909   6.796   6.224 -1.8994  2.0410 -2.8343
   67MOL0     H 8819  -1.851   6.947   6.172 -0.9866 -0.1993  0.6055
   67MOL0     H 8820  -2.048   6.998   6.320 -1.5955 -3.7380  0.3940
   67MOL0     H 8821  -1.907   7.051   6.400 -1.2424  1.9841 -2.4099
   67MOL0     H 8822  -2.026   6.766   6.453  1.0149 -1.0078  2.0982
   67MOL0     H 8823  -1.915   6.851   6.555 -2.0976 -0.6053  2.6099
   67MOL0     H 8824  -2.156   6.855   6.646 -2.1364  1.1639  0.9324
   67MOL0     H 8825  -2.211   6.951   6.508  0.9853  1.3242 -0.5532
   67MOL0     H 8826  -1.213   6.931   6.060  0.4292  2.2381 -1.1527
   67MOL0     H 8827  -1.009   6.928   5.932  1.5101 -3.1953 -0.8628
   67MOL0     H 8828  -0.613   6.672   5.889 -0.2787  0.5967  1.1699
   67MOL0     H 8829  -0.400   6.615   5.826 -3.4965 -0.8570  2.1967
   67MOL0     H 8830   1.585   7.132   6.245 -2.5939  1.6459 -0.5883
   67MOL0     H 8831   1.855   7.153   6.196  1.9755  0.9975 -1.0106
   67MOL0     H 8832   2.187   7.020   5.726 -1.8095 -0.2588  1.2594
   67MOL0     H 8833   2.445   7.006   5.757  0.7292 -0.7467  1.2705
   67MOL0     H 8834   2.616   7.216   5.748  0.0516 -2.5035 -1.9770
   67MOL0     H 8835   2.632   7.047   5.754 -0.4174  1.5063 -2.2995
   67MOL0     H 8836   2.804   7.259   5.891 -1.4891  0.4631  1.2991
   67MOL0     H 8837   2.821   7.093   5.933 -1.7343  0.0722  0.3104
   67MOL0     H 8838   2.871   7.252   5.659  3.3484  0.5918  0.0631
   67MOL0     H 8839   2.903   7.095   5.648  0.3474 -0.1731  0.9278
   67MOL0     H 8840   3.036   7.301   5.852  1.1740  1.6594 -2.9898
   67MOL0     H 8841   3.060   7.126   5.858 -0.0969 -0.3378 -1.1115
   67MOL0     H 8842   3.298   7.184   5.538 -0.3383  1.6243 -0.6080
   67MOL0     H 8843   2.424   7.250   6.099  1.9437  0.4986 -2.2117
   67MOL0     H 8844   2.170   7.248   6.089 -1.8463 -1.3923  0.8047
   68MOL0     O 8845   6.819   1.155   0.439  0.9930 -0.3151  0.3298
   68MOL0     C 8846   6.738   1.120   0.529  1.4638 -0.1946  0.0659
   68MOL0     O 8847   6.778   1.081   0.652 -0.0532 -0.5514 -0.8747
   68MOL0     C 8848   6.904   1.087   0.706  0.3597 -0.6194  0.6170
   68MOL0     C 8849   6.933   0.998   0.811  0.0306  0.0122 -1.0227
   68MOL0     C 8850   7.061   1.003   0.865  0.9318  0.4624 -0.5929
   68MOL0     C 8851   7.161   1.096   0.832  0.4414  0.3260 -0.5445
   68MOL0     O 8852   7.286   1.088   0.891 -0.4197  0.4051  1.0801
   68MOL0     C 8853   7.404   1.138   0.831  1.0153  0.5674  0.7695
   68MOL0     C 8854   7.513   1.167   0.934  0.5282 -0.0169 -1.0943
   68MOL0     C 8855   7.575   1.056   1.012  0.3953 -0.1222  0.5460
   68MOL0     C 8856   7.713   1.095   1.065 -1.1213 -0.1180  0.0916
   68MOL0     C 8857   7.749   1.012   1.187  0.4289  0.3025 -0.3761
   68MOL0     C 8858   7.886   1.039   1.242 -0.1420 -0.3747 -0.1155
   68MOL0     C 8859   8.002   0.986   1.151  0.3638 -0.6700  0.4663
   68MOL0     C 8860   8.140   1.032   1.204  1.2040  0.0165  0.7134
   68MOL0     N 8861   8.252   0.997   1.119  0.1361 -0.0550 -0.1160
   68MOL0     C 8862   8.383   1.034   1.154 -0.0948 -0.4823 -0.1107
   68MOL0     C 8863   8.463   0.994   1.054 -0.5065  0.0971  0.6814
   68MOL0     C 8864   8.610   1.017   1.035 -0.3764  0.3213  0.1128
   68MOL0     C 8865   8.644   1.050   0.885 -0.5178  0.1523 -1.2023
   68MOL0     C 8866   8.789   1.123   0.880 -0.0047 -0.1514  0.2770
   68MOL0     C 8867   8.819   1.147   0.731  0.1261  0.3108 -0.1588
   68MOL0     O 8868   8.908   1.250   0.713 -0.2010  0.0985 -0.0789
   68MOL0     C 8869   8.953   1.272   0.584  0.1483  0.4971 -0.3547
   68MOL0     C 8870   9.028   1.385   0.583 -0.4114  0.4016 -0.1859
   68MOL0     C 8871   9.090   1.439   0.466  0.3841 -0.1406  0.2556
   68MOL0     C 8872   9.063   1.376   0.343 -0.2021  0.0842 -0.3108
   68MOL0     C 8873   9.110   1.434   0.210 -0.9871  0.4576 -0.6525
   68MOL0     O 8874   9.067   1.378   0.102 -0.9414  0.2616 -0.2864
   68MOL0     C 8875   9.107   1.426  -0.020  0.5503  0.8767  0.1716
   68MOL0     C 8876   9.003   1.420  -0.110  0.3667  0.3865 -0.4188
   68MOL0     C 8877   9.024   1.429  -0.246  0.1767  0.5004 -0.0887
   68MOL0     C 8878   9.153   1.469  -0.290 -0.3923  0.3271  0.1730
   68MOL0     O 8879   9.171   1.482  -0.429  0.5047  0.3853 -0.2929
   68MOL0     C 8880   9.221   1.608  -0.474  0.1218 -0.1379  0.2270
   68MOL0     C 8881   9.143   1.727  -0.429 -0.8530 -1.6150  0.1543
   68MOL0     C 8882   9.205   1.853  -0.510  0.1414 -0.2555 -0.2431
   68MOL0     C 8883   9.162   1.868  -0.657  0.0032 -0.6411 -0.8648
   68MOL0     C 8884   9.208   2.008  -0.699 -0.4801 -0.2721  0.2032
   68MOL0     C 8885   9.169   2.046  -0.838  0.6201 -0.5659  0.0030
   68MOL0     C 8886   9.212   2.187  -0.874 -0.7407 -0.2054  0.7910
   68MOL0     C 8887   9.154   2.293  -0.775 -0.1372  1.2376 -1.0102
   68MOL0    Cl 8888   9.183   2.459  -0.824 -0.1517 -0.0878  0.0718
   68MOL0     C 8889   9.258   1.478  -0.202 -0.8903  0.0650 -0.7000
   68MOL0     C 8890   9.240   1.459  -0.059  0.4518  0.6992  0.9646
   68MOL0     O 8891   9.193   1.524   0.223 -0.7751 -0.1060 -0.5318
   68MOL0     C 8892   8.983   1.261   0.342 -0.0470  0.5519 -0.0071
   68MOL0     C 8893   8.922   1.202   0.463 -0.5540 -0.0233  0.1059
   68MOL0     N 8894   8.383   0.934   0.955 -0.3069  0.5551 -0.2335
   68MOL0     N 8895   8.256   0.931   1.003 -0.4693  0.5006 -0.3143
   68MOL0     C 8896   7.128   1.177   0.723  0.8476 -0.6531 -0.0039
   68MOL0     C 8897   6.996   1.186   0.676  0.4215 -1.0325 -0.2631
   68MOL0     C 8898   6.599   1.122   0.506  0.4433 -0.0897  0.3153
   68MOL0     C 8899   6.502   1.070   0.598  0.3315 -0.9761 -0.2891
   68MOL0     C 8900   6.364   1.087   0.562 -0.2158  0.2374  0.2278
   68MOL0     C 8901   6.323   1.135   0.439 -0.0652 -0.6122  0.5205
   68MOL0     O 8902   6.193   1.169   0.402 -0.0243  0.5013 -0.5459
   68MOL0     C 8903   6.118   1.045   0.388 -0.2428  0.4008 -0.8670
   68MOL0     C 8904   6.157   0.978   0.259  1.5085 -1.3529  0.7037
   68MOL0     C 8905   6.096   0.842   0.240  0.1766 -0.0239 -0.0076
   68MOL0     C 8906   5.942   0.837   0.257  0.6187 -0.7985  0.0205
   68MOL0     C 8907   5.901   0.704   0.203 -0.7102  0.7780 -0.8166
   68MOL0     C 8908   5.871   0.593   0.161 -0.1312 -1.1099 -0.4545
   68MOL0     C 8909   6.427   1.178   0.352 -0.5726  0.8733  0.1858
   68MOL0     C 8910   6.564   1.178   0.385  0.8151 -0.0755  0.4383
   68MOL0     H 8911   6.851   0.947   0.860 -0.8434  0.8698 -1.5734
   68MOL0     H 8912   7.098   0.926   0.932  1.8639  0.3686 -1.2080
   68MOL0     H 8913   7.376   1.234   0.785  0.1231 -1.6705 -4.0208
   68MOL0     H 8914   7.444   1.065   0.759  1.6115 -1.4603  3.0220
   68MOL0     H 8915   7.483   1.235   1.014  0.3033 -1.4291  0.0589
   68MOL0     H 8916   7.593   1.219   0.880 -0.4127  1.0676 -1.4999
   68MOL0     H 8917   7.582   0.963   0.955 -0.5925  0.4190 -0.5070
   68MOL0     H 8918   7.506   1.036   1.095 -1.3902  2.5786 -0.1466
   68MOL0     H 8919   7.794   1.092   0.992  1.1120  1.4373  2.3419
   68MOL0     H 8920   7.700   1.200   1.092  0.3765  0.0808  0.1270
   68MOL0     H 8921   7.739   0.909   1.151  1.3234  0.8407 -2.2682
   68MOL0     H 8922   7.682   1.034   1.271 -1.0227 -0.3146 -1.3179
   68MOL0     H 8923   7.899   0.998   1.343 -1.6360  1.0747  0.7163
   68MOL0     H 8924   7.896   1.147   1.257 -1.2834 -0.4512  1.4069
   68MOL0     H 8925   7.990   0.878   1.147 -3.2797 -0.4344  1.2646
   68MOL0     H 8926   7.985   1.034   1.054  2.7254  2.5803  1.4913
   68MOL0     H 8927   8.161   0.993   1.304  2.5395 -2.2678 -0.3925
   68MOL0     H 8928   8.152   1.141   1.215  1.7069  0.2143 -1.3381
   68MOL0     H 8929   8.408   1.085   1.246  0.0429 -1.1138  0.2051
   68MOL0     H 8930   8.675   0.935   1.067  0.9358  1.8272  1.4506
   68MOL0     H 8931   8.643   1.098   1.101  0.7481 -0.9525  1.1591
   68MOL0     H 8932   8.571   1.121   0.845 -0.9738  1.1849  1.3250
   68MOL0     H 8933   8.646   0.955   0.830  1.5844  0.7571 -2.3090
   68MOL0     H 8934   8.786   1.216   0.937  0.0092  0.5563 -0.8356
   68MOL0     H 8935   8.864   1.055   0.923 -0.7799 -1.0688  0.2059
   68MOL0     H 8936   8.724   1.175   0.683 -0.5129  0.2250  1.0240
   68MOL0     H 8937   8.852   1.053   0.685  0.3876  0.1598  0.3345
   68MOL0     H 8938   9.047   1.435   0.677 -0.1160  0.7669 -0.4381
   68MOL0     H 8939   9.161   1.520   0.478  3.2230 -2.4916  0.4720
   68MOL0     H 8940   8.901   1.401  -0.079  0.6306 -3.4222 -1.4218
   68MOL0     H 8941   8.943   1.422  -0.318  0.1994  0.0934 -0.0755
   68MOL0     H 8942   9.231   1.603  -0.583 -2.5658 -0.6431 -0.0768
   68MOL0     H 8943   9.326   1.616  -0.444  0.5651 -0.9242 -1.0255
   68MOL0     H 8944   9.145   1.747  -0.322 -4.3168  3.8435 -0.4000
   68MOL0     H 8945   9.040   1.714  -0.463 -0.4197 -1.7862 -1.1464
   68MOL0     H 8946   9.314   1.855  -0.495 -0.1396  0.5154  2.3373
   68MOL0     H 8947   9.160   1.935  -0.452 -1.6128 -1.0859 -0.3860
   68MOL0     H 8948   9.213   1.790  -0.715  2.1518  0.7083 -0.8987
   68MOL0     H 8949   9.054   1.859  -0.677 -0.9324  0.6195  2.8014
   68MOL0     H 8950   9.317   2.016  -0.700 -0.6315  2.9404  0.6865
   68MOL0     H 8951   9.159   2.080  -0.633 -3.6625  0.6631 -2.9005
   68MOL0     H 8952   9.062   2.046  -0.860  0.4697  3.1048  0.0209
   68MOL0     H 8953   9.203   1.968  -0.907 -2.4845 -2.8944  0.8880
   68MOL0     H 8954   9.321   2.195  -0.881 -0.5557 -0.4707  2.6802
   68MOL0     H 8955   9.184   2.209  -0.977 -0.9965  0.7178  1.0421
   68MOL0     H 8956   9.189   2.284  -0.671 -0.5026  0.3349 -0.9577
   68MOL0     H 8957   9.047   2.272  -0.771 -0.0310  0.4275  3.3259
   68MOL0     H 8958   9.362   1.504  -0.221 -0.7826  1.4469  1.3996
   68MOL0     H 8959   9.329   1.458   0.003  0.4927 -1.7137  0.9487
   68MOL0     H 8960   8.965   1.210   0.247 -1.0883 -1.1974  1.0766
   68MOL0     H 8961   8.866   1.109   0.463 -1.8661  0.7506  0.5424
   68MOL0     H 8962   7.198   1.244   0.675 -0.3639  0.5003 -0.2179
   68MOL0     H 8963   6.963   1.265   0.609 -0.4203 -2.5611 -1.7480
   68MOL0     H 8964   6.530   1.020   0.690  1.2749 -1.1506 -0.6639
   68MOL0     H 8965   6.303   1.044   0.640 -1.5548 -1.4939 -1.6849
   68MOL0     H 8966   6.010   1.059   0.399 -0.4534 -2.0341  1.0672
   68MOL0     H 8967   6.133   0.989   0.481  0.2601  2.9166  0.6513
   68MOL0     H 8968   6.126   1.048   0.180 -0.9697 -2.5869  0.4715
   68MOL0     H 8969   6.264   0.960   0.251  1.8620  1.1733 -2.4952
   68MOL0     H 8970   6.149   0.782   0.314  4.0275  3.0616  0.0888
   68MOL0     H 8971   6.131   0.788   0.152 -0.2564 -1.0410  0.4370
   68MOL0     H 8972   5.901   0.867   0.354 -0.0743 -1.1216 -0.1738
   68MOL0     H 8973   5.895   0.912   0.193  1.0730 -0.9678 -0.5251
   68MOL0     H 8974   5.841   0.492   0.144 -4.4706 -0.5228  2.1508
   68MOL0     H 8975   6.393   1.221   0.259 -2.4341  2.1093  1.3514
   68MOL0     H 8976   6.634   1.230   0.321 -0.2828  0.9109  0.0196
   69MOL0     O 8977   7.431   7.741   0.516  0.2891  0.2638 -0.4224
   69MOL0     C 8978   7.486   7.653   0.588  0.1903  0.0857  0.1979
   69MOL0     O 8979   7.451   7.617   0.712 -0.0383  0.7990 -0.1282
   69MOL0     C 8980   7.332   7.672   0.759  0.4394 -0.8458 -0.2009
   69MOL0     C 8981   7.340   7.792   0.833 -0.5078  0.2149 -0.8589
   69MOL0     C 8982   7.230   7.847   0.890  0.5451  0.2037 -0.5569
   69MOL0     C 8983   7.100   7.798   0.866 -0.2755  0.3411 -0.6236
   69MOL0     O 8984   6.992   7.866   0.924 -0.6842 -0.0789  0.5536
   69MOL0     C 8985   6.853   7.831   0.899  0.6436  0.5013 -0.5659
   69MOL0     C 8986   6.768   7.923   0.973  0.7968  0.0607 -0.0595
   69MOL0     C 8987   6.618   7.904   0.938  0.1606 -0.2407 -0.0894
   69MOL0     C 8988   6.539   7.975   1.053  0.5457  0.1694  0.2497
   69MOL0     C 8989   6.387   7.962   1.022 -1.4477  0.1743 -0.8937
   69MOL0     C 8990   6.306   8.068   1.106  0.3582 -1.1315 -0.5321
   69MOL0     C 8991   6.157   8.032   1.113  0.1506 -0.9227  0.0192
   69MOL0     C 8992   6.080   8.136   1.193 -0.6483  0.7604 -0.2432
   69MOL0     N 8993   5.934   8.108   1.207 -0.5288  0.0342 -0.0829
   69MOL0     C 8994   5.831   8.194   1.184  0.4519  0.2421  0.3304
   69MOL0     C 8995   5.716   8.134   1.215  0.5824  0.7231  0.3566
   69MOL0     C 8996   5.583   8.199   1.203 -0.2239  0.5460  0.9160
   69MOL0     C 8997   5.568   8.317   1.304 -0.6226 -0.5457 -0.8551
   69MOL0     C 8998   5.635   8.274   1.443 -1.6479  0.8440  0.6326
   69MOL0     C 8999   5.602   8.360   1.565  0.0066  0.2676 -0.0060
   69MOL0     O 9000   5.460   8.366   1.575  0.2116  0.5326 -0.8191
   69MOL0     C 9001   5.410   8.445   1.670  0.6414  0.5984 -0.3191
   69MOL0     C 9002   5.278   8.417   1.708 -0.3061 -1.1686 -0.3831
   69MOL0     C 9003   5.213   8.490   1.807 -0.0432 -0.6434 -0.1638
   69MOL0     C 9004   5.273   8.594   1.882 -0.0014  0.6182 -0.9679
   69MOL0     C 9005   5.201   8.681   1.977 -0.1827 -0.4017  0.5177
   69MOL0     O 9006   5.071   8.638   2.004 -0.6209  0.3066 -0.1216
   69MOL0     C 9007   4.993   8.697   2.096 -0.6296  0.7068  0.6517
   69MOL0     C 9008   4.866   8.728   2.057 -0.5799  1.0276 -0.2873
   69MOL0     C 9009   4.778   8.769   2.154 -0.6170 -0.3478  0.1649
   69MOL0     C 9010   4.816   8.788   2.290  0.2360 -0.7445 -1.0087
   69MOL0     O 9011   4.717   8.835   2.375 -0.0889 -0.0431  0.5329
   69MOL0     C 9012   4.718   8.834   2.511 -0.8254 -0.4854  0.4753
   69MOL0     C 9013   4.618   8.930   2.573 -0.3461  0.3580 -1.6336
   69MOL0     C 9014   4.468   8.906   2.546 -0.5025 -0.2291 -0.1059
   69MOL0     C 9015   4.417   8.774   2.625 -0.3400  0.7443 -0.3125
   69MOL0     C 9016   4.266   8.774   2.627 -0.2020  1.0841 -0.7776
   69MOL0     C 9017   4.230   8.652   2.690 -0.2695  1.0023 -0.2644
   69MOL0     C 9018   4.085   8.652   2.724 -0.6416 -0.1799 -0.4122
   69MOL0     C 9019   4.059   8.529   2.806 -0.0154  0.8786 -0.8266
   69MOL0    Cl 9020   4.031   8.380   2.711 -0.0898 -0.6289 -0.1665
   69MOL0     C 9021   4.946   8.754   2.328  0.2411  0.0264 -0.3678
   69MOL0     C 9022   5.035   8.712   2.227 -0.3390 -0.4381 -0.5174
   69MOL0     O 9023   5.248   8.793   2.004 -0.3037  0.3646 -0.3852
   69MOL0     C 9024   5.407   8.619   1.841 -0.1251  0.1665  0.0996
   69MOL0     C 9025   5.483   8.538   1.747 -0.3652 -0.5218 -0.3357
   69MOL0     N 9026   5.746   8.008   1.280  0.3745 -0.3500  0.3934
   69MOL0     N 9027   5.881   8.005   1.279 -0.0966 -0.6863 -0.0429
   69MOL0     C 9028   7.089   7.687   0.769  0.4127  0.4819 -0.4151
   69MOL0     C 9029   7.202   7.631   0.720 -0.6298 -0.1771  0.4356
   69MOL0     C 9030   7.581   7.572   0.510  0.4136  0.0515  0.0861
   69MOL0     C 9031   7.640   7.465   0.571 -0.6882 -0.4839  0.1898
   69MOL0     C 9032   7.750   7.401   0.514  0.2559 -0.0816 -0.5293
   69MOL0     C 9033   7.795   7.425   0.384 -0.3833 -0.1760 -0.0355
   69MOL0     O 9034   7.893   7.355   0.314  0.3847 -0.2372  0.7055
   69MOL0     C 9035   7.934   7.232   0.368 -0.0994  0.1254 -0.6662
   69MOL0     C 9036   8.058   7.241   0.449  0.6230  0.1322 -0.2109
   69MOL0     C 9037   8.160   7.340   0.395 -0.0461  0.4789 -0.3039
   69MOL0     C 9038   8.271   7.358   0.505 -0.4808  0.1886 -0.4356
   69MOL0     C 9039   8.358   7.460   0.445 -0.0142 -0.4571  0.3985
   69MOL0     C 9040   8.431   7.552   0.399 -0.2021  0.3513  0.3535
   69MOL0     C 9041   7.733   7.523   0.315 -0.1876 -0.0701  0.7420
   69MOL0     C 9042   7.620   7.597   0.374 -0.2811  0.0450  0.3844
   69MOL0     H 9043   7.443   7.822   0.853 -0.1328  0.2925 -2.7081
   69MOL0     H 9044   7.232   7.927   0.964  1.4683 -0.6470  0.3748
   69MOL0     H 9045   6.823   7.738   0.949 -1.1620  2.1576  1.6668
   69MOL0     H 9046   6.837   7.823   0.791  1.6873 -0.3500 -0.6811
   69MOL0     H 9047   6.796   8.025   0.946 -0.4100  0.9546  1.8707
   69MOL0     H 9048   6.778   7.905   1.080 -0.7936 -0.1979  0.0756
   69MOL0     H 9049   6.586   7.800   0.934 -0.0722 -0.1433 -1.5744
   69MOL0     H 9050   6.595   7.942   0.837  2.0307  1.5563  0.0785
   69MOL0     H 9051   6.572   7.928   1.147  1.9506  1.0568  0.2287
   69MOL0     H 9052   6.572   8.078   1.071 -1.1812  0.8982 -0.5836
   69MOL0     H 9053   6.363   7.856   1.038 -1.6271 -0.0673 -2.5256
   69MOL0     H 9054   6.364   7.983   0.917 -3.9834  0.6415 -0.3267
   69MOL0     H 9055   6.316   8.169   1.066 -2.9647  0.6554  2.6107
   69MOL0     H 9056   6.342   8.064   1.209  2.6602  0.1128 -1.2092
   69MOL0     H 9057   6.125   8.025   1.009  1.1808 -2.7869 -0.2100
   69MOL0     H 9058   6.148   7.931   1.155 -2.5200 -1.8672 -2.5388
   69MOL0     H 9059   6.083   8.226   1.131 -2.8299 -0.8580 -2.9936
   69MOL0     H 9060   6.126   8.154   1.290  1.9456 -0.1344 -1.2095
   69MOL0     H 9061   5.839   8.294   1.143  1.4469  0.4040  0.8929
   69MOL0     H 9062   5.501   8.127   1.206  0.1701  0.0559  4.7193
   69MOL0     H 9063   5.569   8.239   1.102 -1.7207  0.4672  1.0746
   69MOL0     H 9064   5.462   8.346   1.310 -0.8969 -1.5189 -0.8769
   69MOL0     H 9065   5.624   8.405   1.271  1.1704 -0.4772  2.0235
   69MOL0     H 9066   5.592   8.178   1.472 -1.5596  0.9741  1.2169
   69MOL0     H 9067   5.744   8.281   1.435 -1.8022  2.5625 -0.4855
   69MOL0     H 9068   5.648   8.454   1.534  1.4555 -0.7458 -1.0893
   69MOL0     H 9069   5.650   8.325   1.657 -0.1260  0.7658  0.2541
   69MOL0     H 9070   5.220   8.335   1.665 -0.7011 -2.1964  1.9440
   69MOL0     H 9071   5.106   8.479   1.818 -0.0497 -1.0224 -0.5948
   69MOL0     H 9072   4.832   8.703   1.957 -0.4622  0.9580 -0.3108
   69MOL0     H 9073   4.674   8.792   2.134 -0.3241 -0.3187 -1.4981
   69MOL0     H 9074   4.818   8.849   2.551 -0.8654 -0.2243  0.4764
   69MOL0     H 9075   4.694   8.734   2.549 -2.2546 -0.5203 -0.4362
   69MOL0     H 9076   4.643   9.033   2.546 -3.4915  1.1097 -2.1217
   69MOL0     H 9077   4.635   8.936   2.681  0.8688  3.7215 -1.8992
   69MOL0     H 9078   4.438   8.902   2.441 -3.4794 -1.0201  0.6697
   69MOL0     H 9079   4.417   8.993   2.588 -0.2587  0.3488 -0.9687
   69MOL0     H 9080   4.464   8.689   2.575  0.5591  0.2228  1.3556
   69MOL0     H 9081   4.458   8.762   2.726  0.1792 -3.8321 -0.8868
   69MOL0     H 9082   4.223   8.783   2.526  0.0451  0.5079 -0.9400
   69MOL0     H 9083   4.229   8.856   2.689 -1.0200  0.9044 -1.0153
   69MOL0     H 9084   4.282   8.630   2.783 -0.3267 -0.1293 -0.4870
   69MOL0     H 9085   4.247   8.568   2.622 -0.9882  0.5808  0.0681
   69MOL0     H 9086   4.067   8.737   2.791  1.9197 -0.6681  1.0083
   69MOL0     H 9087   4.023   8.661   2.634  3.6136 -1.7272 -3.8431
   69MOL0     H 9088   3.971   8.524   2.872  0.3290 -1.7087 -0.4428
   69MOL0     H 9089   4.140   8.510   2.876 -1.3378  3.6631  1.6804
   69MOL0     H 9090   4.993   8.765   2.425  0.9929 -1.1610 -0.5716
   69MOL0     H 9091   5.133   8.678   2.260 -0.3716 -1.9388 -1.8579
   69MOL0     H 9092   5.456   8.699   1.896 -2.4102 -0.8265  3.9693
   69MOL0     H 9093   5.589   8.558   1.734  0.3133 -2.8225  1.0362
   69MOL0     H 9094   6.991   7.652   0.738  0.6364 -2.1941  1.5542
   69MOL0     H 9095   7.187   7.565   0.636 -1.8842  1.4538 -0.6714
   69MOL0     H 9096   7.620   7.452   0.677  1.2195  0.7142  0.7400
   69MOL0     H 9097   7.787   7.323   0.580 -0.3385 -0.4583 -0.6318
   69MOL0     H 9098   7.953   7.175   0.276 -1.2963 -0.8725 -0.3224
   69MOL0     H 9099   7.862   7.164   0.414  0.9096 -0.0719  0.6951
   69MOL0     H 9100   8.025   7.277   0.547  0.7937 -1.4557  0.4542
   69MOL0     H 9101   8.121   7.152   0.454  1.4876  0.6965 -0.8332
   69MOL0     H 9102   8.105   7.435   0.386 -2.4335 -0.7645  0.4079
   69MOL0     H 9103   8.205   7.313   0.299  0.3056 -2.1600  0.5431
   69MOL0     H 9104   8.236   7.402   0.598  1.2640 -1.3695  1.0393
   69MOL0     H 9105   8.316   7.266   0.542 -1.5230 -0.0609  0.2377
   69MOL0     H 9106   8.504   7.630   0.382 -0.9934  0.4692 -3.3695
   69MOL0     H 9107   7.757   7.555   0.214 -1.2003  0.2759  0.5995
   69MOL0     H 9108   7.571   7.671   0.311 -1.6631 -0.0794  1.2585
   70MOL0     O 9109   6.774   7.863   2.938 -0.8466  0.4576 -0.1444
   70MOL0     C 9110   6.842   7.939   2.866 -0.2555 -0.0795 -0.6318
   70MOL0     O 9111   6.786   8.013   2.764 -0.1476  0.5328  0.3627
   70MOL0     C 9112   6.644   8.008   2.737  0.1011 -0.3209  0.7492
   70MOL0     C 9113   6.551   7.998   2.839  0.6664 -0.6161  0.0967
   70MOL0     C 9114   6.414   7.994   2.813 -0.4234 -0.5270 -1.1362
   70MOL0     C 9115   6.363   7.972   2.686 -0.5000 -0.4281 -0.0016
   70MOL0     O 9116   6.228   7.930   2.671 -0.6346  0.0205 -0.1201
   70MOL0     C 9117   6.206   7.874   2.549  0.7864  0.0184  0.5364
   70MOL0     C 9118   6.063   7.818   2.554 -0.1677 -0.5478 -0.2672
   70MOL0     C 9119   5.952   7.927   2.576 -1.3394 -0.3103 -0.6728
   70MOL0     C 9120   5.829   7.868   2.532  0.7528  0.6290  0.3392
   70MOL0     C 9121   5.720   7.967   2.513  0.1700 -0.9668  0.3645
   70MOL0     C 9122   5.579   7.917   2.515 -0.0898 -0.0836 -0.1716
   70MOL0     C 9123   5.478   8.024   2.472 -0.0918 -0.0845  0.6099
   70MOL0     C 9124   5.330   8.009   2.516 -0.6102  0.0545 -0.3437
   70MOL0     N 9125   5.281   7.880   2.476  0.2587  0.1059  0.0869
   70MOL0     C 9126   5.289   7.759   2.544  0.9003  0.4069 -0.0597
   70MOL0     C 9127   5.229   7.666   2.466  0.2253  0.6111  0.5769
   70MOL0     C 9128   5.217   7.520   2.496  0.4266 -0.9147 -0.1916
   70MOL0     C 9129   5.359   7.466   2.482 -0.6722  0.3201  0.3258
   70MOL0     C 9130   5.446   7.476   2.616 -0.2172  0.1705  0.5053
   70MOL0     C 9131   5.570   7.387   2.603 -0.1029 -0.4934 -0.5118
   70MOL0     O 9132   5.624   7.387   2.731 -0.7735  0.3634  0.3017
   70MOL0     C 9133   5.738   7.307   2.746 -0.1167  0.0294  0.9373
   70MOL0     C 9134   5.790   7.217   2.652  0.2945  0.2490 -0.5040
   70MOL0     C 9135   5.901   7.134   2.688  0.9307 -0.5628  0.2542
   70MOL0     C 9136   5.952   7.133   2.821 -0.0545  0.2697  0.2075
   70MOL0     C 9137   6.066   7.043   2.844  1.3427 -0.5419 -1.1499
   70MOL0     O 9138   6.117   6.967   2.744  0.5674  0.1810 -0.1905
   70MOL0     C 9139   6.237   6.911   2.777 -1.1790  0.3116  0.6473
   70MOL0     C 9140   6.353   6.971   2.742 -0.6237  0.6406 -0.0056
   70MOL0     C 9141   6.474   6.924   2.781  0.3064 -0.3848  0.3673
   70MOL0     C 9142   6.494   6.809   2.854 -0.2825 -0.0136 -0.2312
   70MOL0     O 9143   6.625   6.774   2.876 -1.0300  0.5634  0.3516
   70MOL0     C 9144   6.638   6.627   2.904  0.3149 -0.4884  0.6396
   70MOL0     C 9145   6.666   6.615   3.049  0.0426 -0.4841  0.2214
   70MOL0     C 9146   6.783   6.687   3.109 -0.3601  0.2288  0.3753
   70MOL0     C 9147   6.921   6.621   3.069  1.3009 -0.6526  0.2247
   70MOL0     C 9148   7.024   6.721   3.130  0.5313 -0.0192  0.6386
   70MOL0     C 9149   7.154   6.646   3.145 -0.5886  0.2253  0.2976
   70MOL0     C 9150   7.254   6.732   3.222 -0.5106  1.3013  0.1390
   70MOL0     C 9151   7.394   6.659   3.243 -0.3666  0.4826 -0.5151
   70MOL0    Cl 9152   7.463   6.652   3.081  0.0343  0.7268 -0.0256
   70MOL0     C 9153   6.377   6.740   2.889  0.6164  1.0364  0.3287
   70MOL0     C 9154   6.248   6.793   2.848 -0.3795 -0.1570  0.0586
   70MOL0     O 9155   6.108   7.048   2.961 -0.2951 -0.1989  0.2229
   70MOL0     C 9156   5.902   7.220   2.914  0.0584 -0.3619  0.2019
   70MOL0     C 9157   5.797   7.309   2.875 -0.1040  0.0027 -0.1074
   70MOL0     N 9158   5.175   7.738   2.360 -0.4630 -0.3810  0.1088
   70MOL0     N 9159   5.203   7.869   2.371 -0.4361 -0.5719  0.4815
   70MOL0     C 9160   6.457   7.992   2.576  0.7786  0.1423  0.2844
   70MOL0     C 9161   6.602   8.013   2.604  0.5954  1.2200  0.7910
   70MOL0     C 9162   6.995   7.933   2.881  0.1176  0.3083  0.2352
   70MOL0     C 9163   7.076   8.019   2.804 -0.7734  0.6172  0.2351
   70MOL0     C 9164   7.218   7.994   2.811 -0.4195 -0.2489 -0.0345
   70MOL0     C 9165   7.273   7.902   2.895 -0.0873 -0.2243 -1.0261
   70MOL0     O 9166   7.411   7.894   2.887  0.2515  0.6052  0.3170
   70MOL0     C 9167   7.482   7.779   2.938  0.8119 -0.1088  0.6131
   70MOL0     C 9168   7.595   7.753   2.851 -0.5640  0.3391 -0.0725
   70MOL0     C 9169   7.709   7.860   2.840 -0.5561  0.6670  0.1867
   70MOL0     C 9170   7.815   7.816   2.733 -1.1285 -0.7630 -0.0412
   70MOL0     C 9171   7.917   7.929   2.717 -0.9663  0.7010 -0.4995
   70MOL0     C 9172   7.985   8.024   2.693 -0.1759 -0.4974  0.7584
   70MOL0     C 9173   7.195   7.815   2.971 -0.4073  0.4168 -0.0060
   70MOL0     C 9174   7.057   7.825   2.952  0.1095  0.5633 -0.4721
   70MOL0     H 9175   6.584   8.013   2.942 -0.2209  0.3297  0.2521
   70MOL0     H 9176   6.338   7.993   2.890 -2.2758 -1.7582 -2.8885
   70MOL0     H 9177   6.286   7.800   2.536  2.5198  2.2479 -3.3373
   70MOL0     H 9178   6.216   7.945   2.467 -2.7273 -1.1504 -1.1087
   70MOL0     H 9179   6.052   7.737   2.626  1.3853 -0.1966  0.4198
   70MOL0     H 9180   6.049   7.770   2.456  3.2243 -3.1361  0.3304
   70MOL0     H 9181   5.981   8.011   2.513  0.8893 -0.1859  0.4224
   70MOL0     H 9182   5.945   7.962   2.679 -0.6700 -0.4850 -0.5666
   70MOL0     H 9183   5.838   7.819   2.434 -0.9533 -0.9331  0.8995
   70MOL0     H 9184   5.796   7.805   2.615  1.4853  0.2366  0.3432
   70MOL0     H 9185   5.742   8.006   2.413 -0.8129  0.8360  0.8044
   70MOL0     H 9186   5.719   8.052   2.582 -0.6421 -1.1054  0.5301
   70MOL0     H 9187   5.551   7.875   2.611 -2.7168 -0.8356 -1.1749
   70MOL0     H 9188   5.569   7.831   2.448 -2.1800  0.8153 -1.0887
   70MOL0     H 9189   5.505   8.123   2.512  1.8916  0.5412 -1.9278
   70MOL0     H 9190   5.488   8.026   2.363  1.2998  0.2146  0.7242
   70MOL0     H 9191   5.269   8.090   2.475 -1.1482 -0.2513 -0.1497
   70MOL0     H 9192   5.323   8.028   2.623  1.3470  0.6313 -0.2735
   70MOL0     H 9193   5.333   7.750   2.643  1.6921  0.7622 -0.3728
   70MOL0     H 9194   5.150   7.468   2.427 -0.7494 -2.3303  1.8973
   70MOL0     H 9195   5.188   7.513   2.602  1.1341 -0.9028  0.0040
   70MOL0     H 9196   5.409   7.517   2.399 -0.4982 -2.2355 -1.2629
   70MOL0     H 9197   5.349   7.357   2.472  1.5238  0.1108 -0.2716
   70MOL0     H 9198   5.492   7.575   2.629  2.6532 -1.0663  0.5938
   70MOL0     H 9199   5.393   7.449   2.707 -0.9745 -1.1503 -0.2913
   70MOL0     H 9200   5.640   7.444   2.542  2.3451 -2.2017  0.5598
   70MOL0     H 9201   5.551   7.291   2.554 -1.3143 -0.1854 -0.6954
   70MOL0     H 9202   5.747   7.208   2.553 -0.4552 -0.3225 -0.1350
   70MOL0     H 9203   5.951   7.070   2.616  2.5005  0.9769 -0.0882
   70MOL0     H 9204   6.345   7.060   2.682  0.7289  2.6605  2.6031
   70MOL0     H 9205   6.562   6.976   2.746  1.2555 -2.2173 -0.1328
   70MOL0     H 9206   6.733   6.598   2.859  0.2773 -0.2554  0.4048
   70MOL0     H 9207   6.553   6.562   2.885  0.2533 -0.2870  0.2216
   70MOL0     H 9208   6.669   6.509   3.077 -0.8462 -0.4922  0.3262
   70MOL0     H 9209   6.582   6.659   3.104  0.2288 -1.7328  1.5954
   70MOL0     H 9210   6.767   6.672   3.216  0.4094 -0.2545  0.4352
   70MOL0     H 9211   6.788   6.795   3.090  1.0823  0.2624  0.8516
   70MOL0     H 9212   6.920   6.523   3.118 -1.5155 -0.6633  0.2981
   70MOL0     H 9213   6.935   6.610   2.961 -2.1120 -0.4303 -0.3439
   70MOL0     H 9214   6.993   6.756   3.229 -1.8903 -0.1133 -0.0304
   70MOL0     H 9215   7.031   6.799   3.054  1.0303 -0.0294  0.6673
   70MOL0     H 9216   7.196   6.622   3.047  1.2816  2.7433  0.3680
   70MOL0     H 9217   7.137   6.555   3.203 -3.0506  0.3585 -0.1015
   70MOL0     H 9218   7.265   6.826   3.167  0.9010  1.2149  0.2559
   70MOL0     H 9219   7.210   6.749   3.321  1.2367 -1.8975  1.6143
   70MOL0     H 9220   7.368   6.560   3.282 -0.6081  0.1627 -1.4758
   70MOL0     H 9221   7.458   6.707   3.317  0.3650 -3.5272  1.7475
   70MOL0     H 9222   6.370   6.647   2.943 -2.3915  0.8548 -0.1982
   70MOL0     H 9223   6.156   6.735   2.859  1.0400 -2.5899 -0.2053
   70MOL0     H 9224   5.949   7.225   3.012 -0.7631  3.3345  0.5601
   70MOL0     H 9225   5.764   7.371   2.958 -0.4931  0.5431 -0.6557
   70MOL0     H 9226   6.413   7.996   2.476 -0.8459 -1.5542  0.8694
   70MOL0     H 9227   6.663   8.010   2.515  0.8317  2.7170  0.8820
   70MOL0     H 9228   7.038   8.102   2.745 -0.6427 -0.6356 -1.7131
   70MOL0     H 9229   7.274   8.062   2.748 -1.3170 -0.5074 -1.1521
   70MOL0     H 9230   7.425   7.685   2.934  2.2764 -0.9790 -1.0920
   70MOL0     H 9231   7.506   7.791   3.044  2.7071 -1.7042  0.4009
   70MOL0     H 9232   7.642   7.658   2.879  0.1470  0.8988  0.6999
   70MOL0     H 9233   7.561   7.738   2.749  0.5930  2.2531 -0.8059
   70MOL0     H 9234   7.766   7.865   2.934 -0.5306  1.8583  0.1326
   70MOL0     H 9235   7.674   7.963   2.823  0.9169  0.8829 -1.9392
   70MOL0     H 9236   7.874   7.734   2.775 -0.8636  0.9939  3.4529
   70MOL0     H 9237   7.782   7.789   2.633 -2.2548  1.2755 -0.2768
   70MOL0     H 9238   8.027   8.122   2.688 -1.8726  0.2181 -0.8761
   70MOL0     H 9239   7.239   7.739   3.035  1.2569 -1.3424 -3.0000
   70MOL0     H 9240   6.994   7.749   2.997  0.1129  1.5257  1.2463
   71MOL0     O 9241  10.739   9.757   6.431 -0.1625 -0.0274  0.9030
   71MOL0     C 9242  10.728   9.649   6.374 -0.1426  0.3150  0.4332
   71MOL0     O 9243  10.629   9.568   6.379  0.3998  0.6762 -0.3026
   71MOL0     C 9244  10.517   9.571   6.448  0.0105 -0.5079 -0.9459
   71MOL0     C 9245  10.415   9.477   6.417  0.2406  0.0567  0.2753
   71MOL0     C 9246  10.296   9.480   6.491  0.0571 -0.3299 -0.5889
   71MOL0     C 9247  10.275   9.575   6.604 -0.0410 -0.7289 -0.2667
   71MOL0     O 9248  10.145   9.585   6.655 -0.0006 -0.1748 -0.8227
   71MOL0     C 9249  10.119   9.623   6.787  0.8778 -0.8799 -0.4444
   71MOL0     C 9250  10.079   9.484   6.846  0.1295  0.2599 -0.4281
   71MOL0     C 9251   9.975   9.488   6.956 -0.1692 -0.3261 -0.1436
   71MOL0     C 9252   9.914   9.355   6.985 -0.8545 -0.3718 -0.9884
   71MOL0     C 9253   9.785   9.328   6.898  0.0134 -0.7948 -0.3783
   71MOL0     C 9254   9.733   9.186   6.919  0.7049 -0.2745 -0.8220
   71MOL0     C 9255   9.638   9.147   6.815 -0.1770 -0.4375  0.0988
   71MOL0     C 9256   9.694   9.149   6.674 -0.8192 -0.2110  0.3842
   71MOL0     N 9257   9.625   9.066   6.574  0.8316  0.4493  0.2402
   71MOL0     C 9258   9.516   9.114   6.507  0.0617  0.0189  0.1952
   71MOL0     C 9259   9.470   9.016   6.422 -0.2344 -0.5408 -0.3679
   71MOL0     C 9260   9.356   9.029   6.332 -0.1060 -0.4849  1.0330
   71MOL0     C 9261   9.221   8.965   6.373 -0.5610 -0.2671  0.3737
   71MOL0     C 9262   9.184   8.998   6.521 -0.7782  0.3704 -0.1472
   71MOL0     C 9263   9.029   8.957   6.557 -0.1301  0.7680 -0.9753
   71MOL0     O 9264   8.989   8.979   6.691  0.1078 -0.4683  0.3284
   71MOL0     C 9265   8.896   8.911   6.756  0.0300  0.6667 -1.2637
   71MOL0     C 9266   8.771   8.875   6.686  0.8885  0.1338  0.7261
   71MOL0     C 9267   8.657   8.828   6.755  0.3256 -0.3696 -0.2343
   71MOL0     C 9268   8.678   8.796   6.895  0.9851 -0.3293  0.6571
   71MOL0     C 9269   8.562   8.739   6.982 -0.3512  0.3466 -0.2657
   71MOL0     O 9270   8.442   8.723   6.925 -0.7515  0.6969 -0.1204
   71MOL0     C 9271   8.333   8.700   6.998  0.2366  0.0109  0.0623
   71MOL0     C 9272   8.218   8.746   6.930 -0.1240 -1.1767 -0.3711
   71MOL0     C 9273   8.090   8.724   6.986  0.0342 -0.1888 -0.1633
   71MOL0     C 9274   8.072   8.648   7.106  0.1612  0.1547 -0.1742
   71MOL0     O 9275   7.944   8.605   7.144  0.3404  0.0536  1.0358
   71MOL0     C 9276   7.928   8.506   7.250  0.1329 -0.2618  0.6211
   71MOL0     C 9277   7.973   8.359   7.209  0.5101  0.8270  0.2002
   71MOL0     C 9278   7.946   8.242   7.308  0.2823  0.2518 -0.0315
   71MOL0     C 9279   7.988   8.112   7.240  0.1420 -0.4712  0.1468
   71MOL0     C 9280   8.012   7.997   7.345 -0.1092 -0.9664  0.0312
   71MOL0     C 9281   7.873   7.935   7.393  0.6522  0.2495  0.7318
   71MOL0     C 9282   7.896   7.837   7.517  0.2695  0.4942  0.3476
   71MOL0     C 9283   7.762   7.756   7.531  0.1183  0.0863  0.6251
   71MOL0    Cl 9284   7.638   7.869   7.581 -0.1567 -0.0471  0.0610
   71MOL0     C 9285   8.186   8.607   7.174 -0.0935 -0.3911 -0.0681
   71MOL0     C 9286   8.309   8.638   7.125 -0.6372  0.7084  1.3745
   71MOL0     O 9287   8.602   8.677   7.084  0.0241 -0.7993 -0.3823
   71MOL0     C 9288   8.800   8.820   6.953  0.8329  0.6973 -0.2934
   71MOL0     C 9289   8.904   8.880   6.890  0.2788  0.0110 -0.0436
   71MOL0     N 9290   9.566   8.915   6.435  0.7360 -0.0973 -0.4572
   71MOL0     N 9291   9.643   8.935   6.534 -0.3611 -0.1126  0.9022
   71MOL0     C 9292  10.373   9.662   6.634  0.3158  0.0611 -1.2347
   71MOL0     C 9293  10.490   9.660   6.552 -0.4310 -0.0741  0.0312
   71MOL0     C 9294  10.839   9.603   6.288  0.1027 -0.7258 -0.3449
   71MOL0     C 9295  10.831   9.495   6.208  0.2464 -0.6363  0.0236
   71MOL0     C 9296  10.947   9.461   6.136  0.3985 -0.1933 -0.1253
   71MOL0     C 9297  11.065   9.542   6.130 -0.4708  0.5416  0.5039
   71MOL0     O 9298  11.169   9.491   6.056  0.2950  0.1573 -0.2303
   71MOL0     C 9299  11.256   9.585   5.988 -0.0717 -0.2151 -0.5279
   71MOL0     C 9300  11.378   9.602   6.077  0.3785 -0.0552  0.7954
   71MOL0     C 9301  11.459   9.725   6.035 -0.3058 -0.3419 -0.1307
   71MOL0     C 9302  11.610   9.701   6.063 -0.2938  0.3944  0.3505
   71MOL0     C 9303  11.695   9.828   6.042  0.1331 -0.6889 -0.8331
   71MOL0     C 9304  11.751   9.937   6.032  0.4974  0.5613 -0.1637
   71MOL0     C 9305  11.064   9.663   6.197 -0.0897 -0.0379 -0.4538
   71MOL0     C 9306  10.959   9.685   6.291  0.5228  0.0499 -0.0304
   71MOL0     H 9307  10.442   9.397   6.349  0.2889 -0.1315  0.5170
   71MOL0     H 9308  10.212   9.414   6.474  0.2108 -0.6537 -0.1062
   71MOL0     H 9309  10.032   9.689   6.795  0.2036 -1.8005 -0.0772
   71MOL0     H 9310  10.208   9.670   6.829 -0.1635  1.9189 -1.1016
   71MOL0     H 9311  10.172   9.435   6.877 -0.4315 -1.0692 -0.7538
   71MOL0     H 9312  10.039   9.420   6.766  1.6684 -0.3341 -0.7673
   71MOL0     H 9313   9.897   9.557   6.922 -0.4374 -0.0419  0.9978
   71MOL0     H 9314  10.015   9.530   7.049  2.1512  1.4671 -1.8380
   71MOL0     H 9315   9.996   9.283   6.978  1.6403  1.8331  2.0708
   71MOL0     H 9316   9.876   9.359   7.088 -0.6010  0.3113 -0.9144
   71MOL0     H 9317   9.816   9.343   6.795 -0.4808 -1.3084 -0.6073
   71MOL0     H 9318   9.711   9.402   6.930 -0.5504 -0.8057 -1.6025
   71MOL0     H 9319   9.683   9.172   7.016 -1.3297  2.9342 -1.2335
   71MOL0     H 9320   9.816   9.115   6.919  0.4768 -0.5752  0.4706
   71MOL0     H 9321   9.610   9.045   6.842  0.4644 -0.2557  1.5611
   71MOL0     H 9322   9.557   9.219   6.827 -0.1631  0.2906 -3.2411
   71MOL0     H 9323   9.800   9.122   6.673 -1.1145 -1.5225  1.4291
   71MOL0     H 9324   9.689   9.253   6.641  1.2533 -0.5823 -1.3305
   71MOL0     H 9325   9.469   9.212   6.513 -1.2166 -0.6317  1.6267
   71MOL0     H 9326   9.391   8.975   6.243 -0.9687  0.6408 -0.0289
   71MOL0     H 9327   9.347   9.135   6.307  2.1320 -0.2503  1.0492
   71MOL0     H 9328   9.228   8.855   6.376 -0.2290 -0.2469  3.1706
   71MOL0     H 9329   9.138   9.004   6.313 -0.3609  1.1802  0.9984
   71MOL0     H 9330   9.258   8.948   6.584  0.4554 -0.1136 -1.8977
   71MOL0     H 9331   9.186   9.106   6.535 -0.1262  0.3452  0.0097
   71MOL0     H 9332   9.030   8.848   6.555  0.3683  0.5720  2.9081
   71MOL0     H 9333   8.961   9.005   6.486 -3.0328 -0.8959  0.5377
   71MOL0     H 9334   8.766   8.896   6.579 -2.6552  1.4103  1.0234
   71MOL0     H 9335   8.557   8.835   6.712  0.1118 -1.9995 -0.0888
   71MOL0     H 9336   8.212   8.801   6.837 -4.2646 -1.5544 -0.5294
   71MOL0     H 9337   7.998   8.765   6.945  0.3393  1.0694  0.3444
   71MOL0     H 9338   7.820   8.508   7.271 -1.5349  1.5788 -5.8171
   71MOL0     H 9339   7.982   8.543   7.338  1.5938  0.5868 -0.5922
   71MOL0     H 9340   8.081   8.370   7.193 -0.0260  0.9826 -4.5598
   71MOL0     H 9341   7.939   8.344   7.106  0.7857  2.6701 -0.1930
   71MOL0     H 9342   7.839   8.229   7.321 -0.1865 -0.0244 -3.3196
   71MOL0     H 9343   8.007   8.251   7.399  1.3391 -3.3102 -0.2494
   71MOL0     H 9344   7.911   8.086   7.166  2.9937  0.4573 -3.4259
   71MOL0     H 9345   8.080   8.125   7.182  0.3948  0.6872  0.7673
   71MOL0     H 9346   8.068   8.035   7.431 -2.9102  3.7345  0.1200
   71MOL0     H 9347   8.073   7.931   7.283  3.5031  3.4116 -1.6183
   71MOL0     H 9348   7.829   7.882   7.309  1.3268 -0.7314  0.9899
   71MOL0     H 9349   7.803   8.010   7.433  0.6760 -0.0708  1.3868
   71MOL0     H 9350   7.985   7.781   7.486  0.2603  0.5207  0.2713
   71MOL0     H 9351   7.913   7.897   7.606  0.5336 -2.7651  2.6523
   71MOL0     H 9352   7.784   7.681   7.608  2.7787  0.2429  0.1062
   71MOL0     H 9353   7.734   7.701   7.441  4.7378  1.4884 -1.9972
   71MOL0     H 9354   8.180   8.557   7.270 -4.4585  4.5207  2.6928
   71MOL0     H 9355   8.397   8.600   7.177  0.8592 -3.1238 -3.1638
   71MOL0     H 9356   8.809   8.806   7.061 -0.5949 -1.9598 -0.4479
   71MOL0     H 9357   8.991   8.907   6.950 -0.3522  3.7122 -0.6139
   71MOL0     H 9358  10.346   9.741   6.704 -1.0509 -0.3286 -1.2846
   71MOL0     H 9359  10.562   9.737   6.578  0.3364  0.5646 -3.4540
   71MOL0     H 9360  10.739   9.440   6.194 -1.1254  1.8299 -1.1985
   71MOL0     H 9361  10.955   9.370   6.078  1.1107 -1.1287  1.3825
   71MOL0     H 9362  11.212   9.684   5.969  3.1413  0.6287 -5.0416
   71MOL0     H 9363  11.289   9.558   5.887 -1.7252  0.5791 -1.3374
   71MOL0     H 9364  11.361   9.600   6.185  2.5920  1.4273  1.2353
   71MOL0     H 9365  11.441   9.514   6.058  0.9766 -0.1998  3.1737
   71MOL0     H 9366  11.426   9.811   6.095  0.5954 -0.0795  0.0085
   71MOL0     H 9367  11.456   9.749   5.928  0.9964 -0.6001 -0.2312
   71MOL0     H 9368  11.622   9.674   6.168  1.7554  1.4956  0.4632
   71MOL0     H 9369  11.656   9.626   5.998 -0.5491  0.3355  0.2400
   71MOL0     H 9370  11.807  10.029   6.027 -1.2532  1.6697 -0.4280
   71MOL0     H 9371  11.152   9.725   6.198 -0.2965  0.2584  1.2772
   71MOL0     H 9372  10.973   9.756   6.372 -0.5472 -0.9905  1.1242
   72MOL0     O 9373  10.169   9.777  11.190 -0.4035  0.3118 -0.2232
   72MOL0     C 9374  10.240   9.867  11.151  0.1701 -0.4008 -0.1049
   72MOL0     O 9375  10.203   9.992  11.136  0.4266  0.0035  0.2408
   72MOL0     C 9376  10.064  10.028  11.123  0.6951 -0.2886  0.1954
   72MOL0     C 9377   9.966   9.948  11.052  0.6554 -0.3331  0.2712
   72MOL0     C 9378   9.835   9.980  11.046  0.7378 -1.1904 -0.6270
   72MOL0     C 9379   9.785  10.084  11.124 -0.0599  0.2806 -0.4781
   72MOL0     O 9380   9.664  10.141  11.115  0.2713  0.4615 -0.5131
   72MOL0     C 9381   9.555  10.072  11.055 -0.0537  0.3012 -1.0153
   72MOL0     C 9382   9.423  10.128  11.085 -0.4980  0.3064  0.9248
   72MOL0     C 9383   9.326  10.024  11.044  0.1671  1.6854  0.6731
   72MOL0     C 9384   9.181  10.070  11.060  0.7657 -0.3750  0.8110
   72MOL0     C 9385   9.085   9.963  11.029  0.8336  0.0971  0.1663
   72MOL0     C 9386   8.941  10.019  11.035 -0.6479  0.0292 -0.2685
   72MOL0     C 9387   8.897  10.069  10.892 -0.5150  1.3343 -0.7538
   72MOL0     C 9388   8.759  10.145  10.892  0.6611  0.3652  0.4251
   72MOL0     N 9389   8.649  10.052  10.917  0.0400  0.3029  0.6872
   72MOL0     C 9390   8.616   9.979  11.027  0.0376  0.1643 -0.0213
   72MOL0     C 9391   8.517   9.904  10.999  1.0174 -0.0070 -0.1558
   72MOL0     C 9392   8.436   9.815  11.083  0.1259  0.4681  0.4282
   72MOL0     C 9393   8.286   9.860  11.086 -0.2783 -1.4777  0.0156
   72MOL0     C 9394   8.216   9.776  11.188 -0.8134  0.7286 -0.8871
   72MOL0     C 9395   8.071   9.795  11.167 -0.0707 -0.1827 -0.2403
   72MOL0     O 9396   7.994   9.721  11.262 -0.1887  0.3465  0.2046
   72MOL0     C 9397   7.858   9.743  11.258  0.7026 -0.6106 -0.6373
   72MOL0     C 9398   7.782   9.815  11.162 -0.1529 -0.8896  0.3886
   72MOL0     C 9399   7.643   9.826  11.185 -0.7806 -0.7767 -0.8236
   72MOL0     C 9400   7.574   9.772  11.295 -0.2164  0.8500 -0.3998
   72MOL0     C 9401   7.434   9.770  11.317 -0.2753 -0.0688  0.0187
   72MOL0     O 9402   7.360   9.813  11.431 -0.8732  0.2150  0.1266
   72MOL0     C 9403   7.223   9.805  11.438 -0.1587  0.1774  0.2052
   72MOL0     C 9404   7.141   9.864  11.337  0.1068 -0.3058 -0.6048
   72MOL0     C 9405   6.993   9.861  11.340  0.1961  0.0412  0.8041
   72MOL0     C 9406   6.939   9.814  11.453 -0.2220  0.1020  0.3987
   72MOL0     O 9407   6.805   9.794  11.463  0.0547  0.1733 -0.9072
   72MOL0     C 9408   6.769   9.652  11.447  0.1376 -0.4714  0.5823
   72MOL0     C 9409   6.641   9.624  11.527 -0.4385 -0.2275  0.0010
   72MOL0     C 9410   6.588   9.477  11.513 -0.1297  0.4982  0.1165
   72MOL0     C 9411   6.464   9.460  11.609  0.2583 -0.7775 -1.1415
   72MOL0     C 9412   6.378   9.342  11.559  0.1850 -1.2900 -0.0202
   72MOL0     C 9413   6.242   9.331  11.626 -0.0185  0.0832 -0.2454
   72MOL0     C 9414   6.204   9.184  11.651  0.0946  0.8268  0.2733
   72MOL0     C 9415   6.105   9.166  11.759  0.5913  1.1604 -0.2554
   72MOL0    Cl 9416   6.171   9.183  11.920  0.2328 -0.1210 -0.2689
   72MOL0     C 9417   7.025   9.772  11.553  0.1756 -0.0358 -0.0210
   72MOL0     C 9418   7.166   9.759  11.556  0.8010 -0.3038 -0.3885
   72MOL0     O 9419   7.384   9.697  11.229  0.0006 -0.1458  0.2191
   72MOL0     C 9420   7.651   9.703  11.384 -0.0744  0.6605  0.6851
   72MOL0     C 9421   7.788   9.681  11.365 -0.0014 -0.3994 -0.0676
   72MOL0     N 9422   8.478   9.934  10.875  0.5433  0.3269 -0.6043
   72MOL0     N 9423   8.558  10.025  10.818  0.5148  0.2121 -0.2581
   72MOL0     C 9424   9.872  10.157  11.205  0.4009 -0.5203  0.3661
   72MOL0     C 9425  10.007  10.126  11.204  0.0063  0.2988 -0.7112
   72MOL0     C 9426  10.379   9.836  11.116  1.0212 -0.3437 -0.1194
   72MOL0     C 9427  10.461   9.746  11.193  0.6954  0.5209 -0.6376
   72MOL0     C 9428  10.587   9.719  11.143 -0.7241  0.7501 -0.1180
   72MOL0     C 9429  10.651   9.773  11.036  0.2263 -0.5363  0.0010
   72MOL0     O 9430  10.770   9.733  10.985 -0.3454  0.3815  0.4167
   72MOL0     C 9431  10.809   9.596  11.002 -1.1684 -1.3187 -0.0453
   72MOL0     C 9432  10.943   9.562  10.929 -0.1117  0.3691 -0.1485
   72MOL0     C 9433  11.056   9.618  11.017  0.6084 -0.8553 -0.3646
   72MOL0     C 9434  11.200   9.602  10.956  0.0967 -0.3281  0.5387
   72MOL0     C 9435  11.296   9.614  11.064  1.1003  0.1167  0.1213
   72MOL0     C 9436  11.375   9.617  11.159  0.1781 -0.2768 -0.2719
   72MOL0     C 9437  10.572   9.873  10.972 -0.5399  0.3428 -0.5260
   72MOL0     C 9438  10.436   9.899  11.008 -0.9614 -0.4574 -1.0852
   72MOL0     H 9439   9.999   9.856  11.005 -0.5004 -0.3435 -0.5405
   72MOL0     H 9440   9.770   9.913  10.990  1.2084 -1.0183 -1.3978
   72MOL0     H 9441   9.557   9.978  11.109 -2.0065  1.5869  1.5055
   72MOL0     H 9442   9.586  10.070  10.950  0.1234  1.1552 -0.9903
   72MOL0     H 9443   9.415  10.225  11.034  1.0731 -0.2253 -0.4135
   72MOL0     H 9444   9.421  10.144  11.193 -2.1590  1.6606  0.7491
   72MOL0     H 9445   9.343   9.936  11.107  1.1729  2.7106  1.8971
   72MOL0     H 9446   9.355  10.006  10.940  0.8801 -0.6411  1.2154
   72MOL0     H 9447   9.168  10.111  11.161  2.1362 -4.3485  2.8110
   72MOL0     H 9448   9.152  10.150  10.992  0.3065  0.1132  1.5627
   72MOL0     H 9449   9.074   9.886  11.105 -0.7377  1.0493  0.9611
   72MOL0     H 9450   9.108   9.920  10.931  1.9031  1.0873 -0.0438
   72MOL0     H 9451   8.938  10.101  11.108 -3.1261 -0.2288  0.0018
   72MOL0     H 9452   8.876   9.943  11.079 -1.2601 -1.0159 -2.8118
   72MOL0     H 9453   8.970  10.133  10.843  3.0043 -0.9447  1.1017
   72MOL0     H 9454   8.903   9.984  10.823 -0.9798  1.6435 -1.1847
   72MOL0     H 9455   8.747  10.206  10.802  1.6522  0.6669  0.4848
   72MOL0     H 9456   8.765  10.223  10.969  1.0008 -0.7109  1.5273
   72MOL0     H 9457   8.676   9.982  11.117 -1.0197 -0.8632  0.7524
   72MOL0     H 9458   8.477   9.814  11.184  1.0466  0.0131  0.0661
   72MOL0     H 9459   8.433   9.713  11.044 -1.5815  0.8659 -0.5765
   72MOL0     H 9460   8.235   9.843  10.991 -0.9540 -0.5736  0.1977
   72MOL0     H 9461   8.287   9.966  11.115 -3.1617 -1.8035  1.7137
   72MOL0     H 9462   8.254   9.674  11.174  1.1290  1.6018 -2.5693
   72MOL0     H 9463   8.244   9.811  11.288 -1.3749  3.2925 -1.5395
   72MOL0     H 9464   8.050   9.765  11.064 -0.7468  0.4596 -0.2927
   72MOL0     H 9465   8.062   9.903  11.182 -0.7581 -0.3549  0.7139
   72MOL0     H 9466   7.821   9.870  11.077  0.9499  1.3679  2.2499
   72MOL0     H 9467   7.582   9.885  11.117 -0.9023  0.9557  0.7033
   72MOL0     H 9468   7.184   9.924  11.258 -2.4459  1.3463 -0.8317
   72MOL0     H 9469   6.926   9.895  11.262 -2.0242 -0.1486  2.5364
   72MOL0     H 9470   6.851   9.590  11.484  0.6020  0.3266  0.9120
   72MOL0     H 9471   6.764   9.619  11.343  4.2302  0.6588 -0.1336
   72MOL0     H 9472   6.560   9.689  11.494 -0.8312 -0.4348  0.5488
   72MOL0     H 9473   6.661   9.641  11.633 -0.6554 -0.0505  0.0125
   72MOL0     H 9474   6.659   9.396  11.534 -0.2954  0.3547  0.1237
   72MOL0     H 9475   6.559   9.466  11.409  1.5340 -1.3020 -0.1989
   72MOL0     H 9476   6.506   9.453  11.709 -0.5676  1.1148 -0.6093
   72MOL0     H 9477   6.393   9.543  11.603  0.8485 -0.0149  1.3828
   72MOL0     H 9478   6.440   9.255  11.584  0.6906 -0.7038  0.8041
   72MOL0     H 9479   6.356   9.347  11.452  1.3741 -3.7624 -0.4508
   72MOL0     H 9480   6.170   9.392  11.571  0.1026 -1.6919 -2.5525
   72MOL0     H 9481   6.253   9.378  11.724 -1.3313  1.4011 -0.7104
   72MOL0     H 9482   6.155   9.153  11.558  0.2297 -1.3135  0.8516
   72MOL0     H 9483   6.288   9.117  11.673 -0.4351 -0.4523 -1.3772
   72MOL0     H 9484   6.057   9.068  11.750  1.1608  0.9054 -0.6040
   72MOL0     H 9485   6.028   9.243  11.746 -0.3450 -0.0890 -2.7689
   72MOL0     H 9486   6.989   9.737  11.649  3.1414 -1.7928  0.5865
   72MOL0     H 9487   7.212   9.734  11.651  1.4497 -0.5822 -0.7683
   72MOL0     H 9488   7.608   9.649  11.468 -0.3984  0.0963  0.1667
   72MOL0     H 9489   7.833   9.620  11.443 -3.7381 -1.2707  1.6896
   72MOL0     H 9490   9.821  10.241  11.251 -2.4946 -1.2248 -1.3022
   72MOL0     H 9491  10.071  10.184  11.270 -1.8600  1.1812  0.4439
   72MOL0     H 9492  10.438   9.704  11.290  0.0575 -0.3132 -1.1336
   72MOL0     H 9493  10.626   9.641  11.208 -2.2160  2.4391  3.0815
   72MOL0     H 9494  10.732   9.533  10.956 -1.4229 -0.6707 -0.5227
   72MOL0     H 9495  10.816   9.573  11.108 -1.9398  2.8125  1.0650
   72MOL0     H 9496  10.961   9.455  10.919  2.4544  0.9171 -2.8966
   72MOL0     H 9497  10.945   9.612  10.832  2.0817 -0.0352 -0.3558
   72MOL0     H 9498  11.044   9.575  11.116 -1.8200  1.6395  0.5566
   72MOL0     H 9499  11.026   9.721  11.038 -0.1817 -1.3718  1.1458
   72MOL0     H 9500  11.212   9.505  10.906 -0.8546  0.9296 -2.3391
   72MOL0     H 9501  11.210   9.685  10.885  2.5235  0.7090  1.9699
   72MOL0     H 9502  11.449   9.598  11.235  2.0929  3.1932 -1.0553
   72MOL0     H 9503  10.605   9.923  10.882 -1.0435  0.7556 -0.4841
   72MOL0     H 9504  10.381   9.971  10.948 -1.4971 -1.4842 -1.8729
   73MOL0     O 9505   9.511   6.671   5.521 -0.0324  0.2553 -0.2042
   73MOL0     C 9506   9.477   6.578   5.452  0.6830 -0.1282  1.5809
   73MOL0     O 9507   9.556   6.482   5.401 -0.2807 -0.9308  0.3169
   73MOL0     C 9508   9.691   6.473   5.417  0.4588 -0.1445  0.8615
   73MOL0     C 9509   9.785   6.566   5.457  0.0743 -0.7856  0.0281
   73MOL0     C 9510   9.916   6.524   5.482 -0.3116  0.2910 -0.1078
   73MOL0     C 9511   9.961   6.388   5.442  0.2251  0.5443 -0.3887
   73MOL0     O 9512  10.096   6.353   5.462 -0.1115  0.7591 -0.5471
   73MOL0     C 9513  10.176   6.347   5.341 -0.6543  0.4217  0.9008
   73MOL0     C 9514  10.158   6.213   5.274 -0.4331 -0.0549  0.9022
   73MOL0     C 9515  10.274   6.169   5.187  0.3670  0.3445  0.0710
   73MOL0     C 9516  10.399   6.123   5.266  0.6305  0.4514 -0.3500
   73MOL0     C 9517  10.520   6.093   5.172  0.4973 -0.5286  0.2123
   73MOL0     C 9518  10.641   6.025   5.236  0.7897 -0.1128  0.1009
   73MOL0     C 9519  10.727   5.976   5.119 -0.0516 -0.9441  0.2017
   73MOL0     C 9520  10.868   5.946   5.160  0.1935  0.4113 -0.3579
   73MOL0     N 9521  10.942   6.063   5.202  0.3887 -0.7730 -0.3540
   73MOL0     C 9522  10.999   6.152   5.120  0.6942  0.8276 -0.0489
   73MOL0     C 9523  11.071   6.235   5.202  0.3783 -0.4216  0.3088
   73MOL0     C 9524  11.155   6.355   5.166 -0.4795  0.4674  0.1707
   73MOL0     C 9525  11.097   6.479   5.233  0.6793 -0.0543  1.0608
   73MOL0     C 9526  11.155   6.609   5.156 -0.1648  0.0870 -0.1674
   73MOL0     C 9527  11.289   6.646   5.215  0.1826 -0.0245 -0.8337
   73MOL0     O 9528  11.332   6.769   5.167  0.0000  0.0290 -0.3436
   73MOL0     C 9529  11.457   6.805   5.212  0.0812  0.1842  0.2430
   73MOL0     C 9530  11.559   6.754   5.136 -0.9915  0.0992 -0.5835
   73MOL0     C 9531  11.687   6.768   5.176 -0.8344  0.0167  0.2338
   73MOL0     C 9532  11.723   6.849   5.275 -0.5197  0.5752 -0.0939
   73MOL0     C 9533  11.863   6.874   5.319  0.1805 -0.8494  0.7308
   73MOL0     O 9534  11.883   6.868   5.456  0.1798 -0.3025 -0.3420
   73MOL0     C 9535  12.010   6.866   5.505 -0.9239 -0.6780 -0.2411
   73MOL0     C 9536  12.059   6.748   5.551 -1.1960 -0.1140 -0.8750
   73MOL0     C 9537  12.196   6.725   5.580 -0.1970 -0.3378  0.1339
   73MOL0     C 9538  12.287   6.833   5.569 -0.1899  0.3147 -0.4494
   73MOL0     O 9539  12.422   6.837   5.599  0.5988  0.2240  0.3835
   73MOL0     C 9540  12.504   6.720   5.598  0.6080  0.0350  0.5968
   73MOL0     C 9541  12.647   6.752   5.617  0.1879 -0.7434  0.6399
   73MOL0     C 9542  12.735   6.634   5.588 -0.7546  0.1824  0.0364
   73MOL0     C 9543  12.877   6.654   5.645 -0.3479 -0.3436  0.4670
   73MOL0     C 9544  12.989   6.556   5.579  0.9933  1.2440  0.4584
   73MOL0     C 9545  13.125   6.614   5.582  0.3968  0.0430 -0.7431
   73MOL0     C 9546  13.213   6.526   5.494 -0.5736 -0.1845 -0.8986
   73MOL0     C 9547  13.339   6.615   5.454 -0.4357  1.1553 -0.1930
   73MOL0    Cl 9548  13.470   6.513   5.384  0.0618  0.3266 -0.3528
   73MOL0     C 9549  12.237   6.954   5.524 -0.0448 -0.4514  0.5488
   73MOL0     C 9550  12.102   6.966   5.476  0.4293 -0.3211  0.3697
   73MOL0     O 9551  11.954   6.894   5.239  1.0006 -0.0197  0.5436
   73MOL0     C 9552  11.620   6.896   5.354  0.5279  0.4276 -0.8299
   73MOL0     C 9553  11.487   6.868   5.333  0.0043 -0.1904 -0.3038
   73MOL0     N 9554  11.045   6.191   5.331 -0.7245 -0.7179  0.0833
   73MOL0     N 9555  10.972   6.087   5.328 -0.1035  0.3851 -0.3032
   73MOL0     C 9556   9.863   6.289   5.411  0.5743  0.0410 -0.1121
   73MOL0     C 9557   9.725   6.334   5.400 -0.1278  0.7180 -0.2456
   73MOL0     C 9558   9.329   6.566   5.420 -0.5719 -0.4803 -0.6163
   73MOL0     C 9559   9.259   6.455   5.359  0.1808  0.4191  0.0088
   73MOL0     C 9560   9.122   6.456   5.344  0.1097 -0.6954 -0.6016
   73MOL0     C 9561   9.053   6.572   5.381 -0.8522 -0.1990 -0.5501
   73MOL0     O 9562   8.920   6.560   5.357 -0.0708  0.2475  0.3744
   73MOL0     C 9563   8.837   6.684   5.369 -0.6765  0.6360 -0.5305
   73MOL0     C 9564   8.841   6.788   5.254 -0.5217 -0.2015 -0.7352
   73MOL0     C 9565   8.705   6.857   5.238  0.1480 -0.0965 -1.1727
   73MOL0     C 9566   8.611   6.815   5.122 -0.6192 -0.3573 -0.1182
   73MOL0     C 9567   8.508   6.920   5.098  0.6919 -0.2655  1.1072
   73MOL0     C 9568   8.437   7.017   5.059 -0.4249  0.0507 -0.1920
   73MOL0     C 9569   9.114   6.682   5.437 -0.3183 -0.4888 -1.2775
   73MOL0     C 9570   9.248   6.675   5.464  0.6171 -0.3302  0.6026
   73MOL0     H 9571   9.760   6.672   5.460  0.0696 -0.8004  1.8762
   73MOL0     H 9572   9.995   6.589   5.518  0.6355 -1.4110  1.0943
   73MOL0     H 9573  10.282   6.362   5.363  0.2843 -0.9288 -2.1202
   73MOL0     H 9574  10.158   6.429   5.272  1.7770 -0.7010 -1.2392
   73MOL0     H 9575  10.069   6.201   5.211  0.5903  0.3495 -0.6974
   73MOL0     H 9576  10.150   6.136   5.350 -1.3446 -1.6504 -0.7249
   73MOL0     H 9577  10.301   6.239   5.107 -3.1460 -0.3393 -1.9018
   73MOL0     H 9578  10.243   6.082   5.129 -0.9510  1.7322 -1.3998
   73MOL0     H 9579  10.428   6.207   5.330  2.2300  0.4070 -0.9553
   73MOL0     H 9580  10.384   6.043   5.338  1.3008  0.6213 -0.0101
   73MOL0     H 9581  10.546   6.186   5.122 -0.7505 -0.2425  0.0466
   73MOL0     H 9582  10.469   6.030   5.097 -0.7195  1.5936 -0.8370
   73MOL0     H 9583  10.599   5.944   5.296 -0.1595  0.8542  0.7800
   73MOL0     H 9584  10.703   6.099   5.287  0.0844 -0.5281  1.6149
   73MOL0     H 9585  10.681   5.887   5.075 -2.0732  0.0044  0.2926
   73MOL0     H 9586  10.733   6.049   5.038  1.3617  0.4594  1.5027
   73MOL0     H 9587  10.931   5.915   5.076  2.0357  1.3165  0.6133
   73MOL0     H 9588  10.867   5.869   5.237 -0.0140 -0.7978 -1.5303
   73MOL0     H 9589  10.996   6.151   5.011 -0.2604  0.8473 -0.0331
   73MOL0     H 9590  11.154   6.377   5.059 -0.9601 -2.5864 -0.5395
   73MOL0     H 9591  11.255   6.336   5.207 -0.5957 -4.0308 -1.1531
   73MOL0     H 9592  11.131   6.482   5.337  3.1671  0.5721  0.2923
   73MOL0     H 9593  10.989   6.471   5.217  0.9087 -1.7588  0.1346
   73MOL0     H 9594  11.177   6.588   5.051  3.9843  0.3591  0.4751
   73MOL0     H 9595  11.097   6.700   5.173  2.2480  1.3820  1.7518
   73MOL0     H 9596  11.355   6.561   5.196 -0.1947 -1.4889  3.3813
   73MOL0     H 9597  11.278   6.649   5.323 -0.3202  0.9575 -0.8975
   73MOL0     H 9598  11.532   6.695   5.050 -2.6836  0.1491 -0.1219
   73MOL0     H 9599  11.763   6.712   5.122 -1.2778 -0.7190  0.3504
   73MOL0     H 9600  11.997   6.659   5.553 -0.4430 -0.6983  2.0474
   73MOL0     H 9601  12.231   6.624   5.596  1.0930  0.2510  1.2379
   73MOL0     H 9602  12.499   6.658   5.508  1.4063  0.1527  0.4553
   73MOL0     H 9603  12.464   6.667   5.684 -1.6413 -0.4222 -0.6607
   73MOL0     H 9604  12.669   6.789   5.718 -0.7640  2.0146 -0.0478
   73MOL0     H 9605  12.670   6.834   5.549 -0.5478  0.1636  1.4424
   73MOL0     H 9606  12.753   6.632   5.480  0.5737  1.0864  0.2150
   73MOL0     H 9607  12.697   6.540   5.629  1.6680 -0.9070 -0.0870
   73MOL0     H 9608  12.908   6.755   5.618  0.1567 -1.1261 -2.1694
   73MOL0     H 9609  12.881   6.659   5.754  0.4264  1.2966  0.3973
   73MOL0     H 9610  12.961   6.528   5.477  1.9057  1.4882  0.1383
   73MOL0     H 9611  12.991   6.457   5.626  3.2059  1.1033  0.1748
   73MOL0     H 9612  13.154   6.621   5.687 -3.5476 -0.6974  0.5569
   73MOL0     H 9613  13.118   6.715   5.539 -0.1425  0.1415 -0.4277
   73MOL0     H 9614  13.238   6.443   5.561 -1.7039  1.6564  2.0056
   73MOL0     H 9615  13.156   6.497   5.406 -1.2013 -0.7217 -0.3209
   73MOL0     H 9616  13.376   6.673   5.538 -0.4521  1.6127 -0.4929
   73MOL0     H 9617  13.307   6.694   5.384 -3.9641  0.3267  0.2953
   73MOL0     H 9618  12.307   7.037   5.527  0.0437 -0.5517  2.1616
   73MOL0     H 9619  12.068   7.053   5.421  3.4374  0.3652 -0.6301
   73MOL0     H 9620  11.644   6.945   5.448  1.0569  0.7136 -1.1145
   73MOL0     H 9621  11.406   6.908   5.393 -0.2102 -2.5954  1.1350
   73MOL0     H 9622   9.871   6.181   5.401  1.1679  0.0210  0.5347
   73MOL0     H 9623   9.664   6.244   5.399  0.1511  0.5250 -1.4618
   73MOL0     H 9624   9.304   6.365   5.318 -2.0821 -1.2884  1.0173
   73MOL0     H 9625   9.066   6.371   5.309 -0.3111  0.3583 -2.6319
   73MOL0     H 9626   8.842   6.752   5.454  0.2908  1.0297 -0.8889
   73MOL0     H 9627   8.736   6.642   5.374  0.1031 -1.4845 -1.5617
   73MOL0     H 9628   8.913   6.858   5.297 -0.7356 -2.0643  3.0707
   73MOL0     H 9629   8.885   6.750   5.161 -1.7353 -0.3357 -1.2869
   73MOL0     H 9630   8.722   6.965   5.233  0.5897 -0.1625 -1.1433
   73MOL0     H 9631   8.652   6.848   5.333  2.0787  2.1917  0.2064
   73MOL0     H 9632   8.672   6.790   5.034 -0.7036 -3.5410  0.6264
   73MOL0     H 9633   8.557   6.726   5.154 -3.6359  1.0424 -0.9688
   73MOL0     H 9634   8.367   7.090   5.025 -0.6882 -0.9176 -1.8522
   73MOL0     H 9635   9.057   6.771   5.464 -1.2012 -1.2682 -0.4867
   73MOL0     H 9636   9.290   6.763   5.512 -0.0315  0.3680 -0.0787
   74MOL0     O 9637   3.762   7.824  11.144 -0.0766  0.0874  0.1135
   74MOL0     C 9638   3.818   7.883  11.236  0.9361 -0.2428  0.4855
   74MOL0     O 9639   3.756   7.959  11.327 -0.1275  0.4391 -1.0506
   74MOL0     C 9640   3.621   7.935  11.357  0.0637  0.7124  0.1288
   74MOL0     C 9641   3.519   7.921  11.262  0.1710  0.4128  0.1238
   74MOL0     C 9642   3.386   7.911  11.304 -0.0595  0.5357 -0.0099
   74MOL0     C 9643   3.350   7.916  11.447 -0.1055 -0.0525  0.3719
   74MOL0     O 9644   3.219   7.929  11.485 -0.0537 -0.0327 -0.1590
   74MOL0     C 9645   3.175   8.002  11.605 -0.2881 -0.2507  0.0531
   74MOL0     C 9646   3.034   8.070  11.591  0.3334  0.4140 -0.2662
   74MOL0     C 9647   3.008   8.132  11.450  0.0160 -0.6231  0.1906
   74MOL0     C 9648   2.866   8.200  11.457 -1.1621  0.9714  0.7058
   74MOL0     C 9649   2.826   8.270  11.324 -0.1068  0.2515 -0.4456
   74MOL0     C 9650   2.691   8.346  11.346  0.3103 -0.6423 -0.1503
   74MOL0     C 9651   2.637   8.396  11.210 -0.1888 -0.9503 -0.4217
   74MOL0     C 9652   2.526   8.495  11.216 -0.1546 -0.2732  0.2389
   74MOL0     N 9653   2.400   8.426  11.224  0.0355 -0.8235  1.0826
   74MOL0     C 9654   2.331   8.408  11.335  0.4738 -0.5770 -0.6569
   74MOL0     C 9655   2.216   8.345  11.303  0.7781  0.2304 -0.5512
   74MOL0     C 9656   2.087   8.311  11.376 -0.0913  0.2794  0.4196
   74MOL0     C 9657   1.960   8.371  11.306  0.5089  0.2439  0.4254
   74MOL0     C 9658   1.832   8.331  11.372 -0.0699  0.1931 -0.0415
   74MOL0     C 9659   1.740   8.447  11.401 -0.3245 -0.3960 -0.1531
   74MOL0     O 9660   1.642   8.402  11.499 -0.1666  0.8220 -0.1141
   74MOL0     C 9661   1.509   8.439  11.496  0.2337  0.1586 -0.3546
   74MOL0     C 9662   1.409   8.349  11.540  1.2916  0.7017  0.2218
   74MOL0     C 9663   1.275   8.385  11.526 -0.0947 -0.8166  0.1642
   74MOL0     C 9664   1.235   8.507  11.485 -0.2028 -0.4217 -0.1550
   74MOL0     C 9665   1.090   8.548  11.469  0.0980  0.1190  0.4414
   74MOL0     O 9666   0.999   8.461  11.504  0.5995  0.0999 -0.3042
   74MOL0     C 9667   0.863   8.493  11.513 -0.3814  0.1017 -0.8645
   74MOL0     C 9668   0.812   8.516  11.642 -0.1190 -0.5604 -0.1000
   74MOL0     C 9669   0.693   8.581  11.658  1.2588 -0.6904  0.0269
   74MOL0     C 9670   0.605   8.589  11.541 -0.5514 -0.2959 -0.2433
   74MOL0     O 9671   0.483   8.648  11.558 -0.3801 -0.6480  0.0693
   74MOL0     C 9672   0.380   8.604  11.477 -0.2976  0.7130  0.3820
   74MOL0     C 9673   0.246   8.629  11.548  0.7278  0.9905  0.3793
   74MOL0     C 9674   0.247   8.569  11.694 -0.6438  0.0912  0.7502
   74MOL0     C 9675   0.281   8.418  11.705 -0.3533 -0.0586  0.1013
   74MOL0     C 9676   0.188   8.336  11.619  0.4117 -0.0344  0.4133
   74MOL0     C 9677   0.152   8.198  11.675  0.0449  0.4411  0.1894
   74MOL0     C 9678   0.033   8.135  11.601  0.1656 -0.0085  0.2261
   74MOL0     C 9679   0.063   8.081  11.463  0.6034  0.8079 -0.2398
   74MOL0    Cl 9680   0.097   8.208  11.339  0.3090  0.5111 -0.2487
   74MOL0     C 9681   0.652   8.531  11.422  0.9482  0.3521  0.3606
   74MOL0     C 9682   0.781   8.497  11.402  0.4244 -0.2825  0.0905
   74MOL0     O 9683   1.062   8.659  11.431  0.0626 -0.0456  0.3205
   74MOL0     C 9684   1.330   8.606  11.451 -0.0109 -0.4169  0.7961
   74MOL0     C 9685   1.464   8.569  11.458 -0.1912 -0.1641 -0.2747
   74MOL0     N 9686   2.231   8.310  11.172 -0.3167  0.2102 -0.1877
   74MOL0     N 9687   2.335   8.368  11.124 -0.6914 -0.1330  0.1130
   74MOL0     C 9688   3.454   7.922  11.537 -0.1417  0.0710 -0.4280
   74MOL0     C 9689   3.589   7.923  11.489  0.2450 -0.2384  0.3615
   74MOL0     C 9690   3.963   7.862  11.225  0.1789 -0.0921  0.0262
   74MOL0     C 9691   4.023   7.782  11.128  0.0186 -0.3496  0.6460
   74MOL0     C 9692   4.156   7.747  11.127  0.6443 -0.1071 -0.3578
   74MOL0     C 9693   4.243   7.803  11.223  0.1447 -0.3190 -0.0128
   74MOL0     O 9694   4.374   7.773  11.244 -0.3113  0.2152  0.2764
   74MOL0     C 9695   4.432   7.687  11.144  0.2133  0.7256 -0.0301
   74MOL0     C 9696   4.583   7.683  11.164  0.1391  0.1655  0.0334
   74MOL0     C 9697   4.630   7.614  11.296  0.0367 -0.9097 -0.1470
   74MOL0     C 9698   4.578   7.692  11.411 -0.1368 -0.4641 -0.1330
   74MOL0     C 9699   4.671   7.668  11.519 -0.5090  0.7131 -0.9797
   74MOL0     C 9700   4.731   7.630  11.617  0.6785  0.0890  1.6201
   74MOL0     C 9701   4.189   7.896  11.318  0.4849 -1.2595 -0.3328
   74MOL0     C 9702   4.045   7.926  11.317 -0.2657  0.5498 -0.1661
   74MOL0     H 9703   3.528   7.917  11.154  0.9385 -0.9252  0.2080
   74MOL0     H 9704   3.304   7.897  11.235 -0.2753 -0.0134  0.3491
   74MOL0     H 9705   3.245   8.084  11.629  0.9272 -0.2031 -3.1580
   74MOL0     H 9706   3.185   7.935  11.691  0.8220 -1.9994 -1.3734
   74MOL0     H 9707   3.025   8.144  11.671  1.0039 -1.3032  1.4805
   74MOL0     H 9708   2.959   7.998  11.624 -0.0121  0.9433  0.1091
   74MOL0     H 9709   3.006   8.058  11.369 -2.2023  0.1219 -0.4927
   74MOL0     H 9710   3.085   8.203  11.421 -0.2450 -1.0644 -1.7323
   74MOL0     H 9711   2.791   8.122  11.476 -0.5424  0.1472 -0.1029
   74MOL0     H 9712   2.864   8.261  11.547 -0.9793 -1.5502  2.5489
   74MOL0     H 9713   2.816   8.195  11.245 -0.5418  1.8786 -2.0061
   74MOL0     H 9714   2.905   8.343  11.303 -1.8012  2.4573  0.3995
   74MOL0     H 9715   2.710   8.435  11.408 -4.1280 -0.1190  0.7749
   74MOL0     H 9716   2.618   8.281  11.394  2.1910 -0.1141  3.8539
   74MOL0     H 9717   2.718   8.451  11.160  0.6848 -1.1332  0.7606
   74MOL0     H 9718   2.620   8.315  11.138  0.0415 -0.9464 -0.4827
   74MOL0     H 9719   2.532   8.548  11.120  2.0047  1.0673  1.0258
   74MOL0     H 9720   2.536   8.573  11.293  1.9910 -1.0704  0.8352
   74MOL0     H 9721   2.359   8.446  11.433 -1.3959  2.3324 -1.1277
   74MOL0     H 9722   2.099   8.348  11.478  1.8413  0.7152  0.0634
   74MOL0     H 9723   2.074   8.204  11.392 -0.6896  0.5077  1.5373
   74MOL0     H 9724   1.954   8.349  11.199  1.0901  1.7302  0.0577
   74MOL0     H 9725   1.974   8.479  11.313 -1.1730  0.6490 -1.6716
   74MOL0     H 9726   1.776   8.261  11.309 -0.6005 -0.3990  1.0574
   74MOL0     H 9727   1.865   8.276  11.460  2.7844 -0.1278 -1.2098
   74MOL0     H 9728   1.688   8.486  11.312 -1.6680  2.3055  1.6668
   74MOL0     H 9729   1.808   8.519  11.447  1.6692 -2.6076  0.5605
   74MOL0     H 9730   1.427   8.250  11.582 -0.6199 -0.2124 -0.9574
   74MOL0     H 9731   1.197   8.312  11.547  1.0880 -1.6338  1.8398
   74MOL0     H 9732   0.874   8.521  11.730 -0.4486  1.9433  0.0547
   74MOL0     H 9733   0.644   8.614  11.749  1.2289  1.5046 -0.7136
   74MOL0     H 9734   0.401   8.498  11.459  1.2851  0.6569  2.1650
   74MOL0     H 9735   0.369   8.647  11.377 -2.6495 -0.3021  0.1357
   74MOL0     H 9736   0.167   8.581  11.488  1.2216  2.1311 -1.2381
   74MOL0     H 9737   0.222   8.735  11.554 -1.5819  0.4979  1.0561
   74MOL0     H 9738   0.142   8.585  11.719 -1.9426 -2.8526 -2.1511
   74MOL0     H 9739   0.319   8.633  11.747  2.5900 -0.7379 -2.2446
   74MOL0     H 9740   0.382   8.404  11.665 -0.9722  0.6769 -1.8557
   74MOL0     H 9741   0.280   8.382  11.808 -0.9814 -3.0394 -0.8292
   74MOL0     H 9742   0.229   8.325  11.518 -1.5613  1.1935 -0.5965
   74MOL0     H 9743   0.089   8.384  11.614  1.1575  1.5293  0.1030
   74MOL0     H 9744   0.124   8.201  11.781  1.6235 -4.2822  1.0111
   74MOL0     H 9745   0.245   8.140  11.674 -0.8983 -1.1495 -0.4000
   74MOL0     H 9746   0.004   8.047  11.658 -0.2999  1.0243  1.6512
   74MOL0     H 9747  -0.045   8.211  11.594  1.2773  1.1049 -0.5169
   74MOL0     H 9748  -0.026   8.025  11.433 -0.1189  1.2992  0.9174
   74MOL0     H 9749   0.134   7.998  11.458 -1.6447 -1.2189 -0.3425
   74MOL0     H 9750   0.599   8.538  11.328 -0.0026 -2.1229  0.6531
   74MOL0     H 9751   0.819   8.468  11.305 -0.9483 -0.7676 -0.3219
   74MOL0     H 9752   1.297   8.707  11.429  0.6527 -0.1258  1.0874
   74MOL0     H 9753   1.553   8.627  11.432 -0.1518 -0.2238 -0.2734
   74MOL0     H 9754   3.438   7.923  11.645 -0.7841 -1.5686 -0.4765
   74MOL0     H 9755   3.668   7.936  11.562  1.4103 -1.4240 -0.6354
   74MOL0     H 9756   3.969   7.719  11.058  4.4109  1.5300 -5.3321
   74MOL0     H 9757   4.190   7.672  11.057  0.5339 -0.5925  0.0982
   74MOL0     H 9758   4.410   7.726  11.044 -3.4044  1.3589  0.8481
   74MOL0     H 9759   4.394   7.585  11.155  1.8040 -0.0592 -1.5187
   74MOL0     H 9760   4.617   7.621  11.080 -0.3809  0.7989 -0.6574
   74MOL0     H 9761   4.634   7.778  11.151  1.3926 -0.7842 -2.7448
   74MOL0     H 9762   4.739   7.608  11.291  0.2205  1.7179 -4.6091
   74MOL0     H 9763   4.580   7.517  11.299 -1.2158 -0.3113 -0.8421
   74MOL0     H 9764   4.567   7.796  11.380 -1.1015 -0.4361  0.2747
   74MOL0     H 9765   4.479   7.662  11.448 -0.3977  0.6271  0.0931
   74MOL0     H 9766   4.797   7.596  11.694  1.4081 -2.2029  0.0812
   74MOL0     H 9767   4.254   7.939  11.394 -1.0154 -1.7653  1.3104
   74MOL0     H 9768   3.999   8.001  11.382  2.2446 -1.3132  4.1819
   75MOL0     O 9769   0.032   6.068   6.936 -0.0683 -1.0547 -0.5978
   75MOL0     C 9770   0.102   5.973   6.889  0.0121  0.7392 -0.2676
   75MOL0     O 9771   0.063   5.893   6.786  0.2578 -0.0176  0.5812
   75MOL0     C 9772  -0.067   5.898   6.739 -0.3933  0.3386  0.0276
   75MOL0     C 9773  -0.115   5.995   6.655  0.0915  0.6726 -0.6667
   75MOL0     C 9774  -0.243   5.997   6.600  0.1271 -0.2868  0.3954
   75MOL0     C 9775  -0.337   5.907   6.658  0.0764 -0.0889 -0.5939
   75MOL0     O 9776  -0.466   5.904   6.616 -0.0594  0.4736 -0.1184
   75MOL0     C 9777  -0.546   6.015   6.643 -0.5840  0.5972 -0.6699
   75MOL0     C 9778  -0.694   5.986   6.636 -0.1004 -0.3770  0.1356
   75MOL0     C 9779  -0.732   5.880   6.730 -0.4636 -0.0988 -0.5561
   75MOL0     C 9780  -0.880   5.889   6.772  0.4191 -0.2018  0.4642
   75MOL0     C 9781  -0.969   5.841   6.654  1.0501 -0.0439 -0.1462
   75MOL0     C 9782  -1.109   5.805   6.696  0.5335 -0.6616  0.3616
   75MOL0     C 9783  -1.211   5.764   6.592 -0.3194  0.2965  0.1351
   75MOL0     C 9784  -1.308   5.882   6.557  0.5995  0.9583  0.1949
   75MOL0     N 9785  -1.408   5.907   6.658 -0.3225 -0.4504 -0.2953
   75MOL0     C 9786  -1.486   5.818   6.727  0.5036  0.1173 -0.3208
   75MOL0     C 9787  -1.552   5.895   6.816 -0.1109 -0.0671 -1.1535
   75MOL0     C 9788  -1.659   5.846   6.909 -0.2997 -0.2164 -0.4042
   75MOL0     C 9789  -1.599   5.815   7.048 -0.0517  0.2950  0.0640
   75MOL0     C 9790  -1.697   5.778   7.163  0.4072 -0.2386 -0.7950
   75MOL0     C 9791  -1.760   5.646   7.146  0.7734  0.9288 -1.1528
   75MOL0     O 9792  -1.853   5.626   7.254  0.2433  0.4063 -0.5017
   75MOL0     C 9793  -1.988   5.641   7.238  0.4004 -0.7929 -0.1087
   75MOL0     C 9794  -2.078   5.590   7.333 -0.6755  0.4934 -0.3511
   75MOL0     C 9795  -2.213   5.623   7.332  0.0467 -0.4768 -0.9992
   75MOL0     C 9796  -2.270   5.717   7.238  0.3252  0.1283  0.6019
   75MOL0     C 9797  -2.411   5.765   7.259 -0.9088  0.8508 -0.1771
   75MOL0     O 9798  -2.451   5.885   7.204 -0.7196  0.5053  0.4946
   75MOL0     C 9799  -2.580   5.914   7.194  0.6274  0.4803 -0.0083
   75MOL0     C 9800  -2.693   5.830   7.194 -0.5585 -0.1788 -0.3767
   75MOL0     C 9801  -2.823   5.874   7.209  0.1114 -1.1131 -0.0868
   75MOL0     C 9802  -2.844   6.010   7.221 -0.3462  1.0403 -1.4492
   75MOL0     O 9803  -2.962   6.068   7.253 -0.1740 -0.0498  0.1149
   75MOL0     C 9804  -3.087   5.993   7.266 -0.2232 -0.2485 -0.3746
   75MOL0     C 9805  -3.199   6.100   7.307 -0.4975 -0.2205  0.2346
   75MOL0     C 9806  -3.329   6.033   7.361  0.1025 -0.0693 -0.0205
   75MOL0     C 9807  -3.421   6.152   7.389 -0.6426  1.1182 -0.3544
   75MOL0     C 9808  -3.551   6.126   7.459 -0.2888  0.6942 -0.6020
   75MOL0     C 9809  -3.542   6.110   7.608  0.4417 -0.6353  0.9622
   75MOL0     C 9810  -3.539   6.240   7.701 -0.5819  1.2468  0.6541
   75MOL0     C 9811  -3.518   6.180   7.848  0.4046  0.3518 -0.9212
   75MOL0    Cl 9812  -3.649   6.071   7.893 -0.3711  0.1133  0.3745
   75MOL0     C 9813  -2.740   6.101   7.205 -0.3263 -0.5513 -0.3277
   75MOL0     C 9814  -2.610   6.056   7.186  0.5403 -0.6172  0.1743
   75MOL0     O 9815  -2.478   5.687   7.322  0.6042  0.2271  0.2965
   75MOL0     C 9816  -2.188   5.773   7.146 -0.1568  0.6513 -0.3623
   75MOL0     C 9817  -2.050   5.731   7.147  0.1864 -0.1376  0.0301
   75MOL0     N 9818  -1.523   6.026   6.795 -0.2072 -0.0177 -0.2510
   75MOL0     N 9819  -1.431   6.035   6.713  0.0362  0.9167  0.4835
   75MOL0     C 9820  -0.289   5.807   6.742  0.4553 -1.1081 -0.2420
   75MOL0     C 9821  -0.157   5.792   6.782  0.7044 -0.2707  0.0265
   75MOL0     C 9822   0.232   5.938   6.939 -0.1083 -0.3490  0.1896
   75MOL0     C 9823   0.296   5.819   6.884 -0.7106 -0.4156  0.6174
   75MOL0     C 9824   0.428   5.793   6.906 -0.5960 -1.1575  0.6255
   75MOL0     C 9825   0.509   5.881   6.984  0.6601  0.8133  0.3339
   75MOL0     O 9826   0.638   5.856   7.009 -0.5973  0.4384 -0.2259
   75MOL0     C 9827   0.727   5.960   6.971 -1.1178  0.0135 -0.7241
   75MOL0     C 9828   0.867   5.930   7.025  0.2563 -0.3670 -0.2115
   75MOL0     C 9829   0.928   5.806   6.969  0.4515  0.0706  0.7688
   75MOL0     C 9830   1.046   5.756   7.052 -0.1900  0.2063 -0.1229
   75MOL0     C 9831   1.167   5.843   7.052  0.5520  0.1911 -0.0314
   75MOL0     C 9832   1.272   5.907   7.041  0.3886 -0.2715  0.1881
   75MOL0     C 9833   0.444   5.993   7.048 -0.6638 -0.2993  0.7078
   75MOL0     C 9834   0.303   6.024   7.029 -0.0037 -0.9816  0.4272
   75MOL0     H 9835  -0.043   6.073   6.634  1.3506 -0.4077 -0.4918
   75MOL0     H 9836  -0.274   6.068   6.524 -5.1211 -1.4925  1.0439
   75MOL0     H 9837  -0.514   6.086   6.566 -0.6036  1.2424 -0.0952
   75MOL0     H 9838  -0.532   6.045   6.747 -3.3726 -2.9411  0.9085
   75MOL0     H 9839  -0.725   5.947   6.539 -3.1873  1.1427  0.3801
   75MOL0     H 9840  -0.743   6.080   6.663 -0.9843 -0.7806 -0.0258
   75MOL0     H 9841  -0.667   5.893   6.816 -0.4238  2.7028 -0.9136
   75MOL0     H 9842  -0.725   5.776   6.696 -2.8468 -1.4716  2.6392
   75MOL0     H 9843  -0.883   5.806   6.844  0.3928 -0.6543 -0.0560
   75MOL0     H 9844  -0.921   5.984   6.808 -0.2812  0.8648 -2.8110
   75MOL0     H 9845  -0.927   5.750   6.609  0.9194 -1.5054  2.4869
   75MOL0     H 9846  -0.977   5.915   6.574 -1.5433 -1.5962 -1.4865
   75MOL0     H 9847  -1.143   5.871   6.777  3.1743 -1.4358  2.2549
   75MOL0     H 9848  -1.099   5.710   6.748 -3.2114 -1.0439  0.6589
   75MOL0     H 9849  -1.164   5.736   6.497  0.5839 -0.1464  0.7023
   75MOL0     H 9850  -1.263   5.673   6.625 -0.3184  0.3358  0.2457
   75MOL0     H 9851  -1.358   5.850   6.465 -1.0478  2.0546  0.6583
   75MOL0     H 9852  -1.257   5.977   6.538  0.2568  0.6762 -2.6083
   75MOL0     H 9853  -1.488   5.709   6.730  0.4116  0.1093 -0.6654
   75MOL0     H 9854  -1.704   5.758   6.862  0.3714  0.4174 -2.3383
   75MOL0     H 9855  -1.739   5.919   6.918 -1.7465 -1.7770 -0.0084
   75MOL0     H 9856  -1.547   5.905   7.081  0.3113 -0.3340  1.2488
   75MOL0     H 9857  -1.525   5.735   7.056  0.1438  0.6783  5.0297
   75MOL0     H 9858  -1.632   5.766   7.250 -0.9882  0.1339  0.3407
   75MOL0     H 9859  -1.782   5.846   7.177 -1.0619 -2.4727  2.1608
   75MOL0     H 9860  -1.679   5.574   7.157  0.6614  1.0592  0.8503
   75MOL0     H 9861  -1.819   5.644   7.054 -1.0102 -1.3214 -0.0536
   75MOL0     H 9862  -2.043   5.514   7.401 -0.7747 -0.2832 -1.1544
   75MOL0     H 9863  -2.281   5.579   7.405 -0.1837  1.3035 -0.0856
   75MOL0     H 9864  -2.666   5.726   7.179 -0.1226 -0.1007 -0.1643
   75MOL0     H 9865  -2.900   5.797   7.207  0.4260 -1.4279 -0.2349
   75MOL0     H 9866  -3.088   5.921   7.348  1.6119  0.6556  0.4960
   75MOL0     H 9867  -3.117   5.936   7.177  2.1513 -2.0694 -0.1222
   75MOL0     H 9868  -3.207   6.159   7.215  2.8528 -1.2780 -0.8774
   75MOL0     H 9869  -3.152   6.165   7.381 -0.1932  1.5743 -1.4731
   75MOL0     H 9870  -3.307   5.986   7.458 -0.4827  0.6359  0.4611
   75MOL0     H 9871  -3.359   5.952   7.294  0.7006 -1.5016  1.3487
   75MOL0     H 9872  -3.365   6.224   7.451  1.6347  1.1649 -2.3345
   75MOL0     H 9873  -3.443   6.201   7.294  1.0738  0.0303 -1.3490
   75MOL0     H 9874  -3.593   6.033   7.420  0.9120  1.4724 -4.1098
   75MOL0     H 9875  -3.626   6.199   7.425 -1.9828 -2.0290 -3.1966
   75MOL0     H 9876  -3.445   6.063   7.628  1.5713 -1.9984 -5.5527
   75MOL0     H 9877  -3.622   6.039   7.628  0.3176 -1.3317 -1.6612
   75MOL0     H 9878  -3.448   6.295   7.675  0.1573  0.1164  0.7829
   75MOL0     H 9879  -3.636   6.291   7.697 -1.1519  0.0906 -1.5310
   75MOL0     H 9880  -3.538   6.263   7.916 -0.6627  0.0830 -0.8955
   75MOL0     H 9881  -3.418   6.140   7.870  0.0118 -1.1377 -1.7324
   75MOL0     H 9882  -2.747   6.209   7.207 -1.7368 -0.5446 -2.1675
   75MOL0     H 9883  -2.526   6.124   7.179  2.3488 -2.6009  1.3508
   75MOL0     H 9884  -2.225   5.849   7.078  2.4830  3.3719  1.0402
   75MOL0     H 9885  -1.993   5.783   7.071 -0.9105  0.4382 -0.4140
   75MOL0     H 9886  -0.355   5.731   6.783  0.1175 -1.1577 -0.8520
   75MOL0     H 9887  -0.120   5.722   6.856 -0.8381  0.6990  1.8056
   75MOL0     H 9888   0.237   5.738   6.841  2.0071 -0.6279 -3.2630
   75MOL0     H 9889   0.468   5.713   6.846  2.2523  0.7752 -0.2855
   75MOL0     H 9890   0.701   6.058   7.011 -1.0898  0.4166 -1.6589
   75MOL0     H 9891   0.734   5.974   6.862  0.6454 -0.4518 -0.7085
   75MOL0     H 9892   0.926   6.014   6.988  1.3401 -1.5256 -1.2300
   75MOL0     H 9893   0.862   5.928   7.134  1.5239 -1.9748 -0.1425
   75MOL0     H 9894   0.960   5.817   6.865  3.0819 -1.5731  1.3030
   75MOL0     H 9895   0.853   5.727   6.978 -0.3318  0.3811 -2.0993
   75MOL0     H 9896   1.022   5.749   7.158  3.4980  2.9164  1.1064
   75MOL0     H 9897   1.077   5.655   7.022  1.0708  1.5041 -3.6892
   75MOL0     H 9898   1.358   5.970   7.028 -2.8601  4.6365  0.0616
   75MOL0     H 9899   0.494   6.065   7.112  0.9177  1.3874 -2.1791
   75MOL0     H 9900   0.253   6.102   7.085  0.6225 -1.3147  1.4714
   76MOL0     O 9901   5.594   5.693   7.252  0.4417  1.1757 -0.4082
   76MOL0     C 9902   5.658   5.649   7.352 -0.4519 -0.2374  0.3739
   76MOL0     O 9903   5.679   5.718   7.463 -0.3981  0.5515  0.4646
   76MOL0     C 9904   5.639   5.848   7.472 -0.6271 -0.0852 -0.3936
   76MOL0     C 9905   5.726   5.952   7.435 -0.0945  0.5549 -0.8657
   76MOL0     C 9906   5.692   6.088   7.472 -0.1636  0.6838 -0.5797
   76MOL0     C 9907   5.566   6.118   7.526  0.4725 -0.7872  0.4532
   76MOL0     O 9908   5.539   6.255   7.537  0.1152  1.0633 -0.2102
   76MOL0     C 9909   5.520   6.291   7.668 -0.5551  0.0070  0.8230
   76MOL0     C 9910   5.525   6.447   7.668 -0.0509 -0.5828 -0.1279
   76MOL0     C 9911   5.426   6.525   7.574  0.5377 -0.3413  0.5871
   76MOL0     C 9912   5.276   6.493   7.598 -0.0851  0.4459 -0.5129
   76MOL0     C 9913   5.193   6.555   7.485  0.8449  0.7190 -0.0661
   76MOL0     C 9914   5.048   6.509   7.502 -0.2650  0.3220 -0.0245
   76MOL0     C 9915   4.965   6.519   7.377 -0.0253 -0.1454  0.1036
   76MOL0     C 9916   4.867   6.645   7.396  0.5480  0.4274 -0.1023
   76MOL0     N 9917   4.754   6.622   7.488  0.3347 -0.5823 -0.1008
   76MOL0     C 9918   4.635   6.578   7.441 -0.0637 -0.1822  0.0678
   76MOL0     C 9919   4.545   6.582   7.544 -1.1026  0.0398 -0.1872
   76MOL0     C 9920   4.406   6.534   7.536  0.7316  0.3595  0.4354
   76MOL0     C 9921   4.310   6.652   7.526 -0.3987  0.1797  0.0980
   76MOL0     C 9922   4.296   6.721   7.665 -0.6047 -0.2706  0.3320
   76MOL0     C 9923   4.174   6.821   7.654  0.2243  0.4354 -0.3983
   76MOL0     O 9924   4.179   6.893   7.540  0.0892  0.3106  0.2002
   76MOL0     C 9925   4.056   6.947   7.501 -0.9218  0.7185  0.1681
   76MOL0     C 9926   3.992   7.046   7.570 -0.0383 -0.2529  0.6157
   76MOL0     C 9927   3.871   7.093   7.530 -0.1297 -0.2248  0.1952
   76MOL0     C 9928   3.814   7.044   7.409 -0.6765  0.9958  0.5829
   76MOL0     C 9929   3.683   7.085   7.359  1.1117 -0.4686 -0.4469
   76MOL0     O 9930   3.601   7.130   7.456  0.1680 -0.1423  0.7069
   76MOL0     C 9931   3.465   7.149   7.446 -0.1748  0.0256 -0.1232
   76MOL0     C 9932   3.406   7.202   7.335 -0.4260 -0.0527 -0.0246
   76MOL0     C 9933   3.274   7.229   7.337  0.7615 -0.2861  0.0617
   76MOL0     C 9934   3.190   7.198   7.445 -1.1798  0.7177 -0.8216
   76MOL0     O 9935   3.062   7.245   7.465  0.0494  0.0643  0.3358
   76MOL0     C 9936   2.981   7.260   7.346  0.4557 -0.3747  0.6965
   76MOL0     C 9937   2.845   7.231   7.385 -0.3258 -0.3682  0.6909
   76MOL0     C 9938   2.730   7.273   7.282 -0.2773 -0.3544 -0.7628
   76MOL0     C 9939   2.732   7.200   7.158 -0.7401 -0.4536  0.3413
   76MOL0     C 9940   2.610   7.229   7.077 -0.5415 -1.0155 -0.5986
   76MOL0     C 9941   2.588   7.133   6.969 -0.2637  0.2562  0.5675
   76MOL0     C 9942   2.455   7.178   6.901 -0.6577  0.2763 -0.0209
   76MOL0     C 9943   2.410   7.078   6.797  0.1480 -0.5285 -0.6903
   76MOL0    Cl 9944   2.542   7.046   6.689  0.1859 -0.0886  0.5580
   76MOL0     C 9945   3.244   7.108   7.543  0.2272 -0.1975 -0.2600
   76MOL0     C 9946   3.380   7.082   7.542 -0.8573  0.1980  0.0218
   76MOL0     O 9947   3.637   7.052   7.244  1.2077  0.6906 -1.0783
   76MOL0     C 9948   3.878   6.942   7.330  0.1995  0.0751  0.1343
   76MOL0     C 9949   4.002   6.899   7.379 -0.2886  0.9220  0.1861
   76MOL0     N 9950   4.623   6.619   7.656  0.8561  0.0423 -0.3564
   76MOL0     N 9951   4.735   6.661   7.614  0.5889 -0.1697 -0.5119
   76MOL0     C 9952   5.480   6.015   7.561  0.9158 -0.0696  0.2481
   76MOL0     C 9953   5.515   5.880   7.527  0.1250 -0.1884  0.0470
   76MOL0     C 9954   5.715   5.515   7.339  0.0096 -0.1678  0.4682
   76MOL0     C 9955   5.717   5.445   7.222  0.0319  1.1714 -0.0082
   76MOL0     C 9956   5.785   5.319   7.212 -0.0907 -0.0040 -0.2769
   76MOL0     C 9957   5.833   5.252   7.322  0.9073 -0.3709  0.5635
   76MOL0     O 9958   5.883   5.131   7.310 -0.6438  0.0856 -0.1156
   76MOL0     C 9959   6.027   5.128   7.282  0.2142 -0.0823  0.3608
   76MOL0     C 9960   6.049   5.038   7.166  0.3090 -0.0136 -0.5947
   76MOL0     C 9961   6.029   5.121   7.030 -0.1095  0.6489 -0.4237
   76MOL0     C 9962   6.087   5.041   6.915  0.2034 -0.5059 -0.1800
   76MOL0     C 9963   6.069   5.106   6.786  0.0532 -0.1794 -0.7818
   76MOL0     C 9964   6.047   5.154   6.675  0.3846  0.4669 -1.3117
   76MOL0     C 9965   5.830   5.321   7.447  0.0144 -0.5062  0.1063
   76MOL0     C 9966   5.780   5.459   7.450  0.3432  0.0099 -0.0969
   76MOL0     H 9967   5.819   5.930   7.384 -0.5376 -1.7660 -0.7651
   76MOL0     H 9968   5.749   6.173   7.436  0.6655  0.9740  1.2854
   76MOL0     H 9969   5.600   6.245   7.727 -0.2676 -1.2545 -0.5037
   76MOL0     H 9970   5.431   6.242   7.707 -1.6243 -0.5653 -2.1217
   76MOL0     H 9971   5.621   6.488   7.634  0.0805 -0.8421 -0.0724
   76MOL0     H 9972   5.505   6.480   7.771  2.7798 -1.4045  0.7713
   76MOL0     H 9973   5.450   6.495   7.471 -0.6183  1.6601 -0.3249
   76MOL0     H 9974   5.442   6.633   7.578 -0.1908 -0.2592  2.8203
   76MOL0     H 9975   5.256   6.387   7.611 -0.0997  0.0886 -3.0148
   76MOL0     H 9976   5.244   6.540   7.691 -1.0069  1.7861 -1.4728
   76MOL0     H 9977   5.231   6.506   7.395  2.5578  0.6847  0.6483
   76MOL0     H 9978   5.201   6.663   7.466  0.8879  0.2035 -3.9031
   76MOL0     H 9979   5.004   6.569   7.582  0.4695  2.1392 -0.9305
   76MOL0     H 9980   5.045   6.403   7.530 -0.4656  0.3171 -0.0717
   76MOL0     H 9981   5.025   6.543   7.288 -0.6811  4.7648  0.7085
   76MOL0     H 9982   4.923   6.419   7.364 -0.8934  0.3944 -1.5656
   76MOL0     H 9983   4.833   6.661   7.293 -3.4335  1.7382  1.2516
   76MOL0     H 9984   4.917   6.737   7.426 -1.5109  2.3592 -2.1764
   76MOL0     H 9985   4.603   6.553   7.340 -2.8978 -0.4062  0.9144
   76MOL0     H 9986   4.372   6.473   7.620  2.5286  1.0900  1.7624
   76MOL0     H 9987   4.391   6.469   7.450 -0.8298 -0.1536  1.0485
   76MOL0     H 9988   4.210   6.628   7.488 -3.0504  3.4311  4.0742
   76MOL0     H 9989   4.354   6.716   7.450  0.7334 -1.5124 -0.7167
   76MOL0     H 9990   4.288   6.645   7.744 -2.6727 -2.8773 -2.1694
   76MOL0     H 9991   4.380   6.789   7.682 -0.9215  0.2458 -0.1208
   76MOL0     H 9992   4.182   6.878   7.747 -1.7250 -3.8247  2.6923
   76MOL0     H 9993   4.080   6.765   7.650 -0.8924  2.2456 -0.7008
   76MOL0     H 9994   4.026   7.076   7.669 -1.8413  1.5537  0.7657
   76MOL0     H 9995   3.803   7.163   7.579 -2.4741 -2.6101  0.5661
   76MOL0     H 9996   3.464   7.233   7.248  1.8739 -0.7627  1.1805
   76MOL0     H 9997   3.235   7.294   7.259 -1.2562  1.3295  2.2817
   76MOL0     H 9998   3.007   7.191   7.265 -2.7925 -0.5070 -0.3750
   76MOL0     H 9999   2.993   7.360   7.303 -0.9667 -0.9716 -1.2150
   76MOL0     H10000   2.815   7.283   7.477 -3.0528  0.6521 -0.6604
   76MOL0     H10001   2.838   7.125   7.408  0.7899 -0.7912 -0.7988
   76MOL0     H10002   2.711   7.378   7.260 -2.2945 -0.7741 -1.1826
   76MOL0     H10003   2.638   7.247   7.334 -1.4211 -1.7347 -3.2825
   76MOL0     H10004   2.826   7.229   7.111 -0.5010 -0.1694  0.9815
   76MOL0     H10005   2.747   7.093   7.180 -0.6325 -0.9832 -2.0678
   76MOL0     H10006   2.607   7.331   7.037 -1.8052 -0.8099 -0.0169
   76MOL0     H10007   2.529   7.210   7.148  1.9119 -3.0752  1.8563
   76MOL0     H10008   2.585   7.033   7.014  0.2704  1.6278  4.0117
   76MOL0     H10009   2.673   7.148   6.902 -1.0184  0.1526 -0.4234
   76MOL0     H10010   2.379   7.173   6.979 -1.1537 -1.4258 -0.5689
   76MOL0     H10011   2.462   7.281   6.866  2.4747  0.5996  1.2323
   76MOL0     H10012   2.327   7.125   6.744 -1.7144 -3.1664 -0.3408
   76MOL0     H10013   2.386   6.982   6.844  1.5969 -0.4059  0.3588
   76MOL0     H10014   3.187   7.056   7.620  1.7532 -0.1782  0.9231
   76MOL0     H10015   3.409   7.028   7.632  0.9078 -0.7524 -1.0516
   76MOL0     H10016   3.848   6.893   7.238 -0.5850  0.5770  0.1159
   76MOL0     H10017   4.046   6.814   7.326  2.6129  2.5071 -0.1851
   76MOL0     H10018   5.379   6.035   7.596  0.6818  0.5345 -0.7331
   76MOL0     H10019   5.460   5.788   7.546  2.2735 -2.0965 -2.1967
   76MOL0     H10020   5.666   5.483   7.135  0.4802 -2.3052 -1.9620
   76MOL0     H10021   5.776   5.268   7.116 -1.4717 -0.7672  0.2268
   76MOL0     H10022   6.093   5.091   7.362  3.2744 -1.2162 -2.4732
   76MOL0     H10023   6.064   5.231   7.271  0.3797 -0.0796  0.9123
   76MOL0     H10024   6.156   5.016   7.159 -0.0493 -1.4876 -1.9754
   76MOL0     H10025   5.993   4.944   7.171  0.3101 -0.0167 -0.6435
   76MOL0     H10026   6.082   5.217   7.030 -0.6423  1.0104 -2.7683
   76MOL0     H10027   5.921   5.139   7.026 -0.1448  1.3993  2.0869
   76MOL0     H10028   6.194   5.018   6.919  0.5454  1.0725  0.6490
   76MOL0     H10029   6.031   4.948   6.917  0.9821 -0.9941 -0.5858
   76MOL0     H10030   6.033   5.186   6.574 -0.0291 -0.9118 -1.7146
   76MOL0     H10031   5.863   5.269   7.537  1.9405 -2.2713 -1.5039
   76MOL0     H10032   5.784   5.507   7.548 -0.1531  0.3107 -0.2210
   77MOL0     O10033   2.810   3.979   5.147 -0.3428 -0.4790  0.3619
   77MOL0     C10034   2.799   3.868   5.195 -0.0585 -0.4582  0.1826
   77MOL0     O10035   2.903   3.775   5.224 -0.4745 -1.4707 -0.0193
   77MOL0     C10036   3.037   3.809   5.232 -0.2138  0.0269  0.3771
   77MOL0     C10037   3.071   3.939   5.280  0.1435  0.1513 -0.5682
   77MOL0     C10038   3.211   3.975   5.296  0.0891  0.8537  0.7991
   77MOL0     C10039   3.312   3.878   5.260  0.5612 -0.2220 -0.6110
   77MOL0     O10040   3.449   3.900   5.268  0.2702 -0.5064  0.2103
   77MOL0     C10041   3.483   4.036   5.247 -0.2375 -0.3647 -0.1768
   77MOL0     C10042   3.635   4.045   5.217 -0.6279 -0.8630 -0.0120
   77MOL0     C10043   3.712   3.990   5.339 -0.1392 -0.8784 -1.1185
   77MOL0     C10044   3.863   3.972   5.318 -0.0560 -0.2058  0.5388
   77MOL0     C10045   3.936   3.899   5.433 -0.0320 -0.6507 -0.1035
   77MOL0     C10046   4.095   3.901   5.422 -0.1384  0.5675 -0.3975
   77MOL0     C10047   4.169   3.820   5.524  0.0600 -0.8520 -0.3422
   77MOL0     C10048   4.149   3.860   5.676 -0.0071 -0.3894  0.2662
   77MOL0     N10049   4.159   4.009   5.713  0.2137  0.7947  0.5451
   77MOL0     C10050   4.266   4.089   5.685  0.4553 -0.1260  0.6356
   77MOL0     C10051   4.239   4.207   5.747 -0.7946 -0.0931 -0.0187
   77MOL0     C10052   4.342   4.319   5.743  0.5440 -1.3372 -0.0536
   77MOL0     C10053   4.363   4.401   5.875  0.0787  0.1832  0.0224
   77MOL0     C10054   4.237   4.477   5.932  0.0048 -0.2286  0.0059
   77MOL0     C10055   4.177   4.570   5.830 -0.2869  0.4163 -0.9868
   77MOL0     O10056   4.081   4.658   5.892  0.6729  0.0685 -0.5507
   77MOL0     C10057   4.010   4.735   5.803 -0.0722 -1.0969 -0.1048
   77MOL0     C10058   4.074   4.811   5.700 -0.4910  0.4523 -0.1660
   77MOL0     C10059   4.005   4.903   5.624  0.7008 -0.6111  0.7933
   77MOL0     C10060   3.867   4.910   5.636 -0.2420 -0.8426 -0.7217
   77MOL0     C10061   3.792   4.985   5.538 -0.6736  0.2212 -0.4999
   77MOL0     O10062   3.660   4.985   5.548 -0.7611  1.2206 -0.2477
   77MOL0     C10063   3.593   5.059   5.454  0.5864 -0.8005  0.5631
   77MOL0     C10064   3.572   5.025   5.326  0.5045  0.0162  0.7013
   77MOL0     C10065   3.499   5.117   5.243  0.5857  0.3067 -0.6337
   77MOL0     C10066   3.444   5.232   5.296  0.3407 -0.4152  0.4362
   77MOL0     O10067   3.384   5.315   5.202  0.5288  0.0144  0.2886
   77MOL0     C10068   3.344   5.444   5.249  0.1531  0.4055 -0.0312
   77MOL0     C10069   3.241   5.492   5.155  0.4494 -0.1325  0.0688
   77MOL0     C10070   3.149   5.600   5.210 -0.0400 -0.0040 -0.3648
   77MOL0     C10071   3.036   5.641   5.117 -0.3982 -0.2025  0.0715
   77MOL0     C10072   2.930   5.729   5.184  0.6901 -0.0561  0.1371
   77MOL0     C10073   2.964   5.879   5.195  0.6658 -0.8146  0.2855
   77MOL0     C10074   2.837   5.973   5.208  0.0051  0.5178 -0.0092
   77MOL0     C10075   2.768   5.956   5.340 -0.2641  0.2146 -0.2121
   77MOL0    Cl10076   2.872   5.948   5.485 -0.0335  0.1889  0.2231
   77MOL0     C10077   3.476   5.277   5.431 -0.3835 -0.7102  0.2842
   77MOL0     C10078   3.546   5.183   5.505 -0.6463  0.6294 -0.2459
   77MOL0     O10079   3.855   5.043   5.447  0.0320 -0.6270 -0.1530
   77MOL0     C10080   3.803   4.836   5.743  0.5222  0.0244  0.1130
   77MOL0     C10081   3.873   4.753   5.830 -0.9702 -0.6244 -0.4176
   77MOL0     N10082   4.111   4.202   5.801  0.1476  0.1379  0.0623
   77MOL0     N10083   4.060   4.079   5.778  0.2754 -0.8887 -0.4327
   77MOL0     C10084   3.275   3.754   5.207 -0.8625  0.2580  0.4933
   77MOL0     C10085   3.137   3.719   5.195 -0.0775 -0.3168  0.2911
   77MOL0     C10086   2.665   3.819   5.206  0.0334  0.8053  0.3689
   77MOL0     C10087   2.544   3.892   5.201  0.5177  0.0905 -0.2142
   77MOL0     C10088   2.420   3.836   5.201 -0.2033  0.2448 -0.2725
   77MOL0     C10089   2.407   3.696   5.173 -0.9058  0.2105 -0.3639
   77MOL0     O10090   2.292   3.637   5.160  0.0172  0.2551  0.2467
   77MOL0     C10091   2.211   3.691   5.052 -0.0178  0.0424 -0.6794
   77MOL0     C10092   2.090   3.579   5.051  1.0726  0.2000  0.2208
   77MOL0     C10093   2.148   3.436   5.024 -0.4590  0.1676  0.8472
   77MOL0     C10094   2.044   3.331   5.044  0.3909 -0.2117  0.2592
   77MOL0     C10095   1.926   3.349   4.954  0.0543  0.4159  0.0296
   77MOL0     C10096   1.829   3.355   4.888  0.0383  1.0395 -0.2902
   77MOL0     C10097   2.526   3.622   5.177 -0.1687 -0.3458 -0.4008
   77MOL0     C10098   2.650   3.680   5.191 -0.1246  0.4069  0.1816
   77MOL0     H10099   2.999   4.018   5.298  1.0826  1.1105 -0.9464
   77MOL0     H10100   3.228   4.076   5.331  1.8903  0.5638  0.8856
   77MOL0     H10101   3.485   4.088   5.343 -0.4800 -1.2419  0.3194
   77MOL0     H10102   3.418   4.079   5.171 -1.1147 -1.7692 -0.2702
   77MOL0     H10103   3.669   4.145   5.191 -0.4973 -0.7385  0.6107
   77MOL0     H10104   3.671   3.989   5.131  2.3288 -0.7581  1.0465
   77MOL0     H10105   3.664   3.895   5.362 -1.8434  0.1348 -0.3535
   77MOL0     H10106   3.691   4.057   5.423  0.0805  1.2373 -2.6533
   77MOL0     H10107   3.880   3.906   5.233 -0.1943 -1.1720  1.2373
   77MOL0     H10108   3.920   4.060   5.289  1.0782 -1.3341 -0.8333
   77MOL0     H10109   3.906   3.794   5.439 -2.2965  0.0041  1.5691
   77MOL0     H10110   3.915   3.946   5.530 -2.0084  0.0860 -0.8215
   77MOL0     H10111   4.133   4.003   5.427  0.4399  0.3300  3.1858
   77MOL0     H10112   4.131   3.863   5.327  1.7859  2.2319 -0.3896
   77MOL0     H10113   4.143   3.718   5.495 -0.4435 -0.0664 -2.9417
   77MOL0     H10114   4.277   3.823   5.504 -0.0586  0.0199 -0.9496
   77MOL0     H10115   4.228   3.817   5.738 -1.4300  0.3991  2.7958
   77MOL0     H10116   4.055   3.824   5.719  0.6850  0.5393  2.7461
   77MOL0     H10117   4.348   4.048   5.627 -0.8384 -1.2266 -0.5108
   77MOL0     H10118   4.317   4.397   5.670  2.5856  1.4748  2.0269
   77MOL0     H10119   4.438   4.276   5.713  0.7432 -0.2350 -1.1033
   77MOL0     H10120   4.435   4.481   5.854  0.1108 -0.2420 -1.6280
   77MOL0     H10121   4.403   4.333   5.950 -0.1799 -2.3043 -1.9863
   77MOL0     H10122   4.152   4.411   5.953  0.2817 -0.7005 -0.3497
   77MOL0     H10123   4.264   4.528   6.025 -0.4224 -1.2887  0.7243
   77MOL0     H10124   4.119   4.519   5.752 -2.5440  1.8229 -0.3193
   77MOL0     H10125   4.262   4.616   5.779  1.6021 -1.6521  0.0978
   77MOL0     H10126   4.180   4.799   5.681 -0.9145 -0.8354 -2.0787
   77MOL0     H10127   4.051   4.983   5.568 -0.3779 -0.2503  0.4007
   77MOL0     H10128   3.604   4.929   5.286 -1.1044 -1.4797  2.8270
   77MOL0     H10129   3.473   5.091   5.141 -2.0801 -0.5743  0.1910
   77MOL0     H10130   3.429   5.507   5.274  2.5766 -1.3793 -3.0701
   77MOL0     H10131   3.285   5.440   5.342 -0.7517  1.6792 -0.5207
   77MOL0     H10132   3.188   5.399   5.135  1.1921 -0.8306  1.2387
   77MOL0     H10133   3.284   5.521   5.058 -2.2154 -2.2506 -1.8985
   77MOL0     H10134   3.201   5.694   5.232 -0.8227  0.3828 -0.1033
   77MOL0     H10135   3.103   5.565   5.303 -3.2641  1.5346 -1.2276
   77MOL0     H10136   3.070   5.697   5.030 -0.4433  0.0130  0.1903
   77MOL0     H10137   2.984   5.551   5.084  1.3023 -0.5141 -1.9292
   77MOL0     H10138   2.895   5.689   5.280  0.3730  1.0554  0.4984
   77MOL0     H10139   2.838   5.724   5.125 -0.1591  0.6574  1.3390
   77MOL0     H10140   3.003   5.914   5.099 -0.8278 -0.8258 -0.3515
   77MOL0     H10141   3.039   5.896   5.272  2.5273 -2.2321 -1.1158
   77MOL0     H10142   2.867   6.078   5.200  1.6004  0.4909  3.5993
   77MOL0     H10143   2.763   5.927   5.142  1.2578 -0.7285 -0.5845
   77MOL0     H10144   2.720   5.857   5.337 -0.2578  0.2358 -2.8572
   77MOL0     H10145   2.693   6.034   5.359  1.3319  1.7128  0.1152
   77MOL0     H10146   3.442   5.370   5.474  0.4643 -0.5299  0.5811
   77MOL0     H10147   3.572   5.196   5.610 -0.2061 -1.3583 -0.0701
   77MOL0     H10148   3.696   4.847   5.754  0.7175  3.2466 -0.2656
   77MOL0     H10149   3.843   4.705   5.923  0.7664 -1.1115 -0.0747
   77MOL0     H10150   3.360   3.688   5.191 -0.3458  0.1953  3.0128
   77MOL0     H10151   3.117   3.619   5.158  1.0085 -0.5494  0.3016
   77MOL0     H10152   2.560   3.997   5.221  1.9519  0.0128 -0.8326
   77MOL0     H10153   2.326   3.891   5.207 -1.7420 -2.3431  3.8671
   77MOL0     H10154   2.268   3.703   4.959 -1.5832  0.1610 -1.6440
   77MOL0     H10155   2.163   3.782   5.090 -2.0383 -0.6287 -1.5154
   77MOL0     H10156   2.042   3.580   5.149 -2.1622 -0.9320 -1.2247
   77MOL0     H10157   2.018   3.611   4.975 -2.4742  0.6590  3.4991
   77MOL0     H10158   2.235   3.412   5.086  0.1137  2.3273  0.9867
   77MOL0     H10159   2.176   3.429   4.919 -2.0357 -2.3965  0.5332
   77MOL0     H10160   2.081   3.233   5.011 -0.2212  0.5823 -3.2343
   77MOL0     H10161   2.015   3.317   5.148  1.0456 -0.7660  0.3717
   77MOL0     H10162   1.737   3.355   4.834 -1.1131 -0.4064  1.5084
   77MOL0     H10163   2.515   3.518   5.147 -1.5718  0.3237 -2.4977
   77MOL0     H10164   2.735   3.614   5.179 -0.7646 -0.6727  1.3546
   78MOL0     O10165   5.549   5.133   8.641 -0.1045 -0.3835  0.5730
   78MOL0     C10166   5.643   5.169   8.567 -0.2452  0.3516  0.7504
   78MOL0     O10167   5.646   5.286   8.492  0.1382  0.1845 -0.4474
   78MOL0     C10168   5.542   5.376   8.526 -0.7368 -0.5163  0.7726
   78MOL0     C10169   5.404   5.356   8.502 -0.2713  0.0992  0.3445
   78MOL0     C10170   5.317   5.466   8.531 -0.7297 -0.1257  1.3640
   78MOL0     C10171   5.370   5.591   8.573  0.0295  0.0071 -0.9689
   78MOL0     O10172   5.296   5.702   8.597 -0.1332 -0.1741  0.4131
   78MOL0     C10173   5.154   5.695   8.593  0.4589 -0.8680 -0.3066
   78MOL0     C10174   5.109   5.840   8.601  0.6394  1.1942 -0.2302
   78MOL0     C10175   4.960   5.868   8.619  0.0996 -0.2623 -0.2696
   78MOL0     C10176   4.928   6.019   8.635  0.3647 -0.4602  0.4761
   78MOL0     C10177   4.806   6.035   8.724 -0.4216 -0.6584  0.4912
   78MOL0     C10178   4.678   5.957   8.695  0.2260  0.1595  0.7891
   78MOL0     C10179   4.566   5.995   8.785  0.5401 -0.1991 -0.0777
   78MOL0     C10180   4.441   5.923   8.753  0.9361  0.2920 -0.2394
   78MOL0     N10181   4.335   5.909   8.863 -0.0346 -0.2304 -0.1146
   78MOL0     C10182   4.224   5.984   8.879 -0.3376  0.4195  0.6397
   78MOL0     C10183   4.161   5.943   8.988 -0.3097  0.1123  0.1651
   78MOL0     C10184   4.028   5.991   9.037 -1.8447  0.9073  0.5505
   78MOL0     C10185   3.932   5.873   9.036 -0.0240 -0.3368 -0.0002
   78MOL0     C10186   3.811   5.905   9.130 -0.9988 -0.1625  0.7364
   78MOL0     C10187   3.681   5.890   9.053 -0.1751  0.4028  0.7898
   78MOL0     O10188   3.656   5.752   9.037  0.1855  0.6498 -0.1443
   78MOL0     C10189   3.519   5.722   9.023 -0.1864  0.2334  0.5117
   78MOL0     C10190   3.437   5.754   8.913  0.2203 -0.3962 -0.4260
   78MOL0     C10191   3.296   5.727   8.923 -0.7633 -0.2184  0.0457
   78MOL0     C10192   3.236   5.651   9.025 -0.6474 -0.9487 -0.0195
   78MOL0     C10193   3.091   5.619   9.022 -0.0746 -0.3983 -0.6071
   78MOL0     O10194   3.058   5.528   9.115 -0.0770 -0.2933 -0.0772
   78MOL0     C10195   2.924   5.521   9.144 -0.0895 -0.2069  0.2571
   78MOL0     C10196   2.863   5.623   9.215  0.6381  0.9154  0.4399
   78MOL0     C10197   2.720   5.616   9.223  0.5063 -0.1316 -0.9602
   78MOL0     C10198   2.641   5.515   9.160  0.2080 -0.0859  0.0425
   78MOL0     O10199   2.506   5.519   9.158  0.3121  0.3707  0.4507
   78MOL0     C10200   2.436   5.401   9.136 -0.1743  0.2644  0.0270
   78MOL0     C10201   2.288   5.410   9.157 -0.5552 -0.6194 -0.2619
   78MOL0     C10202   2.219   5.482   9.038  0.0047 -0.6491 -0.0137
   78MOL0     C10203   2.071   5.512   9.069 -0.0220 -0.6366  0.2104
   78MOL0     C10204   2.000   5.584   8.954 -0.7814  0.4936 -0.2554
   78MOL0     C10205   1.860   5.639   8.989  0.0442 -0.9585  0.5959
   78MOL0     C10206   1.761   5.538   9.052 -0.7342  0.0508  0.1113
   78MOL0     C10207   1.617   5.593   9.037  0.4438  0.1890  0.0598
   78MOL0    Cl10208   1.587   5.699   9.189  0.0111 -0.2657  0.6223
   78MOL0     C10209   2.716   5.420   9.077 -0.1882 -0.2396 -1.0723
   78MOL0     C10210   2.852   5.426   9.072 -0.4330 -0.1323 -0.7274
   78MOL0     O10211   3.009   5.675   8.945 -0.6262 -0.4341 -0.3293
   78MOL0     C10212   3.332   5.622   9.128 -0.1063 -0.1188 -0.5795
   78MOL0     C10213   3.466   5.652   9.131 -0.1009 -1.1529  0.3584
   78MOL0     N10214   4.235   5.834   9.040 -0.6183 -0.8788  0.1951
   78MOL0     N10215   4.331   5.816   8.957 -0.3375  0.4839  0.1670
   78MOL0     C10216   5.508   5.608   8.584 -0.2858 -0.2670  0.0678
   78MOL0     C10217   5.592   5.498   8.574  0.6185 -0.8025  0.4022
   78MOL0     C10218   5.752   5.067   8.542  0.6186 -0.6221 -0.6035
   78MOL0     C10219   5.737   4.924   8.574 -0.0004 -0.4767 -1.2374
   78MOL0     C10220   5.851   4.849   8.561  0.2688  0.3682 -0.4974
   78MOL0     C10221   5.973   4.904   8.516 -0.2114  0.5889 -0.5869
   78MOL0     O10222   6.065   4.801   8.495  0.1539  0.3655 -0.0049
   78MOL0     C10223   6.183   4.837   8.434 -0.4309 -0.1586  0.0091
   78MOL0     C10224   6.281   4.716   8.386  0.6036  0.0983 -0.1663
   78MOL0     C10225   6.399   4.767   8.321  0.3552  0.7906  0.6200
   78MOL0     C10226   6.485   4.656   8.263 -0.0393 -1.1215  0.4500
   78MOL0     C10227   6.528   4.554   8.359 -0.0088  0.5749  0.4767
   78MOL0     C10228   6.581   4.472   8.434  0.5473 -0.2038  0.7956
   78MOL0     C10229   5.983   5.040   8.501 -0.9429 -0.5151  1.0636
   78MOL0     C10230   5.868   5.124   8.510  0.0249  0.3286 -0.1913
   78MOL0     H10231   5.372   5.259   8.465 -1.7631  1.0021 -0.8455
   78MOL0     H10232   5.212   5.444   8.518 -0.7868 -1.2896  3.4426
   78MOL0     H10233   5.133   5.650   8.691 -0.4023 -3.3859 -1.5597
   78MOL0     H10234   5.112   5.646   8.505  0.2429  1.0816 -1.3391
   78MOL0     H10235   5.157   5.894   8.518  2.1366 -0.1708 -0.3214
   78MOL0     H10236   5.150   5.889   8.690 -1.0184  1.7109  0.2740
   78MOL0     H10237   4.918   5.813   8.703 -2.3310  1.2759 -0.3921
   78MOL0     H10238   4.903   5.820   8.538  2.1004 -3.5435  0.1022
   78MOL0     H10239   5.018   6.063   8.679  0.8538 -0.8038 -0.1667
   78MOL0     H10240   4.909   6.060   8.535  0.7806 -2.9873 -0.7128
   78MOL0     H10241   4.796   6.144   8.735  1.1035 -0.4871  0.4106
   78MOL0     H10242   4.836   6.009   8.826  1.0533  0.3706  0.3621
   78MOL0     H10243   4.687   5.848   8.699 -2.0166 -0.0513  3.7351
   78MOL0     H10244   4.642   5.984   8.596  0.2595 -2.2302  0.0879
   78MOL0     H10245   4.590   5.966   8.888  4.1023  1.0321 -0.4030
   78MOL0     H10246   4.541   6.100   8.770  0.2721 -0.3106 -0.4194
   78MOL0     H10247   4.456   5.818   8.727 -1.2333  0.0201 -0.6359
   78MOL0     H10248   4.397   5.965   8.663 -1.1652 -2.0520 -0.4396
   78MOL0     H10249   4.202   6.067   8.813 -0.3574 -0.4729 -0.5200
   78MOL0     H10250   3.990   6.062   8.962 -0.4268 -0.8432 -1.9898
   78MOL0     H10251   4.036   6.039   9.134  1.1380 -1.5134  1.6528
   78MOL0     H10252   3.979   5.782   9.076 -1.8008 -1.2673  0.0605
   78MOL0     H10253   3.885   5.854   8.940 -3.0633  1.1252  1.0725
   78MOL0     H10254   3.800   5.837   9.215 -1.7262  2.7561  3.1726
   78MOL0     H10255   3.813   6.008   9.166 -3.2495 -0.1294  0.8698
   78MOL0     H10256   3.659   5.948   8.963 -0.7489 -0.7204  0.1856
   78MOL0     H10257   3.609   5.926   9.127 -2.0722 -1.1451 -0.1967
   78MOL0     H10258   3.463   5.824   8.834 -0.8902  4.1306  2.8008
   78MOL0     H10259   3.225   5.773   8.855 -3.5433  0.6330  3.2354
   78MOL0     H10260   2.927   5.693   9.268  2.0846 -0.3017  0.3716
   78MOL0     H10261   2.666   5.682   9.289 -0.5545  0.5282 -2.4321
   78MOL0     H10262   2.483   5.326   9.200 -2.9382 -0.9208  0.8246
   78MOL0     H10263   2.448   5.354   9.038 -3.6638  1.1780 -0.9945
   78MOL0     H10264   2.264   5.467   9.247 -3.4673  1.7947 -2.3857
   78MOL0     H10265   2.252   5.308   9.170 -1.2397 -0.2473  0.9234
   78MOL0     H10266   2.230   5.424   8.946 -2.2095  1.5331 -1.7966
   78MOL0     H10267   2.274   5.574   9.015 -1.5284  0.2609 -0.2046
   78MOL0     H10268   2.015   5.419   9.084  2.0469 -2.5134 -2.6798
   78MOL0     H10269   2.066   5.577   9.158  1.1543  0.5003 -0.5255
   78MOL0     H10270   1.992   5.510   8.874  0.9883 -0.6895  0.5871
   78MOL0     H10271   2.070   5.660   8.920 -1.3336  1.0223 -0.2312
   78MOL0     H10272   1.814   5.692   8.905  1.0330  2.4841  2.0769
   78MOL0     H10273   1.884   5.725   9.053 -1.9893  1.0756 -1.1796
   78MOL0     H10274   1.789   5.440   9.012  0.8840  0.0047  1.2673
   78MOL0     H10275   1.773   5.528   9.160 -1.6979 -1.1599  0.1276
   78MOL0     H10276   1.545   5.511   9.034  0.7038 -0.1178  1.4693
   78MOL0     H10277   1.616   5.649   8.943 -1.9173 -1.0853 -0.7586
   78MOL0     H10278   2.673   5.340   9.018 -1.1973 -0.2769 -0.3089
   78MOL0     H10279   2.894   5.357   9.000 -3.7899 -2.3840 -0.7839
   78MOL0     H10280   3.299   5.572   9.218 -3.2347 -1.1696 -2.1307
   78MOL0     H10281   3.537   5.629   9.210  1.0448 -0.1245 -0.3350
   78MOL0     H10282   5.545   5.703   8.621 -1.2617  0.2062 -0.1379
   78MOL0     H10283   5.696   5.524   8.591  0.3517  0.0222  0.8414
   78MOL0     H10284   5.644   4.883   8.611  1.2826 -0.7656  1.9403
   78MOL0     H10285   5.843   4.741   8.574 -0.4038  0.3437 -1.0448
   78MOL0     H10286   6.238   4.883   8.517 -0.0657 -0.9628  0.2249
   78MOL0     H10287   6.158   4.905   8.352 -0.0058  0.9272  0.7630
   78MOL0     H10288   6.310   4.649   8.467  1.7391  1.6959  0.8007
   78MOL0     H10289   6.228   4.657   8.310 -1.4459  3.7367 -1.8445
   78MOL0     H10290   6.458   4.808   8.403 -0.2619  3.3597 -0.1410
   78MOL0     H10291   6.380   4.846   8.248 -0.3003  2.8083  2.8441
   78MOL0     H10292   6.441   4.603   8.177 -2.2923 -1.5678  1.8080
   78MOL0     H10293   6.587   4.685   8.234  0.4773 -2.7684  0.5015
   78MOL0     H10294   6.634   4.409   8.503  0.3396  0.6860  1.7882
   78MOL0     H10295   6.079   5.087   8.487 -1.7478  0.5210 -1.6434
   78MOL0     H10296   5.880   5.231   8.496 -0.5118  0.5756  1.0797
   79MOL0     O10297   4.450   8.194   3.174  0.3289  0.7435 -0.2947
   79MOL0     C10298   4.379   8.199   3.275  1.0527 -0.2415 -0.5113
   79MOL0     O10299   4.429   8.174   3.403  0.6056 -0.1301  0.2741
   79MOL0     C10300   4.561   8.156   3.412  0.3120  0.4778  0.5794
   79MOL0     C10301   4.626   8.029   3.407  1.5121 -0.1855  0.1301
   79MOL0     C10302   4.761   8.021   3.424 -0.0084  0.2401 -1.1257
   79MOL0     C10303   4.840   8.136   3.467 -0.3839 -0.0670  0.1192
   79MOL0     O10304   4.971   8.125   3.506 -0.2616  0.3214  0.8821
   79MOL0     C10305   5.057   8.029   3.441  0.0370  0.3291 -0.8150
   79MOL0     C10306   5.185   8.014   3.529 -0.0731 -0.0619  0.6819
   79MOL0     C10307   5.271   8.141   3.537 -0.3296 -0.2033  0.7810
   79MOL0     C10308   5.392   8.093   3.621 -0.2901 -0.7189  1.0387
   79MOL0     C10309   5.499   8.081   3.510 -0.3292 -0.1801 -0.2045
   79MOL0     C10310   5.615   7.992   3.576  0.1558 -0.0681 -0.0101
   79MOL0     C10311   5.729   7.978   3.475 -0.2526 -0.1011  0.0995
   79MOL0     C10312   5.844   7.885   3.518  0.5115 -0.5247 -0.0669
   79MOL0     N10313   5.968   7.905   3.450 -0.2020 -0.9766  0.4853
   79MOL0     C10314   6.039   7.808   3.387 -0.0888  0.0011 -0.5417
   79MOL0     C10315   6.152   7.874   3.335 -0.4237 -0.2212  0.3916
   79MOL0     C10316   6.265   7.822   3.244  0.3150 -0.7840  0.3938
   79MOL0     C10317   6.401   7.849   3.288 -0.3789  0.1103 -0.3193
   79MOL0     C10318   6.455   7.978   3.232 -0.4063  0.2931  0.6799
   79MOL0     C10319   6.609   7.986   3.230  0.6598 -0.0887 -0.0033
   79MOL0     O10320   6.648   8.113   3.174 -0.0733  0.8020 -0.3294
   79MOL0     C10321   6.783   8.116   3.155  0.6280 -0.2268  0.4500
   79MOL0     C10322   6.820   8.209   3.062 -0.2865 -0.5835 -0.2016
   79MOL0     C10323   6.957   8.251   3.046  0.3546 -0.5753  0.4274
   79MOL0     C10324   7.059   8.190   3.125 -0.0361  0.4397  0.9381
   79MOL0     C10325   7.208   8.218   3.122  0.3791 -0.5622 -0.1980
   79MOL0     O10326   7.236   8.306   3.028  0.1504  0.0925 -0.1711
   79MOL0     C10327   7.364   8.320   2.989 -0.2919  0.0735 -0.8274
   79MOL0     C10328   7.458   8.218   2.979 -0.0839  0.7170  0.2708
   79MOL0     C10329   7.589   8.243   2.930 -1.0928  0.0877 -0.2035
   79MOL0     C10330   7.627   8.373   2.887  0.1985  0.6132  0.8704
   79MOL0     O10331   7.758   8.410   2.861 -0.3219  0.2553 -0.4036
   79MOL0     C10332   7.859   8.319   2.833  0.0010 -0.6752 -0.1130
   79MOL0     C10333   7.958   8.397   2.741  0.0894 -0.0492 -1.0177
   79MOL0     C10334   7.909   8.423   2.599 -0.0962  0.5741 -0.2687
   79MOL0     C10335   8.021   8.469   2.507  0.2961 -0.6452 -0.0974
   79MOL0     C10336   7.974   8.552   2.387  0.2828 -0.4780  0.0899
   79MOL0     C10337   8.084   8.587   2.286 -0.7017  0.0667  0.3135
   79MOL0     C10338   8.025   8.676   2.174 -0.0234 -0.8061 -0.5822
   79MOL0     C10339   8.135   8.731   2.073  0.2945  0.2191 -0.7400
   79MOL0    Cl10340   8.223   8.850   2.180  0.1993  0.3640  0.4702
   79MOL0     C10341   7.536   8.472   2.883 -0.0775 -0.2858 -0.7301
   79MOL0     C10342   7.409   8.444   2.937  0.1693 -0.5915  1.0182
   79MOL0     O10343   7.283   8.166   3.204 -0.6158  0.2638  0.0125
   79MOL0     C10344   7.014   8.092   3.216 -0.1610  0.9018  0.7375
   79MOL0     C10345   6.880   8.050   3.220 -0.0063 -0.4151 -0.3010
   79MOL0     N10346   6.142   8.010   3.364  0.3915 -1.0548  0.5181
   79MOL0     N10347   6.035   8.026   3.433  1.0192 -0.4099 -0.8025
   79MOL0     C10348   4.778   8.261   3.475 -0.0523 -1.3638 -0.3712
   79MOL0     C10349   4.642   8.264   3.450  0.4527 -0.1898 -1.0560
   79MOL0     C10350   4.241   8.244   3.276  0.0443  1.1237 -0.0099
   79MOL0     C10351   4.163   8.268   3.164 -0.2991 -0.7174  0.4558
   79MOL0     C10352   4.028   8.311   3.176  0.2437  0.4499  0.2612
   79MOL0     C10353   3.977   8.339   3.299 -0.9047 -0.2710 -1.5533
   79MOL0     O10354   3.852   8.401   3.312 -0.2402  0.4215 -0.5359
   79MOL0     C10355   3.754   8.392   3.206  0.3049  0.5443 -0.5007
   79MOL0     C10356   3.635   8.475   3.251 -0.1107 -0.4826 -0.9082
   79MOL0     C10357   3.509   8.436   3.178 -1.2198  0.4765 -0.1965
   79MOL0     C10358   3.380   8.518   3.220 -0.1925  0.6041 -0.0883
   79MOL0     C10359   3.286   8.539   3.095 -0.8920 -0.7987  0.1467
   79MOL0     C10360   3.216   8.568   2.998  0.5722  0.2497  0.3806
   79MOL0     C10361   4.044   8.307   3.415  0.3265 -0.2778  0.1381
   79MOL0     C10362   4.173   8.258   3.407  0.8968  0.1075 -0.0194
   79MOL0     H10363   4.561   7.942   3.397  1.8856 -0.3520 -1.0252
   79MOL0     H10364   4.803   7.921   3.416 -1.6602 -0.5885 -0.1684
   79MOL0     H10365   5.083   8.057   3.339  1.5588  2.5310  0.0883
   79MOL0     H10366   5.009   7.931   3.432  3.0446 -1.4685  0.9775
   79MOL0     H10367   5.239   7.931   3.482 -0.5767 -1.2802  2.1676
   79MOL0     H10368   5.157   7.984   3.631  1.3727 -1.2214  0.7766
   79MOL0     H10369   5.216   8.220   3.589  2.0608  0.4323  2.4888
   79MOL0     H10370   5.304   8.187   3.443  0.5248 -1.4408  0.4542
   79MOL0     H10371   5.426   8.162   3.699 -1.2150 -0.5633  1.3259
   79MOL0     H10372   5.381   8.003   3.682 -0.7688  0.6822  3.1496
   79MOL0     H10373   5.543   8.177   3.481  1.1520 -1.5788 -2.9900
   79MOL0     H10374   5.463   8.044   3.414 -0.4364 -2.2903  0.5908
   79MOL0     H10375   5.587   7.888   3.598  4.4281 -2.0015 -2.4267
   79MOL0     H10376   5.650   8.032   3.672 -1.8708  0.2550  0.6469
   79MOL0     H10377   5.691   7.938   3.380 -0.0334 -0.5991  0.2189
   79MOL0     H10378   5.770   8.078   3.457  1.2848 -0.3119  2.0984
   79MOL0     H10379   5.827   7.777   3.517  3.0384 -0.9935 -1.8699
   79MOL0     H10380   5.861   7.903   3.625 -3.1410  2.2895  0.2457
   79MOL0     H10381   6.009   7.705   3.370 -1.5804 -0.0041  1.7136
   79MOL0     H10382   6.262   7.856   3.139  2.7603  0.8226  0.7561
   79MOL0     H10383   6.249   7.714   3.252  2.8548 -1.1209  1.6129
   79MOL0     H10384   6.458   7.758   3.266 -1.2974 -0.3815 -0.7392
   79MOL0     H10385   6.408   7.866   3.396  1.3294 -0.3835 -0.3144
   79MOL0     H10386   6.429   7.986   3.126  1.4945 -1.8307 -0.0131
   79MOL0     H10387   6.419   8.062   3.293  2.2746  1.8577  0.2377
   79MOL0     H10388   6.659   7.904   3.178  0.6487 -1.7055  2.3753
   79MOL0     H10389   6.650   7.978   3.331  2.4168  3.1084 -0.3229
   79MOL0     H10390   6.761   8.270   2.994  1.5246 -0.8508 -2.0789
   79MOL0     H10391   6.988   8.320   2.968  2.6896 -0.4186  1.3888
   79MOL0     H10392   7.432   8.117   3.007 -1.2998  0.6584 -0.9839
   79MOL0     H10393   7.666   8.167   2.938 -0.2175  1.1508  3.2989
   79MOL0     H10394   7.826   8.230   2.778  0.6218  0.3380 -2.2561
   79MOL0     H10395   7.903   8.287   2.928  1.5233  1.7327  0.0766
   79MOL0     H10396   8.053   8.342   2.738 -1.0394 -2.0798 -1.5834
   79MOL0     H10397   7.974   8.497   2.783 -1.4838 -0.0423 -0.3758
   79MOL0     H10398   7.830   8.498   2.611 -0.8612 -0.2460 -0.0052
   79MOL0     H10399   7.870   8.324   2.574  1.9651 -0.0198 -1.3431
   79MOL0     H10400   8.080   8.541   2.563 -1.0864 -0.1990  0.8381
   79MOL0     H10401   8.082   8.383   2.479  2.0571 -0.4106  2.7301
   79MOL0     H10402   7.933   8.643   2.432 -2.9707 -1.0445 -1.4502
   79MOL0     H10403   7.889   8.517   2.329  0.1410 -0.4982  0.3088
   79MOL0     H10404   8.115   8.490   2.246 -0.4897  0.2991 -0.0890
   79MOL0     H10405   8.162   8.630   2.350 -0.6297 -2.3374  1.9801
   79MOL0     H10406   7.965   8.608   2.114 -0.3400 -1.1570  0.1158
   79MOL0     H10407   7.965   8.758   2.213  1.0637 -0.9389  1.5192
   79MOL0     H10408   8.084   8.765   1.982 -1.6193 -2.7344 -0.9249
   79MOL0     H10409   8.200   8.647   2.048  1.4150  0.3145  1.5666
   79MOL0     H10410   7.550   8.575   2.853 -1.9199 -0.2576 -1.6090
   79MOL0     H10411   7.343   8.529   2.927 -0.0024 -0.9706 -1.8909
   79MOL0     H10412   7.090   8.038   3.272  0.0908  0.6890  0.1969
   79MOL0     H10413   6.850   7.974   3.291 -0.1462 -0.4237 -0.3694
   79MOL0     H10414   4.823   8.344   3.528  0.4331 -1.9657  0.1880
   79MOL0     H10415   4.600   8.362   3.473 -2.4420 -1.1684 -1.6974
   79MOL0     H10416   4.218   8.257   3.070  4.6730 -0.2079  2.9525
   79MOL0     H10417   3.986   8.334   3.079  2.8874 -2.5640 -1.7939
   79MOL0     H10418   3.712   8.293   3.184 -3.9080  2.4642 -2.1864
   79MOL0     H10419   3.791   8.434   3.113  0.9192  1.9750  0.3557
   79MOL0     H10420   3.633   8.462   3.360  1.7873  0.5015 -0.7114
   79MOL0     H10421   3.657   8.578   3.221 -0.2031  0.6665  2.4872
   79MOL0     H10422   3.501   8.327   3.192 -1.1968  0.5246  0.2060
   79MOL0     H10423   3.525   8.447   3.071  0.6696  0.6260  0.0669
   79MOL0     H10424   3.327   8.465   3.300 -0.9678  2.2179  0.5235
   79MOL0     H10425   3.425   8.609   3.261  3.1554 -0.2282 -1.6059
   79MOL0     H10426   3.153   8.599   2.917 -1.6629 -2.2090  1.0309
   79MOL0     H10427   3.988   8.330   3.505 -1.6171  4.1558 -1.8900
   79MOL0     H10428   4.217   8.243   3.505 -2.9834  2.2823  2.2997
   80MOL0     O10429   7.929   1.415   1.837 -0.3752  0.7778  0.3487
   80MOL0     C10430   7.982   1.308   1.875  0.4290  0.6394 -0.7328
   80MOL0     O10431   7.912   1.189   1.874 -0.0845  0.4137  0.0821
   80MOL0     C10432   7.787   1.176   1.804 -0.3653  0.6747 -0.4310
   80MOL0     C10433   7.671   1.134   1.871  0.2612  0.1487 -0.2987
   80MOL0     C10434   7.552   1.131   1.802  0.2789 -0.5155 -0.4786
   80MOL0     C10435   7.545   1.152   1.665 -0.5836 -0.2096  0.2990
   80MOL0     O10436   7.435   1.119   1.594  0.5977 -0.6400 -0.1570
   80MOL0     C10437   7.451   1.035   1.479 -0.0639 -0.5210  0.0882
   80MOL0     C10438   7.324   0.955   1.437  0.0169  0.0353  0.1049
   80MOL0     C10439   7.219   1.049   1.382  1.1992 -0.4101  0.1709
   80MOL0     C10440   7.101   0.990   1.306 -0.2945 -0.5804  0.3891
   80MOL0     C10441   6.976   1.083   1.324  0.1491  0.6617 -1.0440
   80MOL0     C10442   6.874   1.061   1.207  0.0221  0.6136 -0.7248
   80MOL0     C10443   6.728   1.089   1.222 -0.4240  0.5453 -0.2519
   80MOL0     C10444   6.643   1.117   1.096  1.0893  0.1175 -0.5949
   80MOL0     N10445   6.496   1.088   1.127 -0.5327 -0.4774 -0.6611
   80MOL0     C10446   6.436   0.995   1.209  0.5872  0.7610  0.2942
   80MOL0     C10447   6.309   1.032   1.233  0.2521 -0.6456 -0.6078
   80MOL0     C10448   6.195   0.958   1.314 -0.1951 -0.9091  0.0038
   80MOL0     C10449   6.083   0.903   1.209 -0.2050  0.0267  0.8168
   80MOL0     C10450   5.982   0.817   1.284 -0.1019 -0.4462  0.0959
   80MOL0     C10451   5.870   0.894   1.376 -0.7811 -0.2211  0.2199
   80MOL0     O10452   5.806   0.803   1.466  0.0404 -0.3446 -0.1208
   80MOL0     C10453   5.677   0.772   1.437 -0.6220  0.3620 -0.0052
   80MOL0     C10454   5.640   0.654   1.373 -0.5250 -0.2184  0.3419
   80MOL0     C10455   5.508   0.623   1.355 -0.4399 -0.3975  0.3183
   80MOL0     C10456   5.401   0.707   1.399  0.2844 -0.2527 -0.1965
   80MOL0     C10457   5.250   0.667   1.381 -0.9936  0.2635 -0.4712
   80MOL0     O10458   5.211   0.548   1.319  0.1032 -0.5374  0.1111
   80MOL0     C10459   5.076   0.507   1.313 -0.0484  0.6802 -0.4093
   80MOL0     C10460   5.035   0.377   1.358 -0.1309 -1.6585 -0.0487
   80MOL0     C10461   4.898   0.342   1.366  0.3620  0.2198 -0.0897
   80MOL0     C10462   4.800   0.425   1.320 -0.3037 -0.2530  0.1718
   80MOL0     O10463   4.671   0.373   1.323  1.1016 -0.4620  0.4659
   80MOL0     C10464   4.574   0.410   1.225 -0.1336  0.3256 -0.1233
   80MOL0     C10465   4.460   0.309   1.215  0.4134 -0.1088 -0.1511
   80MOL0     C10466   4.388   0.307   1.342 -0.1740  1.0780 -0.1249
   80MOL0     C10467   4.283   0.195   1.347 -0.2528 -0.0809  0.2350
   80MOL0     C10468   4.196   0.217   1.479 -1.1178 -0.5402  0.3605
   80MOL0     C10469   4.084   0.109   1.519  0.2361  0.3247  0.3043
   80MOL0     C10470   3.970   0.101   1.419 -0.0394 -0.5536 -0.0089
   80MOL0     C10471   3.854   0.007   1.473  1.0142  0.3507  0.0176
   80MOL0    Cl10472   3.723  -0.004   1.350 -0.1763 -0.5992 -0.1444
   80MOL0     C10473   4.838   0.546   1.264  0.1918  0.4542 -0.3449
   80MOL0     C10474   4.973   0.594   1.275  0.3084  0.3185 -0.1564
   80MOL0     O10475   5.171   0.747   1.431  0.0006  0.5274 -0.3516
   80MOL0     C10476   5.430   0.831   1.466 -0.5616  0.0920  0.1698
   80MOL0     C10477   5.571   0.853   1.485 -0.1585  0.6804 -0.1142
   80MOL0     N10478   6.292   1.131   1.143 -0.3923 -0.8874  0.6783
   80MOL0     N10479   6.399   1.175   1.091 -0.9313 -0.4689  0.7156
   80MOL0     C10480   7.658   1.199   1.605  0.1087  0.9308  0.2318
   80MOL0     C10481   7.783   1.208   1.667  0.6952  0.5547 -0.2986
   80MOL0     C10482   8.107   1.329   1.945  0.4235 -0.6548 -0.5724
   80MOL0     C10483   8.153   1.227   2.034  0.1916  0.2035 -0.3643
   80MOL0     C10484   8.282   1.247   2.093 -0.0061  0.4375  1.2424
   80MOL0     C10485   8.356   1.353   2.072  0.2249 -0.3354 -0.0284
   80MOL0     O10486   8.491   1.363   2.122 -0.2461  0.7579 -0.6891
   80MOL0     C10487   8.553   1.253   2.184  0.0592  0.6613 -0.5488
   80MOL0     C10488   8.697   1.279   2.206  0.4473  0.8717 -0.3163
   80MOL0     C10489   8.780   1.306   2.081  1.1412  0.0692  0.4947
   80MOL0     C10490   8.934   1.328   2.097 -0.5079  0.8525  0.0251
   80MOL0     C10491   9.010   1.200   2.124  0.0557 -0.7881 -0.3112
   80MOL0     C10492   9.073   1.098   2.116  0.2926  0.7696 -0.8396
   80MOL0     C10493   8.313   1.451   1.977  0.5181 -0.9568 -0.3645
   80MOL0     C10494   8.189   1.437   1.916 -0.2627 -0.0185 -0.0131
   80MOL0     H10495   7.672   1.128   1.979 -0.2361  0.0344 -0.2980
   80MOL0     H10496   7.462   1.109   1.858  0.5430 -0.9606 -0.2216
   80MOL0     H10497   7.531   0.966   1.507  1.4758  0.3468 -1.8915
   80MOL0     H10498   7.481   1.088   1.388  2.7688 -2.2314 -0.0884
   80MOL0     H10499   7.279   0.906   1.524 -0.4779 -1.1902 -0.8232
   80MOL0     H10500   7.353   0.870   1.374 -1.0102  0.5594 -1.1283
   80MOL0     H10501   7.258   1.129   1.318 -2.9170  3.2968  1.7672
   80MOL0     H10502   7.175   1.110   1.461  1.5627  0.5819 -0.3787
   80MOL0     H10503   7.123   0.998   1.199  1.7547 -3.8108  0.4284
   80MOL0     H10504   7.090   0.884   1.330  2.7395 -1.0101  0.2386
   80MOL0     H10505   7.002   1.190   1.322 -1.5174  1.1762  1.0506
   80MOL0     H10506   6.931   1.064   1.422  0.1358 -1.4848 -1.4341
   80MOL0     H10507   6.875   0.956   1.176 -0.3331 -0.1749  1.7367
   80MOL0     H10508   6.900   1.125   1.122 -0.2691  2.5968  0.6148
   80MOL0     H10509   6.699   0.992   1.265  1.3067 -0.8496 -2.0448
   80MOL0     H10510   6.724   1.179   1.285 -1.3790 -0.6749  1.5420
   80MOL0     H10511   6.673   1.054   1.011  3.9543  2.2850 -1.3743
   80MOL0     H10512   6.657   1.219   1.060  0.3453 -0.0040 -1.2521
   80MOL0     H10513   6.488   0.915   1.261  0.8085  0.0653 -0.9589
   80MOL0     H10514   6.150   1.033   1.379  1.2391  0.4898 -0.5554
   80MOL0     H10515   6.246   0.876   1.366 -0.7644 -0.4528  1.3217
   80MOL0     H10516   6.139   0.842   1.137 -0.8072  1.2092 -0.7160
   80MOL0     H10517   6.024   0.982   1.161  1.9770  1.4256  0.2792
   80MOL0     H10518   5.926   0.756   1.213 -0.1389 -2.1531  1.5043
   80MOL0     H10519   6.045   0.742   1.332 -1.5980 -0.6201  1.8852
   80MOL0     H10520   5.806   0.941   1.302  2.3375  1.1317 -1.8510
   80MOL0     H10521   5.906   0.978   1.437 -1.0591 -0.5015  0.7848
   80MOL0     H10522   5.719   0.595   1.328  0.3142  0.7357  0.5257
   80MOL0     H10523   5.480   0.529   1.307 -0.1103 -0.6977  0.7061
   80MOL0     H10524   5.107   0.304   1.395  0.3857 -1.1945 -0.1342
   80MOL0     H10525   4.867   0.249   1.413 -1.8764  0.0246 -1.7924
   80MOL0     H10526   4.633   0.421   1.133  1.0228  2.3370  0.8055
   80MOL0     H10527   4.541   0.512   1.246  0.2043  0.0612  1.8966
   80MOL0     H10528   4.493   0.208   1.192 -0.1401 -0.3387  0.0531
   80MOL0     H10529   4.393   0.352   1.140  0.8284 -0.9847 -1.0416
   80MOL0     H10530   4.345   0.401   1.375 -1.3828 -0.0660  1.7531
   80MOL0     H10531   4.464   0.277   1.415  1.6368  2.5848 -1.3097
   80MOL0     H10532   4.212   0.206   1.265  1.6752  4.2624 -1.1775
   80MOL0     H10533   4.333   0.097   1.350 -1.2243 -0.5725  1.0246
   80MOL0     H10534   4.137   0.309   1.471 -1.7522 -0.7274  2.3666
   80MOL0     H10535   4.263   0.233   1.564  1.6829  0.9211 -1.9059
   80MOL0     H10536   4.050   0.147   1.616  1.2746  3.0061 -0.2831
   80MOL0     H10537   4.132   0.013   1.539 -2.3000 -0.9860  0.4184
   80MOL0     H10538   3.920   0.195   1.394 -0.8255 -1.2012 -1.0011
   80MOL0     H10539   4.006   0.063   1.323  0.9392 -2.8398  1.2067
   80MOL0     H10540   3.813   0.043   1.568 -0.7501 -0.3197 -0.4426
   80MOL0     H10541   3.890  -0.095   1.488 -0.4721 -0.6183 -2.4489
   80MOL0     H10542   4.763   0.616   1.228 -1.5805  0.8071  3.5682
   80MOL0     H10543   4.995   0.689   1.229 -1.0770 -0.4170 -2.5019
   80MOL0     H10544   5.356   0.897   1.511  0.7244  2.0072 -0.4066
   80MOL0     H10545   5.619   0.932   1.542 -0.6651  2.0263 -1.4649
   80MOL0     H10546   7.643   1.233   1.503 -1.2704 -2.4332 -0.8278
   80MOL0     H10547   7.867   1.234   1.604  0.6103  0.0306 -0.6358
   80MOL0     H10548   8.093   1.141   2.058  3.6842 -2.7745 -1.3535
   80MOL0     H10549   8.328   1.174   2.158 -0.0860 -1.9799 -1.2407
   80MOL0     H10550   8.536   1.159   2.132 -0.0516  0.1830  0.3191
   80MOL0     H10551   8.504   1.251   2.282  0.4513  1.0151 -0.3436
   80MOL0     H10552   8.693   1.373   2.263  0.0069  1.2363 -0.9402
   80MOL0     H10553   8.740   1.205   2.273 -0.8265  0.7477  0.4119
   80MOL0     H10554   8.741   1.387   2.019  2.7572  0.3456 -0.2131
   80MOL0     H10555   8.767   1.228   2.006  0.9715  0.9583 -0.4230
   80MOL0     H10556   8.983   1.368   2.007  1.4019 -3.5991 -1.2266
   80MOL0     H10557   8.955   1.389   2.185  1.9706  0.0182  0.1066
   80MOL0     H10558   9.141   1.019   2.092  0.1867  1.3791 -3.4004
   80MOL0     H10559   8.389   1.528   1.963 -0.5102  0.7512  2.4989
   80MOL0     H10560   8.162   1.498   1.830  1.5698  0.5371 -0.2570
   81MOL0     O10561   2.967   8.404   2.764  0.5095  0.0236  0.4987
   81MOL0     C10562   3.003   8.314   2.692 -0.0300 -0.4083  0.7254
   81MOL0     O10563   2.915   8.223   2.629  0.2122  0.6653 -0.9642
   81MOL0     C10564   2.792   8.235   2.672  0.8168  0.2531 -0.0359
   81MOL0     C10565   2.736   8.169   2.787  0.1508 -0.6513 -0.3382
   81MOL0     C10566   2.604   8.184   2.824 -0.8122  0.5295 -0.6617
   81MOL0     C10567   2.517   8.265   2.753  0.1099 -0.3150  0.1804
   81MOL0     O10568   2.391   8.285   2.800  0.3796  0.3678  0.2156
   81MOL0     C10569   2.300   8.174   2.825 -0.0352 -0.3246 -0.8556
   81MOL0     C10570   2.159   8.217   2.869  0.0313 -1.1256  0.3065
   81MOL0     C10571   2.101   8.100   2.945  0.1720 -0.8438 -0.0062
   81MOL0     C10572   1.975   8.134   3.021 -0.4135  0.5815 -0.6535
   81MOL0     C10573   1.895   8.011   3.075  0.0563 -0.1794 -0.1108
   81MOL0     C10574   1.842   7.926   2.963  0.5433 -0.0147 -0.3015
   81MOL0     C10575   1.799   7.787   3.007 -0.2849 -0.2241 -0.8822
   81MOL0     C10576   1.719   7.719   2.899  0.2872  0.1104  0.1047
   81MOL0     N10577   1.648   7.597   2.926  0.5092 -0.0721  0.8694
   81MOL0     C10578   1.697   7.482   2.960 -0.1996  0.3012 -0.2013
   81MOL0     C10579   1.593   7.398   2.955  0.1752  0.3786 -0.0282
   81MOL0     C10580   1.611   7.253   3.003  0.2809  0.8671  0.7193
   81MOL0     C10581   1.624   7.257   3.156 -0.2606  0.6058 -0.2284
   81MOL0     C10582   1.498   7.251   3.227  1.0627 -0.6617  0.4262
   81MOL0     C10583   1.491   7.288   3.377 -0.2127 -0.0978  0.6457
   81MOL0     O10584   1.567   7.201   3.458 -0.4629 -0.4255  0.2057
   81MOL0     C10585   1.707   7.208   3.457  0.3548  0.6815  0.2692
   81MOL0     C10586   1.759   7.081   3.430 -0.2238 -0.6241  0.7373
   81MOL0     C10587   1.901   7.065   3.445  0.3198 -0.6091 -0.3466
   81MOL0     C10588   1.982   7.178   3.465 -0.0767  0.1566  0.3369
   81MOL0     C10589   2.125   7.173   3.483 -0.1311 -0.0962  0.3522
   81MOL0     O10590   2.198   7.287   3.475  0.0183 -0.0818 -0.1038
   81MOL0     C10591   2.336   7.282   3.463  1.1768 -0.5419 -0.0604
   81MOL0     C10592   2.420   7.170   3.444 -0.7918 -0.2067  0.0636
   81MOL0     C10593   2.555   7.188   3.415 -0.3140  0.1901  0.4251
   81MOL0     C10594   2.600   7.316   3.392 -0.5494  0.3984 -0.6224
   81MOL0     O10595   2.725   7.328   3.323 -0.2170  0.4288 -0.3289
   81MOL0     C10596   2.768   7.459   3.291  0.6601 -0.0254  0.9986
   81MOL0     C10597   2.910   7.452   3.233 -0.2478 -0.7397 -0.5550
   81MOL0     C10598   2.948   7.580   3.164  0.0514  0.1811  0.0652
   81MOL0     C10599   3.100   7.557   3.122 -0.5917 -0.3473 -0.0446
   81MOL0     C10600   3.153   7.691   3.066 -0.9792 -0.8080  0.4742
   81MOL0     C10601   3.305   7.689   3.026  0.0774 -0.7306 -0.3640
   81MOL0     C10602   3.397   7.618   3.127 -0.3091  0.1702 -0.1257
   81MOL0     C10603   3.550   7.600   3.085 -0.4725  1.2634 -0.2721
   81MOL0    Cl10604   3.561   7.486   2.947 -0.0170  0.0010  0.4568
   81MOL0     C10605   2.523   7.430   3.429 -0.4681 -0.1731  0.0166
   81MOL0     C10606   2.396   7.407   3.483  0.3468 -0.2799  1.2652
   81MOL0     O10607   2.168   7.066   3.532 -0.0653 -0.0002  0.6389
   81MOL0     C10608   1.929   7.299   3.475  0.1543  0.1445  0.2800
   81MOL0     C10609   1.794   7.313   3.474  0.2859 -0.8281  0.6068
   81MOL0     N10610   1.481   7.466   2.912  0.3274 -0.3234  0.6284
   81MOL0     N10611   1.511   7.590   2.890  0.0086  0.2700 -0.0508
   81MOL0     C10612   2.565   8.332   2.639 -0.5563  0.3605  0.6625
   81MOL0     C10613   2.699   8.311   2.596  0.3746  0.3245  0.6564
   81MOL0     C10614   3.148   8.305   2.651 -0.3019 -0.1099 -0.0890
   81MOL0     C10615   3.241   8.410   2.673  0.6672  0.6691  0.4612
   81MOL0     C10616   3.371   8.398   2.635 -0.6539 -0.4284  0.2644
   81MOL0     C10617   3.416   8.285   2.575  0.3256 -0.1208  1.5056
   81MOL0     O10618   3.549   8.287   2.547  0.4558  0.0300  0.1877
   81MOL0     C10619   3.610   8.182   2.464  0.0881 -0.2714  0.5852
   81MOL0     C10620   3.721   8.245   2.376  0.8956  0.0598  0.3708
   81MOL0     C10621   3.854   8.262   2.453 -0.5466  0.0108  0.9492
   81MOL0     C10622   3.954   8.335   2.366  0.0258  0.3699  0.1236
   81MOL0     C10623   4.020   8.226   2.289  0.6386 -0.0632 -0.0257
   81MOL0     C10624   4.086   8.142   2.227 -0.4437 -0.5311 -0.1326
   81MOL0     C10625   3.335   8.181   2.557 -0.3878 -0.5473  0.5143
   81MOL0     C10626   3.200   8.187   2.596  0.3120 -0.0989 -0.0737
   81MOL0     H10627   2.802   8.115   2.853  2.0579  2.9863  1.0164
   81MOL0     H10628   2.569   8.128   2.910 -4.1284  1.0778 -1.5042
   81MOL0     H10629   2.347   8.123   2.910 -0.1538 -3.0850 -2.3259
   81MOL0     H10630   2.299   8.102   2.742 -3.0196  0.5344 -1.6732
   81MOL0     H10631   2.096   8.250   2.786 -0.7121 -2.7240  0.1963
   81MOL0     H10632   2.166   8.298   2.941 -3.7850 -1.6849  1.5406
   81MOL0     H10633   2.174   8.070   3.020 -0.3061 -1.0534  0.3798
   81MOL0     H10634   2.086   8.011   2.883 -0.6192 -0.8531  0.1913
   81MOL0     H10635   2.006   8.203   3.099  3.1119 -3.0464  1.5895
   81MOL0     H10636   1.909   8.184   2.950 -0.0054  0.1574 -1.3405
   81MOL0     H10637   1.817   8.051   3.141  1.1278  1.9310 -0.0382
   81MOL0     H10638   1.953   7.945   3.141  2.7202  1.9500 -0.1588
   81MOL0     H10639   1.922   7.908   2.890 -0.4690  1.1112 -1.7516
   81MOL0     H10640   1.751   7.974   2.925 -0.7302 -2.0578 -0.0167
   81MOL0     H10641   1.885   7.721   3.021  0.0026 -0.1621 -2.2185
   81MOL0     H10642   1.749   7.793   3.104  2.7787 -2.3226  1.0081
   81MOL0     H10643   1.793   7.687   2.826 -1.9541  1.0158 -2.7203
   81MOL0     H10644   1.646   7.794   2.868 -2.5897 -1.8766  1.5768
   81MOL0     H10645   1.800   7.464   2.987 -0.3215  0.6833  0.5433
   81MOL0     H10646   1.698   7.204   2.959 -0.7307 -1.9609  1.6837
   81MOL0     H10647   1.525   7.189   2.983  2.1411 -1.7998  0.7153
   81MOL0     H10648   1.683   7.344   3.188  2.1714 -0.9290 -0.3038
   81MOL0     H10649   1.673   7.163   3.184  0.5465 -0.1376 -3.6739
   81MOL0     H10650   1.414   7.303   3.179  0.0126  0.6774  3.4626
   81MOL0     H10651   1.459   7.148   3.226 -2.8135  0.5866  2.3446
   81MOL0     H10652   1.391   7.291   3.420 -0.3091 -1.1639  0.5064
   81MOL0     H10653   1.534   7.388   3.392  2.6594 -1.0827 -0.3847
   81MOL0     H10654   1.698   6.994   3.412  0.5185 -1.5277  2.4104
   81MOL0     H10655   1.952   6.970   3.444 -0.4432 -1.0257 -0.6124
   81MOL0     H10656   2.378   7.072   3.426  0.3107 -0.7187  0.1697
   81MOL0     H10657   2.619   7.108   3.379  2.5196  2.8624 -0.9964
   81MOL0     H10658   2.779   7.518   3.382  6.8252  1.3176 -0.2122
   81MOL0     H10659   2.706   7.507   3.214  1.1399 -1.4898 -0.3656
   81MOL0     H10660   2.915   7.362   3.171 -4.9087 -4.7574  3.8856
   81MOL0     H10661   2.975   7.449   3.321  3.5970  2.3241 -2.9880
   81MOL0     H10662   2.928   7.675   3.216  1.9752  0.1764  0.9129
   81MOL0     H10663   2.887   7.588   3.074  0.4416  2.2306 -0.0727
   81MOL0     H10664   3.146   7.522   3.215 -1.8608 -2.0022  0.0069
   81MOL0     H10665   3.110   7.472   3.054  0.3281 -0.2215 -0.0771
   81MOL0     H10666   3.146   7.770   3.141 -0.2439 -1.6674  1.4878
   81MOL0     H10667   3.088   7.718   2.983 -0.7777  0.5452  0.7354
   81MOL0     H10668   3.341   7.791   3.010 -0.8288 -0.5493 -1.3406
   81MOL0     H10669   3.319   7.650   2.925  3.2492 -0.0148 -0.2935
   81MOL0     H10670   3.411   7.695   3.204  2.6440  0.5384 -0.9155
   81MOL0     H10671   3.360   7.526   3.174  1.6834 -1.3060 -1.3006
   81MOL0     H10672   3.605   7.575   3.176  0.5006  3.4045 -0.1975
   81MOL0     H10673   3.597   7.693   3.050 -1.1098  1.5484 -0.3825
   81MOL0     H10674   2.571   7.528   3.424  3.1726 -1.6550  2.0675
   81MOL0     H10675   2.345   7.498   3.514 -1.0065  0.0077 -1.4961
   81MOL0     H10676   1.994   7.384   3.494 -0.9705  1.1275 -0.1734
   81MOL0     H10677   1.750   7.412   3.484  0.8575 -0.0249 -3.2623
   81MOL0     H10678   2.494   8.397   2.590  1.1814  1.2881 -0.7481
   81MOL0     H10679   2.727   8.356   2.501 -2.3705 -0.9877 -0.8897
   81MOL0     H10680   3.207   8.503   2.715  1.8766  0.4138  2.1103
   81MOL0     H10681   3.438   8.483   2.645 -0.7155 -0.1805 -1.2850
   81MOL0     H10682   3.539   8.118   2.411  2.2504 -1.0367 -1.5261
   81MOL0     H10683   3.658   8.112   2.533  0.4787  0.8058  1.4341
   81MOL0     H10684   3.734   8.174   2.293 -0.8706  0.0460  0.0474
   81MOL0     H10685   3.687   8.339   2.332 -0.4321  0.0392  1.3034
   81MOL0     H10686   3.898   8.166   2.483 -1.7433 -0.9751 -0.3480
   81MOL0     H10687   3.832   8.312   2.548  0.7144  0.7969  0.8569
   81MOL0     H10688   3.909   8.399   2.290  1.0316 -0.1217 -0.9255
   81MOL0     H10689   4.028   8.393   2.421 -0.5766  0.8687  0.4173
   81MOL0     H10690   4.155   8.073   2.184  0.8632  1.3395 -1.2130
   81MOL0     H10691   3.363   8.092   2.501  0.0278  2.6076 -5.0273
   81MOL0     H10692   3.131   8.108   2.568  1.0231 -1.0127  0.6872
   82MOL0     O10693   9.014   8.569   6.421 -0.7291  0.3116 -0.1073
   82MOL0     C10694   9.018   8.566   6.541 -0.4719 -0.0270  0.5426
   82MOL0     O10695   8.910   8.533   6.617 -0.5614  0.1604  0.2229
   82MOL0     C10696   8.779   8.547   6.585  0.2063 -0.2121 -0.4319
   82MOL0     C10697   8.700   8.501   6.688 -0.0720 -0.4156 -0.8061
   82MOL0     C10698   8.563   8.475   6.668  0.7064  0.8135 -0.2070
   82MOL0     C10699   8.495   8.512   6.550  0.0566  0.4577 -0.7924
   82MOL0     O10700   8.356   8.509   6.541 -0.8536  0.2084  0.0575
   82MOL0     C10701   8.267   8.469   6.652  0.2869 -0.5723 -0.4491
   82MOL0     C10702   8.119   8.504   6.624 -0.7991  1.1498 -0.3477
   82MOL0     C10703   8.031   8.469   6.748 -0.4855  0.4415 -0.3686
   82MOL0     C10704   7.886   8.498   6.728 -0.3755  0.5438 -0.5666
   82MOL0     C10705   7.799   8.529   6.854  0.5977  0.3430 -0.0112
   82MOL0     C10706   7.662   8.595   6.807 -0.6910  0.3702 -0.6347
   82MOL0     C10707   7.549   8.497   6.743 -0.5894 -0.0932 -0.2117
   82MOL0     C10708   7.501   8.387   6.836 -0.6700 -0.3844  0.1694
   82MOL0     N10709   7.467   8.446   6.970  0.6233  0.7482 -1.0526
   82MOL0     C10710   7.535   8.427   7.088 -0.1293  0.2382  0.2144
   82MOL0     C10711   7.456   8.484   7.183 -0.6794 -0.2746 -0.3042
   82MOL0     C10712   7.481   8.522   7.328  0.1945  0.0393 -0.5001
   82MOL0     C10713   7.545   8.406   7.414 -0.1125 -0.1485  0.0752
   82MOL0     C10714   7.438   8.293   7.441  0.8506 -1.0489 -0.0811
   82MOL0     C10715   7.343   8.347   7.551 -0.3713  0.1297  0.0059
   82MOL0     O10716   7.224   8.265   7.543  0.1055 -0.1136  0.6632
   82MOL0     C10717   7.104   8.316   7.583 -0.1085 -0.2394  0.0270
   82MOL0     C10718   7.025   8.382   7.499 -0.8115  0.3751  0.5451
   82MOL0     C10719   6.911   8.450   7.541 -0.2445 -0.1766 -0.2172
   82MOL0     C10720   6.872   8.442   7.680 -0.4576  0.3315 -0.3603
   82MOL0     C10721   6.764   8.520   7.728  0.4578 -0.2682 -0.3005
   82MOL0     O10722   6.674   8.568   7.650 -0.1680  0.2200  0.1112
   82MOL0     C10723   6.589   8.662   7.694 -0.0041 -0.3412 -0.0297
   82MOL0     C10724   6.584   8.770   7.609 -0.0576  0.2719 -0.5943
   82MOL0     C10725   6.484   8.873   7.626  0.4350  0.4452  0.2996
   82MOL0     C10726   6.385   8.864   7.723  0.2702  0.3160 -0.6730
   82MOL0     O10727   6.289   8.955   7.741  0.2913  0.1462  0.1652
   82MOL0     C10728   6.289   9.080   7.667  0.7251 -0.0110 -0.4901
   82MOL0     C10729   6.197   9.165   7.744  0.5282 -0.7416 -0.1367
   82MOL0     C10730   6.273   9.237   7.856 -0.1395  1.2493  0.5171
   82MOL0     C10731   6.187   9.323   7.944  0.6646  0.4078  0.0663
   82MOL0     C10732   6.091   9.245   8.035  0.6532  0.3660 -0.1773
   82MOL0     C10733   6.017   9.323   8.138  0.6916 -0.3162 -0.0371
   82MOL0     C10734   5.929   9.232   8.227 -0.8289 -0.1618 -0.1992
   82MOL0     C10735   5.835   9.299   8.324  0.0465 -0.5398  0.6380
   82MOL0    Cl10736   5.713   9.413   8.246  0.0989  0.3122 -0.4331
   82MOL0     C10737   6.389   8.747   7.807 -0.0797 -1.0795 -0.6188
   82MOL0     C10738   6.496   8.660   7.801  0.6786  1.1943  0.1210
   82MOL0     O10739   6.773   8.548   7.848  0.0156  0.5125  0.5529
   82MOL0     C10740   6.947   8.361   7.772  0.8454 -0.8102  0.1342
   82MOL0     C10741   7.067   8.300   7.717 -0.3358  0.0063 -0.7011
   82MOL0     N10742   7.333   8.511   7.122  0.5626  0.0024  0.3559
   82MOL0     N10743   7.342   8.480   6.999  0.4989 -0.5204  0.1689
   82MOL0     C10744   8.572   8.566   6.454 -0.3742 -0.3057 -0.1091
   82MOL0     C10745   8.714   8.599   6.468 -0.0434  0.4183 -0.5731
   82MOL0     C10746   9.132   8.607   6.616  0.0717 -0.1603 -0.5916
   82MOL0     C10747   9.120   8.658   6.746 -0.7411 -0.5286 -0.0472
   82MOL0     C10748   9.230   8.716   6.808  0.0877 -0.5954  0.7853
   82MOL0     C10749   9.353   8.711   6.747  0.2689 -0.3187 -1.1076
   82MOL0     O10750   9.468   8.760   6.819 -1.0954 -0.1400  0.6897
   82MOL0     C10751   9.602   8.689   6.807  0.5747 -1.0945  0.1594
   82MOL0     C10752   9.722   8.778   6.855  0.9475 -0.4599 -0.1722
   82MOL0     C10753   9.712   8.829   7.002  0.1035  0.1059  0.0060
   82MOL0     C10754   9.750   8.733   7.110 -0.0387 -0.4264  0.4108
   82MOL0     C10755   9.896   8.713   7.104 -0.2987  0.2256  0.5813
   82MOL0     C10756  10.016   8.707   7.116  0.0422  0.5142  0.6617
   82MOL0     C10757   9.369   8.652   6.622 -0.4477 -0.7811 -0.0783
   82MOL0     C10758   9.256   8.599   6.555 -0.4389 -0.7123 -0.3744
   82MOL0     H10759   8.755   8.490   6.781 -1.2222 -0.4180 -0.1026
   82MOL0     H10760   8.507   8.439   6.754  0.7742 -0.4995 -0.6779
   82MOL0     H10761   8.301   8.524   6.741 -2.9791  3.3813 -1.3200
   82MOL0     H10762   8.282   8.361   6.661  1.1523 -0.5761 -1.7918
   82MOL0     H10763   8.091   8.446   6.536  1.4054 -1.9104  0.7893
   82MOL0     H10764   8.115   8.611   6.602 -3.5091  0.9737 -1.1088
   82MOL0     H10765   8.070   8.540   6.822 -0.4808  0.9620 -0.8691
   82MOL0     H10766   8.045   8.367   6.786  0.3858  0.4738 -0.5740
   82MOL0     H10767   7.882   8.576   6.651 -0.3740  1.8092  0.6760
   82MOL0     H10768   7.834   8.411   6.685 -3.0868  1.6648  0.2257
   82MOL0     H10769   7.855   8.600   6.915  0.2566  1.9018 -1.4374
   82MOL0     H10770   7.787   8.447   6.925  0.4720  1.6586  1.5402
   82MOL0     H10771   7.682   8.664   6.724  1.0941  0.1414 -0.4243
   82MOL0     H10772   7.619   8.659   6.885  2.1504  2.4476 -0.6394
   82MOL0     H10773   7.465   8.562   6.718  0.0062  1.0941  0.7251
   82MOL0     H10774   7.595   8.449   6.656 -0.6748  3.0969 -2.1865
   82MOL0     H10775   7.575   8.307   6.832 -0.2330  0.0148 -3.5726
   82MOL0     H10776   7.407   8.354   6.791  0.0206 -2.8793  0.4415
   82MOL0     H10777   7.632   8.381   7.103 -1.5416 -2.9998  0.1700
   82MOL0     H10778   7.392   8.562   7.378 -0.9014 -0.3109 -2.1147
   82MOL0     H10779   7.550   8.608   7.328  0.6479 -0.2323 -3.2420
   82MOL0     H10780   7.573   8.454   7.508  0.4922 -0.1974 -0.0741
   82MOL0     H10781   7.632   8.364   7.364  1.3030  2.2759  0.3506
   82MOL0     H10782   7.385   8.277   7.347 -1.3259  3.5556  0.0948
   82MOL0     H10783   7.492   8.202   7.467  0.2297 -2.7137 -3.9007
   82MOL0     H10784   7.304   8.448   7.538 -1.6625  0.0090  2.3730
   82MOL0     H10785   7.391   8.342   7.650 -1.2078  0.0232  0.4143
   82MOL0     H10786   7.055   8.387   7.395  1.0688  3.1578  1.1045
   82MOL0     H10787   6.851   8.502   7.466 -2.7869 -2.4328  0.1272
   82MOL0     H10788   6.654   8.772   7.526  1.0117 -3.6508 -0.0204
   82MOL0     H10789   6.476   8.937   7.539  0.9271 -2.4774 -2.0659
   82MOL0     H10790   6.246   9.063   7.568 -0.7157 -2.2823  0.4498
   82MOL0     H10791   6.385   9.131   7.657 -0.2585  2.1046  0.0585
   82MOL0     H10792   6.117   9.105   7.788  0.3540  0.6259  1.5342
   82MOL0     H10793   6.154   9.251   7.691  0.9913 -0.1041  0.5057
   82MOL0     H10794   6.356   9.293   7.810  0.9883 -1.9494 -1.7038
   82MOL0     H10795   6.310   9.166   7.930 -0.6907  3.1295  2.7104
   82MOL0     H10796   6.257   9.373   8.011 -0.8581  0.4949  1.6478
   82MOL0     H10797   6.152   9.404   7.878  0.0397  0.0863 -0.0084
   82MOL0     H10798   6.137   9.157   8.083  0.4369  0.9760  1.2094
   82MOL0     H10799   6.023   9.203   7.960  2.1927 -0.4102 -1.2051
   82MOL0     H10800   5.947   9.382   8.078 -1.7953 -2.4419  0.5635
   82MOL0     H10801   6.083   9.392   8.192 -0.7975  2.2350 -1.2975
   82MOL0     H10802   5.866   9.170   8.163 -0.1778 -0.6895 -0.3394
   82MOL0     H10803   6.001   9.168   8.280 -0.1166 -0.3970 -1.4258
   82MOL0     H10804   5.894   9.362   8.393  0.8264  0.4525 -0.8639
   82MOL0     H10805   5.782   9.216   8.369  0.3864  0.0638  2.2363
   82MOL0     H10806   6.299   8.736   7.867 -2.4507 -2.4549 -4.0624
   82MOL0     H10807   6.496   8.585   7.879 -1.5666  2.1335  1.1175
   82MOL0     H10808   6.915   8.349   7.874  0.2146 -0.2652  0.0104
   82MOL0     H10809   7.143   8.250   7.776  0.2259  1.9174  0.2667
   82MOL0     H10810   8.516   8.594   6.366  0.9746 -1.8048 -1.5061
   82MOL0     H10811   8.771   8.659   6.398 -2.3980  2.3852 -0.9223
   82MOL0     H10812   9.018   8.659   6.784 -0.6973  2.1080  0.1928
   82MOL0     H10813   9.220   8.756   6.908 -1.4241  1.1967 -0.0224
   82MOL0     H10814   9.616   8.654   6.704  2.5102 -2.3967  0.8197
   82MOL0     H10815   9.581   8.596   6.861 -3.5980 -0.4647 -0.0181
   82MOL0     H10816   9.815   8.721   6.853 -0.2889 -2.7097  1.0765
   82MOL0     H10817   9.723   8.864   6.788 -3.2490 -0.3119 -0.3411
   82MOL0     H10818   9.608   8.864   7.002  0.8555  2.5877 -1.6698
   82MOL0     H10819   9.773   8.919   7.006 -1.3039  1.2273 -1.8950
   82MOL0     H10820   9.729   8.783   7.205  1.0339  0.3653  0.2419
   82MOL0     H10821   9.695   8.638   7.112  0.1981 -0.5570  1.3501
   82MOL0     H10822  10.121   8.725   7.126  0.3884 -1.6740  1.5430
   82MOL0     H10823   9.464   8.656   6.570  0.9358 -0.4974  2.3286
   82MOL0     H10824   9.270   8.554   6.457 -1.5290  1.3993 -1.5715
   83MOL0     O10825   0.541   9.706   3.171 -0.2400 -0.4741  0.1168
   83MOL0     C10826   0.634   9.659   3.242  0.3495 -0.8438 -0.2177
   83MOL0     O10827   0.615   9.576   3.348 -0.0929 -0.7042 -0.1690
   83MOL0     C10828   0.489   9.548   3.393  1.0656 -0.2143  0.7261
   83MOL0     C10829   0.388   9.640   3.433 -0.2308  0.2117 -0.3278
   83MOL0     C10830   0.266   9.597   3.484  0.4623 -0.4028 -0.1792
   83MOL0     C10831   0.235   9.453   3.502  0.2058 -0.9686  0.1456
   83MOL0     O10832   0.117   9.407   3.551  0.2827  0.1551  0.1867
   83MOL0     C10833   0.056   9.494   3.647 -0.0750 -0.0033 -0.1460
   83MOL0     C10834  -0.031   9.413   3.748 -0.1056 -0.3406  0.9400
   83MOL0     C10835  -0.116   9.507   3.831  0.9130  0.4856 -0.6640
   83MOL0     C10836  -0.211   9.423   3.919  1.0955 -0.3524  0.4185
   83MOL0     C10837  -0.272   9.498   4.043  0.4286  0.5173  0.2108
   83MOL0     C10838  -0.392   9.403   4.093 -0.5685  0.3267 -0.3277
   83MOL0     C10839  -0.477   9.470   4.188  0.0002  0.7218  0.1240
   83MOL0     C10840  -0.615   9.395   4.199 -0.3685  0.3334 -0.5080
   83MOL0     N10841  -0.719   9.495   4.241 -0.4519  0.0136 -0.0725
   83MOL0     C10842  -0.786   9.468   4.357  0.0745  0.2475 -0.7359
   83MOL0     C10843  -0.916   9.499   4.346 -0.5607  0.2244 -0.4550
   83MOL0     C10844  -1.005   9.489   4.469 -0.3663  0.0607 -1.3869
   83MOL0     C10845  -1.111   9.599   4.462 -0.8827  0.4303 -0.0940
   83MOL0     C10846  -1.218   9.561   4.360 -0.2677 -0.2702 -0.6643
   83MOL0     C10847  -1.339   9.497   4.426 -0.0612  0.2851 -0.2046
   83MOL0     O10848  -1.445   9.481   4.329 -0.3462 -0.0652  0.2606
   83MOL0     C10849  -1.570   9.441   4.370 -0.0959 -0.1467  0.2360
   83MOL0     C10850  -1.585   9.336   4.476  0.5318 -0.0028  0.1130
   83MOL0     C10851  -1.713   9.299   4.518  0.3838  0.0174 -0.2735
   83MOL0     C10852  -1.826   9.356   4.454 -0.1731 -1.2621 -0.1963
   83MOL0     C10853  -1.963   9.302   4.493 -0.4957 -0.0522  0.2873
   83MOL0     O10854  -2.062   9.361   4.423  0.2038  0.2875  0.3616
   83MOL0     C10855  -2.196   9.340   4.445 -0.3738 -1.0215  0.9690
   83MOL0     C10856  -2.267   9.443   4.389  1.1142  0.3280 -0.6441
   83MOL0     C10857  -2.409   9.453   4.404 -1.4366 -0.1667 -0.2276
   83MOL0     C10858  -2.473   9.354   4.474  1.1630  1.0675  0.3008
   83MOL0     O10859  -2.610   9.379   4.503  0.2841  0.0610 -0.3616
   83MOL0     C10860  -2.667   9.337   4.629 -0.1179 -0.0969  0.4875
   83MOL0     C10861  -2.820   9.361   4.634  0.5036 -0.3975  1.8295
   83MOL0     C10862  -2.894   9.269   4.541  0.6339  0.8213  0.1962
   83MOL0     C10863  -3.040   9.318   4.526  0.5950  0.3131  0.0389
   83MOL0     C10864  -3.118   9.238   4.419  0.3519  0.6403 -0.1681
   83MOL0     C10865  -3.088   9.079   4.428 -0.3801 -0.2732  0.3440
   83MOL0     C10866  -3.170   9.002   4.324  0.3403  0.2010 -0.9885
   83MOL0     C10867  -3.111   8.875   4.274 -0.0072  0.4523  0.2332
   83MOL0    Cl10868  -3.026   8.777   4.388 -0.2337  0.0056  0.3359
   83MOL0     C10869  -2.404   9.246   4.530 -0.3890  0.4837  0.0773
   83MOL0     C10870  -2.262   9.237   4.519  0.7376 -0.2555 -0.0344
   83MOL0     O10871  -1.968   9.219   4.578 -0.1322 -0.3500  0.2041
   83MOL0     C10872  -1.815   9.470   4.367 -0.1033  0.1884  1.0129
   83MOL0     C10873  -1.681   9.518   4.326  0.2030 -0.0727  0.2391
   83MOL0     N10874  -0.938   9.537   4.212 -0.2778  0.2161 -0.3934
   83MOL0     N10875  -0.823   9.533   4.154  0.3212  0.1857  0.5463
   83MOL0     C10876   0.340   9.359   3.474  0.7772 -0.0941 -0.0718
   83MOL0     C10877   0.459   9.410   3.411 -0.0404  0.2495 -0.5536
   83MOL0     C10878   0.763   9.666   3.176  0.4684  0.6742 -0.3076
   83MOL0     C10879   0.861   9.581   3.221 -1.2244 -0.2129 -0.5302
   83MOL0     C10880   0.989   9.586   3.159 -0.0895 -0.0287 -0.0419
   83MOL0     C10881   1.024   9.667   3.061 -0.4548 -0.0272 -0.7009
   83MOL0     O10882   1.149   9.665   3.003  1.6139  0.4019  0.8040
   83MOL0     C10883   1.215   9.771   2.931  0.6778  0.5503 -0.0927
   83MOL0     C10884   1.351   9.724   2.901 -0.9320 -0.0676 -0.3003
   83MOL0     C10885   1.463   9.832   2.885 -0.1371  0.3123 -0.2292
   83MOL0     C10886   1.597   9.777   2.851 -0.2024  0.2911 -0.1107
   83MOL0     C10887   1.706   9.874   2.872  0.5625 -0.0184  0.4482
   83MOL0     C10888   1.782   9.955   2.912  0.4432 -0.5677 -0.0944
   83MOL0     C10889   0.919   9.751   3.003  0.4025  1.3557 -0.7986
   83MOL0     C10890   0.791   9.740   3.058 -0.5129 -0.6393 -0.4403
   83MOL0     H10891   0.388   9.746   3.411 -0.6135  0.6419  1.5835
   83MOL0     H10892   0.191   9.670   3.511  0.1655 -1.4491  2.0316
   83MOL0     H10893   0.008   9.573   3.587  2.0246 -1.3282 -3.9119
   83MOL0     H10894   0.136   9.543   3.703  3.0435  1.7420 -5.3509
   83MOL0     H10895   0.050   9.371   3.809  2.0976  0.8103 -1.0115
   83MOL0     H10896  -0.093   9.337   3.699  0.9843 -0.0608 -0.9641
   83MOL0     H10897  -0.164   9.580   3.766  0.7694  3.0634  2.1375
   83MOL0     H10898  -0.049   9.564   3.895 -0.2350  1.8765 -0.6723
   83MOL0     H10899  -0.283   9.374   3.853  2.8205 -1.5203 -0.7067
   83MOL0     H10900  -0.151   9.352   3.978  0.7104 -0.4669  0.6769
   83MOL0     H10901  -0.304   9.595   4.005  1.2976  1.2117  1.1767
   83MOL0     H10902  -0.202   9.516   4.125  1.2800  3.0114 -0.9541
   83MOL0     H10903  -0.356   9.314   4.145  1.3730  1.9382  1.2638
   83MOL0     H10904  -0.452   9.365   4.010 -0.1380 -1.8895  0.3110
   83MOL0     H10905  -0.430   9.467   4.287 -1.2335  1.3248  0.7608
   83MOL0     H10906  -0.478   9.575   4.157  4.1673  1.6229  2.2162
   83MOL0     H10907  -0.599   9.314   4.270  0.0754 -0.9572 -2.0068
   83MOL0     H10908  -0.648   9.352   4.104 -2.8258 -2.8398  1.5585
   83MOL0     H10909  -0.739   9.436   4.450 -1.6379 -4.3696 -1.2056
   83MOL0     H10910  -0.936   9.512   4.551 -1.0260 -1.9831 -0.2021
   83MOL0     H10911  -1.060   9.395   4.479 -2.8660  1.2318 -3.1160
   83MOL0     H10912  -1.066   9.692   4.425 -3.6034  0.7314 -3.1593
   83MOL0     H10913  -1.149   9.617   4.563  1.4772  1.0177  0.7368
   83MOL0     H10914  -1.257   9.657   4.325  1.4671  0.0591 -1.7754
   83MOL0     H10915  -1.189   9.498   4.276  0.5757 -1.2313  0.3134
   83MOL0     H10916  -1.369   9.573   4.499  1.2918  1.7049 -1.0593
   83MOL0     H10917  -1.325   9.396   4.465 -5.1895 -0.0033  1.6998
   83MOL0     H10918  -1.506   9.298   4.539  1.9984  1.8364 -0.5358
   83MOL0     H10919  -1.718   9.226   4.598 -1.2447  1.1817  0.7503
   83MOL0     H10920  -2.213   9.522   4.337 -1.1134  1.3189 -1.5703
   83MOL0     H10921  -2.464   9.533   4.356 -0.5455 -1.2979 -3.3404
   83MOL0     H10922  -2.625   9.389   4.716  2.0159 -0.2619 -0.3977
   83MOL0     H10923  -2.650   9.234   4.661 -0.3640  0.3855  2.3106
   83MOL0     H10924  -2.840   9.464   4.605 -2.8783 -1.8221 -1.8143
   83MOL0     H10925  -2.859   9.355   4.736 -0.9014  0.7567  1.3967
   83MOL0     H10926  -2.901   9.166   4.578  0.4388  1.3914  1.8456
   83MOL0     H10927  -2.863   9.273   4.436 -1.4466  0.9333 -0.4616
   83MOL0     H10928  -3.084   9.293   4.623 -0.6777 -0.6397 -0.7473
   83MOL0     H10929  -3.042   9.427   4.516  2.3137  0.4545  0.9190
   83MOL0     H10930  -3.096   9.269   4.317  1.6789 -1.3650 -0.5620
   83MOL0     H10931  -3.222   9.260   4.444 -1.4161 -2.5306 -3.6730
   83MOL0     H10932  -3.100   9.036   4.528 -0.0521  0.9690  0.9380
   83MOL0     H10933  -2.979   9.072   4.415 -0.4770 -1.4778  0.0466
   83MOL0     H10934  -3.265   8.978   4.372  1.2898 -1.7165  0.0207
   83MOL0     H10935  -3.193   9.062   4.235 -0.4562  1.1835 -0.1488
   83MOL0     H10936  -3.054   8.889   4.182 -1.4194  1.1755 -0.5578
   83MOL0     H10937  -3.186   8.804   4.239 -0.2977 -0.0215  1.7476
   83MOL0     H10938  -2.454   9.165   4.582  1.1245 -1.8072 -1.7963
   83MOL0     H10939  -2.207   9.161   4.573 -1.4977 -1.1261  1.1263
   83MOL0     H10940  -1.898   9.516   4.315  0.1841  0.4558  0.7914
   83MOL0     H10941  -1.666   9.596   4.253 -2.1651  1.7911  1.6011
   83MOL0     H10942   0.332   9.253   3.498 -0.1354  0.1326  0.6585
   83MOL0     H10943   0.534   9.337   3.381 -2.5716 -2.1025 -1.5977
   83MOL0     H10944   0.833   9.508   3.296 -3.5269  0.6913 -0.4149
   83MOL0     H10945   1.067   9.524   3.202 -0.1641 -0.3804 -0.4148
   83MOL0     H10946   1.206   9.865   2.986 -0.1874 -0.1796  1.0421
   83MOL0     H10947   1.163   9.775   2.834 -0.1677  1.5293  0.3772
   83MOL0     H10948   1.373   9.656   2.985  0.2323 -0.3353 -0.7908
   83MOL0     H10949   1.347   9.667   2.808 -0.6834 -0.2512 -0.2028
   83MOL0     H10950   1.464   9.898   2.972  0.3822  0.3570 -0.2693
   83MOL0     H10951   1.443   9.898   2.800  2.0086 -1.8981 -2.6210
   83MOL0     H10952   1.622   9.693   2.917 -1.8380 -2.3380 -2.6284
   83MOL0     H10953   1.604   9.736   2.750 -0.7114 -1.4029  0.5060
   83MOL0     H10954   1.848  10.035   2.938 -0.5570  0.6720 -1.2686
   83MOL0     H10955   0.941   9.826   2.927 -3.7900  2.6671 -1.0044
   83MOL0     H10956   0.704   9.799   3.032  0.1688  2.2382  3.0280
   84MOL0     O10957   1.337   5.681   1.825 -0.6745 -0.1160  0.1827
   84MOL0     C10958   1.460   5.666   1.831 -0.7259  0.2414 -0.9750
   84MOL0     O10959   1.526   5.551   1.788  0.3234  0.7889 -0.1466
   84MOL0     C10960   1.460   5.432   1.787 -1.3545 -0.0214  0.5428
   84MOL0     C10961   1.499   5.337   1.696 -0.0674  0.4919 -0.3720
   84MOL0     C10962   1.436   5.209   1.685 -0.0712 -0.5338 -0.1009
   84MOL0     C10963   1.330   5.178   1.771 -0.2813  0.2570  0.4802
   84MOL0     O10964   1.290   5.051   1.781  0.3369 -0.0826  0.2513
   84MOL0     C10965   1.168   5.026   1.861  0.3902 -0.5742 -1.4026
   84MOL0     C10966   1.102   4.899   1.804 -0.9776 -0.1585  0.2897
   84MOL0     C10967   0.957   4.903   1.783  0.5840  0.3371 -0.6349
   84MOL0     C10968   0.890   4.910   1.920 -0.5623  0.0252 -0.0685
   84MOL0     C10969   0.744   4.871   1.910 -0.1677 -0.3590  1.0255
   84MOL0     C10970   0.673   4.866   2.047 -0.9849 -0.5300  0.2254
   84MOL0     C10971   0.530   4.816   2.031  0.0719  0.7398  0.0365
   84MOL0     C10972   0.454   4.811   2.163 -0.4517 -0.0211 -0.1338
   84MOL0     N10973   0.306   4.783   2.146  0.8225  0.2078 -0.0823
   84MOL0     C10974   0.209   4.820   2.233  0.3515 -0.0822 -0.3337
   84MOL0     C10975   0.096   4.753   2.205 -0.4086 -0.8800  0.1855
   84MOL0     C10976  -0.030   4.738   2.272  0.2051  0.3745 -0.1497
   84MOL0     C10977  -0.053   4.853   2.364 -0.4737 -0.6693 -0.8053
   84MOL0     C10978  -0.184   4.847   2.434 -0.8752 -0.5121  0.2220
   84MOL0     C10979  -0.306   4.863   2.338 -0.0582  0.1299  1.8127
   84MOL0     O10980  -0.435   4.864   2.409 -0.6590  0.6644 -0.6871
   84MOL0     C10981  -0.546   4.855   2.329 -0.3310  0.7125 -0.7796
   84MOL0     C10982  -0.675   4.855   2.389  0.1351 -0.1651  0.4755
   84MOL0     C10983  -0.791   4.831   2.317  0.7474 -0.5259  1.3145
   84MOL0     C10984  -0.783   4.815   2.172  0.5010  0.0307 -0.8943
   84MOL0     C10985  -0.912   4.789   2.099 -0.9734  0.5558  0.0430
   84MOL0     O10986  -1.021   4.834   2.147  0.2740  0.4105 -0.3695
   84MOL0     C10987  -1.144   4.774   2.120 -0.5295 -0.0039  0.3662
   84MOL0     C10988  -1.257   4.864   2.132 -0.0708  0.4206 -0.5994
   84MOL0     C10989  -1.396   4.831   2.116  0.7616 -0.1260 -1.0210
   84MOL0     C10990  -1.419   4.712   2.043 -0.5367  0.3571  0.6407
   84MOL0     O10991  -1.533   4.655   2.003  0.6673  0.1673  0.2688
   84MOL0     C10992  -1.658   4.739   2.019 -0.2219 -0.4159 -0.8436
   84MOL0     C10993  -1.781   4.669   1.969 -0.6220  0.5961 -0.5871
   84MOL0     C10994  -1.901   4.762   1.991 -0.2573  0.2523  0.4715
   84MOL0     C10995  -2.033   4.731   1.908 -0.0769  0.6738 -0.1653
   84MOL0     C10996  -2.013   4.756   1.756 -0.1336  0.7617 -0.3446
   84MOL0     C10997  -2.115   4.671   1.676  0.2205 -0.7397 -0.0997
   84MOL0     C10998  -2.254   4.726   1.709 -0.3361  0.3510  0.5462
   84MOL0     C10999  -2.367   4.715   1.607 -0.6639 -0.2115 -0.0176
   84MOL0    Cl11000  -2.506   4.798   1.692 -1.0697 -0.6657 -0.3547
   84MOL0     C11001  -1.309   4.625   2.013 -0.7620 -0.3081  0.2236
   84MOL0     C11002  -1.175   4.652   2.061  0.3329  0.6308 -0.8272
   84MOL0     O11003  -0.902   4.740   1.987  0.6339 -0.3708 -0.2622
   84MOL0     C11004  -0.656   4.795   2.117 -0.8037 -0.2241 -0.7762
   84MOL0     C11005  -0.537   4.827   2.192 -0.0632 -0.2537  0.3737
   84MOL0     N11006   0.127   4.669   2.097  0.3112  0.0874  0.5538
   84MOL0     N11007   0.253   4.688   2.066  0.4512  0.0084  0.3981
   84MOL0     C11008   1.282   5.279   1.855  0.5452 -0.1851 -0.7800
   84MOL0     C11009   1.341   5.406   1.859 -0.4887  0.5791  0.2366
   84MOL0     C11010   1.541   5.767   1.893  0.2329 -0.3490  0.4281
   84MOL0     C11011   1.664   5.743   1.961 -0.1869 -0.0783  0.3272
   84MOL0     C11012   1.739   5.834   2.034  0.2213 -0.4389 -0.6300
   84MOL0     C11013   1.698   5.964   2.034 -0.4470  0.4958 -0.1526
   84MOL0     O11014   1.759   6.075   2.081  0.2855 -0.2687 -0.3501
   84MOL0     C11015   1.891   6.064   2.131  0.1109  0.6059 -0.4688
   84MOL0     C11016   1.964   6.207   2.113  0.0188  0.2382 -0.1123
   84MOL0     C11017   1.950   6.254   1.967  0.5864 -0.6621  0.4021
   84MOL0     C11018   1.834   6.347   1.929  0.0718  1.4704 -0.3754
   84MOL0     C11019   1.856   6.488   1.984 -0.1448  0.7933 -0.3521
   84MOL0     C11020   1.877   6.593   2.035  0.7217 -0.5363  0.2183
   84MOL0     C11021   1.580   5.994   1.973  0.7659 -0.5466 -0.0166
   84MOL0     C11022   1.502   5.900   1.905  0.1318  0.1103  0.0768
   84MOL0     H11023   1.584   5.355   1.630 -0.5875 -0.4614 -1.3391
   84MOL0     H11024   1.483   5.129   1.628  1.2641  0.6997 -0.8266
   84MOL0     H11025   1.098   5.107   1.841  2.8320  2.3475  0.9271
   84MOL0     H11026   1.181   5.014   1.969  0.4560 -1.3771 -1.4895
   84MOL0     H11027   1.126   4.814   1.869  0.4160  0.1295  0.1961
   84MOL0     H11028   1.152   4.887   1.708  1.3958 -0.2041  1.4335
   84MOL0     H11029   0.915   4.818   1.727  1.0124 -0.2543 -0.0711
   84MOL0     H11030   0.927   4.996   1.734  1.2203  0.8082 -0.1509
   84MOL0     H11031   0.940   4.839   1.987 -1.4449  0.2228  0.8293
   84MOL0     H11032   0.910   5.005   1.971  3.8235  0.4016 -2.0726
   84MOL0     H11033   0.720   4.775   1.863 -0.2820  1.0739 -2.1482
   84MOL0     H11034   0.690   4.942   1.846  3.1451  1.2474 -0.2239
   84MOL0     H11035   0.661   4.959   2.103 -1.8820  0.0877 -0.9656
   84MOL0     H11036   0.728   4.793   2.107  0.2432  0.7244  0.6648
   84MOL0     H11037   0.477   4.883   1.962 -0.7549  0.4065  0.3292
   84MOL0     H11038   0.530   4.719   1.981  0.7080  1.2688 -1.0346
   84MOL0     H11039   0.456   4.912   2.206 -0.0505 -1.1606  2.7251
   84MOL0     H11040   0.495   4.730   2.223 -0.6596  0.2859  0.4304
   84MOL0     H11041   0.227   4.895   2.309  0.4712  0.8962 -1.2906
   84MOL0     H11042  -0.039   4.645   2.329  1.6220  0.8967  0.9738
   84MOL0     H11043  -0.110   4.723   2.199 -1.0038 -1.1734  1.3987
   84MOL0     H11044  -0.040   4.948   2.312  0.9049 -0.2072  0.3113
   84MOL0     H11045   0.025   4.858   2.441 -2.1317  1.2309  0.8587
   84MOL0     H11046  -0.190   4.755   2.493 -2.4119  1.0088  2.6193
   84MOL0     H11047  -0.182   4.929   2.507 -3.4316 -1.6407  1.6959
   84MOL0     H11048  -0.313   4.775   2.274 -1.1842  1.7629 -0.4418
   84MOL0     H11049  -0.281   4.942   2.266  1.8447 -1.3914  0.7046
   84MOL0     H11050  -0.686   4.859   2.497  0.2165  0.0930  0.4756
   84MOL0     H11051  -0.891   4.829   2.358  0.8287 -0.2465  1.5314
   84MOL0     H11052  -1.233   4.967   2.158  1.8084  0.0570 -0.7169
   84MOL0     H11053  -1.471   4.903   2.146  2.2745  1.7414 -1.5653
   84MOL0     H11054  -1.640   4.833   1.967 -0.3545  0.5764  0.8410
   84MOL0     H11055  -1.687   4.759   2.122 -1.9417 -1.5209 -1.0836
   84MOL0     H11056  -1.787   4.584   2.038  0.1376  0.6521 -0.4460
   84MOL0     H11057  -1.760   4.640   1.865  3.3601  0.1604  0.1768
   84MOL0     H11058  -1.862   4.863   1.977  0.6488 -0.1329  0.1195
   84MOL0     H11059  -1.936   4.739   2.092  0.5143 -0.6571  0.5470
   84MOL0     H11060  -2.062   4.629   1.934 -1.1666  1.1862  0.7543
   84MOL0     H11061  -2.115   4.792   1.946 -0.8412 -1.5193  2.0026
   84MOL0     H11062  -1.911   4.726   1.732  0.1020 -2.6837  3.7639
   84MOL0     H11063  -2.035   4.860   1.729  1.1164  0.9080 -0.8255
   84MOL0     H11064  -2.121   4.568   1.712 -0.5727 -0.2765  1.1644
   84MOL0     H11065  -2.083   4.674   1.572  0.5500 -3.3648 -0.1478
   84MOL0     H11066  -2.294   4.677   1.799  0.2718 -0.8743  0.1777
   84MOL0     H11067  -2.243   4.833   1.724  2.3131 -0.1550  2.9257
   84MOL0     H11068  -2.386   4.610   1.586  0.3129 -0.4859  0.4323
   84MOL0     H11069  -2.338   4.776   1.521 -0.7919  0.4482  0.3917
   84MOL0     H11070  -1.337   4.531   1.966  0.2397 -0.5731  0.1327
   84MOL0     H11071  -1.103   4.573   2.044  3.1540  2.1021  2.9273
   84MOL0     H11072  -0.637   4.756   2.017 -0.8619 -1.9199 -0.1557
   84MOL0     H11073  -0.440   4.835   2.144 -0.1869 -1.7294 -0.1845
   84MOL0     H11074   1.211   5.254   1.934  1.8308  0.8360  0.7726
   84MOL0     H11075   1.296   5.482   1.923 -3.3210 -0.2142 -0.6623
   84MOL0     H11076   1.704   5.643   1.961 -3.2672 -1.4368 -1.0609
   84MOL0     H11077   1.832   5.804   2.082  1.0060 -1.3360 -2.6073
   84MOL0     H11078   1.952   6.004   2.063  2.3051  1.9671  0.2039
   84MOL0     H11079   1.903   6.017   2.230 -0.5947 -0.6965 -0.9757
   84MOL0     H11080   1.932   6.283   2.184 -3.0760  0.5552 -1.6422
   84MOL0     H11081   2.070   6.192   2.133  0.5273  0.6764 -2.2518
   84MOL0     H11082   1.934   6.167   1.902 -0.6146 -1.2660  1.4577
   84MOL0     H11083   2.043   6.301   1.934  1.1092 -2.2467 -0.5396
   84MOL0     H11084   1.829   6.362   1.821  3.3071 -3.3989 -1.5162
   84MOL0     H11085   1.738   6.305   1.962  1.0422 -0.5967 -0.0064
   84MOL0     H11086   1.903   6.685   2.083 -1.5138 -0.7899  2.1130
   84MOL0     H11087   1.536   6.093   1.981  2.8166  0.6595 -2.4166
   84MOL0     H11088   1.407   5.920   1.856  0.5313 -0.7971 -1.1074
   85MOL0     O11089   1.880   9.181   4.795 -0.1447  0.0783  0.5045
   85MOL0     C11090   1.910   9.147   4.903 -0.2579  0.7952  0.0966
   85MOL0     O11091   2.043   9.109   4.928  0.5485  0.1826 -0.3195
   85MOL0     C11092   2.135   9.107   4.826  0.5234  0.1825 -0.1982
   85MOL0     C11093   2.234   9.003   4.829 -0.5091  0.6820  0.3784
   85MOL0     C11094   2.327   9.000   4.732  0.2694 -0.5298 -0.7762
   85MOL0     C11095   2.333   9.083   4.622  0.5174  0.1362 -0.6084
   85MOL0     O11096   2.433   9.048   4.531 -0.3033 -0.0400 -0.5617
   85MOL0     C11097   2.447   9.139   4.413 -0.1120  0.3921  0.0757
   85MOL0     C11098   2.570   9.095   4.321 -0.3963  0.4545 -0.3458
   85MOL0     C11099   2.551   8.972   4.234 -0.9257 -0.2749 -0.1412
   85MOL0     C11100   2.670   8.946   4.138  0.6188 -0.5415  0.2714
   85MOL0     C11101   2.710   9.066   4.043 -0.3706  0.8652 -0.7753
   85MOL0     C11102   2.771   9.009   3.913  0.7543  0.2470 -0.4288
   85MOL0     C11103   2.828   9.128   3.832 -0.1166 -1.1746 -0.1212
   85MOL0     C11104   2.939   9.101   3.732  0.0123 -0.0171  0.3952
   85MOL0     N11105   3.002   9.221   3.660  0.1968  0.0501  0.7217
   85MOL0     C11106   3.123   9.288   3.702 -0.2601  0.0887 -0.0081
   85MOL0     C11107   3.147   9.370   3.595 -0.6027  0.0731 -0.1277
   85MOL0     C11108   3.267   9.458   3.585  0.0102  0.5271 -0.0778
   85MOL0     C11109   3.403   9.382   3.574 -0.6035 -1.1705  0.2096
   85MOL0     C11110   3.481   9.376   3.697 -0.4413 -0.2562  0.2017
   85MOL0     C11111   3.604   9.285   3.680 -0.8982 -0.5666  0.2031
   85MOL0     O11112   3.670   9.286   3.813  0.2650  0.1599 -0.4002
   85MOL0     C11113   3.787   9.209   3.838  0.0686 -1.0956 -0.3356
   85MOL0     C11114   3.854   9.219   3.956 -0.8382  0.0155 -0.1958
   85MOL0     C11115   3.975   9.155   3.985  0.5694  0.0115  0.5128
   85MOL0     C11116   4.023   9.056   3.894 -0.0185  0.4163  0.5614
   85MOL0     C11117   4.157   8.983   3.912 -0.4645  0.7372  0.6605
   85MOL0     O11118   4.240   9.059   3.981 -0.3319 -0.0100 -0.3272
   85MOL0     C11119   4.364   9.020   3.978 -1.0329 -0.2484  0.4116
   85MOL0     C11120   4.447   9.041   3.872  0.5663 -0.5307 -0.0932
   85MOL0     C11121   4.589   9.023   3.888  0.9791  0.1735 -0.1072
   85MOL0     C11122   4.650   8.962   4.001 -0.1029 -0.3507  0.1594
   85MOL0     O11123   4.789   8.934   4.015 -0.1511 -0.1853  0.1147
   85MOL0     C11124   4.880   8.983   3.921 -0.7556 -0.0447 -0.9864
   85MOL0     C11125   5.020   8.920   3.958  0.9999 -0.2622  0.4813
   85MOL0     C11126   5.120   8.947   3.849  0.3669 -0.1249  0.4199
   85MOL0     C11127   5.253   8.885   3.890 -0.1613 -0.0065  0.1841
   85MOL0     C11128   5.364   8.882   3.781  0.7114  0.4430  0.2487
   85MOL0     C11129   5.413   9.025   3.753  0.2016  0.4056 -0.3278
   85MOL0     C11130   5.523   9.031   3.649  0.3199  0.0468 -0.2330
   85MOL0     C11131   5.641   9.137   3.691 -0.3623 -0.1798  1.2637
   85MOL0    Cl11132   5.582   9.303   3.732  0.4900 -0.0455 -0.1329
   85MOL0     C11133   4.554   8.921   4.095 -0.2210 -0.4880 -0.6497
   85MOL0     C11134   4.422   8.951   4.089  0.8048 -0.5967  0.8838
   85MOL0     O11135   4.181   8.883   3.849 -0.1942 -0.0880 -0.1784
   85MOL0     C11136   3.956   9.038   3.773 -0.8083  0.1743  0.0792
   85MOL0     C11137   3.841   9.117   3.749 -0.2530 -0.5952  0.3679
   85MOL0     N11138   3.041   9.360   3.505  0.5628 -0.1428 -0.0393
   85MOL0     N11139   2.963   9.271   3.548 -0.0600 -0.2645  0.3348
   85MOL0     C11140   2.238   9.190   4.614  0.1813 -0.0289 -0.1480
   85MOL0     C11141   2.145   9.200   4.718  0.5008  0.0524  0.4111
   85MOL0     C11142   1.832   9.167   5.022 -0.0975 -0.2487  0.3653
   85MOL0     C11143   1.700   9.220   5.001  0.0534  0.4914 -0.1647
   85MOL0     C11144   1.613   9.241   5.114 -0.6291 -1.0332 -0.8598
   85MOL0     C11145   1.657   9.214   5.251  0.9821  0.4807  0.1039
   85MOL0     O11146   1.580   9.221   5.368 -0.3769  0.3583  0.8058
   85MOL0     C11147   1.460   9.299   5.342  0.0901  0.2754 -0.5036
   85MOL0     C11148   1.405   9.334   5.485 -0.4648  0.6386 -0.2647
   85MOL0     C11149   1.269   9.410   5.487 -0.5083 -0.1956 -0.5415
   85MOL0     C11150   1.238   9.425   5.639  0.3020 -0.3066 -0.3509
   85MOL0     C11151   1.160   9.546   5.646  0.9856 -0.6715  0.8878
   85MOL0     C11152   1.086   9.643   5.666 -0.0026  1.0421  0.1851
   85MOL0     C11153   1.794   9.184   5.265 -0.6811 -0.3185  0.2800
   85MOL0     C11154   1.873   9.150   5.150 -0.3853 -0.2979  0.5374
   85MOL0     H11155   2.235   8.941   4.918 -3.8689  3.2811  2.4570
   85MOL0     H11156   2.394   8.915   4.742  0.3579 -0.4520 -0.7135
   85MOL0     H11157   2.459   9.244   4.439 -0.0924  1.0473 -2.3656
   85MOL0     H11158   2.359   9.138   4.348  0.6040 -0.1176 -0.9149
   85MOL0     H11159   2.656   9.081   4.387  0.3162 -1.5886 -1.6092
   85MOL0     H11160   2.591   9.183   4.258 -2.4013  1.1351 -0.1698
   85MOL0     H11161   2.460   8.987   4.177 -0.5996 -0.6463 -0.7708
   85MOL0     H11162   2.533   8.882   4.293  0.0842 -0.5000 -0.1560
   85MOL0     H11163   2.760   8.919   4.195 -0.1334  0.4044  2.0011
   85MOL0     H11164   2.650   8.865   4.068  2.3553 -2.3406  1.7227
   85MOL0     H11165   2.794   9.118   4.090  0.2281  0.4475 -1.3434
   85MOL0     H11166   2.635   9.143   4.024  0.1667  1.4433 -0.5928
   85MOL0     H11167   2.694   8.960   3.853 -0.0882 -1.8208  2.1639
   85MOL0     H11168   2.843   8.936   3.950 -0.7852 -0.4561  1.3775
   85MOL0     H11169   2.744   9.179   3.785  0.7207 -1.3633 -1.9207
   85MOL0     H11170   2.863   9.204   3.904  2.9755 -2.6570  0.1070
   85MOL0     H11171   2.897   9.035   3.655 -1.3674 -0.1836  1.2533
   85MOL0     H11172   3.023   9.050   3.779  2.4565  3.1075 -0.2345
   85MOL0     H11173   3.182   9.283   3.792  0.2283  1.1789 -0.2548
   85MOL0     H11174   3.269   9.529   3.668  1.2054  2.2557 -1.4838
   85MOL0     H11175   3.260   9.521   3.495  1.0383  0.6281 -0.1059
   85MOL0     H11176   3.471   9.416   3.495 -0.3298  1.2703  1.4126
   85MOL0     H11177   3.390   9.277   3.547  1.4881 -0.9747 -1.9148
   85MOL0     H11178   3.517   9.477   3.721 -1.1797  0.0579  0.0300
   85MOL0     H11179   3.424   9.341   3.783  3.1060 -2.0612  2.0472
   85MOL0     H11180   3.672   9.316   3.601 -1.2378  0.8740  0.4500
   85MOL0     H11181   3.574   9.180   3.669  1.1320 -1.3363  1.3720
   85MOL0     H11182   3.808   9.283   4.030 -1.8983  1.9026 -2.3702
   85MOL0     H11183   4.016   9.171   4.084 -4.1005  0.1072  2.6965
   85MOL0     H11184   4.418   9.097   3.784  3.4324 -1.4284 -1.7452
   85MOL0     H11185   4.651   9.068   3.811 -0.1004 -2.2411 -2.5574
   85MOL0     H11186   4.883   9.093   3.922 -2.0443  0.0442  1.4206
   85MOL0     H11187   4.865   8.936   3.823 -0.0508  2.1342 -2.2325
   85MOL0     H11188   5.003   8.814   3.976  2.9807 -0.4004  1.7915
   85MOL0     H11189   5.061   8.950   4.055  2.0832  2.1686 -0.6332
   85MOL0     H11190   5.133   9.054   3.833 -0.1046  0.1703  1.8573
   85MOL0     H11191   5.084   8.909   3.753  1.3605  3.8887 -1.7224
   85MOL0     H11192   5.288   8.931   3.982  2.5395 -1.8858  0.2209
   85MOL0     H11193   5.232   8.779   3.906 -0.4440 -0.1298 -0.8902
   85MOL0     H11194   5.321   8.828   3.696 -0.2201 -0.2691  1.1426
   85MOL0     H11195   5.443   8.819   3.822 -0.3273 -0.0349  1.6372
   85MOL0     H11196   5.452   9.078   3.841  0.6146  0.3972 -0.5045
   85MOL0     H11197   5.317   9.070   3.727 -0.2609 -1.0485 -1.2557
   85MOL0     H11198   5.553   8.934   3.608 -2.0333  0.4930 -3.4031
   85MOL0     H11199   5.489   9.080   3.557  1.0987  2.9077  0.8890
   85MOL0     H11200   5.710   9.148   3.607  0.9725  0.9077  2.4472
   85MOL0     H11201   5.707   9.100   3.770  2.0699 -0.6402 -0.8796
   85MOL0     H11202   4.600   8.887   4.187 -1.6398  4.3243  2.1982
   85MOL0     H11203   4.362   8.945   4.179 -1.0082  1.0205 -0.1427
   85MOL0     H11204   4.008   8.977   3.701 -0.3624 -0.1021  0.6278
   85MOL0     H11205   3.787   9.103   3.656 -1.0361  0.7797  0.5803
   85MOL0     H11206   2.243   9.258   4.529  0.3686  0.4473  0.2406
   85MOL0     H11207   2.069   9.277   4.714 -0.7363 -1.1851 -1.5312
   85MOL0     H11208   1.667   9.261   4.906  1.5082  1.4470 -0.2882
   85MOL0     H11209   1.519   9.293   5.101  0.4567  0.7650 -1.8304
   85MOL0     H11210   1.381   9.250   5.285 -3.5807  2.7758  1.9786
   85MOL0     H11211   1.488   9.392   5.292  0.1068  0.4467 -0.1840
   85MOL0     H11212   1.395   9.235   5.532 -2.4240 -0.3688 -2.5823
   85MOL0     H11213   1.476   9.392   5.545 -0.4071  1.6624 -1.3026
   85MOL0     H11214   1.192   9.349   5.439  0.6967 -1.0381 -1.4910
   85MOL0     H11215   1.276   9.502   5.429 -1.4044  0.2210  0.0031
   85MOL0     H11216   1.183   9.339   5.679 -3.4295  1.6012 -1.0344
   85MOL0     H11217   1.324   9.438   5.707  0.4447 -1.2030 -0.3453
   85MOL0     H11218   1.021   9.728   5.678 -0.2677  0.9285 -0.3903
   85MOL0     H11219   1.843   9.156   5.358  0.8918 -0.6288 -0.6221
   85MOL0     H11220   1.970   9.107   5.172 -0.5953 -3.4409 -3.3877
   86MOL0     O11221   4.087   0.737   9.912 -0.8097 -0.0292 -0.2611
   86MOL0     C11222   4.076   0.862   9.917  0.2909 -0.2167  0.2654
   86MOL0     O11223   3.955   0.926   9.919 -0.8408  0.1225  0.1005
   86MOL0     C11224   3.839   0.856   9.899 -0.3635  0.6395  0.3654
   86MOL0     C11225   3.834   0.755   9.800  0.1010 -0.4468  0.0814
   86MOL0     C11226   3.712   0.697   9.767  0.2428 -1.0977 -0.1046
   86MOL0     C11227   3.597   0.730   9.836 -0.0855 -0.1441 -0.0885
   86MOL0     O11228   3.484   0.681   9.783  0.4693 -0.0964  0.0664
   86MOL0     C11229   3.363   0.649   9.859 -0.7855 -0.8314  0.3600
   86MOL0     C11230   3.235   0.695   9.792 -0.6981  0.3395 -0.0849
   86MOL0     C11231   3.100   0.648   9.853 -0.7769  0.1770  0.3685
   86MOL0     C11232   2.983   0.725   9.794 -0.2315  0.4460  0.9913
   86MOL0     C11233   2.855   0.664   9.846  0.8656  0.2336  0.5832
   86MOL0     C11234   2.730   0.741   9.794  0.0044 -0.1019 -0.5241
   86MOL0     C11235   2.691   0.869   9.869  0.1286  0.7038 -0.5103
   86MOL0     C11236   2.566   0.935   9.801  0.2599  0.2166 -0.3660
   86MOL0     N11237   2.439   0.866   9.805 -0.4624  0.0285 -0.3745
   86MOL0     C11238   2.351   0.866   9.910  0.5169 -0.2538 -0.2940
   86MOL0     C11239   2.250   0.789   9.871  0.0108 -0.4641 -1.2329
   86MOL0     C11240   2.127   0.763   9.955  0.1529  0.2760  0.2738
   86MOL0     C11241   1.992   0.816   9.885 -0.0159  0.0212  0.1176
   86MOL0     C11242   1.874   0.749   9.952  0.2707  0.8414  0.4912
   86MOL0     C11243   1.737   0.806   9.903 -0.0607  0.6454 -0.4569
   86MOL0     O11244   1.632   0.707   9.918 -0.3630 -0.0255 -0.5589
   86MOL0     C11245   1.503   0.738   9.898  0.1666 -0.6322 -0.2940
   86MOL0     C11246   1.419   0.637   9.849 -0.1424  0.1933  0.7078
   86MOL0     C11247   1.281   0.650   9.851  1.0105 -0.9781 -0.3303
   86MOL0     C11248   1.224   0.765   9.915  0.5157  0.5168 -0.4664
   86MOL0     C11249   1.077   0.773   9.931 -0.3734 -0.1564 -1.0057
   86MOL0     O11250   0.996   0.663   9.895 -0.4464 -0.6440 -0.1294
   86MOL0     C11251   0.892   0.636   9.978  0.0242  0.3527  0.0298
   86MOL0     C11252   0.895   0.653  10.121  1.4458 -0.8196 -0.3936
   86MOL0     C11253   0.773   0.627  10.188 -0.3442  0.9340 -0.8985
   86MOL0     C11254   0.656   0.583  10.131 -0.0430 -1.4576  0.4635
   86MOL0     O11255   0.547   0.554  10.208  0.2852  0.4202 -0.4415
   86MOL0     C11256   0.486   0.665  10.273  0.0012  0.3472  0.3236
   86MOL0     C11257   0.358   0.624  10.333  0.6481  0.0930 -0.2560
   86MOL0     C11258   0.387   0.533  10.452 -0.1122 -0.5044  0.0428
   86MOL0     C11259   0.261   0.526  10.540  0.7597 -0.3573  0.3599
   86MOL0     C11260   0.243   0.641  10.634  1.2821  0.6275 -0.0465
   86MOL0     C11261   0.099   0.626  10.708  0.5599 -0.2309 -0.4200
   86MOL0     C11262   0.100   0.532  10.827  0.1825 -0.2178 -0.3126
   86MOL0     C11263   0.161   0.588  10.951  0.2213 -0.4962 -0.4517
   86MOL0    Cl11264   0.089   0.526  11.108 -0.0853 -0.2179 -0.3104
   86MOL0     C11265   0.657   0.569   9.992 -0.3865 -0.0795  0.0705
   86MOL0     C11266   0.777   0.591   9.916  0.0658  0.3335  0.3026
   86MOL0     O11267   1.027   0.871   9.979 -0.2823 -0.5424  0.1226
   86MOL0     C11268   1.301   0.878   9.931 -0.9807 -0.7824  0.6471
   86MOL0     C11269   1.441   0.867   9.919  0.1851  0.2824 -0.2675
   86MOL0     N11270   2.273   0.752   9.739  0.1920 -0.4897  0.0985
   86MOL0     N11271   2.387   0.798   9.695  0.2660 -0.3413  0.6353
   86MOL0     C11272   3.603   0.829   9.936  0.1284 -0.1891 -0.6693
   86MOL0     C11273   3.723   0.884   9.966 -0.9518  1.1581 -0.1722
   86MOL0     C11274   4.187   0.950   9.926  0.3248 -0.1937  1.1833
   86MOL0     C11275   4.162   1.089   9.902 -0.7135 -0.2137  0.3484
   86MOL0     C11276   4.275   1.172   9.908  0.4073 -0.4897  0.2595
   86MOL0     C11277   4.402   1.129   9.959 -0.5425 -0.1658  0.3668
   86MOL0     O11278   4.497   1.228   9.983  0.6358 -0.3461 -0.2896
   86MOL0     C11279   4.630   1.201   9.922  0.6848 -0.3592  0.1810
   86MOL0     C11280   4.680   1.328   9.856 -0.4732  0.1787  0.0505
   86MOL0     C11281   4.743   1.424   9.966 -0.8190  0.5792  0.6616
   86MOL0     C11282   4.651   1.454  10.080  0.2590 -0.4669  0.6777
   86MOL0     C11283   4.711   1.554  10.166  0.1651  0.4122 -0.1799
   86MOL0     C11284   4.761   1.641  10.226 -0.3687 -1.0755  0.4760
   86MOL0     C11285   4.415   0.994   9.982  0.7626  0.3386 -0.5578
   86MOL0     C11286   4.308   0.905   9.961 -0.2314 -0.4204 -0.6336
   86MOL0     H11287   3.919   0.723   9.740 -1.1945  1.2088 -2.7974
   86MOL0     H11288   3.713   0.610   9.702  0.1243  0.7681 -2.7698
   86MOL0     H11289   3.378   0.676   9.964 -0.3086 -0.8890  0.3125
   86MOL0     H11290   3.356   0.540   9.855  1.2021 -0.9793 -1.2686
   86MOL0     H11291   3.237   0.665   9.687 -1.0958  0.2541 -0.0701
   86MOL0     H11292   3.244   0.804   9.798  1.8044  0.1237  2.0265
   86MOL0     H11293   3.104   0.654   9.962 -0.2589 -2.0938  0.5377
   86MOL0     H11294   3.093   0.542   9.825 -4.2506  0.0980  1.1134
   86MOL0     H11295   2.986   0.829   9.829 -1.3540  1.1736 -0.9140
   86MOL0     H11296   2.987   0.729   9.685  1.7638 -1.2452  0.9347
   86MOL0     H11297   2.861   0.640   9.952  1.0049  1.8769  0.9678
   86MOL0     H11298   2.858   0.574   9.783  1.6963  2.7144 -3.2416
   86MOL0     H11299   2.651   0.665   9.804 -1.3825  1.4336  0.7024
   86MOL0     H11300   2.742   0.765   9.687 -1.2217 -0.1103 -0.6804
   86MOL0     H11301   2.671   0.840   9.973 -0.5513 -0.3641 -0.9245
   86MOL0     H11302   2.770   0.945   9.873 -0.0148  1.0417 -2.9252
   86MOL0     H11303   2.594   0.962   9.699 -0.1677  0.4842 -0.4178
   86MOL0     H11304   2.547   1.032   9.847 -1.4941 -1.3170  2.3624
   86MOL0     H11305   2.368   0.900  10.011 -2.2091 -2.5165  1.0470
   86MOL0     H11306   2.149   0.819  10.046 -1.2002 -1.2621  1.6089
   86MOL0     H11307   2.115   0.656   9.976  0.7548 -0.4081 -2.4544
   86MOL0     H11308   2.009   0.782   9.783 -0.7675 -0.4100  0.1290
   86MOL0     H11309   1.970   0.923   9.883 -2.9771 -0.3980  2.6996
   86MOL0     H11310   1.867   0.640   9.938 -4.1356  0.7325  1.9193
   86MOL0     H11311   1.880   0.772  10.059  1.8180  1.7297  0.2362
   86MOL0     H11312   1.751   0.844   9.801 -0.4784  0.8147 -0.4528
   86MOL0     H11313   1.703   0.884   9.972  0.6284  0.9727 -0.4764
   86MOL0     H11314   1.462   0.542   9.817  2.2080  1.8692 -1.5711
   86MOL0     H11315   1.208   0.574   9.825 -0.0653 -0.2989  0.6116
   86MOL0     H11316   0.984   0.680  10.177  0.0255  3.3581  0.1981
   86MOL0     H11317   0.778   0.640  10.295  3.2353 -0.3327 -0.7816
   86MOL0     H11318   0.483   0.736  10.190  2.1795 -0.1003 -0.1784
   86MOL0     H11319   0.553   0.709  10.347  1.2221  0.1496 -0.6402
   86MOL0     H11320   0.304   0.578  10.249 -0.1990  1.5125 -0.5408
   86MOL0     H11321   0.302   0.714  10.362  2.1700  0.6352  1.1026
   86MOL0     H11322   0.471   0.566  10.513 -2.4403  0.8310  2.7943
   86MOL0     H11323   0.413   0.435  10.411 -1.5267  0.1901 -2.7863
   86MOL0     H11324   0.171   0.517  10.478  0.2512 -2.6939  1.3604
   86MOL0     H11325   0.273   0.438  10.602  2.2830  1.1993  2.4191
   86MOL0     H11326   0.236   0.735  10.578 -2.2307  0.4840 -0.0338
   86MOL0     H11327   0.326   0.640  10.706  0.2299 -1.3534  1.2385
   86MOL0     H11328   0.033   0.599  10.625 -0.1347  2.3156 -0.7798
   86MOL0     H11329   0.048   0.720  10.729  0.3534 -0.4644  0.1279
   86MOL0     H11330  -0.004   0.510  10.853  0.6107 -2.0434  0.0083
   86MOL0     H11331   0.150   0.438  10.804  2.1384  0.6932  0.0140
   86MOL0     H11332   0.152   0.697  10.941 -0.7577 -0.5286 -0.0657
   86MOL0     H11333   0.262   0.546  10.952 -0.2285 -1.8392  3.3944
   86MOL0     H11334   0.570   0.530   9.940  0.7613 -0.9080 -1.3085
   86MOL0     H11335   0.773   0.582   9.808 -1.5578  4.6311 -0.1796
   86MOL0     H11336   1.263   0.974   9.965 -0.9121 -0.9486  1.1928
   86MOL0     H11337   1.489   0.958   9.956  0.2009 -0.4443  1.5960
   86MOL0     H11338   3.517   0.852   9.999  0.3299  0.2785 -0.5691
   86MOL0     H11339   3.730   0.951  10.051 -0.8842 -2.5406  3.0345
   86MOL0     H11340   4.066   1.122   9.865  0.0519  1.0190 -0.6222
   86MOL0     H11341   4.261   1.279   9.893  0.2732 -0.8545 -2.7524
   86MOL0     H11342   4.627   1.118   9.851  0.1638  0.8667 -1.2901
   86MOL0     H11343   4.708   1.180   9.996  0.7750  2.5958  1.0255
   86MOL0     H11344   4.756   1.307   9.781 -2.8293 -0.1532 -2.4296
   86MOL0     H11345   4.594   1.371   9.803 -0.2779  0.2221 -0.2332
   86MOL0     H11346   4.761   1.519   9.914 -2.0979  0.1903 -0.5408
   86MOL0     H11347   4.834   1.376  10.001 -1.0990  0.9354  1.9222
   86MOL0     H11348   4.556   1.486  10.036  1.8681  0.0138 -2.7505
   86MOL0     H11349   4.634   1.365  10.141  2.5101  0.2316  2.4639
   86MOL0     H11350   4.819   1.712  10.282 -0.1251 -0.0899 -0.9554
   86MOL0     H11351   4.516   0.961  10.004  1.6589  1.9391 -2.0081
   86MOL0     H11352   4.319   0.798   9.981  2.7980  0.0079  0.6173
   87MOL0     O11353   1.443   4.426   8.831  0.1482 -1.0804 -0.1178
   87MOL0     C11354   1.471   4.372   8.938 -0.7976 -1.1065  0.0695
   87MOL0     O11355   1.379   4.338   9.033  1.2645 -0.1403 -0.4431
   87MOL0     C11356   1.247   4.379   9.012 -0.7724  0.3463 -0.5687
   87MOL0     C11357   1.178   4.458   9.101 -0.8826 -0.3117  0.6657
   87MOL0     C11358   1.048   4.488   9.091  0.2164 -0.5432  0.2315
   87MOL0     C11359   0.976   4.444   8.980  0.3231  0.3918 -0.1925
   87MOL0     O11360   0.837   4.458   8.979 -0.2514 -0.6525 -0.1492
   87MOL0     C11361   0.787   4.587   9.018 -0.6602  0.4998 -0.1080
   87MOL0     C11362   0.636   4.555   9.060  0.4548  0.0521  0.3354
   87MOL0     C11363   0.545   4.676   9.054  0.5158 -0.2763  0.3002
   87MOL0     C11364   0.513   4.725   8.908  0.3169  0.0453  0.0784
   87MOL0     C11365   0.408   4.838   8.885  0.3968 -0.2659 -0.0685
   87MOL0     C11366   0.267   4.778   8.918 -0.8060 -0.3415 -0.0101
   87MOL0     C11367   0.163   4.897   8.900 -0.6648 -0.0232 -0.1354
   87MOL0     C11368   0.022   4.838   8.878 -1.0715  0.0257 -0.9682
   87MOL0     N11369  -0.079   4.933   8.828 -0.6223  0.5893  0.2456
   87MOL0     C11370  -0.150   5.019   8.912 -0.1797 -0.4055  0.1541
   87MOL0     C11371  -0.243   5.083   8.828 -0.1669 -0.1813 -0.6430
   87MOL0     C11372  -0.338   5.181   8.882 -0.6180 -0.5950  0.3493
   87MOL0     C11373  -0.349   5.314   8.803 -1.1560 -0.1409  0.1869
   87MOL0     C11374  -0.434   5.278   8.682  0.2071  0.5932 -0.1620
   87MOL0     C11375  -0.585   5.291   8.709  0.4725 -0.7777  1.0340
   87MOL0     O11376  -0.623   5.422   8.757  0.4028  0.3455 -0.4517
   87MOL0     C11377  -0.761   5.435   8.777 -0.1470  0.4312  0.1192
   87MOL0     C11378  -0.829   5.542   8.713  0.8550  0.5616  0.5248
   87MOL0     C11379  -0.963   5.564   8.734  0.3563 -0.2632 -0.5612
   87MOL0     C11380  -1.031   5.482   8.821 -0.6873  0.2987  0.0809
   87MOL0     C11381  -1.164   5.506   8.860  0.4004  0.2006  0.5951
   87MOL0     O11382  -1.233   5.409   8.920 -1.0176 -0.1015 -0.7740
   87MOL0     C11383  -1.363   5.416   8.960 -0.0337  0.0341 -0.7646
   87MOL0     C11384  -1.460   5.511   8.916  0.3925 -0.0924 -0.6098
   87MOL0     C11385  -1.597   5.491   8.961 -1.1287 -0.3819 -0.0690
   87MOL0     C11386  -1.625   5.380   9.039  0.1927 -0.2116 -0.0065
   87MOL0     O11387  -1.764   5.366   9.076 -0.7949 -0.4226 -0.1115
   87MOL0     C11388  -1.818   5.235   9.067  0.6140  0.2813  1.1178
   87MOL0     C11389  -1.948   5.244   8.991  0.8198 -0.5280  1.0628
   87MOL0     C11390  -1.993   5.106   8.951  0.0155 -0.1333  0.2636
   87MOL0     C11391  -2.097   5.112   8.835 -0.6241 -0.5451 -0.5891
   87MOL0     C11392  -2.160   4.975   8.814  0.3216  0.1136  0.9425
   87MOL0     C11393  -2.250   4.968   8.692 -0.0817  0.3902  0.4117
   87MOL0     C11394  -2.343   4.849   8.696  0.2602  0.1942  0.4671
   87MOL0     C11395  -2.383   4.818   8.553 -0.6515  0.1663  0.0877
   87MOL0    Cl11396  -2.422   4.954   8.446  0.7949 -0.1006  0.3594
   87MOL0     C11397  -1.529   5.295   9.090  0.9376  0.0880  0.0512
   87MOL0     C11398  -1.397   5.315   9.055 -0.1565  0.3184 -0.4731
   87MOL0     O11399  -1.211   5.622   8.849  0.2763 -0.1532 -0.0631
   87MOL0     C11400  -0.958   5.376   8.884  0.7211  0.0275 -0.1508
   87MOL0     C11401  -0.822   5.356   8.866 -0.9528  0.4944  0.2055
   87MOL0     N11402  -0.230   5.026   8.704  0.3541  0.3333  0.0573
   87MOL0     N11403  -0.143   4.932   8.709  0.2529  0.0083  0.8011
   87MOL0     C11404   1.043   4.374   8.879 -0.0486 -0.7227 -0.3563
   87MOL0     C11405   1.172   4.342   8.899 -0.7137  0.2946 -0.3810
   87MOL0     C11406   1.614   4.363   8.986  0.1890  0.5722  0.4126
   87MOL0     C11407   1.650   4.275   9.088 -0.2432  1.0718  1.6140
   87MOL0     C11408   1.787   4.249   9.111 -0.4007 -0.5182  0.1045
   87MOL0     C11409   1.882   4.323   9.039 -0.3219  0.1387 -0.5862
   87MOL0     O11410   2.019   4.330   9.071 -0.2763  0.0149  0.2380
   87MOL0     C11411   2.044   4.436   9.154  0.8939  0.3893 -0.9983
   87MOL0     C11412   2.011   4.400   9.302 -0.8418 -0.1370  0.6349
   87MOL0     C11413   2.068   4.257   9.345 -0.7802 -0.3720 -0.2209
   87MOL0     C11414   2.208   4.281   9.403 -0.6639 -0.0153 -0.0816
   87MOL0     C11415   2.254   4.168   9.480 -0.1133  1.0077  0.2445
   87MOL0     C11416   2.296   4.062   9.530 -0.4146 -0.1504 -0.5545
   87MOL0     C11417   1.842   4.402   8.929  0.3144  0.4822  0.8450
   87MOL0     C11418   1.707   4.414   8.897  0.5478  0.1636  0.5204
   87MOL0     H11419   1.233   4.507   9.180 -1.7581  3.1891 -0.7344
   87MOL0     H11420   0.999   4.531   9.178 -0.0175  1.3361 -0.7704
   87MOL0     H11421   0.806   4.648   8.930 -1.6273  0.9592 -0.0108
   87MOL0     H11422   0.833   4.636   9.105 -1.3592  3.0481 -1.0764
   87MOL0     H11423   0.632   4.523   9.164 -1.4046  2.7554  1.2130
   87MOL0     H11424   0.596   4.473   9.000  1.2089 -0.9179  1.1134
   87MOL0     H11425   0.603   4.757   9.100  1.1853 -1.7506  2.1892
   87MOL0     H11426   0.453   4.662   9.112 -1.0745 -0.8908 -2.2287
   87MOL0     H11427   0.600   4.755   8.849 -1.0529  3.3172 -0.4862
   87MOL0     H11428   0.486   4.639   8.846  2.4080  0.7969 -2.0361
   87MOL0     H11429   0.412   4.871   8.781  0.6576 -0.2759 -0.0635
   87MOL0     H11430   0.437   4.921   8.950 -2.2375 -0.3117  1.2829
   87MOL0     H11431   0.249   4.737   9.018 -1.3361  0.4499  0.2259
   87MOL0     H11432   0.245   4.700   8.844 -2.3851  2.3364 -2.5521
   87MOL0     H11433   0.174   4.967   8.984  3.0935 -0.6275  0.0707
   87MOL0     H11434   0.190   4.957   8.812 -1.0010 -1.3318 -1.1529
   87MOL0     H11435  -0.015   4.806   8.976  0.4667  0.6992 -0.1388
   87MOL0     H11436   0.041   4.756   8.808  0.7005 -1.8841  1.5774
   87MOL0     H11437  -0.124   5.035   9.016  1.7914  1.9065 -0.5965
   87MOL0     H11438  -0.289   5.213   8.975  3.5517 -1.2729 -1.3713
   87MOL0     H11439  -0.440   5.147   8.897 -0.3979 -1.9052 -0.9474
   87MOL0     H11440  -0.248   5.339   8.770  0.0922 -0.9884  3.0019
   87MOL0     H11441  -0.395   5.392   8.864  2.3617  1.9676  0.3849
   87MOL0     H11442  -0.397   5.358   8.617  1.3864  1.8501  1.9279
   87MOL0     H11443  -0.409   5.177   8.649 -2.1496 -1.0596  2.5550
   87MOL0     H11444  -0.621   5.210   8.774  0.3874 -0.9411  0.7833
   87MOL0     H11445  -0.636   5.282   8.613 -1.0056  0.6161  1.6392
   87MOL0     H11446  -0.781   5.618   8.652 -1.4703  2.2610  0.6545
   87MOL0     H11447  -1.020   5.639   8.680 -1.2821 -0.6697  0.5272
   87MOL0     H11448  -1.444   5.607   8.867  0.5667  0.6591  0.8826
   87MOL0     H11449  -1.677   5.565   8.952 -3.4945 -2.8598 -0.7808
   87MOL0     H11450  -1.832   5.188   9.164  0.8579 -1.8006  0.1878
   87MOL0     H11451  -1.748   5.172   9.011 -2.7729 -0.1925 -3.0816
   87MOL0     H11452  -1.917   5.296   8.900 -0.9822 -2.7179 -0.9342
   87MOL0     H11453  -2.020   5.300   9.051  0.3994 -1.0159  1.0242
   87MOL0     H11454  -2.032   5.059   9.041  0.5723 -2.1668 -0.5021
   87MOL0     H11455  -1.900   5.054   8.927 -1.3795 -3.8885  2.2269
   87MOL0     H11456  -2.174   5.188   8.853 -1.4524 -1.5864  0.4673
   87MOL0     H11457  -2.042   5.140   8.744  1.1063 -0.5006  0.4251
   87MOL0     H11458  -2.210   4.947   8.907  2.3275  1.3985  2.4955
   87MOL0     H11459  -2.084   4.900   8.790 -1.8842 -2.2358  0.8622
   87MOL0     H11460  -2.185   4.980   8.605 -0.0280  2.0304  0.6561
   87MOL0     H11461  -2.315   5.055   8.692 -1.9807 -0.9640  1.4039
   87MOL0     H11462  -2.290   4.759   8.728 -1.5180 -1.7268 -1.6609
   87MOL0     H11463  -2.429   4.863   8.763  1.1583 -0.2350  1.7530
   87MOL0     H11464  -2.469   4.751   8.555 -1.3792  1.0575 -0.7364
   87MOL0     H11465  -2.289   4.775   8.515 -0.1808  1.0810  0.1878
   87MOL0     H11466  -1.558   5.207   9.146  0.1974  0.8271  0.8677
   87MOL0     H11467  -1.311   5.260   9.091  0.1872  0.5420 -0.9382
   87MOL0     H11468  -1.013   5.304   8.944  0.9321 -1.2904 -1.4703
   87MOL0     H11469  -0.772   5.281   8.926  2.1351  0.8363 -1.7060
   87MOL0     H11470   0.987   4.333   8.795 -1.6094 -2.0070  1.2382
   87MOL0     H11471   1.222   4.293   8.816  0.4765  0.1006  0.4368
   87MOL0     H11472   1.573   4.218   9.140 -0.6318  0.9318  0.8963
   87MOL0     H11473   1.816   4.172   9.181  0.0032 -1.5196 -1.1225
   87MOL0     H11474   1.989   4.524   9.120 -0.8449 -0.9462 -1.8104
   87MOL0     H11475   2.148   4.469   9.148  0.5529  1.2549 -2.5852
   87MOL0     H11476   2.046   4.488   9.356 -4.3628  1.0228  1.2782
   87MOL0     H11477   1.903   4.394   9.317 -1.2849 -3.1055 -2.4731
   87MOL0     H11478   2.058   4.179   9.269 -1.4750  1.1762 -1.7702
   87MOL0     H11479   2.008   4.223   9.430 -2.0107 -0.4333 -1.0878
   87MOL0     H11480   2.277   4.284   9.319 -2.9371  1.2279 -2.0373
   87MOL0     H11481   2.203   4.373   9.461 -3.4836  0.8097 -1.4461
   87MOL0     H11482   2.345   3.969   9.552  0.2974 -0.5016 -3.2496
   87MOL0     H11483   1.926   4.442   8.873  0.4439 -0.4083  0.3968
   87MOL0     H11484   1.687   4.469   8.806  0.9218  1.4195  1.1720
   88MOL0     O11485  11.195   8.976  10.455  0.1797 -1.2001  0.3333
   88MOL0     C11486  11.256   8.879  10.495  1.3758  0.0986 -0.7121
   88MOL0     O11487  11.217   8.799  10.602 -0.5660  0.0422  0.2694
   88MOL0     C11488  11.130   8.854  10.699  0.1636 -0.9612  0.4768
   88MOL0     C11489  11.179   8.967  10.763 -0.4961  0.3378 -0.6377
   88MOL0     C11490  11.104   9.019  10.869  1.0078  0.6871  0.1978
   88MOL0     C11491  10.987   8.962  10.918 -0.4705 -0.2426 -0.3849
   88MOL0     O11492  10.942   8.987  11.041 -0.3507  0.1919 -0.2366
   88MOL0     C11493  10.917   9.127  11.064 -0.3851 -0.0580 -0.2205
   88MOL0     C11494  10.835   9.145  11.196 -0.7368  1.0081 -0.3899
   88MOL0     C11495  10.886   9.055  11.317  0.5360 -0.3235  0.0937
   88MOL0     C11496  10.799   9.100  11.432  0.5557  0.9059 -0.5872
   88MOL0     C11497  10.818   9.008  11.551  0.0240  0.0525 -0.1874
   88MOL0     C11498  10.716   9.037  11.656  0.2379  1.1167  1.2290
   88MOL0     C11499  10.741   8.929  11.773  0.0970  0.1818 -0.9671
   88MOL0     C11500  10.699   8.988  11.919 -0.0207  0.0639  1.0238
   88MOL0     N11501  10.682   8.877  12.006  0.2813 -0.5271 -0.5718
   88MOL0     C11502  10.573   8.869  12.099 -0.1378  0.0817  0.4516
   88MOL0     C11503  10.588   8.751  12.161  0.0199 -0.3874 -0.1851
   88MOL0     C11504  10.513   8.687  12.275 -0.4842 -0.7703  0.4956
   88MOL0     C11505  10.377   8.631  12.228  0.4450 -0.0442 -0.5688
   88MOL0     C11506  10.296   8.537  12.326  0.3115  0.1351 -0.1782
   88MOL0     C11507  10.164   8.499  12.262 -0.2376 -0.2942 -0.2006
   88MOL0     O11508  10.083   8.609  12.239 -0.5755 -0.1717  0.0363
   88MOL0     C11509   9.945   8.584  12.214  0.2197  0.2650  0.5849
   88MOL0     C11510   9.904   8.454  12.174 -0.3850 -0.5438 -0.2411
   88MOL0     C11511   9.772   8.428  12.124  0.0536 -0.9408  0.5887
   88MOL0     C11512   9.685   8.539  12.113  0.4935 -0.0211 -0.3853
   88MOL0     C11513   9.548   8.519  12.064 -0.2505  0.1773  0.0307
   88MOL0     O11514   9.534   8.425  11.966 -0.5308 -0.4699 -0.4630
   88MOL0     C11515   9.407   8.373  11.944  0.1631 -0.2568  0.0058
   88MOL0     C11516   9.395   8.233  11.916  0.0268  0.5099  1.0928
   88MOL0     C11517   9.276   8.176  11.879 -0.5691 -0.2124  0.0206
   88MOL0     C11518   9.156   8.253  11.870 -1.1802  0.2293 -0.4601
   88MOL0     O11519   9.041   8.191  11.836  0.0495  1.3597 -0.2421
   88MOL0     C11520   8.917   8.265  11.817  0.7729  0.0896 -0.0938
   88MOL0     C11521   8.816   8.246  11.939  0.0557 -0.8137  0.3592
   88MOL0     C11522   8.693   8.340  11.910 -0.8525 -0.1449  0.5630
   88MOL0     C11523   8.575   8.297  12.003 -0.6871 -0.2479 -0.4092
   88MOL0     C11524   8.467   8.400  11.996 -0.3050  1.0116  0.1042
   88MOL0     C11525   8.338   8.350  12.067  0.6570 -0.5514 -0.2881
   88MOL0     C11526   8.231   8.463  12.085 -0.2970 -0.1904  0.1344
   88MOL0     C11527   8.114   8.423  12.178  0.2685 -0.7173  0.3930
   88MOL0    Cl11528   7.991   8.334  12.089  0.3227  0.3159  0.7423
   88MOL0     C11529   9.167   8.387  11.907 -1.3404  0.6646  0.1881
   88MOL0     C11530   9.285   8.448  11.942 -0.1235  0.5610 -0.2763
   88MOL0     O11531   9.459   8.586  12.120  0.0476 -0.7367  0.5582
   88MOL0     C11532   9.731   8.663  12.162  0.8839 -0.4394 -0.3972
   88MOL0     C11533   9.860   8.687  12.218 -0.4295  0.4213 -0.5432
   88MOL0     N11534  10.702   8.692  12.105  0.2395  0.0026 -0.2978
   88MOL0     N11535  10.757   8.767  12.017  0.0892  0.8025  0.1277
   88MOL0     C11536  10.924   8.849  10.852 -0.3921  0.5699  1.0066
   88MOL0     C11537  11.002   8.797  10.743  0.3251  0.7290  0.3236
   88MOL0     C11538  11.374   8.842  10.426  0.4599  0.2181 -0.4132
   88MOL0     C11539  11.394   8.875  10.293  0.3165  0.6906 -0.5780
   88MOL0     C11540  11.513   8.847  10.233  0.0077 -0.1691 -0.2689
   88MOL0     C11541  11.612   8.772  10.296 -0.7292  0.3987 -1.0363
   88MOL0     O11542  11.725   8.719  10.236  0.5868  0.1357 -0.7397
   88MOL0     C11543  11.739   8.736  10.089  0.6208  0.6264 -0.0347
   88MOL0     C11544  11.879   8.686  10.045  0.2250  0.2907  0.1611
   88MOL0     C11545  11.987   8.786  10.090  0.2021 -0.3675  0.0310
   88MOL0     C11546  12.079   8.736  10.211 -1.4055  0.3281  0.2433
   88MOL0     C11547  12.157   8.606  10.190  1.0887 -0.1290 -0.6273
   88MOL0     C11548  12.217   8.510  10.168  0.1275 -0.5382 -0.4542
   88MOL0     C11549  11.592   8.731  10.433  1.0197  0.0246 -0.3655
   88MOL0     C11550  11.478   8.779  10.498 -0.6428 -0.2961 -0.0202
   88MOL0     H11551  11.267   9.024  10.737 -0.4852  0.1846 -0.9458
   88MOL0     H11552  11.158   9.091  10.929  1.8057  1.1022 -0.9806
   88MOL0     H11553  10.867   9.181  10.984 -0.4048 -1.9427 -1.5463
   88MOL0     H11554  11.008   9.179  11.094 -1.2030  0.4127  1.5963
   88MOL0     H11555  10.737   9.108  11.166 -0.9551 -0.5640  2.0107
   88MOL0     H11556  10.831   9.252  11.222 -2.1117  0.8974 -0.1158
   88MOL0     H11557  10.991   9.079  11.335  0.0130 -0.0031  3.2746
   88MOL0     H11558  10.871   8.952  11.285 -0.2644  0.2460 -1.4557
   88MOL0     H11559  10.836   9.196  11.469  3.0650 -1.2334  3.2319
   88MOL0     H11560  10.694   9.099  11.401  0.9656  3.3975 -2.3292
   88MOL0     H11561  10.920   9.006  11.589 -0.0486  1.1812  0.1224
   88MOL0     H11562  10.800   8.907  11.514  0.1746  0.4346 -1.3703
   88MOL0     H11563  10.615   9.031  11.615  1.3177 -2.1266 -1.4427
   88MOL0     H11564  10.743   9.133  11.703  3.4746  0.4893  0.9097
   88MOL0     H11565  10.673   8.849  11.742  0.0622 -0.4712  0.6729
   88MOL0     H11566  10.842   8.889  11.783  0.2622  0.3329 -1.9799
   88MOL0     H11567  10.603   9.041  11.910  0.6305  1.1102 -0.0670
   88MOL0     H11568  10.779   9.055  11.953  1.3964 -0.2945 -1.3715
   88MOL0     H11569  10.509   8.954  12.122 -1.1892 -0.5648 -0.0256
   88MOL0     H11570  10.495   8.752  12.361  0.4824  1.5330 -0.9419
   88MOL0     H11571  10.581   8.609  12.310 -3.1767 -3.2661  0.5214
   88MOL0     H11572  10.392   8.564  12.142 -0.6999  0.4309 -1.1650
   88MOL0     H11573  10.311   8.714  12.200 -1.0818 -1.2931 -0.7756
   88MOL0     H11574  10.348   8.442  12.341 -2.8656 -1.9341 -1.2133
   88MOL0     H11575  10.278   8.590  12.420 -0.0563  0.1757 -0.2718
   88MOL0     H11576  10.111   8.425  12.323 -1.3999 -0.6747 -1.6256
   88MOL0     H11577  10.183   8.459  12.162  0.1476 -0.5258 -0.0386
   88MOL0     H11578   9.971   8.370  12.158  0.5550  0.3701 -1.2763
   88MOL0     H11579   9.735   8.328  12.103  1.1695 -1.3427  0.4950
   88MOL0     H11580   9.480   8.166  11.930 -1.0517 -0.6765  2.1926
   88MOL0     H11581   9.263   8.069  11.888 -3.0985  0.0978  0.5842
   88MOL0     H11582   8.861   8.233  11.728 -1.8397  2.1930  0.6567
   88MOL0     H11583   8.934   8.368  11.784  5.5174 -0.1491  0.9467
   88MOL0     H11584   8.864   8.274  12.034  4.9476  2.4040 -2.5935
   88MOL0     H11585   8.784   8.144  11.960 -2.2959  0.2300  2.3102
   88MOL0     H11586   8.667   8.316  11.807  2.1565 -0.5070 -0.1918
   88MOL0     H11587   8.731   8.442  11.921 -2.0256  0.2075  1.5326
   88MOL0     H11588   8.533   8.205  11.961 -1.4945  0.9814 -2.4617
   88MOL0     H11589   8.620   8.277  12.100  2.2890  2.1019 -1.1374
   88MOL0     H11590   8.443   8.423  11.892  1.0554 -0.2162 -0.5116
   88MOL0     H11591   8.503   8.493  12.041  2.4599  0.1321 -0.0926
   88MOL0     H11592   8.369   8.312  12.165  1.2860  0.5387 -0.0463
   88MOL0     H11593   8.298   8.274  12.000  0.8414 -0.6607 -0.2762
   88MOL0     H11594   8.282   8.553  12.120 -1.4680 -0.1823  1.9178
   88MOL0     H11595   8.188   8.487  11.987 -0.5062  0.6065  0.4107
   88MOL0     H11596   8.057   8.503  12.225 -0.5349 -0.8613 -0.3271
   88MOL0     H11597   8.154   8.364  12.262  0.4381 -1.6969 -0.3649
   88MOL0     H11598   9.077   8.446  11.905 -0.5448  1.9226 -1.4647
   88MOL0     H11599   9.273   8.553  11.967  3.2210  0.9824  0.0901
   88MOL0     H11600   9.678   8.757  12.148  1.0551 -0.4723 -1.3046
   88MOL0     H11601   9.881   8.783  12.264 -1.0422 -0.1581  1.0236
   88MOL0     H11602  10.830   8.806  10.886 -0.6767 -1.0186 -1.5472
   88MOL0     H11603  10.978   8.699  10.702 -0.6535  0.5213  1.3641
   88MOL0     H11604  11.306   8.923  10.252 -1.9397 -1.9122  0.9061
   88MOL0     H11605  11.522   8.883  10.131 -2.9216  0.2903 -0.4632
   88MOL0     H11606  11.708   8.833  10.051 -1.6415 -0.2322 -0.5426
   88MOL0     H11607  11.668   8.666  10.044  0.3050  1.9140 -1.6376
   88MOL0     H11608  11.898   8.582  10.074 -0.7714 -0.0714 -0.4244
   88MOL0     H11609  11.857   8.683   9.938  1.4478 -2.9634 -0.1185
   88MOL0     H11610  11.957   8.889  10.112  0.6207  0.0118 -1.1379
   88MOL0     H11611  12.053   8.800  10.004 -1.7639 -1.0297 -1.6724
   88MOL0     H11612  12.153   8.815  10.229 -0.4662 -0.3265 -0.6164
   88MOL0     H11613  12.011   8.723  10.296 -1.8683 -0.1774 -0.2023
   88MOL0     H11614  12.278   8.428  10.135 -1.0850 -2.4247  1.7511
   88MOL0     H11615  11.660   8.658  10.475 -0.4300 -0.4033  1.3579
   88MOL0     H11616  11.464   8.758  10.604  2.0886  4.5241  1.6069
   89MOL0     O11617   1.338   3.476   2.853  0.0362  0.2770  0.1308
   89MOL0     C11618   1.364   3.523   2.744  0.4930  0.4273 -0.3314
   89MOL0     O11619   1.281   3.519   2.639 -0.2245  0.1301  0.0138
   89MOL0     C11620   1.156   3.474   2.660  1.0258  0.7885  0.6153
   89MOL0     C11621   1.125   3.340   2.626 -0.1128  0.8243  0.0542
   89MOL0     C11622   0.985   3.291   2.623 -0.3641 -0.1294  0.7077
   89MOL0     C11623   0.881   3.369   2.670  0.4476 -0.1615 -0.0331
   89MOL0     O11624   0.749   3.339   2.693 -0.5055 -0.1654  0.4266
   89MOL0     C11625   0.704   3.205   2.669 -0.1036  0.0801  0.9439
   89MOL0     C11626   0.549   3.197   2.670  0.3643 -0.4334 -0.1993
   89MOL0     C11627   0.492   3.295   2.566 -0.6112 -0.6929 -0.9450
   89MOL0     C11628   0.338   3.304   2.563  0.3450 -0.1650  1.0758
   89MOL0     C11629   0.289   3.225   2.440  0.7773  0.4004 -0.7470
   89MOL0     C11630   0.134   3.233   2.427  0.6561 -0.4983  0.0068
   89MOL0     C11631   0.086   3.145   2.304  0.1763 -0.1380  0.8811
   89MOL0     C11632   0.162   3.157   2.178  0.1292 -0.1953  0.1694
   89MOL0     N11633   0.085   3.107   2.060  0.2422 -0.9378 -0.2071
   89MOL0     C11634  -0.005   3.007   2.047  0.5026  0.6678  0.2632
   89MOL0     C11635  -0.055   3.006   1.917 -0.5710  0.2017 -0.2650
   89MOL0     C11636  -0.179   2.940   1.863 -0.0737  0.5658  0.3754
   89MOL0     C11637  -0.277   3.029   1.791  0.3644 -0.4672  0.7167
   89MOL0     C11638  -0.326   3.154   1.867  0.5013  0.0376  0.2235
   89MOL0     C11639  -0.467   3.187   1.835  0.3773  0.0201 -0.0911
   89MOL0     O11640  -0.501   3.305   1.913 -0.6386  0.0744 -0.3428
   89MOL0     C11641  -0.635   3.338   1.922 -0.3728  0.4263  0.9321
   89MOL0     C11642  -0.666   3.446   2.000  0.3327  0.0835  0.0881
   89MOL0     C11643  -0.798   3.477   2.032 -0.4967 -1.2362 -0.1204
   89MOL0     C11644  -0.906   3.403   1.982 -0.4150  0.4754  0.7450
   89MOL0     C11645  -1.041   3.432   2.023 -0.6215 -0.4154 -0.5219
   89MOL0     O11646  -1.146   3.364   1.971  0.8859  0.5726 -0.6848
   89MOL0     C11647  -1.271   3.381   2.013 -0.1528  1.0610  0.5357
   89MOL0     C11648  -1.340   3.261   1.982  0.5078 -0.1275  0.2066
   89MOL0     C11649  -1.481   3.249   2.021 -0.3361  0.2271 -0.2699
   89MOL0     C11650  -1.544   3.342   2.095 -0.9656 -0.3486  0.6256
   89MOL0     O11651  -1.676   3.322   2.135  0.3110  0.5771  0.1551
   89MOL0     C11652  -1.697   3.230   2.249 -0.1390  0.4733 -0.9485
   89MOL0     C11653  -1.687   3.299   2.389 -0.2020  0.2822  0.3681
   89MOL0     C11654  -1.783   3.410   2.398 -0.2994  0.0775 -0.1525
   89MOL0     C11655  -1.766   3.471   2.539 -0.2465 -0.1532  1.7194
   89MOL0     C11656  -1.880   3.425   2.641  0.2367  0.4882 -0.3987
   89MOL0     C11657  -2.026   3.469   2.609 -0.1509  0.0483  0.6513
   89MOL0     C11658  -2.124   3.437   2.728 -0.6089 -0.3463  1.2181
   89MOL0     C11659  -2.237   3.337   2.691 -0.4826 -0.6495  0.3363
   89MOL0    Cl11660  -2.318   3.375   2.530 -0.1350 -0.0071 -0.2551
   89MOL0     C11661  -1.464   3.451   2.138 -0.3408  0.6496  0.0121
   89MOL0     C11662  -1.335   3.472   2.089 -1.0138  0.2285  0.1741
   89MOL0     O11663  -1.052   3.540   2.074  0.2283  0.3262 -0.3608
   89MOL0     C11664  -0.878   3.298   1.889 -0.1548 -1.9272  0.0573
   89MOL0     C11665  -0.743   3.271   1.856  0.4353 -0.4751 -0.3106
   89MOL0     N11666   0.024   3.099   1.849 -0.9097 -0.1486  0.2839
   89MOL0     N11667   0.116   3.149   1.936 -0.0007  0.3453  0.5213
   89MOL0     C11668   0.911   3.503   2.699  0.2413 -0.6895 -0.5509
   89MOL0     C11669   1.044   3.555   2.709 -1.1475 -0.4661  0.8354
   89MOL0     C11670   1.499   3.569   2.722  0.6634 -1.1947 -0.1943
   89MOL0     C11671   1.610   3.531   2.802  0.5703 -0.1425 -0.1468
   89MOL0     C11672   1.736   3.565   2.762  0.6200  0.4864 -0.4725
   89MOL0     C11673   1.754   3.649   2.652  0.2753  0.4732 -0.8169
   89MOL0     O11674   1.874   3.683   2.607 -0.7572 -0.2961  0.0523
   89MOL0     C11675   1.991   3.611   2.643  0.2655  0.4507 -0.2441
   89MOL0     C11676   2.103   3.670   2.565  0.2372 -0.1584  0.3487
   89MOL0     C11677   2.242   3.610   2.602 -0.0336  0.2915  0.1467
   89MOL0     C11678   2.252   3.464   2.578  0.1514 -0.0722  0.2596
   89MOL0     C11679   2.391   3.427   2.599  1.2693  0.4035 -0.8168
   89MOL0     C11680   2.504   3.394   2.612 -0.9429 -0.0022 -0.4848
   89MOL0     C11681   1.651   3.691   2.580  0.2605  0.0772 -0.9623
   89MOL0     C11682   1.517   3.663   2.613  0.7001 -0.4706  0.1343
   89MOL0     H11683   1.198   3.270   2.586 -0.5344 -1.0986  2.4135
   89MOL0     H11684   0.962   3.190   2.588 -1.2341  0.7352 -1.3731
   89MOL0     H11685   0.747   3.136   2.743  2.2836 -1.6941 -1.8694
   89MOL0     H11686   0.751   3.170   2.577  0.9728  0.0606  1.4808
   89MOL0     H11687   0.523   3.234   2.770  0.5151 -0.7971 -0.0245
   89MOL0     H11688   0.519   3.094   2.652 -1.4537  0.2444 -1.2140
   89MOL0     H11689   0.541   3.245   2.481  0.4242 -2.1178  0.4137
   89MOL0     H11690   0.537   3.393   2.578  0.5944 -1.2663 -0.5718
   89MOL0     H11691   0.290   3.258   2.650 -0.2380 -3.0100 -0.6337
   89MOL0     H11692   0.310   3.410   2.559  1.3504  0.1097 -2.4579
   89MOL0     H11693   0.315   3.123   2.469  0.1900  1.0990  2.5942
   89MOL0     H11694   0.352   3.259   2.357  3.3567  2.2075  1.7306
   89MOL0     H11695   0.104   3.337   2.412 -1.5576 -1.0674  0.1470
   89MOL0     H11696   0.078   3.197   2.514 -0.4673  0.5336 -0.2538
   89MOL0     H11697   0.098   3.039   2.328  0.8962 -0.8559 -2.2220
   89MOL0     H11698  -0.020   3.158   2.277  0.4572 -2.8705 -2.1517
   89MOL0     H11699   0.256   3.101   2.178  1.2800  1.4493 -3.0742
   89MOL0     H11700   0.194   3.260   2.158 -1.4496  0.2419 -0.2157
   89MOL0     H11701  -0.034   2.953   2.137  0.2280  0.6265  0.1513
   89MOL0     H11702  -0.238   2.886   1.938 -1.5120 -1.4746 -2.0576
   89MOL0     H11703  -0.138   2.864   1.795  3.6199 -0.3037  3.2291
   89MOL0     H11704  -0.351   2.959   1.752  1.8454 -0.2742 -2.7821
   89MOL0     H11705  -0.235   3.064   1.696  0.7711  2.4330  1.8702
   89MOL0     H11706  -0.338   3.120   1.970 -4.7676 -0.4087 -0.2562
   89MOL0     H11707  -0.261   3.241   1.856 -2.5013  2.8084  2.6308
   89MOL0     H11708  -0.534   3.106   1.867 -1.1807  1.2478 -0.0819
   89MOL0     H11709  -0.481   3.210   1.729 -1.1850  0.1619  0.1176
   89MOL0     H11710  -0.588   3.507   2.045  0.8630 -1.4515  1.3435
   89MOL0     H11711  -0.819   3.555   2.104 -1.1410 -1.0382 -0.5063
   89MOL0     H11712  -1.283   3.189   1.924  0.4314  1.6539 -2.2443
   89MOL0     H11713  -1.543   3.169   1.983 -0.0508 -0.5447  0.8358
   89MOL0     H11714  -1.635   3.140   2.237  0.6147  1.2517 -3.7547
   89MOL0     H11715  -1.800   3.198   2.234 -0.0895  0.7703 -2.0467
   89MOL0     H11716  -1.583   3.327   2.409  0.2561 -0.3400 -1.0207
   89MOL0     H11717  -1.716   3.214   2.452 -2.1197 -1.0568 -2.1302
   89MOL0     H11718  -1.888   3.385   2.380 -0.4253  1.4748 -1.5355
   89MOL0     H11719  -1.753   3.484   2.324 -2.4943  2.7343  1.4282
   89MOL0     H11720  -1.664   3.455   2.575 -0.5446 -1.5238  1.9834
   89MOL0     H11721  -1.781   3.579   2.535  0.7473 -0.0455 -0.3410
   89MOL0     H11722  -1.869   3.456   2.745  0.7791  0.6085 -0.4898
   89MOL0     H11723  -1.869   3.316   2.647  0.4200  0.4801 -0.8292
   89MOL0     H11724  -2.065   3.408   2.527 -2.6649 -0.0570  1.8094
   89MOL0     H11725  -2.033   3.574   2.577 -2.2987 -0.7493 -1.8601
   89MOL0     H11726  -2.072   3.403   2.818  3.6893 -0.7697 -1.1597
   89MOL0     H11727  -2.174   3.533   2.744  0.0440  1.0447 -3.6262
   89MOL0     H11728  -2.306   3.337   2.775 -0.8998 -0.7498 -0.0038
   89MOL0     H11729  -2.193   3.237   2.691  0.3203 -0.3061  0.5802
   89MOL0     H11730  -1.498   3.528   2.207  2.6833  1.4902  0.7136
   89MOL0     H11731  -1.278   3.552   2.137 -0.9818  0.6524 -0.5675
   89MOL0     H11732  -0.961   3.263   1.829 -0.6233  0.4711 -0.7873
   89MOL0     H11733  -0.715   3.203   1.776  6.0000  0.8025  0.1271
   89MOL0     H11734   0.826   3.559   2.736  1.6763 -0.7230  3.1372
   89MOL0     H11735   1.056   3.662   2.724 -0.0891 -0.7361  2.0836
   89MOL0     H11736   1.596   3.459   2.882 -1.2123 -1.0885 -1.2634
   89MOL0     H11737   1.820   3.523   2.816 -0.6733 -4.0275 -1.5699
   89MOL0     H11738   1.977   3.504   2.624  0.5580  0.5629 -1.1462
   89MOL0     H11739   2.016   3.626   2.749  0.7802  3.7016 -0.7370
   89MOL0     H11740   2.091   3.661   2.457  0.4633  3.8339 -0.1557
   89MOL0     H11741   2.112   3.777   2.588 -0.4118  0.0740 -0.4414
   89MOL0     H11742   2.271   3.628   2.706 -0.8011 -1.4848  0.6966
   89MOL0     H11743   2.321   3.657   2.543  0.0888  1.5790  1.3012
   89MOL0     H11744   2.182   3.409   2.640  1.9981 -1.8519  0.8629
   89MOL0     H11745   2.219   3.442   2.476  2.2494  3.6807 -1.4701
   89MOL0     H11746   2.603   3.354   2.619 -0.1352  2.1144  4.4765
   89MOL0     H11747   1.682   3.740   2.488 -1.6017 -0.1413 -1.7443
   89MOL0     H11748   1.433   3.702   2.555  1.4827  0.2433 -0.5383
   90MOL0     O11749   4.223  10.016   9.180  0.0493 -0.2811  0.5810
   90MOL0     C11750   4.257  10.122   9.124  0.4361 -0.9875  0.3340
   90MOL0     O11751   4.178  10.211   9.061  0.1014  0.7559 -0.4285
   90MOL0     C11752   4.046  10.189   9.025 -0.6604 -0.2160  0.6167
   90MOL0     C11753   3.980  10.067   9.025 -0.0895 -0.4337  0.2791
   90MOL0     C11754   3.840  10.056   9.011 -0.1213 -0.3061 -0.1748
   90MOL0     C11755   3.768  10.168   8.966 -0.1343 -0.4859 -0.0458
   90MOL0     O11756   3.635  10.170   8.960  0.2539  0.5254 -0.3763
   90MOL0     C11757   3.557  10.103   9.057 -0.2305  0.4083  0.9308
   90MOL0     C11758   3.409  10.151   9.031  0.7278 -0.1219 -1.0390
   90MOL0     C11759   3.328  10.071   8.927 -1.1524  0.2446  0.3682
   90MOL0     C11760   3.193  10.139   8.929  0.5915  1.0106  0.1242
   90MOL0     C11761   3.110  10.073   8.815  0.3853 -0.0878 -0.4323
   90MOL0     C11762   2.967  10.125   8.814 -0.4953  0.5861 -0.2544
   90MOL0     C11763   2.903  10.090   8.682  0.3449  0.4440  0.4094
   90MOL0     C11764   2.770  10.160   8.667  0.0990 -0.1269  0.9824
   90MOL0     N11765   2.663  10.096   8.740  0.2959  0.3375 -0.2806
   90MOL0     C11766   2.615   9.964   8.742 -0.0540  0.2993  0.3802
   90MOL0     C11767   2.520   9.959   8.829  0.2015 -0.9463 -0.1204
   90MOL0     C11768   2.450   9.849   8.888  0.7587  0.3064  0.0079
   90MOL0     C11769   2.534   9.771   8.993  0.0122 -0.8498 -0.1925
   90MOL0     C11770   2.648   9.691   8.921  0.0997  0.4460 -0.0671
   90MOL0     C11771   2.753   9.644   9.027 -0.5002 -0.1532 -0.3103
   90MOL0     O11772   2.849   9.743   9.039  0.2131 -0.2902 -0.7703
   90MOL0     C11773   2.981   9.702   9.049 -0.4221  0.0068 -0.7252
   90MOL0     C11774   3.056   9.704   9.165 -0.3655  0.5852  0.7644
   90MOL0     C11775   3.195   9.679   9.164 -0.2069  0.2469 -0.3397
   90MOL0     C11776   3.256   9.657   9.037  0.0395  0.1896  0.1328
   90MOL0     C11777   3.393   9.612   9.033  0.0576  0.1005  0.6604
   90MOL0     O11778   3.457   9.656   8.922 -0.7799  0.2569  0.0950
   90MOL0     C11779   3.592   9.634   8.902  0.0576  0.9182  0.5563
   90MOL0     C11780   3.677   9.741   8.904  0.2353  0.5104  0.3423
   90MOL0     C11781   3.815   9.710   8.914 -0.0925 -0.7801  0.6397
   90MOL0     C11782   3.865   9.585   8.884 -0.5969  1.2644 -0.6859
   90MOL0     O11783   3.996   9.553   8.856 -0.2385 -0.9091 -0.6895
   90MOL0     C11784   4.093   9.579   8.955  0.2271 -0.9926 -0.1156
   90MOL0     C11785   4.169   9.455   9.007 -0.0176 -1.4895  0.3320
   90MOL0     C11786   4.264   9.396   8.906  0.0937 -0.6346 -0.2352
   90MOL0     C11787   4.357   9.301   8.971 -0.2604 -0.3646 -0.1261
   90MOL0     C11788   4.456   9.234   8.861 -0.6540 -1.1443 -0.2275
   90MOL0     C11789   4.408   9.113   8.790  0.1394 -0.3018 -0.5137
   90MOL0     C11790   4.519   9.047   8.718 -0.7646 -0.4701 -0.1760
   90MOL0     C11791   4.500   8.888   8.710 -0.0052 -0.3621  0.6835
   90MOL0    Cl11792   4.364   8.865   8.597  0.1117  0.0551  0.2303
   90MOL0     C11793   3.775   9.483   8.869 -1.0217 -0.6719  0.3647
   90MOL0     C11794   3.639   9.505   8.889 -0.7440  0.4418 -0.0259
   90MOL0     O11795   3.440   9.535   9.115 -0.0604 -0.3490  0.2633
   90MOL0     C11796   3.185   9.681   8.925 -0.3543 -0.2894  0.6047
   90MOL0     C11797   3.049   9.700   8.934  0.0270 -0.1311 -0.2700
   90MOL0     N11798   2.510  10.085   8.879  0.1905 -0.0000  0.1931
   90MOL0     N11799   2.602  10.164   8.838 -0.6277 -0.3935  0.0835
   90MOL0     C11800   3.834  10.291   8.949 -0.5182  0.4482  0.6066
   90MOL0     C11801   3.974  10.305   8.976 -0.6929  0.4161  0.0521
   90MOL0     C11802   4.404  10.161   9.152 -0.1416 -0.1475 -0.7911
   90MOL0     C11803   4.463  10.278   9.112  0.5981  0.2794  0.0227
   90MOL0     C11804   4.593  10.316   9.141  0.2217 -0.1418 -0.0151
   90MOL0     C11805   4.672  10.237   9.224 -0.3505  0.0556 -0.0934
   90MOL0     O11806   4.796  10.263   9.280  0.0577 -0.7618  0.8442
   90MOL0     C11807   4.874  10.364   9.203 -1.4850  0.5851  0.3339
   90MOL0     C11808   5.016  10.331   9.236 -0.1925 -0.0058 -0.5820
   90MOL0     C11809   5.123  10.382   9.132 -0.1650  0.2804 -0.7867
   90MOL0     C11810   5.252  10.299   9.144 -0.5832 -0.0771  0.2465
   90MOL0     C11811   5.368  10.383   9.131 -0.2312 -0.5585  0.1003
   90MOL0     C11812   5.470  10.448   9.129  0.4582 -0.0802  0.9586
   90MOL0     C11813   4.611  10.123   9.273  0.0007 -0.4522  0.7166
   90MOL0     C11814   4.485  10.078   9.240  0.3577 -0.0520  0.4740
   90MOL0     H11815   4.040   9.982   9.057 -2.8454 -1.3831  3.5716
   90MOL0     H11816   3.796   9.961   9.039 -1.8120  0.0067 -1.5697
   90MOL0     H11817   3.595  10.131   9.155 -1.2425 -1.6358  1.9621
   90MOL0     H11818   3.564   9.996   9.031 -0.0642  0.0521  2.3957
   90MOL0     H11819   3.408  10.256   8.999  0.7977  0.7577  1.5784
   90MOL0     H11820   3.366  10.149   9.132  1.3340  3.1589 -0.5882
   90MOL0     H11821   3.326   9.967   8.960  0.4271 -0.3684 -1.2859
   90MOL0     H11822   3.379  10.068   8.830 -1.8284 -0.6489  0.0359
   90MOL0     H11823   3.140  10.136   9.024  0.2047  0.7371 -0.0992
   90MOL0     H11824   3.206  10.244   8.899  0.3168  0.6780 -1.2370
   90MOL0     H11825   3.114   9.966   8.838 -1.7587 -0.1472 -0.1941
   90MOL0     H11826   3.155  10.080   8.715 -3.0147  1.4994 -1.9954
   90MOL0     H11827   2.969  10.232   8.837 -1.3817  0.5466  0.0547
   90MOL0     H11828   2.915  10.081   8.900  0.6889  1.6644  1.0550
   90MOL0     H11829   2.971  10.117   8.600  1.1261 -2.5780 -0.0524
   90MOL0     H11830   2.886   9.983   8.673  1.6392  0.3557 -1.7249
   90MOL0     H11831   2.737  10.145   8.564 -0.1597  0.2327  1.0147
   90MOL0     H11832   2.768  10.266   8.694 -1.1850  0.3935 -0.9390
   90MOL0     H11833   2.641   9.880   8.679  0.4202 -0.0516  1.0336
   90MOL0     H11834   2.422   9.776   8.811  1.5196 -0.1869  0.1853
   90MOL0     H11835   2.363   9.886   8.942 -0.7121  2.4239 -3.4352
   90MOL0     H11836   2.464   9.722   9.062 -0.0500  3.4441  3.2200
   90MOL0     H11837   2.572   9.845   9.063 -2.3758 -0.8191  1.2063
   90MOL0     H11838   2.595   9.611   8.869 -0.9528 -0.9005  2.8795
   90MOL0     H11839   2.698   9.763   8.855 -0.6152  2.7225  1.7289
   90MOL0     H11840   2.803   9.550   9.003  1.0539 -0.0062  2.0987
   90MOL0     H11841   2.711   9.619   9.124  0.4281 -0.2701  0.0734
   90MOL0     H11842   3.004   9.714   9.260 -1.5026  0.1674  0.1996
   90MOL0     H11843   3.255   9.682   9.255 -0.0701 -1.0388 -0.3784
   90MOL0     H11844   3.638   9.836   8.940 -0.5728  0.8157 -1.2358
   90MOL0     H11845   3.883   9.793   8.929 -0.7149 -0.0055 -0.6190
   90MOL0     H11846   4.037   9.627   9.036 -1.8901 -3.3170 -0.0581
   90MOL0     H11847   4.156   9.651   8.903 -1.9460 -0.2251 -1.8968
   90MOL0     H11848   4.095   9.381   9.040 -0.7241 -0.0049  2.2776
   90MOL0     H11849   4.218   9.480   9.101 -1.9572  0.6395  0.8656
   90MOL0     H11850   4.322   9.483   8.875 -3.3554  1.3674 -1.5244
   90MOL0     H11851   4.213   9.347   8.822  0.3146 -2.3525  0.5814
   90MOL0     H11852   4.417   9.357   9.043 -2.1346 -2.1218  3.0801
   90MOL0     H11853   4.300   9.228   9.030 -1.0048  0.1206 -0.2181
   90MOL0     H11854   4.539   9.198   8.923 -0.7179  1.3518  1.4521
   90MOL0     H11855   4.492   9.313   8.795 -4.1410  0.0495 -0.9153
   90MOL0     H11856   4.337   9.138   8.711 -0.9422 -0.0347  0.5245
   90MOL0     H11857   4.367   9.046   8.866 -0.8484  4.2475  3.3969
   90MOL0     H11858   4.536   9.091   8.619 -1.4585 -1.4704 -0.7489
   90MOL0     H11859   4.617   9.053   8.767  0.0701  1.0587 -1.9175
   90MOL0     H11860   4.481   8.855   8.812  1.6530 -1.4460  0.6744
   90MOL0     H11861   4.584   8.826   8.677 -1.3352 -2.2181  0.6301
   90MOL0     H11862   3.797   9.379   8.845 -1.3964 -1.6470  3.6881
   90MOL0     H11863   3.581   9.416   8.910  0.9345 -0.2354  2.1210
   90MOL0     H11864   3.239   9.674   8.831 -0.5984 -0.6220  0.4857
   90MOL0     H11865   2.994   9.701   8.840  1.3951 -1.4791 -1.1509
   90MOL0     H11866   3.778  10.365   8.895 -2.0631 -1.1164 -0.0307
   90MOL0     H11867   4.021  10.401   8.957  4.5851 -1.6247  1.0844
   90MOL0     H11868   4.415  10.339   9.037 -0.5776 -0.4668  0.1408
   90MOL0     H11869   4.617  10.417   9.110 -1.0596  0.6122  1.3342
   90MOL0     H11870   4.856  10.467   9.237  0.2875 -0.0120  3.4313
   90MOL0     H11871   4.848  10.355   9.097  2.3346 -1.7634 -0.5922
   90MOL0     H11872   5.035  10.373   9.335 -1.6942 -0.8521  0.0925
   90MOL0     H11873   5.023  10.224   9.254  2.2536  0.4096  1.5992
   90MOL0     H11874   5.142  10.488   9.146  1.9421  0.0149 -1.3851
   90MOL0     H11875   5.091  10.374   9.027  1.1390 -0.3530 -1.1613
   90MOL0     H11876   5.253  10.252   9.243  1.6620  1.3173  0.9603
   90MOL0     H11877   5.250  10.224   9.065 -1.1682 -0.6490  0.7903
   90MOL0     H11878   5.561  10.503   9.117  0.9993 -0.4074  3.0913
   90MOL0     H11879   4.669  10.053   9.332 -1.3217 -2.5865 -0.3936
   90MOL0     H11880   4.454   9.981   9.276 -0.2297  0.0267  0.1865
   91MOL0     O11881   3.684   4.259   1.816 -0.2097 -0.0194  0.0123
   91MOL0     C11882   3.639   4.144   1.849 -1.0988 -0.5157 -0.5498
   91MOL0     O11883   3.715   4.028   1.874  0.1111  0.7195 -0.2529
   91MOL0     C11884   3.848   4.012   1.839 -0.1903  0.1873 -0.2867
   91MOL0     C11885   3.942   4.113   1.868 -0.7037  1.0150  0.4218
   91MOL0     C11886   4.075   4.107   1.824 -0.0607 -0.3058  0.1692
   91MOL0     C11887   4.119   3.990   1.768 -0.2611 -0.2270  0.1101
   91MOL0     O11888   4.253   3.973   1.758 -0.0658 -0.0158 -0.9221
   91MOL0     C11889   4.306   3.859   1.825  0.7103  0.2128  0.1454
   91MOL0     C11890   4.456   3.870   1.843 -0.4959 -0.2732  0.2599
   91MOL0     C11891   4.502   3.983   1.936  0.0126 -0.8892 -0.2985
   91MOL0     C11892   4.656   4.014   1.916 -0.3787  0.2995 -0.1823
   91MOL0     C11893   4.715   4.093   2.037  0.1290  0.1185 -0.4431
   91MOL0     C11894   4.863   4.087   2.034 -0.4023  0.3682 -0.2786
   91MOL0     C11895   4.939   4.155   2.146 -0.1124  0.3143 -0.7209
   91MOL0     C11896   5.082   4.116   2.173  0.1490  0.7988  0.1184
   91MOL0     N11897   5.150   4.201   2.269 -0.0417  0.1607  0.2021
   91MOL0     C11898   5.278   4.198   2.313  0.0961  0.3551 -0.2308
   91MOL0     C11899   5.304   4.316   2.370  0.0642  0.2356 -0.4079
   91MOL0     C11900   5.439   4.354   2.420 -0.7846  0.5555 -0.5864
   91MOL0     C11901   5.521   4.385   2.296 -0.2409  0.2857  0.1906
   91MOL0     C11902   5.490   4.528   2.242 -0.0646  0.8940 -0.0114
   91MOL0     C11903   5.623   4.607   2.232 -0.3247  0.5270 -0.4788
   91MOL0     O11904   5.733   4.545   2.160 -0.2201 -0.6875  0.5482
   91MOL0     C11905   5.861   4.571   2.204 -0.5982  0.8595 -0.8016
   91MOL0     C11906   5.957   4.544   2.103 -0.0901  0.0221  0.2802
   91MOL0     C11907   6.096   4.549   2.137  0.7321  0.2348  0.0979
   91MOL0     C11908   6.141   4.598   2.259 -0.5464  0.2749 -0.1332
   91MOL0     C11909   6.288   4.604   2.295 -0.1731 -0.1950 -0.3410
   91MOL0     O11910   6.316   4.653   2.419  1.1768 -0.3918 -0.0377
   91MOL0     C11911   6.442   4.639   2.476 -0.3198  0.6796  0.2663
   91MOL0     C11912   6.461   4.506   2.516  0.4990  0.6145 -0.1847
   91MOL0     C11913   6.582   4.449   2.569 -0.1672 -0.6482  0.6871
   91MOL0     C11914   6.691   4.545   2.583  0.4437  0.5054  0.3548
   91MOL0     O11915   6.818   4.514   2.640  0.2910 -0.1927  0.0820
   91MOL0     C11916   6.859   4.375   2.636  0.0166 -0.0033 -0.3082
   91MOL0     C11917   7.007   4.372   2.669 -0.0142  0.1294 -0.9901
   91MOL0     C11918   7.072   4.237   2.639 -0.3112  0.3126  0.5413
   91MOL0     C11919   7.227   4.251   2.617  0.0964 -0.1527  0.7438
   91MOL0     C11920   7.289   4.121   2.578  0.1919  0.3298  0.5249
   91MOL0     C11921   7.439   4.120   2.611 -0.9021  0.9016  0.0724
   91MOL0     C11922   7.530   4.235   2.573 -0.9492 -0.0663  0.2246
   91MOL0     C11923   7.662   4.240   2.647  0.3258 -0.3270 -0.0726
   91MOL0    Cl11924   7.755   4.095   2.605  0.5112 -0.2910  0.0765
   91MOL0     C11925   6.670   4.682   2.548  0.4510 -0.3945  0.0271
   91MOL0     C11926   6.547   4.731   2.486 -0.8394 -0.9814  0.5100
   91MOL0     O11927   6.376   4.555   2.220  1.2366 -0.1752  0.1875
   91MOL0     C11928   6.046   4.625   2.358  0.1689  0.3312 -0.3346
   91MOL0     C11929   5.906   4.610   2.329  0.1254 -0.2123 -0.1076
   91MOL0     N11930   5.188   4.399   2.371 -0.0200  0.8342  0.3759
   91MOL0     N11931   5.101   4.322   2.308 -0.5339  0.0120 -0.3186
   91MOL0     C11932   4.030   3.892   1.734 -0.3945 -0.2475  0.2821
   91MOL0     C11933   3.896   3.897   1.771  0.2828 -0.2658 -0.9334
   91MOL0     C11934   3.496   4.140   1.892  0.4637 -0.3656 -0.3679
   91MOL0     C11935   3.397   4.233   1.857 -0.3664  0.2017 -0.4982
   91MOL0     C11936   3.263   4.228   1.905  0.5416  1.1669 -0.5559
   91MOL0     C11937   3.221   4.103   1.974  0.6648 -0.2224  0.3222
   91MOL0     O11938   3.091   4.081   2.021  0.5709  0.5070 -0.0593
   91MOL0     C11939   3.021   4.183   2.093  0.4650 -0.1434 -0.7355
   91MOL0     C11940   2.872   4.161   2.074  0.1754  0.0233  0.0907
   91MOL0     C11941   2.832   4.126   1.932 -0.6338  0.4184 -0.0291
   91MOL0     C11942   2.686   4.144   1.887 -0.2833  1.1375  0.1996
   91MOL0     C11943   2.656   4.276   1.848  0.2220 -0.5735 -0.5044
   91MOL0     C11944   2.620   4.384   1.819  0.5542  0.6667 -0.2360
   91MOL0     C11945   3.312   4.006   2.008  0.1250 -0.0754  0.3794
   91MOL0     C11946   3.450   4.039   1.978 -0.1505  0.0159  0.4407
   91MOL0     H11947   3.917   4.197   1.931 -1.9789  1.1233 -0.2047
   91MOL0     H11948   4.142   4.185   1.858 -0.3663  0.4501 -0.9278
   91MOL0     H11949   4.278   3.768   1.771 -0.8247  1.6022 -1.5637
   91MOL0     H11950   4.265   3.848   1.925  1.2405 -0.9581  0.2511
   91MOL0     H11951   4.505   3.883   1.746  0.7810  0.3200  0.9633
   91MOL0     H11952   4.505   3.778   1.876 -0.9105 -1.2374 -1.6463
   91MOL0     H11953   4.479   3.944   2.036 -0.1216  0.0115  0.0326
   91MOL0     H11954   4.441   4.073   1.921  0.3180 -0.6376 -0.0484
   91MOL0     H11955   4.715   3.924   1.898  0.0655  0.9168 -2.0240
   91MOL0     H11956   4.656   4.078   1.827 -0.4514 -3.1965 -2.9138
   91MOL0     H11957   4.684   4.037   2.126  2.6625 -5.1902 -2.4712
   91MOL0     H11958   4.671   4.193   2.033 -3.9175 -1.5310 -1.7165
   91MOL0     H11959   4.891   4.130   1.937  0.4039 -1.7657 -1.0484
   91MOL0     H11960   4.893   3.982   2.028 -2.8405 -0.6520  2.7395
   91MOL0     H11961   4.941   4.262   2.124  3.1831  0.4539 -0.2823
   91MOL0     H11962   4.888   4.142   2.242  0.6775  0.5274 -0.2563
   91MOL0     H11963   5.129   4.115   2.074  1.7185  1.6143  0.8130
   91MOL0     H11964   5.085   4.016   2.216  0.4127  1.5524  1.9523
   91MOL0     H11965   5.347   4.116   2.296 -1.6844 -0.8122 -2.3975
   91MOL0     H11966   5.486   4.267   2.465 -0.1037  1.0568 -0.3036
   91MOL0     H11967   5.429   4.435   2.494  1.9131  1.1563 -0.7633
   91MOL0     H11968   5.508   4.309   2.218  2.1352 -0.2410  0.2422
   91MOL0     H11969   5.628   4.379   2.318 -0.4362  0.6305  1.2973
   91MOL0     H11970   5.460   4.538   2.138 -0.0886  2.5785  0.1396
   91MOL0     H11971   5.428   4.583   2.314  2.1550  2.3382  0.8859
   91MOL0     H11972   5.660   4.623   2.333 -2.7610 -0.9843  0.7316
   91MOL0     H11973   5.584   4.703   2.195 -0.0393  1.9095  2.5402
   91MOL0     H11974   5.936   4.509   2.002  0.7593 -0.9295  0.4177
   91MOL0     H11975   6.172   4.511   2.069  0.1745  1.0224 -0.9901
   91MOL0     H11976   6.386   4.431   2.495  1.0642  0.4044 -1.4837
   91MOL0     H11977   6.578   4.349   2.612  2.6261  0.0723  2.9308
   91MOL0     H11978   6.849   4.336   2.535  1.1946 -0.9706 -0.0704
   91MOL0     H11979   6.796   4.316   2.703  0.8786  0.0019  0.5353
   91MOL0     H11980   7.015   4.405   2.773 -0.0549  2.4198 -1.6755
   91MOL0     H11981   7.061   4.454   2.620 -0.8177  0.0123 -2.1064
   91MOL0     H11982   7.032   4.193   2.548  1.3672 -1.1921  0.4807
   91MOL0     H11983   7.061   4.168   2.723  0.9126 -0.6267 -0.0271
   91MOL0     H11984   7.239   4.325   2.537  1.7472  0.6989  1.7109
   91MOL0     H11985   7.259   4.290   2.714 -1.1121 -1.9289  1.9073
   91MOL0     H11986   7.269   4.119   2.471 -1.0057  2.2453  0.6588
   91MOL0     H11987   7.252   4.030   2.627  2.5176  0.7752  3.3942
   91MOL0     H11988   7.484   4.024   2.582  2.1062  1.4039  2.5155
   91MOL0     H11989   7.425   4.104   2.718 -2.1358 -2.6141 -0.4606
   91MOL0     H11990   7.553   4.218   2.468 -0.4506 -1.8546  0.5953
   91MOL0     H11991   7.478   4.331   2.565  3.3747  2.3707 -1.4272
   91MOL0     H11992   7.627   4.251   2.750  1.3980 -0.8179  0.3628
   91MOL0     H11993   7.722   4.327   2.618  0.3613  0.1879  1.4650
   91MOL0     H11994   6.757   4.744   2.569 -0.7748  1.7973 -1.0283
   91MOL0     H11995   6.529   4.834   2.457 -1.9872 -1.5561 -0.9461
   91MOL0     H11996   6.066   4.653   2.461  1.8469 -0.3956 -0.4202
   91MOL0     H11997   5.850   4.612   2.422  1.2801  0.3774  0.6093
   91MOL0     H11998   4.066   3.801   1.687 -3.8034 -1.3035 -0.5535
   91MOL0     H11999   3.831   3.810   1.765 -2.6525  1.5769  1.5963
   91MOL0     H12000   3.426   4.304   1.779 -0.7143 -0.7453 -1.5237
   91MOL0     H12001   3.193   4.308   1.885 -1.1898  0.3953  1.9765
   91MOL0     H12002   3.048   4.279   2.047  1.3620 -0.9337 -1.9215
   91MOL0     H12003   3.044   4.186   2.199  1.3911  0.1127 -0.9359
   91MOL0     H12004   2.835   4.080   2.138 -2.0757 -0.7092 -1.9931
   91MOL0     H12005   2.817   4.255   2.091 -3.9376 -1.6253 -2.5570
   91MOL0     H12006   2.861   4.025   1.904  0.8169  0.9794 -0.6420
   91MOL0     H12007   2.893   4.183   1.862  2.0313 -0.3728  1.5239
   91MOL0     H12008   2.671   4.075   1.804  1.4182 -1.8180  2.1420
   91MOL0     H12009   2.617   4.110   1.965 -0.3724  1.0840  0.0977
   91MOL0     H12010   2.572   4.475   1.787 -0.3784 -1.1838 -4.8946
   91MOL0     H12011   3.287   3.919   2.066  1.9637 -1.7955 -1.2373
   91MOL0     H12012   3.529   3.972   2.009 -0.7014 -0.0345  1.7903
   92MOL0     O12013   5.185   8.683   2.636  0.2648 -0.2348 -0.1407
   92MOL0     C12014   5.269   8.697   2.722 -0.5348  0.0089 -0.4527
   92MOL0     O12015   5.270   8.785   2.832 -0.1064  0.5501  0.2289
   92MOL0     C12016   5.158   8.858   2.866  0.3261 -0.4977  1.0473
   92MOL0     C12017   5.091   8.944   2.772  0.5389 -0.1767  0.6352
   92MOL0     C12018   4.992   9.031   2.818  0.2327 -0.7149  0.0950
   92MOL0     C12019   4.943   9.015   2.944  0.4259  0.4114 -0.4283
   92MOL0     O12020   4.835   9.095   2.977 -0.4134  0.2153 -0.5125
   92MOL0     C12021   4.716   9.026   3.027 -0.4033  1.0846  0.6747
   92MOL0     C12022   4.638   9.145   3.083  0.4181 -1.2364  0.3426
   92MOL0     C12023   4.498   9.109   3.150  0.2107 -0.2806  0.7047
   92MOL0     C12024   4.430   8.994   3.077  0.1681 -0.7281  0.6413
   92MOL0     C12025   4.292   8.969   3.133 -0.4215  0.6203  0.1234
   92MOL0     C12026   4.186   9.073   3.131 -0.3570 -0.0758 -0.4200
   92MOL0     C12027   4.054   9.026   3.189  0.6125 -0.1015 -0.7406
   92MOL0     C12028   3.941   9.131   3.167  0.2711 -0.4455 -0.0745
   92MOL0     N12029   3.829   9.066   3.234  0.5238 -0.2103  0.4098
   92MOL0     C12030   3.755   8.965   3.184  0.9757 -1.5062  0.6038
   92MOL0     C12031   3.643   8.951   3.262 -0.9615  0.2260  0.6172
   92MOL0     C12032   3.521   8.861   3.248 -1.5434  0.7239  0.3557
   92MOL0     C12033   3.408   8.934   3.172 -0.1955 -0.1126  0.9703
   92MOL0     C12034   3.366   9.066   3.227 -0.1756  0.2271 -0.4831
   92MOL0     C12035   3.269   9.143   3.146 -0.5633  0.8080  1.1853
   92MOL0     O12036   3.173   9.053   3.097  0.0682 -0.1346  0.2691
   92MOL0     C12037   3.095   9.083   2.986 -0.1977 -0.2342  0.4033
   92MOL0     C12038   3.038   8.977   2.908  0.4866 -0.3726 -0.0317
   92MOL0     C12039   2.961   9.013   2.798 -0.7835  0.0029 -0.8202
   92MOL0     C12040   2.933   9.157   2.761 -0.4345  0.0071  1.0740
   92MOL0     C12041   2.850   9.174   2.647 -0.3920 -1.0748 -0.3529
   92MOL0     O12042   2.852   9.070   2.562  0.3185  0.2245  0.4605
   92MOL0     C12043   2.765   9.050   2.457 -0.3863  0.5853  0.3420
   92MOL0     C12044   2.628   9.069   2.460  0.8547 -0.4790 -0.1957
   92MOL0     C12045   2.539   9.053   2.349 -0.0037 -0.1675  0.1837
   92MOL0     C12046   2.603   9.006   2.230  0.2517 -0.7806 -0.0005
   92MOL0     O12047   2.546   8.996   2.110 -0.7038  1.2836 -0.0135
   92MOL0     C12048   2.415   8.937   2.113  0.4066  0.2367 -0.7090
   92MOL0     C12049   2.428   8.796   2.155 -1.4018 -0.1197  0.3765
   92MOL0     C12050   2.299   8.721   2.161 -0.6018  0.3553  0.0929
   92MOL0     C12051   2.312   8.564   2.188 -0.5474  0.2440  0.0729
   92MOL0     C12052   2.179   8.506   2.238  0.5723  0.4921  0.6397
   92MOL0     C12053   2.075   8.497   2.118  0.0052  0.3469 -0.1924
   92MOL0     C12054   1.938   8.446   2.155 -0.2398 -0.7489  0.3543
   92MOL0     C12055   1.850   8.455   2.038  0.0879 -0.4021  0.0581
   92MOL0    Cl12056   1.674   8.443   2.093 -0.2143 -0.4990 -0.6050
   92MOL0     C12057   2.739   8.975   2.230 -0.2357 -0.1922  0.4576
   92MOL0     C12058   2.819   8.995   2.338 -0.4568 -0.7348 -0.0591
   92MOL0     O12059   2.805   9.286   2.615  0.1245 -0.6853  0.6431
   92MOL0     C12060   2.995   9.250   2.841 -0.0984 -0.3353 -0.3792
   92MOL0     C12061   3.084   9.211   2.945  0.0660  0.1860  0.1444
   92MOL0     N12062   3.652   9.036   3.371 -0.4228 -0.3337 -0.7534
   92MOL0     N12063   3.756   9.112   3.343 -0.3444  0.2303 -0.3697
   92MOL0     C12064   5.004   8.926   3.039 -0.4192 -0.7384 -0.0605
   92MOL0     C12065   5.116   8.849   2.999 -0.1750  0.4682  0.1603
   92MOL0     C12066   5.393   8.612   2.708  1.0365 -0.0251 -0.0621
   92MOL0     C12067   5.412   8.527   2.598  0.2921  0.8373 -0.0566
   92MOL0     C12068   5.529   8.447   2.589  0.4331 -0.6560 -1.1929
   92MOL0     C12069   5.618   8.448   2.696 -0.2349 -1.0155  0.6399
   92MOL0     O12070   5.736   8.389   2.661  0.0418  0.4837 -0.8448
   92MOL0     C12071   5.843   8.389   2.764  0.8940 -0.3093  0.8396
   92MOL0     C12072   5.976   8.318   2.706 -0.1232 -0.5078 -0.2404
   92MOL0     C12073   6.016   8.333   2.556 -0.7674 -0.2433  0.6187
   92MOL0     C12074   6.161   8.288   2.531 -0.0340 -0.2989  0.2458
   92MOL0     C12075   6.189   8.303   2.390 -0.1122 -0.1220 -0.3902
   92MOL0     C12076   6.230   8.336   2.282  0.8337  0.4825  0.7908
   92MOL0     C12077   5.596   8.532   2.798  1.0402  0.2295 -0.5834
   92MOL0     C12078   5.482   8.608   2.811  0.9459  0.8351 -0.1670
   92MOL0     H12079   5.115   8.958   2.667 -0.2790 -0.3907  0.4132
   92MOL0     H12080   4.950   9.097   2.744 -2.1595 -1.3021  0.8350
   92MOL0     H12081   4.734   8.948   3.102 -0.7779 -0.2010 -0.5228
   92MOL0     H12082   4.674   8.989   2.933 -1.2671 -2.4890  2.3047
   92MOL0     H12083   4.620   9.211   2.997  0.8694 -3.4070 -1.5157
   92MOL0     H12084   4.695   9.211   3.148 -1.9103  2.7471 -1.2625
   92MOL0     H12085   4.447   9.205   3.151  0.4049 -0.1166  4.0819
   92MOL0     H12086   4.508   9.071   3.252 -2.2437 -4.0537 -0.2265
   92MOL0     H12087   4.438   9.023   2.972  1.9757  3.6301  1.7508
   92MOL0     H12088   4.483   8.898   3.083  0.5876 -0.5611 -0.2283
   92MOL0     H12089   4.294   8.944   3.240  1.6154  0.6047  0.1152
   92MOL0     H12090   4.258   8.875   3.089  0.2437 -0.0695  1.0478
   92MOL0     H12091   4.166   9.114   3.031  0.2308 -2.1772 -1.4617
   92MOL0     H12092   4.230   9.155   3.189  1.4819 -1.6820  0.5410
   92MOL0     H12093   4.034   8.926   3.150  1.5904 -1.7052  2.4852
   92MOL0     H12094   4.067   9.004   3.295 -0.5929  1.9122 -0.1316
   92MOL0     H12095   3.912   9.153   3.064 -0.5726  2.2014  0.6294
   92MOL0     H12096   3.963   9.230   3.208  1.0115 -0.3450 -0.6806
   92MOL0     H12097   3.788   8.908   3.098 -0.5333 -0.2185 -0.8841
   92MOL0     H12098   3.496   8.815   3.344  2.2716  1.2374  1.7566
   92MOL0     H12099   3.544   8.768   3.195  1.9117 -0.4929  3.5550
   92MOL0     H12100   3.316   8.877   3.158 -0.6409  1.1249 -1.8220
   92MOL0     H12101   3.441   8.944   3.068  0.5175 -3.2490  0.7999
   92MOL0     H12102   3.321   9.045   3.325 -1.6897  2.2936 -0.6627
   92MOL0     H12103   3.454   9.130   3.238 -0.5612  1.1783 -2.5212
   92MOL0     H12104   3.319   9.191   3.061 -0.2390  2.6936  2.3761
   92MOL0     H12105   3.232   9.229   3.204  1.0043  0.1017  3.3796
   92MOL0     H12106   3.045   8.871   2.929 -0.7003 -0.1793  1.5156
   92MOL0     H12107   2.922   8.930   2.739 -1.1142 -0.6584  0.2984
   92MOL0     H12108   2.585   9.113   2.550 -0.7489 -1.7263 -0.3129
   92MOL0     H12109   2.433   9.073   2.355 -0.2151 -0.4160 -1.9682
   92MOL0     H12110   2.372   8.940   2.013 -0.8977  0.9936 -0.1410
   92MOL0     H12111   2.342   8.981   2.181  0.3525  0.2006 -0.7432
   92MOL0     H12112   2.479   8.787   2.252  2.3216  0.2512 -1.3565
   92MOL0     H12113   2.497   8.750   2.083 -0.4851 -1.5800  2.1048
   92MOL0     H12114   2.249   8.742   2.066  0.9530 -2.3855 -1.4953
   92MOL0     H12115   2.246   8.760   2.247 -0.0297  0.7081  0.2953
   92MOL0     H12116   2.346   8.511   2.098  0.4830  1.6059 -0.3748
   92MOL0     H12117   2.392   8.550   2.261  1.1795 -1.7686 -2.0758
   92MOL0     H12118   2.136   8.571   2.315 -2.2340  1.8749 -1.9160
   92MOL0     H12119   2.195   8.408   2.284 -2.2642 -0.9285 -1.1035
   92MOL0     H12120   2.118   8.421   2.052 -3.2801 -2.7034  0.8102
   92MOL0     H12121   2.058   8.597   2.077 -1.2039  1.0461  1.8858
   92MOL0     H12122   1.948   8.342   2.187 -1.6403 -1.2359 -0.7142
   92MOL0     H12123   1.901   8.504   2.240  0.0723  1.0638 -0.7063
   92MOL0     H12124   1.864   8.374   1.966 -2.6902  1.9800 -3.5354
   92MOL0     H12125   1.862   8.549   1.985  1.1931 -0.8734 -0.5563
   92MOL0     H12126   2.788   8.936   2.141  0.1963  2.1803 -0.4179
   92MOL0     H12127   2.926   8.977   2.342 -0.1302  1.1246  0.5657
   92MOL0     H12128   3.001   9.352   2.804 -1.1418  0.2047  0.8529
   92MOL0     H12129   3.141   9.291   2.993  0.9495 -0.6467  0.5058
   92MOL0     H12130   4.960   8.920   3.138 -2.0424 -3.3770 -0.8430
   92MOL0     H12131   5.162   8.782   3.071 -0.6630 -1.7861 -1.5124
   92MOL0     H12132   5.327   8.506   2.535 -0.2235 -2.2338  1.4407
   92MOL0     H12133   5.545   8.378   2.507  1.4286 -1.7689 -0.0986
   92MOL0     H12134   5.811   8.356   2.863 -2.6972  1.7343  0.5391
   92MOL0     H12135   5.864   8.494   2.785  0.0755 -0.7303  4.4107
   92MOL0     H12136   6.059   8.353   2.768  1.9159 -2.8718 -1.4467
   92MOL0     H12137   5.972   8.210   2.725  1.8870 -0.4709  0.5796
   92MOL0     H12138   6.009   8.439   2.531  2.6569 -0.4093 -1.6784
   92MOL0     H12139   5.952   8.265   2.499 -0.4400  0.2962 -0.4188
   92MOL0     H12140   6.235   8.355   2.575  0.1518 -0.8335  0.7582
   92MOL0     H12141   6.181   8.186   2.564  3.8216  0.8696  2.1517
   92MOL0     H12142   6.259   8.384   2.190  0.6943 -0.2937  0.3355
   92MOL0     H12143   5.667   8.547   2.879 -0.7029  1.4948  0.8016
   92MOL0     H12144   5.471   8.661   2.905 -0.5686  2.3728 -1.1453
   93MOL0     O12145  10.839   4.353  10.308  0.0508 -0.3548 -0.3826
   93MOL0     C12146  10.916   4.263  10.268  0.9904  1.3242 -0.2975
   93MOL0     O12147  10.887   4.122  10.247 -0.3281 -0.3757 -0.7253
   93MOL0     C12148  10.761   4.087  10.290  0.6484  1.2271 -0.1489
   93MOL0     C12149  10.654   4.139  10.226 -1.6053 -0.1333  0.0755
   93MOL0     C12150  10.528   4.108  10.263 -0.8493  0.2031 -0.7951
   93MOL0     C12151  10.497   4.023  10.364  0.3799  0.7663 -0.2288
   93MOL0     O12152  10.365   4.014  10.393 -0.7192 -0.0129  0.0808
   93MOL0     C12153  10.326   3.917  10.488  0.2657 -0.1370  1.3554
   93MOL0     C12154  10.172   3.909  10.475 -0.0857  0.7959  0.0043
   93MOL0     C12155  10.125   4.049  10.511 -0.2437 -0.8270 -0.4888
   93MOL0     C12156   9.971   4.052  10.522  0.7552 -0.7010 -0.4815
   93MOL0     C12157   9.927   4.196  10.539  0.5537  0.1223  0.3118
   93MOL0     C12158   9.762   4.199  10.556 -0.1379 -0.0831 -0.4938
   93MOL0     C12159   9.698   4.337  10.560 -0.2180 -0.1166 -0.1216
   93MOL0     C12160   9.722   4.426  10.440 -0.9287  1.0363 -0.5092
   93MOL0     N12161   9.676   4.562  10.463 -0.1186 -0.6560  0.8608
   93MOL0     C12162   9.540   4.602  10.440  0.3921  0.4049 -0.8268
   93MOL0     C12163   9.543   4.736  10.449  0.1201 -0.1295  0.8270
   93MOL0     C12164   9.427   4.833  10.418 -0.5581 -0.3039  0.1469
   93MOL0     C12165   9.398   4.925  10.527  0.4545 -0.9632 -0.6825
   93MOL0     C12166   9.322   4.830  10.628 -1.1181 -0.4654  0.6428
   93MOL0     C12167   9.232   4.918  10.713  0.5633 -0.9896 -0.3106
   93MOL0     O12168   9.112   4.942  10.633  0.8548 -0.7832  0.2047
   93MOL0     C12169   8.994   4.991  10.682  0.8061 -0.2216 -0.2173
   93MOL0     C12170   8.970   5.018  10.811 -0.5018 -0.5559 -0.4615
   93MOL0     C12171   8.841   5.046  10.861 -0.3708 -0.4057  0.4098
   93MOL0     C12172   8.734   5.044  10.776  0.8833  0.3135 -0.3025
   93MOL0     C12173   8.600   5.070  10.828 -0.6656  1.7664 -0.4636
   93MOL0     O12174   8.504   5.067  10.730 -0.1738 -0.1191  0.1913
   93MOL0     C12175   8.374   5.111  10.763 -1.0093 -0.8164  0.6273
   93MOL0     C12176   8.301   5.062  10.874  0.5232 -0.2755 -0.9807
   93MOL0     C12177   8.163   5.078  10.884 -0.3057  1.0506 -0.7354
   93MOL0     C12178   8.100   5.154  10.786  0.1468 -0.1884  0.8213
   93MOL0     O12179   7.963   5.177  10.779 -0.2730 -0.2558  0.0852
   93MOL0     C12180   7.910   5.226  10.897 -0.4908  0.2253 -0.4422
   93MOL0     C12181   7.759   5.250  10.896 -0.5437  0.4900  0.0273
   93MOL0     C12182   7.716   5.358  10.809  0.1041 -0.4452  0.2753
   93MOL0     C12183   7.577   5.404  10.825 -0.1303 -0.6411 -0.6109
   93MOL0     C12184   7.530   5.484  10.696 -0.4651 -0.0360  0.1022
   93MOL0     C12185   7.379   5.515  10.703 -0.2785 -0.0316 -0.5424
   93MOL0     C12186   7.354   5.631  10.794 -0.3505 -0.9473 -0.8486
   93MOL0     C12187   7.223   5.708  10.759 -0.4769 -0.6827 -0.6276
   93MOL0    Cl12188   7.094   5.578  10.775  0.6868  0.0916 -0.4936
   93MOL0     C12189   8.170   5.212  10.685  0.1016  0.3634 -0.0294
   93MOL0     C12190   8.306   5.185  10.668  0.3257  0.4578  0.0636
   93MOL0     O12191   8.592   5.106  10.943 -0.3805  0.1002 -0.1212
   93MOL0     C12192   8.756   5.028  10.640  0.1542  0.5338  0.3678
   93MOL0     C12193   8.883   4.996  10.591  0.3014 -0.0834  0.3656
   93MOL0     N12194   9.669   4.777  10.472 -0.6984  0.4462 -0.6951
   93MOL0     N12195   9.752   4.681  10.472  0.4347  0.2491 -0.8634
   93MOL0     C12196  10.608   3.969  10.435 -0.4256  0.2785  0.1925
   93MOL0     C12197  10.746   4.001  10.396 -0.2950  0.8182  0.1759
   93MOL0     C12198  11.056   4.298  10.242 -0.7518 -0.7616  0.3820
   93MOL0     C12199  11.100   4.434  10.268 -0.3703  0.6589  0.5146
   93MOL0     C12200  11.236   4.463  10.232  0.1636  0.5030  0.0725
   93MOL0     C12201  11.326   4.369  10.173  0.2512  0.6005  0.0904
   93MOL0     O12202  11.450   4.406  10.139  0.0804 -0.0472  0.4501
   93MOL0     C12203  11.546   4.315  10.097  0.6522 -0.4198  0.4921
   93MOL0     C12204  11.692   4.362  10.078  0.3894 -0.5510 -0.2681
   93MOL0     C12205  11.758   4.417  10.215 -0.0726  0.8340  0.9824
   93MOL0     C12206  11.908   4.382  10.233  0.0189 -1.0587 -0.4809
   93MOL0     C12207  11.971   4.460  10.123 -0.7273 -0.7690 -0.3482
   93MOL0     C12208  12.038   4.511  10.035  1.3594  0.0480 -0.3406
   93MOL0     C12209  11.278   4.238  10.150  0.6064  0.1223  0.3401
   93MOL0     C12210  11.146   4.203  10.187 -0.2970  0.1817 -0.4466
   93MOL0     H12211  10.666   4.204  10.140  1.5790 -1.5635 -0.7212
   93MOL0     H12212  10.448   4.168  10.220 -0.9605  1.1057  0.5956
   93MOL0     H12213  10.331   3.952  10.592 -0.9571 -0.4444  1.5420
   93MOL0     H12214  10.382   3.827  10.462  2.8575  2.0376 -1.1975
   93MOL0     H12215  10.135   3.838  10.550 -1.9821  1.2839 -0.4242
   93MOL0     H12216  10.145   3.883  10.373  3.2218  1.2024 -1.1055
   93MOL0     H12217  10.162   4.125  10.441 -1.9026  0.2882 -0.2162
   93MOL0     H12218  10.157   4.071  10.613 -0.6013 -1.0596 -0.3274
   93MOL0     H12219   9.907   4.010  10.444 -3.8864 -0.6424  2.8858
   93MOL0     H12220   9.936   3.992  10.606 -2.1238 -0.9005 -1.7056
   93MOL0     H12221   9.953   4.254  10.450  1.0218  2.5866  1.9439
   93MOL0     H12222   9.974   4.232  10.631  2.1390 -0.5313 -0.2200
   93MOL0     H12223   9.734   4.133  10.638  3.9068 -2.9323 -1.1153
   93MOL0     H12224   9.719   4.150  10.468  0.2977 -0.0559 -0.7253
   93MOL0     H12225   9.589   4.328  10.566 -0.2796  0.1928 -0.7167
   93MOL0     H12226   9.728   4.388  10.652 -2.7977 -1.9517  1.8718
   93MOL0     H12227   9.687   4.380  10.347  0.4301  1.3779 -1.2110
   93MOL0     H12228   9.829   4.425  10.417 -1.1466 -2.2974 -1.8928
   93MOL0     H12229   9.444   4.556  10.420 -2.9913  4.3745  3.9546
   93MOL0     H12230   9.338   4.776  10.390 -2.6405  2.5785  0.4349
   93MOL0     H12231   9.452   4.898  10.334  3.3343  0.9791  2.0551
   93MOL0     H12232   9.342   5.009  10.483  1.3821  0.4947  0.7702
   93MOL0     H12233   9.487   4.979  10.561 -2.2965  3.1144  0.9172
   93MOL0     H12234   9.263   4.747  10.588  0.8318 -0.7245 -1.9645
   93MOL0     H12235   9.409   4.791  10.682  1.0934 -1.3355 -3.2144
   93MOL0     H12236   9.280   5.015  10.723 -3.4323  1.0919  1.1233
   93MOL0     H12237   9.216   4.863  10.807  1.4998 -3.3331 -1.4469
   93MOL0     H12238   9.052   5.021  10.882 -0.0975 -0.6406 -0.9183
   93MOL0     H12239   8.821   5.063  10.967 -0.0886  2.1561  0.1065
   93MOL0     H12240   8.363   5.018  10.951  0.5978  3.5134  1.4231
   93MOL0     H12241   8.110   5.034  10.968  0.1405 -1.9285 -1.8665
   93MOL0     H12242   7.964   5.319  10.917  0.1319  0.9607 -4.5335
   93MOL0     H12243   7.920   5.147  10.971  0.4224 -0.8947 -1.7257
   93MOL0     H12244   7.732   5.280  10.998 -3.2753 -0.4036 -0.3548
   93MOL0     H12245   7.708   5.155  10.877  0.2713  0.3604 -1.7073
   93MOL0     H12246   7.735   5.321  10.707  1.4929 -1.0627  0.7378
   93MOL0     H12247   7.778   5.447  10.824 -0.1568  0.3274 -2.5195
   93MOL0     H12248   7.518   5.311  10.826  0.2154 -0.8818  1.7769
   93MOL0     H12249   7.571   5.463  10.916 -1.0663 -0.7399 -0.5919
   93MOL0     H12250   7.562   5.423  10.610 -0.3762 -1.7982  1.3355
   93MOL0     H12251   7.595   5.569  10.676  1.9622 -1.4870  1.3784
   93MOL0     H12252   7.329   5.422  10.731  4.1501 -1.5428  3.8824
   93MOL0     H12253   7.354   5.552  10.603 -1.7427 -1.5281 -0.7818
   93MOL0     H12254   7.332   5.602  10.897 -0.2238 -0.1689 -0.5954
   93MOL0     H12255   7.440   5.698  10.790 -1.3218  0.3808 -0.1254
   93MOL0     H12256   7.237   5.762  10.665 -0.4838  2.2503  0.9167
   93MOL0     H12257   7.203   5.779  10.840 -4.2848 -1.0548 -1.0643
   93MOL0     H12258   8.133   5.277  10.606  2.7826  1.1557 -0.7415
   93MOL0     H12259   8.354   5.226  10.579 -3.6845  0.9993 -2.1056
   93MOL0     H12260   8.671   5.036  10.573 -0.2846  0.7264  0.9400
   93MOL0     H12261   8.906   4.969  10.489  2.2765 -2.2570  1.2896
   93MOL0     H12262  10.587   3.908  10.522 -2.6425  0.2675 -0.2723
   93MOL0     H12263  10.828   3.979  10.463 -1.4748 -1.1117  1.0827
   93MOL0     H12264  11.024   4.500  10.308  0.1726  0.8584  1.2307
   93MOL0     H12265  11.279   4.561  10.253  0.6496  0.1840  0.5999
   93MOL0     H12266  11.501   4.271  10.007  1.6114 -2.9864  1.1914
   93MOL0     H12267  11.546   4.241  10.177 -0.0451 -1.2259 -0.2360
   93MOL0     H12268  11.751   4.283  10.030 -0.8497 -0.3251 -2.2383
   93MOL0     H12269  11.693   4.442  10.004 -0.9388 -0.2763 -0.0123
   93MOL0     H12270  11.695   4.381  10.298 -0.3487 -0.8190  0.1024
   93MOL0     H12271  11.758   4.525  10.202  1.1598  0.5940 -1.7107
   93MOL0     H12272  11.948   4.404  10.332  0.0014 -2.4111 -0.1666
   93MOL0     H12273  11.935   4.277  10.223  1.4996 -0.8134  0.6151
   93MOL0     H12274  12.118   4.539   9.969  1.1306  1.6690  0.0113
   93MOL0     H12275  11.334   4.170  10.087 -3.3220 -3.4612  0.2402
   93MOL0     H12276  11.125   4.098  10.165  4.2201 -0.5565 -2.3686
   94MOL0     O12277   5.853   4.689   5.896  0.1000  0.3593  0.8169
   94MOL0     C12278   5.914   4.598   5.956 -0.0409 -0.0457  0.4208
   94MOL0     O12279   5.860   4.485   5.991  0.2129  0.2913 -0.3188
   94MOL0     C12280   5.730   4.449   6.007  0.0683 -0.2668 -0.6391
   94MOL0     C12281   5.673   4.327   5.982  0.1652 -0.5225  0.9288
   94MOL0     C12282   5.536   4.306   5.999 -0.2381  1.5646  1.0213
   94MOL0     C12283   5.445   4.404   6.032  0.3810 -0.3754  0.1966
   94MOL0     O12284   5.310   4.390   6.037 -0.1947 -0.1010  0.8698
   94MOL0     C12285   5.243   4.307   5.943  0.8722 -0.3459  0.1563
   94MOL0     C12286   5.190   4.408   5.843 -0.3158  0.4796  0.0539
   94MOL0     C12287   5.121   4.327   5.729 -0.1249  0.6483  0.3652
   94MOL0     C12288   5.028   4.410   5.630 -0.3104 -0.4327 -0.4661
   94MOL0     C12289   4.969   4.304   5.537 -1.1720 -0.0527 -0.2772
   94MOL0     C12290   4.841   4.360   5.460 -0.4428  0.2502 -0.0697
   94MOL0     C12291   4.754   4.239   5.412 -0.1773  0.7563  1.1990
   94MOL0     C12292   4.609   4.273   5.377  0.5252 -0.8305 -0.3766
   94MOL0     N12293   4.542   4.151   5.330  0.0386 -0.2386  0.1369
   94MOL0     C12294   4.518   4.120   5.205  0.8534  0.6084  0.6824
   94MOL0     C12295   4.441   4.007   5.204 -0.2860  0.0294  0.1524
   94MOL0     C12296   4.375   3.950   5.079 -0.6018  0.4153  0.1790
   94MOL0     C12297   4.230   4.003   5.054 -0.4901  0.9742  0.8067
   94MOL0     C12298   4.175   3.969   4.921  0.3638 -0.8591 -0.2911
   94MOL0     C12299   4.031   4.012   4.901  0.0980 -0.0549 -0.7359
   94MOL0     O12300   4.024   4.149   4.940 -0.4545  0.1702  0.5263
   94MOL0     C12301   3.901   4.211   4.950  0.5485  0.6974 -0.6982
   94MOL0     C12302   3.796   4.194   4.862 -0.8016 -1.0243 -0.4199
   94MOL0     C12303   3.672   4.249   4.882  0.0430 -0.4777  0.0915
   94MOL0     C12304   3.648   4.333   4.987 -0.2831  0.2923 -0.7875
   94MOL0     C12305   3.500   4.377   5.023 -0.1861 -0.0251 -0.1123
   94MOL0     O12306   3.403   4.306   4.961 -0.4361  0.4664  0.2110
   94MOL0     C12307   3.276   4.334   4.981  1.0844  0.4025  1.0396
   94MOL0     C12308   3.188   4.237   5.033 -0.0815  0.0572 -0.1178
   94MOL0     C12309   3.060   4.275   5.058  0.5688  0.2748  0.4410
   94MOL0     C12310   3.009   4.409   5.026  0.1503  0.7243  0.8806
   94MOL0     O12311   2.880   4.458   5.038 -0.3282  0.3871 -0.1145
   94MOL0     C12312   2.803   4.394   5.136  0.3490 -0.6967 -0.0464
   94MOL0     C12313   2.657   4.453   5.128  0.4339 -0.3594  0.7300
   94MOL0     C12314   2.549   4.336   5.117  0.9474  0.2898 -0.2840
   94MOL0     C12315   2.426   4.373   5.203 -0.1363  0.1956  0.9163
   94MOL0     C12316   2.343   4.467   5.119 -0.7519  0.5424  0.3079
   94MOL0     C12317   2.203   4.471   5.175 -0.1570  1.0609 -0.0966
   94MOL0     C12318   2.126   4.599   5.124 -0.3391  0.1981 -0.0202
   94MOL0     C12319   1.990   4.615   5.194 -0.0683 -0.3807  0.5209
   94MOL0    Cl12320   1.896   4.713   5.070 -0.2014  0.2362 -0.1961
   94MOL0     C12321   3.098   4.499   4.964 -0.8960 -0.8132 -0.8411
   94MOL0     C12322   3.229   4.462   4.944 -0.5787 -0.7264  0.9413
   94MOL0     O12323   3.488   4.477   5.094  0.2945  0.0341 -0.0501
   94MOL0     C12324   3.759   4.374   5.062  1.1672  0.7273 -0.6015
   94MOL0     C12325   3.884   4.312   5.044  0.6322 -0.2569 -0.1445
   94MOL0     N12326   4.418   3.981   5.341 -0.0678  0.4309 -0.1411
   94MOL0     N12327   4.465   4.074   5.409  1.0303  0.0093  0.0971
   94MOL0     C12328   5.492   4.527   6.066 -0.8595 -0.7077 -0.6385
   94MOL0     C12329   5.635   4.551   6.050 -1.2672  0.5398  0.4807
   94MOL0     C12330   6.060   4.617   5.983 -0.2372  0.0078  0.7821
   94MOL0     C12331   6.123   4.739   5.961 -0.5942  0.9263  0.4996
   94MOL0     C12332   6.245   4.762   6.024 -1.1142 -0.1652 -0.0767
   94MOL0     C12333   6.306   4.668   6.102  0.0246 -0.0618  0.0898
   94MOL0     O12334   6.413   4.711   6.161 -0.4465  0.0446 -0.1495
   94MOL0     C12335   6.471   4.623   6.247  0.4978  0.3083 -1.0780
   94MOL0     C12336   6.582   4.707   6.319  1.0819  0.3877  0.5442
   94MOL0     C12337   6.668   4.623   6.405 -0.1712  1.0036  0.3906
   94MOL0     C12338   6.787   4.709   6.451  0.3748  0.8087  0.0690
   94MOL0     C12339   6.889   4.632   6.526  0.3751  0.5710 -0.3166
   94MOL0     C12340   6.971   4.567   6.595  0.1846  0.2367 -0.4479
   94MOL0     C12341   6.245   4.541   6.121  1.2656  0.4470  0.2113
   94MOL0     C12342   6.130   4.511   6.056 -0.2959  0.0195  0.1774
   94MOL0     H12343   5.732   4.253   5.929  2.0201  1.1487  0.5487
   94MOL0     H12344   5.489   4.210   5.984  0.0236  1.7660 -1.4979
   94MOL0     H12345   5.162   4.260   6.000 -2.0346  3.1075 -0.7381
   94MOL0     H12346   5.299   4.230   5.889  0.6114 -0.5907  0.2345
   94MOL0     H12347   5.269   4.472   5.802  0.6270 -1.3655 -1.1607
   94MOL0     H12348   5.122   4.473   5.897 -1.5809 -0.8946  0.1692
   94MOL0     H12349   5.061   4.243   5.766  2.5718  0.0655  3.9562
   94MOL0     H12350   5.194   4.279   5.663 -1.1038 -0.1228 -0.1986
   94MOL0     H12351   4.949   4.472   5.674  0.4831  0.6948 -0.5734
   94MOL0     H12352   5.076   4.474   5.555 -3.4312 -0.2626 -2.5142
   94MOL0     H12353   4.929   4.222   5.597  0.2481 -0.0320  0.7502
   94MOL0     H12354   5.047   4.265   5.471 -0.4284 -2.3647  1.8519
   94MOL0     H12355   4.860   4.437   5.384  1.8154  0.2764  0.4494
   94MOL0     H12356   4.785   4.411   5.539 -1.6857 -0.5013 -0.4487
   94MOL0     H12357   4.798   4.195   5.322  0.8621 -1.8911  2.9038
   94MOL0     H12358   4.750   4.154   5.481  0.7329 -0.0568  0.2833
   94MOL0     H12359   4.599   4.361   5.313  0.0360 -0.6257 -0.0268
   94MOL0     H12360   4.563   4.291   5.474 -0.1902 -0.1998 -0.8251
   94MOL0     H12361   4.558   4.182   5.126  2.1116  2.6579  2.8113
   94MOL0     H12362   4.380   3.842   5.096  0.8665  0.1183 -1.8225
   94MOL0     H12363   4.444   3.975   4.998  2.9624 -0.8905  2.5629
   94MOL0     H12364   4.233   4.113   5.061 -1.1451  1.0968 -0.5262
   94MOL0     H12365   4.170   3.963   5.136  0.3284 -0.5936  0.6635
   94MOL0     H12366   4.236   4.019   4.846 -0.3285  3.1166  1.4923
   94MOL0     H12367   4.171   3.862   4.902 -0.4994 -0.7826 -0.6086
   94MOL0     H12368   3.970   3.957   4.974 -0.3803  2.9301  1.2519
   94MOL0     H12369   4.005   3.993   4.796 -3.2548 -0.0482 -0.0220
   94MOL0     H12370   3.817   4.139   4.771  0.2803 -3.4288  1.1772
   94MOL0     H12371   3.596   4.224   4.809  1.3260  0.4945 -1.6583
   94MOL0     H12372   3.229   4.136   5.041  0.0280  0.2204  2.2032
   94MOL0     H12373   2.978   4.213   5.094 -0.6422  0.8633 -1.1265
   94MOL0     H12374   2.841   4.417   5.236  0.2704  2.0130 -0.5554
   94MOL0     H12375   2.803   4.288   5.111  1.9863 -0.4695 -1.1755
   94MOL0     H12376   2.652   4.523   5.045 -1.6782 -4.1064 -2.7077
   94MOL0     H12377   2.647   4.518   5.215 -1.4672  1.9820 -1.0982
   94MOL0     H12378   2.593   4.244   5.158  0.9509 -0.5564 -2.0900
   94MOL0     H12379   2.519   4.315   5.014 -0.9094 -0.6483  0.4028
   94MOL0     H12380   2.376   4.277   5.219  1.5197 -0.9977 -0.6063
   94MOL0     H12381   2.451   4.419   5.300  0.8658  1.9620 -0.1233
   94MOL0     H12382   2.323   4.435   5.016 -1.0510  1.3574  0.1016
   94MOL0     H12383   2.389   4.566   5.114  0.6197 -0.1202 -3.3727
   94MOL0     H12384   2.199   4.471   5.284 -0.1100 -0.3998 -0.0758
   94MOL0     H12385   2.150   4.382   5.143  1.0008  1.4469 -3.5490
   94MOL0     H12386   2.190   4.687   5.129  0.4064 -0.3849  0.8940
   94MOL0     H12387   2.108   4.583   5.017 -0.6983 -2.4245  0.3779
   94MOL0     H12388   1.996   4.658   5.294  2.0798 -1.8688  1.0939
   94MOL0     H12389   1.949   4.515   5.206 -0.4157 -0.4036 -0.7486
   94MOL0     H12390   3.054   4.595   4.936 -0.7146 -0.9677 -1.6739
   94MOL0     H12391   3.291   4.547   4.918 -3.3609  1.4995  1.1386
   94MOL0     H12392   3.736   4.450   5.137 -0.4112 -0.3914  0.1107
   94MOL0     H12393   3.974   4.334   5.100  1.3939  0.3298 -1.5528
   94MOL0     H12394   5.428   4.612   6.084  2.0651  0.8834  4.6883
   94MOL0     H12395   5.678   4.649   6.069 -0.0793 -0.2763  2.2771
   94MOL0     H12396   6.067   4.814   5.907 -1.6760  0.8168  1.4462
   94MOL0     H12397   6.277   4.866   6.023 -0.1407 -0.3397  2.6503
   94MOL0     H12398   6.515   4.543   6.188  1.1041  0.7437 -1.2251
   94MOL0     H12399   6.413   4.583   6.331 -0.5714  0.8905 -1.5247
   94MOL0     H12400   6.635   4.752   6.235  0.8166 -0.8642 -0.3090
   94MOL0     H12401   6.529   4.781   6.381 -0.0301 -0.7721  1.0196
   94MOL0     H12402   6.695   4.537   6.344 -4.1958  0.1247 -0.4430
   94MOL0     H12403   6.605   4.593   6.489 -2.6983 -0.2397 -1.8083
   94MOL0     H12404   6.832   4.759   6.365 -0.0248 -1.8968 -1.8556
   94MOL0     H12405   6.742   4.775   6.526 -0.2849 -1.2242  1.5533
   94MOL0     H12406   7.036   4.505   6.652  0.5051 -1.2278 -2.3258
   94MOL0     H12407   6.290   4.461   6.179 -0.1632 -0.9346 -0.5082
   94MOL0     H12408   6.085   4.412   6.061 -0.7966 -0.1606 -4.0257
   95MOL0     O12409   6.214   2.329   6.009  0.1725  0.3231  0.7858
   95MOL0     C12410   6.279   2.229   5.967  0.2480  0.0190 -0.1022
   95MOL0     O12411   6.247   2.149   5.866  0.4130  0.7913  0.7917
   95MOL0     C12412   6.150   2.174   5.775  0.4126  0.6792  0.4023
   95MOL0     C12413   6.028   2.111   5.783  0.1208  0.7230  0.6176
   95MOL0     C12414   5.927   2.158   5.706  0.2728  0.1324  0.5467
   95MOL0     C12415   5.938   2.249   5.602 -0.3170 -0.1459 -0.6157
   95MOL0     O12416   5.824   2.290   5.530 -0.4875 -0.9030  0.4843
   95MOL0     C12417   5.832   2.424   5.472 -0.6849  0.1815 -0.5129
   95MOL0     C12418   5.697   2.481   5.443  0.1962 -0.9811 -0.5138
   95MOL0     C12419   5.691   2.627   5.404 -0.0134 -0.2223 -0.2829
   95MOL0     C12420   5.542   2.657   5.365 -0.3534 -0.2192  0.8288
   95MOL0     C12421   5.528   2.787   5.285 -0.3874  0.5475 -0.8989
   95MOL0     C12422   5.574   2.791   5.132  0.8235 -0.9720 -0.2291
   95MOL0     C12423   5.543   2.927   5.062 -0.5654  0.0420 -0.5584
   95MOL0     C12424   5.572   2.918   4.910 -0.3176 -0.0660  0.2888
   95MOL0     N12425   5.507   3.027   4.839  0.5774  0.4500 -0.3938
   95MOL0     C12426   5.371   3.044   4.810 -0.3824  0.8021 -0.2589
   95MOL0     C12427   5.368   3.160   4.740 -0.0231  0.0948 -0.0157
   95MOL0     C12428   5.254   3.236   4.674  0.0113 -0.6894  0.0730
   95MOL0     C12429   5.138   3.144   4.655 -0.0361  0.0050 -0.2046
   95MOL0     C12430   5.018   3.201   4.583  0.4559 -0.0490  0.2478
   95MOL0     C12431   4.893   3.105   4.608 -0.3255  0.3933 -0.2045
   95MOL0     O12432   4.782   3.169   4.553  0.5376 -0.3732  0.6960
   95MOL0     C12433   4.747   3.129   4.423  0.0028 -0.2034  0.4134
   95MOL0     C12434   4.721   2.994   4.392  0.2158 -0.1223  0.2306
   95MOL0     C12435   4.646   2.959   4.272 -0.1815 -0.0341  0.1386
   95MOL0     C12436   4.618   3.065   4.178  0.4854  0.8532  0.3014
   95MOL0     C12437   4.540   3.044   4.047  0.0297  0.8493 -0.1315
   95MOL0     O12438   4.490   2.913   4.036 -0.6551 -0.1557 -0.4490
   95MOL0     C12439   4.400   2.896   3.936 -0.2651  1.1471  0.3745
   95MOL0     C12440   4.272   2.945   3.946 -0.0540  0.0653  0.2704
   95MOL0     C12441   4.183   2.911   3.846  0.4340  0.3046  0.8159
   95MOL0     C12442   4.209   2.826   3.735 -0.4220  0.2299  1.1905
   95MOL0     O12443   4.121   2.794   3.636  0.5431 -0.3462  0.8013
   95MOL0     C12444   4.008   2.876   3.617  1.1964 -0.3182  1.0402
   95MOL0     C12445   3.925   2.852   3.492  0.4815 -0.5930 -0.2408
   95MOL0     C12446   3.791   2.942   3.482  0.4047 -0.0759  0.7369
   95MOL0     C12447   3.728   2.932   3.345  0.1410 -0.1864 -0.3857
   95MOL0     C12448   3.591   3.004   3.335  0.3380  0.1371  0.0314
   95MOL0     C12449   3.607   3.137   3.262  0.1017 -0.3147  0.1775
   95MOL0     C12450   3.496   3.180   3.174 -0.1228  0.9060  0.2116
   95MOL0     C12451   3.541   3.180   3.026  0.1657 -0.9245  0.2175
   95MOL0    Cl12452   3.406   3.249   2.940  0.2344  0.5127 -0.3290
   95MOL0     C12453   4.340   2.781   3.725 -0.0101 -0.3276  1.0008
   95MOL0     C12454   4.437   2.812   3.825 -0.2439 -0.0740 -0.3990
   95MOL0     O12455   4.514   3.134   3.969 -1.0083 -0.1413 -0.3747
   95MOL0     C12456   4.647   3.194   4.211  0.0858 -0.9463 -0.2689
   95MOL0     C12457   4.704   3.231   4.339 -0.0297  0.5521  0.7277
   95MOL0     N12458   5.493   3.216   4.752  0.5703  0.2378  0.8669
   95MOL0     N12459   5.571   3.142   4.812  0.2336  0.1622  0.2094
   95MOL0     C12460   6.072   2.285   5.576 -0.1311  0.2113  0.2665
   95MOL0     C12461   6.180   2.249   5.656  0.3628 -0.0215 -0.0665
   95MOL0     C12462   6.403   2.198   6.044  0.0628  0.2819 -0.3883
   95MOL0     C12463   6.468   2.298   6.122 -0.9054  0.2120  0.0920
   95MOL0     C12464   6.602   2.283   6.157  0.3721 -0.5313  0.0145
   95MOL0     C12465   6.668   2.167   6.139  0.3907 -0.8147 -0.0548
   95MOL0     O12466   6.802   2.175   6.176  0.0001 -0.4748 -0.3355
   95MOL0     C12467   6.860   2.052   6.187  0.5346  0.8374  0.1526
   95MOL0     C12468   7.003   2.076   6.220  0.3102 -0.1857  0.2797
   95MOL0     C12469   7.065   1.936   6.257 -0.4484 -1.1723  0.1951
   95MOL0     C12470   7.223   1.960   6.273  0.2529  0.0423 -0.8463
   95MOL0     C12471   7.289   1.832   6.324  0.1803  0.6743  0.4606
   95MOL0     C12472   7.339   1.724   6.361 -0.0310  0.3930 -0.4901
   95MOL0     C12473   6.607   2.062   6.068  0.2075  0.2595 -0.5668
   95MOL0     C12474   6.474   2.071   6.028  0.3304 -0.8092 -0.5591
   95MOL0     H12475   5.998   2.036   5.856  1.3790  0.1732  0.5941
   95MOL0     H12476   5.828   2.115   5.720 -1.3314  2.6318 -2.0577
   95MOL0     H12477   5.900   2.417   5.386  1.0255 -0.1335  0.8025
   95MOL0     H12478   5.893   2.487   5.538  1.8686 -3.1539  0.6066
   95MOL0     H12479   5.621   2.472   5.520 -0.9223  1.8013 -1.1746
   95MOL0     H12480   5.660   2.419   5.361 -1.2773  0.4747 -1.0022
   95MOL0     H12481   5.753   2.641   5.315  1.6071 -1.9985  0.4959
   95MOL0     H12482   5.710   2.696   5.487  0.3735  0.1973 -0.7150
   95MOL0     H12483   5.513   2.568   5.308 -1.7510 -0.0843  1.2965
   95MOL0     H12484   5.475   2.669   5.450 -1.9080  2.5909 -0.6498
   95MOL0     H12485   5.576   2.863   5.347  0.2339 -0.0114 -0.6761
   95MOL0     H12486   5.422   2.812   5.285 -0.4657  0.3338  0.5974
   95MOL0     H12487   5.509   2.714   5.088 -1.0952 -0.0087  0.7682
   95MOL0     H12488   5.678   2.759   5.123  0.1282 -2.8556 -2.3073
   95MOL0     H12489   5.438   2.952   5.079 -0.6415  2.7174 -3.8526
   95MOL0     H12490   5.609   3.006   5.099  3.2205 -1.9859 -2.3200
   95MOL0     H12491   5.551   2.820   4.868 -0.0719 -1.5368  3.3520
   95MOL0     H12492   5.679   2.928   4.894 -0.4828  1.5035 -0.0214
   95MOL0     H12493   5.291   2.971   4.815 -1.5308  1.9164 -1.7196
   95MOL0     H12494   5.294   3.277   4.581 -1.1951  1.1707  0.3311
   95MOL0     H12495   5.240   3.323   4.739  2.7657  2.3301 -2.9496
   95MOL0     H12496   5.103   3.106   4.751 -1.7001  0.8767 -0.4321
   95MOL0     H12497   5.174   3.058   4.597  1.0713 -0.5487  1.2628
   95MOL0     H12498   5.011   3.294   4.639  2.8295 -0.0686  0.7042
   95MOL0     H12499   5.041   3.212   4.477  2.4675 -1.8965  0.3954
   95MOL0     H12500   4.869   3.106   4.715 -5.5355  0.5201 -1.1152
   95MOL0     H12501   4.907   3.002   4.575  0.5008 -0.1388  1.6734
   95MOL0     H12502   4.746   2.920   4.467 -0.6427 -2.0877 -1.3012
   95MOL0     H12503   4.607   2.858   4.263 -0.7465 -0.3241  4.2204
   95MOL0     H12504   4.239   3.009   4.026 -1.5897  0.0451 -0.3242
   95MOL0     H12505   4.084   2.945   3.873 -0.0538 -1.1561  0.9712
   95MOL0     H12506   4.041   2.981   3.607 -0.8957  0.2678 -0.2137
   95MOL0     H12507   3.955   2.859   3.711  3.2580  1.6332  2.6997
   95MOL0     H12508   3.899   2.747   3.477  1.2660 -0.5844 -1.9011
   95MOL0     H12509   3.981   2.889   3.406  0.5954 -1.6297 -0.6291
   95MOL0     H12510   3.817   3.046   3.504  0.4517 -0.7047  4.2408
   95MOL0     H12511   3.712   2.910   3.551 -2.5953  2.1760 -1.3805
   95MOL0     H12512   3.800   2.967   3.270  0.6351 -1.8914 -0.7488
   95MOL0     H12513   3.720   2.827   3.316 -2.6524  0.2020 -1.3757
   95MOL0     H12514   3.542   3.013   3.433 -0.9436 -1.5728 -0.4042
   95MOL0     H12515   3.533   2.931   3.278  0.7371  0.4726 -0.8083
   95MOL0     H12516   3.704   3.129   3.212  1.3814 -2.7786  2.8033
   95MOL0     H12517   3.623   3.204   3.347  1.9568  0.6529 -0.8673
   95MOL0     H12518   3.410   3.114   3.184 -1.4513  2.5278 -0.1004
   95MOL0     H12519   3.448   3.277   3.192 -1.7321  0.1497  0.0963
   95MOL0     H12520   3.580   3.087   2.983  0.0846  0.1072 -2.2593
   95MOL0     H12521   3.621   3.253   3.016 -1.7972  1.3688  0.3361
   95MOL0     H12522   4.359   2.697   3.658  0.7208  1.2138 -0.8132
   95MOL0     H12523   4.532   2.761   3.821  0.6541  1.4444  0.3621
   95MOL0     H12524   4.637   3.278   4.144 -0.0024  0.2346  1.1769
   95MOL0     H12525   4.724   3.332   4.370  0.4046  1.3514 -1.8710
   95MOL0     H12526   6.099   2.336   5.484  2.9275 -1.5153  0.0967
   95MOL0     H12527   6.284   2.274   5.638  0.4185 -0.1948  0.0091
   95MOL0     H12528   6.420   2.390   6.154 -1.5748  0.2235 -0.9100
   95MOL0     H12529   6.643   2.376   6.196 -2.0033  0.4127  0.4091
   95MOL0     H12530   6.857   1.986   6.100  0.5538  1.1229 -0.0682
   95MOL0     H12531   6.815   1.992   6.267  0.8228 -4.2935 -3.1070
   95MOL0     H12532   7.055   2.117   6.133  2.5016 -0.6854  1.2838
   95MOL0     H12533   7.018   2.144   6.304 -0.6008 -1.2425  1.3311
   95MOL0     H12534   7.046   1.861   6.180 -0.6319 -0.3837 -0.5405
   95MOL0     H12535   7.019   1.900   6.349 -2.0246  1.4936  0.5584
   95MOL0     H12536   7.267   1.992   6.179  5.4135  1.2915  1.6480
   95MOL0     H12537   7.246   2.034   6.350 -1.6785 -0.6824  0.5248
   95MOL0     H12538   7.382   1.631   6.390 -0.4614  0.0953 -0.7842
   95MOL0     H12539   6.660   1.969   6.051  1.7619  1.5475 -3.7356
   95MOL0     H12540   6.439   1.982   5.976  1.4224 -2.4512  1.3362
   96MOL0     O12541   6.287   1.941   0.799  0.2697  0.0739 -0.1868
   96MOL0     C12542   6.301   1.878   0.903 -0.5655 -0.2122 -0.5888
   96MOL0     O12543   6.200   1.804   0.978 -0.2511  0.5566 -0.0318
   96MOL0     C12544   6.088   1.777   0.916  0.2008  0.2745  0.0333
   96MOL0     C12545   5.989   1.736   1.009  0.9474 -0.6743 -0.8276
   96MOL0     C12546   5.870   1.689   0.949 -0.5934 -0.4165  0.4402
   96MOL0     C12547   5.851   1.673   0.812 -0.1796 -0.2654  0.4161
   96MOL0     O12548   5.735   1.650   0.748 -0.1747  0.6028  0.0186
   96MOL0     C12549   5.632   1.569   0.816 -0.0083 -0.3604  0.6492
   96MOL0     C12550   5.550   1.491   0.718  0.6013 -0.0760  0.3599
   96MOL0     C12551   5.463   1.400   0.776 -0.0998  0.3959 -0.3228
   96MOL0     C12552   5.413   1.293   0.681  0.1319 -0.6591  0.0710
   96MOL0     C12553   5.522   1.190   0.654 -0.5111  0.4062  0.5772
   96MOL0     C12554   5.469   1.050   0.654 -0.3569 -0.2789 -0.7241
   96MOL0     C12555   5.567   0.941   0.620  0.1164 -0.2891 -0.3486
   96MOL0     C12556   5.618   0.949   0.481 -0.5324  0.5473  0.5262
   96MOL0     N12557   5.544   0.897   0.368  0.6233 -0.0357 -0.4292
   96MOL0     C12558   5.426   0.939   0.325  0.3271  0.0055 -1.5202
   96MOL0     C12559   5.396   0.849   0.227  0.2810  0.4810  0.3569
   96MOL0     C12560   5.274   0.847   0.144  1.1158 -0.3468 -0.4630
   96MOL0     C12561   5.201   0.714   0.134  0.5184 -1.4244  0.6705
   96MOL0     C12562   5.064   0.729   0.054 -0.7645  0.3273 -0.3113
   96MOL0     C12563   5.024   0.587  -0.005 -0.3628  0.8750  0.8100
   96MOL0     O12564   4.988   0.511   0.109  0.5178  0.6054  0.1638
   96MOL0     C12565   4.856   0.466   0.115  0.1030 -0.6845  0.3006
   96MOL0     C12566   4.831   0.386   0.220  0.2698  0.1335 -0.1102
   96MOL0     C12567   4.716   0.306   0.231 -0.0692 -0.4538  0.0903
   96MOL0     C12568   4.611   0.323   0.139  0.1845 -0.1906  0.2896
   96MOL0     C12569   4.491   0.237   0.147  0.6765  0.3892  0.9983
   96MOL0     O12570   4.407   0.242   0.042  0.2972  0.0480 -0.2402
   96MOL0     C12571   4.286   0.169   0.044 -0.5811 -0.2355  0.8114
   96MOL0     C12572   4.174   0.221  -0.009  0.7622 -0.5075  0.2248
   96MOL0     C12573   4.051   0.146  -0.022 -0.0418 -1.0188  0.8943
   96MOL0     C12574   4.046   0.015   0.016  0.5670  0.3972 -0.4637
   96MOL0     O12575   3.942  -0.077  -0.004 -0.7953 -0.8341 -0.4663
   96MOL0     C12576   3.839  -0.036  -0.090 -0.1441  0.2588  0.7721
   96MOL0     C12577   3.755  -0.155  -0.139  0.6415  0.8888  0.5055
   96MOL0     C12578   3.649  -0.101  -0.230  0.4734 -0.4119 -0.0328
   96MOL0     C12579   3.574  -0.215  -0.294  1.0706 -1.0522  0.6272
   96MOL0     C12580   3.434  -0.178  -0.340  0.3785 -0.0721  0.0152
   96MOL0     C12581   3.368  -0.296  -0.422 -0.0868  0.2582  0.4988
   96MOL0     C12582   3.338  -0.424  -0.329  0.8307 -0.1095  0.7822
   96MOL0     C12583   3.229  -0.528  -0.376 -0.1360  0.1047  0.0725
   96MOL0    Cl12584   3.204  -0.644  -0.244 -0.3037 -0.1691 -0.0913
   96MOL0     C12585   4.154  -0.035   0.091 -0.6834  0.1206  0.1716
   96MOL0     C12586   4.274   0.041   0.099 -0.4505  0.8481 -0.4702
   96MOL0     O12587   4.474   0.181   0.251  0.8241 -0.5906 -0.2601
   96MOL0     C12588   4.632   0.415   0.042 -0.7778  0.2317  0.5468
   96MOL0     C12589   4.751   0.478   0.024 -0.3642 -0.5880 -0.2728
   96MOL0     N12590   5.483   0.746   0.230  0.1004 -0.2455  0.2988
   96MOL0     N12591   5.573   0.779   0.314 -0.5766 -0.2100  0.4355
   96MOL0     C12592   5.953   1.708   0.732 -0.1540 -0.1828 -0.7076
   96MOL0     C12593   6.079   1.752   0.775 -0.3534  0.1993 -0.9006
   96MOL0     C12594   6.426   1.912   0.970  0.0894  0.0697 -0.0282
   96MOL0     C12595   6.463   1.819   1.067 -0.3206  0.4841 -0.3685
   96MOL0     C12596   6.584   1.838   1.140 -0.0978 -0.4365 -0.7095
   96MOL0     C12597   6.675   1.944   1.109 -0.5099 -0.0677 -0.1477
   96MOL0     O12598   6.790   1.978   1.182  0.1094  0.3231  0.4313
   96MOL0     C12599   6.836   1.897   1.289  0.4445 -0.1583 -0.6206
   96MOL0     C12600   6.962   1.958   1.360 -0.9174 -0.4345 -0.5297
   96MOL0     C12601   7.074   1.986   1.263 -0.9457 -0.4037  0.0119
   96MOL0     C12602   7.186   2.083   1.323  0.3304  1.1048 -0.3755
   96MOL0     C12603   7.264   2.022   1.427  0.3585  0.0288  0.8720
   96MOL0     C12604   7.326   1.966   1.515  1.0773  0.3043  0.4227
   96MOL0     C12605   6.650   2.019   0.992 -0.1133  0.1939 -0.5036
   96MOL0     C12606   6.524   2.013   0.926  1.0536  1.2286 -0.5866
   96MOL0     H12607   6.009   1.746   1.115  0.7031  2.4561 -0.9879
   96MOL0     H12608   5.790   1.661   1.017 -1.1297  0.7745  0.3349
   96MOL0     H12609   5.562   1.623   0.880  0.3598  0.7574  0.1335
   96MOL0     H12610   5.679   1.503   0.889 -0.7018  1.3873  2.7689
   96MOL0     H12611   5.618   1.436   0.652  1.9672 -1.5289  2.8388
   96MOL0     H12612   5.496   1.558   0.650 -0.4383 -2.7136 -1.6123
   96MOL0     H12613   5.378   1.457   0.816 -1.3365 -0.6725 -1.3269
   96MOL0     H12614   5.517   1.372   0.867 -2.3083  2.4551  1.7639
   96MOL0     H12615   5.327   1.246   0.730  0.4952 -1.6434 -0.2346
   96MOL0     H12616   5.378   1.338   0.588  1.1254 -4.2116 -2.2100
   96MOL0     H12617   5.585   1.201   0.743 -0.9922 -0.4920  1.0289
   96MOL0     H12618   5.565   1.217   0.557 -0.8965 -3.0805 -0.6900
   96MOL0     H12619   5.387   1.052   0.582 -0.9378 -1.1222 -0.1130
   96MOL0     H12620   5.423   1.024   0.750  0.9382 -0.6088 -0.1714
   96MOL0     H12621   5.651   0.956   0.689  0.2312  0.5125 -0.6544
   96MOL0     H12622   5.519   0.844   0.634 -0.2692 -0.0792 -0.2052
   96MOL0     H12623   5.707   0.886   0.494 -0.7311  0.5153  1.7971
   96MOL0     H12624   5.647   1.054   0.472 -0.2808  0.6081  1.8929
   96MOL0     H12625   5.373   1.031   0.348  3.0146  1.8276 -2.2074
   96MOL0     H12626   5.298   0.881   0.043 -1.3239  0.0810 -0.9678
   96MOL0     H12627   5.201   0.920   0.180 -1.1060 -1.3020 -2.7581
   96MOL0     H12628   5.169   0.665   0.227  0.6659 -1.7949  0.5300
   96MOL0     H12629   5.273   0.654   0.078  0.8989 -0.6464  0.3142
   96MOL0     H12630   4.972   0.755   0.108  1.0533  2.4365  2.0127
   96MOL0     H12631   5.080   0.804  -0.024 -0.8719 -0.9527 -1.6099
   96MOL0     H12632   5.104   0.527  -0.051 -0.4410  1.8004 -0.6128
   96MOL0     H12633   4.941   0.601  -0.075 -3.6593 -1.6845  3.8783
   96MOL0     H12634   4.902   0.372   0.301 -0.9791 -1.0550  0.8286
   96MOL0     H12635   4.702   0.230   0.307 -1.4775 -0.5135 -0.1982
   96MOL0     H12636   4.175   0.317  -0.060  2.1706 -0.2147  0.7620
   96MOL0     H12637   3.970   0.190  -0.080  0.1343  1.2545  2.2704
   96MOL0     H12638   3.882   0.016  -0.176  0.6302 -0.7201  0.5566
   96MOL0     H12639   3.775   0.036  -0.038 -0.4733  0.0710  0.6296
   96MOL0     H12640   3.711  -0.214  -0.059  0.2085  3.5992  2.3835
   96MOL0     H12641   3.822  -0.224  -0.193  0.3704  0.5408  0.6093
   96MOL0     H12642   3.692  -0.043  -0.312  1.0854  0.7918  1.0914
   96MOL0     H12643   3.582  -0.042  -0.166  3.5470  2.3128  0.9679
   96MOL0     H12644   3.630  -0.249  -0.382 -0.4902 -0.8973 -0.4671
   96MOL0     H12645   3.569  -0.294  -0.218  2.6535 -0.4996  1.3648
   96MOL0     H12646   3.438  -0.087  -0.401  0.3282  0.1132  0.2885
   96MOL0     H12647   3.368  -0.159  -0.255  0.2979 -3.2199  0.7887
   96MOL0     H12648   3.430  -0.327  -0.506 -1.1041  1.1293 -0.6266
   96MOL0     H12649   3.273  -0.252  -0.456 -0.6793 -1.3759 -0.0408
   96MOL0     H12650   3.429  -0.482  -0.342  0.8835  0.3313 -1.1371
   96MOL0     H12651   3.320  -0.391  -0.226 -0.2278  1.9290  0.0209
   96MOL0     H12652   3.267  -0.588  -0.458  2.0907 -0.1137  1.1940
   96MOL0     H12653   3.135  -0.476  -0.399  0.6262  2.0688  1.1253
   96MOL0     H12654   4.145  -0.134   0.135  2.4071  0.1723  1.1804
   96MOL0     H12655   4.352  -0.012   0.153 -0.4429  1.1524 -0.1797
   96MOL0     H12656   4.545   0.439  -0.018 -0.1178 -3.3370 -2.1318
   96MOL0     H12657   4.764   0.541  -0.063  0.1705 -0.7741 -0.3345
   96MOL0     H12658   5.938   1.696   0.625 -0.7882  1.8159 -0.8809
   96MOL0     H12659   6.164   1.761   0.708  3.2950 -2.1095  2.9217
   96MOL0     H12660   6.399   1.735   1.091  0.2821  1.0188  3.8204
   96MOL0     H12661   6.611   1.775   1.224 -0.6063  0.2283 -0.0389
   96MOL0     H12662   6.856   1.795   1.254  1.6427  0.4754 -1.8853
   96MOL0     H12663   6.756   1.903   1.364  0.5813  2.6178 -0.5983
   96MOL0     H12664   6.933   2.046   1.419  0.5605 -2.1095  2.9899
   96MOL0     H12665   6.995   1.883   1.432 -1.4318 -0.4927 -0.3559
   96MOL0     H12666   7.039   2.024   1.167 -0.9921  0.1794  0.2592
   96MOL0     H12667   7.130   1.893   1.250  1.9330  0.9038  1.9534
   96MOL0     H12668   7.257   2.116   1.246  1.8897 -0.3792  0.3723
   96MOL0     H12669   7.142   2.180   1.349 -0.2675  1.1807 -1.5884
   96MOL0     H12670   7.385   1.925   1.595  0.6908  2.5310  1.9243
   96MOL0     H12671   6.719   2.093   0.954 -0.0966  1.0959  1.1724
   96MOL0     H12672   6.501   2.084   0.848 -0.2171  1.4464 -0.0381
   97MOL0     O12673   8.688   5.491   3.913  0.2444 -0.0856  0.4262
   97MOL0     C12674   8.711   5.607   3.904  0.4410 -0.1928 -0.0076
   97MOL0     O12675   8.649   5.697   3.826 -0.1176  0.3838 -0.6783
   97MOL0     C12676   8.524   5.672   3.781 -0.6334  1.1340  0.5067
   97MOL0     C12677   8.488   5.733   3.662  0.1486 -0.2318 -0.1393
   97MOL0     C12678   8.361   5.724   3.606  0.1490  0.2998 -0.4671
   97MOL0     C12679   8.270   5.650   3.676  0.4832  0.3692  0.2167
   97MOL0     O12680   8.151   5.626   3.625 -0.4234  0.3352 -0.5181
   97MOL0     C12681   8.066   5.751   3.600 -0.8532  0.3179  0.4322
   97MOL0     C12682   8.055   5.797   3.455 -0.0267 -0.1491 -1.2133
   97MOL0     C12683   7.918   5.752   3.398 -1.0806 -0.3418 -0.8237
   97MOL0     C12684   7.886   5.816   3.258 -0.4943 -0.0185 -0.3197
   97MOL0     C12685   7.765   5.755   3.183  0.4269 -1.0011 -0.3473
   97MOL0     C12686   7.643   5.827   3.241  0.2020 -0.1377 -0.9954
   97MOL0     C12687   7.506   5.770   3.195  0.4847  0.5780  0.3723
   97MOL0     C12688   7.501   5.729   3.049  0.5247 -0.3838 -0.0858
   97MOL0     N12689   7.364   5.724   2.996 -0.8359  0.6914  0.5363
   97MOL0     C12690   7.332   5.704   2.865 -0.3857  0.1667  0.7198
   97MOL0     C12691   7.206   5.759   2.849 -0.1989  0.1989 -0.3121
   97MOL0     C12692   7.126   5.763   2.730 -0.0819 -0.2404 -0.6515
   97MOL0     C12693   7.113   5.909   2.673 -0.0613 -0.2855  0.1168
   97MOL0     C12694   7.044   5.922   2.533  0.5008  0.3548 -0.2806
   97MOL0     C12695   6.897   5.868   2.540 -0.5473 -0.2243  0.1470
   97MOL0     O12696   6.824   5.907   2.417 -0.0667 -0.5374 -0.7643
   97MOL0     C12697   6.690   5.879   2.432  0.8550 -0.4657 -0.7430
   97MOL0     C12698   6.619   5.804   2.530 -0.7201  0.1399 -0.1649
   97MOL0     C12699   6.483   5.789   2.514 -0.0360 -0.1649  0.1035
   97MOL0     C12700   6.408   5.854   2.420  0.6253  1.2528 -0.2719
   97MOL0     C12701   6.259   5.826   2.411  0.4448 -0.4744 -0.8030
   97MOL0     O12702   6.201   5.741   2.503  0.0632  0.6870 -0.4441
   97MOL0     C12703   6.078   5.688   2.476  1.2757 -0.5555  0.0195
   97MOL0     C12704   6.081   5.559   2.433 -0.1617  0.2366 -0.2167
   97MOL0     C12705   5.966   5.498   2.381 -0.1686 -0.2448 -0.5569
   97MOL0     C12706   5.844   5.558   2.375 -0.6656 -0.5257 -0.0007
   97MOL0     O12707   5.737   5.494   2.311  0.2284  0.2618  0.3434
   97MOL0     C12708   5.606   5.539   2.345  0.5022  0.0054  0.2674
   97MOL0     C12709   5.510   5.420   2.330 -1.0924 -0.3982  0.2270
   97MOL0     C12710   5.357   5.466   2.370 -0.0898 -0.7926 -0.4034
   97MOL0     C12711   5.270   5.346   2.366  0.5776 -0.0503 -0.7283
   97MOL0     C12712   5.123   5.370   2.414 -0.2211  1.0927 -0.3085
   97MOL0     C12713   5.057   5.230   2.447 -0.5898 -0.4346 -0.3601
   97MOL0     C12714   4.903   5.273   2.461  0.0670 -0.6347  0.4961
   97MOL0     C12715   4.824   5.138   2.450  0.5368  0.1821 -0.5076
   97MOL0    Cl12716   4.856   5.056   2.606  0.1121  0.0392 -0.3841
   97MOL0     C12717   5.830   5.693   2.424 -0.3822  0.1474 -0.5641
   97MOL0     C12718   5.952   5.758   2.473 -0.2167  0.4651  0.2140
   97MOL0     O12719   6.199   5.879   2.310  0.3653  0.2143 -0.3812
   97MOL0     C12720   6.473   5.928   2.333 -0.0354 -0.5748  0.9748
   97MOL0     C12721   6.617   5.941   2.329 -0.5055  0.1367 -0.3747
   97MOL0     N12722   7.165   5.812   2.968 -0.5692 -0.1431  0.6623
   97MOL0     N12723   7.260   5.789   3.052  0.4232 -0.8625  0.0587
   97MOL0     C12724   8.301   5.578   3.796 -0.4182  0.2180 -0.2896
   97MOL0     C12725   8.422   5.608   3.856 -0.3414  0.3803 -0.0460
   97MOL0     C12726   8.830   5.657   3.973  0.4449  0.3629  0.9588
   97MOL0     C12727   8.849   5.802   3.976 -0.0843 -0.5090 -0.0919
   97MOL0     C12728   8.970   5.857   4.026 -0.0299  0.4250 -0.1191
   97MOL0     C12729   9.071   5.775   4.086  0.2608  0.5149 -0.0744
   97MOL0     O12730   9.182   5.838   4.140 -0.7627  0.0461  0.1783
   97MOL0     C12731   9.308   5.768   4.145 -0.0336  0.6861  0.4994
   97MOL0     C12732   9.402   5.872   4.196 -0.0137 -0.5527  0.3679
   97MOL0     C12733   9.535   5.814   4.248 -0.9521 -0.2966 -0.1241
   97MOL0     C12734   9.622   5.930   4.290 -0.4197 -0.4025  0.6458
   97MOL0     C12735   9.719   5.870   4.381 -0.9715 -0.3729  0.4946
   97MOL0     C12736   9.804   5.807   4.438  0.2426  0.1170 -0.1140
   97MOL0     C12737   9.052   5.633   4.077  0.4838 -0.4180  0.0012
   97MOL0     C12738   8.931   5.579   4.028  1.1590 -0.9547  0.7322
   97MOL0     H12739   8.569   5.787   3.614  0.1799  2.5999  2.7306
   97MOL0     H12740   8.323   5.765   3.513 -0.4121 -1.6646 -1.1559
   97MOL0     H12741   8.116   5.842   3.637  3.0036  0.3758 -4.0751
   97MOL0     H12742   7.968   5.729   3.644 -1.2326 -0.0842 -0.6010
   97MOL0     H12743   8.134   5.755   3.393  2.6061  1.7108  0.6541
   97MOL0     H12744   8.054   5.906   3.448 -0.5271 -0.1678 -1.4623
   97MOL0     H12745   7.845   5.787   3.471 -1.3562  1.9479 -2.0917
   97MOL0     H12746   7.919   5.643   3.405 -3.1489 -0.3040  0.7428
   97MOL0     H12747   7.871   5.923   3.275  1.1719  0.3254 -0.8829
   97MOL0     H12748   7.971   5.806   3.191  0.2690  4.6653 -0.4126
   97MOL0     H12749   7.760   5.645   3.183 -1.1950 -1.0027 -2.4606
   97MOL0     H12750   7.770   5.782   3.077  0.4162 -3.3812 -1.0253
   97MOL0     H12751   7.648   5.929   3.204 -4.0194 -0.0304 -1.7040
   97MOL0     H12752   7.638   5.823   3.351 -0.3668 -1.5781 -1.0485
   97MOL0     H12753   7.488   5.684   3.259  0.2995 -1.3258 -2.1134
   97MOL0     H12754   7.423   5.834   3.228  0.5809  0.9495 -0.1019
   97MOL0     H12755   7.541   5.629   3.030 -1.5583 -1.1664 -0.5962
   97MOL0     H12756   7.562   5.804   2.998 -1.7870  2.5140  1.1023
   97MOL0     H12757   7.401   5.654   2.796  1.8269  3.0520  0.6538
   97MOL0     H12758   7.027   5.722   2.749 -0.4644  0.0573 -1.8837
   97MOL0     H12759   7.176   5.692   2.662  0.4556 -0.3714 -0.1258
   97MOL0     H12760   7.216   5.946   2.665  0.5041 -1.9092 -0.7408
   97MOL0     H12761   7.057   5.970   2.744 -0.9139 -2.1741  1.1222
   97MOL0     H12762   7.047   6.029   2.513 -1.9608  1.2537  3.2196
   97MOL0     H12763   7.100   5.859   2.464  0.4030 -1.3624  1.1262
   97MOL0     H12764   6.850   5.927   2.619  2.5503  1.0758  1.1595
   97MOL0     H12765   6.896   5.762   2.565  1.1585 -0.6107 -1.1823
   97MOL0     H12766   6.667   5.738   2.602 -0.8699  0.1740 -0.0344
   97MOL0     H12767   6.427   5.726   2.582  0.4627  0.7371  1.3848
   97MOL0     H12768   6.178   5.512   2.427 -0.6825 -0.7910 -0.8962
   97MOL0     H12769   5.964   5.397   2.340 -0.0095 -0.4820  0.0071
   97MOL0     H12770   5.569   5.621   2.284  0.0464 -0.0165  0.5101
   97MOL0     H12771   5.590   5.566   2.450 -0.5101  1.6696 -0.2747
   97MOL0     H12772   5.552   5.347   2.400  0.7072  1.2849  0.9917
   97MOL0     H12773   5.520   5.389   2.226  0.1451  2.8822 -0.7651
   97MOL0     H12774   5.329   5.553   2.311  2.4830  1.4793  1.4391
   97MOL0     H12775   5.352   5.509   2.471  0.0036 -0.0988 -0.6898
   97MOL0     H12776   5.272   5.314   2.262  0.6160 -0.0335 -0.7326
   97MOL0     H12777   5.315   5.272   2.433  2.8815  0.9671 -1.0702
   97MOL0     H12778   5.072   5.425   2.333 -1.1955  1.3898  0.4830
   97MOL0     H12779   5.121   5.436   2.501  0.6437  0.4536  0.2078
   97MOL0     H12780   5.087   5.188   2.543  1.5941  0.3917 -0.6450
   97MOL0     H12781   5.074   5.149   2.376  1.0327  1.0830 -1.7887
   97MOL0     H12782   4.894   5.333   2.552 -0.9300  1.7102 -1.0614
   97MOL0     H12783   4.870   5.332   2.375 -0.7353 -2.1297 -0.2565
   97MOL0     H12784   4.856   5.085   2.360 -2.3287  1.9635 -2.7711
   97MOL0     H12785   4.716   5.154   2.446  0.6134  1.5366  1.4511
   97MOL0     H12786   5.739   5.751   2.433  0.3992  1.2046  1.0057
   97MOL0     H12787   5.940   5.863   2.497  0.1036  0.7951 -1.0081
   97MOL0     H12788   6.407   5.973   2.260  2.7458  2.4698  0.0613
   97MOL0     H12789   6.672   5.982   2.244 -1.3708 -3.7374 -3.1278
   97MOL0     H12790   8.223   5.511   3.832 -0.6656 -0.5761 -2.1676
   97MOL0     H12791   8.449   5.566   3.952  0.4058 -1.6199 -1.0694
   97MOL0     H12792   8.781   5.874   3.932 -0.0117 -0.2261  0.2561
   97MOL0     H12793   9.011   5.957   4.013  1.8312 -0.3379 -0.5795
   97MOL0     H12794   9.337   5.732   4.046 -3.1656 -0.8981  0.0074
   97MOL0     H12795   9.295   5.689   4.220 -1.7128  0.9545  0.5391
   97MOL0     H12796   9.416   5.954   4.124 -2.5164 -1.3361 -1.1549
   97MOL0     H12797   9.357   5.918   4.285  1.8614  1.9580  0.1331
   97MOL0     H12798   9.589   5.760   4.169  0.7971  0.6640  0.3759
   97MOL0     H12799   9.520   5.742   4.328  0.8996 -0.9956 -0.3470
   97MOL0     H12800   9.686   5.969   4.210 -1.3030 -1.8833 -0.8497
   97MOL0     H12801   9.565   6.009   4.338 -0.4783 -0.6880  1.0486
   97MOL0     H12802   9.859   5.736   4.497 -1.3080 -0.0201  1.2378
   97MOL0     H12803   9.123   5.555   4.103  1.3650 -0.7347 -3.0239
   97MOL0     H12804   8.921   5.472   4.040 -4.6593 -0.8772 -0.6521
   98MOL0     O12805   9.796   2.288   4.845  0.0534 -0.0649  0.5787
   98MOL0     C12806   9.789   2.288   4.965 -0.1973  0.0896 -0.1382
   98MOL0     O12807   9.870   2.351   5.048  0.1246  0.2787  0.1652
   98MOL0     C12808   9.980   2.421   5.004  0.3226  0.3029  0.1200
   98MOL0     C12809   9.984   2.499   4.889  0.8542 -0.6386  0.6997
   98MOL0     C12810  10.084   2.588   4.873 -0.5530 -0.3246 -0.0065
   98MOL0     C12811  10.197   2.595   4.957  0.3009 -0.3726 -0.2197
   98MOL0     O12812  10.302   2.677   4.935 -0.6631  0.2816 -0.2824
   98MOL0     C12813  10.364   2.740   5.051  1.0040  0.0930 -0.4429
   98MOL0     C12814  10.399   2.891   5.017  0.6597 -0.3082  1.1980
   98MOL0     C12815  10.503   2.947   5.113  0.0424  0.6261 -0.1524
   98MOL0     C12816  10.525   3.095   5.107 -0.2026 -0.5170 -0.1963
   98MOL0     C12817  10.623   3.144   4.997 -0.3382 -0.3206 -0.5077
   98MOL0     C12818  10.595   3.292   4.970 -0.7705  0.2015  0.7573
   98MOL0     C12819  10.602   3.387   5.085 -0.2687  0.1353 -1.1234
   98MOL0     C12820  10.742   3.451   5.110  0.2637 -0.2973 -0.0532
   98MOL0     N12821  10.722   3.594   5.142  0.0780 -0.5660  0.4797
   98MOL0     C12822  10.693   3.694   5.054 -0.1471  0.0084  0.3262
   98MOL0     C12823  10.677   3.799   5.133 -0.2384 -0.2113 -0.9895
   98MOL0     C12824  10.634   3.936   5.083 -0.6745 -0.1121 -0.4631
   98MOL0     C12825  10.493   3.966   5.138  0.4988 -0.3926  0.2745
   98MOL0     C12826  10.438   4.089   5.061 -0.3399  0.8510  0.3391
   98MOL0     C12827  10.317   4.147   5.137  0.6133 -0.2462 -0.6447
   98MOL0     O12828  10.280   4.286   5.098 -0.0006  0.3782 -0.1984
   98MOL0     C12829  10.149   4.321   5.098  0.5349 -0.5861 -0.1552
   98MOL0     C12830  10.112   4.460   5.076  1.0799  0.4752  0.7393
   98MOL0     C12831   9.972   4.499   5.080  0.1608  0.0903  0.4672
   98MOL0     C12832   9.872   4.402   5.102 -0.1151 -0.6548 -1.1075
   98MOL0     C12833   9.733   4.439   5.088 -0.5224 -0.3076  0.6759
   98MOL0     O12834   9.644   4.352   5.153  0.7161 -0.0493 -0.0466
   98MOL0     C12835   9.507   4.381   5.145  0.4881  0.5303 -0.8210
   98MOL0     C12836   9.436   4.461   5.241  0.9114  0.1054 -0.7959
   98MOL0     C12837   9.295   4.478   5.225  0.3966  0.2266  0.5221
   98MOL0     C12838   9.229   4.421   5.118  1.1927  0.0256 -0.4421
   98MOL0     O12839   9.090   4.440   5.093 -0.1670 -0.3135 -0.2646
   98MOL0     C12840   9.011   4.471   5.203 -0.7718  0.3589 -0.8343
   98MOL0     C12841   8.868   4.496   5.145  0.0884 -0.0124 -0.2793
   98MOL0     C12842   8.769   4.512   5.262  0.5207 -0.6175  0.2893
   98MOL0     C12843   8.627   4.495   5.207 -0.1941  0.2343  0.3289
   98MOL0     C12844   8.511   4.487   5.309 -0.5065  0.8674 -0.1945
   98MOL0     C12845   8.511   4.612   5.395  0.2251  0.1944  0.1404
   98MOL0     C12846   8.395   4.617   5.495 -0.1594 -0.3293  0.7893
   98MOL0     C12847   8.254   4.609   5.430  0.2828  0.3374 -0.1359
   98MOL0    Cl12848   8.125   4.656   5.559 -0.0833  0.3369 -0.0384
   98MOL0     C12849   9.302   4.354   5.021 -0.2989 -0.6281 -1.0196
   98MOL0     C12850   9.439   4.331   5.036 -0.3849  0.5155 -0.7280
   98MOL0     O12851   9.712   4.555   5.038 -0.4738  0.7357 -0.6384
   98MOL0     C12852   9.909   4.273   5.122  0.6366  1.1970 -0.7573
   98MOL0     C12853  10.047   4.235   5.131  0.8314 -0.1242  0.0225
   98MOL0     N12854  10.675   3.753   5.271 -0.2001  0.0415  0.5402
   98MOL0     N12855  10.703   3.627   5.270 -0.6506  0.6125  0.9031
   98MOL0     C12856  10.189   2.513   5.080 -0.0972 -0.9380  0.2013
   98MOL0     C12857  10.085   2.419   5.097  0.6296  1.3985  0.8430
   98MOL0     C12858   9.681   2.197   5.014 -0.3404 -0.5842 -0.0439
   98MOL0     C12859   9.659   2.201   5.160 -0.3570  0.4003 -0.1539
   98MOL0     C12860   9.541   2.135   5.203 -0.2777 -0.6787 -0.1784
   98MOL0     C12861   9.450   2.077   5.112  0.4238  0.3316  0.0960
   98MOL0     O12862   9.345   2.029   5.182  0.7071  0.2841 -0.4938
   98MOL0     C12863   9.275   1.921   5.130  0.6562  0.3409 -0.2745
   98MOL0     C12864   9.139   1.906   5.200  0.2272 -0.0293  0.0991
   98MOL0     C12865   9.049   2.037   5.188  0.1180  0.1649 -0.3549
   98MOL0     C12866   9.012   2.064   5.043 -0.0858  0.4434 -0.9023
   98MOL0     C12867   9.095   2.170   4.988  0.4905  1.0555 -1.5782
   98MOL0     C12868   9.144   2.266   4.934  0.5876 -0.0688 -0.3952
   98MOL0     C12869   9.478   2.069   4.971 -0.8581 -0.4824 -0.1083
   98MOL0     C12870   9.596   2.135   4.921 -0.2302 -0.4842  0.2362
   98MOL0     H12871   9.890   2.509   4.835  1.1630  2.3173  0.5413
   98MOL0     H12872  10.098   2.643   4.780 -0.3526 -1.2758 -0.5489
   98MOL0     H12873  10.453   2.692   5.093  0.8545  0.6580  0.5485
   98MOL0     H12874  10.289   2.747   5.130 -0.6462  1.1032 -2.0005
   98MOL0     H12875  10.318   2.963   5.028  1.5682  0.9033  0.3041
   98MOL0     H12876  10.447   2.890   4.919 -1.9851 -0.9457 -0.1841
   98MOL0     H12877  10.590   2.882   5.106 -1.7854 -2.3598  2.2880
   98MOL0     H12878  10.452   2.917   5.205 -0.2064 -0.2992 -0.5911
   98MOL0     H12879  10.425   3.139   5.106  0.2087  0.7082  2.4516
   98MOL0     H12880  10.576   3.121   5.200 -0.7686  1.5079 -0.4013
   98MOL0     H12881  10.600   3.096   4.902  0.0994 -1.5303 -0.0142
   98MOL0     H12882  10.726   3.124   5.027 -0.0161  3.7248  1.9231
   98MOL0     H12883  10.492   3.281   4.935 -0.2325  1.1290 -1.3054
   98MOL0     H12884  10.647   3.318   4.877 -1.3759 -1.0878  0.0399
   98MOL0     H12885  10.524   3.462   5.070 -1.4577 -0.7604  0.2458
   98MOL0     H12886  10.578   3.352   5.186 -1.1230  5.6986  0.9249
   98MOL0     H12887  10.810   3.429   5.027 -1.8911 -0.1632 -1.9624
   98MOL0     H12888  10.782   3.407   5.202  3.2663  3.1903  0.5324
   98MOL0     H12889  10.686   3.691   4.946 -0.4032 -0.3577  0.3538
   98MOL0     H12890  10.628   3.928   4.974  0.1766 -0.5368 -0.4856
   98MOL0     H12891  10.699   4.017   5.118 -1.5934  0.4162  0.0615
   98MOL0     H12892  10.500   3.975   5.247  0.7133  0.2897  0.2063
   98MOL0     H12893  10.432   3.876   5.123 -1.2458  1.1690 -3.1347
   98MOL0     H12894  10.522   4.158   5.051  1.9946 -1.4632  2.5711
   98MOL0     H12895  10.404   4.071   4.958 -1.3850 -0.9100  0.9449
   98MOL0     H12896  10.329   4.141   5.246 -1.8003 -2.4659 -0.3964
   98MOL0     H12897  10.235   4.081   5.107 -1.1801  0.3163  2.5765
   98MOL0     H12898  10.195   4.528   5.064  1.1641  0.1904 -0.3905
   98MOL0     H12899   9.948   4.604   5.072  1.3375  0.3977  0.8154
   98MOL0     H12900   9.478   4.499   5.334  1.0148  2.3191 -1.7002
   98MOL0     H12901   9.236   4.520   5.306 -1.5927 -4.7232  1.9841
   98MOL0     H12902   9.048   4.565   5.245 -2.3374  0.8133 -0.3801
   98MOL0     H12903   9.023   4.383   5.267  1.3651 -0.5956 -2.4469
   98MOL0     H12904   8.844   4.411   5.079  2.5493  0.0872 -1.4486
   98MOL0     H12905   8.871   4.585   5.082 -1.0348 -0.8076 -1.5159
   98MOL0     H12906   8.786   4.607   5.314 -0.1602 -1.5472  2.3441
   98MOL0     H12907   8.784   4.433   5.337 -1.0275 -1.1292  0.0920
   98MOL0     H12908   8.596   4.580   5.147 -1.5624 -0.7724 -0.4276
   98MOL0     H12909   8.622   4.411   5.137  0.9701  0.1917  0.2731
   98MOL0     H12910   8.516   4.393   5.365  4.0887  0.4130 -1.0200
   98MOL0     H12911   8.429   4.479   5.237 -0.1597  3.2600 -0.9271
   98MOL0     H12912   8.507   4.700   5.329  0.1539 -1.0370 -1.5544
   98MOL0     H12913   8.601   4.616   5.458  1.9099 -0.7107 -2.0953
   98MOL0     H12914   8.405   4.538   5.570 -0.6820 -1.5972 -0.4344
   98MOL0     H12915   8.395   4.718   5.536 -2.8593  0.4652 -0.9013
   98MOL0     H12916   8.235   4.506   5.397 -2.5233  1.6930 -3.3314
   98MOL0     H12917   8.255   4.681   5.348 -2.8061 -0.1628 -0.7393
   98MOL0     H12918   9.247   4.325   4.931 -2.8789  1.5997 -0.2867
   98MOL0     H12919   9.491   4.273   4.960 -0.5854  1.4519 -1.6009
   98MOL0     H12920   9.831   4.202   5.150 -0.0961  1.9682 -0.7731
   98MOL0     H12921  10.055   4.132   5.166  3.4974 -0.9228 -2.5549
   98MOL0     H12922  10.259   2.541   5.157 -0.4951  0.1836  0.1682
   98MOL0     H12923  10.080   2.346   5.176 -0.6619  0.4100 -0.1197
   98MOL0     H12924   9.727   2.249   5.229  2.9434 -2.9076 -0.7886
   98MOL0     H12925   9.508   2.144   5.306 -2.2346 -1.7716 -0.6554
   98MOL0     H12926   9.329   1.828   5.150 -1.7256 -0.9111  0.7237
   98MOL0     H12927   9.255   1.929   5.023 -0.0772  2.3191 -0.0388
   98MOL0     H12928   9.075   1.825   5.166  1.7883 -1.0296 -0.5476
   98MOL0     H12929   9.158   1.882   5.305  0.0949  0.9915  0.3705
   98MOL0     H12930   9.105   2.122   5.229 -1.0506  2.3194 -2.9880
   98MOL0     H12931   8.957   2.034   5.247  0.5134  1.9565  0.4330
   98MOL0     H12932   9.029   1.973   4.984  0.5558 -1.0103  1.4066
   98MOL0     H12933   8.906   2.089   5.032 -0.3714 -0.8852 -1.4599
   98MOL0     H12934   9.178   2.351   4.879 -0.0390 -0.8448 -2.0534
   98MOL0     H12935   9.416   2.026   4.892 -0.5575 -3.1571  1.0144
   98MOL0     H12936   9.632   2.126   4.819 -1.2274 -2.7293  0.0148
   99MOL0     O12937   0.278   7.276   8.744  0.2222 -0.1860 -0.6323
   99MOL0     C12938   0.349   7.178   8.733 -0.5027  0.5544 -0.0632
   99MOL0     O12939   0.299   7.057   8.709  0.2830 -0.3621  0.3457
   99MOL0     C12940   0.159   7.042   8.705  0.3092  0.0532 -0.0916
   99MOL0     C12941   0.101   6.981   8.594 -0.2064  0.0513  0.8293
   99MOL0     C12942  -0.038   6.960   8.579 -0.0744 -0.3071 -0.1131
   99MOL0     C12943  -0.125   6.993   8.682 -0.1362 -0.3346 -0.7238
   99MOL0     O12944  -0.254   6.944   8.663 -0.0006 -0.1487 -0.0552
   99MOL0     C12945  -0.360   7.008   8.739 -0.4120 -0.4542  0.6394
   99MOL0     C12946  -0.417   6.910   8.842  0.3522 -0.0807  0.3392
   99MOL0     C12947  -0.509   6.984   8.937 -0.1954  0.1952 -0.5733
   99MOL0     C12948  -0.583   6.880   9.035 -0.7737 -0.4207 -0.4803
   99MOL0     C12949  -0.713   6.829   8.955 -0.8776  0.2280  0.0462
   99MOL0     C12950  -0.842   6.793   9.018  0.4968 -0.6035 -0.4512
   99MOL0     C12951  -0.964   6.775   8.919  0.8220 -0.2898  0.4785
   99MOL0     C12952  -1.010   6.884   8.823  0.4776 -0.1304 -0.3299
   99MOL0     N12953  -1.136   6.847   8.752  0.0395 -0.3532 -0.1193
   99MOL0     C12954  -1.138   6.814   8.625  0.4335 -0.6472  0.3669
   99MOL0     C12955  -1.267   6.776   8.611 -0.0755  0.3838  1.3833
   99MOL0     C12956  -1.329   6.723   8.483  0.2403  1.0472 -0.0969
   99MOL0     C12957  -1.462   6.799   8.458  0.1042  1.3259  0.5482
   99MOL0     C12958  -1.585   6.734   8.518  0.9750  0.2291 -0.5719
   99MOL0     C12959  -1.722   6.787   8.486 -0.1268  0.4071  0.6870
   99MOL0     O12960  -1.726   6.814   8.336  0.2246  0.0913 -0.7891
   99MOL0     C12961  -1.850   6.869   8.303 -1.2434 -0.0700  0.0947
   99MOL0     C12962  -1.864   6.996   8.245  1.2041 -0.0755 -0.1730
   99MOL0     C12963  -1.991   7.049   8.214 -0.2111 -0.0415  0.1121
   99MOL0     C12964  -2.102   6.975   8.244  0.0559 -0.4004 -0.1303
   99MOL0     C12965  -2.229   7.042   8.224 -0.1741  1.0718  0.3345
   99MOL0     O12966  -2.326   6.955   8.213  0.2293 -0.4620  0.1074
   99MOL0     C12967  -2.455   6.989   8.224 -0.3283 -0.1057 -1.1126
   99MOL0     C12968  -2.541   6.877   8.211  0.1150 -0.0798 -0.0146
   99MOL0     C12969  -2.679   6.883   8.238 -0.8108  0.5670  0.0325
   99MOL0     C12970  -2.739   7.003   8.274  0.2876  0.0598  0.4652
   99MOL0     O12971  -2.872   7.033   8.289  0.6236  0.6784  0.1214
   99MOL0     C12972  -2.950   6.953   8.382 -0.5727 -0.3668 -0.8925
   99MOL0     C12973  -3.016   6.833   8.313  0.4906 -1.0195  0.0340
   99MOL0     C12974  -3.149   6.792   8.376 -0.4213  0.4202  0.0787
   99MOL0     C12975  -3.135   6.751   8.523  0.0772  0.0621 -0.5289
   99MOL0     C12976  -3.274   6.738   8.592 -0.0385 -0.6748 -0.1365
   99MOL0     C12977  -3.265   6.631   8.696  0.2737  0.6412 -0.3468
   99MOL0     C12978  -3.401   6.582   8.760  0.4769 -0.2164 -0.3716
   99MOL0     C12979  -3.371   6.514   8.892 -0.6433  1.2735  0.3313
   99MOL0    Cl12980  -3.238   6.400   8.899 -0.0813 -0.1014 -0.4608
   99MOL0     C12981  -2.659   7.114   8.284  0.2052  0.2310  0.0901
   99MOL0     C12982  -2.521   7.108   8.267 -0.8544 -0.2838  0.5480
   99MOL0     O12983  -2.240   7.163   8.223  0.5168  1.1916 -0.5489
   99MOL0     C12984  -2.088   6.845   8.287  0.3552 -0.2031  0.6584
   99MOL0     C12985  -1.964   6.791   8.314 -0.2491  0.2229  0.2375
   99MOL0     N12986  -1.343   6.801   8.729  0.1139  0.5755  0.1048
   99MOL0     N12987  -1.255   6.847   8.812  0.2881  1.1896  0.5985
   99MOL0     C12988  -0.066   7.052   8.800 -0.4037 -0.1449 -0.7687
   99MOL0     C12989   0.073   7.080   8.806 -0.3628 -0.0438  0.6882
   99MOL0     C12990   0.498   7.182   8.729 -0.7102 -0.2162  0.4236
   99MOL0     C12991   0.573   7.058   8.736  0.1253 -0.1359  0.2037
   99MOL0     C12992   0.712   7.043   8.708  0.0106 -0.4890  0.1740
   99MOL0     C12993   0.776   7.166   8.683  0.5196  0.3209  0.6831
   99MOL0     O12994   0.911   7.180   8.667 -0.0260  0.3641 -0.0280
   99MOL0     C12995   0.990   7.054   8.660  0.3634 -0.2294  0.3134
   99MOL0     C12996   1.141   7.094   8.667  0.4383 -0.0120  0.0255
   99MOL0     C12997   1.176   7.171   8.796  1.5352  0.2672 -0.5355
   99MOL0     C12998   1.189   7.076   8.924 -0.2922 -0.0244  0.3882
   99MOL0     C12999   1.287   6.965   8.900  0.2209  0.8326  0.9295
   99MOL0     C13000   1.372   6.882   8.894  0.5920  0.2125  1.2859
   99MOL0     C13001   0.709   7.290   8.674  0.7153 -0.0828 -0.8513
   99MOL0     C13002   0.571   7.300   8.691  0.1828 -0.3513  0.1567
   99MOL0     H13003   0.175   6.938   8.526  1.3538  2.3731  0.9421
   99MOL0     H13004  -0.066   6.918   8.483 -1.6854 -0.4088  0.3633
   99MOL0     H13005  -0.443   7.040   8.675 -1.7699  0.3135  2.6808
   99MOL0     H13006  -0.322   7.097   8.789 -2.6692  2.6945 -2.7607
   99MOL0     H13007  -0.335   6.853   8.886 -1.8399 -2.3749  1.6952
   99MOL0     H13008  -0.468   6.825   8.796 -1.5112 -1.1413  3.9838
   99MOL0     H13009  -0.575   7.060   8.893  0.0284 -1.7688 -4.7548
   99MOL0     H13010  -0.438   7.034   9.003  1.6111 -1.2447 -1.3160
   99MOL0     H13011  -0.519   6.799   9.070 -0.7406 -0.1250  0.1619
   99MOL0     H13012  -0.621   6.943   9.116  0.3943  0.8678 -0.8873
   99MOL0     H13013  -0.673   6.748   8.894 -0.8773  0.9518 -0.9331
   99MOL0     H13014  -0.740   6.914   8.891 -0.3977 -0.1795 -0.7068
   99MOL0     H13015  -0.865   6.874   9.088 -1.1925  0.8549 -2.5985
   99MOL0     H13016  -0.830   6.705   9.082 -0.8056 -0.9853 -0.7075
   99MOL0     H13017  -0.942   6.679   8.871 -1.3009 -0.4202 -0.3150
   99MOL0     H13018  -1.045   6.759   8.991  1.1937 -1.8986  0.5907
   99MOL0     H13019  -0.927   6.922   8.762  2.1105 -0.3608  1.6291
   99MOL0     H13020  -1.040   6.965   8.890 -1.0172 -1.6031  0.8495
   99MOL0     H13021  -1.056   6.831   8.556 -0.1431  2.9515  0.3873
   99MOL0     H13022  -1.353   6.616   8.485 -2.9887  1.6744 -0.0173
   99MOL0     H13023  -1.264   6.750   8.399  0.3114 -0.1305 -0.4437
   99MOL0     H13024  -1.474   6.792   8.349 -0.4427 -0.3059  0.6904
   99MOL0     H13025  -1.459   6.905   8.486 -2.2542  0.5322  4.4472
   99MOL0     H13026  -1.588   6.628   8.492 -0.6638  0.1669 -0.2559
   99MOL0     H13027  -1.567   6.737   8.626  1.3865  1.5375 -0.6601
   99MOL0     H13028  -1.745   6.876   8.544  1.1894  2.4902 -1.7973
   99MOL0     H13029  -1.789   6.705   8.515 -0.2399  0.0698 -0.4875
   99MOL0     H13030  -1.788   7.070   8.222  2.5926 -1.0300  1.1840
   99MOL0     H13031  -1.987   7.151   8.175 -1.8053 -0.4705 -1.2852
   99MOL0     H13032  -2.501   6.780   8.185 -0.3920 -0.3367  0.1476
   99MOL0     H13033  -2.744   6.797   8.227 -2.2650  1.5509  0.6938
   99MOL0     H13034  -3.032   7.011   8.423 -0.5650 -1.0257  0.0841
   99MOL0     H13035  -2.889   6.915   8.464 -1.7439 -2.7985 -1.0316
   99MOL0     H13036  -2.949   6.746   8.321  1.3479 -0.2681  1.2512
   99MOL0     H13037  -3.036   6.858   8.208 -1.8698  1.2465  0.9222
   99MOL0     H13038  -3.185   6.702   8.325  3.5779 -2.6047  1.9908
   99MOL0     H13039  -3.220   6.874   8.365  1.1241  1.5166 -2.7190
   99MOL0     H13040  -3.066   6.671   8.550  0.7510  0.1235 -1.9973
   99MOL0     H13041  -3.081   6.831   8.576 -0.0249 -0.6479  0.6704
   99MOL0     H13042  -3.342   6.717   8.508 -0.5822 -0.4295  0.2415
   99MOL0     H13043  -3.313   6.832   8.631 -0.3827 -1.2770  1.0149
   99MOL0     H13044  -3.196   6.659   8.776  1.2961 -3.1766  0.3235
   99MOL0     H13045  -3.229   6.548   8.634 -2.2242  0.8079 -2.1708
   99MOL0     H13046  -3.464   6.669   8.783  0.5568  0.6123 -2.9299
   99MOL0     H13047  -3.454   6.512   8.696  0.0897  0.1920 -0.5019
   99MOL0     H13048  -3.465   6.470   8.927 -0.1184  1.1756  1.6868
   99MOL0     H13049  -3.334   6.600   8.950  0.2887  2.3959 -1.8198
   99MOL0     H13050  -2.707   7.211   8.293 -0.2411  0.1760 -1.3932
   99MOL0     H13051  -2.467   7.202   8.273 -2.6316  0.7916  0.5003
   99MOL0     H13052  -2.175   6.782   8.300  1.1016 -1.6203 -0.7694
   99MOL0     H13053  -1.961   6.691   8.356  0.9442 -0.1387 -0.6398
   99MOL0     H13054  -0.124   7.092   8.882 -1.6487 -3.0480 -0.1064
   99MOL0     H13055   0.120   7.142   8.881 -0.2732  2.1586 -1.1040
   99MOL0     H13056   0.516   6.969   8.758 -0.0222 -0.4854 -1.5049
   99MOL0     H13057   0.769   6.951   8.721  1.5495  0.6932  2.8916
   99MOL0     H13058   0.970   6.992   8.572  0.0065 -0.0994  0.2997
   99MOL0     H13059   0.969   6.985   8.743 -0.8996  1.5508  1.5456
   99MOL0     H13060   1.205   7.005   8.672  3.2949  1.8990 -0.3177
   99MOL0     H13061   1.164   7.146   8.574 -2.4934  0.9685 -0.2483
   99MOL0     H13062   1.099   7.247   8.809  1.8507  0.5232 -0.1261
   99MOL0     H13063   1.272   7.221   8.779  1.4340  0.8640  0.6000
   99MOL0     H13064   1.205   7.141   9.010 -4.3554  0.6567  0.7982
   99MOL0     H13065   1.090   7.033   8.937 -0.6272  0.1346 -1.3020
   99MOL0     H13066   1.453   6.813   8.895  0.6433  0.2399 -0.1184
   99MOL0     H13067   0.760   7.383   8.653 -0.6639  1.1411  0.8348
   99MOL0     H13068   0.507   7.388   8.691 -0.8512 -1.0410  2.0549
  100MOL0     O13069   5.648  10.678   5.864 -0.6360 -0.0505  0.0557
  100MOL0     C13070   5.663  10.588   5.940  0.0091 -0.0724 -1.0198
  100MOL0     O13071   5.562  10.506   5.990 -0.1602 -0.1621  0.3346
  100MOL0     C13072   5.440  10.506   5.927  0.8713 -0.8551 -0.2026
  100MOL0     C13073   5.373  10.623   5.900  0.4055  0.1363  0.0881
  100MOL0     C13074   5.254  10.616   5.825 -0.1351  0.2873 -0.0270
  100MOL0     C13075   5.196  10.497   5.774  0.4182  0.2441  0.1404
  100MOL0     O13076   5.082  10.484   5.688 -0.3336  0.2620  0.1651
  100MOL0     C13077   5.056  10.591   5.591  0.2037 -0.2431  0.3708
  100MOL0     C13078   5.145  10.600   5.460  0.2318  0.2284  0.0738
  100MOL0     C13079   5.294  10.576   5.488 -0.2301 -0.5520 -1.7407
  100MOL0     C13080   5.372  10.572   5.365  0.0274  0.9185 -0.4226
  100MOL0     C13081   5.487  10.471   5.392 -0.4055 -0.6359  0.5964
  100MOL0     C13082   5.598  10.525   5.482  0.5142  0.2062 -0.3533
  100MOL0     C13083   5.730  10.436   5.494  0.6256 -0.6520 -0.4574
  100MOL0     C13084   5.720  10.305   5.561  0.7202 -0.0818 -0.1673
  100MOL0     N13085   5.852  10.237   5.577 -0.0313 -0.3153 -0.6976
  100MOL0     C13086   5.955  10.271   5.656  0.0158  0.9088 -0.6981
  100MOL0     C13087   6.061  10.189   5.631  0.1887 -0.6460  0.8872
  100MOL0     C13088   6.200  10.169   5.698  0.0648 -0.6532 -0.2033
  100MOL0     C13089   6.311  10.179   5.602  0.1123 -0.5216 -0.2483
  100MOL0     C13090   6.444  10.111   5.635 -0.4110  0.8188  0.4930
  100MOL0     C13091   6.501  10.144   5.769 -0.3241  0.0725 -0.3479
  100MOL0     O13092   6.600  10.042   5.795  0.5178 -0.1622 -0.5344
  100MOL0     C13093   6.730  10.062   5.762 -1.1956  0.4352 -0.2353
  100MOL0     C13094   6.778  10.150   5.673 -0.5477 -0.0797  0.3182
  100MOL0     C13095   6.917  10.163   5.663  1.0922 -0.0911 -0.3231
  100MOL0     C13096   7.005  10.074   5.725 -0.4066 -0.6956 -0.2413
  100MOL0     C13097   7.148  10.068   5.693 -0.4112  0.8217  0.5599
  100MOL0     O13098   7.234   9.974   5.750  0.7036 -0.0731 -0.2272
  100MOL0     C13099   7.365   9.965   5.718 -0.7027 -0.2102  0.8286
  100MOL0     C13100   7.461  10.074   5.719  0.6274 -0.4242  0.0830
  100MOL0     C13101   7.598  10.051   5.719  0.1392  0.2745 -0.9567
  100MOL0     C13102   7.649   9.918   5.716  0.0681 -0.3741 -0.0279
  100MOL0     O13103   7.785   9.911   5.697  0.4950  0.5840  0.4769
  100MOL0     C13104   7.854   9.788   5.699  0.7235  0.3883 -0.6217
  100MOL0     C13105   8.000   9.814   5.666 -0.4995 -1.2132  0.7751
  100MOL0     C13106   8.022   9.832   5.513  0.5736 -0.7786  1.1955
  100MOL0     C13107   8.170   9.841   5.484 -0.2503 -0.4345  0.2158
  100MOL0     C13108   8.189   9.873   5.337  0.0345 -1.4450 -0.1479
  100MOL0     C13109   8.337   9.858   5.303 -0.4873 -0.6892 -0.1003
  100MOL0     C13110   8.397   9.957   5.188  0.0123 -0.0980  0.4895
  100MOL0     C13111   8.549   9.995   5.197 -0.1301  0.4090  0.1943
  100MOL0    Cl13112   8.657   9.849   5.212 -0.1332  0.0669  0.5269
  100MOL0     C13113   7.558   9.814   5.715  0.5884  0.2551  0.5638
  100MOL0     C13114   7.423   9.842   5.726  0.0571 -0.0811 -0.5387
  100MOL0     O13115   7.185  10.135   5.594  0.3923  0.1174 -0.1779
  100MOL0     C13116   6.956   9.975   5.811 -0.1998 -0.6567  0.3517
  100MOL0     C13117   6.823   9.978   5.826  0.7023 -0.6007 -1.2670
  100MOL0     N13118   6.010  10.101   5.536  0.0426  0.1374  0.4632
  100MOL0     N13119   5.885  10.130   5.503 -0.2363 -1.1065  0.2415
  100MOL0     C13120   5.267  10.379   5.809  0.5872 -0.2324 -0.0252
  100MOL0     C13121   5.387  10.388   5.886  0.5590  0.8288  0.9319
  100MOL0     C13122   5.790  10.545   5.984  0.0802  0.6455  0.1562
  100MOL0     C13123   5.900  10.609   5.928 -0.7480  0.1880 -0.2598
  100MOL0     C13124   6.032  10.579   5.960 -0.2860 -1.6218  1.3241
  100MOL0     C13125   6.059  10.484   6.048 -0.1763  0.4874  0.1500
  100MOL0     O13126   6.184  10.459   6.074  0.2072  0.4331  0.7086
  100MOL0     C13127   6.229  10.349   6.150 -0.3691 -0.3103  0.7073
  100MOL0     C13128   6.379  10.323   6.113  0.0612 -0.3725  0.9858
  100MOL0     C13129   6.432  10.204   6.196  0.2675  0.1171  0.1199
  100MOL0     C13130   6.583  10.183   6.168  0.3555 -0.7133  0.0614
  100MOL0     C13131   6.641  10.068   6.255  0.2885 -0.6828  0.5876
  100MOL0     C13132   6.693   9.982   6.327  0.7863  0.5476  0.0489
  100MOL0     C13133   5.949  10.411   6.106 -0.6573  0.4377  0.4747
  100MOL0     C13134   5.813  10.436   6.072  0.2650  0.8423 -0.1051
  100MOL0     H13135   5.395  10.722   5.939  1.3149  0.0302 -0.1124
  100MOL0     H13136   5.197  10.704   5.797  1.6252  0.8814 -1.9769
  100MOL0     H13137   5.046  10.690   5.637 -2.4439  0.5041 -1.5477
  100MOL0     H13138   4.951  10.577   5.564  0.4958 -1.9317  0.0261
  100MOL0     H13139   5.119  10.693   5.409 -0.4896 -0.4060 -0.7536
  100MOL0     H13140   5.110  10.526   5.387 -2.5992 -0.1795  1.6624
  100MOL0     H13141   5.295  10.482   5.544 -1.9463  0.0113 -0.6918
  100MOL0     H13142   5.335  10.664   5.537  0.4396 -0.6246 -2.1557
  100MOL0     H13143   5.317  10.545   5.274  0.8421 -2.4973 -0.0116
  100MOL0     H13144   5.409  10.673   5.343 -0.1559  0.6994 -1.8222
  100MOL0     H13145   5.531  10.436   5.298  0.8644 -4.4969  2.4014
  100MOL0     H13146   5.442  10.376   5.423 -2.3349  0.7783  2.4319
  100MOL0     H13147   5.551  10.549   5.578  0.6270 -0.4411 -0.1286
  100MOL0     H13148   5.631  10.616   5.432  0.2257  0.6032  0.1775
  100MOL0     H13149   5.753  10.425   5.388  1.9101  1.6852 -0.4995
  100MOL0     H13150   5.806  10.492   5.550  0.0053  1.2808 -1.4705
  100MOL0     H13151   5.667  10.241   5.491 -0.4205  0.0015  0.5803
  100MOL0     H13152   5.666  10.324   5.655 -1.3050 -0.4204 -1.2094
  100MOL0     H13153   5.947  10.344   5.736  0.2583 -1.3056  1.4824
  100MOL0     H13154   6.196  10.070   5.744 -1.4277  0.1535  1.5002
  100MOL0     H13155   6.210  10.230   5.788  0.3715  0.4034 -0.9287
  100MOL0     H13156   6.335  10.285   5.583  0.7588 -0.2000  2.0400
  100MOL0     H13157   6.274  10.152   5.503 -1.7722  1.0945 -0.0465
  100MOL0     H13158   6.431  10.003   5.630 -1.5067  0.9654 -0.3589
  100MOL0     H13159   6.515  10.132   5.554 -1.3802 -0.8548 -0.8622
  100MOL0     H13160   6.430  10.134   5.851  0.6376 -1.3542  0.3677
  100MOL0     H13161   6.542  10.246   5.773 -0.7737  0.2782  4.4531
  100MOL0     H13162   6.712  10.219   5.622 -0.1058  0.9517  1.1138
  100MOL0     H13163   6.965  10.239   5.601  2.5793  0.6191  1.5969
  100MOL0     H13164   7.416  10.172   5.707  3.1987  0.5827 -2.1567
  100MOL0     H13165   7.675  10.128   5.718  1.7975 -1.1734 -5.1118
  100MOL0     H13166   7.814   9.707   5.637  1.5277  0.4687 -1.2681
  100MOL0     H13167   7.835   9.752   5.801 -3.9657  0.9436 -1.1143
  100MOL0     H13168   8.054   9.723   5.695  1.2344  0.5134  3.4346
  100MOL0     H13169   8.045   9.900   5.716 -1.9234  1.0868 -1.6350
  100MOL0     H13170   7.976   9.924   5.476 -0.5914 -0.9455  2.1533
  100MOL0     H13171   7.971   9.746   5.469  0.7375 -0.0418 -0.4766
  100MOL0     H13172   8.211   9.922   5.544 -1.4557  1.1432 -1.0088
  100MOL0     H13173   8.223   9.749   5.513  1.8468  0.5989 -0.1627
  100MOL0     H13174   8.158   9.978   5.329  1.0143 -1.0171  1.3670
  100MOL0     H13175   8.127   9.812   5.271  0.1315 -1.7750  0.0664
  100MOL0     H13176   8.348   9.757   5.262  0.1182  0.0079 -1.7349
  100MOL0     H13177   8.403   9.871   5.389 -0.2838  1.3682 -0.5176
  100MOL0     H13178   8.372   9.914   5.091 -1.4203  0.6447  0.4965
  100MOL0     H13179   8.338  10.048   5.204  1.8166  0.8953  2.0188
  100MOL0     H13180   8.560  10.057   5.287  1.2988  2.7990 -1.5100
  100MOL0     H13181   8.587  10.058   5.116 -2.6241  1.7810 -0.0117
  100MOL0     H13182   7.602   9.715   5.711 -0.2480 -0.0888 -0.3516
  100MOL0     H13183   7.357   9.760   5.753  0.1499  0.0476  0.0874
  100MOL0     H13184   7.020   9.904   5.862 -2.0843 -1.0932  2.2517
  100MOL0     H13185   6.792   9.905   5.900  1.9654  1.5925  1.6037
  100MOL0     H13186   5.239  10.280   5.773  0.5178 -0.7931  1.4998
  100MOL0     H13187   5.435  10.296   5.916 -0.3581 -0.3508 -1.0515
  100MOL0     H13188   5.883  10.687   5.855 -2.4487 -0.7503 -0.9230
  100MOL0     H13189   6.106  10.637   5.907 -1.4669 -1.1340  0.1329
  100MOL0     H13190   6.167  10.262   6.123 -3.0748  1.0399  2.1702
  100MOL0     H13191   6.206  10.357   6.256 -2.5152 -1.6006  0.4085
  100MOL0     H13192   6.387  10.299   6.006  1.3444 -0.2300  1.0269
  100MOL0     H13193   6.435  10.414   6.136 -0.3494 -0.6678  3.3078
  100MOL0     H13194   6.367  10.122   6.164  1.0799  0.2163 -1.9667
  100MOL0     H13195   6.417  10.216   6.303 -1.0009 -2.1468  0.2582
  100MOL0     H13196   6.593  10.163   6.060  0.7255  3.4557 -0.8213
  100MOL0     H13197   6.635  10.274   6.198 -0.7675 -0.3750  1.0267
  100MOL0     H13198   6.725   9.911   6.401  0.2892  1.6882  1.4007
  100MOL0     H13199   5.957  10.322   6.167 -1.9348 -0.8347 -1.1165
  100MOL0     H13200   5.728  10.383   6.113  0.9662  0.8918  1.4827
  101MOL0     O13201   5.267   6.985   9.154 -0.3570 -0.4361 -0.2613
  101MOL0     C13202   5.233   7.095   9.111 -0.7446 -0.1216 -0.7143
  101MOL0     O13203   5.298   7.165   9.016 -0.4173  0.1802  0.6118
  101MOL0     C13204   5.393   7.100   8.942  0.3626 -0.4291  0.0494
  101MOL0     C13205   5.358   7.058   8.817  0.0235 -0.1245 -0.1959
  101MOL0     C13206   5.455   6.987   8.734 -0.8545 -0.5195 -0.0220
  101MOL0     C13207   5.589   6.989   8.784  0.0964 -0.8955  0.5400
  101MOL0     O13208   5.686   6.939   8.702 -0.9241 -0.1089 -0.6676
  101MOL0     C13209   5.822   6.990   8.715  0.2352  0.1246  0.7702
  101MOL0     C13210   5.906   6.924   8.605 -0.2364 -0.0742 -0.1002
  101MOL0     C13211   6.040   6.992   8.596  0.4242  0.1274  0.1501
  101MOL0     C13212   6.115   6.912   8.488  0.3481  0.9984 -0.0393
  101MOL0     C13213   6.252   6.945   8.477 -0.6272 -0.6014  0.1944
  101MOL0     C13214   6.295   7.094   8.425  0.3296  1.3922 -0.2035
  101MOL0     C13215   6.434   7.092   8.371  0.7068  0.9173 -0.1769
  101MOL0     C13216   6.469   7.235   8.314 -0.2217  0.8878  0.2192
  101MOL0     N13217   6.607   7.241   8.263 -0.8155  0.3032 -0.2636
  101MOL0     C13218   6.679   7.361   8.259 -0.7462  0.2761  0.5487
  101MOL0     C13219   6.787   7.326   8.183 -0.8382  0.3748 -0.7995
  101MOL0     C13220   6.893   7.417   8.134 -0.4592 -0.6216  1.3039
  101MOL0     C13221   6.865   7.438   7.985 -0.5066 -0.2149  0.1128
  101MOL0     C13222   6.987   7.529   7.937 -0.4801  0.3972 -0.9429
  101MOL0     C13223   7.011   7.673   8.001  0.8557  0.9235  0.8465
  101MOL0     O13224   7.129   7.729   7.964  0.2169  0.4823 -0.6018
  101MOL0     C13225   7.252   7.693   8.013 -0.2046  0.5427  0.5426
  101MOL0     C13226   7.261   7.606   8.126  0.7085  0.1446  0.9240
  101MOL0     C13227   7.393   7.561   8.155  0.0677 -0.6892  0.1832
  101MOL0     C13228   7.504   7.615   8.087  0.0308 -0.7399 -0.8239
  101MOL0     C13229   7.644   7.575   8.121  0.4035 -0.8375  0.2693
  101MOL0     O13230   7.740   7.608   8.027  0.4529  0.2324  0.5101
  101MOL0     C13231   7.872   7.588   8.067  0.3488 -0.6436 -0.7858
  101MOL0     C13232   7.960   7.508   7.997  0.3314 -0.2822  0.2423
  101MOL0     C13233   8.091   7.494   8.033  0.3836 -0.5027 -0.0943
  101MOL0     C13234   8.143   7.560   8.139 -0.3628 -0.4135  0.1552
  101MOL0     O13235   8.274   7.563   8.163  0.6799 -0.8334  0.4355
  101MOL0     C13236   8.314   7.525   8.304 -0.2633  0.3808  1.4850
  101MOL0     C13237   8.464   7.492   8.316 -0.0178 -0.1987  0.5468
  101MOL0     C13238   8.556   7.610   8.304  0.2952 -0.0366  0.0676
  101MOL0     C13239   8.694   7.561   8.259  0.2179 -0.1175  0.8466
  101MOL0     C13240   8.797   7.669   8.263 -0.3707  0.0750  0.2299
  101MOL0     C13241   8.929   7.631   8.202 -0.5114  1.1237 -0.1101
  101MOL0     C13242   9.013   7.525   8.277  0.3223 -0.5495  0.7500
  101MOL0     C13243   9.158   7.521   8.235 -0.6001 -0.3600  0.1320
  101MOL0    Cl13244   9.240   7.651   8.318  0.0822  0.4320 -0.3182
  101MOL0     C13245   8.056   7.635   8.220  0.3451 -0.7553  0.5548
  101MOL0     C13246   7.918   7.651   8.180 -0.0869  0.7953 -0.5679
  101MOL0     O13247   7.664   7.514   8.225  0.4592 -0.0156 -0.5684
  101MOL0     C13248   7.484   7.712   7.983 -0.2463  0.3344 -0.4929
  101MOL0     C13249   7.357   7.745   7.947  0.7359 -0.4390 -0.5280
  101MOL0     N13250   6.778   7.196   8.147  0.0464  0.2254 -0.2877
  101MOL0     N13251   6.666   7.141   8.197 -1.1834 -0.9017  0.2910
  101MOL0     C13252   5.625   7.056   8.900 -0.2055  0.4711 -1.1536
  101MOL0     C13253   5.525   7.096   8.989  0.5624  0.0558  0.1936
  101MOL0     C13254   5.114   7.167   9.180  0.6023 -0.2320  0.0477
  101MOL0     C13255   5.059   7.289   9.132  0.3692  0.3185 -0.3951
  101MOL0     C13256   4.955   7.351   9.194  0.6586 -0.2665 -0.2210
  101MOL0     C13257   4.906   7.296   9.319 -0.3389 -0.8726  1.1665
  101MOL0     O13258   4.837   7.370   9.408 -0.2815 -0.1341  0.4402
  101MOL0     C13259   4.785   7.497   9.382 -0.8081 -0.0018 -0.6314
  101MOL0     C13260   4.863   7.600   9.475 -0.2468 -0.4988 -0.7799
  101MOL0     C13261   4.803   7.603   9.616 -0.1636  0.4016 -0.1315
  101MOL0     C13262   4.870   7.702   9.709  0.0709  0.5594  0.2772
  101MOL0     C13263   4.820   7.701   9.846 -0.4750 -0.0957 -0.1829
  101MOL0     C13264   4.789   7.703   9.960  0.1844  0.4283 -0.4626
  101MOL0     C13265   4.945   7.166   9.358 -0.5540  0.3777 -0.5099
  101MOL0     C13266   5.045   7.097   9.281  0.4348  0.3034  0.0022
  101MOL0     H13267   5.259   7.064   8.772 -0.3604  2.2885  0.8033
  101MOL0     H13268   5.438   6.935   8.640 -0.7449  0.2654 -0.4805
  101MOL0     H13269   5.873   6.974   8.811 -1.8208  1.0959  2.0956
  101MOL0     H13270   5.823   7.096   8.686  0.1512  0.4564  1.9117
  101MOL0     H13271   5.854   6.934   8.509  2.2842  3.6278 -1.3203
  101MOL0     H13272   5.922   6.820   8.635  1.0898  0.4897  1.2871
  101MOL0     H13273   6.095   6.986   8.691 -3.2187 -0.4831  2.4546
  101MOL0     H13274   6.022   7.095   8.562 -1.5059 -0.8071 -1.8689
  101MOL0     H13275   6.103   6.809   8.524  1.0855 -0.4340 -3.4621
  101MOL0     H13276   6.058   6.912   8.394  0.5469 -2.4339 -0.3047
  101MOL0     H13277   6.298   6.870   8.413 -2.5221 -1.4530 -0.2337
  101MOL0     H13278   6.305   6.922   8.570 -1.6310 -0.0100  0.9412
  101MOL0     H13279   6.293   7.163   8.510  0.3102  1.3235 -0.1484
  101MOL0     H13280   6.216   7.129   8.357 -0.1440 -0.1214 -0.4661
  101MOL0     H13281   6.505   7.066   8.450 -0.6067  3.0104  1.8188
  101MOL0     H13282   6.436   7.033   8.279  1.5211  0.3811  0.1803
  101MOL0     H13283   6.461   7.315   8.388  2.0645  0.4045  1.0739
  101MOL0     H13284   6.402   7.254   8.230 -1.4286  0.5413  1.0832
  101MOL0     H13285   6.670   7.454   8.314  0.0277 -0.6539  2.3283
  101MOL0     H13286   6.987   7.365   8.158 -1.5660 -3.0703  0.7009
  101MOL0     H13287   6.893   7.508   8.195  0.2284  0.1913  0.1232
  101MOL0     H13288   6.772   7.490   7.962  0.4824  0.6173 -2.4041
  101MOL0     H13289   6.867   7.340   7.936  0.1873 -0.0478 -0.2101
  101MOL0     H13290   7.082   7.475   7.936  0.8736  2.5602  0.4983
  101MOL0     H13291   6.969   7.546   7.831 -0.7619 -0.7785 -1.0965
  101MOL0     H13292   6.984   7.687   8.107 -3.9717  0.0389 -0.0095
  101MOL0     H13293   6.933   7.736   7.956 -1.3366 -1.6449  0.7943
  101MOL0     H13294   7.178   7.576   8.190  0.7774  0.6608  1.2593
  101MOL0     H13295   7.401   7.510   8.250 -7.3745  1.2352  2.5121
  101MOL0     H13296   7.926   7.455   7.908 -0.2920  1.1406 -0.3957
  101MOL0     H13297   8.146   7.427   7.967  0.8759  0.5451 -0.7664
  101MOL0     H13298   8.269   7.426   8.321  0.0683  0.2742  1.7716
  101MOL0     H13299   8.283   7.599   8.378  1.1993  2.5928  0.0242
  101MOL0     H13300   8.475   7.432   8.225 -1.9009 -0.2436  0.3013
  101MOL0     H13301   8.483   7.447   8.414 -0.6256  0.1385  0.8316
  101MOL0     H13302   8.568   7.648   8.406  0.8829 -1.7753  0.6926
  101MOL0     H13303   8.527   7.693   8.239 -0.4452  0.8874  1.5210
  101MOL0     H13304   8.725   7.471   8.313 -1.9476 -0.1739  2.1056
  101MOL0     H13305   8.687   7.537   8.153  2.4408 -0.5551  0.7544
  101MOL0     H13306   8.817   7.694   8.368 -1.9705  1.2485  0.2894
  101MOL0     H13307   8.760   7.755   8.206  2.0690 -0.0839 -1.7976
  101MOL0     H13308   8.996   7.717   8.192  4.0334 -1.8574  1.2496
  101MOL0     H13309   8.914   7.591   8.101  1.6011 -0.0046 -0.0330
  101MOL0     H13310   9.009   7.544   8.385  0.6317  0.5485  0.5742
  101MOL0     H13311   8.974   7.423   8.266 -3.7024  0.9089 -0.1201
  101MOL0     H13312   9.167   7.520   8.126 -2.6123 -0.3449 -0.0748
  101MOL0     H13313   9.204   7.429   8.271 -2.1279  0.0244  3.3625
  101MOL0     H13314   8.098   7.694   8.301  1.8902  0.1405 -0.8229
  101MOL0     H13315   7.849   7.711   8.238  0.6679 -0.1936  1.4724
  101MOL0     H13316   7.571   7.764   7.944  2.8854 -0.7046  4.2674
  101MOL0     H13317   7.349   7.797   7.852 -0.5752 -0.8113 -0.6414
  101MOL0     H13318   5.723   7.059   8.947 -1.8196  2.1201  2.5943
  101MOL0     H13319   5.552   7.129   9.088 -0.4923 -0.6557  0.7342
  101MOL0     H13320   5.098   7.339   9.043 -0.3654  1.0050 -0.3507
  101MOL0     H13321   4.923   7.446   9.154 -1.4448 -1.2821 -1.1502
  101MOL0     H13322   4.684   7.498   9.423 -0.5592  1.5769  0.0418
  101MOL0     H13323   4.773   7.520   9.276 -0.9413 -1.9900 -1.0722
  101MOL0     H13324   4.971   7.585   9.462  0.1014  0.7726  0.3712
  101MOL0     H13325   4.841   7.701   9.441  0.8094 -1.1633 -3.7472
  101MOL0     H13326   4.825   7.500   9.644  1.7723  0.2141 -2.0427
  101MOL0     H13327   4.696   7.628   9.610  0.0369  2.3491  2.6344
  101MOL0     H13328   4.978   7.684   9.708 -0.2275 -1.4168 -0.0731
  101MOL0     H13329   4.850   7.803   9.672  2.9653  1.4403  0.8769
  101MOL0     H13330   4.749   7.700  10.059  2.3754  1.6674  0.5454
  101MOL0     H13331   4.892   7.121   9.441  1.3959 -0.3222  0.4104
  101MOL0     H13332   5.064   6.994   9.309 -2.6286 -1.6321 -4.0076
  102MOL0     O13333   1.506   7.873  11.298 -0.5578 -0.6682 -0.2018
  102MOL0     C13334   1.518   7.951  11.202 -0.6495  0.4232 -0.5465
  102MOL0     O13335   1.424   8.019  11.151  0.0552 -0.7790  0.0525
  102MOL0     C13336   1.303   8.027  11.213  0.3440  0.3853 -0.2816
  102MOL0     C13337   1.253   8.151  11.232  0.1509 -0.1821 -0.5032
  102MOL0     C13338   1.122   8.174  11.278  0.0561 -0.5038 -0.3156
  102MOL0     C13339   1.044   8.070  11.317  0.6608  1.0685  0.6240
  102MOL0     O13340   0.917   8.094  11.352  0.5685 -0.3424  0.1877
  102MOL0     C13341   0.807   7.997  11.364  0.1092  0.1944 -0.0274
  102MOL0     C13342   0.697   8.087  11.422 -0.2653 -0.0320 -0.1138
  102MOL0     C13343   0.565   8.018  11.457  0.5887 -0.2324  0.1216
  102MOL0     C13344   0.574   7.892  11.548  0.8270 -0.3048  0.8175
  102MOL0     C13345   0.430   7.837  11.579  0.1698  0.0614 -0.4325
  102MOL0     C13346   0.430   7.713  11.658 -0.0382  0.1227  0.8180
  102MOL0     C13347   0.311   7.627  11.626 -0.8244  0.3135 -0.1902
  102MOL0     C13348   0.173   7.694  11.630  0.4982 -0.2470  0.2275
  102MOL0     N13349   0.114   7.729  11.760 -0.1411 -1.0672 -0.7324
  102MOL0     C13350   0.009   7.815  11.782  0.2802 -0.0289 -0.6820
  102MOL0     C13351   0.015   7.844  11.919 -0.5322 -0.1468  0.4387
  102MOL0     C13352  -0.091   7.918  11.988 -0.0802 -0.7714  0.0000
  102MOL0     C13353  -0.228   7.864  11.954  1.4408 -0.3921 -1.2173
  102MOL0     C13354  -0.350   7.941  12.023  0.2881  0.1446 -0.0119
  102MOL0     C13355  -0.482   7.872  12.016 -0.0556  0.4889 -0.8276
  102MOL0     O13356  -0.528   7.855  11.879 -0.5932  0.0754  0.3460
  102MOL0     C13357  -0.647   7.784  11.863  1.3417  0.3197  0.1181
  102MOL0     C13358  -0.715   7.728  11.968 -0.8965 -0.0761  0.0809
  102MOL0     C13359  -0.852   7.697  11.956 -0.3255 -0.3955  0.0807
  102MOL0     C13360  -0.913   7.700  11.833  0.2528 -0.4295 -0.1591
  102MOL0     C13361  -1.059   7.664  11.815  0.3771  0.2027 -0.6125
  102MOL0     O13362  -1.136   7.640  11.925  0.0396 -0.0718  0.1947
  102MOL0     C13363  -1.260   7.595  11.911 -0.6180  0.0019 -0.0412
  102MOL0     C13364  -1.362   7.687  11.887  0.0187  0.4042  0.2256
  102MOL0     C13365  -1.493   7.640  11.862  0.3080 -0.2024 -0.4239
  102MOL0     C13366  -1.518   7.499  11.874 -0.4525 -0.3295  0.2591
  102MOL0     O13367  -1.643   7.458  11.851  0.4351 -0.4145 -0.4095
  102MOL0     C13368  -1.697   7.332  11.916 -0.0634  0.2919  0.2418
  102MOL0     C13369  -1.845   7.303  11.884  0.5839  0.0794  1.0838
  102MOL0     C13370  -1.890   7.159  11.910  0.1569  0.3572  0.1413
  102MOL0     C13371  -2.045   7.138  11.901 -0.2231  0.0815 -0.2871
  102MOL0     C13372  -2.089   6.996  11.924  0.1799  0.0389  0.2334
  102MOL0     C13373  -2.015   6.901  11.821 -0.3491 -0.5063  0.0216
  102MOL0     C13374  -2.039   6.761  11.870 -0.4668  0.0069  0.1401
  102MOL0     C13375  -1.966   6.654  11.785 -0.3369 -0.0284 -0.7042
  102MOL0    Cl13376  -1.974   6.496  11.869 -0.7873 -0.0333 -0.4618
  102MOL0     C13377  -1.412   7.416  11.901 -0.4096 -0.1817 -0.9070
  102MOL0     C13378  -1.279   7.458  11.909 -0.2067 -0.5845 -0.0726
  102MOL0     O13379  -1.098   7.653  11.698 -0.6274 -0.0195 -0.5203
  102MOL0     C13380  -0.836   7.746  11.722 -0.7497 -0.2658  0.4757
  102MOL0     C13381  -0.709   7.786  11.739 -0.4664  0.0268  0.5111
  102MOL0     N13382   0.128   7.778  11.967  0.9416  0.0801 -0.0557
  102MOL0     N13383   0.178   7.713  11.876  0.2711  0.6522 -0.5158
  102MOL0     C13384   1.096   7.942  11.302  0.4641  0.7301 -0.0295
  102MOL0     C13385   1.221   7.918  11.245 -0.3419  1.3859  0.2934
  102MOL0     C13386   1.651   7.951  11.147 -0.1101 -0.3140 -0.0440
  102MOL0     C13387   1.684   8.027  11.035 -0.3066  0.1951  0.1876
  102MOL0     C13388   1.808   8.038  10.984 -0.8982  0.8741 -1.4304
  102MOL0     C13389   1.924   7.977  11.055  0.3213  0.2412  0.2564
  102MOL0     O13390   2.056   7.981  11.031  0.1053  0.5322  0.0740
  102MOL0     C13391   2.106   8.086  10.948  0.1661 -0.0885  0.1308
  102MOL0     C13392   2.252   8.072  10.919 -0.6512 -0.5553  0.4597
  102MOL0     C13393   2.301   8.195  10.829  0.4408 -0.7780 -0.6466
  102MOL0     C13394   2.453   8.208  10.849 -0.0115 -0.1626  0.9312
  102MOL0     C13395   2.522   8.087  10.807 -0.6500  0.8841  0.1790
  102MOL0     C13396   2.599   7.990  10.786  0.6959  1.8806  0.1097
  102MOL0     C13397   1.889   7.892  11.158 -0.6730 -0.3596 -0.3377
  102MOL0     C13398   1.766   7.881  11.213  0.2481  0.0308  0.0752
  102MOL0     H13399   1.308   8.241  11.209 -1.4865  1.0865  0.2995
  102MOL0     H13400   1.085   8.275  11.288 -1.5584 -0.9262 -1.5876
  102MOL0     H13401   0.835   7.910  11.424 -0.3634 -1.6559 -2.3560
  102MOL0     H13402   0.781   7.956  11.266  0.8851 -1.3607  0.3833
  102MOL0     H13403   0.675   8.177  11.364  2.1680  1.5958  1.3143
  102MOL0     H13404   0.735   8.125  11.517 -0.7020 -0.0517  0.0728
  102MOL0     H13405   0.514   7.992  11.364  1.7549 -0.7958 -0.3706
  102MOL0     H13406   0.497   8.087  11.509  0.6610 -0.2394  0.2238
  102MOL0     H13407   0.627   7.807  11.503  3.9076  2.4921 -1.3259
  102MOL0     H13408   0.620   7.934  11.638  0.6571 -0.8446  1.1654
  102MOL0     H13409   0.369   7.814  11.491 -2.8276 -1.4521  1.8595
  102MOL0     H13410   0.373   7.917  11.627 -0.7386 -1.5147  1.2379
  102MOL0     H13411   0.443   7.722  11.766 -0.5440 -2.6174  1.1744
  102MOL0     H13412   0.518   7.656  11.629 -1.7742 -1.5004 -1.6580
  102MOL0     H13413   0.322   7.592  11.523 -2.5189 -0.8730 -0.0076
  102MOL0     H13414   0.308   7.541  11.694 -1.1069 -0.3853 -1.0738
  102MOL0     H13415   0.104   7.619  11.590  0.2805  0.4698 -0.7693
  102MOL0     H13416   0.167   7.778  11.560  1.4490 -2.7282 -3.0888
  102MOL0     H13417  -0.066   7.845  11.709 -1.8092 -1.6939  0.6383
  102MOL0     H13418  -0.093   8.016  11.941  0.8938 -0.9296 -0.4010
  102MOL0     H13419  -0.081   7.917  12.097  5.2385 -3.5671 -0.1486
  102MOL0     H13420  -0.237   7.755  11.954 -2.5187 -0.4362  3.2726
  102MOL0     H13421  -0.255   7.886  11.850 -0.7468 -0.9370 -0.8277
  102MOL0     H13422  -0.327   7.961  12.128 -0.0911 -1.1727  0.3454
  102MOL0     H13423  -0.362   8.033  11.965 -1.6366  0.3064  0.5741
  102MOL0     H13424  -0.555   7.936  12.066  3.3956  0.8784  4.5146
  102MOL0     H13425  -0.471   7.774  12.064  0.9349  2.0625  2.4060
  102MOL0     H13426  -0.678   7.721  12.070 -4.3875  0.8220  1.5907
  102MOL0     H13427  -0.906   7.679  12.048  1.6842 -1.3250  1.1655
  102MOL0     H13428  -1.350   7.795  11.891  0.6074  0.3836 -0.6717
  102MOL0     H13429  -1.575   7.707  11.840  1.0301  0.6374 -0.6296
  102MOL0     H13430  -1.672   7.334  12.023  1.0583  0.0350 -0.0088
  102MOL0     H13431  -1.643   7.245  11.879 -2.5415 -0.8343 -0.9904
  102MOL0     H13432  -1.869   7.319  11.778 -0.0711 -0.4547  1.1472
  102MOL0     H13433  -1.891   7.372  11.955 -0.2492  1.6422 -0.8761
  102MOL0     H13434  -1.850   7.131  12.008  2.1197  1.4131 -0.3141
  102MOL0     H13435  -1.840   7.105  11.829  2.2262 -1.7070  2.5915
  102MOL0     H13436  -2.089   7.192  11.985  1.5087  0.1587  0.6277
  102MOL0     H13437  -2.072   7.178  11.803  3.4133 -0.8971 -1.8603
  102MOL0     H13438  -2.196   6.985  11.907  0.4757  0.5429 -2.4154
  102MOL0     H13439  -2.064   6.962  12.025  3.7410 -0.9766 -0.8379
  102MOL0     H13440  -1.909   6.918  11.800 -0.4909 -2.5610 -2.9987
  102MOL0     H13441  -2.071   6.914  11.728 -1.3878  2.9083  0.9629
  102MOL0     H13442  -1.999   6.748  11.971  0.6307 -1.9890 -0.4968
  102MOL0     H13443  -2.146   6.740  11.885 -0.0254 -1.1229  2.2193
  102MOL0     H13444  -1.859   6.678  11.793 -0.5381  1.5527 -2.3433
  102MOL0     H13445  -1.993   6.652  11.680  3.0887 -1.1374 -1.7231
  102MOL0     H13446  -1.430   7.309  11.897 -1.3210 -0.2415  2.1554
  102MOL0     H13447  -1.196   7.396  11.940  0.9881  1.4191  0.8870
  102MOL0     H13448  -0.890   7.763  11.629  0.1064 -0.0399  0.0121
  102MOL0     H13449  -0.669   7.842  11.655 -0.9274  0.8949  0.8614
  102MOL0     H13450   1.029   7.858  11.313  0.9770  0.2848 -0.2751
  102MOL0     H13451   1.262   7.817  11.241 -0.3190  1.2872  2.0520
  102MOL0     H13452   1.602   8.064  10.973 -2.6808 -1.8205  1.9137
  102MOL0     H13453   1.829   8.091  10.892  1.3305 -0.6336 -1.8673
  102MOL0     H13454   2.083   8.184  10.991 -2.0540 -0.8446  0.8375
  102MOL0     H13455   2.045   8.100  10.858  0.9203  2.2185 -0.0672
  102MOL0     H13456   2.308   8.066  11.013  0.6196 -0.4619 -0.2620
  102MOL0     H13457   2.265   7.979  10.863 -2.9094 -1.7409  1.7379
  102MOL0     H13458   2.260   8.292  10.857 -1.0916 -1.5737  0.0147
  102MOL0     H13459   2.264   8.175  10.728 -0.5081  2.3950 -1.0247
  102MOL0     H13460   2.486   8.294  10.790  1.9458 -1.2272  0.3894
  102MOL0     H13461   2.471   8.217  10.957  0.9875  4.4527  0.5670
  102MOL0     H13462   2.665   7.909  10.766 -0.7871  0.7518 -0.4414
  102MOL0     H13463   1.968   7.839  11.210 -0.7017 -1.0881 -1.0230
  102MOL0     H13464   1.755   7.816  11.299 -1.1185  0.2174  0.0635
  103MOL0     O13465  11.055   6.913   9.241  0.6269 -0.1154  0.4768
  103MOL0     C13466  11.109   6.950   9.345 -0.2367 -0.3990 -0.1404
  103MOL0     O13467  11.059   7.026   9.447 -0.1635  0.0187  1.1035
  103MOL0     C13468  10.916   7.046   9.442 -0.8497  0.1366  0.7336
  103MOL0     C13469  10.834   6.979   9.530  1.1692 -0.1219 -0.0896
  103MOL0     C13470  10.695   7.008   9.535 -0.2218 -0.7955  0.2568
  103MOL0     C13471  10.631   7.095   9.446 -0.5761 -0.5495  0.3954
  103MOL0     O13472  10.499   7.137   9.459  0.4367  0.5668 -0.4775
  103MOL0     C13473  10.499   7.279   9.494  0.1182  0.1065 -0.4673
  103MOL0     C13474  10.357   7.315   9.549  0.1192  0.0439  0.0218
  103MOL0     C13475  10.228   7.259   9.475 -0.0275  0.1264 -0.2594
  103MOL0     C13476  10.113   7.345   9.526  0.9253  0.3389 -0.2440
  103MOL0     C13477   9.984   7.307   9.446  0.3852 -0.1434 -1.0436
  103MOL0     C13478   9.883   7.428   9.453 -0.6858 -0.0453 -0.1801
  103MOL0     C13479   9.741   7.378   9.417  0.2974  0.8716  0.4264
  103MOL0     C13480   9.647   7.492   9.388 -0.4962  0.6994 -0.2240
  103MOL0     N13481   9.510   7.437   9.344  0.1022 -1.5537 -0.6869
  103MOL0     C13482   9.494   7.345   9.243  0.1355  0.2078  0.2864
  103MOL0     C13483   9.361   7.345   9.230  0.3496 -0.1138 -0.5354
  103MOL0     C13484   9.274   7.267   9.136 -0.4208 -0.8667 -0.3936
  103MOL0     C13485   9.230   7.358   9.012  0.0099 -0.0891 -0.0460
  103MOL0     C13486   9.157   7.276   8.903  0.1224 -0.5785 -0.1002
  103MOL0     C13487   9.111   7.361   8.787 -0.2745 -0.6447 -0.0250
  103MOL0     O13488   9.028   7.279   8.699 -0.2245  0.2855  0.1631
  103MOL0     C13489   8.894   7.282   8.713 -0.2118 -0.6638  0.0468
  103MOL0     C13490   8.826   7.333   8.825 -0.3262  0.3345  0.9934
  103MOL0     C13491   8.689   7.310   8.839 -0.0585  0.0341  0.5562
  103MOL0     C13492   8.614   7.231   8.746  0.3686  0.1156 -0.6491
  103MOL0     C13493   8.467   7.206   8.775  0.5375 -0.1580  0.1431
  103MOL0     O13494   8.403   7.149   8.674  0.5003  0.2285  0.8644
  103MOL0     C13495   8.262   7.153   8.682 -1.2825  0.0550  0.1498
  103MOL0     C13496   8.193   7.060   8.759 -0.6223  0.0964 -0.7658
  103MOL0     C13497   8.050   7.068   8.759 -0.3641  0.0706 -1.3649
  103MOL0     C13498   7.991   7.174   8.703  0.2433 -0.0655 -0.0595
  103MOL0     O13499   7.860   7.174   8.704  0.4956  0.4945 -0.0123
  103MOL0     C13500   7.792   7.128   8.572  0.1598 -0.9664  0.4610
  103MOL0     C13501   7.677   7.224   8.526 -1.2280  0.3363 -0.6703
  103MOL0     C13502   7.558   7.161   8.454  0.1327 -0.4678  0.6793
  103MOL0     C13503   7.432   7.261   8.459  0.6628 -0.2200 -0.1787
  103MOL0     C13504   7.304   7.217   8.376 -0.7743  1.0123 -0.4031
  103MOL0     C13505   7.235   7.100   8.449  0.1852  0.0207  0.8285
  103MOL0     C13506   7.149   7.031   8.351  0.4160  0.8472 -0.2768
  103MOL0     C13507   7.058   6.921   8.416 -0.2702  0.3430  0.3878
  103MOL0    Cl13508   7.157   6.774   8.424 -0.2208 -0.2807  0.1500
  103MOL0     C13509   8.063   7.275   8.636  0.7352 -0.1860 -0.1146
  103MOL0     C13510   8.197   7.261   8.618 -1.1309  0.1154 -0.5887
  103MOL0     O13511   8.422   7.255   8.877 -0.0545  0.4532  0.2774
  103MOL0     C13512   8.682   7.184   8.633  0.7598 -0.2865 -0.2031
  103MOL0     C13513   8.819   7.212   8.608 -0.0489 -0.4782 -1.2556
  103MOL0     N13514   9.298   7.418   9.324  0.1093  0.4667 -0.7237
  103MOL0     N13515   9.391   7.478   9.395  0.4022 -0.5725  0.4270
  103MOL0     C13516  10.718   7.165   9.359 -0.2555  0.4800  0.4439
  103MOL0     C13517  10.854   7.126   9.350 -0.4191  0.5573  0.2462
  103MOL0     C13518  11.246   6.919   9.360 -0.1120  0.2846 -1.1501
  103MOL0     C13519  11.314   6.862   9.251  0.2237 -0.1056 -0.3651
  103MOL0     C13520  11.436   6.805   9.269  0.2911  0.7912  1.2201
  103MOL0     C13521  11.511   6.825   9.389 -0.1452  0.2993  0.1537
  103MOL0     O13522  11.640   6.775   9.389  0.0432 -0.2463 -0.4343
  103MOL0     C13523  11.681   6.707   9.514 -1.2508  0.7565 -0.0543
  103MOL0     C13524  11.799   6.608   9.485  0.0493 -0.7653 -0.4222
  103MOL0     C13525  11.861   6.537   9.607 -0.6900  0.4560  0.1823
  103MOL0     C13526  11.988   6.474   9.572 -0.5930  0.0234 -0.0188
  103MOL0     C13527  12.036   6.381   9.681 -0.2693  0.2176  0.4430
  103MOL0     C13528  12.052   6.303   9.774 -0.3499 -0.0095  0.9748
  103MOL0     C13529  11.452   6.896   9.492  0.3165  0.6286 -0.4189
  103MOL0     C13530  11.319   6.940   9.483 -0.6168  0.4012 -0.4163
  103MOL0     H13531  10.888   6.912   9.595  0.1092 -0.8186  0.1074
  103MOL0     H13532  10.650   6.969   9.626 -0.2950 -0.0457  0.5434
  103MOL0     H13533  10.525   7.344   9.410  0.5837  3.0285  1.7989
  103MOL0     H13534  10.555   7.303   9.585 -1.1825  0.0871  0.3684
  103MOL0     H13535  10.341   7.423   9.543  1.3592  0.4332  2.2590
  103MOL0     H13536  10.356   7.289   9.655  0.2140  0.4366  0.1216
  103MOL0     H13537  10.219   7.155   9.506 -0.3938  0.1067 -0.4381
  103MOL0     H13538  10.237   7.263   9.366 -0.1441  1.4492 -0.2419
  103MOL0     H13539  10.097   7.334   9.633 -1.7730 -0.4180 -0.6490
  103MOL0     H13540  10.143   7.450   9.510  0.4150  0.8131  1.6795
  103MOL0     H13541   9.949   7.216   9.494  1.3462 -0.1825 -0.3879
  103MOL0     H13542   9.995   7.275   9.342 -0.9315 -0.4837 -1.0898
  103MOL0     H13543   9.925   7.508   9.392 -3.3148  3.5363  2.3099
  103MOL0     H13544   9.880   7.473   9.553 -2.2795  0.7176 -0.5435
  103MOL0     H13545   9.746   7.313   9.329  0.6935 -2.6335  2.8118
  103MOL0     H13546   9.709   7.317   9.502 -1.3082 -1.0914 -1.4542
  103MOL0     H13547   9.685   7.549   9.302  0.2228  0.0861 -0.3207
  103MOL0     H13548   9.624   7.560   9.470 -2.5871  3.1304 -2.6190
  103MOL0     H13549   9.560   7.281   9.186 -2.3140 -0.8105 -1.6110
  103MOL0     H13550   9.186   7.235   9.191 -0.5571 -0.8788 -0.6187
  103MOL0     H13551   9.323   7.172   9.112  1.6742 -0.6022  2.2784
  103MOL0     H13552   9.320   7.396   8.964 -0.0673 -1.1098 -1.0585
  103MOL0     H13553   9.169   7.446   9.033  1.0307  0.5228  0.4233
  103MOL0     H13554   9.220   7.196   8.864 -0.4740 -0.2895 -1.7475
  103MOL0     H13555   9.061   7.237   8.939 -1.1981  2.5694  0.1620
  103MOL0     H13556   9.203   7.391   8.737  0.2727  1.0235  1.8602
  103MOL0     H13557   9.073   7.459   8.816  1.9465  0.4863 -0.7804
  103MOL0     H13558   8.880   7.392   8.899 -0.1692  0.1164  1.0522
  103MOL0     H13559   8.636   7.352   8.924 -0.3584  1.4269 -0.2843
  103MOL0     H13560   8.241   6.979   8.813 -1.9519 -0.8650 -0.9747
  103MOL0     H13561   7.992   6.995   8.815 -5.4545  2.4176 -2.9028
  103MOL0     H13562   7.752   7.028   8.589  0.2029 -1.3306 -1.3460
  103MOL0     H13563   7.859   7.112   8.487 -0.1898  0.3898 -0.0864
  103MOL0     H13564   7.727   7.295   8.460 -1.2859 -0.4883 -1.6302
  103MOL0     H13565   7.628   7.273   8.610  0.9123  1.9148 -0.2502
  103MOL0     H13566   7.523   7.064   8.491  0.1584 -0.9814 -0.5928
  103MOL0     H13567   7.571   7.147   8.346 -3.8450 -1.2102  0.1167
  103MOL0     H13568   7.396   7.275   8.561  1.8982 -4.6984  1.1175
  103MOL0     H13569   7.469   7.356   8.418 -0.7979  1.8664  2.9805
  103MOL0     H13570   7.329   7.197   8.272  0.2853  3.9088 -0.7869
  103MOL0     H13571   7.234   7.301   8.371 -0.4104  1.2275 -2.9247
  103MOL0     H13572   7.174   7.136   8.533 -1.3227  0.7204 -0.4952
  103MOL0     H13573   7.301   7.020   8.482 -0.3006 -2.4210 -3.4451
  103MOL0     H13574   7.080   7.102   8.304 -0.2303 -0.1078 -0.7928
  103MOL0     H13575   7.199   6.977   8.271 -0.3317 -1.5664  0.7891
  103MOL0     H13576   6.970   6.924   8.351  1.0024  3.6280 -1.4179
  103MOL0     H13577   7.030   6.958   8.515  0.1499  0.7294  0.3651
  103MOL0     H13578   8.004   7.357   8.597 -1.4200  0.0175  3.1732
  103MOL0     H13579   8.262   7.323   8.556  0.5229  1.5577  2.3554
  103MOL0     H13580   8.622   7.136   8.557 -2.5521  2.7972  0.1844
  103MOL0     H13581   8.869   7.181   8.517 -0.3244  1.1102 -1.9845
  103MOL0     H13582  10.677   7.237   9.288 -4.7986 -2.8042 -0.6822
  103MOL0     H13583  10.914   7.168   9.270 -0.2773 -0.2698 -0.0900
  103MOL0     H13584  11.269   6.858   9.152  0.3093 -1.6192 -0.3723
  103MOL0     H13585  11.487   6.760   9.184  0.6204 -3.6250  3.4899
  103MOL0     H13586  11.600   6.643   9.549 -1.9301  0.6105 -1.7989
  103MOL0     H13587  11.703   6.783   9.590 -0.3466  0.7448 -0.2878
  103MOL0     H13588  11.771   6.527   9.416  0.6958  0.5321 -2.2870
  103MOL0     H13589  11.882   6.663   9.439  0.3171 -0.9928 -0.2166
  103MOL0     H13590  11.798   6.456   9.645 -0.5676  1.0161  1.6222
  103MOL0     H13591  11.879   6.600   9.694  2.5529  2.5315 -1.7964
  103MOL0     H13592  11.981   6.425   9.475 -2.2752 -1.1137  0.6311
  103MOL0     H13593  12.068   6.548   9.564 -0.0763 -0.6703 -1.6689
  103MOL0     H13594  12.066   6.243   9.861  0.7603 -2.4159 -0.7625
  103MOL0     H13595  11.500   6.905   9.589 -1.1622  2.9454  0.1898
  103MOL0     H13596  11.265   6.983   9.568  0.7038 -0.2745  0.8061
  104MOL0     O13597   0.611   3.824   0.854  0.3829  0.3816 -0.0410
  104MOL0     C13598   0.605   3.939   0.818  0.2341  0.0925  0.3052
  104MOL0     O13599   0.710   4.026   0.828 -0.2413  0.3990  0.8640
  104MOL0     C13600   0.830   4.008   0.887 -0.9921 -0.5207 -0.3378
  104MOL0     C13601   0.876   3.895   0.951 -0.4356 -0.1409  1.1627
  104MOL0     C13602   1.001   3.888   1.008  0.0879 -0.5650  0.5158
  104MOL0     C13603   1.093   3.991   1.017  0.4287  0.1490  0.0030
  104MOL0     O13604   1.222   3.987   1.069  0.3311  0.0833 -0.2320
  104MOL0     C13605   1.278   3.859   1.085  0.6819  0.6609  0.3761
  104MOL0     C13606   1.419   3.890   1.132  0.0323  0.2290 -0.1544
  104MOL0     C13607   1.503   3.759   1.167 -0.2842  0.5253 -0.2516
  104MOL0     C13608   1.659   3.768   1.178  0.1512 -0.3554 -1.2493
  104MOL0     C13609   1.702   3.880   1.274  0.8906  0.5361  1.0302
  104MOL0     C13610   1.626   3.874   1.418  0.4952  0.4259 -0.1377
  104MOL0     C13611   1.683   3.990   1.493  0.7996 -0.0068  0.2022
  104MOL0     C13612   1.626   4.121   1.457 -0.2117  0.1460 -0.0328
  104MOL0     N13613   1.666   4.211   1.569  0.0379 -0.1350 -0.2558
  104MOL0     C13614   1.618   4.219   1.692  0.2645  0.1502 -0.3754
  104MOL0     C13615   1.713   4.285   1.759  0.6647 -0.3992  0.2466
  104MOL0     C13616   1.722   4.295   1.908  0.2225  0.3012 -0.4103
  104MOL0     C13617   1.752   4.432   1.955  0.0723 -0.6784  0.3524
  104MOL0     C13618   1.762   4.429   2.099  0.7187  0.1651  0.6427
  104MOL0     C13619   1.749   4.566   2.166  0.4535 -0.1481 -0.0212
  104MOL0     O13620   1.631   4.646   2.129 -0.5927  0.4456  0.1647
  104MOL0     C13621   1.509   4.612   2.165  0.0298  0.2961 -1.2264
  104MOL0     C13622   1.403   4.663   2.099  1.0324 -0.2689  0.5144
  104MOL0     C13623   1.274   4.622   2.133 -0.4902 -0.0670 -0.3479
  104MOL0     C13624   1.255   4.539   2.249  0.4521  0.3724  0.1573
  104MOL0     C13625   1.117   4.503   2.280  0.1689 -0.3627 -0.7730
  104MOL0     O13626   1.029   4.600   2.301  0.0703 -0.3471 -0.3511
  104MOL0     C13627   0.899   4.571   2.303  0.1720 -0.6488  0.7739
  104MOL0     C13628   0.826   4.556   2.421 -0.4530  0.1305  1.1183
  104MOL0     C13629   0.688   4.528   2.422 -0.2342  0.5490  0.3307
  104MOL0     C13630   0.621   4.515   2.301 -0.2691  0.0663  0.9142
  104MOL0     O13631   0.493   4.493   2.288  0.0274 -0.8733  0.5636
  104MOL0     C13632   0.431   4.383   2.360 -0.7412  0.3293  0.6699
  104MOL0     C13633   0.425   4.246   2.291 -0.4988 -0.3016 -0.3831
  104MOL0     C13634   0.388   4.255   2.147 -0.5877 -0.0748 -0.8308
  104MOL0     C13635   0.240   4.307   2.126 -0.7986 -0.6202 -0.0296
  104MOL0     C13636   0.169   4.228   2.018  0.3869  0.9584  0.1044
  104MOL0     C13637   0.026   4.284   1.994 -1.2223  0.2919 -1.2183
  104MOL0     C13638  -0.075   4.216   2.088 -0.1656 -0.2722 -0.1726
  104MOL0     C13639  -0.213   4.284   2.072  0.8980  0.2826 -0.2740
  104MOL0    Cl13640  -0.333   4.229   2.199 -0.2288 -0.4755 -0.1655
  104MOL0     C13641   0.692   4.529   2.186  0.4040  0.7036  0.2491
  104MOL0     C13642   0.834   4.557   2.175  0.0451 -0.2476 -0.2519
  104MOL0     O13643   1.101   4.386   2.309 -0.0603  0.2656 -0.6319
  104MOL0     C13644   1.364   4.486   2.317 -0.7484 -0.0305  0.1485
  104MOL0     C13645   1.491   4.519   2.272  0.5099 -0.1203  0.4572
  104MOL0     N13646   1.796   4.348   1.670  0.4335 -0.1445  0.2903
  104MOL0     N13647   1.767   4.298   1.553 -0.0302  0.2394  0.7413
  104MOL0     C13648   1.045   4.107   0.955 -1.0043  0.2953  0.6549
  104MOL0     C13649   0.919   4.118   0.888 -0.5534 -0.0344  0.0885
  104MOL0     C13650   0.472   3.998   0.802  0.6036  0.0158  0.0677
  104MOL0     C13651   0.461   4.116   0.713  1.3976  0.0080 -0.4554
  104MOL0     C13652   0.331   4.167   0.691 -0.0868  0.4603  0.7347
  104MOL0     C13653   0.220   4.107   0.738  0.1458  0.3924 -1.2578
  104MOL0     O13654   0.110   4.177   0.707 -0.0888  0.2018 -0.3720
  104MOL0     C13655  -0.015   4.141   0.774  0.0810 -0.7462 -0.4293
  104MOL0     C13656  -0.137   4.217   0.732  0.2913 -0.7164 -0.6355
  104MOL0     C13657  -0.136   4.380   0.712 -0.1963 -0.1175 -0.0625
  104MOL0     C13658  -0.037   4.429   0.602 -0.2043  0.0584 -0.2551
  104MOL0     C13659  -0.070   4.392   0.469 -0.0462 -0.0000  1.1169
  104MOL0     C13660  -0.122   4.364   0.360  0.1624 -0.3715 -0.3303
  104MOL0     C13661   0.222   3.992   0.824 -0.5121  0.7052  0.1845
  104MOL0     C13662   0.352   3.949   0.859 -0.7791 -0.7864 -0.1162
  104MOL0     H13663   0.820   3.803   0.953 -1.3231  0.3910  2.4754
  104MOL0     H13664   1.030   3.793   1.052 -1.4232 -3.2248 -3.6113
  104MOL0     H13665   1.276   3.792   0.999 -0.4274 -0.0205  0.9058
  104MOL0     H13666   1.231   3.797   1.162 -0.5405 -0.7091 -1.3968
  104MOL0     H13667   1.407   3.968   1.207  1.6220  0.5837 -0.2428
  104MOL0     H13668   1.458   3.950   1.049 -3.4455  1.0359 -1.3800
  104MOL0     H13669   1.482   3.677   1.098  0.6523  1.1146 -1.2672
  104MOL0     H13670   1.464   3.721   1.262  2.5365  1.1904  1.2899
  104MOL0     H13671   1.697   3.668   1.203  1.5196  0.0869 -1.4560
  104MOL0     H13672   1.700   3.796   1.081  1.7660 -2.1036 -1.1455
  104MOL0     H13673   1.685   3.979   1.229  0.3412  0.1708  0.4103
  104MOL0     H13674   1.811   3.875   1.286  1.4249  0.3487 -2.6354
  104MOL0     H13675   1.648   3.778   1.466  0.3006  0.9445  1.0165
  104MOL0     H13676   1.517   3.878   1.409  0.5292 -0.6166 -1.4588
  104MOL0     H13677   1.654   3.963   1.595 -2.7162  0.1062 -0.6060
  104MOL0     H13678   1.792   3.985   1.489  0.8269  0.7537 -0.1284
  104MOL0     H13679   1.518   4.112   1.441 -0.3000  1.4348 -0.2598
  104MOL0     H13680   1.664   4.157   1.361 -2.2715  0.8863 -0.6333
  104MOL0     H13681   1.535   4.160   1.730  0.5534 -0.7574 -1.1131
  104MOL0     H13682   1.786   4.217   1.951  1.6453  1.2743 -0.7252
  104MOL0     H13683   1.622   4.272   1.946  0.6248  1.3183  1.4016
  104MOL0     H13684   1.666   4.497   1.938 -0.5140 -1.0014  1.9150
  104MOL0     H13685   1.848   4.472   1.921 -0.6904  2.6556  1.7059
  104MOL0     H13686   1.694   4.366   2.157 -0.1094  0.9632  0.5600
  104MOL0     H13687   1.865   4.401   2.122  0.8032 -0.1432 -0.0587
  104MOL0     H13688   1.833   4.626   2.132 -1.0733  0.9665 -2.0973
  104MOL0     H13689   1.762   4.552   2.274  0.5518 -2.2857 -0.2820
  104MOL0     H13690   1.427   4.721   2.010 -0.2135 -1.7384 -0.8583
  104MOL0     H13691   1.194   4.657   2.069 -0.1748 -0.8125 -1.1716
  104MOL0     H13692   0.889   4.574   2.507  1.3890 -0.9739  0.0685
  104MOL0     H13693   0.634   4.521   2.516 -1.2268  0.7504 -0.2034
  104MOL0     H13694   0.327   4.415   2.375  0.0921  6.0657 -2.9783
  104MOL0     H13695   0.474   4.379   2.461 -2.0624 -0.0201  1.2555
  104MOL0     H13696   0.352   4.184   2.344 -1.2827  0.1468 -0.9084
  104MOL0     H13697   0.527   4.206   2.297  1.0972  2.7707 -3.3832
  104MOL0     H13698   0.407   4.162   2.094  0.3328 -1.0358  1.0981
  104MOL0     H13699   0.461   4.324   2.105 -2.1532  2.6802  0.6501
  104MOL0     H13700   0.183   4.310   2.219 -0.9903  0.6773 -0.1773
  104MOL0     H13701   0.253   4.414   2.110  2.5714 -0.9683 -0.3230
  104MOL0     H13702   0.164   4.123   2.050  4.0678 -0.6732 -3.7948
  104MOL0     H13703   0.220   4.230   1.921  1.5305  0.3149  0.6727
  104MOL0     H13704  -0.002   4.250   1.894 -0.1588 -1.2306 -1.0471
  104MOL0     H13705   0.038   4.392   2.007  1.0538 -0.2542  4.1421
  104MOL0     H13706  -0.079   4.111   2.057  2.1015 -1.1349  2.1056
  104MOL0     H13707  -0.031   4.219   2.188 -2.8540  3.3407  1.1250
  104MOL0     H13708  -0.253   4.260   1.973  0.8832 -5.1746  0.7369
  104MOL0     H13709  -0.205   4.392   2.086  2.7023  0.2540 -0.8207
  104MOL0     H13710   0.634   4.516   2.095 -0.6400 -0.9835  1.0968
  104MOL0     H13711   0.894   4.566   2.084  0.8445  0.8785  0.3590
  104MOL0     H13712   1.346   4.416   2.397  1.7069 -3.3613 -1.9353
  104MOL0     H13713   1.578   4.483   2.325 -0.0339 -0.9165  0.8255
  104MOL0     H13714   1.108   4.195   0.956  1.7623 -1.5496  0.4467
  104MOL0     H13715   0.895   4.216   0.848 -3.3540 -0.9368 -0.6725
  104MOL0     H13716   0.549   4.155   0.664  2.3958 -1.0724  0.4183
  104MOL0     H13717   0.322   4.253   0.625 -0.1186  0.5213  0.8184
  104MOL0     H13718  -0.005   4.169   0.879  3.1021 -1.2319 -0.5091
  104MOL0     H13719  -0.032   4.036   0.750 -2.0577 -0.2815 -1.2181
  104MOL0     H13720  -0.170   4.181   0.634 -2.2708  0.0415 -0.1410
  104MOL0     H13721  -0.222   4.193   0.797  1.3667 -2.8240  0.0971
  104MOL0     H13722  -0.102   4.422   0.807 -0.8231 -0.8102  0.4813
  104MOL0     H13723  -0.237   4.416   0.688  0.3451  1.5800  0.0351
  104MOL0     H13724  -0.036   4.538   0.604 -1.1799  0.1232 -1.8175
  104MOL0     H13725   0.068   4.400   0.618 -0.4581 -0.5479  0.3878
  104MOL0     H13726  -0.163   4.350   0.262 -2.2052 -0.1784  0.5458
  104MOL0     H13727   0.138   3.936   0.863  0.1708 -1.8204 -1.7042
  104MOL0     H13728   0.358   3.875   0.939 -2.4556 -2.3086 -1.3232
  105MOL0     O13729   2.117   4.593   4.469  0.5946 -0.2146 -0.2063
  105MOL0     C13730   2.110   4.658   4.570  0.6062  0.4227 -0.3613
  105MOL0     O13731   2.198   4.650   4.676  0.3765 -0.6301  0.3664
  105MOL0     C13732   2.321   4.586   4.665 -1.4483 -0.2887  0.7056
  105MOL0     C13733   2.349   4.472   4.578 -0.4561  0.3068  0.1040
  105MOL0     C13734   2.477   4.424   4.580 -0.5353  0.2085  0.4826
  105MOL0     C13735   2.584   4.480   4.650  0.2534 -1.1900 -0.3489
  105MOL0     O13736   2.702   4.420   4.632 -0.4137 -0.4327  0.8237
  105MOL0     C13737   2.817   4.494   4.669 -1.2064  0.5793 -0.3263
  105MOL0     C13738   2.950   4.416   4.649  1.4795 -0.2291 -0.2434
  105MOL0     C13739   3.061   4.499   4.571 -0.1191  0.2861  0.6113
  105MOL0     C13740   3.140   4.403   4.483  1.0211 -0.0651  0.2794
  105MOL0     C13741   3.234   4.466   4.383 -0.7964 -0.3609 -0.3209
  105MOL0     C13742   3.172   4.503   4.249  0.0348  0.0497  0.4903
  105MOL0     C13743   3.248   4.594   4.162  0.7085 -0.8107  0.5750
  105MOL0     C13744   3.239   4.544   4.010  0.3124 -0.8374  0.4546
  105MOL0     N13745   3.114   4.590   3.948 -0.0321 -0.0366  0.4371
  105MOL0     C13746   2.985   4.543   3.962  0.2411  0.8260 -0.1397
  105MOL0     C13747   2.896   4.598   3.871  1.0913 -0.7391 -0.0598
  105MOL0     C13748   2.755   4.605   3.842 -0.3628  0.0604 -0.4733
  105MOL0     C13749   2.717   4.565   3.696 -0.5737  0.1064 -0.5796
  105MOL0     C13750   2.560   4.562   3.690 -0.3599  0.1171 -0.0105
  105MOL0     C13751   2.492   4.680   3.728  0.1886 -0.5661  0.4660
  105MOL0     O13752   2.364   4.671   3.657 -0.7747  0.5999 -0.5451
  105MOL0     C13753   2.264   4.750   3.702  0.6547 -0.3275 -0.3498
  105MOL0     C13754   2.284   4.881   3.758  0.4981  0.0806  0.4522
  105MOL0     C13755   2.173   4.952   3.808 -0.1635 -0.2527 -0.4195
  105MOL0     C13756   2.037   4.904   3.793 -0.2333 -0.7286 -0.4207
  105MOL0     C13757   1.923   4.986   3.851  0.5040 -0.1875  0.3990
  105MOL0     O13758   1.940   5.114   3.899  0.1258 -0.0543  0.4780
  105MOL0     C13759   1.833   5.182   3.959 -0.6310 -0.2783 -0.2643
  105MOL0     C13760   1.701   5.173   3.925  0.0335  0.0428 -0.0619
  105MOL0     C13761   1.605   5.260   3.985  0.6950 -0.1431 -0.0102
  105MOL0     C13762   1.643   5.362   4.078 -0.8390  0.2497 -0.0837
  105MOL0     O13763   1.557   5.443   4.137  0.4239  0.5838  0.6715
  105MOL0     C13764   1.476   5.358   4.224  0.0211  0.7806 -0.0063
  105MOL0     C13765   1.363   5.435   4.300 -0.3771  0.0398  0.3890
  105MOL0     C13766   1.257   5.485   4.207 -0.5140 -0.5611  0.1455
  105MOL0     C13767   1.167   5.599   4.265  0.0532 -0.3565 -0.1572
  105MOL0     C13768   1.059   5.641   4.155  0.5486 -0.2196 -0.6413
  105MOL0     C13769   0.947   5.724   4.216 -0.3606  0.2410  0.2154
  105MOL0     C13770   0.809   5.684   4.150 -0.6745 -0.2431  0.4729
  105MOL0     C13771   0.714   5.801   4.163  0.6272  0.1147  0.5830
  105MOL0    Cl13772   0.655   5.806   4.334 -0.3535 -0.0017  0.2018
  105MOL0     C13773   1.778   5.375   4.100 -0.9988 -0.0521 -0.5744
  105MOL0     C13774   1.867   5.286   4.044 -0.3237  0.3108  0.0495
  105MOL0     O13775   1.811   4.925   3.850 -0.2633 -0.4143  0.4494
  105MOL0     C13776   2.017   4.785   3.732  0.0145 -0.2347 -0.4221
  105MOL0     C13777   2.128   4.709   3.692  0.6557 -0.7528 -0.7423
  105MOL0     N13778   2.983   4.672   3.787 -0.3172 -0.4824 -0.4833
  105MOL0     N13779   3.104   4.670   3.838  0.1580  0.1735 -0.2938
  105MOL0     C13780   2.564   4.602   4.721 -0.5516  0.2039  0.1439
  105MOL0     C13781   2.431   4.644   4.734  0.5599 -0.5884 -0.5885
  105MOL0     C13782   1.985   4.741   4.588  1.0919 -0.4708  0.5080
  105MOL0     C13783   1.880   4.749   4.494  0.0302 -1.0222 -0.4671
  105MOL0     C13784   1.767   4.831   4.518 -0.0511  0.3038 -0.3589
  105MOL0     C13785   1.757   4.901   4.637  0.3156  0.0642 -0.5561
  105MOL0     O13786   1.653   4.977   4.669  0.0411  0.5367  0.2215
  105MOL0     C13787   1.544   5.001   4.574  1.2364 -0.7603  0.2106
  105MOL0     C13788   1.490   5.144   4.610  0.4079 -0.7153 -0.6083
  105MOL0     C13789   1.603   5.265   4.586  0.4548  0.1192  0.2202
  105MOL0     C13790   1.695   5.281   4.708  0.9097  0.6755 -1.1390
  105MOL0     C13791   1.786   5.391   4.667  0.4089 -0.0235 -0.1911
  105MOL0     C13792   1.849   5.489   4.625  0.3685  0.0306  0.7184
  105MOL0     C13793   1.859   4.888   4.736 -0.4982  0.0172  1.0353
  105MOL0     C13794   1.969   4.807   4.711 -0.1562  0.1233  0.8901
  105MOL0     H13795   2.265   4.428   4.524 -0.9191  0.4569  0.6890
  105MOL0     H13796   2.506   4.327   4.539 -0.8029  0.4576 -0.3191
  105MOL0     H13797   2.810   4.527   4.773  3.1139  0.0280  0.3483
  105MOL0     H13798   2.818   4.577   4.597 -2.3040 -0.0173 -1.0411
  105MOL0     H13799   2.921   4.324   4.598 -0.0609 -1.7544  3.0828
  105MOL0     H13800   2.984   4.368   4.742 -1.6419 -1.7544  0.2537
  105MOL0     H13801   3.132   4.530   4.648 -0.7371  2.0155  0.5341
  105MOL0     H13802   3.024   4.588   4.517  0.4534  1.7061  2.4692
  105MOL0     H13803   3.199   4.338   4.549  3.6495  0.7405 -1.1148
  105MOL0     H13804   3.068   4.341   4.429 -2.2650  2.3619  1.5795
  105MOL0     H13805   3.324   4.407   4.365  0.3639  1.2992 -0.2087
  105MOL0     H13806   3.285   4.551   4.431 -2.1233 -0.9788  2.3797
  105MOL0     H13807   3.073   4.545   4.269 -1.0344 -1.4209 -1.3656
  105MOL0     H13808   3.149   4.408   4.199  2.0741  0.0693 -0.6057
  105MOL0     H13809   3.206   4.694   4.175  0.5443 -0.6119 -1.2330
  105MOL0     H13810   3.354   4.608   4.185  1.1245  2.1584 -2.3593
  105MOL0     H13811   3.256   4.439   3.986 -1.6294 -0.6420 -2.2239
  105MOL0     H13812   3.323   4.584   3.951 -0.4873 -1.3696 -1.1112
  105MOL0     H13813   2.941   4.486   4.043 -0.7933  1.7957  0.0172
  105MOL0     H13814   2.727   4.710   3.850  1.3004  0.4117  1.2122
  105MOL0     H13815   2.698   4.540   3.910  1.5781 -1.4249 -0.1733
  105MOL0     H13816   2.759   4.468   3.667  0.4634 -0.3680  2.1877
  105MOL0     H13817   2.752   4.638   3.623  0.3034 -0.1041 -0.3808
  105MOL0     H13818   2.519   4.530   3.594 -0.3034  2.1158 -0.7436
  105MOL0     H13819   2.521   4.488   3.761 -0.5673  0.3916  0.1623
  105MOL0     H13820   2.542   4.768   3.686  3.5483 -2.3907  0.3402
  105MOL0     H13821   2.484   4.682   3.837  0.6734  0.3172  0.4904
  105MOL0     H13822   2.385   4.921   3.753 -0.8764  4.1852  1.2700
  105MOL0     H13823   2.191   5.044   3.863  0.6510 -2.0922  2.6679
  105MOL0     H13824   1.666   5.099   3.854 -0.8598 -1.6674  2.0623
  105MOL0     H13825   1.502   5.276   3.955  1.5783  2.9810 -1.7445
  105MOL0     H13826   1.549   5.322   4.296 -0.0739  2.1390  0.7969
  105MOL0     H13827   1.419   5.285   4.165 -2.5849  3.1793 -0.6930
  105MOL0     H13828   1.399   5.523   4.356 -1.4479 -0.0564  1.2652
  105MOL0     H13829   1.321   5.366   4.374 -0.3510 -1.7832 -1.2288
  105MOL0     H13830   1.199   5.399   4.174 -0.4597 -0.6290  0.2260
  105MOL0     H13831   1.297   5.514   4.109 -0.0555 -2.2181 -0.1991
  105MOL0     H13832   1.118   5.572   4.359  0.8029 -1.6572 -0.1176
  105MOL0     H13833   1.220   5.690   4.293 -0.5252 -0.3876  1.1212
  105MOL0     H13834   1.023   5.548   4.111 -0.4899 -0.7840  1.3006
  105MOL0     H13835   1.098   5.702   4.073  2.2037 -3.0235 -2.0672
  105MOL0     H13836   0.971   5.830   4.201  1.2829 -0.3689 -1.8507
  105MOL0     H13837   0.941   5.710   4.325  0.8868  1.2556  0.4410
  105MOL0     H13838   0.825   5.641   4.051  0.7177 -1.0060  0.9984
  105MOL0     H13839   0.768   5.608   4.217 -0.4215 -1.1419 -0.3673
  105MOL0     H13840   0.632   5.781   4.094  0.4589  1.6980  0.2899
  105MOL0     H13841   0.757   5.894   4.125  1.6539 -1.4759 -2.6351
  105MOL0     H13842   1.810   5.457   4.164 -1.6497  0.1571 -0.5125
  105MOL0     H13843   1.971   5.305   4.067 -0.5322  1.2658  0.2632
  105MOL0     H13844   1.914   4.754   3.720 -0.3357  0.7075  0.0747
  105MOL0     H13845   2.119   4.607   3.657  2.5993 -1.5859  0.9567
  105MOL0     H13846   2.638   4.673   4.756  0.0645  0.9609 -2.4806
  105MOL0     H13847   2.416   4.737   4.788  1.7495 -0.7523  0.0693
  105MOL0     H13848   1.885   4.698   4.398  1.2650  1.2689 -1.6993
  105MOL0     H13849   1.679   4.826   4.455 -0.8032  1.7440  0.5269
  105MOL0     H13850   1.472   4.919   4.572 -0.1146  0.3713 -2.6947
  105MOL0     H13851   1.590   5.009   4.475  0.3122  0.8064 -0.1309
  105MOL0     H13852   1.403   5.164   4.546  0.3753  0.1513 -0.2975
  105MOL0     H13853   1.455   5.144   4.714 -0.6584 -2.3418 -0.9189
  105MOL0     H13854   1.535   5.349   4.571 -0.1863 -0.5917 -1.0290
  105MOL0     H13855   1.655   5.223   4.499 -0.3992 -5.0385  1.8330
  105MOL0     H13856   1.640   5.312   4.797  2.1435 -3.5857  1.4102
  105MOL0     H13857   1.752   5.193   4.739  3.9700  3.1669  0.9791
  105MOL0     H13858   1.912   5.568   4.590  2.4450 -1.6527  0.4935
  105MOL0     H13859   1.875   4.956   4.820  0.4039  0.7295  0.3104
  105MOL0     H13860   2.041   4.792   4.791  2.5191 -4.8412 -1.9550
  106MOL0     O13861   8.735   9.788   0.428  0.4808  0.0538 -0.1235
  106MOL0     C13862   8.777   9.795   0.543 -0.3613  0.4332 -0.3178
  106MOL0     O13863   8.704   9.842   0.644 -0.6693 -0.4261  0.7746
  106MOL0     C13864   8.580   9.889   0.624 -0.3884  0.8252  0.5159
  106MOL0     C13865   8.553  10.020   0.665  1.3969 -0.1747  0.3336
  106MOL0     C13866   8.426  10.071   0.664  0.5366 -0.1433  0.5954
  106MOL0     C13867   8.320   9.976   0.644 -0.5123 -0.4139  0.0083
  106MOL0     O13868   8.183  10.014   0.653 -0.0646 -0.1534 -0.1341
  106MOL0     C13869   8.151  10.136   0.590  1.1835  0.3933 -0.0133
  106MOL0     C13870   8.070  10.211   0.696  0.5337 -0.5275 -0.8920
  106MOL0     C13871   8.160  10.253   0.814 -0.1286 -1.0121 -0.2874
  106MOL0     C13872   8.078  10.326   0.923  0.5788 -0.5749 -0.0913
  106MOL0     C13873   8.154  10.346   1.058  0.2235 -0.4643 -0.7327
  106MOL0     C13874   8.069  10.412   1.170  0.3988 -0.3596 -0.9402
  106MOL0     C13875   8.163  10.433   1.291  0.4624  0.8196  0.2830
  106MOL0     C13876   8.123  10.546   1.387  0.9489  0.7518 -0.2336
  106MOL0     N13877   8.165  10.521   1.521 -0.2292 -0.3814 -0.0020
  106MOL0     C13878   8.229  10.616   1.599 -0.4394  0.2952  0.5914
  106MOL0     C13879   8.228  10.564   1.728  0.5614 -1.3051  1.5523
  106MOL0     C13880   8.267  10.628   1.851  0.4992  0.3858 -0.7092
  106MOL0     C13881   8.416  10.594   1.895  0.1500 -0.2566 -0.2109
  106MOL0     C13882   8.447  10.639   2.039  0.6851 -0.1396 -0.0203
  106MOL0     C13883   8.596  10.655   2.078  0.2278  0.6301  0.0160
  106MOL0     O13884   8.661  10.771   2.019  0.5918  0.0164  0.6608
  106MOL0     C13885   8.764  10.841   2.083  0.2597  0.6156  0.1349
  106MOL0     C13886   8.822  10.946   2.005  0.7957 -0.6531  1.4184
  106MOL0     C13887   8.931  11.008   2.047 -0.3088 -1.5433 -0.5855
  106MOL0     C13888   9.003  10.977   2.165  0.9201  0.1017  0.3545
  106MOL0     C13889   9.124  11.053   2.200 -0.6480 -0.6681  0.2009
  106MOL0     O13890   9.155  11.155   2.116 -0.3434 -0.1402  0.8911
  106MOL0     C13891   9.266  11.230   2.126 -1.0886 -0.0829 -0.9548
  106MOL0     C13892   9.389  11.161   2.145 -1.5483 -0.4747 -0.1378
  106MOL0     C13893   9.506  11.246   2.151 -0.4346 -0.1331 -0.6903
  106MOL0     C13894   9.501  11.383   2.143  0.4355 -0.8362 -0.0546
  106MOL0     O13895   9.610  11.465   2.131  0.1820 -0.0569 -0.2068
  106MOL0     C13896   9.710  11.430   2.032  0.3642  0.2994 -0.1966
  106MOL0     C13897   9.846  11.501   2.062  0.7979  0.6551 -0.0970
  106MOL0     C13898   9.883  11.479   2.205  0.2908 -0.1302  0.2240
  106MOL0     C13899  10.030  11.494   2.234  0.5127  0.1159  0.1280
  106MOL0     C13900  10.059  11.432   2.365  0.0204  0.6537 -0.0319
  106MOL0     C13901  10.203  11.457   2.408 -0.0393  0.1078  0.0353
  106MOL0     C13902  10.235  11.391   2.542 -0.2236  0.5583 -0.6260
  106MOL0     C13903  10.376  11.424   2.586  0.3831 -0.5661  0.3578
  106MOL0    Cl13904  10.498  11.320   2.508 -0.1188 -0.0988 -0.9358
  106MOL0     C13905   9.370  11.448   2.131 -0.5185  0.1330 -0.2849
  106MOL0     C13906   9.260  11.368   2.129  0.9610 -0.1294 -0.0063
  106MOL0     O13907   9.187  11.015   2.301 -0.0052 -0.5032  0.1673
  106MOL0     C13908   8.946  10.868   2.239 -0.1426 -0.5754  0.2329
  106MOL0     C13909   8.831  10.802   2.205 -0.4372 -0.7582 -0.4163
  106MOL0     N13910   8.155  10.446   1.733  0.3308  0.2104 -0.9842
  106MOL0     N13911   8.123  10.421   1.611 -0.2366 -0.6994 -0.5087
  106MOL0     C13912   8.345   9.841   0.635 -0.3409 -0.4100 -0.0119
  106MOL0     C13913   8.475   9.794   0.618  0.9872 -0.0705 -0.5218
  106MOL0     C13914   8.910   9.739   0.569 -0.1332 -0.4561 -1.5849
  106MOL0     C13915   8.985   9.750   0.698  1.2057  0.2822  0.5835
  106MOL0     C13916   9.118   9.718   0.705 -0.6449  0.5291  0.1496
  106MOL0     C13917   9.181   9.674   0.585  0.3825  0.4966 -0.3321
  106MOL0     O13918   9.311   9.634   0.606 -0.3754 -0.1220 -0.1773
  106MOL0     C13919   9.374   9.562   0.494 -0.2837 -0.6915 -0.2620
  106MOL0     C13920   9.498   9.484   0.555  0.7768  0.2964  0.6607
  106MOL0     C13921   9.593   9.420   0.448  0.1088 -0.7472 -0.5729
  106MOL0     C13922   9.525   9.304   0.372 -0.2101  0.5853  0.1346
  106MOL0     C13923   9.466   9.199   0.459  1.0511 -1.0827  0.6413
  106MOL0     C13924   9.433   9.116   0.534  0.5015  0.2314 -0.1804
  106MOL0     C13925   9.107   9.652   0.474 -0.2950 -0.6813  0.1731
  106MOL0     C13926   8.974   9.679   0.467 -0.4006 -0.2826 -0.0986
  106MOL0     H13927   8.636  10.082   0.698  0.9644  0.3965  0.3616
  106MOL0     H13928   8.393  10.171   0.691  2.5069 -0.1789  3.7715
  106MOL0     H13929   8.087  10.113   0.504  1.8835  0.5495 -0.5854
  106MOL0     H13930   8.231  10.195   0.544 -1.9032  3.7193 -1.6182
  106MOL0     H13931   7.987  10.145   0.724 -1.9960  2.4562 -0.7680
  106MOL0     H13932   8.013  10.300   0.666 -2.3140 -1.8140  0.3431
  106MOL0     H13933   8.234  10.322   0.771 -0.0673  0.2874  1.7669
  106MOL0     H13934   8.223  10.172   0.852  0.6679 -0.7994 -1.0964
  106MOL0     H13935   8.045  10.421   0.880 -0.9395 -0.0176  2.1511
  106MOL0     H13936   7.989  10.266   0.945  0.3643 -1.4616 -2.9642
  106MOL0     H13937   8.239  10.412   1.039  2.5061 -2.0977  2.7633
  106MOL0     H13938   8.185  10.246   1.091  0.8815 -1.8311 -4.9284
  106MOL0     H13939   7.987  10.347   1.203  2.1927 -1.8022  0.9452
  106MOL0     H13940   8.039  10.513   1.141  2.6706  0.6337 -0.0065
  106MOL0     H13941   8.163  10.333   1.334  1.4567  0.4594 -0.5176
  106MOL0     H13942   8.268  10.451   1.266 -0.1260  2.7550 -1.0262
  106MOL0     H13943   8.013  10.549   1.386  0.9420  0.6638 -2.0986
  106MOL0     H13944   8.164  10.638   1.346  1.2947  0.9243  0.4841
  106MOL0     H13945   8.278  10.708   1.571 -0.9332  0.3840  0.0061
  106MOL0     H13946   8.201  10.589   1.929 -0.0629  1.6837 -0.5126
  106MOL0     H13947   8.258  10.736   1.837  0.4027  0.1535 -2.8923
  106MOL0     H13948   8.494  10.629   1.827 -0.2807  0.0270 -0.5619
  106MOL0     H13949   8.427  10.485   1.897  2.8212 -0.0865  2.2141
  106MOL0     H13950   8.425  10.745   2.050 -0.6379 -0.1291 -2.1071
  106MOL0     H13951   8.400  10.568   2.108  0.5715 -1.5640 -1.5053
  106MOL0     H13952   8.647  10.560   2.058  0.4425  0.6633  0.3915
  106MOL0     H13953   8.600  10.654   2.187 -2.5345 -1.6312  0.1998
  106MOL0     H13954   8.787  10.971   1.906 -1.2600 -1.7173  1.8068
  106MOL0     H13955   8.983  11.070   1.975 -0.6595  1.5727  1.6363
  106MOL0     H13956   9.397  11.054   2.158 -2.9635 -1.0798 -3.2956
  106MOL0     H13957   9.604  11.201   2.159 -0.7936 -1.2780 -2.2532
  106MOL0     H13958   9.692  11.454   1.926  5.2231  0.7305 -1.1841
  106MOL0     H13959   9.715  11.321   2.042  0.5451  0.5166  2.6524
  106MOL0     H13960   9.829  11.609   2.054  0.3313  0.9233  3.2452
  106MOL0     H13961   9.927  11.487   1.989 -1.2829  0.3911 -2.5205
  106MOL0     H13962   9.850  11.378   2.231 -0.5793 -0.3742 -1.6165
  106MOL0     H13963   9.836  11.549   2.274  0.4653 -0.3733  0.5963
  106MOL0     H13964  10.078  11.431   2.158  0.6126 -0.9199  1.0257
  106MOL0     H13965  10.055  11.599   2.219  0.9788  0.6192  3.5866
  106MOL0     H13966  10.026  11.327   2.366  0.1947  0.6003  0.6711
  106MOL0     H13967   9.987  11.477   2.433 -1.9094 -3.0099  0.6210
  106MOL0     H13968  10.218  11.566   2.403  1.4469 -0.0370  0.9295
  106MOL0     H13969  10.269  11.419   2.330  0.3728  1.5909 -0.3794
  106MOL0     H13970  10.174  11.417   2.630  2.1308 -2.9864  2.3564
  106MOL0     H13971  10.234  11.282   2.533 -0.0466  0.6108 -1.2739
  106MOL0     H13972  10.391  11.416   2.695 -1.5150 -0.0037  0.6901
  106MOL0     H13973  10.392  11.530   2.564  1.3019 -0.6690  0.4929
  106MOL0     H13974   9.381  11.554   2.113 -0.5683  0.5612  1.9605
  106MOL0     H13975   9.165  11.413   2.103  1.3075 -0.3065 -1.7191
  106MOL0     H13976   8.995  10.841   2.332  2.1832  0.1147 -0.7174
  106MOL0     H13977   8.798  10.730   2.279 -0.1611  0.4692  0.9600
  106MOL0     H13978   8.263   9.770   0.638  0.5947 -1.5043  0.4819
  106MOL0     H13979   8.495   9.688   0.614 -1.4651 -0.5941 -0.5421
  106MOL0     H13980   8.936   9.796   0.783 -0.5292 -0.4539  0.0232
  106MOL0     H13981   9.158   9.727   0.805  0.5581  2.5619 -0.4450
  106MOL0     H13982   9.407   9.631   0.415  2.3429  0.7404  1.9377
  106MOL0     H13983   9.312   9.486   0.447  1.4066 -2.4611  0.2548
  106MOL0     H13984   9.542   9.556   0.625  0.4221  0.4145  0.7702
  106MOL0     H13985   9.458   9.405   0.619 -1.8805  1.1367  0.1994
  106MOL0     H13986   9.684   9.382   0.495 -0.3302 -0.7591  0.2780
  106MOL0     H13987   9.626   9.499   0.381  1.4830 -1.2296 -0.4929
  106MOL0     H13988   9.449   9.343   0.303 -1.2601  0.1256  0.9924
  106MOL0     H13989   9.598   9.256   0.307 -2.2753  0.0322 -1.9337
  106MOL0     H13990   9.411   9.035   0.600 -3.0056 -1.1640 -2.7558
  106MOL0     H13991   9.153   9.608   0.386  0.4023  0.7364 -0.2136
  106MOL0     H13992   8.929   9.672   0.369 -0.5928 -2.4366  0.0961
  107MOL0     O13993   8.530   6.547  10.762 -0.1168 -0.2781 -0.0427
  107MOL0     C13994   8.579   6.526  10.877 -0.3987 -0.4189 -0.4062
  107MOL0     O13995   8.510   6.489  10.989  0.0895  0.8583 -0.2658
  107MOL0     C13996   8.378   6.436  10.973 -0.5488  0.6853  0.8798
  107MOL0     C13997   8.347   6.306  11.000 -0.1575  0.0537  0.4544
  107MOL0     C13998   8.218   6.257  10.987  0.0976  0.3762  0.6625
  107MOL0     C13999   8.117   6.345  10.937  0.1739 -0.9482  0.6191
  107MOL0     O14000   7.994   6.303  10.909  0.3672 -0.6721  0.5876
  107MOL0     C14001   7.938   6.191  10.983  1.1150 -0.6702 -0.0600
  107MOL0     C14002   7.781   6.183  10.983  0.2290  0.0961  0.7356
  107MOL0     C14003   7.711   6.230  11.107 -0.2629  0.2739 -0.5381
  107MOL0     C14004   7.563   6.185  11.105  0.2859 -0.1192 -0.2466
  107MOL0     C14005   7.532   6.038  11.150 -0.2765  0.4578 -0.0840
  107MOL0     C14006   7.406   5.987  11.079  0.4862  0.7741 -0.1261
  107MOL0     C14007   7.273   6.058  11.108 -0.8483 -0.7950  0.1488
  107MOL0     C14008   7.224   6.063  11.255  0.3573  0.2594 -0.0421
  107MOL0     N14009   7.086   5.995  11.260  1.4489  0.4713 -0.7448
  107MOL0     C14010   6.969   6.048  11.217  0.6827 -0.2752  1.0006
  107MOL0     C14011   6.881   5.948  11.209  0.2949 -0.1483 -0.1946
  107MOL0     C14012   6.744   5.958  11.159 -0.2177 -1.1423  0.0300
  107MOL0     C14013   6.696   5.846  11.080 -0.0171 -1.0336 -0.9077
  107MOL0     C14014   6.749   5.842  10.938 -0.8409  1.0199  0.5988
  107MOL0     C14015   6.689   5.943  10.845  0.1731 -0.2620 -0.4107
  107MOL0     O14016   6.741   6.085  10.854  0.8318 -0.3404  0.0657
  107MOL0     C14017   6.866   6.118  10.820 -0.5088  0.5613  0.0465
  107MOL0     C14018   6.932   6.229  10.877  0.6095 -0.1964 -1.0893
  107MOL0     C14019   7.071   6.255  10.856  0.4784 -0.9108 -0.7708
  107MOL0     C14020   7.141   6.166  10.780 -0.2131 -0.7836  0.8188
  107MOL0     C14021   7.285   6.191  10.749  0.4843 -0.4231  0.2340
  107MOL0     O14022   7.339   6.118  10.650 -0.0748  0.5591  0.1732
  107MOL0     C14023   7.472   6.110  10.636  1.2298  0.4052  0.3208
  107MOL0     C14024   7.558   6.220  10.631 -0.3096 -0.7352 -0.6152
  107MOL0     C14025   7.691   6.195  10.626 -0.9501 -0.4583 -0.5042
  107MOL0     C14026   7.749   6.069  10.621  0.4393  0.1549  0.4575
  107MOL0     O14027   7.883   6.045  10.607 -0.7748  0.1106  0.7860
  107MOL0     C14028   7.965   6.149  10.545 -0.8337 -0.7312 -0.6777
  107MOL0     C14029   8.102   6.086  10.503 -0.1086 -0.6687  0.1696
  107MOL0     C14030   8.190   6.062  10.631  0.7661  1.3282 -0.6344
  107MOL0     C14031   8.332   6.006  10.605  0.2119 -0.9164 -0.7676
  107MOL0     C14032   8.402   5.969  10.737 -0.1334  0.7876  0.4493
  107MOL0     C14033   8.550   5.952  10.722 -0.1231  0.0113  0.8576
  107MOL0     C14034   8.609   5.931  10.864  0.2345  0.2920 -0.4826
  107MOL0     C14035   8.760   5.887  10.853 -0.5993  0.1739 -0.3935
  107MOL0    Cl14036   8.852   5.890  11.005 -0.1331 -0.0700 -0.0686
  107MOL0     C14037   7.665   5.960  10.623  0.2737  0.6787  0.1801
  107MOL0     C14038   7.525   5.983  10.620  0.1001 -0.5311  0.2314
  107MOL0     O14039   7.339   6.280  10.813 -0.0317 -0.1619  0.1839
  107MOL0     C14040   7.078   6.064  10.720  0.2629  0.3049  0.5405
  107MOL0     C14041   6.947   6.034  10.738  1.1774 -0.3042 -0.0786
  107MOL0     N14042   6.934   5.836  11.275 -0.5306  0.0552 -0.2014
  107MOL0     N14043   7.060   5.870  11.295 -0.0499 -0.3673  1.0963
  107MOL0     C14044   8.150   6.478  10.895 -0.4373  0.4026  0.2766
  107MOL0     C14045   8.282   6.518  10.915  0.4004 -0.7986  0.1364
  107MOL0     C14046   8.715   6.581  10.907 -0.0437 -0.4629 -0.3527
  107MOL0     C14047   8.743   6.640  11.036  0.0890  0.2791  0.4050
  107MOL0     C14048   8.858   6.708  11.054  0.6686 -0.1551  1.5361
  107MOL0     C14049   8.956   6.725  10.950 -0.7257 -0.4756 -0.8526
  107MOL0     O14050   9.070   6.779  10.993 -0.1970  0.2233 -0.9091
  107MOL0     C14051   9.187   6.703  10.972  0.4176 -0.0823 -0.1927
  107MOL0     C14052   9.310   6.758  11.038 -0.1380 -0.7542  0.1091
  107MOL0     C14053   9.409   6.823  10.949 -0.0725 -0.2536  0.5797
  107MOL0     C14054   9.505   6.914  11.038  0.1709  0.4739  0.5873
  107MOL0     C14055   9.589   6.985  10.940 -0.4363  0.2663 -0.3727
  107MOL0     C14056   9.666   7.033  10.857 -0.1002 -1.7824 -1.0590
  107MOL0     C14057   8.922   6.675  10.825 -0.4072  0.9635  0.9526
  107MOL0     C14058   8.801   6.601  10.803  0.3913 -0.3546 -0.6650
  107MOL0     H14059   8.429   6.246  11.038 -1.7496 -0.4109  3.4774
  107MOL0     H14060   8.198   6.152  11.008  1.7975 -0.0106  0.4877
  107MOL0     H14061   7.965   6.192  11.089  0.0645  2.0740  0.2806
  107MOL0     H14062   7.987   6.101  10.946 -1.7913 -2.5865  0.4541
  107MOL0     H14063   7.753   6.079  10.964 -1.6725  0.8643 -1.0916
  107MOL0     H14064   7.741   6.237  10.896  0.0095 -2.3313 -0.7563
  107MOL0     H14065   7.725   6.339  11.108  3.0476 -0.0470  1.5524
  107MOL0     H14066   7.743   6.183  11.200 -1.8875 -0.6733 -0.4204
  107MOL0     H14067   7.503   6.253  11.166  0.7609  1.0037 -0.9974
  107MOL0     H14068   7.531   6.192  11.001 -0.8490  0.9406  0.1503
  107MOL0     H14069   7.536   6.026  11.258  0.0543 -0.0904 -0.1522
  107MOL0     H14070   7.615   5.977  11.113 -1.1981 -1.9086  1.4923
  107MOL0     H14071   7.381   5.888  11.116  0.2065  1.4074  1.4342
  107MOL0     H14072   7.424   5.965  10.973  2.4552 -2.4301  0.7194
  107MOL0     H14073   7.285   6.162  11.075 -2.1511  0.3262  2.8416
  107MOL0     H14074   7.186   6.034  11.047 -3.2437  0.3293  2.9074
  107MOL0     H14075   7.210   6.168  11.284  0.0097  0.0054  0.7187
  107MOL0     H14076   7.300   6.017  11.319  1.1428 -0.3018 -1.3343
  107MOL0     H14077   6.959   6.152  11.190  1.5623 -0.2385  0.7798
  107MOL0     H14078   6.718   6.051  11.109 -2.5858 -0.5716  2.1235
  107MOL0     H14079   6.686   5.959  11.252  1.2351  1.6241  1.0254
  107MOL0     H14080   6.587   5.838  11.076 -0.1992  1.2300 -1.3230
  107MOL0     H14081   6.736   5.761  11.137  0.1353  0.7030  1.7755
  107MOL0     H14082   6.857   5.855  10.954 -1.1155  0.6045  3.2005
  107MOL0     H14083   6.736   5.740  10.901 -0.2718  1.5349 -1.1040
  107MOL0     H14084   6.584   5.956  10.874  0.7244  0.4696  1.3964
  107MOL0     H14085   6.699   5.910  10.741 -0.0436  1.9769 -1.2089
  107MOL0     H14086   6.880   6.301  10.940  0.2479  0.2385 -1.8611
  107MOL0     H14087   7.121   6.336  10.909  1.0095 -2.2123  0.7958
  107MOL0     H14088   7.525   6.323  10.619  0.4113 -0.5144 -0.7368
  107MOL0     H14089   7.753   6.283  10.616  0.2022 -0.7779  2.5922
  107MOL0     H14090   7.983   6.226  10.620  0.1535 -2.9142  1.4332
  107MOL0     H14091   7.924   6.185  10.450 -0.3880  2.1158  0.1038
  107MOL0     H14092   8.145   6.156  10.431  0.1185 -0.2698  0.6928
  107MOL0     H14093   8.099   5.987  10.457 -0.0232 -1.5945  2.0632
  107MOL0     H14094   8.144   5.993  10.702  2.7604  2.1472  1.6206
  107MOL0     H14095   8.201   6.158  10.683  0.4614  1.1532 -0.2490
  107MOL0     H14096   8.316   5.913  10.550  1.8172 -2.8590  1.7996
  107MOL0     H14097   8.391   6.081  10.553 -1.0999 -0.4031 -1.5479
  107MOL0     H14098   8.363   5.870  10.761  0.4023  0.5779  0.4666
  107MOL0     H14099   8.371   6.043  10.811 -0.8388 -2.2547  3.4693
  107MOL0     H14100   8.583   6.049  10.684 -0.3712 -0.5691 -0.9095
  107MOL0     H14101   8.577   5.874  10.651  1.6655  1.9068 -0.6852
  107MOL0     H14102   8.617   6.031  10.907  1.9715  0.8653 -2.0113
  107MOL0     H14103   8.543   5.865  10.920  2.8792 -1.4198  0.8095
  107MOL0     H14104   8.806   5.955  10.780 -3.6029  1.3813 -1.2980
  107MOL0     H14105   8.753   5.789  10.804 -2.6427  0.4845 -0.8264
  107MOL0     H14106   7.705   5.859  10.622 -2.6313 -0.6330  2.3684
  107MOL0     H14107   7.458   5.898  10.615  0.8357 -1.1981  1.1958
  107MOL0     H14108   7.135   6.002  10.651 -0.5381  0.5763 -0.3860
  107MOL0     H14109   6.907   5.955  10.676  0.1649 -0.9919  1.3731
  107MOL0     H14110   8.089   6.558  10.853 -0.2285 -0.5528 -1.9943
  107MOL0     H14111   8.309   6.618  10.884 -1.7492 -1.3383 -4.1897
  107MOL0     H14112   8.668   6.648  11.114  0.0334  1.8679  0.2199
  107MOL0     H14113   8.871   6.743  11.156  1.0678 -2.2460  2.2525
  107MOL0     H14114   9.195   6.682  10.865  0.2082 -0.6181 -0.1076
  107MOL0     H14115   9.159   6.615  11.031  1.5206  0.2644  0.8967
  107MOL0     H14116   9.274   6.832  11.110 -0.7670  0.4481 -1.3883
  107MOL0     H14117   9.356   6.669  11.081 -4.0949 -1.9123  2.3881
  107MOL0     H14118   9.352   6.878  10.873  0.9793  1.8918  1.2674
  107MOL0     H14119   9.466   6.748  10.893  0.1646 -0.0362  0.5283
  107MOL0     H14120   9.441   6.994  11.079 -1.9017 -0.0197 -1.4634
  107MOL0     H14121   9.566   6.854  11.107 -0.2599 -1.0020 -0.2696
  107MOL0     H14122   9.744   7.075  10.797  0.5202 -2.0565 -0.4508
  107MOL0     H14123   8.992   6.679  10.741 -0.2413 -1.1674  0.9394
  107MOL0     H14124   8.773   6.577  10.701  2.1015  1.1593 -1.5552
  108MOL0     O14125   8.199   8.236   6.943  0.3934  0.3213  0.3978
  108MOL0     C14126   8.280   8.190   6.865 -0.8764 -0.5698  0.4357
  108MOL0     O14127   8.253   8.145   6.739  0.5315 -0.7118  0.0387
  108MOL0     C14128   8.121   8.127   6.707 -0.1543 -0.7267  0.2216
  108MOL0     C14129   8.039   8.049   6.787  0.0747  0.5558  0.1822
  108MOL0     C14130   7.901   8.029   6.758  0.6038 -0.3048  1.1016
  108MOL0     C14131   7.850   8.078   6.638 -0.8175  0.2620 -0.0267
  108MOL0     O14132   7.717   8.057   6.622  0.5765  0.1161 -0.6159
  108MOL0     C14133   7.662   8.068   6.495  0.2228 -0.5859  0.2005
  108MOL0     C14134   7.511   8.044   6.491  0.1141  0.1855 -0.1763
  108MOL0     C14135   7.420   8.110   6.596 -0.1977 -0.1831  1.6074
  108MOL0     C14136   7.276   8.081   6.565  0.0983 -0.2601 -0.8597
  108MOL0     C14137   7.206   8.156   6.674  0.2053  0.5001  0.8527
  108MOL0     C14138   7.059   8.113   6.663 -0.5787  0.3870  0.0152
  108MOL0     C14139   6.967   8.215   6.741  0.7739 -0.5660 -0.9193
  108MOL0     C14140   6.822   8.194   6.708  0.3058 -0.2731 -0.2162
  108MOL0     N14141   6.730   8.298   6.746 -0.0303 -0.6290  0.0774
  108MOL0     C14142   6.721   8.416   6.677  0.3160  0.8779 -0.7634
  108MOL0     C14143   6.658   8.497   6.766 -0.2297  0.1991  0.3028
  108MOL0     C14144   6.609   8.643   6.749 -0.5599 -0.5551  0.4591
  108MOL0     C14145   6.463   8.651   6.729  0.4113 -0.0491  0.3877
  108MOL0     C14146   6.394   8.666   6.870 -0.8060 -0.5016 -0.1018
  108MOL0     C14147   6.243   8.647   6.852 -0.1639 -0.2043  0.7592
  108MOL0     O14148   6.183   8.722   6.743  0.2168  0.7111 -0.1169
  108MOL0     C14149   6.050   8.700   6.720 -0.1666 -0.1815 -1.2658
  108MOL0     C14150   5.984   8.785   6.622 -0.3941  1.3140  0.0444
  108MOL0     C14151   5.843   8.783   6.610 -0.1090 -0.5261 -0.5024
  108MOL0     C14152   5.772   8.678   6.671  0.2795  0.3497  0.0758
  108MOL0     C14153   5.633   8.669   6.617 -0.1113  0.2250 -0.3435
  108MOL0     O14154   5.540   8.613   6.695  0.6804  0.2713  0.1703
  108MOL0     C14155   5.404   8.616   6.658 -0.3602 -0.2531  0.7798
  108MOL0     C14156   5.318   8.698   6.738 -0.7548 -0.5566 -0.7195
  108MOL0     C14157   5.180   8.709   6.719 -0.5084 -0.1065 -0.9500
  108MOL0     C14158   5.125   8.637   6.615 -0.0093  0.2925 -0.0472
  108MOL0     O14159   4.986   8.628   6.593 -0.5761  0.6313 -0.1537
  108MOL0     C14160   4.907   8.661   6.713  0.5578  0.3726 -0.2391
  108MOL0     C14161   4.759   8.617   6.707 -0.3557 -0.8300 -0.0860
  108MOL0     C14162   4.681   8.704   6.605 -0.3094  0.1865 -0.5782
  108MOL0     C14163   4.591   8.618   6.526 -0.2863 -0.0723  1.0211
  108MOL0     C14164   4.502   8.703   6.445  0.2178 -0.1798 -0.3539
  108MOL0     C14165   4.410   8.622   6.348 -0.1580  0.6850  0.0778
  108MOL0     C14166   4.337   8.718   6.247 -0.6769 -0.5010  0.3682
  108MOL0     C14167   4.241   8.642   6.162  0.2540  0.6129 -0.3074
  108MOL0    Cl14168   4.131   8.550   6.269  0.1261 -0.0746  0.3113
  108MOL0     C14169   5.206   8.568   6.527 -0.9422 -0.6448  0.5941
  108MOL0     C14170   5.345   8.558   6.551  0.7884  1.0823  0.2491
  108MOL0     O14171   5.613   8.715   6.508 -0.1982 -0.4548  0.8804
  108MOL0     C14172   5.831   8.593   6.765  1.1849 -0.4437 -0.4119
  108MOL0     C14173   5.967   8.603   6.788  0.3955 -0.1783 -0.1464
  108MOL0     N14174   6.623   8.430   6.881 -0.5331  0.7111 -0.8860
  108MOL0     N14175   6.683   8.318   6.876 -0.3024 -0.5792 -0.1608
  108MOL0     C14176   7.933   8.152   6.550 -0.0033  0.4627 -0.0857
  108MOL0     C14177   8.068   8.176   6.585 -0.5523  0.2021  0.1552
  108MOL0     C14178   8.422   8.222   6.899  0.3413  0.0660  0.9524
  108MOL0     C14179   8.457   8.320   6.998 -0.3863 -0.3508 -0.6173
  108MOL0     C14180   8.579   8.316   7.059 -1.3549 -0.0832 -0.7076
  108MOL0     C14181   8.685   8.247   6.996  0.0454 -0.4339  0.0520
  108MOL0     O14182   8.820   8.261   7.028  0.0380  0.5034 -0.1132
  108MOL0     C14183   8.859   8.374   7.102 -0.0081 -1.2673 -0.5979
  108MOL0     C14184   9.008   8.379   7.127  0.9665  0.2455  0.1086
  108MOL0     C14185   9.056   8.523   7.153  0.7354 -0.2012 -1.4781
  108MOL0     C14186   8.968   8.625   7.221 -0.1445 -0.2563 -0.3297
  108MOL0     C14187   9.035   8.744   7.248 -0.5764  0.2154 -0.7370
  108MOL0     C14188   9.095   8.851   7.263  0.0033  0.6983 -0.1480
  108MOL0     C14189   8.658   8.156   6.898 -0.6029 -0.4933 -0.2591
  108MOL0     C14190   8.521   8.139   6.851 -0.3460 -0.6686 -0.0337
  108MOL0     H14191   8.069   8.003   6.881 -0.9703 -0.4002  0.0618
  108MOL0     H14192   7.840   7.964   6.820 -0.4634  0.4843  0.9169
  108MOL0     H14193   7.708   7.992   6.432 -2.0026 -1.9518  0.0933
  108MOL0     H14194   7.678   8.168   6.456 -1.5185 -0.4951 -0.3727
  108MOL0     H14195   7.497   7.936   6.501 -2.5603  0.6053  1.4671
  108MOL0     H14196   7.474   8.084   6.397  1.2188  0.7725 -0.3805
  108MOL0     H14197   7.436   8.217   6.578  0.2345 -0.6644 -1.4240
  108MOL0     H14198   7.448   8.078   6.697 -3.8600  0.3786  2.9794
  108MOL0     H14199   7.240   8.106   6.465 -1.0668 -1.5315 -0.7803
  108MOL0     H14200   7.266   7.973   6.575  0.6244 -0.2768 -0.4898
  108MOL0     H14201   7.214   8.262   6.646 -1.0767 -0.0007 -1.7143
  108MOL0     H14202   7.241   8.146   6.777 -0.3896  2.8838  1.3523
  108MOL0     H14203   7.059   8.010   6.700  2.0930  0.3884  0.1782
  108MOL0     H14204   7.034   8.107   6.557 -0.3713  0.2250 -0.0241
  108MOL0     H14205   6.980   8.208   6.850  1.0479 -5.2554 -1.0298
  108MOL0     H14206   6.985   8.313   6.696 -0.1202 -0.9426 -2.1451
  108MOL0     H14207   6.797   8.095   6.746 -1.3895  0.4876  0.7759
  108MOL0     H14208   6.809   8.195   6.599 -1.0065  5.6348 -0.3689
  108MOL0     H14209   6.774   8.448   6.588  3.4070  0.9830  0.9518
  108MOL0     H14210   6.661   8.680   6.661  0.2788 -1.3040  0.6329
  108MOL0     H14211   6.643   8.711   6.827  3.4889 -0.1717 -1.3931
  108MOL0     H14212   6.434   8.553   6.690  0.9992 -1.2009  2.6561
  108MOL0     H14213   6.446   8.734   6.660  1.0617  0.5214  0.8978
  108MOL0     H14214   6.448   8.613   6.949  1.7924  1.1795 -0.6268
  108MOL0     H14215   6.414   8.768   6.902  0.0079 -1.0973  1.3865
  108MOL0     H14216   6.190   8.671   6.945  0.9895  3.5388  0.6275
  108MOL0     H14217   6.244   8.542   6.823  0.9058  0.4318 -1.8336
  108MOL0     H14218   6.032   8.858   6.558 -0.5841  0.2672 -1.3316
  108MOL0     H14219   5.796   8.858   6.547  0.1280  1.0203  1.0871
  108MOL0     H14220   5.367   8.747   6.822 -0.9466 -2.0492  0.2996
  108MOL0     H14221   5.113   8.763   6.786  1.3272  1.5529 -0.3480
  108MOL0     H14222   4.907   8.769   6.730 -0.2422  0.4924 -0.9241
  108MOL0     H14223   4.945   8.620   6.807 -1.4865 -0.3192  0.3510
  108MOL0     H14224   4.719   8.625   6.808  1.1882 -0.1500  0.4990
  108MOL0     H14225   4.751   8.512   6.680  2.0291 -1.5988  1.9584
  108MOL0     H14226   4.756   8.746   6.537  0.9584  0.0579  0.6715
  108MOL0     H14227   4.645   8.789   6.663  0.7739  0.5206 -0.3571
  108MOL0     H14228   4.651   8.563   6.454  0.3731  1.3324  0.4567
  108MOL0     H14229   4.527   8.546   6.579  0.7244 -2.3175 -0.6582
  108MOL0     H14230   4.563   8.773   6.387 -1.1387  1.1890 -0.1914
  108MOL0     H14231   4.446   8.762   6.518 -1.3322 -1.9487 -0.0264
  108MOL0     H14232   4.339   8.561   6.404  0.2435  0.7145  0.6192
  108MOL0     H14233   4.466   8.546   6.292 -1.2856 -1.0182  1.1542
  108MOL0     H14234   4.281   8.795   6.302  0.1027  1.2535 -1.1701
  108MOL0     H14235   4.410   8.764   6.179  0.9139 -1.8633  1.0816
  108MOL0     H14236   4.292   8.569   6.099  1.7623  1.1757  0.2130
  108MOL0     H14237   4.189   8.706   6.090 -1.1651  2.4101  2.1473
  108MOL0     H14238   5.166   8.523   6.437 -0.1791  0.0455 -0.1123
  108MOL0     H14239   5.402   8.497   6.481  0.5808  1.6695 -0.4528
  108MOL0     H14240   5.773   8.520   6.822  1.4908  0.1910  0.7520
  108MOL0     H14241   6.003   8.541   6.870 -2.1317  0.8080  1.8313
  108MOL0     H14242   7.895   8.205   6.462  1.2693  0.2455 -0.7936
  108MOL0     H14243   8.129   8.235   6.516 -0.6362 -0.2609 -0.3189
  108MOL0     H14244   8.372   8.376   7.036 -0.0658  1.0042 -1.8013
  108MOL0     H14245   8.597   8.381   7.144 -3.5505 -2.0156  1.3964
  108MOL0     H14246   8.812   8.378   7.201  1.1595 -2.7080  0.0502
  108MOL0     H14247   8.837   8.465   7.046 -1.9143 -1.5930 -0.4353
  108MOL0     H14248   9.025   8.304   7.205 -0.1050  1.9140  2.0331
  108MOL0     H14249   9.067   8.336   7.045  0.2198  0.0108 -0.3114
  108MOL0     H14250   9.099   8.583   7.072  3.4352  0.2751  0.2049
  108MOL0     H14251   9.138   8.498   7.220 -0.9078 -1.0977  0.3016
  108MOL0     H14252   8.878   8.656   7.167  1.5767 -0.1599 -3.3010
  108MOL0     H14253   8.937   8.587   7.319 -0.8353  1.1879  0.0280
  108MOL0     H14254   9.145   8.938   7.300  0.0073 -0.5321  2.9973
  108MOL0     H14255   8.730   8.091   6.850 -0.5224 -1.4561  1.1030
  108MOL0     H14256   8.496   8.058   6.783 -0.9398 -1.4260  1.0586
  109MOL0     O14257   1.133   6.419   8.153 -0.0617  0.4595 -0.0035
  109MOL0     C14258   1.219   6.331   8.172 -0.6615 -0.2596 -0.5039
  109MOL0     O14259   1.204   6.204   8.221  0.2568  1.0509 -0.1198
  109MOL0     C14260   1.075   6.162   8.253  0.3839  0.6873 -0.0743
  109MOL0     C14261   1.021   6.046   8.201 -0.1889 -0.8375 -0.0938
  109MOL0     C14262   0.892   6.000   8.248 -0.2851  0.4756  0.7470
  109MOL0     C14263   0.817   6.091   8.326  0.1333  0.8620 -0.4281
  109MOL0     O14264   0.690   6.061   8.374 -0.1962  0.5996 -0.8007
  109MOL0     C14265   0.614   5.945   8.326  0.5157 -0.3971  0.7795
  109MOL0     C14266   0.470   5.960   8.361 -0.0543 -1.2416  0.9726
  109MOL0     C14267   0.384   5.844   8.321 -0.4427 -0.6486  0.0161
  109MOL0     C14268   0.233   5.861   8.377 -0.3010  0.0315  0.8525
  109MOL0     C14269   0.141   5.749   8.334 -0.2673  0.7944 -0.9241
  109MOL0     C14270  -0.010   5.794   8.335 -0.2546 -0.0266 -0.6211
  109MOL0     C14271  -0.060   5.844   8.474  0.3829 -1.3438  0.3027
  109MOL0     C14272  -0.104   5.737   8.572 -0.2696  0.1685  0.1795
  109MOL0     N14273   0.008   5.652   8.604 -0.1648 -0.4997  0.6462
  109MOL0     C14274   0.116   5.699   8.676 -0.4881 -0.1883  0.5959
  109MOL0     C14275   0.199   5.593   8.674  0.1945 -0.2427 -0.3973
  109MOL0     C14276   0.330   5.596   8.748  0.6603 -0.1697 -0.5233
  109MOL0     C14277   0.430   5.697   8.685 -1.1474  1.0100  1.4518
  109MOL0     C14278   0.558   5.711   8.763 -0.0199 -0.0214 -0.4222
  109MOL0     C14279   0.662   5.790   8.681  0.8189 -0.6214 -0.0426
  109MOL0     O14280   0.733   5.711   8.588  0.0919 -0.2507  0.0713
  109MOL0     C14281   0.858   5.744   8.550 -0.0003 -0.6937  0.1035
  109MOL0     C14282   0.933   5.652   8.469 -0.1059 -0.1577  0.1859
  109MOL0     C14283   1.058   5.682   8.416 -0.1914 -1.2140  1.9416
  109MOL0     C14284   1.116   5.815   8.444 -0.1821 -0.8172 -0.5374
  109MOL0     C14285   1.253   5.853   8.393 -0.5488  0.0553 -0.4687
  109MOL0     O14286   1.292   5.976   8.435 -0.1642  0.2553  0.2499
  109MOL0     C14287   1.413   6.031   8.421 -0.9500 -1.0865  0.8498
  109MOL0     C14288   1.435   6.145   8.494  0.8110  0.0025 -1.2752
  109MOL0     C14289   1.560   6.210   8.513  0.5075  0.4380  0.4473
  109MOL0     C14290   1.669   6.161   8.445  0.0289 -0.4408 -0.5725
  109MOL0     O14291   1.791   6.228   8.464  0.1644  0.5128 -0.2742
  109MOL0     C14292   1.909   6.153   8.436 -1.7159  0.4395  0.1885
  109MOL0     C14293   2.011   6.252   8.500  0.5565 -0.1298 -0.6318
  109MOL0     C14294   2.165   6.205   8.479  0.7036  0.7022  0.7146
  109MOL0     C14295   2.216   6.205   8.336 -0.5117 -0.0602  0.0270
  109MOL0     C14296   2.361   6.168   8.321  0.4446 -0.1760  0.5721
  109MOL0     C14297   2.389   6.086   8.193  0.1782 -1.0457 -0.5874
  109MOL0     C14298   2.539   6.059   8.181 -0.6025  0.0214  0.0016
  109MOL0     C14299   2.591   5.964   8.068  1.4042 -0.4855  0.4417
  109MOL0    Cl14300   2.500   6.001   7.920  0.0700  0.6929  0.0529
  109MOL0     C14301   1.653   6.043   8.372 -0.6335  0.9268 -0.0655
  109MOL0     C14302   1.531   5.985   8.350 -0.9325  0.1443  0.0419
  109MOL0     O14303   1.318   5.766   8.333  0.0768 -0.1659 -0.5193
  109MOL0     C14304   1.047   5.896   8.526 -0.1469 -0.9905 -0.0654
  109MOL0     C14305   0.917   5.869   8.574 -0.5924 -0.0519  0.1828
  109MOL0     N14306   0.133   5.481   8.625  0.0179  0.2849 -0.1163
  109MOL0     N14307   0.016   5.518   8.573 -0.1726 -0.7099  0.0627
  109MOL0     C14308   0.874   6.206   8.377  1.0194 -0.2665  0.3898
  109MOL0     C14309   1.002   6.234   8.347 -0.4242 -0.1310  0.8310
  109MOL0     C14310   1.352   6.373   8.135 -0.7645 -0.3309 -0.0892
  109MOL0     C14311   1.380   6.513   8.107 -0.1812  0.3730  0.2032
  109MOL0     C14312   1.514   6.559   8.078 -0.2202  0.7797  1.2060
  109MOL0     C14313   1.617   6.467   8.058 -0.0338  0.0671  0.0739
  109MOL0     O14314   1.749   6.498   8.028 -0.7784 -0.4256 -0.2007
  109MOL0     C14315   1.826   6.492   8.148 -0.2801 -0.8834 -0.1643
  109MOL0     C14316   1.970   6.557   8.121  0.8608  0.1764 -0.9128
  109MOL0     C14317   2.048   6.601   8.236  0.3863 -0.7312  0.3651
  109MOL0     C14318   2.196   6.630   8.209 -0.3344  0.2753 -0.3357
  109MOL0     C14319   2.271   6.718   8.305  0.4351 -0.2391  0.0122
  109MOL0     C14320   2.338   6.789   8.383  0.6852  0.2199  0.2412
  109MOL0     C14321   1.583   6.333   8.079 -0.2881  0.2392 -0.0202
  109MOL0     C14322   1.458   6.290   8.132  0.3111  0.1983 -0.1810
  109MOL0     H14323   1.089   5.989   8.137  1.4466 -1.8672  2.4089
  109MOL0     H14324   0.844   5.907   8.220 -0.1763  0.9370 -1.0402
  109MOL0     H14325   0.651   5.856   8.378 -0.2438 -0.5641  1.0520
  109MOL0     H14326   0.634   5.924   8.221 -1.9159 -1.9788  0.5611
  109MOL0     H14327   0.436   6.054   8.317  1.1801 -1.4936 -0.5748
  109MOL0     H14328   0.464   5.984   8.468 -0.3637  3.4894  0.0954
  109MOL0     H14329   0.430   5.748   8.344 -0.8354 -0.7981  0.1931
  109MOL0     H14330   0.378   5.838   8.212  1.3100 -0.6796 -0.1122
  109MOL0     H14331   0.248   5.874   8.485 -0.3392  2.5663  0.6159
  109MOL0     H14332   0.181   5.955   8.356  2.1106  2.4422  4.4116
  109MOL0     H14333   0.157   5.654   8.387  0.6662  1.0489 -0.7323
  109MOL0     H14334   0.170   5.716   8.234  1.9518  1.5688 -0.5702
  109MOL0     H14335  -0.074   5.706   8.318  0.3360 -0.3883 -0.9926
  109MOL0     H14336  -0.031   5.864   8.254 -1.6462 -2.6650 -2.7241
  109MOL0     H14337   0.019   5.906   8.517 -1.7156  2.9995 -1.4175
  109MOL0     H14338  -0.139   5.913   8.444  1.5888  0.3464  0.8812
  109MOL0     H14339  -0.190   5.680   8.536 -0.3505 -0.5863  1.4816
  109MOL0     H14340  -0.130   5.791   8.664  4.4464 -1.2111  2.6476
  109MOL0     H14341   0.139   5.799   8.711  2.8306 -0.9357  0.9132
  109MOL0     H14342   0.378   5.498   8.743  2.4841  0.6167  0.3746
  109MOL0     H14343   0.309   5.618   8.853 -2.0760  0.2780 -1.1057
  109MOL0     H14344   0.380   5.793   8.669  0.0210  1.2501 -1.5693
  109MOL0     H14345   0.462   5.663   8.586  1.8268  0.8662  2.3508
  109MOL0     H14346   0.533   5.765   8.855 -1.7192 -0.5748 -0.5195
  109MOL0     H14347   0.605   5.619   8.797 -1.4891  0.4159  3.2848
  109MOL0     H14348   0.735   5.828   8.753  2.7326 -1.8987 -1.1959
  109MOL0     H14349   0.616   5.877   8.634  1.7850 -1.6878 -3.1932
  109MOL0     H14350   0.891   5.555   8.446 -0.8912  0.5107 -1.3566
  109MOL0     H14351   1.105   5.609   8.351  0.8310 -0.0485  1.3312
  109MOL0     H14352   1.355   6.175   8.562  2.9916  1.0319  0.9762
  109MOL0     H14353   1.578   6.297   8.575 -1.5998  1.7908 -0.6982
  109MOL0     H14354   1.921   6.146   8.328 -0.3379 -0.9628  0.4117
  109MOL0     H14355   1.913   6.051   8.476  1.1654 -0.3784 -1.8456
  109MOL0     H14356   1.988   6.256   8.606  0.9027  3.6332 -0.5755
  109MOL0     H14357   2.002   6.352   8.457 -2.1918  0.0423  0.1787
  109MOL0     H14358   2.177   6.109   8.530 -3.4615 -0.9201 -0.8680
  109MOL0     H14359   2.216   6.276   8.544 -0.9346  1.0666  1.6627
  109MOL0     H14360   2.154   6.141   8.273  1.5595 -0.7249 -1.4494
  109MOL0     H14361   2.201   6.309   8.306  0.0746  1.0225  3.0866
  109MOL0     H14362   2.404   6.107   8.402  1.5397 -0.4436 -0.1909
  109MOL0     H14363   2.412   6.265   8.324 -0.5511  0.3598  0.8388
  109MOL0     H14364   2.348   6.141   8.108 -2.7037  1.6505  2.2559
  109MOL0     H14365   2.338   5.990   8.208 -2.5094  0.3077 -0.4494
  109MOL0     H14366   2.590   6.149   8.145 -1.7660 -0.8198 -4.3969
  109MOL0     H14367   2.571   6.019   8.278 -2.7161  2.0561  1.6514
  109MOL0     H14368   2.567   5.861   8.096 -1.3162 -0.4415 -1.4118
  109MOL0     H14369   2.699   5.969   8.053  1.3462  1.1693  0.4270
  109MOL0     H14370   1.734   5.998   8.314 -1.5368 -0.1069 -0.5681
  109MOL0     H14371   1.515   5.904   8.279 -0.4100 -0.2337  0.3470
  109MOL0     H14372   1.086   5.994   8.551  1.6623 -1.2854 -1.5208
  109MOL0     H14373   0.873   5.956   8.622  1.1879 -1.2779  4.4607
  109MOL0     H14374   0.819   6.268   8.447  2.0322 -0.6039  1.5258
  109MOL0     H14375   1.058   6.310   8.399  0.2997 -1.0094  1.3689
  109MOL0     H14376   1.304   6.589   8.119 -0.5061  0.1051 -0.1033
  109MOL0     H14377   1.537   6.664   8.063 -0.4859  0.4138 -2.9692
  109MOL0     H14378   1.829   6.393   8.195  0.6463 -0.7486  0.0951
  109MOL0     H14379   1.779   6.544   8.231 -1.4067 -2.2551  0.0907
  109MOL0     H14380   2.030   6.493   8.055  1.2025  0.0390 -0.4772
  109MOL0     H14381   1.951   6.646   8.060 -4.1674 -1.8415 -2.7882
  109MOL0     H14382   2.054   6.520   8.310  3.7106 -1.7682 -0.8732
  109MOL0     H14383   1.998   6.688   8.281 -0.6300 -2.2307  2.3079
  109MOL0     H14384   2.254   6.537   8.207  1.8085  1.5506 -0.6474
  109MOL0     H14385   2.216   6.675   8.111 -1.3502  1.3053 -0.1005
  109MOL0     H14386   2.377   6.851   8.461  0.7382 -0.1711  0.5276
  109MOL0     H14387   1.661   6.260   8.060  0.8442  1.0745  1.1936
  109MOL0     H14388   1.442   6.183   8.146 -0.3989  0.4311  0.9085
  110MOL0     O14389   4.254   6.269   6.536  0.0859  0.8458 -0.3615
  110MOL0     C14390   4.218   6.373   6.588  0.4928  0.4367 -1.0349
  110MOL0     O14391   4.309   6.458   6.652 -0.2131 -0.1803  0.0857
  110MOL0     C14392   4.444   6.430   6.655 -0.3746  0.3660  0.9881
  110MOL0     C14393   4.508   6.380   6.776  0.5262 -0.2161  0.9424
  110MOL0     C14394   4.646   6.358   6.773 -0.5588 -0.3864  0.0965
  110MOL0     C14395   4.717   6.384   6.654 -0.7817 -0.3483  0.2611
  110MOL0     O14396   4.855   6.376   6.646 -0.8484 -0.1467 -0.4382
  110MOL0     C14397   4.911   6.256   6.692 -0.4222  0.4015  0.1748
  110MOL0     C14398   5.056   6.250   6.643 -0.5771  0.6035  0.4788
  110MOL0     C14399   5.105   6.108   6.599  0.6163  0.4764 -0.9939
  110MOL0     C14400   5.251   6.102   6.624 -0.5131 -0.0283  0.1526
  110MOL0     C14401   5.316   5.994   6.532 -0.1691  0.3653  0.2951
  110MOL0     C14402   5.300   5.862   6.605 -0.9153  1.5422  0.3597
  110MOL0     C14403   5.360   5.741   6.521 -0.8270 -0.0211 -0.0884
  110MOL0     C14404   5.295   5.608   6.522  0.2405 -0.6250 -0.5354
  110MOL0     N14405   5.146   5.601   6.493 -0.1704  0.8426 -0.4401
  110MOL0     C14406   5.100   5.587   6.362  0.1527 -0.4945 -0.1162
  110MOL0     C14407   4.970   5.586   6.373  0.6650 -0.2748 -0.1934
  110MOL0     C14408   4.877   5.578   6.255  1.3799 -0.5998  0.0333
  110MOL0     C14409   4.866   5.704   6.165 -0.1612  0.6617 -0.7094
  110MOL0     C14410   4.727   5.717   6.094  0.2492  0.1099  0.2517
  110MOL0     C14411   4.628   5.825   6.151 -0.0503  0.7305  0.4883
  110MOL0     O14412   4.519   5.822   6.055  0.2204  0.2483  0.4883
  110MOL0     C14413   4.441   5.932   6.043  0.7559 -0.5258 -0.3920
  110MOL0     C14414   4.345   5.944   5.936 -0.0892 -0.1236  0.1332
  110MOL0     C14415   4.256   6.047   5.924  0.2202 -0.1435  1.0267
  110MOL0     C14416   4.253   6.148   6.015 -0.0015  0.6680 -0.2896
  110MOL0     C14417   4.151   6.262   6.002  0.1918 -0.8461 -0.8688
  110MOL0     O14418   4.078   6.274   5.886  0.1857  0.1592 -1.0711
  110MOL0     C14419   4.007   6.389   5.864 -0.2735 -0.1184 -0.4357
  110MOL0     C14420   3.915   6.365   5.756 -0.1094  0.2624 -0.2799
  110MOL0     C14421   3.815   6.459   5.714 -0.2013 -0.2632  0.5911
  110MOL0     C14422   3.797   6.577   5.790  0.2431 -1.0518  0.9948
  110MOL0     O14423   3.698   6.667   5.768  0.1480 -0.3115 -0.3603
  110MOL0     C14424   3.593   6.619   5.674  0.0226 -0.1071 -0.3630
  110MOL0     C14425   3.474   6.717   5.676  0.3077 -0.1919  0.5166
  110MOL0     C14426   3.386   6.703   5.798  0.4555 -0.5740  1.1342
  110MOL0     C14427   3.282   6.824   5.810 -0.6154  0.9767  0.3134
  110MOL0     C14428   3.167   6.786   5.908  0.8432 -0.3144 -0.8009
  110MOL0     C14429   3.213   6.776   6.051 -0.2096  0.3093  0.4933
  110MOL0     C14430   3.213   6.908   6.120 -1.0231 -0.7344  0.5055
  110MOL0     C14431   3.242   6.902   6.274 -0.4082 -0.7316 -0.2852
  110MOL0    Cl14432   3.235   7.076   6.328  0.0182  0.1629  0.0608
  110MOL0     C14433   3.887   6.606   5.897 -0.3400 -0.1467  0.3464
  110MOL0     C14434   3.980   6.511   5.938 -0.4004 -0.1823  0.2518
  110MOL0     O14435   4.130   6.326   6.100  0.5358  0.9452 -0.1138
  110MOL0     C14436   4.336   6.136   6.132  0.0741  0.1701 -0.1193
  110MOL0     C14437   4.425   6.030   6.139 -1.0261 -0.0139  0.9550
  110MOL0     N14438   4.932   5.591   6.511 -0.5984  0.3067  0.4325
  110MOL0     N14439   5.037   5.586   6.578  0.7273  0.4005  0.4296
  110MOL0     C14440   4.658   6.441   6.549  0.3779  0.3460  0.3685
  110MOL0     C14441   4.517   6.465   6.544  0.6309 -0.7109  0.6578
  110MOL0     C14442   4.071   6.421   6.576 -0.0723 -0.6437 -0.4116
  110MOL0     C14443   3.991   6.365   6.483  0.4497 -0.3153  0.3607
  110MOL0     C14444   3.857   6.394   6.487 -0.0507  0.1791  0.6966
  110MOL0     C14445   3.800   6.487   6.577 -0.3072  0.8929  0.2081
  110MOL0     O14446   3.665   6.499   6.584  0.3022  0.1307  0.5841
  110MOL0     C14447   3.572   6.402   6.522 -0.5713 -1.0442  0.3145
  110MOL0     C14448   3.422   6.427   6.567  0.0610  0.6728 -0.2463
  110MOL0     C14449   3.362   6.560   6.520 -0.4776  0.4137 -0.7467
  110MOL0     C14450   3.222   6.564   6.574  0.6772 -0.2040 -0.2286
  110MOL0     C14451   3.180   6.705   6.597  0.2185  0.8564  0.5987
  110MOL0     C14452   3.158   6.823   6.599 -0.8474 -0.0748 -0.0183
  110MOL0     C14453   3.888   6.547   6.668  0.6851  0.3399  0.9282
  110MOL0     C14454   4.022   6.509   6.668 -0.2083 -1.1762 -1.0854
  110MOL0     H14455   4.438   6.349   6.853 -2.5623 -1.8774 -2.2497
  110MOL0     H14456   4.691   6.327   6.866 -0.6737  0.8561  0.5969
  110MOL0     H14457   4.856   6.175   6.643  0.3803 -0.9878  1.4950
  110MOL0     H14458   4.910   6.240   6.800 -2.6982 -0.7474  0.0550
  110MOL0     H14459   5.115   6.294   6.724 -2.6819 -0.5261  2.7348
  110MOL0     H14460   5.079   6.311   6.555 -2.5014 -0.5432 -0.8868
  110MOL0     H14461   5.090   6.088   6.493  2.1491  0.3848 -1.2169
  110MOL0     H14462   5.055   6.028   6.655  1.3663 -0.2383 -1.3178
  110MOL0     H14463   5.297   6.196   6.593  1.5134 -1.6393 -2.2184
  110MOL0     H14464   5.270   6.076   6.728  0.4309  1.5686  0.4028
  110MOL0     H14465   5.422   6.020   6.519 -0.1514  0.9092  1.3980
  110MOL0     H14466   5.271   6.003   6.433 -2.5876  0.4238  1.3256
  110MOL0     H14467   5.193   5.838   6.611  0.0527 -3.7849  0.4915
  110MOL0     H14468   5.348   5.864   6.703  4.1007 -2.4925 -1.5941
  110MOL0     H14469   5.346   5.774   6.417  0.3485 -0.3966 -0.3878
  110MOL0     H14470   5.467   5.738   6.545 -0.8127  1.7129  0.1974
  110MOL0     H14471   5.313   5.564   6.620 -0.9902 -4.7948 -1.9506
  110MOL0     H14472   5.348   5.538   6.457 -0.6057  0.0401 -2.0137
  110MOL0     H14473   5.164   5.574   6.275  0.6167 -1.6071  0.3747
  110MOL0     H14474   4.780   5.555   6.300  0.4519  1.0372 -1.0147
  110MOL0     H14475   4.895   5.488   6.197  0.9840 -0.8225  0.2439
  110MOL0     H14476   4.938   5.692   6.084 -0.0332  2.0697 -0.8119
  110MOL0     H14477   4.889   5.793   6.224  0.2386  1.3514 -1.8796
  110MOL0     H14478   4.748   5.755   5.993  0.0661  1.0629  0.5603
  110MOL0     H14479   4.674   5.622   6.094  0.8463 -0.2841  2.5070
  110MOL0     H14480   4.672   5.924   6.137 -3.0720  1.9405 -1.4857
  110MOL0     H14481   4.600   5.820   6.256 -0.9753  3.1313  0.4163
  110MOL0     H14482   4.347   5.863   5.863 -1.4570  0.1833 -0.2753
  110MOL0     H14483   4.188   6.049   5.840  2.7229 -0.8699 -1.1579
  110MOL0     H14484   3.931   6.278   5.694 -2.1339  0.0460 -0.5694
  110MOL0     H14485   3.750   6.439   5.629 -0.5281  3.0960 -0.0643
  110MOL0     H14486   3.565   6.518   5.703  0.5790  0.5847  3.0489
  110MOL0     H14487   3.622   6.611   5.569 -0.3445 -1.2348 -0.3883
  110MOL0     H14488   3.406   6.693   5.594 -1.6690  1.6097  1.5401
  110MOL0     H14489   3.504   6.820   5.658  2.9270 -0.8523  0.6011
  110MOL0     H14490   3.449   6.700   5.888  1.5346  2.3042  0.6010
  110MOL0     H14491   3.336   6.607   5.789 -1.8230  0.4343  2.2536
  110MOL0     H14492   3.326   6.920   5.841 -0.4436  1.0798 -0.2489
  110MOL0     H14493   3.241   6.844   5.711 -0.0367  0.0497 -0.1306
  110MOL0     H14494   3.142   6.682   5.889 -1.5050 -0.0661  0.5203
  110MOL0     H14495   3.085   6.859   5.908  2.2846  1.3997  0.1165
  110MOL0     H14496   3.313   6.739   6.030  0.9941  5.0657 -4.7553
  110MOL0     H14497   3.153   6.707   6.111 -1.0247  3.4706  3.6805
  110MOL0     H14498   3.297   6.964   6.076  0.0902 -2.6400  0.1128
  110MOL0     H14499   3.117   6.956   6.101  0.0451  1.2387 -0.3258
  110MOL0     H14500   3.339   6.856   6.294 -0.2995  0.6370  3.1318
  110MOL0     H14501   3.152   6.848   6.306 -2.8405  2.6155 -0.8703
  110MOL0     H14502   3.858   6.690   5.959  0.6253  1.1931 -0.9375
  110MOL0     H14503   4.015   6.530   6.039 -2.3329 -1.0134  1.1397
  110MOL0     H14504   4.337   6.213   6.209  1.0620  1.2415 -1.1762
  110MOL0     H14505   4.495   6.031   6.222  3.1742  1.3131 -2.2550
  110MOL0     H14506   4.727   6.470   6.471 -0.3747 -2.7282 -1.6163
  110MOL0     H14507   4.477   6.503   6.451 -1.9700 -0.8117  1.6382
  110MOL0     H14508   4.035   6.296   6.411  1.8259  0.4772  0.3929
  110MOL0     H14509   3.802   6.340   6.411 -0.1225  0.5219  0.5020
  110MOL0     H14510   3.583   6.299   6.557 -1.2922 -1.6189 -1.0562
  110MOL0     H14511   3.575   6.407   6.413 -1.2308 -0.6444  0.3087
  110MOL0     H14512   3.357   6.343   6.539  0.4088  1.1800 -2.8185
  110MOL0     H14513   3.413   6.439   6.675 -0.2895  0.4202 -0.2450
  110MOL0     H14514   3.370   6.564   6.411 -0.8608  0.8369 -0.7637
  110MOL0     H14515   3.424   6.645   6.548  1.1147 -1.1030  0.5200
  110MOL0     H14516   3.153   6.515   6.504 -0.5863 -0.4618  1.1629
  110MOL0     H14517   3.227   6.510   6.669  4.9097 -1.0890 -0.7490
  110MOL0     H14518   3.125   6.925   6.597  5.0021  2.2261  0.1069
  110MOL0     H14519   3.843   6.609   6.745 -0.1102  0.5316  0.3164
  110MOL0     H14520   4.096   6.543   6.740 -0.9570 -1.1365 -0.3239
  111MOL0     O14521   2.078   4.966   5.838 -0.4570  0.0541  0.3927
  111MOL0     C14522   2.068   5.078   5.794 -0.6013 -0.3538 -0.5424
  111MOL0     O14523   2.142   5.187   5.831 -0.2846  0.2520  0.0107
  111MOL0     C14524   2.197   5.184   5.959 -0.3574 -0.0215  0.5652
  111MOL0     C14525   2.280   5.290   5.985  1.1580 -0.1093 -0.1912
  111MOL0     C14526   2.339   5.300   6.110 -0.0370 -0.3178  0.1777
  111MOL0     C14527   2.317   5.209   6.222 -0.6251 -0.8480  1.5158
  111MOL0     O14528   2.392   5.244   6.336 -0.6513 -0.3007 -0.2646
  111MOL0     C14529   2.385   5.160   6.450  0.0458  0.5271 -0.4693
  111MOL0     C14530   2.517   5.101   6.486  0.3718  0.2996 -0.5932
  111MOL0     C14531   2.623   5.207   6.537  1.1136  0.3343 -0.3175
  111MOL0     C14532   2.735   5.137   6.611 -0.2673 -0.1175 -0.0306
  111MOL0     C14533   2.817   5.243   6.680 -0.0160  0.0905  0.0781
  111MOL0     C14534   2.905   5.321   6.578 -0.0213 -0.5363  0.5564
  111MOL0     C14535   3.011   5.408   6.658 -0.0479 -1.2484  0.0750
  111MOL0     C14536   3.131   5.324   6.687 -0.4079  0.4116  0.4520
  111MOL0     N14537   3.229   5.403   6.756 -0.5637 -0.4848 -0.1101
  111MOL0     C14538   3.340   5.467   6.700  0.4991 -0.5222 -1.4279
  111MOL0     C14539   3.407   5.517   6.803 -0.2116  0.3824 -0.4888
  111MOL0     C14540   3.540   5.596   6.801  0.4269  0.4138  0.8941
  111MOL0     C14541   3.539   5.722   6.710  0.7750  0.6241  0.2224
  111MOL0     C14542   3.629   5.832   6.759 -0.4895  0.6922 -0.4993
  111MOL0     C14543   3.785   5.806   6.761  0.5007  0.0679  0.1150
  111MOL0     O14544   3.816   5.674   6.815  0.4016  0.4114 -0.2237
  111MOL0     C14545   3.952   5.671   6.838  0.0542 -0.5173 -0.4972
  111MOL0     C14546   3.990   5.712   6.966  0.0403  0.1329 -0.0212
  111MOL0     C14547   4.116   5.691   7.011 -0.2307  0.5767 -0.2903
  111MOL0     C14548   4.208   5.633   6.921 -0.2259  0.5423 -1.2113
  111MOL0     C14549   4.353   5.615   6.956 -0.2930  0.0464  0.5871
  111MOL0     O14550   4.390   5.646   7.086  0.1767 -0.1069 -0.3985
  111MOL0     C14551   4.515   5.635   7.137  0.7721 -0.2675  0.4378
  111MOL0     C14552   4.549   5.728   7.234 -0.4154 -0.4861  0.1105
  111MOL0     C14553   4.666   5.714   7.301  0.5983 -0.6045  0.5363
  111MOL0     C14554   4.759   5.616   7.263 -0.4268 -0.2237  0.2723
  111MOL0     O14555   4.877   5.610   7.325 -0.0128 -0.4009 -1.3607
  111MOL0     C14556   4.925   5.727   7.401  0.5349  0.1749 -0.0058
  111MOL0     C14557   5.065   5.698   7.458 -0.1638  1.2078 -0.2848
  111MOL0     C14558   5.057   5.596   7.572  0.4411  0.5670 -0.8088
  111MOL0     C14559   5.201   5.548   7.604 -0.8345 -0.2120  0.4665
  111MOL0     C14560   5.212   5.418   7.675 -0.8107  0.1603  0.0830
  111MOL0     C14561   5.356   5.365   7.667  0.5737 -0.3829 -0.9195
  111MOL0     C14562   5.390   5.306   7.526 -0.1883 -0.4695 -0.3390
  111MOL0     C14563   5.492   5.187   7.538 -0.7121 -0.0383  0.1157
  111MOL0    Cl14564   5.536   5.111   7.382 -0.3404  0.0268  0.0537
  111MOL0     C14565   4.731   5.524   7.165 -0.6392 -0.3190  0.2760
  111MOL0     C14566   4.609   5.538   7.100 -0.2977 -1.1132  1.0462
  111MOL0     O14567   4.431   5.605   6.861 -1.0970 -0.3311  0.7387
  111MOL0     C14568   4.174   5.590   6.799  0.5305 -0.2281 -0.0155
  111MOL0     C14569   4.040   5.611   6.758 -1.0755 -0.4930 -0.2378
  111MOL0     N14570   3.346   5.483   6.918  0.2489  0.1812  0.2402
  111MOL0     N14571   3.238   5.417   6.896 -0.0525  0.4706 -0.7365
  111MOL0     C14572   2.227   5.099   6.202 -0.5401 -0.2573  0.4807
  111MOL0     C14573   2.170   5.093   6.071  0.7587  0.0393  0.0604
  111MOL0     C14574   1.998   5.101   5.667 -0.0424 -0.2222  0.5227
  111MOL0     C14575   2.006   5.217   5.587 -0.4820 -0.7558 -0.1621
  111MOL0     C14576   1.941   5.219   5.467  0.6200 -0.0710  0.6766
  111MOL0     C14577   1.845   5.114   5.429 -0.6013  0.9494  0.1455
  111MOL0     O14578   1.770   5.128   5.323 -0.6451 -0.4027 -0.1605
  111MOL0     C14579   1.633   5.099   5.337  0.4924 -0.4494 -0.2560
  111MOL0     C14580   1.549   5.202   5.270  0.2180  0.5649  0.8428
  111MOL0     C14581   1.564   5.210   5.110  0.4515 -0.1446 -0.8483
  111MOL0     C14582   1.532   5.070   5.045  0.2002 -0.1639  0.4820
  111MOL0     C14583   1.387   5.044   5.063  0.8791  1.1759 -0.0954
  111MOL0     C14584   1.274   5.007   5.060  0.2352  0.2703  0.4767
  111MOL0     C14585   1.850   4.995   5.504  0.3572 -0.7875  0.4173
  111MOL0     C14586   1.929   4.992   5.616 -0.5724  0.3825 -0.1478
  111MOL0     H14587   2.278   5.360   5.902 -1.0347  0.7322  0.4718
  111MOL0     H14588   2.415   5.376   6.124 -2.6070  2.3757  0.6104
  111MOL0     H14589   2.315   5.076   6.452  0.9928 -0.3261 -2.0902
  111MOL0     H14590   2.355   5.227   6.532  2.9578  1.4656 -0.0433
  111MOL0     H14591   2.556   5.046   6.399  0.6033 -1.2703  0.4656
  111MOL0     H14592   2.511   5.026   6.565 -2.0334  0.4991 -0.5077
  111MOL0     H14593   2.568   5.277   6.600 -1.3657 -2.0770  0.4221
  111MOL0     H14594   2.653   5.257   6.445  0.7318 -0.9000 -1.1513
  111MOL0     H14595   2.687   5.068   6.681  0.9974 -1.9241 -0.8700
  111MOL0     H14596   2.794   5.073   6.544 -1.9087 -0.7669 -0.9225
  111MOL0     H14597   2.893   5.187   6.736 -0.4425 -2.0099 -1.3035
  111MOL0     H14598   2.756   5.309   6.743  0.8565 -0.4088  1.4929
  111MOL0     H14599   2.833   5.385   6.525  0.7167  2.0129  2.4868
  111MOL0     H14600   2.949   5.251   6.506  1.6964  0.4178  0.6560
  111MOL0     H14601   3.047   5.502   6.617 -0.7329 -0.3228  1.5042
  111MOL0     H14602   2.965   5.439   6.752  1.2689 -0.2735  0.4136
  111MOL0     H14603   3.178   5.295   6.592 -1.6072  2.1021 -0.7256
  111MOL0     H14604   3.100   5.236   6.745 -2.8349  0.0939 -1.1759
  111MOL0     H14605   3.367   5.463   6.595 -2.9125 -1.4634 -2.3957
  111MOL0     H14606   3.625   5.543   6.758  1.1107  2.0131  0.1975
  111MOL0     H14607   3.571   5.610   6.905  0.3199 -1.5629  1.2365
  111MOL0     H14608   3.437   5.764   6.709 -0.1033 -1.3903  0.3772
  111MOL0     H14609   3.567   5.696   6.608 -0.7030  2.3289 -0.6931
  111MOL0     H14610   3.613   5.920   6.696 -3.0765  1.0717  0.5528
  111MOL0     H14611   3.597   5.850   6.862  3.9406  1.0381  1.0189
  111MOL0     H14612   3.836   5.891   6.807 -0.7483  0.7284  0.2966
  111MOL0     H14613   3.810   5.803   6.654 -1.9393  1.5583 -0.5555
  111MOL0     H14614   3.926   5.772   7.030  0.1131 -3.0945  3.3892
  111MOL0     H14615   4.146   5.718   7.112 -1.3149 -0.0597  0.2200
  111MOL0     H14616   4.480   5.803   7.272 -0.3239 -0.0720 -0.5319
  111MOL0     H14617   4.679   5.781   7.386  0.7080  0.2793 -0.1648
  111MOL0     H14618   4.868   5.755   7.490  1.5507 -1.0727  1.0898
  111MOL0     H14619   4.927   5.806   7.325  2.1017  2.2955  2.1266
  111MOL0     H14620   5.089   5.793   7.506  1.0008  1.0660 -0.5576
  111MOL0     H14621   5.135   5.657   7.385  0.9089 -2.0356  2.3170
  111MOL0     H14622   4.997   5.514   7.532  0.3141  1.4550 -2.5498
  111MOL0     H14623   5.005   5.632   7.661  0.1417  0.5702 -0.9834
  111MOL0     H14624   5.236   5.531   7.502 -1.1430  1.0259  0.1419
  111MOL0     H14625   5.262   5.623   7.654  1.3943 -0.7391 -1.3336
  111MOL0     H14626   5.135   5.350   7.637 -0.8034 -1.1361  2.2441
  111MOL0     H14627   5.187   5.427   7.781  0.2757  0.5695  0.3068
  111MOL0     H14628   5.370   5.278   7.732 -0.9920 -0.8425 -1.1521
  111MOL0     H14629   5.424   5.449   7.682 -1.8379  1.8400 -1.7357
  111MOL0     H14630   5.295   5.268   7.486  2.1012 -4.6852 -2.4131
  111MOL0     H14631   5.430   5.379   7.455  0.1426  1.1814  1.4358
  111MOL0     H14632   5.440   5.114   7.601 -1.8749  1.0595  0.4862
  111MOL0     H14633   5.577   5.216   7.601 -0.8458 -1.0047  0.7636
  111MOL0     H14634   4.799   5.448   7.129 -0.5486  0.1313 -0.5266
  111MOL0     H14635   4.580   5.461   7.029 -1.9619 -0.3815  0.8819
  111MOL0     H14636   4.240   5.550   6.723 -1.3169  0.6291 -2.1754
  111MOL0     H14637   4.008   5.588   6.657 -1.9238  0.7439 -0.2789
  111MOL0     H14638   2.198   5.032   6.283  2.9166 -0.4078  1.7844
  111MOL0     H14639   2.091   5.019   6.068 -1.3492  2.1828 -1.8000
  111MOL0     H14640   2.068   5.301   5.615 -0.5183 -1.2032  1.3523
  111MOL0     H14641   1.935   5.303   5.399  0.3271 -2.3638 -2.3572
  111MOL0     H14642   1.608   5.117   5.442  2.2215  0.3486  0.0507
  111MOL0     H14643   1.603   4.997   5.312 -1.8843 -0.7165  3.0121
  111MOL0     H14644   1.448   5.177   5.301  0.4610  1.8107  2.8007
  111MOL0     H14645   1.579   5.301   5.307  3.9408 -0.3151  0.5870
  111MOL0     H14646   1.666   5.236   5.080  1.0364  0.8104  1.7309
  111MOL0     H14647   1.487   5.276   5.069  0.5742 -0.0576 -0.9405
  111MOL0     H14648   1.573   5.070   4.944  1.0624  0.9299  0.8063
  111MOL0     H14649   1.579   4.989   5.102 -0.3415 -1.3756 -0.7616
  111MOL0     H14650   1.172   4.977   5.057  0.7764 -1.9869 -3.2485
  111MOL0     H14651   1.780   4.918   5.475 -1.8293  1.5886 -0.9699
  111MOL0     H14652   1.931   4.895   5.663  0.6145 -0.1577 -1.2566
  112MOL0     O14653   0.611   5.890   9.708 -0.2408  0.0474  0.5149
  112MOL0     C14654   0.585   5.937   9.819  0.5433  0.9628  0.3258
  112MOL0     O14655   0.675   5.940   9.927  0.4729 -0.0568  0.0401
  112MOL0     C14656   0.800   5.893   9.918  0.4420  0.9905 -0.3179
  112MOL0     C14657   0.845   5.801  10.025 -0.1672 -0.7082 -0.1855
  112MOL0     C14658   0.976   5.749  10.026  1.0079  0.2655  0.2122
  112MOL0     C14659   1.066   5.781   9.922 -0.0007  0.8536 -0.1680
  112MOL0     O14660   1.186   5.713   9.922  0.4018 -0.4079  0.2846
  112MOL0     C14661   1.270   5.744   9.811  1.0505  0.6860 -0.2915
  112MOL0     C14662   1.394   5.648   9.815 -0.5015 -0.3829 -0.5607
  112MOL0     C14663   1.490   5.679   9.708  0.9259  1.2574  0.4799
  112MOL0     C14664   1.611   5.595   9.743  0.2810 -0.9179  0.1487
  112MOL0     C14665   1.720   5.616   9.641 -0.4840  0.1661  0.2520
  112MOL0     C14666   1.778   5.479   9.602 -0.3636  0.1333 -0.8009
  112MOL0     C14667   1.887   5.489   9.498  0.1536  0.2306 -0.1651
  112MOL0     C14668   2.010   5.394   9.521  0.1688  0.0882 -0.1045
  112MOL0     N14669   1.967   5.260   9.509  0.0121  0.0756 -0.3762
  112MOL0     C14670   1.949   5.172   9.617  0.7471  0.5997 -0.0733
  112MOL0     C14671   1.920   5.051   9.554 -0.1587  0.4768  0.4199
  112MOL0     C14672   1.876   4.931   9.632 -0.2359  0.1861 -0.2424
  112MOL0     C14673   1.730   4.899   9.644  0.0199 -0.3938 -0.1410
  112MOL0     C14674   1.664   4.851   9.514  0.8214 -0.7289  0.7002
  112MOL0     C14675   1.667   4.695   9.499 -0.3154 -0.1180 -1.3679
  112MOL0     O14676   1.590   4.649   9.388 -0.9779 -0.0145 -0.9378
  112MOL0     C14677   1.636   4.692   9.262  0.1236 -0.5027 -0.5144
  112MOL0     C14678   1.776   4.722   9.221 -0.1704  0.0302 -0.8547
  112MOL0     C14679   1.807   4.746   9.091 -0.8947  0.1871  1.5634
  112MOL0     C14680   1.710   4.755   8.992 -0.3189  0.4355 -0.3099
  112MOL0     C14681   1.739   4.756   8.846 -1.0748  0.2978 -0.1509
  112MOL0     O14682   1.631   4.793   8.771  0.0478 -0.3031  0.3145
  112MOL0     C14683   1.615   4.755   8.635 -0.0176 -0.5369 -0.0288
  112MOL0     C14684   1.519   4.666   8.601  0.0802 -0.1598  0.0697
  112MOL0     C14685   1.466   4.666   8.471 -0.6631 -0.7780 -0.0102
  112MOL0     C14686   1.520   4.746   8.371 -0.2704  0.3239 -0.5130
  112MOL0     O14687   1.483   4.738   8.245 -0.3047  0.6764 -0.2027
  112MOL0     C14688   1.345   4.756   8.226  0.6895 -0.4154 -0.4970
  112MOL0     C14689   1.295   4.697   8.092 -0.3587  0.5336  0.3209
  112MOL0     C14690   1.152   4.744   8.055  0.6959 -0.9110 -0.5324
  112MOL0     C14691   1.099   4.690   7.921  0.1417 -0.0679 -0.1956
  112MOL0     C14692   0.949   4.692   7.927  0.1645 -0.5434 -0.3275
  112MOL0     C14693   0.898   4.599   7.815  0.8025  0.2969  0.3731
  112MOL0     C14694   0.745   4.611   7.815 -0.0522 -0.3877  1.1144
  112MOL0     C14695   0.675   4.553   7.688  0.6877  0.8302  1.2281
  112MOL0    Cl14696   0.707   4.641   7.531  0.4360 -0.7077 -0.2208
  112MOL0     C14697   1.626   4.827   8.403 -0.2589  0.9543  0.1642
  112MOL0     C14698   1.670   4.828   8.532 -0.1109 -0.0677 -1.6174
  112MOL0     O14699   1.848   4.725   8.804 -0.3103 -0.5855  0.1353
  112MOL0     C14700   1.577   4.731   9.033  0.4268  0.2686  0.2640
  112MOL0     C14701   1.546   4.695   9.161  0.0501 -0.1378  0.1782
  112MOL0     N14702   1.935   5.047   9.418 -0.5652 -0.3715  0.8139
  112MOL0     N14703   1.953   5.182   9.397 -0.4378  0.2947  0.3495
  112MOL0     C14704   1.025   5.875   9.828  0.3236 -0.6703  0.4612
  112MOL0     C14705   0.898   5.935   9.823 -0.0742 -0.2152 -0.3674
  112MOL0     C14706   0.450   5.997   9.833  1.2878 -0.6013 -1.3942
  112MOL0     C14707   0.342   5.963   9.753  0.1082  0.4497 -0.0029
  112MOL0     C14708   0.214   6.007   9.770 -0.1204 -0.0744 -0.1801
  112MOL0     C14709   0.182   6.105   9.863 -0.0543  0.7723 -0.5019
  112MOL0     O14710   0.050   6.160   9.861 -0.3350  0.7793 -0.3435
  112MOL0     C14711   0.018   6.267   9.949  1.0387  0.8656 -0.5180
  112MOL0     C14712  -0.022   6.220  10.087 -0.6371 -0.0693 -0.1198
  112MOL0     C14713  -0.093   6.088  10.097  1.2718  0.1816 -0.2508
  112MOL0     C14714  -0.222   6.093  10.023  0.5855  0.5162 -0.3244
  112MOL0     C14715  -0.324   6.152  10.116 -0.6809 -0.8590  0.5260
  112MOL0     C14716  -0.407   6.204  10.185  0.0830 -0.3680 -0.2148
  112MOL0     C14717   0.284   6.134   9.957 -0.7947 -0.3289  0.0662
  112MOL0     C14718   0.413   6.082   9.940  0.6157 -0.2169  0.3057
  112MOL0     H14719   0.776   5.774  10.105  0.9142  1.1183  1.4714
  112MOL0     H14720   0.996   5.686  10.112 -1.7188 -0.5346  0.3727
  112MOL0     H14721   1.310   5.843   9.833 -1.3933  1.1513  2.7418
  112MOL0     H14722   1.219   5.734   9.715 -1.4036 -0.4800  1.0372
  112MOL0     H14723   1.359   5.544   9.820 -2.3154  0.1819 -0.5620
  112MOL0     H14724   1.442   5.671   9.911 -0.3605 -3.7106  0.2976
  112MOL0     H14725   1.510   5.786   9.701  0.8604  1.3447  1.4546
  112MOL0     H14726   1.440   5.647   9.616  0.2183 -2.2435  1.9323
  112MOL0     H14727   1.655   5.612   9.842 -0.9237  2.2598  0.2453
  112MOL0     H14728   1.575   5.491   9.747 -1.1028 -0.5132 -0.8733
  112MOL0     H14729   1.797   5.681   9.683  0.4712 -0.1860 -0.9149
  112MOL0     H14730   1.689   5.669   9.551 -2.3195 -1.8227 -0.3885
  112MOL0     H14731   1.704   5.408   9.562 -0.1845 -0.5114 -0.0023
  112MOL0     H14732   1.820   5.442   9.696  1.0558  2.7819 -0.3024
  112MOL0     H14733   1.835   5.460   9.406 -0.3387  1.0171 -0.1405
  112MOL0     H14734   1.919   5.593   9.490  0.7459  0.0583 -0.0705
  112MOL0     H14735   2.057   5.421   9.616  0.3875 -3.3602  0.9054
  112MOL0     H14736   2.081   5.402   9.439  1.8959 -2.7454  0.9587
  112MOL0     H14737   1.929   5.201   9.720  0.9564 -2.9358  1.1220
  112MOL0     H14738   1.908   4.954   9.734 -2.0610  0.7671  0.2256
  112MOL0     H14739   1.919   4.840   9.588 -2.6793 -0.7264 -0.8857
  112MOL0     H14740   1.687   4.997   9.670 -0.4377 -0.9739  1.3566
  112MOL0     H14741   1.717   4.827   9.725  0.3276 -0.2550  0.0312
  112MOL0     H14742   1.563   4.892   9.503  1.0099 -0.4423 -0.0584
  112MOL0     H14743   1.721   4.894   9.431  1.0019 -0.5096  0.9376
  112MOL0     H14744   1.651   4.644   9.594  3.6075  0.2221 -0.3319
  112MOL0     H14745   1.775   4.686   9.481 -0.2934  0.5122 -1.5860
  112MOL0     H14746   1.855   4.717   9.296  1.9841  2.5873 -2.7833
  112MOL0     H14747   1.910   4.773   9.070 -0.8952 -1.0419 -0.2987
  112MOL0     H14748   1.466   4.604   8.673 -1.3186 -0.5100 -1.2228
  112MOL0     H14749   1.382   4.600   8.458 -0.6662 -0.9396  0.7732
  112MOL0     H14750   1.319   4.862   8.230 -1.1396 -0.8637  0.6629
  112MOL0     H14751   1.282   4.707   8.301  2.5788  0.0851  1.5280
  112MOL0     H14752   1.312   4.588   8.094  2.3948  0.8249 -1.6246
  112MOL0     H14753   1.364   4.731   8.015 -0.5608 -1.8788 -1.0205
  112MOL0     H14754   1.136   4.852   8.054 -1.9230 -1.2073  0.5820
  112MOL0     H14755   1.075   4.719   8.128 -0.8025  1.7816 -1.0344
  112MOL0     H14756   1.117   4.734   7.823 -1.8832  0.7734 -0.2342
  112MOL0     H14757   1.124   4.583   7.915  0.1618 -0.0771  0.0403
  112MOL0     H14758   0.911   4.793   7.911 -1.0194 -1.1774 -1.7480
  112MOL0     H14759   0.900   4.646   8.014 -0.0110  0.0169 -0.1258
  112MOL0     H14760   0.912   4.493   7.836 -2.1221  0.1142  2.0854
  112MOL0     H14761   0.945   4.620   7.719 -1.5478 -1.6302 -1.3261
  112MOL0     H14762   0.694   4.549   7.890 -0.1156 -1.2663  0.3698
  112MOL0     H14763   0.713   4.715   7.814 -1.7129 -0.6637 -3.7907
  112MOL0     H14764   0.569   4.543   7.710  1.1201  0.9047  3.6412
  112MOL0     H14765   0.715   4.451   7.684 -0.0560  0.5741 -0.1733
  112MOL0     H14766   1.676   4.882   8.325 -0.0907 -0.3584 -0.6921
  112MOL0     H14767   1.742   4.908   8.541  0.4879 -0.8358  2.8707
  112MOL0     H14768   1.503   4.720   8.954 -0.5237 -0.3894  1.2253
  112MOL0     H14769   1.451   4.644   9.177 -0.0293 -0.3580 -0.9315
  112MOL0     H14770   1.085   5.913   9.746 -0.0170 -0.9664  0.0727
  112MOL0     H14771   0.875   5.999   9.738  1.6299  0.4241 -0.3781
  112MOL0     H14772   0.370   5.900   9.670  1.9825 -1.9120  2.2826
  112MOL0     H14773   0.135   5.979   9.701  0.2556  1.5071 -1.3101
  112MOL0     H14774  -0.072   6.318   9.914 -1.2335 -0.3579  2.9787
  112MOL0     H14775   0.100   6.337   9.961 -0.2706  2.1358  1.7598
  112MOL0     H14776   0.072   6.211  10.143 -1.4485  1.6542  1.6037
  112MOL0     H14777  -0.085   6.293  10.137 -1.3508 -1.9045  1.8178
  112MOL0     H14778  -0.119   6.058  10.199 -1.2274 -1.5316 -1.2743
  112MOL0     H14779  -0.032   6.008  10.053  0.2403 -0.8969  0.2026
  112MOL0     H14780  -0.222   6.158   9.935  3.1921  2.5667  1.0752
  112MOL0     H14781  -0.256   5.994   9.991  1.5552 -0.7231  2.1947
  112MOL0     H14782  -0.487   6.244  10.244  0.7450  0.8499 -0.1046
  112MOL0     H14783   0.273   6.201  10.042 -0.2578 -0.4633  0.2431
  112MOL0     H14784   0.490   6.119  10.008 -0.2526  0.8449  0.7436
  113MOL0     O14785   4.128   8.678   3.193 -0.4319  0.2407  0.1098
  113MOL0     C14786   4.212   8.655   3.283 -0.0286 -0.4236  0.3706
  113MOL0     O14787   4.179   8.644   3.416 -1.1680 -0.3295 -0.4666
  113MOL0     C14788   4.060   8.668   3.475  0.8395 -0.1738 -0.0813
  113MOL0     C14789   3.942   8.711   3.413 -0.4881  0.4943  0.4589
  113MOL0     C14790   3.831   8.746   3.480 -0.0995  0.3889 -0.7611
  113MOL0     C14791   3.815   8.723   3.613 -0.5069 -0.0573 -0.2934
  113MOL0     O14792   3.695   8.725   3.682  0.0290 -0.1097 -0.3227
  113MOL0     C14793   3.600   8.622   3.655  0.1140 -0.6610  0.7975
  113MOL0     C14794   3.601   8.498   3.756  0.5611  0.4743 -0.2813
  113MOL0     C14795   3.490   8.399   3.717 -0.2761 -0.3776  0.3797
  113MOL0     C14796   3.360   8.425   3.800  0.3775  0.4710 -0.1035
  113MOL0     C14797   3.263   8.305   3.783 -0.5441 -0.6065  0.0656
  113MOL0     C14798   3.132   8.344   3.847  0.1008 -0.1863 -0.1597
  113MOL0     C14799   3.032   8.242   3.825 -0.8094  0.3621 -0.3261
  113MOL0     C14800   2.898   8.295   3.879 -0.0704  0.0684  0.2202
  113MOL0     N14801   2.842   8.178   3.957 -0.3728 -0.9997 -0.9981
  113MOL0     C14802   2.746   8.087   3.914  0.0428 -0.4497  0.8270
  113MOL0     C14803   2.746   8.006   4.015  0.4505 -0.2537 -0.0665
  113MOL0     C14804   2.661   7.883   4.017 -0.3506 -0.5572  0.0726
  113MOL0     C14805   2.522   7.923   4.057  0.9840 -0.0151 -0.4892
  113MOL0     C14806   2.416   7.820   4.012 -0.2971  0.2461 -0.7991
  113MOL0     C14807   2.284   7.858   4.070 -1.0859  0.1803  0.3619
  113MOL0     O14808   2.293   7.853   4.209  0.1556  0.7309 -0.3719
  113MOL0     C14809   2.176   7.874   4.279  0.5401 -0.1014  0.0057
  113MOL0     C14810   2.193   7.925   4.411  0.7039 -0.4971 -0.1086
  113MOL0     C14811   2.077   7.934   4.487  0.5847 -0.1175 -0.5008
  113MOL0     C14812   1.941   7.912   4.438 -0.3976 -0.2041  0.3084
  113MOL0     C14813   1.813   7.934   4.513  0.5783  0.1543 -0.3792
  113MOL0     O14814   1.698   7.931   4.449 -0.3024  0.1966 -0.6377
  113MOL0     C14815   1.577   7.943   4.507  0.4625  0.1386 -0.0599
  113MOL0     C14816   1.542   7.906   4.637  0.1804  0.0327  0.0790
  113MOL0     C14817   1.406   7.925   4.686  0.9792 -0.2523  0.1049
  113MOL0     C14818   1.316   7.990   4.599 -0.8037 -0.3272 -0.0570
  113MOL0     O14819   1.188   8.039   4.632 -1.1331  0.0514  0.4107
  113MOL0     C14820   1.162   8.067   4.762 -1.0306  0.5730  0.3386
  113MOL0     C14821   1.033   8.141   4.772  0.4746 -0.3014 -0.2393
  113MOL0     C14822   0.905   8.058   4.795  0.1662 -0.4296 -0.3605
  113MOL0     C14823   0.833   8.016   4.663 -0.1235 -0.6754  0.2977
  113MOL0     C14824   0.719   7.924   4.697  0.5730  0.5202  0.9373
  113MOL0     C14825   0.648   7.885   4.573 -1.2730  0.1468 -0.9683
  113MOL0     C14826   0.528   7.787   4.602 -0.5087  0.1313 -0.2976
  113MOL0     C14827   0.427   7.817   4.484  0.2193 -0.0031  0.4754
  113MOL0    Cl14828   0.358   7.980   4.468  0.0455  0.1908 -0.0283
  113MOL0     C14829   1.355   8.019   4.466  0.6491 -0.2875 -0.6022
  113MOL0     C14830   1.483   8.005   4.428 -0.7456  0.1447  1.2693
  113MOL0     O14831   1.826   7.971   4.634  0.0758 -0.7984 -0.0468
  113MOL0     C14832   1.932   7.872   4.307 -0.2388  0.7089  0.1892
  113MOL0     C14833   2.046   7.854   4.234  0.3688 -0.1221 -0.7047
  113MOL0     N14834   2.820   8.055   4.123 -0.3481  0.1567 -0.0792
  113MOL0     N14835   2.880   8.167   4.088  0.0983  0.6050 -0.6571
  113MOL0     C14836   3.933   8.674   3.671 -0.1072  0.4366 -0.3272
  113MOL0     C14837   4.052   8.655   3.612 -0.0449  0.3270 -0.7881
  113MOL0     C14838   4.342   8.615   3.231  0.1390 -0.0881 -0.3547
  113MOL0     C14839   4.451   8.600   3.317 -0.3251  0.2406 -0.1875
  113MOL0     C14840   4.576   8.567   3.273 -0.0316 -0.8885 -0.2386
  113MOL0     C14841   4.608   8.571   3.137  0.4670  0.4634  0.8797
  113MOL0     O14842   4.738   8.564   3.085  0.4686  0.1917  0.5429
  113MOL0     C14843   4.858   8.615   3.158  0.0870 -0.6147 -0.0442
  113MOL0     C14844   4.920   8.502   3.249 -0.3679 -0.3980 -0.2747
  113MOL0     C14845   5.040   8.546   3.313 -0.8531 -0.7214  0.0789
  113MOL0     C14846   5.100   8.449   3.407  0.6032  1.2064  0.1281
  113MOL0     C14847   5.226   8.501   3.465  0.7225  1.2312 -0.0960
  113MOL0     C14848   5.322   8.548   3.530  0.7975 -1.2191  0.5286
  113MOL0     C14849   4.499   8.583   3.052 -0.4380  0.5217  0.1523
  113MOL0     C14850   4.370   8.598   3.093 -0.5215 -0.5966  0.0367
  113MOL0     H14851   3.938   8.729   3.306  2.6677 -0.8162  0.0007
  113MOL0     H14852   3.740   8.779   3.430  1.3335  0.2149 -3.6823
  113MOL0     H14853   3.628   8.584   3.557 -0.3998  1.1173 -0.0838
  113MOL0     H14854   3.502   8.666   3.634  0.6052  1.2089  2.1331
  113MOL0     H14855   3.597   8.537   3.858 -0.5997  0.1651 -0.1936
  113MOL0     H14856   3.700   8.452   3.746 -0.0802 -1.5767  1.9801
  113MOL0     H14857   3.526   8.298   3.739  0.1969  0.1886  2.4438
  113MOL0     H14858   3.469   8.395   3.610  1.0267  0.8288  0.0438
  113MOL0     H14859   3.380   8.426   3.908  0.4907  2.4774 -0.0969
  113MOL0     H14860   3.315   8.521   3.774  0.5616  0.1537 -1.6901
  113MOL0     H14861   3.309   8.218   3.831 -1.2009  0.1682  2.2212
  113MOL0     H14862   3.245   8.290   3.676 -3.3385  0.2931  0.3079
  113MOL0     H14863   3.084   8.439   3.822 -1.1785 -0.8360 -0.2537
  113MOL0     H14864   3.155   8.354   3.954  2.2237 -2.5033 -0.3049
  113MOL0     H14865   3.021   8.231   3.717 -1.0255 -0.2149 -0.2472
  113MOL0     H14866   3.078   8.150   3.864  1.1948  0.4839 -2.2282
  113MOL0     H14867   2.827   8.326   3.802  0.0639  1.5835  0.6810
  113MOL0     H14868   2.916   8.378   3.948  4.0149 -0.8158  0.4640
  113MOL0     H14869   2.698   8.078   3.817  1.8814  0.3458 -0.1973
  113MOL0     H14870   2.705   7.813   4.089 -0.3296  0.4761  1.0976
  113MOL0     H14871   2.667   7.831   3.921 -2.8060 -1.4730  0.3398
  113MOL0     H14872   2.497   8.022   4.017  1.0465 -0.0609 -0.6426
  113MOL0     H14873   2.522   7.936   4.166  1.2754 -3.7593  0.0843
  113MOL0     H14874   2.416   7.832   3.904 -0.5450 -0.2944 -0.8608
  113MOL0     H14875   2.441   7.720   4.048  0.4775  2.1021  4.9950
  113MOL0     H14876   2.208   7.786   4.037  0.4070 -0.5419 -1.6906
  113MOL0     H14877   2.242   7.952   4.033  0.4477  1.4343  1.7082
  113MOL0     H14878   2.295   7.946   4.441  0.9329 -1.5763 -0.0977
  113MOL0     H14879   2.094   7.968   4.588 -1.5904 -1.9107  0.5471
  113MOL0     H14880   1.610   7.864   4.710 -0.0156  0.3411  0.4446
  113MOL0     H14881   1.371   7.882   4.779 -0.2629  1.1513  0.3230
  113MOL0     H14882   1.237   8.115   4.825 -0.6188 -0.3863  0.5979
  113MOL0     H14883   1.151   7.967   4.805 -0.3956  2.0716  4.4889
  113MOL0     H14884   1.019   8.192   4.676 -3.0285 -1.1024 -0.2629
  113MOL0     H14885   1.036   8.214   4.853 -1.8057  2.5526 -2.4799
  113MOL0     H14886   0.836   8.119   4.854 -0.4407 -1.1608 -0.2994
  113MOL0     H14887   0.933   7.973   4.858  2.4818 -0.1478 -0.9009
  113MOL0     H14888   0.817   8.107   4.604  1.1863 -0.1177  0.7831
  113MOL0     H14889   0.899   7.963   4.593 -0.3181 -2.9525  1.7532
  113MOL0     H14890   0.643   7.976   4.756 -3.8418 -4.4432  0.3718
  113MOL0     H14891   0.751   7.838   4.756  2.6838 -0.8692 -2.0219
  113MOL0     H14892   0.709   7.826   4.504 -0.7521  0.6722 -0.9620
  113MOL0     H14893   0.624   7.978   4.521  1.0528 -1.0255 -4.4976
  113MOL0     H14894   0.560   7.683   4.608  0.3334  0.3516 -0.7897
  113MOL0     H14895   0.467   7.808   4.690 -2.3672 -1.2167 -1.1853
  113MOL0     H14896   0.342   7.749   4.499  0.9706 -1.3123 -0.9626
  113MOL0     H14897   0.478   7.806   4.387  1.2432 -0.9804  1.1124
  113MOL0     H14898   1.277   8.050   4.397 -1.4254 -2.3120  0.7149
  113MOL0     H14899   1.515   8.022   4.325 -1.1417  0.8732  1.2555
  113MOL0     H14900   1.839   7.840   4.261  0.0410  0.8559 -0.4915
  113MOL0     H14901   2.039   7.808   4.135  3.2958 -5.2354  1.1264
  113MOL0     H14902   3.937   8.632   3.771  0.3277 -0.6902 -0.7922
  113MOL0     H14903   4.140   8.623   3.667 -3.2619 -6.4363  1.5120
  113MOL0     H14904   4.429   8.607   3.423 -0.0584  3.8566 -0.2647
  113MOL0     H14905   4.660   8.549   3.340 -0.0306  0.4141  0.1343
  113MOL0     H14906   4.821   8.697   3.220  0.0383 -0.3470 -0.4230
  113MOL0     H14907   4.928   8.645   3.079  0.1227 -0.5505  0.0123
  113MOL0     H14908   4.851   8.442   3.309  0.7374  0.0881  1.5826
  113MOL0     H14909   4.955   8.433   3.172  3.6666  1.8620 -0.7339
  113MOL0     H14910   5.032   8.640   3.368  0.7108 -1.6888  2.0654
  113MOL0     H14911   5.128   8.562   3.249  0.0800  1.7818  1.8449
  113MOL0     H14912   5.043   8.411   3.493 -0.7855 -0.1024 -1.3138
  113MOL0     H14913   5.118   8.362   3.343 -0.3522  0.0700  1.3525
  113MOL0     H14914   5.394   8.614   3.574 -1.2350  0.4651  1.4615
  113MOL0     H14915   4.522   8.585   2.946 -1.2175  0.2780 -0.0275
  113MOL0     H14916   4.288   8.598   3.021 -2.3128 -3.6417  1.8527
  114MOL0     O14917   4.705   0.059   7.524 -0.4070 -0.6047  0.0729
  114MOL0     C14918   4.736  -0.061   7.506  0.4231 -1.0252 -1.0504
  114MOL0     O14919   4.642  -0.164   7.477 -0.1704 -0.2138 -0.2950
  114MOL0     C14920   4.514  -0.141   7.432  0.8496 -0.0374  0.5208
  114MOL0     C14921   4.442  -0.027   7.435 -0.4469 -0.0281 -0.0679
  114MOL0     C14922   4.310  -0.022   7.395  0.5944 -0.2224  0.0321
  114MOL0     C14923   4.241  -0.132   7.348 -0.0772  0.3917 -0.1638
  114MOL0     O14924   4.110  -0.130   7.313  0.3838 -0.1069  0.3693
  114MOL0     C14925   4.029  -0.013   7.309  0.3687  0.0282  0.6137
  114MOL0     C14926   3.902  -0.039   7.225  0.1659 -0.1203 -0.2286
  114MOL0     C14927   3.813  -0.151   7.277 -1.3808 -0.2466  1.5324
  114MOL0     C14928   3.847  -0.291   7.203 -0.4913 -0.2522 -0.4083
  114MOL0     C14929   3.772  -0.399   7.277 -0.4428 -0.2645 -0.6935
  114MOL0     C14930   3.848  -0.433   7.401 -1.0766  0.1798 -0.7691
  114MOL0     C14931   3.957  -0.546   7.364  1.0755 -1.1164 -0.9088
  114MOL0     C14932   4.063  -0.564   7.475 -0.1238  0.0427 -0.3070
  114MOL0     N14933   4.167  -0.648   7.429  0.5953 -0.1805  0.1927
  114MOL0     C14934   4.160  -0.791   7.414  0.3257 -0.3920  0.0701
  114MOL0     C14935   4.285  -0.833   7.369 -0.5496  0.4420  1.2057
  114MOL0     C14936   4.321  -0.965   7.325 -0.6077 -0.2283  0.0087
  114MOL0     C14937   4.401  -1.051   7.423 -0.0790 -0.9312  1.3030
  114MOL0     C14938   4.552  -1.023   7.430 -0.7519 -0.0970 -0.3981
  114MOL0     C14939   4.626  -1.117   7.521 -0.3535  0.0280 -0.7748
  114MOL0     O14940   4.767  -1.081   7.518  0.3212  0.3703  0.6813
  114MOL0     C14941   4.848  -1.136   7.617  0.7141  0.4626  0.7338
  114MOL0     C14942   4.813  -1.182   7.743 -1.3841 -1.0017 -0.6469
  114MOL0     C14943   4.911  -1.231   7.836 -0.5205 -1.3241 -0.1147
  114MOL0     C14944   5.044  -1.227   7.793  0.0876  0.1454  0.3370
  114MOL0     C14945   5.146  -1.280   7.886  0.0087  0.4441 -0.6934
  114MOL0     O14946   5.109  -1.351   7.999 -0.3569 -0.1951 -0.3288
  114MOL0     C14947   5.199  -1.371   8.106  0.3093 -0.5695  0.3223
  114MOL0     C14948   5.296  -1.471   8.109  0.3607  0.6124 -0.1432
  114MOL0     C14949   5.382  -1.485   8.215  0.5897 -0.0273  0.6832
  114MOL0     C14950   5.379  -1.391   8.326  0.1367  0.6580  1.4196
  114MOL0     O14951   5.463  -1.395   8.433  0.1320 -0.1247  0.8406
  114MOL0     C14952   5.565  -1.492   8.429 -0.0208 -1.2329 -0.7301
  114MOL0     C14953   5.670  -1.444   8.527  0.2766 -0.5306 -0.1938
  114MOL0     C14954   5.813  -1.493   8.513 -0.1947  0.8957 -0.1510
  114MOL0     C14955   5.818  -1.635   8.555 -0.4221  0.5892  0.1965
  114MOL0     C14956   5.964  -1.688   8.534  0.0973  0.3225  0.1793
  114MOL0     C14957   6.072  -1.612   8.617  0.4417  0.8693 -0.8191
  114MOL0     C14958   6.179  -1.707   8.676  0.7644 -0.9556  0.0932
  114MOL0     C14959   6.258  -1.627   8.782  0.8299  0.0983 -0.4966
  114MOL0    Cl14960   6.158  -1.563   8.909  0.1550  0.2449  0.1599
  114MOL0     C14961   5.294  -1.276   8.315 -0.2786 -0.2584 -0.3001
  114MOL0     C14962   5.209  -1.268   8.205  0.0586  0.6559 -0.5386
  114MOL0     O14963   5.263  -1.257   7.860 -0.1777  0.8429  0.0017
  114MOL0     C14964   5.080  -1.188   7.667  1.1446 -0.0696 -0.7722
  114MOL0     C14965   4.988  -1.147   7.576 -0.1878 -1.1985  0.0362
  114MOL0     N14966   4.366  -0.725   7.381  0.4743  0.0349 -0.0934
  114MOL0     N14967   4.298  -0.619   7.418  0.9696 -0.1834 -0.2247
  114MOL0     C14968   4.306  -0.249   7.363 -0.6343  0.0421 -0.6192
  114MOL0     C14969   4.449  -0.258   7.398  0.9911 -0.6337 -0.2866
  114MOL0     C14970   4.871  -0.098   7.522 -0.9460  0.3163  0.2863
  114MOL0     C14971   4.953  -0.037   7.612  0.4064 -0.3970  0.1838
  114MOL0     C14972   5.085  -0.075   7.627 -0.2036 -0.6119  0.7255
  114MOL0     C14973   5.132  -0.178   7.551  0.7799  0.4328  0.0168
  114MOL0     O14974   5.264  -0.214   7.564 -0.4527  0.9347 -0.3783
  114MOL0     C14975   5.331  -0.221   7.430 -0.2588  0.9560 -0.3486
  114MOL0     C14976   5.468  -0.177   7.437  0.3979  0.1415  0.2063
  114MOL0     C14977   5.576  -0.291   7.455 -0.5184  0.4521 -0.3798
  114MOL0     C14978   5.720  -0.234   7.415  1.2251 -0.2347 -0.0253
  114MOL0     C14979   5.766  -0.136   7.522  0.0699  0.2935  0.2584
  114MOL0     C14980   5.815  -0.072   7.611 -0.5087  0.0012  0.4626
  114MOL0     C14981   5.052  -0.250   7.460  0.9237 -0.3318  0.9968
  114MOL0     C14982   4.925  -0.205   7.444  0.3937 -0.0986 -0.0279
  114MOL0     H14983   4.478   0.070   7.469 -2.1240  1.4579 -2.2248
  114MOL0     H14984   4.255   0.072   7.400  0.4617 -0.1332 -2.2330
  114MOL0     H14985   4.086   0.068   7.261  1.5763 -0.0845  1.7676
  114MOL0     H14986   4.000   0.021   7.409 -1.6709 -0.5447  0.2475
  114MOL0     H14987   3.931  -0.063   7.122  2.7257 -1.1311  0.6551
  114MOL0     H14988   3.838   0.050   7.217  0.5310  0.2446  0.7620
  114MOL0     H14989   3.708  -0.129   7.257 -0.6385  1.1619 -1.3474
  114MOL0     H14990   3.832  -0.157   7.384  3.3882  0.9416  0.9882
  114MOL0     H14991   3.811  -0.286   7.100  0.4285 -3.0492 -0.9444
  114MOL0     H14992   3.953  -0.317   7.202 -0.6631 -0.9720 -2.0285
  114MOL0     H14993   3.758  -0.493   7.223  1.9734 -0.1321 -1.7206
  114MOL0     H14994   3.673  -0.360   7.298  0.8239  2.7138  0.2301
  114MOL0     H14995   3.786  -0.466   7.484  1.0664 -1.4061  0.3249
  114MOL0     H14996   3.910  -0.348   7.431  0.2876  0.0590 -2.9778
  114MOL0     H14997   3.912  -0.644   7.346  1.2518 -1.2682 -0.5423
  114MOL0     H14998   4.010  -0.519   7.273 -0.4852  0.0956 -1.5012
  114MOL0     H14999   4.019  -0.616   7.561  2.1718 -3.0442 -0.8206
  114MOL0     H15000   4.094  -0.462   7.501 -0.2041  0.2029 -0.8354
  114MOL0     H15001   4.070  -0.848   7.394 -0.4929  1.4006 -1.8666
  114MOL0     H15002   4.385  -0.953   7.236  0.2837 -0.4241  0.6066
  114MOL0     H15003   4.230  -1.017   7.294 -1.3906  0.9584  0.2841
  114MOL0     H15004   4.375  -1.153   7.394  0.1169 -0.5741 -0.2054
  114MOL0     H15005   4.358  -1.039   7.523 -3.0154  0.4105 -0.0252
  114MOL0     H15006   4.597  -1.029   7.331  1.7114  1.1986  0.5582
  114MOL0     H15007   4.564  -0.920   7.467 -0.7004  0.3846 -1.7174
  114MOL0     H15008   4.610  -1.217   7.481  1.5015 -1.7251  2.4251
  114MOL0     H15009   4.579  -1.112   7.619 -0.1260  1.4559 -0.7191
  114MOL0     H15010   4.709  -1.176   7.771 -0.5826 -1.3581  2.8779
  114MOL0     H15011   4.885  -1.260   7.937  0.5060  0.2095  0.6337
  114MOL0     H15012   5.293  -1.534   8.020  2.3839  0.9926 -0.5436
  114MOL0     H15013   5.438  -1.578   8.216  1.5386  0.5241  0.3261
  114MOL0     H15014   5.606  -1.505   8.328  2.5611 -1.5512  0.3008
  114MOL0     H15015   5.516  -1.586   8.457 -1.8985 -0.3202 -0.7574
  114MOL0     H15016   5.638  -1.443   8.632  1.8473  0.5868  0.3189
  114MOL0     H15017   5.681  -1.339   8.500 -0.1557 -0.3270  0.4254
  114MOL0     H15018   5.883  -1.441   8.580  0.7981  0.7241 -1.0373
  114MOL0     H15019   5.852  -1.485   8.412 -0.7528 -0.9688 -0.5569
  114MOL0     H15020   5.788  -1.648   8.659 -1.2080  0.0034 -0.0890
  114MOL0     H15021   5.752  -1.690   8.487  1.1405  1.7727 -2.4814
  114MOL0     H15022   5.991  -1.678   8.428 -0.3635  1.8751  0.1826
  114MOL0     H15023   5.972  -1.794   8.561  0.9749  0.5939  1.0457
  114MOL0     H15024   6.016  -1.571   8.702  2.2722  0.7228  0.5249
  114MOL0     H15025   6.110  -1.532   8.553  1.1143  1.3449  0.1351
  114MOL0     H15026   6.136  -1.795   8.724 -2.1422 -1.8412 -3.6593
  114MOL0     H15027   6.246  -1.746   8.598  0.2305  1.0965 -1.4890
  114MOL0     H15028   6.321  -1.551   8.734  1.3581 -1.8609 -3.1023
  114MOL0     H15029   6.333  -1.693   8.827 -0.3419 -1.1232 -0.2985
  114MOL0     H15030   5.291  -1.193   8.385  2.0258 -0.2855 -0.0760
  114MOL0     H15031   5.140  -1.188   8.180  1.8375  2.9773  1.4343
  114MOL0     H15032   5.181  -1.192   7.628  1.4759  0.6023 -0.0380
  114MOL0     H15033   5.029  -1.121   7.479 -1.9711  3.0154  0.2021
  114MOL0     H15034   4.252  -0.343   7.351 -4.3699  1.6361  1.5677
  114MOL0     H15035   4.482  -0.361   7.403 -1.5090 -1.4464  1.0934
  114MOL0     H15036   4.906   0.031   7.682  1.9852  0.2983  0.6119
  114MOL0     H15037   5.144  -0.030   7.706  2.3467  0.3999 -1.5904
  114MOL0     H15038   5.283  -0.163   7.351  0.8398  2.3037 -0.0590
  114MOL0     H15039   5.325  -0.329   7.411  1.7899  0.7967 -0.2806
  114MOL0     H15040   5.490  -0.126   7.342  0.1013  3.0786  1.6260
  114MOL0     H15041   5.490  -0.096   7.507  3.3414 -0.3642  0.0269
  114MOL0     H15042   5.550  -0.383   7.402  0.0922  0.2348 -0.3163
  114MOL0     H15043   5.568  -0.325   7.559 -2.3901  0.4623 -0.4971
  114MOL0     H15044   5.790  -0.318   7.413  1.7946  0.1626  1.5646
  114MOL0     H15045   5.710  -0.191   7.315 -0.6797  0.2293  0.3169
  114MOL0     H15046   5.860  -0.009   7.684 -2.6427  0.5581  1.3710
  114MOL0     H15047   5.089  -0.342   7.415  1.0259 -0.2225  0.8572
  114MOL0     H15048   4.868  -0.265   7.373  0.9781 -1.2233  0.4254
  115MOL0     O15049   0.952   6.877   8.263 -0.6590  0.2924  0.8043
  115MOL0     C15050   0.940   7.006   8.254 -0.1811  0.2424 -0.1966
  115MOL0     O15051   1.036   7.103   8.226  0.6832 -0.5624 -0.4810
  115MOL0     C15052   1.161   7.072   8.190  0.0693  0.6497 -0.1435
  115MOL0     C15053   1.227   7.152   8.100 -0.7978 -0.1056  0.6031
  115MOL0     C15054   1.355   7.115   8.049 -0.0424  0.3312  0.4874
  115MOL0     C15055   1.423   7.002   8.112  0.0147  0.1896  0.2139
  115MOL0     O15056   1.551   6.962   8.081  0.1493  0.3665 -0.4913
  115MOL0     C15057   1.648   7.070   8.067  0.9562  0.5807 -0.4973
  115MOL0     C15058   1.791   7.021   8.081 -0.2365  0.1955  0.1175
  115MOL0     C15059   1.891   7.139   8.078 -0.8122 -0.0573 -0.2728
  115MOL0     C15060   2.042   7.097   8.108  1.0517 -0.2773 -1.0023
  115MOL0     C15061   2.133   7.217   8.122 -0.6566 -0.5315  0.6524
  115MOL0     C15062   2.280   7.167   8.121  0.4410  0.6716 -0.3861
  115MOL0     C15063   2.376   7.277   8.094  0.4099 -0.9712  0.2684
  115MOL0     C15064   2.516   7.227   8.058 -0.2725  0.4004  0.9038
  115MOL0     N15065   2.596   7.203   8.181  0.4391 -0.1952 -0.3853
  115MOL0     C15066   2.711   7.267   8.217 -0.0221  0.1691  1.0406
  115MOL0     C15067   2.749   7.205   8.336 -1.1622 -0.6214  0.0021
  115MOL0     C15068   2.871   7.211   8.422 -0.4106 -0.5409  0.0110
  115MOL0     C15069   3.006   7.185   8.356  1.0265  0.3955  1.2777
  115MOL0     C15070   3.126   7.222   8.448 -0.3628 -0.3337  0.0246
  115MOL0     C15071   3.257   7.186   8.382  0.5914 -0.4841 -0.4958
  115MOL0     O15072   3.283   7.052   8.412 -0.1583  0.6786  0.2199
  115MOL0     C15073   3.411   7.005   8.397  0.8364 -0.9180 -0.2923
  115MOL0     C15074   3.525   7.084   8.387  0.0653  0.0753 -0.3856
  115MOL0     C15075   3.650   7.026   8.373 -0.0924 -0.1085  0.2027
  115MOL0     C15076   3.660   6.888   8.368  0.7751  1.2766 -1.0787
  115MOL0     C15077   3.795   6.815   8.348 -0.1412  0.3602  0.0753
  115MOL0     O15078   3.908   6.891   8.312  0.0457  0.1157  0.0546
  115MOL0     C15079   4.037   6.857   8.319  0.5596 -0.7273 -0.0584
  115MOL0     C15080   4.082   6.732   8.360 -0.2930  0.1309  0.0471
  115MOL0     C15081   4.218   6.714   8.371 -0.5125 -0.3567  0.6189
  115MOL0     C15082   4.306   6.819   8.367 -0.7340  0.5709 -0.2758
  115MOL0     O15083   4.442   6.781   8.400 -0.0892 -0.2979 -0.0607
  115MOL0     C15084   4.544   6.878   8.384  0.0992 -1.1795  0.4077
  115MOL0     C15085   4.683   6.816   8.430 -0.1848 -1.0370  0.6301
  115MOL0     C15086   4.786   6.929   8.432 -0.2466  0.4556 -0.0072
  115MOL0     C15087   4.919   6.861   8.469  0.6994 -1.0118 -0.1875
  115MOL0     C15088   5.017   6.983   8.488 -0.0390 -0.7741  0.5893
  115MOL0     C15089   5.042   7.050   8.345  0.7074 -0.3897  0.2753
  115MOL0     C15090   5.172   7.129   8.334  0.2087 -0.4926  0.6296
  115MOL0     C15091   5.190   7.228   8.448 -0.3396  0.0495 -0.3377
  115MOL0    Cl15092   5.354   7.303   8.406 -0.2643 -0.0617  0.3764
  115MOL0     C15093   4.254   6.946   8.335 -0.1147 -0.1032 -0.6634
  115MOL0     C15094   4.126   6.963   8.309 -0.4485 -0.4173  0.2033
  115MOL0     O15095   3.789   6.694   8.375  0.1143 -0.4189  0.7797
  115MOL0     C15096   3.546   6.813   8.385 -0.0794 -0.9095 -0.0402
  115MOL0     C15097   3.422   6.872   8.385 -0.6645  0.1169 -0.3433
  115MOL0     N15098   2.651   7.118   8.369  0.3046  0.5429 -0.6134
  115MOL0     N15099   2.564   7.110   8.279  0.8098 -1.0301  0.0088
  115MOL0     C15100   1.359   6.934   8.212 -0.6673 -0.0318 -0.0861
  115MOL0     C15101   1.226   6.967   8.240  0.0082 -0.1913 -0.2346
  115MOL0     C15102   0.811   7.072   8.294 -0.0047 -0.3258 -0.7317
  115MOL0     C15103   0.724   7.005   8.375  0.0510  0.4266  0.5068
  115MOL0     C15104   0.602   7.065   8.408 -0.5407 -0.4212 -0.2658
  115MOL0     C15105   0.563   7.191   8.357  0.1021 -0.2549 -0.0286
  115MOL0     O15106   0.436   7.237   8.383  0.9509 -0.4965 -0.4264
  115MOL0     C15107   0.382   7.373   8.349  0.0583 -0.3587 -0.4664
  115MOL0     C15108   0.228   7.363   8.383  0.4221 -0.2437  0.2403
  115MOL0     C15109   0.154   7.267   8.285  0.4121  0.5176  0.4991
  115MOL0     C15110   0.005   7.254   8.309 -0.5635 -0.5163 -0.0092
  115MOL0     C15111  -0.074   7.218   8.194  0.6673 -1.1586  0.2922
  115MOL0     C15112  -0.151   7.187   8.105  0.4640 -0.3816 -1.4055
  115MOL0     C15113   0.658   7.258   8.287 -0.5101 -0.3828  0.7037
  115MOL0     C15114   0.785   7.206   8.253  0.7997 -0.5272 -0.9690
  115MOL0     H15115   1.156   7.228   8.070 -1.5390  0.1113  2.7442
  115MOL0     H15116   1.407   7.167   7.970  2.6359  1.2407  2.6869
  115MOL0     H15117   1.638   7.147   8.144 -0.6978  0.3324 -0.4270
  115MOL0     H15118   1.629   7.126   7.975 -0.6891  3.6809  1.5662
  115MOL0     H15119   1.816   6.955   7.998  0.3033  2.2634 -1.4465
  115MOL0     H15120   1.798   6.952   8.166 -0.0948  1.6008  1.2761
  115MOL0     H15121   1.873   7.209   8.160 -0.5111 -1.2070  0.8045
  115MOL0     H15122   1.887   7.194   7.983  0.6851 -0.8886 -0.8479
  115MOL0     H15123   2.040   7.035   8.198 -1.0869 -1.6627 -1.9213
  115MOL0     H15124   2.084   7.032   8.031  2.5485 -1.2084  0.5445
  115MOL0     H15125   2.123   7.276   8.213  0.6003 -3.3867  2.8233
  115MOL0     H15126   2.125   7.283   8.036 -1.2773 -1.1251  0.2448
  115MOL0     H15127   2.282   7.085   8.048  0.5342 -3.5168  3.8560
  115MOL0     H15128   2.311   7.124   8.216 -1.1046  2.4046  0.9640
  115MOL0     H15129   2.342   7.338   8.010  3.1196 -0.1532 -0.3068
  115MOL0     H15130   2.391   7.341   8.181 -0.5891 -0.8598  0.3801
  115MOL0     H15131   2.566   7.302   7.997  1.6359 -1.6994 -0.2784
  115MOL0     H15132   2.504   7.133   8.003  2.8365 -0.7423  1.9585
  115MOL0     H15133   2.768   7.339   8.160  1.2177 -1.7322 -0.2351
  115MOL0     H15134   2.883   7.139   8.505  2.0914  0.5080  0.6792
  115MOL0     H15135   2.872   7.307   8.474 -0.3413 -1.2408  1.3669
  115MOL0     H15136   3.008   7.246   8.265 -0.1478  0.8371  1.5196
  115MOL0     H15137   3.003   7.085   8.312 -1.0742  0.9086  0.1157
  115MOL0     H15138   3.127   7.330   8.466  1.5841 -0.3360  0.2151
  115MOL0     H15139   3.119   7.159   8.538 -0.1803 -0.7613 -0.2570
  115MOL0     H15140   3.330   7.254   8.428  0.2825  0.2565 -1.0811
  115MOL0     H15141   3.239   7.193   8.275  2.1566 -0.1536 -0.7690
  115MOL0     H15142   3.514   7.192   8.385 -2.9838 -0.1452 -0.4836
  115MOL0     H15143   3.733   7.094   8.357  1.2983 -1.9534 -0.7103
  115MOL0     H15144   4.018   6.650   8.391 -0.8497  1.0045  1.2537
  115MOL0     H15145   4.251   6.615   8.399 -0.1723 -0.1641  0.9083
  115MOL0     H15146   4.524   6.966   8.446  1.3207 -0.6271  0.0494
  115MOL0     H15147   4.544   6.908   8.279 -0.0268  1.3803  1.0664
  115MOL0     H15148   4.702   6.740   8.354  0.8985  2.0745 -2.4794
  115MOL0     H15149   4.674   6.788   8.535 -1.0371  3.7773  2.1071
  115MOL0     H15150   4.755   6.992   8.516 -0.8624 -1.5352  1.3201
  115MOL0     H15151   4.787   6.994   8.343  0.5384 -1.5246 -1.5195
  115MOL0     H15152   4.915   6.812   8.567 -0.4479  0.4778  0.5581
  115MOL0     H15153   4.957   6.781   8.405  0.2862 -2.2338  1.0559
  115MOL0     H15154   5.116   6.954   8.524  0.7445  0.7115 -0.2643
  115MOL0     H15155   4.974   7.058   8.555 -1.6013  2.5747 -3.6581
  115MOL0     H15156   4.968   7.130   8.334 -0.7833 -1.8353 -0.6236
  115MOL0     H15157   5.018   6.982   8.262 -2.4788 -0.1597  0.8928
  115MOL0     H15158   5.259   7.062   8.332 -0.9463 -2.0185  0.2069
  115MOL0     H15159   5.168   7.186   8.241  0.1857 -2.0003 -0.3191
  115MOL0     H15160   5.188   7.184   8.548  0.1759  0.7048 -0.0314
  115MOL0     H15161   5.121   7.312   8.433 -0.2936 -0.3494 -3.3346
  115MOL0     H15162   4.323   7.030   8.336 -0.7195  0.4837  2.2197
  115MOL0     H15163   4.090   7.064   8.293 -1.2206 -0.7589 -0.3012
  115MOL0     H15164   3.560   6.705   8.386  2.0636 -0.7985 -3.0111
  115MOL0     H15165   3.328   6.817   8.381 -0.5387 -0.0400 -1.4062
  115MOL0     H15166   1.406   6.854   8.269 -0.1676 -0.5273 -1.1616
  115MOL0     H15167   1.176   6.927   8.328  1.0593 -0.2986  0.3335
  115MOL0     H15168   0.740   6.899   8.394  3.4160  0.3727 -1.7777
  115MOL0     H15169   0.522   7.012   8.458  0.0894 -2.6487 -1.4406
  115MOL0     H15170   0.390   7.408   8.246 -0.4824  2.9075  0.4737
  115MOL0     H15171   0.426   7.446   8.418 -3.1864  1.2149  0.1180
  115MOL0     H15172   0.217   7.313   8.480  0.3853  0.3085  0.5291
  115MOL0     H15173   0.181   7.462   8.381 -1.5094 -1.0802  1.3855
  115MOL0     H15174   0.203   7.169   8.291  0.2646  0.4980  1.5655
  115MOL0     H15175   0.169   7.315   8.188 -0.9865 -1.9883 -1.0717
  115MOL0     H15176  -0.007   7.179   8.388  1.6444  0.7323  1.6235
  115MOL0     H15177  -0.034   7.344   8.358 -2.4251 -1.9570  1.2940
  115MOL0     H15178  -0.225   7.169   8.029 -4.1665  1.4910  2.1961
  115MOL0     H15179   0.624   7.353   8.246 -0.7319 -0.4458  0.7412
  115MOL0     H15180   0.854   7.262   8.190  2.4544 -2.2266 -0.7761
  116MOL0     O15181   0.311   3.056   0.045 -0.5210 -0.8526 -0.0841
  116MOL0     C15182   0.311   3.064  -0.078  1.0289 -0.0352  0.0338
  116MOL0     O15183   0.421   3.042  -0.163 -0.0534  0.9095 -0.4974
  116MOL0     C15184   0.534   3.008  -0.099 -0.0409  0.3646  0.2501
  116MOL0     C15185   0.620   3.102  -0.048 -0.5028 -0.3109  0.1678
  116MOL0     C15186   0.750   3.070  -0.008  0.5737 -0.2054 -0.2248
  116MOL0     C15187   0.796   2.940  -0.011 -0.1013 -0.2459 -0.2356
  116MOL0     O15188   0.927   2.911   0.027  0.1076 -0.2662 -0.1421
  116MOL0     C15189   0.969   2.783   0.055  0.1809 -0.3302 -0.2790
  116MOL0     C15190   1.117   2.769   0.055 -1.5630  0.3178 -0.7619
  116MOL0     C15191   1.185   2.817   0.179 -0.1871 -0.1231 -0.3197
  116MOL0     C15192   1.327   2.758   0.194 -0.2321  0.7128 -0.8145
  116MOL0     C15193   1.393   2.799   0.330 -0.2629 -0.1805 -0.4224
  116MOL0     C15194   1.524   2.736   0.355  0.3371  1.1137 -0.0406
  116MOL0     C15195   1.640   2.750   0.252 -0.5640  0.2910  1.1934
  116MOL0     C15196   1.777   2.718   0.327 -0.2708  0.1383  0.5257
  116MOL0     N15197   1.890   2.770   0.247 -0.1881  0.0909 -0.1033
  116MOL0     C15198   2.000   2.702   0.187 -0.4982  0.4130  0.0666
  116MOL0     C15199   2.065   2.800   0.120  0.3513 -0.5879  0.5006
  116MOL0     C15200   2.177   2.768   0.032 -1.3794 -0.3280 -0.2741
  116MOL0     C15201   2.295   2.862   0.033 -0.1434 -0.1942 -0.5785
  116MOL0     C15202   2.277   2.963  -0.076 -0.1637 -0.8455  0.4096
  116MOL0     C15203   2.352   3.097  -0.047  0.5903  0.1539 -0.9170
  116MOL0     O15204   2.308   3.210  -0.120  0.1123 -0.1655  0.4706
  116MOL0     C15205   2.199   3.285  -0.073 -0.5059  0.3733 -0.8317
  116MOL0     C15206   2.174   3.411  -0.140 -1.6305  0.1507 -0.6767
  116MOL0     C15207   2.080   3.489  -0.081 -0.2125 -0.3049  0.0462
  116MOL0     C15208   2.007   3.465   0.039 -0.1613  0.3582  0.4125
  116MOL0     C15209   1.898   3.553   0.081  0.0280 -0.1255 -1.1468
  116MOL0     O15210   1.822   3.497   0.178 -0.2299  0.4966  0.6358
  116MOL0     C15211   1.694   3.543   0.205 -0.2883  0.2327  1.0918
  116MOL0     C15212   1.608   3.605   0.108  0.5791  1.0516 -0.6354
  116MOL0     C15213   1.493   3.668   0.149  0.0160  0.1150 -0.2672
  116MOL0     C15214   1.456   3.660   0.284  0.4665  0.9413  0.0736
  116MOL0     O15215   1.344   3.709   0.328 -0.9567  0.6331 -0.0002
  116MOL0     C15216   1.222   3.730   0.250 -0.8554  0.2777  0.2294
  116MOL0     C15217   1.109   3.766   0.336 -0.0976 -0.8481 -0.3712
  116MOL0     C15218   1.049   3.644   0.407  0.6825 -0.1992  0.3540
  116MOL0     C15219   0.966   3.696   0.521  0.9365 -0.1642  0.0993
  116MOL0     C15220   0.884   3.578   0.586  0.0613  0.3395  0.0943
  116MOL0     C15221   0.850   3.607   0.730  0.7516  0.4030 -0.5568
  116MOL0     C15222   0.812   3.478   0.806 -0.3422 -0.0943  0.2797
  116MOL0     C15223   0.928   3.378   0.841  0.1652  0.0117 -1.1574
  116MOL0    Cl15224   1.062   3.469   0.915  0.4652 -0.0695  0.0314
  116MOL0     C15225   1.539   3.588   0.374 -0.2642 -0.9208 -0.5621
  116MOL0     C15226   1.660   3.536   0.341  1.2576  0.7335  0.4981
  116MOL0     O15227   1.883   3.670   0.035  0.2391  0.0286 -0.3946
  116MOL0     C15228   2.033   3.333   0.101  1.0208  0.1941 -0.7264
  116MOL0     C15229   2.126   3.246   0.036 -0.1100  0.2589  0.4436
  116MOL0     N15230   1.998   2.919   0.141  0.1484 -0.0611 -0.2118
  116MOL0     N15231   1.899   2.902   0.220 -0.2207 -0.1996 -0.2968
  116MOL0     C15232   0.704   2.846  -0.053 -0.5486  0.7674 -0.1757
  116MOL0     C15233   0.579   2.876  -0.094  0.3613  0.5862  0.2209
  116MOL0     C15234   0.193   3.119  -0.151 -0.2833 -0.5650  0.1850
  116MOL0     C15235   0.088   3.177  -0.084 -0.2829 -0.0330 -0.4307
  116MOL0     C15236  -0.019   3.236  -0.147  0.7539 -1.2603 -0.5100
  116MOL0     C15237  -0.024   3.250  -0.288  0.2068 -0.0650 -0.2251
  116MOL0     O15238  -0.125   3.324  -0.335  0.2091  0.5303 -0.3619
  116MOL0     C15239  -0.162   3.332  -0.474  0.3883  0.3604  0.0233
  116MOL0     C15240  -0.264   3.450  -0.490 -0.1235 -1.0466  0.4878
  116MOL0     C15241  -0.404   3.420  -0.426 -0.3420 -0.5879 -0.4448
  116MOL0     C15242  -0.482   3.548  -0.417  0.0766 -0.5082 -0.9052
  116MOL0     C15243  -0.439   3.615  -0.299  0.8340 -0.5486  0.4780
  116MOL0     C15244  -0.409   3.680  -0.197  0.4191  0.5899  0.0443
  116MOL0     C15245   0.081   3.188  -0.361 -0.9271 -1.0594 -0.2714
  116MOL0     C15246   0.189   3.115  -0.290  0.8002  0.0679 -0.1417
  116MOL0     H15247   0.586   3.204  -0.058  0.1547 -0.0335  0.7056
  116MOL0     H15248   0.821   3.148   0.016  1.2857 -1.0704  0.5663
  116MOL0     H15249   0.937   2.723  -0.030 -0.7375 -0.9902  0.4999
  116MOL0     H15250   0.934   2.751   0.154  2.1938 -1.1703  0.2082
  116MOL0     H15251   1.167   2.824  -0.024 -1.8895 -0.6486 -1.6583
  116MOL0     H15252   1.144   2.666   0.028 -2.7830 -0.3349  0.3391
  116MOL0     H15253   1.126   2.780   0.264 -1.0422  1.1093 -0.3591
  116MOL0     H15254   1.204   2.924   0.184  1.0253 -0.2257 -1.9653
  116MOL0     H15255   1.317   2.650   0.175 -1.9119  0.9149 -1.2178
  116MOL0     H15256   1.399   2.797   0.121 -1.2699 -0.1285 -2.3461
  116MOL0     H15257   1.332   2.755   0.410  0.1552  1.0079  0.5800
  116MOL0     H15258   1.396   2.907   0.346  1.5387 -0.4399  1.4753
  116MOL0     H15259   1.510   2.633   0.389 -3.0861  1.8075  1.0591
  116MOL0     H15260   1.559   2.785   0.447 -0.7230  2.0333 -0.1084
  116MOL0     H15261   1.622   2.691   0.162 -1.2672 -2.0463  2.7775
  116MOL0     H15262   1.642   2.856   0.224  0.2344 -0.1925 -0.6994
  116MOL0     H15263   1.786   2.611   0.351 -2.3207 -0.9474 -2.8022
  116MOL0     H15264   1.783   2.777   0.418 -2.1003  1.3166 -0.0805
  116MOL0     H15265   2.030   2.599   0.201  0.3385  0.7430  0.7841
  116MOL0     H15266   2.138   2.738  -0.065 -3.3256  1.3593 -0.0837
  116MOL0     H15267   2.219   2.677   0.076 -1.1404  0.3490  0.9512
  116MOL0     H15268   2.386   2.807   0.008 -0.9643 -2.3188  0.7864
  116MOL0     H15269   2.314   2.911   0.128 -2.0213 -0.2783 -0.1120
  116MOL0     H15270   2.313   2.926  -0.172  2.0125  1.6530  0.1722
  116MOL0     H15271   2.170   2.986  -0.088  0.6337  2.7857 -0.8269
  116MOL0     H15272   2.457   3.078  -0.071  1.2302  1.9532  0.2357
  116MOL0     H15273   2.359   3.129   0.058 -1.4643 -1.2937 -0.2785
  116MOL0     H15274   2.204   3.453  -0.235 -2.6000  4.1373  0.6081
  116MOL0     H15275   2.061   3.583  -0.130 -1.0290 -1.1868 -1.3885
  116MOL0     H15276   1.632   3.605   0.002 -0.2482  1.4019 -0.8287
  116MOL0     H15277   1.445   3.736   0.080 -4.1836  0.5660  2.7483
  116MOL0     H15278   1.196   3.644   0.187  1.1650 -0.0120 -0.2657
  116MOL0     H15279   1.232   3.814   0.180  1.5322  0.0002  0.1696
  116MOL0     H15280   1.034   3.819   0.276 -2.4024 -3.7468 -0.2235
  116MOL0     H15281   1.147   3.828   0.418 -1.4599 -1.2149  0.5686
  116MOL0     H15282   1.128   3.571   0.428 -0.7241 -3.9864 -5.1779
  116MOL0     H15283   0.977   3.602   0.336 -0.2626  1.3382  0.3606
  116MOL0     H15284   1.025   3.749   0.595 -2.2438  1.7618  1.4909
  116MOL0     H15285   0.890   3.761   0.475  1.1938  1.8975  2.4371
  116MOL0     H15286   0.951   3.491   0.585  1.9498  1.7244 -1.0326
  116MOL0     H15287   0.803   3.546   0.519 -0.4920 -0.1283  0.9777
  116MOL0     H15288   0.773   3.683   0.741  1.4845  0.8965  1.5675
  116MOL0     H15289   0.937   3.655   0.777 -0.2390  1.3585  0.3494
  116MOL0     H15290   0.760   3.506   0.898 -1.5336  0.0521 -0.4120
  116MOL0     H15291   0.728   3.435   0.750 -1.2643  1.9571  0.0047
  116MOL0     H15292   0.966   3.332   0.750  2.1071 -0.7908 -0.0216
  116MOL0     H15293   0.884   3.300   0.904  1.3410  0.7676  0.7053
  116MOL0     H15294   1.518   3.581   0.480  0.7493  0.3264 -0.2508
  116MOL0     H15295   1.721   3.483   0.413 -1.0383 -0.1630  1.8742
  116MOL0     H15296   1.980   3.305   0.191  0.4138  3.0457 -0.0888
  116MOL0     H15297   2.133   3.149   0.085 -1.0494  0.4679  1.0084
  116MOL0     H15298   0.729   2.740  -0.061  1.0864  1.1159 -0.1782
  116MOL0     H15299   0.511   2.798  -0.128  3.4946 -2.4063  0.2097
  116MOL0     H15300   0.091   3.201   0.022 -1.4387  0.4454 -0.4920
  116MOL0     H15301  -0.108   3.263  -0.091  1.4996 -1.2998  0.7215
  116MOL0     H15302  -0.206   3.239  -0.508 -1.6153  0.7297  1.4350
  116MOL0     H15303  -0.074   3.359  -0.533  0.0515  0.4881 -0.4239
  116MOL0     H15304  -0.223   3.544  -0.451 -1.0361  0.3763 -1.7954
  116MOL0     H15305  -0.266   3.454  -0.599  0.5175  0.1186  0.5013
  116MOL0     H15306  -0.388   3.363  -0.334  2.8245 -1.4350 -1.4100
  116MOL0     H15307  -0.452   3.353  -0.498 -0.6002  1.3606 -2.1831
  116MOL0     H15308  -0.473   3.616  -0.503  3.2406  3.0298  1.8694
  116MOL0     H15309  -0.582   3.513  -0.388  0.2176 -0.7724 -0.7398
  116MOL0     H15310  -0.384   3.738  -0.111  2.1609 -0.2217  0.1403
  116MOL0     H15311   0.078   3.186  -0.469 -1.9753 -1.3909 -0.2528
  116MOL0     H15312   0.250   3.063  -0.363 -1.2424 -2.9788  0.1734
  117MOL0     O15313   0.537   8.556   5.151  0.5218 -1.0312 -0.3732
  117MOL0     C15314   0.631   8.636   5.148  0.5526  0.1668  0.4373
  117MOL0     O15315   0.665   8.719   5.248 -0.1859  0.3954  0.0520
  117MOL0     C15316   0.583   8.735   5.355 -0.1437  0.2108 -0.3567
  117MOL0     C15317   0.481   8.835   5.354 -0.1344 -0.0946  0.8966
  117MOL0     C15318   0.412   8.867   5.472 -0.1309 -0.0891 -0.0771
  117MOL0     C15319   0.440   8.803   5.589  0.0477  0.9663  0.2767
  117MOL0     O15320   0.373   8.824   5.710 -0.0897  0.9322  0.1719
  117MOL0     C15321   0.265   8.730   5.733 -0.2414 -1.3365 -0.0822
  117MOL0     C15322   0.202   8.763   5.857  0.2631 -0.5171 -0.2328
  117MOL0     C15323   0.120   8.644   5.925  0.1232 -0.2060  0.6708
  117MOL0     C15324   0.057   8.684   6.064  0.2907  0.7094  0.3221
  117MOL0     C15325  -0.059   8.772   6.043  0.2809  0.0468 -0.5401
  117MOL0     C15326  -0.179   8.719   5.959 -0.2378 -0.0232 -0.4299
  117MOL0     C15327  -0.306   8.803   5.996  0.4426 -1.0479 -0.2169
  117MOL0     C15328  -0.283   8.962   5.996 -0.4417  1.0213 -0.0987
  117MOL0     N15329  -0.405   9.033   5.974  0.5419 -0.4662  0.1671
  117MOL0     C15330  -0.493   9.063   6.076 -0.0185  0.5433  0.1918
  117MOL0     C15331  -0.585   9.134   6.005  0.4773 -0.5205 -0.7631
  117MOL0     C15332  -0.707   9.193   6.071  0.0765  0.2520 -0.0909
  117MOL0     C15333  -0.829   9.100   6.070  1.0001 -0.3058  0.1051
  117MOL0     C15334  -0.940   9.176   6.147 -0.8390  0.0253  0.1439
  117MOL0     C15335  -1.065   9.091   6.156 -0.0018 -0.2004 -0.2585
  117MOL0     O15336  -1.138   9.125   6.282 -0.4405  0.7529  0.0794
  117MOL0     C15337  -1.265   9.182   6.282 -0.1791 -0.3286 -0.7611
  117MOL0     C15338  -1.292   9.297   6.207  0.8417 -0.1416  0.1614
  117MOL0     C15339  -1.422   9.352   6.193 -0.1258 -0.3344  0.9871
  117MOL0     C15340  -1.522   9.295   6.265  0.4029  0.2808 -0.2392
  117MOL0     C15341  -1.653   9.353   6.256  0.6066  0.2027  0.1521
  117MOL0     O15342  -1.665   9.482   6.194 -0.4161  0.7084 -0.1187
  117MOL0     C15343  -1.784   9.528   6.147 -0.3626 -0.6466 -0.9327
  117MOL0     C15344  -1.851   9.462   6.055  0.9599 -0.3920  0.1663
  117MOL0     C15345  -1.965   9.509   5.990  0.2115  0.1257 -0.6229
  117MOL0     C15346  -2.023   9.630   6.025 -0.0383 -0.8711 -0.3903
  117MOL0     O15347  -2.136   9.688   5.970 -0.0560  0.6168  0.1145
  117MOL0     C15348  -2.248   9.702   6.065 -0.9093  0.1040  0.9376
  117MOL0     C15349  -2.291   9.852   6.064  0.5666  0.4641  0.4990
  117MOL0     C15350  -2.409   9.877   6.152  1.4448 -0.3354 -0.0653
  117MOL0     C15351  -2.459  10.025   6.155  0.0965  0.2922 -0.5175
  117MOL0     C15352  -2.463  10.091   6.015 -0.3246  0.6065  0.0727
  117MOL0     C15353  -2.524  10.234   6.009  0.7153 -0.4602 -0.1732
  117MOL0     C15354  -2.675  10.242   6.045  0.0922  0.0962 -1.0053
  117MOL0     C15355  -2.742  10.351   5.962  1.2978  0.2261  0.6895
  117MOL0    Cl15356  -2.702  10.498   6.038  0.2376 -0.0980 -0.5566
  117MOL0     C15357  -1.948   9.702   6.120 -0.8321 -0.8487 -0.1737
  117MOL0     C15358  -1.822   9.656   6.174 -0.0652  0.0703  0.8936
  117MOL0     O15359  -1.750   9.282   6.293 -0.6119 -0.6703  0.2375
  117MOL0     C15360  -1.502   9.178   6.345 -0.0281  0.3853 -0.1958
  117MOL0     C15361  -1.370   9.126   6.350  0.7380 -0.1935 -0.8207
  117MOL0     N15362  -0.557   9.147   5.875  0.5462  0.0882 -0.0590
  117MOL0     N15363  -0.452   9.076   5.850  0.6527  0.0694  0.1041
  117MOL0     C15364   0.537   8.704   5.595  0.5144  0.0442  0.0072
  117MOL0     C15365   0.609   8.671   5.480  0.7575 -0.0405 -0.3357
  117MOL0     C15366   0.733   8.604   5.046 -0.9319  0.2806  0.2484
  117MOL0     C15367   0.725   8.496   4.953  0.1867  0.0850  0.7597
  117MOL0     C15368   0.823   8.485   4.852 -0.5154 -0.2524 -0.0808
  117MOL0     C15369   0.927   8.575   4.846 -0.0081  0.3821 -0.2554
  117MOL0     O15370   1.018   8.535   4.757 -0.4174 -0.7396  0.0546
  117MOL0     C15371   1.156   8.585   4.771  0.3009  0.3282 -0.8026
  117MOL0     C15372   1.250   8.475   4.721  0.5229 -0.3835  0.8056
  117MOL0     C15373   1.210   8.414   4.583 -0.6241 -0.1874  0.8046
  117MOL0     C15374   1.249   8.514   4.470 -0.8380  0.0359 -0.3524
  117MOL0     C15375   1.205   8.450   4.346 -0.2480 -0.4260 -0.2140
  117MOL0     C15376   1.156   8.425   4.236 -0.0667 -0.7382  0.9120
  117MOL0     C15377   0.937   8.686   4.930 -0.8286  0.5106 -0.1611
  117MOL0     C15378   0.835   8.702   5.027 -0.1711  0.3132 -0.5529
  117MOL0     H15379   0.462   8.895   5.266  0.9533 -0.9285  0.0658
  117MOL0     H15380   0.332   8.940   5.478 -0.8610 -0.8544 -0.1391
  117MOL0     H15381   0.296   8.627   5.717 -0.3393 -1.3827  0.0200
  117MOL0     H15382   0.195   8.764   5.655  3.2631  1.6950 -2.2077
  117MOL0     H15383   0.145   8.854   5.833  0.4885 -0.4780 -0.6243
  117MOL0     H15384   0.280   8.790   5.929  0.1443 -0.0977 -0.2588
  117MOL0     H15385   0.192   8.562   5.934  1.4376  0.6601 -1.2761
  117MOL0     H15386   0.050   8.609   5.848  0.7332 -2.8623  1.2147
  117MOL0     H15387   0.028   8.603   6.131  3.1780  0.4624  1.4118
  117MOL0     H15388   0.134   8.739   6.119 -0.4302  0.5472  1.5410
  117MOL0     H15389  -0.032   8.865   5.992  1.0664  1.5920  2.4317
  117MOL0     H15390  -0.090   8.798   6.145  3.3738 -0.4348  0.6482
  117MOL0     H15391  -0.194   8.613   5.981 -1.2371 -0.0817 -1.3312
  117MOL0     H15392  -0.158   8.734   5.853  1.3733 -1.2695 -0.3241
  117MOL0     H15393  -0.394   8.777   5.935 -1.2928  2.2721  0.6445
  117MOL0     H15394  -0.342   8.769   6.093 -1.2839  1.7805  0.2363
  117MOL0     H15395  -0.235   8.984   5.900 -3.6695 -0.8590 -2.3141
  117MOL0     H15396  -0.235   8.996   6.089 -1.1149 -3.6204  2.2479
  117MOL0     H15397  -0.496   9.037   6.182 -1.9793 -3.3940 -0.6509
  117MOL0     H15398  -0.742   9.281   6.016  0.2552 -0.9233 -2.1471
  117MOL0     H15399  -0.680   9.225   6.173 -0.8800  0.9999 -0.0532
  117MOL0     H15400  -0.798   9.004   6.113  0.1556 -0.1187  1.1578
  117MOL0     H15401  -0.851   9.085   5.964  1.6473  1.5800 -0.3280
  117MOL0     H15402  -0.913   9.207   6.249  0.4501  3.5223 -1.1212
  117MOL0     H15403  -0.965   9.272   6.101 -0.9839  0.9257  2.0144
  117MOL0     H15404  -1.041   8.985   6.164 -7.5059 -2.9922 -4.6308
  117MOL0     H15405  -1.122   9.119   6.067 -0.4540  1.1253  0.4171
  117MOL0     H15406  -1.218   9.353   6.151  1.3029 -0.3491  0.5540
  117MOL0     H15407  -1.433   9.436   6.127  0.4482 -1.5925 -0.7898
  117MOL0     H15408  -1.815   9.362   6.030  0.6977  0.5327 -4.9950
  117MOL0     H15409  -2.011   9.437   5.923 -2.6827  0.2340  1.0954
  117MOL0     H15410  -2.216   9.679   6.168  0.1094 -4.2921 -0.1419
  117MOL0     H15411  -2.332   9.636   6.043 -1.7582  1.5864 -0.4279
  117MOL0     H15412  -2.314   9.885   5.963  1.6801  0.0522  0.0921
  117MOL0     H15413  -2.207   9.916   6.095  0.7487  1.3885 -1.7496
  117MOL0     H15414  -2.373   9.848   6.251  2.1453 -0.5762 -0.3874
  117MOL0     H15415  -2.495   9.822   6.112  0.1626  1.6140 -0.1376
  117MOL0     H15416  -2.564  10.027   6.187  0.1884 -1.2414 -0.0516
  117MOL0     H15417  -2.395  10.073   6.229  2.5593 -2.8741 -0.3840
  117MOL0     H15418  -2.523  10.029   5.948 -0.8426  2.6600 -1.4835
  117MOL0     H15419  -2.362  10.093   5.974  0.0136  0.6397  0.8900
  117MOL0     H15420  -2.497  10.275   5.911  2.4411  5.4170  2.3169
  117MOL0     H15421  -2.469  10.299   6.078  0.6828 -1.6861  1.0340
  117MOL0     H15422  -2.720  10.146   6.019  1.2048 -0.6748 -0.1604
  117MOL0     H15423  -2.691  10.269   6.150 -0.0972 -0.4753 -0.8859
  117MOL0     H15424  -2.850  10.331   5.968  0.9552  1.3561 -0.9043
  117MOL0     H15425  -2.710  10.339   5.858  1.4417  0.8433  0.6611
  117MOL0     H15426  -1.976   9.805   6.143  0.4136 -0.5862  0.2460
  117MOL0     H15427  -1.751   9.715   6.229  0.2350  1.9726 -1.3689
  117MOL0     H15428  -1.583   9.129   6.399  0.0186 -0.0489 -0.5112
  117MOL0     H15429  -1.367   9.042   6.419 -1.9245 -0.9161 -1.4882
  117MOL0     H15430   0.569   8.673   5.694  1.4699 -2.3712 -0.9797
  117MOL0     H15431   0.694   8.604   5.493  1.7873  1.0214 -1.3446
  117MOL0     H15432   0.644   8.424   4.958  2.7958 -3.1562  0.2845
  117MOL0     H15433   0.807   8.410   4.775 -1.9441  0.7067 -0.7615
  117MOL0     H15434   1.174   8.611   4.875 -1.3008 -1.1600 -0.0962
  117MOL0     H15435   1.169   8.680   4.720 -0.2599 -0.5603 -2.7143
  117MOL0     H15436   1.353   8.511   4.713  1.9941 -4.3786 -1.0791
  117MOL0     H15437   1.234   8.402   4.801  0.3366 -2.1086 -0.7349
  117MOL0     H15438   1.108   8.377   4.571 -0.2270 -1.1936  0.4377
  117MOL0     H15439   1.265   8.320   4.570 -0.0995  0.1797  0.3108
  117MOL0     H15440   1.194   8.606   4.492 -1.4722 -1.0678  3.4712
  117MOL0     H15441   1.355   8.540   4.464 -0.7579  0.0200  0.7942
  117MOL0     H15442   1.109   8.415   4.140 -1.3116  0.7214  1.3180
  117MOL0     H15443   1.012   8.764   4.919  0.0437 -0.5966 -3.1091
  117MOL0     H15444   0.835   8.792   5.087 -1.0714  0.9585 -1.4790
  118MOL0     O15445   1.170   3.130   8.229 -0.2254 -0.1264  0.6081
  118MOL0     C15446   1.123   3.038   8.172  0.0248 -0.1265 -0.0025
  118MOL0     O15447   0.994   3.022   8.136  0.6221  0.0314 -0.4775
  118MOL0     C15448   0.883   3.097   8.174  0.0034 -0.3359 -0.1876
  118MOL0     C15449   0.758   3.048   8.134 -1.1602 -0.9649  0.4482
  118MOL0     C15450   0.643   3.125   8.154  0.2689  0.2177 -0.0902
  118MOL0     C15451   0.649   3.251   8.227  0.0550  0.2161 -0.3703
  118MOL0     O15452   0.535   3.324   8.247  0.3248 -0.4557  0.0532
  118MOL0     C15453   0.409   3.261   8.265 -0.9447 -0.7045  0.7185
  118MOL0     C15454   0.300   3.342   8.291 -0.0412  0.4690  0.1778
  118MOL0     C15455   0.185   3.321   8.189  0.6921  0.1031  0.2588
  118MOL0     C15456   0.067   3.415   8.230  0.1976 -0.6051  0.0857
  118MOL0     C15457  -0.058   3.408   8.137 -0.1985 -0.6055  0.2405
  118MOL0     C15458  -0.177   3.491   8.201  0.0651  0.1303 -0.1940
  118MOL0     C15459  -0.249   3.414   8.307  0.3678 -0.1397 -0.1018
  118MOL0     C15460  -0.342   3.494   8.400 -0.1403  0.0494 -1.0834
  118MOL0     N15461  -0.413   3.400   8.494 -0.2130 -1.1670 -0.8802
  118MOL0     C15462  -0.551   3.385   8.501  0.5103 -0.0965  0.3645
  118MOL0     C15463  -0.565   3.293   8.603 -0.2992  0.3538 -0.3916
  118MOL0     C15464  -0.699   3.249   8.650 -0.0084  0.2356  0.4485
  118MOL0     C15465  -0.774   3.336   8.738 -0.0587 -0.6157 -0.5488
  118MOL0     C15466  -0.848   3.450   8.665 -0.7785 -0.2255  0.0010
  118MOL0     C15467  -0.982   3.490   8.720  1.1885 -0.5484  0.1895
  118MOL0     O15468  -1.075   3.375   8.715 -0.0843  0.3282  0.0933
  118MOL0     C15469  -1.211   3.397   8.732  1.6924  0.2952  0.4979
  118MOL0     C15470  -1.302   3.277   8.729 -0.2552 -0.4747  0.4128
  118MOL0     C15471  -1.441   3.298   8.741  0.9150 -0.7651 -0.3088
  118MOL0     C15472  -1.499   3.424   8.757 -0.9962  0.1925 -0.4113
  118MOL0     C15473  -1.646   3.444   8.771  0.2506 -0.8185  0.4501
  118MOL0     O15474  -1.731   3.342   8.763  0.0811 -0.0770  0.2085
  118MOL0     C15475  -1.856   3.363   8.726  0.1889 -0.3904  0.1524
  118MOL0     C15476  -1.952   3.301   8.805  0.2056 -0.2896 -0.1918
  118MOL0     C15477  -2.080   3.290   8.773  0.3213  0.8902  0.8758
  118MOL0     C15478  -2.124   3.357   8.660  0.5583  0.1044 -0.2016
  118MOL0     O15479  -2.257   3.351   8.619 -0.3486  0.5808  0.9302
  118MOL0     C15480  -2.350   3.307   8.722 -0.8326  0.6951 -0.7848
  118MOL0     C15481  -2.500   3.319   8.672  0.3441  0.0896  0.4756
  118MOL0     C15482  -2.512   3.226   8.553  0.9842 -0.4936 -0.1943
  118MOL0     C15483  -2.657   3.214   8.503 -0.2537  0.3746 -0.9285
  118MOL0     C15484  -2.658   3.105   8.394 -0.0535  0.4257 -0.5980
  118MOL0     C15485  -2.788   3.113   8.307  0.1150  0.4071 -0.7447
  118MOL0     C15486  -2.838   2.985   8.265  0.0871 -0.1362 -0.2800
  118MOL0     C15487  -2.741   2.907   8.171  0.7261  0.0479  0.3844
  118MOL0    Cl15488  -2.648   3.021   8.053 -0.4446 -0.0583 -0.5062
  118MOL0     C15489  -2.033   3.421   8.572 -0.2985 -1.4358 -0.0742
  118MOL0     C15490  -1.896   3.426   8.605 -0.7072  0.2952 -0.4887
  118MOL0     O15491  -1.679   3.563   8.781  0.5766 -0.0639 -0.6043
  118MOL0     C15492  -1.407   3.540   8.748 -0.3605 -0.5186 -0.2131
  118MOL0     C15493  -1.267   3.526   8.734  1.0559 -0.2480  0.4151
  118MOL0     N15494  -0.437   3.250   8.647 -0.1451 -0.2347  0.0613
  118MOL0     N15495  -0.352   3.311   8.576 -0.6663 -0.7139  0.1912
  118MOL0     C15496   0.772   3.291   8.266  0.5756 -1.0687 -0.1394
  118MOL0     C15497   0.884   3.214   8.244 -0.1892 -0.6157  0.1556
  118MOL0     C15498   1.206   2.924   8.140 -0.1897 -0.3370  0.1653
  118MOL0     C15499   1.173   2.834   8.033  0.9180 -0.4278  0.6083
  118MOL0     C15500   1.262   2.728   8.001 -0.0443 -0.2502  0.1346
  118MOL0     C15501   1.372   2.700   8.077 -0.4592  0.3377 -0.3680
  118MOL0     O15502   1.452   2.593   8.054  0.0608 -0.9833 -0.2998
  118MOL0     C15503   1.430   2.507   7.939  0.6407  0.2550 -0.6204
  118MOL0     C15504   1.550   2.414   7.934 -0.3701 -0.6386  0.1952
  118MOL0     C15505   1.670   2.469   7.850  0.3269 -1.0309 -0.9957
  118MOL0     C15506   1.707   2.613   7.873  0.0914 -0.6648 -0.3696
  118MOL0     C15507   1.847   2.633   7.839 -0.1692 -0.0028  0.2789
  118MOL0     C15508   1.963   2.654   7.824 -0.5884 -0.3343 -0.0798
  118MOL0     C15509   1.416   2.794   8.172  0.1090 -0.2436 -0.5726
  118MOL0     C15510   1.331   2.900   8.206 -0.8095  0.1425 -0.2175
  118MOL0     H15511   0.742   2.952   8.087 -0.4186 -1.4670  1.1925
  118MOL0     H15512   0.552   3.069   8.134  0.3770 -0.1271  0.3692
  118MOL0     H15513   0.401   3.180   8.338 -0.8264  0.0856  1.6198
  118MOL0     H15514   0.392   3.227   8.162 -0.7469  1.9112 -0.2472
  118MOL0     H15515   0.324   3.449   8.282 -2.0832  0.7785 -5.0094
  118MOL0     H15516   0.276   3.332   8.398  0.5003  2.3034  0.5156
  118MOL0     H15517   0.160   3.214   8.180 -2.8095  0.8041  0.2408
  118MOL0     H15518   0.232   3.332   8.091  0.6859 -1.6404  0.0130
  118MOL0     H15519   0.036   3.383   8.330 -0.9597  1.3338  0.3937
  118MOL0     H15520   0.102   3.518   8.232 -2.7685  0.4917  1.0361
  118MOL0     H15521  -0.088   3.304   8.125  2.9835 -1.3695 -2.7066
  118MOL0     H15522  -0.033   3.444   8.037 -2.7836  1.7430  0.3063
  118MOL0     H15523  -0.246   3.519   8.121  0.1181 -2.0238 -1.0463
  118MOL0     H15524  -0.127   3.577   8.247  0.6477  1.1331 -2.5414
  118MOL0     H15525  -0.300   3.326   8.268 -0.8403  0.9206 -1.0283
  118MOL0     H15526  -0.170   3.380   8.374 -0.6398  1.9350  2.3483
  118MOL0     H15527  -0.419   3.558   8.355  0.8139  0.9026 -1.5524
  118MOL0     H15528  -0.271   3.557   8.455 -1.5357 -0.3960  1.3450
  118MOL0     H15529  -0.630   3.434   8.446  2.3700  0.3426 -2.1128
  118MOL0     H15530  -0.683   3.157   8.708  2.3048  1.0156  1.1589
  118MOL0     H15531  -0.766   3.225   8.567  1.6472  1.3057 -1.3006
  118MOL0     H15532  -0.703   3.381   8.809  1.0878 -0.6534 -1.6481
  118MOL0     H15533  -0.857   3.288   8.792 -4.1010  4.3121 -1.6179
  118MOL0     H15534  -0.786   3.540   8.662 -1.3025  0.1786  0.8583
  118MOL0     H15535  -0.873   3.416   8.564  0.9638 -1.3759 -0.0951
  118MOL0     H15536  -1.022   3.569   8.657  2.2620  0.8529  1.2126
  118MOL0     H15537  -0.982   3.527   8.823 -0.2662 -1.2794  0.4819
  118MOL0     H15538  -1.269   3.174   8.740 -0.3443 -0.7422 -1.4742
  118MOL0     H15539  -1.508   3.214   8.748 -1.7675  1.1060 -1.5862
  118MOL0     H15540  -1.931   3.245   8.896  2.2532  0.4926 -0.1344
  118MOL0     H15541  -2.137   3.234   8.846  0.9111  3.2537  3.3243
  118MOL0     H15542  -2.347   3.372   8.810  1.3460  1.3862 -1.3143
  118MOL0     H15543  -2.328   3.203   8.749  2.5384  1.1545 -1.3997
  118MOL0     H15544  -2.523   3.423   8.651  0.4186  0.1468  0.6822
  118MOL0     H15545  -2.561   3.278   8.753 -3.6195  1.2155 -1.6745
  118MOL0     H15546  -2.470   3.129   8.581  1.4558 -0.3941 -0.5381
  118MOL0     H15547  -2.459   3.242   8.459 -1.9613 -3.3138 -2.5673
  118MOL0     H15548  -2.727   3.193   8.584  1.8891  1.4725  1.3471
  118MOL0     H15549  -2.685   3.313   8.464  4.2861  2.7743  1.1550
  118MOL0     H15550  -2.643   3.003   8.431 -1.1735  0.0604 -1.0934
  118MOL0     H15551  -2.568   3.110   8.332  2.4857 -1.1628  2.6654
  118MOL0     H15552  -2.761   3.168   8.216  0.6081 -0.4701 -1.1342
  118MOL0     H15553  -2.867   3.166   8.362 -0.5934 -0.0509 -1.2992
  118MOL0     H15554  -2.864   2.918   8.348 -1.1591  0.1528 -0.4214
  118MOL0     H15555  -2.923   3.001   8.199  0.0989 -1.5393 -0.6835
  118MOL0     H15556  -2.801   2.836   8.113  0.9101 -2.8520  3.3955
  118MOL0     H15557  -2.660   2.855   8.224  1.6336 -0.9907 -1.8980
  118MOL0     H15558  -2.074   3.483   8.493  1.1589 -1.0898 -0.5896
  118MOL0     H15559  -1.828   3.477   8.538  2.3562 -0.1499  2.0460
  118MOL0     H15560  -1.444   3.642   8.751  0.3412 -0.2358 -0.9308
  118MOL0     H15561  -1.197   3.609   8.723  2.3468 -1.1902  1.2934
  118MOL0     H15562   0.782   3.389   8.313  0.4672 -1.7201  1.3034
  118MOL0     H15563   0.976   3.259   8.279  1.3383 -1.8767 -2.0332
  118MOL0     H15564   1.072   2.842   7.994  0.4234  0.4435  1.9588
  118MOL0     H15565   1.225   2.668   7.918  0.0513  1.3298 -1.0957
  118MOL0     H15566   1.399   2.553   7.845  2.0541  1.1362 -0.6800
  118MOL0     H15567   1.345   2.440   7.959  0.2203  0.3053 -2.1032
  118MOL0     H15568   1.585   2.396   8.036  1.4427  2.2381  0.1942
  118MOL0     H15569   1.519   2.319   7.889 -2.1782 -0.2977  0.6622
  118MOL0     H15570   1.654   2.465   7.742 -2.8506  2.1155 -0.8267
  118MOL0     H15571   1.750   2.399   7.876 -1.8808 -3.4994 -0.4124
  118MOL0     H15572   1.640   2.680   7.818 -1.1307 -1.6785 -0.1658
  118MOL0     H15573   1.693   2.636   7.979 -0.6972  0.3488 -0.6838
  118MOL0     H15574   2.067   2.672   7.808 -0.4386 -1.4167 -0.4205
  118MOL0     H15575   1.515   2.778   8.213  0.6175  0.6082 -1.4173
  118MOL0     H15576   1.369   2.967   8.283  1.8281 -0.3041 -1.0374
  119MOL0     O15577  10.997   7.798   1.190 -0.1674 -0.4372  0.2246
  119MOL0     C15578  11.088   7.754   1.114 -0.1820  0.2238 -0.0949
  119MOL0     O15579  11.069   7.642   1.026 -0.6197 -0.1746  1.0499
  119MOL0     C15580  10.938   7.592   1.011 -0.1379  0.2051  0.1790
  119MOL0     C15581  10.825   7.671   0.979 -0.3660  0.1970 -0.6309
  119MOL0     C15582  10.694   7.615   0.965  0.1413  0.4919 -0.1334
  119MOL0     C15583  10.680   7.477   0.980 -0.2356  0.8019  0.6904
  119MOL0     O15584  10.553   7.412   0.975 -0.9974 -0.2420  0.4083
  119MOL0     C15585  10.452   7.477   0.900 -0.2446  0.4037 -0.5722
  119MOL0     C15586  10.306   7.410   0.901 -0.2998  0.3155 -0.1917
  119MOL0     C15587  10.325   7.254   0.888  0.0508  0.6091  0.0468
  119MOL0     C15588  10.186   7.186   0.892  0.0480 -0.1509 -0.3088
  119MOL0     C15589  10.187   7.031   0.913 -0.3447 -0.0990  0.4555
  119MOL0     C15590  10.292   6.958   0.825 -0.1670  0.0786  0.3556
  119MOL0     C15591  10.318   6.819   0.892 -0.3562 -0.5388 -1.0718
  119MOL0     C15592  10.440   6.823   0.987  0.3383 -0.3105 -0.0277
  119MOL0     N15593  10.472   6.695   1.046 -0.6637 -0.3657  0.1603
  119MOL0     C15594  10.381   6.630   1.115  0.8369 -0.2210 -0.0948
  119MOL0     C15595  10.451   6.519   1.169 -0.6767 -0.8412  0.6118
  119MOL0     C15596  10.384   6.435   1.264 -0.4432  0.0427 -0.2329
  119MOL0     C15597  10.273   6.490   1.367  0.7865  0.0052 -0.1216
  119MOL0     C15598  10.219   6.368   1.453 -0.8593 -0.0639  0.4449
  119MOL0     C15599  10.066   6.381   1.482 -0.6842  0.2258 -0.6968
  119MOL0     O15600  10.010   6.344   1.356  0.3197 -0.4318  0.0530
  119MOL0     C15601   9.877   6.355   1.350 -0.2209 -0.9939  0.1273
  119MOL0     C15602   9.802   6.406   1.449  1.3401  0.2267 -0.5772
  119MOL0     C15603   9.660   6.403   1.434  0.2337 -0.3242 -1.3080
  119MOL0     C15604   9.595   6.371   1.318  0.8983 -0.0947  0.3443
  119MOL0     C15605   9.443   6.396   1.303 -0.5450 -0.3009 -0.4952
  119MOL0     O15606   9.371   6.459   1.407  0.1234 -0.3264  0.3552
  119MOL0     C15607   9.235   6.487   1.388 -0.0911  0.1924  1.4157
  119MOL0     C15608   9.143   6.386   1.400  0.8124 -0.2661  0.2336
  119MOL0     C15609   9.005   6.414   1.383 -0.3685  0.7742 -0.7294
  119MOL0     C15610   8.963   6.545   1.346 -0.1222 -0.1197 -0.0088
  119MOL0     O15611   8.823   6.559   1.321  0.1036 -0.1543 -0.1977
  119MOL0     C15612   8.773   6.670   1.395 -0.0331  0.0821  0.1513
  119MOL0     C15613   8.621   6.676   1.364  1.0384 -0.0849 -0.0706
  119MOL0     C15614   8.554   6.554   1.432 -0.6111  0.2340 -0.0582
  119MOL0     C15615   8.404   6.543   1.406 -0.2566  0.3486  0.3074
  119MOL0     C15616   8.338   6.660   1.478  0.5417  0.1828 -0.1477
  119MOL0     C15617   8.194   6.626   1.456  0.5368  0.1775 -0.4242
  119MOL0     C15618   8.102   6.675   1.575 -0.5837 -1.1662 -0.2780
  119MOL0     C15619   7.976   6.601   1.573 -0.3757 -0.0988  0.5443
  119MOL0    Cl15620   7.853   6.682   1.686 -0.0630  0.6070 -0.0795
  119MOL0     C15621   9.062   6.645   1.329  0.4723  0.0452  0.6394
  119MOL0     C15622   9.198   6.618   1.349  1.2084 -0.1929  0.0760
  119MOL0     O15623   9.395   6.375   1.190  0.4318  1.0441 -0.0624
  119MOL0     C15624   9.673   6.321   1.219  0.5060 -0.3975  0.3291
  119MOL0     C15625   9.813   6.305   1.233 -1.0321 -0.9106  0.1416
  119MOL0     N15626  10.583   6.532   1.134 -0.4049 -0.0758  0.3793
  119MOL0     N15627  10.594   6.632   1.051 -0.8531  0.2922  0.6249
  119MOL0     C15628  10.790   7.406   1.022 -0.3136 -0.7414 -0.7716
  119MOL0     C15629  10.916   7.462   1.045 -0.6107 -0.2743  0.5875
  119MOL0     C15630  11.205   7.832   1.091 -0.6804  0.6169  0.2835
  119MOL0     C15631  11.317   7.769   1.030  0.8181  0.8961 -0.3979
  119MOL0     C15632  11.434   7.833   1.005  0.2629  0.6554 -1.0346
  119MOL0     C15633  11.449   7.956   1.046  0.4405  0.0329  0.8229
  119MOL0     O15634  11.561   8.031   1.035 -0.1577  0.6230  0.1585
  119MOL0     C15635  11.679   7.980   0.963 -0.2893 -0.0437 -0.1370
  119MOL0     C15636  11.667   7.986   0.805 -0.3267 -0.1817  0.5856
  119MOL0     C15637  11.767   8.077   0.745 -0.2169 -0.8151  0.1399
  119MOL0     C15638  11.724   8.092   0.603  0.5595 -0.2730 -0.0100
  119MOL0     C15639  11.828   8.175   0.542 -0.2169 -0.8915  0.8348
  119MOL0     C15640  11.897   8.260   0.496 -0.7142 -0.9973 -0.0033
  119MOL0     C15641  11.337   8.027   1.098  0.8593  0.3123  0.0018
  119MOL0     C15642  11.205   7.969   1.107  0.2373  0.5772 -0.2491
  119MOL0     H15643  10.839   7.777   0.959  2.4571 -0.4248 -2.6155
  119MOL0     H15644  10.609   7.678   0.942 -2.6531 -1.8845  2.7293
  119MOL0     H15645  10.484   7.497   0.798  0.5461  1.9489 -0.0542
  119MOL0     H15646  10.434   7.574   0.948 -0.5779 -1.1865  2.8010
  119MOL0     H15647  10.258   7.459   0.816  2.0247  0.8342 -1.2831
  119MOL0     H15648  10.249   7.422   0.993  1.4110  3.7258  0.6027
  119MOL0     H15649  10.379   7.213   0.974 -0.1091  0.8686  0.2731
  119MOL0     H15650  10.382   7.222   0.800  2.5488 -0.0506  1.7945
  119MOL0     H15651  10.124   7.222   0.975 -2.3169 -0.3906 -1.8751
  119MOL0     H15652  10.137   7.219   0.800  3.2914  1.9195 -1.4409
  119MOL0     H15653  10.082   6.998   0.920 -0.0831 -1.2762 -0.7048
  119MOL0     H15654  10.224   7.021   1.016  3.1675  2.3549 -0.3840
  119MOL0     H15655  10.387   7.012   0.824 -0.6753  1.0192 -1.4370
  119MOL0     H15656  10.256   6.939   0.724  0.0934  0.1227  0.2540
  119MOL0     H15657  10.237   6.790   0.960  0.3187  0.0449  0.0186
  119MOL0     H15658  10.342   6.746   0.814 -2.1741  0.1353 -2.3246
  119MOL0     H15659  10.416   6.897   1.064  1.7613  1.0405 -0.8429
  119MOL0     H15660  10.529   6.858   0.935  1.4591 -1.1599  1.2103
  119MOL0     H15661  10.278   6.662   1.129  1.1032  3.2503 -4.0450
  119MOL0     H15662  10.463   6.390   1.325  2.9039  1.1792 -3.3849
  119MOL0     H15663  10.337   6.360   1.200 -0.7332  1.5603 -1.8699
  119MOL0     H15664  10.190   6.546   1.324 -0.8410 -0.5316  2.1409
  119MOL0     H15665  10.330   6.555   1.434  0.2679  4.1286 -3.2640
  119MOL0     H15666  10.244   6.271   1.410  0.8693 -0.6469  2.5791
  119MOL0     H15667  10.270   6.354   1.549  1.4159 -0.5334 -0.7732
  119MOL0     H15668  10.049   6.488   1.499  0.2626  0.2057  0.5287
  119MOL0     H15669  10.035   6.321   1.568 -2.0983  0.3592 -1.1057
  119MOL0     H15670   9.837   6.439   1.546  1.4577 -1.1690 -0.1248
  119MOL0     H15671   9.603   6.448   1.515  3.3295 -1.0673  1.4941
  119MOL0     H15672   9.173   6.289   1.439  1.5257 -0.2118 -0.1530
  119MOL0     H15673   8.929   6.338   1.401 -1.7683  2.2012 -0.4335
  119MOL0     H15674   8.815   6.761   1.353  0.1979 -0.3000 -0.4534
  119MOL0     H15675   8.787   6.665   1.504 -0.0583  3.6752  0.4349
  119MOL0     H15676   8.601   6.670   1.257 -2.2748  1.5650  0.3273
  119MOL0     H15677   8.574   6.767   1.403  0.7456  0.2889 -1.2697
  119MOL0     H15678   8.570   6.562   1.540  1.2866 -0.9476 -0.1935
  119MOL0     H15679   8.604   6.461   1.402 -3.3289 -1.1603 -0.5786
  119MOL0     H15680   8.391   6.544   1.298  0.5826 -0.6233  0.1853
  119MOL0     H15681   8.365   6.449   1.448 -1.4327 -0.2581 -1.9892
  119MOL0     H15682   8.362   6.760   1.442 -0.5961  0.8037  0.7305
  119MOL0     H15683   8.373   6.645   1.581  3.3589 -1.7694 -1.2541
  119MOL0     H15684   8.178   6.518   1.465  1.8421 -0.0659 -0.7563
  119MOL0     H15685   8.158   6.658   1.358  0.5444  1.3313 -0.0633
  119MOL0     H15686   8.159   6.660   1.667  1.4130  0.5592 -1.1573
  119MOL0     H15687   8.082   6.781   1.562 -2.3683 -1.4553 -0.1543
  119MOL0     H15688   7.985   6.494   1.595 -1.2335 -0.3149 -0.0845
  119MOL0     H15689   7.934   6.602   1.472 -2.0821 -2.3266  1.1426
  119MOL0     H15690   9.043   6.750   1.308  2.1415  1.5578  5.4078
  119MOL0     H15691   9.273   6.697   1.345  3.6510 -2.3316  0.2932
  119MOL0     H15692   9.629   6.296   1.123  0.4644 -2.2979  0.7962
  119MOL0     H15693   9.877   6.253   1.161  1.7841  1.3156  0.8775
  119MOL0     H15694  10.784   7.298   1.030 -0.8009 -0.6428  0.4982
  119MOL0     H15695  10.996   7.401   1.085 -1.7550 -1.5520  1.0218
  119MOL0     H15696  11.302   7.666   0.997 -2.2418  1.3245 -0.5919
  119MOL0     H15697  11.511   7.791   0.940  1.0769  1.7154 -0.7893
  119MOL0     H15698  11.707   7.878   0.991 -4.3180 -1.7546 -1.5687
  119MOL0     H15699  11.767   8.036   0.997  0.7152 -2.6055  1.8132
  119MOL0     H15700  11.686   7.887   0.763  2.2476  0.6337 -0.3437
  119MOL0     H15701  11.561   8.000   0.782 -0.7421 -1.5533  1.5532
  119MOL0     H15702  11.866   8.030   0.750  0.7985  1.2733  0.9194
  119MOL0     H15703  11.763   8.172   0.800 -0.7062 -1.3931  1.1370
  119MOL0     H15704  11.715   7.997   0.549 -1.1979 -0.1887  0.0641
  119MOL0     H15705  11.627   8.143   0.594  2.0599  3.0217  0.8946
  119MOL0     H15706  11.952   8.339   0.449 -3.0603  1.2977  0.9135
  119MOL0     H15707  11.343   8.133   1.119 -2.7420  1.2620 -2.7915
  119MOL0     H15708  11.116   8.029   1.123 -0.5650 -0.3761 -0.9508
  120MOL0     O15709   0.922   1.694   5.720  0.5260 -0.7493  0.2994
  120MOL0     C15710   0.954   1.655   5.827 -0.1938 -0.1989 -0.5778
  120MOL0     O15711   1.044   1.562   5.862 -0.4274 -0.4235  0.0581
  120MOL0     C15712   1.106   1.486   5.769 -0.1162  0.8869  0.1410
  120MOL0     C15713   1.056   1.451   5.644 -0.3127  0.4846 -0.1786
  120MOL0     C15714   1.128   1.370   5.563 -0.0045  0.2592  0.4207
  120MOL0     C15715   1.258   1.338   5.586 -0.5560 -0.6723 -0.1101
  120MOL0     O15716   1.325   1.282   5.479 -0.0932  0.4478 -0.3854
  120MOL0     C15717   1.330   1.137   5.476  0.0706  0.2154  0.4864
  120MOL0     C15718   1.235   1.076   5.384  0.3786 -0.1846  0.4635
  120MOL0     C15719   1.186   1.164   5.258 -0.3899 -0.6648 -0.5244
  120MOL0     C15720   1.069   1.086   5.204  1.1645  0.1962  0.0474
  120MOL0     C15721   0.934   1.166   5.239  0.0742  0.3125 -0.2858
  120MOL0     C15722   0.808   1.107   5.168  0.1435  0.2698 -0.4294
  120MOL0     C15723   0.686   1.188   5.202 -0.0139  0.5889  0.1407
  120MOL0     C15724   0.680   1.329   5.123 -0.2636 -0.2556 -0.0533
  120MOL0     N15725   0.656   1.325   4.978 -0.8194  0.3617  0.5825
  120MOL0     C15726   0.533   1.342   4.931  0.7405  0.8571 -0.6099
  120MOL0     C15727   0.550   1.347   4.793 -0.1662  0.3527 -0.4731
  120MOL0     C15728   0.434   1.361   4.706 -0.4735 -0.7773  0.3392
  120MOL0     C15729   0.463   1.450   4.583  0.2429 -0.4067 -0.4245
  120MOL0     C15730   0.351   1.438   4.474  0.0476  0.1977 -0.1850
  120MOL0     C15731   0.217   1.497   4.529  0.6987  0.0100  0.3657
  120MOL0     O15732   0.131   1.499   4.404 -0.3333  0.8301 -0.1826
  120MOL0     C15733   0.013   1.579   4.408 -0.5331 -0.0325 -0.2172
  120MOL0     C15734  -0.009   1.662   4.295  0.3565  0.2483  0.4846
  120MOL0     C15735  -0.119   1.753   4.293  0.4699  0.6957  0.9479
  120MOL0     C15736  -0.196   1.771   4.415  0.3512 -1.1760 -0.6068
  120MOL0     C15737  -0.299   1.877   4.434 -0.1441  0.5806 -0.4819
  120MOL0     O15738  -0.393   1.847   4.527 -0.5345  0.4552  0.5381
  120MOL0     C15739  -0.487   1.941   4.555  0.1694  0.4293  0.8314
  120MOL0     C15740  -0.453   2.070   4.606  0.2994  0.5095  0.8326
  120MOL0     C15741  -0.547   2.154   4.647  0.7084 -0.9600  0.3420
  120MOL0     C15742  -0.678   2.121   4.648 -0.5050 -0.7858  0.3002
  120MOL0     O15743  -0.749   2.218   4.703  0.0451  0.1940  0.5558
  120MOL0     C15744  -0.896   2.238   4.677 -0.3923 -0.5489  0.5648
  120MOL0     C15745  -0.917   2.332   4.557 -0.1912  0.3477  0.6953
  120MOL0     C15746  -1.064   2.370   4.540 -0.0886 -0.0572  0.8021
  120MOL0     C15747  -1.074   2.489   4.435  0.7399 -0.1199 -0.7652
  120MOL0     C15748  -1.211   2.540   4.401  0.1543 -1.0413  0.9428
  120MOL0     C15749  -1.301   2.457   4.305  0.6089  0.0919 -0.1415
  120MOL0     C15750  -1.433   2.516   4.288  1.0068  0.7987  0.1764
  120MOL0     C15751  -1.527   2.428   4.188 -0.1539 -0.3534 -0.8349
  120MOL0    Cl15752  -1.464   2.434   4.033  0.0908 -0.1536 -0.0603
  120MOL0     C15753  -0.721   2.002   4.595 -0.9728 -0.4186 -1.1976
  120MOL0     C15754  -0.624   1.909   4.550 -0.4164 -0.0310  0.0697
  120MOL0     O15755  -0.292   1.979   4.365 -0.4892  0.5766 -0.9216
  120MOL0     C15756  -0.163   1.697   4.533  0.4813  0.0043  0.8987
  120MOL0     C15757  -0.054   1.606   4.522  0.3338  0.6213 -0.7988
  120MOL0     N15758   0.683   1.325   4.761  0.1868 -0.3697 -0.2804
  120MOL0     N15759   0.743   1.311   4.871 -0.7824 -0.5551 -0.0731
  120MOL0     C15760   1.320   1.367   5.709  0.2141 -0.4391 -0.5762
  120MOL0     C15761   1.238   1.437   5.805  0.4991  0.6638 -0.3416
  120MOL0     C15762   0.904   1.738   5.939  1.0320 -0.0014 -1.2473
  120MOL0     C15763   0.938   1.702   6.070  0.1675  0.7449  0.6446
  120MOL0     C15764   0.867   1.759   6.183 -0.2092 -0.6411 -0.8927
  120MOL0     C15765   0.783   1.874   6.172 -0.5918  0.7818 -0.2812
  120MOL0     O15766   0.720   1.919   6.284 -0.6097  0.1843 -0.4038
  120MOL0     C15767   0.633   2.032   6.260 -0.3215  0.4364 -0.9459
  120MOL0     C15768   0.601   2.089   6.394 -0.4610  0.2519 -0.4040
  120MOL0     C15769   0.686   2.207   6.432 -0.8992 -0.2584 -0.0161
  120MOL0     C15770   0.671   2.237   6.587 -0.1889  0.9000 -0.5226
  120MOL0     C15771   0.660   2.386   6.600 -0.2810 -0.5491 -0.6385
  120MOL0     C15772   0.653   2.510   6.603 -0.4091 -0.0884  0.6654
  120MOL0     C15773   0.756   1.911   6.041 -0.0607  0.8114  0.0129
  120MOL0     C15774   0.810   1.843   5.925  0.4821  0.6128  0.7839
  120MOL0     H15775   0.957   1.479   5.610 -1.3304 -0.4848  1.8282
  120MOL0     H15776   1.069   1.330   5.481 -0.4612  0.4244  0.6693
  120MOL0     H15777   1.313   1.097   5.577 -1.0572  0.1876  0.2980
  120MOL0     H15778   1.424   1.098   5.438 -0.8289 -2.9817  1.2259
  120MOL0     H15779   1.146   1.047   5.440 -1.3700  0.3554 -1.9059
  120MOL0     H15780   1.275   0.981   5.348  1.7437  0.8567 -0.8865
  120MOL0     H15781   1.271   1.166   5.189  0.5327  0.9326  0.5836
  120MOL0     H15782   1.158   1.265   5.290 -0.9972 -1.9893  3.6716
  120MOL0     H15783   1.078   1.095   5.095  2.0418  1.8488  0.2278
  120MOL0     H15784   1.053   0.984   5.237  0.2149  1.3184  3.4713
  120MOL0     H15785   0.934   1.274   5.223  0.4363  0.7677  2.2632
  120MOL0     H15786   0.916   1.150   5.346  0.8963  0.1932 -0.1595
  120MOL0     H15787   0.795   1.003   5.201 -1.7126 -0.4136 -3.0148
  120MOL0     H15788   0.827   1.102   5.061  1.6451  0.1602 -0.1835
  120MOL0     H15789   0.591   1.145   5.167  0.8231 -2.1919  1.0083
  120MOL0     H15790   0.681   1.192   5.311 -0.4496 -2.8638  0.3589
  120MOL0     H15791   0.773   1.384   5.143 -1.9591  2.3687  1.1882
  120MOL0     H15792   0.597   1.383   5.169  1.6135  2.8789 -0.0585
  120MOL0     H15793   0.437   1.355   4.980  1.7037  0.7353  1.4143
  120MOL0     H15794   0.358   1.408   4.770  3.0360  1.6505  3.1832
  120MOL0     H15795   0.403   1.260   4.679  0.5412 -1.9686  3.2328
  120MOL0     H15796   0.558   1.416   4.542  0.5388  1.4478 -1.3966
  120MOL0     H15797   0.478   1.556   4.610  1.9780 -0.7984  0.3107
  120MOL0     H15798   0.393   1.490   4.387 -1.8697  0.2817 -1.1077
  120MOL0     H15799   0.348   1.332   4.448  0.7821 -0.0638  0.7480
  120MOL0     H15800   0.230   1.604   4.544 -0.1272  0.5795 -2.3359
  120MOL0     H15801   0.168   1.453   4.616  1.8247  1.2520  1.6748
  120MOL0     H15802   0.062   1.648   4.215  0.1110  2.6233 -0.2157
  120MOL0     H15803  -0.152   1.806   4.204 -1.2332 -0.6928  0.6844
  120MOL0     H15804  -0.349   2.102   4.602 -0.2400  2.2066 -2.3563
  120MOL0     H15805  -0.529   2.257   4.679 -3.3437 -0.6007  2.0738
  120MOL0     H15806  -0.936   2.298   4.758 -1.3839  3.0477 -2.3158
  120MOL0     H15807  -0.961   2.151   4.668 -2.7940  1.2053  0.2164
  120MOL0     H15808  -0.871   2.285   4.469  0.8681  1.0178  0.8800
  120MOL0     H15809  -0.860   2.424   4.571 -2.5933  2.1898 -0.6483
  120MOL0     H15810  -1.109   2.389   4.638  1.4351  2.5212  1.0664
  120MOL0     H15811  -1.116   2.283   4.498 -2.1907  1.2003  0.6145
  120MOL0     H15812  -1.017   2.574   4.473  0.7966 -1.0684  1.4043
  120MOL0     H15813  -1.027   2.450   4.344  1.5703 -2.2996  0.5297
  120MOL0     H15814  -1.194   2.638   4.353 -1.1805 -0.0392  2.4028
  120MOL0     H15815  -1.268   2.563   4.492 -1.6608  4.1365 -1.0808
  120MOL0     H15816  -1.314   2.357   4.348 -0.8041 -0.7810 -2.4021
  120MOL0     H15817  -1.247   2.447   4.211 -1.6631 -0.1621 -1.5079
  120MOL0     H15818  -1.492   2.529   4.379 -0.8218  1.5997 -1.0698
  120MOL0     H15819  -1.421   2.612   4.237  2.5908  0.8307  0.5510
  120MOL0     H15820  -1.630   2.465   4.190 -0.6045 -1.3790  3.1468
  120MOL0     H15821  -1.523   2.323   4.220 -1.0594  0.4720  2.3833
  120MOL0     H15822  -0.826   1.977   4.590 -0.9337 -0.3584 -3.6545
  120MOL0     H15823  -0.640   1.814   4.500  2.2541  1.1244 -3.3846
  120MOL0     H15824  -0.212   1.720   4.627  0.6511  0.8497  0.7876
  120MOL0     H15825  -0.030   1.556   4.615  1.8751  3.6081  0.5600
  120MOL0     H15826   1.420   1.347   5.744  0.6091 -0.1396 -1.4986
  120MOL0     H15827   1.272   1.478   5.900 -0.1418 -1.0940  0.7000
  120MOL0     H15828   1.011   1.626   6.097  0.4401  1.2734  1.4162
  120MOL0     H15829   0.891   1.712   6.278 -0.3446  0.6498 -0.1961
  120MOL0     H15830   0.545   1.986   6.213 -1.2104  0.7666  0.3320
  120MOL0     H15831   0.678   2.107   6.195 -0.3607  2.2487  0.9842
  120MOL0     H15832   0.494   2.110   6.392  0.0214  3.5438  1.2953
  120MOL0     H15833   0.626   2.022   6.476  1.5212  4.0990  2.5043
  120MOL0     H15834   0.665   2.297   6.374  1.4031 -0.4977 -1.3200
  120MOL0     H15835   0.793   2.184   6.429 -1.0278 -1.7484  2.8971
  120MOL0     H15836   0.576   2.209   6.631  2.0888 -0.4636  4.1660
  120MOL0     H15837   0.744   2.185   6.650 -1.3399 -2.1940 -1.5810
  120MOL0     H15838   0.647   2.617   6.606  0.6866  0.0319 -0.4769
  120MOL0     H15839   0.683   1.987   6.018 -2.0709 -1.2533 -0.8691
  120MOL0     H15840   0.763   1.870   5.831  1.0316 -1.0797 -0.0255
  121MOL0     O15841   6.759   8.862   9.532 -0.0026 -0.3977  0.6872
  121MOL0     C15842   6.732   8.969   9.480 -0.2049 -0.3354 -0.4575
  121MOL0     O15843   6.612   9.018   9.432 -0.4738  0.3343 -0.9490
  121MOL0     C15844   6.504   8.934   9.448 -0.3813  0.4239 -0.4031
  121MOL0     C15845   6.486   8.815   9.364 -0.1663  0.1367  0.7116
  121MOL0     C15846   6.369   8.737   9.402 -0.2690  0.1535 -0.2035
  121MOL0     C15847   6.273   8.781   9.494 -0.0697  0.7634  0.4652
  121MOL0     O15848   6.164   8.702   9.525 -0.5146 -0.8248 -0.6787
  121MOL0     C15849   6.181   8.561   9.561  0.0076  0.1496 -0.3497
  121MOL0     C15850   6.076   8.472   9.505  0.0761 -0.4642 -0.7448
  121MOL0     C15851   5.937   8.496   9.562 -0.0911  0.0426 -0.5231
  121MOL0     C15852   5.830   8.405   9.517 -0.6594  0.5671  0.6583
  121MOL0     C15853   5.708   8.452   9.581 -0.2496 -0.3050  0.0475
  121MOL0     C15854   5.595   8.357   9.541  0.0108 -0.3976  0.3989
  121MOL0     C15855   5.456   8.409   9.591 -0.9048 -0.0914 -1.0313
  121MOL0     C15856   5.365   8.292   9.593  0.7902  0.0666 -0.1794
  121MOL0     N15857   5.303   8.265   9.463 -1.0185  0.7923  0.0146
  121MOL0     C15858   5.369   8.203   9.355 -0.8575 -0.4712 -0.6648
  121MOL0     C15859   5.280   8.198   9.255  0.6078 -0.0922 -0.3975
  121MOL0     C15860   5.302   8.131   9.127  0.4945 -0.4747  0.4455
  121MOL0     C15861   5.190   8.034   9.101 -0.6169  0.0955 -0.3083
  121MOL0     C15862   5.195   7.946   8.980  0.1703 -0.3161  0.0306
  121MOL0     C15863   5.073   7.854   8.964  0.7302  0.5531  0.1066
  121MOL0     O15864   5.110   7.747   8.874 -0.2441  0.6806  0.5232
  121MOL0     C15865   5.042   7.627   8.853  0.6353  0.1197 -0.4028
  121MOL0     C15866   5.096   7.531   8.773  0.1812 -0.6912 -0.5192
  121MOL0     C15867   5.034   7.408   8.744 -1.2354  0.1493  0.2218
  121MOL0     C15868   4.914   7.380   8.802  1.3203  1.6003  0.6471
  121MOL0     C15869   4.862   7.241   8.808  0.3357  0.9516 -0.2976
  121MOL0     O15870   4.719   7.221   8.826 -0.4242 -0.0515 -0.3807
  121MOL0     C15871   4.657   7.102   8.794  0.3133 -0.6379  0.5548
  121MOL0     C15872   4.706   6.973   8.817 -0.2132  0.3780 -0.3291
  121MOL0     C15873   4.633   6.860   8.778 -0.5119  0.7964 -0.2460
  121MOL0     C15874   4.502   6.866   8.731  0.4254  0.1808 -0.2741
  121MOL0     O15875   4.425   6.755   8.704  0.2452 -0.1986 -0.3970
  121MOL0     C15876   4.486   6.631   8.740  0.0161 -0.2709 -0.1476
  121MOL0     C15877   4.371   6.531   8.725 -0.0444  0.3060  0.3298
  121MOL0     C15878   4.260   6.556   8.832 -0.7644 -0.1079 -0.0348
  121MOL0     C15879   4.144   6.461   8.802  0.6339 -0.5097 -1.1523
  121MOL0     C15880   4.049   6.469   8.917  0.2756  0.6288 -0.3283
  121MOL0     C15881   3.939   6.376   8.921 -0.5085  1.6557  0.2641
  121MOL0     C15882   3.804   6.435   8.913  0.1262 -0.3462 -0.2090
  121MOL0     C15883   3.703   6.330   8.975 -0.2031  0.9518  0.0351
  121MOL0    Cl15884   3.688   6.173   8.861 -0.4565 -0.5116 -0.0297
  121MOL0     C15885   4.447   6.995   8.722 -0.3011  0.0420 -1.1747
  121MOL0     C15886   4.527   7.110   8.749 -1.0949 -0.2753 -0.4296
  121MOL0     O15887   4.941   7.151   8.792 -0.1280  0.2600 -0.1064
  121MOL0     C15888   4.848   7.470   8.885  0.5929 -0.9744 -0.2266
  121MOL0     C15889   4.910   7.600   8.902 -0.1740  0.6119  0.0226
  121MOL0     N15890   5.166   8.271   9.295  0.9102  0.4676 -0.2916
  121MOL0     N15891   5.179   8.307   9.419  0.4015  0.8163 -0.5574
  121MOL0     C15892   6.283   8.905   9.545 -0.5970 -0.7085 -0.1383
  121MOL0     C15893   6.397   8.979   9.527 -0.5673 -0.6722 -0.2028
  121MOL0     C15894   6.847   9.067   9.483 -0.3112 -0.4463 -0.2590
  121MOL0     C15895   6.835   9.192   9.422  0.3127  0.6954  0.1774
  121MOL0     C15896   6.943   9.278   9.418 -0.3667  0.2532  0.4508
  121MOL0     C15897   7.067   9.240   9.461 -0.2570  0.6877 -0.0942
  121MOL0     O15898   7.186   9.313   9.454  0.5422  0.0986  0.9328
  121MOL0     C15899   7.183   9.429   9.367 -0.0632 -0.4066 -0.4457
  121MOL0     C15900   7.319   9.505   9.366 -0.8472  0.3073 -0.0846
  121MOL0     C15901   7.441   9.408   9.381 -0.1883 -0.6188  0.6897
  121MOL0     C15902   7.467   9.305   9.264  0.2916 -0.1597 -0.0886
  121MOL0     C15903   7.455   9.376   9.136 -0.0409 -0.0570  0.9456
  121MOL0     C15904   7.451   9.439   9.036 -0.2291  0.8786  0.4053
  121MOL0     C15905   7.078   9.117   9.526  0.4563 -0.5779 -0.3482
  121MOL0     C15906   6.969   9.038   9.553  0.6687 -0.8154 -0.3683
  121MOL0     H15907   6.551   8.777   9.286  0.9033  4.0469 -0.5244
  121MOL0     H15908   6.349   8.653   9.336  0.7601  2.6937 -4.0891
  121MOL0     H15909   6.199   8.559   9.669  2.7758  0.6071 -0.7146
  121MOL0     H15910   6.275   8.523   9.519  0.6736 -0.6701  1.7367
  121MOL0     H15911   6.108   8.367   9.508  0.4210 -0.3481 -0.1027
  121MOL0     H15912   6.071   8.488   9.397 -2.0633 -1.8305 -0.8999
  121MOL0     H15913   5.903   8.597   9.539  0.7911  0.4118 -0.2875
  121MOL0     H15914   5.939   8.500   9.671 -0.2691 -0.0885 -0.5156
  121MOL0     H15915   5.818   8.407   9.408  1.1060  0.3021  0.4227
  121MOL0     H15916   5.863   8.307   9.551  0.8002  0.9526  0.4143
  121MOL0     H15917   5.689   8.554   9.547  2.4285  0.8343  1.6453
  121MOL0     H15918   5.704   8.465   9.689 -1.6618  5.8133 -0.3794
  121MOL0     H15919   5.609   8.254   9.575 -1.3059  0.3582  3.5680
  121MOL0     H15920   5.593   8.353   9.431  2.3623  0.9732  0.2404
  121MOL0     H15921   5.470   8.453   9.690 -0.0651  3.5832 -2.6346
  121MOL0     H15922   5.412   8.491   9.534  1.3081  0.9457 -1.3512
  121MOL0     H15923   5.289   8.307   9.670  0.4749 -3.2788  0.3339
  121MOL0     H15924   5.410   8.204   9.642  0.3211 -0.0967 -0.0334
  121MOL0     H15925   5.471   8.167   9.352  0.1347  1.8948  1.1466
  121MOL0     H15926   5.393   8.071   9.113  0.6811 -0.0073 -0.4210
  121MOL0     H15927   5.312   8.211   9.054  4.2787  1.0520  2.3485
  121MOL0     H15928   5.098   8.089   9.078  0.6469  0.7232 -4.8470
  121MOL0     H15929   5.175   7.970   9.189  1.9050  0.2617  0.3253
  121MOL0     H15930   5.212   8.009   8.892 -2.1870 -0.3804 -0.5350
  121MOL0     H15931   5.282   7.880   8.989 -1.0188 -1.7057  2.4301
  121MOL0     H15932   4.980   7.906   8.939  0.6093 -0.0263 -0.6877
  121MOL0     H15933   5.053   7.807   9.061 -4.6229 -1.8682 -1.7702
  121MOL0     H15934   5.190   7.569   8.735 -0.8109  0.9939 -1.4187
  121MOL0     H15935   5.088   7.341   8.678  1.3758  3.1546 -0.9440
  121MOL0     H15936   4.802   6.954   8.864 -0.6808 -2.3172 -0.3101
  121MOL0     H15937   4.680   6.765   8.804  1.0287  1.5306 -0.2503
  121MOL0     H15938   4.524   6.625   8.843  1.9606 -2.8139 -0.9029
  121MOL0     H15939   4.566   6.608   8.670 -0.8097  1.8998 -1.9159
  121MOL0     H15940   4.415   6.431   8.735  0.4301  0.6793  2.3535
  121MOL0     H15941   4.333   6.543   8.623  0.8260 -0.1161 -0.0566
  121MOL0     H15942   4.220   6.658   8.837  0.0940  0.2031  0.7934
  121MOL0     H15943   4.311   6.533   8.926 -0.3862  1.3595  0.1527
  121MOL0     H15944   4.101   6.483   8.704 -4.6213  0.4459  1.0168
  121MOL0     H15945   4.178   6.357   8.799  1.8375 -0.1232 -4.3237
  121MOL0     H15946   4.008   6.571   8.916  0.9549  0.9207  0.6622
  121MOL0     H15947   4.106   6.457   9.009 -0.9174  0.2701  0.3783
  121MOL0     H15948   3.951   6.326   9.018 -2.1458  2.5099  0.9352
  121MOL0     H15949   3.956   6.300   8.844  0.1186  2.1192 -0.0617
  121MOL0     H15950   3.811   6.531   8.965  0.7652  0.5737 -1.9195
  121MOL0     H15951   3.778   6.456   8.809 -1.2639  0.0105  0.1843
  121MOL0     H15952   3.602   6.369   8.986 -0.7175  0.1016 -1.3506
  121MOL0     H15953   3.727   6.283   9.070  0.6200  0.6983 -0.2863
  121MOL0     H15954   4.344   7.010   8.691 -1.2754 -1.0739  1.2226
  121MOL0     H15955   4.490   7.210   8.729 -0.9232  0.2216  1.5194
  121MOL0     H15956   4.744   7.449   8.910  0.0864 -1.3626 -2.4130
  121MOL0     H15957   4.857   7.674   8.960  0.6164  0.3574  1.1067
  121MOL0     H15958   6.215   8.929   9.626 -2.1183 -2.7177 -0.7600
  121MOL0     H15959   6.419   9.072   9.579  2.9515 -1.1805 -0.5529
  121MOL0     H15960   6.748   9.225   9.367  0.9078  0.1823 -1.1052
  121MOL0     H15961   6.933   9.380   9.381  2.7574  1.0380  1.4225
  121MOL0     H15962   7.103   9.501   9.390  1.7155  1.2607  0.9566
  121MOL0     H15963   7.152   9.381   9.274 -0.4170 -2.7751  0.8417
  121MOL0     H15964   7.332   9.565   9.275 -0.5352  1.6091  0.7853
  121MOL0     H15965   7.327   9.570   9.454  1.3229 -1.6585  1.3011
  121MOL0     H15966   7.438   9.354   9.477 -1.9969 -1.4797  0.1857
  121MOL0     H15967   7.529   9.471   9.395 -0.6562 -0.2089  1.9897
  121MOL0     H15968   7.563   9.259   9.290  0.3451 -1.4797 -2.4105
  121MOL0     H15969   7.391   9.227   9.267 -0.7357  0.8091  0.0992
  121MOL0     H15970   7.445   9.495   8.945  2.7857 -2.3384 -2.0190
  121MOL0     H15971   7.174   9.085   9.565  0.8153  0.8971  0.0665
  121MOL0     H15972   6.984   8.939   9.597 -1.1073 -0.9718 -0.0597
  122MOL0     O15973  10.444   1.169   9.197  0.0722 -0.2624 -0.4483
  122MOL0     C15974  10.537   1.163   9.126 -1.4665 -0.1375  0.2660
  122MOL0     O15975  10.545   1.125   9.000 -0.1317 -0.4280 -0.3645
  122MOL0     C15976  10.438   1.104   8.915  0.1471 -0.5116 -0.8035
  122MOL0     C15977  10.299   1.109   8.956 -0.0364  0.5600 -0.1164
  122MOL0     C15978  10.202   1.082   8.858 -0.2153 -0.3661  0.1029
  122MOL0     C15979  10.231   1.049   8.721 -0.7847  0.0173 -0.5003
  122MOL0     O15980  10.125   1.051   8.639  0.6691 -0.4285  0.3439
  122MOL0     C15981  10.150   1.025   8.502  0.4303  0.1990  0.7986
  122MOL0     C15982  10.019   1.042   8.413 -1.9563 -0.3684  0.0004
  122MOL0     C15983   9.998   1.189   8.375  0.0571  1.2738  0.5536
  122MOL0     C15984   9.955   1.272   8.495  0.1932  0.0526 -0.2517
  122MOL0     C15985   9.895   1.401   8.436  0.1984 -0.7208 -0.7535
  122MOL0     C15986   9.853   1.488   8.558  0.2201 -0.6575  0.9673
  122MOL0     C15987   9.780   1.613   8.518  0.8041 -0.5442  0.2913
  122MOL0     C15988   9.757   1.707   8.639  0.1682  0.5070  0.7445
  122MOL0     N15989   9.643   1.802   8.632 -0.4308  0.3972  0.2584
  122MOL0     C15990   9.514   1.762   8.659  0.1807  0.4145  0.3260
  122MOL0     C15991   9.444   1.871   8.637 -1.1189  0.7890 -0.3938
  122MOL0     C15992   9.294   1.882   8.641 -0.2513  0.1736  0.5613
  122MOL0     C15993   9.232   1.757   8.573  0.4118  0.2814  0.4165
  122MOL0     C15994   9.080   1.747   8.583  0.4704  0.2548  0.7761
  122MOL0     C15995   9.013   1.774   8.718 -1.4853 -0.0831 -0.2756
  122MOL0     O15996   9.012   1.904   8.767 -0.1687 -0.1211  0.1215
  122MOL0     C15997   8.889   1.961   8.758 -0.7078 -0.4208 -0.0362
  122MOL0     C15998   8.862   2.061   8.664 -0.6653  0.2909  0.2030
  122MOL0     C15999   8.738   2.140   8.665 -0.1876  0.7911 -0.1077
  122MOL0     C16000   8.639   2.106   8.762  0.0608  0.3350 -0.7963
  122MOL0     C16001   8.500   2.169   8.752  0.2968  0.6067 -0.5703
  122MOL0     O16002   8.465   2.232   8.636  0.3260  0.0423 -0.3405
  122MOL0     C16003   8.348   2.306   8.630  0.3803  1.1750  0.5153
  122MOL0     C16004   8.225   2.250   8.593 -0.4810 -0.4729  0.4589
  122MOL0     C16005   8.111   2.329   8.580  0.1302 -0.9721  0.1069
  122MOL0     C16006   8.114   2.472   8.601 -0.0564  0.2542  0.4837
  122MOL0     O16007   8.001   2.538   8.567  0.1161  0.1124  0.3521
  122MOL0     C16008   7.998   2.681   8.591 -0.4838 -0.5286  0.0632
  122MOL0     C16009   7.857   2.726   8.578  0.4409 -0.4509  0.3918
  122MOL0     C16010   7.833   2.877   8.631  0.4870  1.1253  0.2845
  122MOL0     C16011   7.720   2.940   8.557  0.4443 -0.5087  0.0903
  122MOL0     C16012   7.693   3.079   8.627 -0.2630  0.3052  0.5348
  122MOL0     C16013   7.634   3.184   8.517  0.6759 -0.7865  0.2164
  122MOL0     C16014   7.615   3.329   8.558 -0.1601 -0.5128  0.0094
  122MOL0     C16015   7.551   3.418   8.446  0.4236  0.3468  0.0449
  122MOL0    Cl16016   7.388   3.382   8.414  0.2639  0.1637 -0.0067
  122MOL0     C16017   8.238   2.527   8.646  0.0765 -0.1780 -0.3116
  122MOL0     C16018   8.348   2.443   8.656  0.4598  0.5357  0.8494
  122MOL0     O16019   8.429   2.174   8.855 -0.1808  0.0942  0.2593
  122MOL0     C16020   8.677   2.001   8.856  0.6711 -0.6407 -0.5492
  122MOL0     C16021   8.797   1.936   8.857 -0.5745 -1.1660 -0.8454
  122MOL0     N16022   9.520   1.973   8.593 -0.7139 -0.6103  0.9554
  122MOL0     N16023   9.645   1.932   8.590 -0.1776 -0.3575 -0.1545
  122MOL0     C16024  10.372   1.053   8.696  0.0053 -0.4307  0.6109
  122MOL0     C16025  10.471   1.073   8.789 -0.2389 -0.8199  0.6122
  122MOL0     C16026  10.680   1.169   9.181  0.6927  1.2828 -0.2051
  122MOL0     C16027  10.703   1.205   9.311 -0.3030  0.2057 -0.5127
  122MOL0     C16028  10.826   1.233   9.364  0.4701  0.2118  0.2397
  122MOL0     C16029  10.941   1.233   9.276 -0.0106 -0.4112  0.5152
  122MOL0     O16030  11.065   1.258   9.331  0.2526  0.3724  0.5453
  122MOL0     C16031  11.184   1.254   9.252 -0.2533  0.2396  0.1305
  122MOL0     C16032  11.302   1.277   9.345  0.6626  0.1069  0.2378
  122MOL0     C16033  11.440   1.251   9.293  1.2383  0.5254 -0.1135
  122MOL0     C16034  11.541   1.302   9.395  0.0867  0.7182  0.3586
  122MOL0     C16035  11.674   1.327   9.326  0.0771  0.4153 -0.0221
  122MOL0     C16036  11.785   1.331   9.277 -0.5033  0.9895 -0.3631
  122MOL0     C16037  10.922   1.202   9.141  0.1674 -0.0456 -0.7168
  122MOL0     C16038  10.793   1.166   9.096  0.6148  0.7405  0.3493
  122MOL0     H16039  10.258   1.144   9.050  1.4299 -1.1479  1.2445
  122MOL0     H16040  10.100   1.101   8.890  0.4277 -1.3107  3.0726
  122MOL0     H16041  10.187   0.924   8.483 -2.2613 -0.4535 -1.5794
  122MOL0     H16042  10.225   1.097   8.466  0.9554 -0.3207  0.8288
  122MOL0     H16043   9.937   0.993   8.466 -1.9787 -0.6204 -0.2668
  122MOL0     H16044  10.045   0.996   8.317 -1.3826  1.5960 -0.8295
  122MOL0     H16045   9.920   1.192   8.299 -0.6119 -0.7669  1.0827
  122MOL0     H16046  10.095   1.224   8.339 -0.6062  2.5139 -0.0857
  122MOL0     H16047   9.876   1.222   8.553 -1.9835  0.7158 -2.4451
  122MOL0     H16048  10.049   1.287   8.547  0.6369 -0.4884 -0.8831
  122MOL0     H16049   9.812   1.382   8.368  0.7419 -1.2765 -1.2704
  122MOL0     H16050   9.968   1.455   8.375  1.0698  0.0132  0.8699
  122MOL0     H16051   9.940   1.512   8.619 -0.2290 -0.8655  1.7132
  122MOL0     H16052   9.791   1.430   8.627 -1.5854 -0.2983 -0.2673
  122MOL0     H16053   9.818   1.676   8.437 -2.2378  4.2153  2.1049
  122MOL0     H16054   9.681   1.580   8.484  0.0213  1.1812  0.7683
  122MOL0     H16055   9.837   1.780   8.654 -0.9039  1.5646  1.4636
  122MOL0     H16056   9.752   1.645   8.729  1.3238  1.3399  1.4095
  122MOL0     H16057   9.491   1.667   8.706  1.9673  0.0249  0.4909
  122MOL0     H16058   9.258   1.972   8.591  1.4326  0.6605  0.1330
  122MOL0     H16059   9.261   1.882   8.745  0.0698 -0.0522  0.6659
  122MOL0     H16060   9.271   1.667   8.623 -0.7859  0.5804  1.9769
  122MOL0     H16061   9.237   1.744   8.465 -1.9485 -0.2451  0.3092
  122MOL0     H16062   9.039   1.826   8.520  1.3178  0.5373  0.5665
  122MOL0     H16063   9.046   1.653   8.538 -0.3206  0.1145  1.6408
  122MOL0     H16064   9.066   1.707   8.785  0.7868  0.1988 -1.6880
  122MOL0     H16065   8.915   1.724   8.724 -1.6763  0.3099 -0.1086
  122MOL0     H16066   8.934   2.096   8.591 -1.5215 -0.9222 -1.2725
  122MOL0     H16067   8.739   2.222   8.594  1.4878  0.6655 -0.2750
  122MOL0     H16068   8.228   2.145   8.568  0.4738 -0.7853  1.7668
  122MOL0     H16069   8.012   2.295   8.553  0.5440 -1.2018 -1.1844
  122MOL0     H16070   8.067   2.729   8.519 -0.7327  0.8909  0.7373
  122MOL0     H16071   8.023   2.708   8.694 -1.2444 -0.9858  0.3728
  122MOL0     H16072   7.798   2.661   8.643 -2.1011  2.2642  1.0495
  122MOL0     H16073   7.809   2.727   8.479 -3.5200 -0.3076  2.1026
  122MOL0     H16074   7.923   2.935   8.609 -0.9159  2.7099 -1.6512
  122MOL0     H16075   7.818   2.865   8.738  1.5402 -0.1275  0.3046
  122MOL0     H16076   7.749   2.955   8.452  0.6115  0.4693  0.2677
  122MOL0     H16077   7.627   2.883   8.549 -0.1517  0.4233  0.3086
  122MOL0     H16078   7.784   3.109   8.680 -0.5495 -1.7485  2.3193
  122MOL0     H16079   7.622   3.058   8.707  1.3085 -0.2787  1.8291
  122MOL0     H16080   7.535   3.152   8.483  0.1756  0.8952  0.0099
  122MOL0     H16081   7.688   3.179   8.422  0.0885 -1.3115 -0.0964
  122MOL0     H16082   7.552   3.326   8.648  0.5607  0.1488  0.5561
  122MOL0     H16083   7.710   3.375   8.587 -1.6385  1.8314  1.5317
  122MOL0     H16084   7.607   3.413   8.353 -1.2903 -0.5104 -0.9917
  122MOL0     H16085   7.551   3.524   8.474  0.9576 -0.0058  1.4596
  122MOL0     H16086   8.244   2.634   8.665  1.6233  0.4113 -3.4617
  122MOL0     H16087   8.441   2.492   8.682 -0.0763  1.6080  0.7778
  122MOL0     H16088   8.603   1.970   8.929  0.8188  0.1852 -0.0239
  122MOL0     H16089   8.820   1.864   8.935  0.7907  0.9192  0.7817
  122MOL0     H16090  10.411   1.027   8.598 -2.5443  0.7643 -0.8163
  122MOL0     H16091  10.575   1.073   8.758 -0.0171  1.5025  1.1485
  122MOL0     H16092  10.622   1.236   9.375 -2.0009 -2.3781 -1.2597
  122MOL0     H16093  10.827   1.273   9.465 -0.9741  0.3881  0.2041
  122MOL0     H16094  11.175   1.331   9.175  0.6406  1.2753  1.0360
  122MOL0     H16095  11.194   1.163   9.192  3.3581  0.9010 -0.5044
  122MOL0     H16096  11.297   1.381   9.378 -0.1230  1.3002 -3.2604
  122MOL0     H16097  11.281   1.212   9.431 -3.3798 -0.9651 -1.3327
  122MOL0     H16098  11.459   1.301   9.198  2.5750  1.9971  0.8882
  122MOL0     H16099  11.454   1.142   9.284  1.5937  0.4462  1.2339
  122MOL0     H16100  11.518   1.395   9.448  3.3273  1.9976 -0.2221
  122MOL0     H16101  11.566   1.222   9.465  0.5003  0.2465 -0.3124
  122MOL0     H16102  11.887   1.314   9.250 -0.1773 -3.6292  2.6446
  122MOL0     H16103  11.005   1.196   9.071  3.5420  0.3793  2.9297
  122MOL0     H16104  10.779   1.141   8.992 -0.0232  0.3700  0.5196
  123MOL0     O16105   0.815  10.101   7.684 -0.4811 -0.2548  0.2251
  123MOL0     C16106   0.773   9.985   7.704 -0.9946 -0.1403  0.6745
  123MOL0     O16107   0.783   9.910   7.825 -0.3004 -0.6734 -0.4930
  123MOL0     C16108   0.893   9.930   7.905 -0.0102  0.2379  0.7281
  123MOL0     C16109   0.867   9.898   8.038 -0.6286  0.2218  0.1785
  123MOL0     C16110   0.973   9.903   8.126 -0.0138  0.0329 -0.0541
  123MOL0     C16111   1.108   9.928   8.081 -0.3253 -0.3993 -0.9244
  123MOL0     O16112   1.218   9.908   8.162 -0.0401 -0.8592  0.4545
  123MOL0     C16113   1.215   9.943   8.301 -0.2077  0.2987 -0.4654
  123MOL0     C16114   1.356   9.962   8.365 -0.3518  0.0478 -0.0486
  123MOL0     C16115   1.434  10.079   8.304  0.6018  0.0195 -0.1400
  123MOL0     C16116   1.347  10.205   8.293 -0.1799 -0.0274 -0.2464
  123MOL0     C16117   1.417  10.310   8.208  1.0515 -0.1845  0.4239
  123MOL0     C16118   1.507  10.392   8.300  0.4615  0.1366 -0.8740
  123MOL0     C16119   1.582  10.500   8.230  0.6851  0.2192  0.0246
  123MOL0     C16120   1.624  10.620   8.317  0.2039 -0.0064  0.5470
  123MOL0     N16121   1.514  10.723   8.342  0.3621 -0.2239 -0.0210
  123MOL0     C16122   1.516  10.854   8.295 -0.5675 -0.3492 -0.1067
  123MOL0     C16123   1.403  10.913   8.328  0.3699  0.4892  0.7376
  123MOL0     C16124   1.347  11.055   8.309 -0.1032  0.0959  0.2820
  123MOL0     C16125   1.412  11.142   8.417  0.0711  0.8432  0.4018
  123MOL0     C16126   1.356  11.282   8.415  0.2544  0.2917  0.8660
  123MOL0     C16127   1.209  11.290   8.455  0.2548  0.4359  1.0677
  123MOL0     O16128   1.149  11.411   8.420  0.3997  0.3432  0.3825
  123MOL0     C16129   1.028  11.446   8.480  0.4096  0.7734 -1.2586
  123MOL0     C16130   0.977  11.571   8.457  1.3120 -0.2405 -0.0921
  123MOL0     C16131   0.839  11.597   8.497 -0.5317  1.1944  0.3056
  123MOL0     C16132   0.765  11.501   8.565  0.2337 -0.6688  0.6660
  123MOL0     C16133   0.637  11.544   8.620  0.7889  0.6025 -0.9489
  123MOL0     O16134   0.578  11.667   8.594 -0.3262 -0.3443  0.4168
  123MOL0     C16135   0.468  11.690   8.665 -0.0516  0.6690 -0.1844
  123MOL0     C16136   0.472  11.774   8.777 -0.4588 -0.0510 -0.4845
  123MOL0     C16137   0.359  11.810   8.844 -1.2216 -0.8112  0.0441
  123MOL0     C16138   0.232  11.753   8.807  0.0738  0.5150 -0.4237
  123MOL0     O16139   0.125  11.770   8.889  0.3483 -0.6825 -0.1547
  123MOL0     C16140  -0.002  11.707   8.867 -0.1846  0.8970 -0.5940
  123MOL0     C16141  -0.087  11.743   8.984  0.7831  0.0477 -0.4792
  123MOL0     C16142  -0.039  11.691   9.121 -0.1539 -0.9034  0.2120
  123MOL0     C16143  -0.161  11.656   9.211  0.2770 -0.4632  0.3739
  123MOL0     C16144  -0.120  11.631   9.362  0.0647 -0.4501 -1.1507
  123MOL0     C16145  -0.238  11.594   9.457 -1.0704  0.8609 -0.1348
  123MOL0     C16146  -0.311  11.716   9.509  1.2347  0.4731  0.0141
  123MOL0     C16147  -0.423  11.667   9.610  0.3166 -0.4334 -0.4147
  123MOL0    Cl16148  -0.494  11.812   9.693 -0.1414 -0.1815  0.1942
  123MOL0     C16149   0.223  11.666   8.693 -0.9003  0.6178  0.1669
  123MOL0     C16150   0.341  11.637   8.619  0.0846 -0.5386 -0.2871
  123MOL0     O16151   0.583  11.457   8.687  0.0301  1.0211 -0.6281
  123MOL0     C16152   0.821  11.376   8.588  0.3340  0.1257 -0.0308
  123MOL0     C16153   0.948  11.350   8.545  1.1391  0.4200 -0.3016
  123MOL0     N16154   1.326  10.818   8.408  0.2286 -0.3473 -0.3342
  123MOL0     N16155   1.394  10.707   8.414  0.8693  0.0681  0.4116
  123MOL0     C16156   1.132   9.955   7.951 -0.3831 -0.4166  0.7805
  123MOL0     C16157   1.026   9.971   7.861  0.0097  1.3133 -0.2960
  123MOL0     C16158   0.679   9.943   7.595  0.6074  0.3468 -1.1642
  123MOL0     C16159   0.674  10.000   7.467  0.3194  0.1417  0.3079
  123MOL0     C16160   0.572   9.945   7.376 -0.0440 -0.2460  0.3095
  123MOL0     C16161   0.484   9.837   7.405 -0.5412 -0.5632  0.2320
  123MOL0     O16162   0.404   9.790   7.301  0.1748  0.0488  1.1691
  123MOL0     C16163   0.384   9.658   7.278 -0.0585  0.4863 -0.1728
  123MOL0     C16164   0.316   9.639   7.142 -0.9250  0.0849  0.1109
  123MOL0     C16165   0.198   9.740   7.109 -0.3717  0.4183 -0.0121
  123MOL0     C16166   0.138   9.702   6.974 -0.3216  0.2997 -0.1801
  123MOL0     C16167   0.010   9.768   6.964  0.2101 -0.5214  0.6912
  123MOL0     C16168  -0.104   9.807   6.956 -0.3896 -0.1176  0.0057
  123MOL0     C16169   0.501   9.781   7.534  0.9778 -0.8226  0.6987
  123MOL0     C16170   0.597   9.831   7.625 -0.6428  0.0719  0.6407
  123MOL0     H16171   0.770   9.873   8.079 -1.2625 -1.0256 -1.9573
  123MOL0     H16172   0.966   9.879   8.232  2.5862  1.8978  0.6257
  123MOL0     H16173   1.182   9.847   8.341 -0.9408  0.3981 -0.8282
  123MOL0     H16174   1.141  10.019   8.328  0.5718  1.2707 -0.9971
  123MOL0     H16175   1.410   9.867   8.357 -0.1327 -0.0917  2.3383
  123MOL0     H16176   1.346   9.983   8.472  1.6301  1.6248 -0.1294
  123MOL0     H16177   1.478  10.039   8.213  0.8442 -0.3708  0.1430
  123MOL0     H16178   1.509  10.102   8.380  0.6160 -0.4231 -0.0156
  123MOL0     H16179   1.254  10.179   8.241 -0.5722  2.1128 -0.6984
  123MOL0     H16180   1.303  10.236   8.388 -0.3556 -1.8711  0.3132
  123MOL0     H16181   1.342  10.381   8.172  1.7858 -0.7582 -2.5029
  123MOL0     H16182   1.479  10.259   8.134  2.6460 -0.9219  2.1796
  123MOL0     H16183   1.579  10.321   8.341 -1.4360 -0.6003  1.4430
  123MOL0     H16184   1.452  10.430   8.387  2.4818 -2.0636  1.5635
  123MOL0     H16185   1.676  10.456   8.197  0.6854 -0.2613  0.6397
  123MOL0     H16186   1.528  10.538   8.143  0.8521  1.2148  0.3398
  123MOL0     H16187   1.712  10.674   8.282 -0.5714  1.4813  0.8056
  123MOL0     H16188   1.649  10.578   8.415  0.1354  1.5242  1.2453
  123MOL0     H16189   1.591  10.899   8.232  0.3896  1.8742  2.4128
  123MOL0     H16190   1.238  11.045   8.319 -0.0898  0.3806  0.7557
  123MOL0     H16191   1.377  11.092   8.211 -0.6289 -0.6449 -0.1707
  123MOL0     H16192   1.516  11.149   8.384 -0.3519 -0.8434 -1.4730
  123MOL0     H16193   1.418  11.089   8.512 -0.7485 -0.1777 -0.0919
  123MOL0     H16194   1.407  11.345   8.489  0.0883 -1.2045  2.3155
  123MOL0     H16195   1.362  11.326   8.315  0.3186 -1.5557  0.0238
  123MOL0     H16196   1.208  11.268   8.562 -0.3548  1.4434  1.2825
  123MOL0     H16197   1.162  11.208   8.400  0.8270  0.4333  0.5773
  123MOL0     H16198   1.018  11.649   8.394 -1.7495  0.8441 -0.9045
  123MOL0     H16199   0.793  11.692   8.472 -2.0575  0.2079 -0.8167
  123MOL0     H16200   0.567  11.808   8.817 -0.2867 -0.9370 -0.1030
  123MOL0     H16201   0.374  11.860   8.940 -0.4440 -1.7759  0.4522
  123MOL0     H16202   0.015  11.599   8.862  0.6904  1.0553 -1.4580
  123MOL0     H16203  -0.043  11.737   8.769 -0.8722  1.2050 -0.2228
  123MOL0     H16204  -0.185  11.703   8.958 -0.5608  2.5717  0.3555
  123MOL0     H16205  -0.101  11.851   8.975  2.6638  0.4333  0.7079
  123MOL0     H16206   0.029  11.764   9.166  0.9805 -1.4212 -0.6118
  123MOL0     H16207   0.014  11.596   9.112  1.4487 -0.0138 -0.1366
  123MOL0     H16208  -0.230  11.741   9.204  0.4512 -0.2266  1.3786
  123MOL0     H16209  -0.220  11.571   9.175 -1.2591  0.2141  1.1691
  123MOL0     H16210  -0.066  11.722   9.393 -0.1643  0.6219 -3.6784
  123MOL0     H16211  -0.045  11.552   9.371  2.0792  1.5617  2.6055
  123MOL0     H16212  -0.193  11.537   9.538  0.2644  0.8063 -0.8880
  123MOL0     H16213  -0.302  11.531   9.394 -0.0883  2.2633 -2.6919
  123MOL0     H16214  -0.241  11.781   9.563 -1.4020  2.1827  1.6352
  123MOL0     H16215  -0.357  11.779   9.432  0.4827  1.6455  1.3557
  123MOL0     H16216  -0.377  11.595   9.678 -0.7403  0.8493  1.7441
  123MOL0     H16217  -0.503  11.618   9.554 -0.1919  0.3955 -0.4296
  123MOL0     H16218   0.131  11.623   8.656  0.3379 -0.0461 -2.3044
  123MOL0     H16219   0.335  11.581   8.526 -0.6064  0.1941 -0.6941
  123MOL0     H16220   0.771  11.290   8.633  0.5203 -0.0521 -0.1640
  123MOL0     H16221   0.983  11.249   8.564  0.4541  0.4566  1.2454
  123MOL0     H16222   1.236   9.972   7.925  0.4662 -2.1576  2.7595
  123MOL0     H16223   1.046   9.999   7.758  1.4576 -0.0692 -0.4262
  123MOL0     H16224   0.729  10.088   7.439 -2.1604  3.3050  4.2500
  123MOL0     H16225   0.564   9.998   7.281 -2.4219  1.5777  1.4146
  123MOL0     H16226   0.317   9.630   7.360  1.7500  0.5320  1.3809
  123MOL0     H16227   0.482   9.610   7.280  0.6471  1.8709  1.4736
  123MOL0     H16228   0.395   9.644   7.067 -1.2424  0.9312 -0.1849
  123MOL0     H16229   0.284   9.535   7.129  3.3800 -1.0932 -2.8813
  123MOL0     H16230   0.236   9.842   7.096  2.9436 -0.7844 -0.6571
  123MOL0     H16231   0.119   9.748   7.183 -0.2574 -0.8334  0.2726
  123MOL0     H16232   0.211   9.708   6.893 -1.5257  0.1539 -1.3108
  123MOL0     H16233   0.120   9.594   6.980 -0.5318  0.2319 -1.7297
  123MOL0     H16234  -0.205   9.829   6.928 -1.0398 -0.2980  2.0251
  123MOL0     H16235   0.445   9.692   7.562  2.1661 -3.2711 -3.7137
  123MOL0     H16236   0.597   9.781   7.722 -1.7867 -0.0154  0.6047
  124MOL0     O16237   3.950   2.062   0.915  0.3000  0.5806  0.2022
  124MOL0     C16238   4.026   2.060   1.012 -0.1085  0.4079  0.1266
  124MOL0     O16239   3.979   2.061   1.141 -0.2109  0.5011  0.1565
  124MOL0     C16240   3.835   2.040   1.154  0.2108  0.1254  0.7944
  124MOL0     C16241   3.791   1.913   1.192  0.4186  0.0200  0.4079
  124MOL0     C16242   3.653   1.880   1.204  1.1697  0.3073  0.5853
  124MOL0     C16243   3.562   1.982   1.174  0.1370  0.7544 -0.0810
  124MOL0     O16244   3.427   1.968   1.188 -0.0559 -0.2620  0.0263
  124MOL0     C16245   3.366   1.855   1.250  0.9848  0.1492 -0.8451
  124MOL0     C16246   3.217   1.888   1.254 -0.5559 -0.6943  0.1709
  124MOL0     C16247   3.147   1.780   1.337 -0.3093 -0.3607 -0.1790
  124MOL0     C16248   3.002   1.788   1.326  0.8484  0.2310  0.0464
  124MOL0     C16249   2.928   1.677   1.397 -0.0493  0.1143  1.0836
  124MOL0     C16250   2.775   1.679   1.371 -0.8507 -0.3990  0.2778
  124MOL0     C16251   2.695   1.558   1.399 -0.7308 -0.0216 -0.2042
  124MOL0     C16252   2.556   1.597   1.387  0.1615  0.2534 -0.1916
  124MOL0     N16253   2.514   1.707   1.473  0.0178  1.0096  0.8114
  124MOL0     C16254   2.458   1.696   1.597 -0.2349 -0.3841 -0.3346
  124MOL0     C16255   2.424   1.816   1.633 -0.2457 -0.6971 -0.0372
  124MOL0     C16256   2.346   1.848   1.760 -0.2281  0.8636 -0.4159
  124MOL0     C16257   2.209   1.893   1.714 -0.1882  0.3951  0.3275
  124MOL0     C16258   2.113   1.946   1.825  0.3812  0.4371 -0.5769
  124MOL0     C16259   1.977   1.988   1.761 -0.0059  0.2949 -0.0163
  124MOL0     O16260   1.888   2.025   1.868  0.6689 -1.0403  0.7937
  124MOL0     C16261   1.761   2.054   1.831 -0.3261  0.0563 -0.0946
  124MOL0     C16262   1.665   2.043   1.924 -0.2367  0.0195  0.8376
  124MOL0     C16263   1.536   2.060   1.889  0.4836  0.6646 -0.3164
  124MOL0     C16264   1.491   2.088   1.765  0.0372  0.4846 -0.7614
  124MOL0     C16265   1.340   2.100   1.743 -0.0907  1.0740 -0.5113
  124MOL0     O16266   1.256   2.059   1.839 -1.0501  0.3123 -0.9118
  124MOL0     C16267   1.119   2.047   1.826  0.0759  0.8232  0.0910
  124MOL0     C16268   1.041   2.154   1.816  1.5145 -0.5735  0.4944
  124MOL0     C16269   0.912   2.140   1.753  0.4891  0.1880  0.5032
  124MOL0     C16270   0.854   2.012   1.756 -0.4130 -1.4642 -0.9488
  124MOL0     O16271   0.716   2.007   1.754  1.3138 -0.7159  0.5253
  124MOL0     C16272   0.656   1.901   1.677  0.3846  0.6997  0.0515
  124MOL0     C16273   0.508   1.891   1.698 -0.0264 -0.1199 -0.1442
  124MOL0     C16274   0.470   1.846   1.850 -0.3354 -0.0867 -1.0025
  124MOL0     C16275   0.334   1.913   1.879 -0.0638  0.0740 -0.8040
  124MOL0     C16276   0.225   1.827   1.840 -0.0747  0.0358  1.0906
  124MOL0     C16277   0.088   1.895   1.833  0.4717  0.3515  0.7403
  124MOL0     C16278  -0.023   1.802   1.799 -0.1739 -0.0182  0.5232
  124MOL0     C16279  -0.149   1.833   1.877 -0.4462 -0.6846  0.1687
  124MOL0    Cl16280  -0.293   1.746   1.816  0.3321 -0.2628  0.0613
  124MOL0     C16281   0.932   1.906   1.784  1.2889  0.0338 -0.4665
  124MOL0     C16282   1.073   1.914   1.810  0.3600  0.0149  0.3459
  124MOL0     O16283   1.311   2.115   1.627  0.9862  0.4554 -0.2427
  124MOL0     C16284   1.584   2.116   1.667 -0.3437  0.1671 -0.4453
  124MOL0     C16285   1.723   2.102   1.705 -0.8918 -0.7215 -0.0042
  124MOL0     N16286   2.443   1.904   1.524 -0.3139 -0.6933 -0.2153
  124MOL0     N16287   2.501   1.840   1.436 -0.0237 -0.2180  0.4539
  124MOL0     C16288   3.609   2.109   1.151  0.0137 -0.1156  0.0957
  124MOL0     C16289   3.744   2.144   1.134  0.1072  0.7265  0.1320
  124MOL0     C16290   4.174   2.057   0.995  1.1225 -0.4645 -0.6614
  124MOL0     C16291   4.235   2.094   0.873  0.8844 -0.1377  0.1178
  124MOL0     C16292   4.372   2.083   0.856 -0.5726 -0.2835 -0.5280
  124MOL0     C16293   4.453   2.030   0.960  0.4585  0.1773 -0.2746
  124MOL0     O16294   4.581   2.001   0.935  0.0851 -0.1178  0.2389
  124MOL0     C16295   4.689   2.041   1.027  0.9574 -0.4093  0.7293
  124MOL0     C16296   4.762   2.150   0.956  1.1119 -0.0502  0.1367
  124MOL0     C16297   4.711   2.296   0.969  0.0714  0.2840 -0.5072
  124MOL0     C16298   4.802   2.388   0.890  0.0507  0.9782 -0.4497
  124MOL0     C16299   4.917   2.410   0.968 -0.4517  0.5653 -0.6763
  124MOL0     C16300   5.000   2.445   1.052  0.4342 -0.4118  0.7393
  124MOL0     C16301   4.395   1.996   1.086 -0.1933 -0.4955  0.5469
  124MOL0     C16302   4.255   2.007   1.094 -0.7463  0.7025 -0.1342
  124MOL0     H16303   3.869   1.838   1.205  0.1581 -0.1002  1.2864
  124MOL0     H16304   3.614   1.781   1.225  0.6340  0.1726 -0.9078
  124MOL0     H16305   3.401   1.843   1.353 -2.9245 -0.0598  0.6145
  124MOL0     H16306   3.392   1.769   1.188  0.3353  0.0671 -1.0077
  124MOL0     H16307   3.187   1.893   1.149  1.4312  1.2489 -0.3705
  124MOL0     H16308   3.209   1.984   1.305  2.3454  1.1268 -2.5047
  124MOL0     H16309   3.179   1.791   1.441  1.2935  3.0599 -0.8775
  124MOL0     H16310   3.174   1.681   1.301 -3.7376 -0.4228 -3.2528
  124MOL0     H16311   2.969   1.885   1.365  0.3175 -0.3786  1.1363
  124MOL0     H16312   2.969   1.783   1.222 -5.2023  1.2069  1.5776
  124MOL0     H16313   2.950   1.676   1.504  1.2747 -0.7544  0.8268
  124MOL0     H16314   2.967   1.588   1.345  1.4456  1.6977 -0.6675
  124MOL0     H16315   2.768   1.702   1.264  0.6055  3.4669  0.8478
  124MOL0     H16316   2.746   1.773   1.417 -0.2476 -0.2089  0.2815
  124MOL0     H16317   2.720   1.489   1.319  2.3182  0.2333  0.4033
  124MOL0     H16318   2.720   1.504   1.491 -1.6336 -2.1338 -1.1497
  124MOL0     H16319   2.489   1.514   1.409  1.4046 -0.5831  0.5989
  124MOL0     H16320   2.532   1.629   1.285  1.5586  0.7522 -0.3990
  124MOL0     H16321   2.431   1.606   1.651  0.2251  0.8945  2.1519
  124MOL0     H16322   2.400   1.922   1.819  0.0885  1.2638 -1.1921
  124MOL0     H16323   2.337   1.755   1.818  4.2407  0.3367 -0.2523
  124MOL0     H16324   2.152   1.813   1.666  1.5530  0.4202 -1.9483
  124MOL0     H16325   2.216   1.967   1.634  1.4229  0.6071  0.6263
  124MOL0     H16326   2.107   1.855   1.886 -1.1063  0.1940 -1.0476
  124MOL0     H16327   2.138   2.037   1.880 -0.1596  2.0996 -2.9546
  124MOL0     H16328   1.947   1.903   1.700  2.7866 -2.3964  2.0508
  124MOL0     H16329   1.989   2.079   1.701 -0.6510  2.9433  3.5462
  124MOL0     H16330   1.684   2.032   2.030  0.5591 -2.5723  0.5137
  124MOL0     H16331   1.466   2.062   1.973  1.3445 -2.9542  0.6687
  124MOL0     H16332   1.070   2.258   1.830 -0.7607  0.2175 -0.2723
  124MOL0     H16333   0.858   2.222   1.707  2.1062  1.2163  0.3651
  124MOL0     H16334   0.697   1.802   1.703  1.0791  1.6993  3.1899
  124MOL0     H16335   0.679   1.918   1.571  2.5440  3.0582  0.7883
  124MOL0     H16336   0.459   1.817   1.634 -1.0021 -1.0066  1.5323
  124MOL0     H16337   0.473   1.989   1.664 -0.0333 -0.2431 -0.4958
  124MOL0     H16338   0.544   1.871   1.927  0.1987 -0.0040 -1.5395
  124MOL0     H16339   0.457   1.737   1.854  1.9002 -0.3691  0.6242
  124MOL0     H16340   0.313   1.926   1.985 -0.2723 -0.7635 -0.7347
  124MOL0     H16341   0.339   2.011   1.830 -0.6495  1.0559  1.0011
  124MOL0     H16342   0.234   1.738   1.903  0.8557  0.4616  1.5800
  124MOL0     H16343   0.246   1.796   1.737  0.7915  3.9375 -0.0598
  124MOL0     H16344   0.093   1.967   1.750 -2.1570 -0.5696 -0.3306
  124MOL0     H16345   0.064   1.941   1.930 -0.5669  0.4842  0.4310
  124MOL0     H16346  -0.037   1.800   1.690  1.6049  1.4016  0.2097
  124MOL0     H16347   0.007   1.699   1.818  1.8633  0.0327 -1.8583
  124MOL0     H16348  -0.180   1.937   1.862 -2.4785 -0.7389  3.0815
  124MOL0     H16349  -0.137   1.825   1.985 -2.6337  1.5634  0.6603
  124MOL0     H16350   0.891   1.810   1.815  0.4380  1.4751  3.5875
  124MOL0     H16351   1.141   1.834   1.834 -0.9224 -1.5774 -1.0557
  124MOL0     H16352   1.554   2.143   1.566 -0.5831 -0.0091 -0.4217
  124MOL0     H16353   1.800   2.128   1.634 -0.8722 -0.9956 -0.0861
  124MOL0     H16354   3.542   2.190   1.127 -0.9511 -0.6991  0.7723
  124MOL0     H16355   3.766   2.249   1.115 -1.6066  0.8941 -1.1544
  124MOL0     H16356   4.176   2.127   0.788  0.8797 -2.3805 -0.8425
  124MOL0     H16357   4.418   2.111   0.761  1.5613  1.1139  0.8187
  124MOL0     H16358   4.754   1.953   1.032  2.6286  0.7296 -0.2253
  124MOL0     H16359   4.654   2.068   1.127  0.9792  0.1202  0.5969
  124MOL0     H16360   4.861   2.156   1.002  0.7158 -0.7448  1.1252
  124MOL0     H16361   4.776   2.133   0.849 -2.2169  1.1046 -0.6302
  124MOL0     H16362   4.703   2.322   1.075 -0.4785  2.2714 -1.0049
  124MOL0     H16363   4.607   2.298   0.936 -0.3306 -5.3680 -0.6183
  124MOL0     H16364   4.834   2.338   0.798  3.4274 -1.1923  1.7026
  124MOL0     H16365   4.762   2.488   0.871  0.0671  0.6637 -2.2985
  124MOL0     H16366   5.073   2.474   1.125 -0.3328  1.4127  0.8114
  124MOL0     H16367   4.456   1.955   1.167  0.6677  0.0970  0.2072
  124MOL0     H16368   4.201   1.989   1.186 -0.0135  0.4666  0.2588
  125MOL0     O16369  11.007   3.993   3.270  1.3666 -0.4682  0.4151
  125MOL0     C16370  10.920   3.930   3.202 -0.5317 -0.8698 -1.2726
  125MOL0     O16371  10.946   3.809   3.142  0.4114 -0.9026  0.7476
  125MOL0     C16372  11.079   3.771   3.152  0.5617 -0.0333 -0.0194
  125MOL0     C16373  11.180   3.823   3.058  0.6757  0.1888  1.1095
  125MOL0     C16374  11.311   3.789   3.057  0.1221  0.3907 -0.2194
  125MOL0     C16375  11.357   3.732   3.171 -0.3087 -0.4563 -0.4479
  125MOL0     O16376  11.485   3.706   3.199 -0.4133 -0.4540  0.5781
  125MOL0     C16377  11.574   3.822   3.205 -0.0679 -0.3181 -0.5211
  125MOL0     C16378  11.565   3.865   3.346  0.4781  0.8533 -0.2274
  125MOL0     C16379  11.622   3.760   3.445  0.5433 -0.5321 -0.1099
  125MOL0     C16380  11.631   3.803   3.591  0.2085 -0.2930  0.8513
  125MOL0     C16381  11.491   3.796   3.652 -0.0121 -0.6138  0.0799
  125MOL0     C16382  11.498   3.819   3.804  0.1244  0.3627  0.3634
  125MOL0     C16383  11.367   3.777   3.871  0.2814 -0.2175 -0.5897
  125MOL0     C16384  11.362   3.817   4.018 -0.2677 -0.6486  1.0426
  125MOL0     N16385  11.258   3.733   4.084 -0.4882  1.1751  0.1335
  125MOL0     C16386  11.131   3.709   4.034 -0.4327 -0.4619  0.4913
  125MOL0     C16387  11.046   3.681   4.136 -0.4623 -0.2052  0.6412
  125MOL0     C16388  10.903   3.643   4.097 -0.7255 -0.3813  0.9982
  125MOL0     C16389  10.894   3.501   4.049  0.0870  0.5818  0.6566
  125MOL0     C16390  10.755   3.442   4.039 -0.4717  0.4336  0.5262
  125MOL0     C16391  10.649   3.522   3.955  0.4025  0.5183  0.5349
  125MOL0     O16392  10.708   3.536   3.824  0.4161  0.2656  0.0044
  125MOL0     C16393  10.630   3.574   3.720 -0.8009  0.5307  0.0979
  125MOL0     C16394  10.494   3.585   3.706 -0.9661 -0.0698  0.1518
  125MOL0     C16395  10.428   3.613   3.585  0.0971  0.4464 -0.6247
  125MOL0     C16396  10.509   3.633   3.468  1.3095  0.3174  0.8483
  125MOL0     C16397  10.450   3.679   3.339  0.0826  0.4303 -0.6666
  125MOL0     O16398  10.324   3.724   3.351  0.0074 -0.3100  0.0966
  125MOL0     C16399  10.233   3.729   3.250  0.2061 -0.8676 -0.0269
  125MOL0     C16400  10.164   3.619   3.210  0.4986  1.3923  0.4292
  125MOL0     C16401  10.051   3.628   3.129  0.2209 -0.4133  0.4512
  125MOL0     C16402  10.003   3.757   3.086  0.0395 -0.6166  0.0633
  125MOL0     O16403   9.903   3.777   2.995 -0.6176 -0.5894  0.8976
  125MOL0     C16404   9.806   3.674   2.981 -0.2142  0.3399 -0.3277
  125MOL0     C16405   9.669   3.711   2.930  0.3647 -1.5897  0.2543
  125MOL0     C16406   9.670   3.808   2.808  0.1182  0.5686 -0.2551
  125MOL0     C16407   9.575   3.927   2.809 -0.1387  0.9595 -0.2915
  125MOL0     C16408   9.609   4.018   2.691 -0.4723 -0.1365  0.8933
  125MOL0     C16409   9.521   4.137   2.690 -0.1714 -1.0326 -0.6152
  125MOL0     C16410   9.572   4.247   2.595 -0.9923 -0.4036 -0.6875
  125MOL0     C16411   9.478   4.356   2.586  0.9150 -0.0918  0.3270
  125MOL0    Cl16412   9.500   4.456   2.435  0.1230 -0.1138 -0.0399
  125MOL0     C16413  10.079   3.864   3.121  0.0964 -0.7645  0.4455
  125MOL0     C16414  10.193   3.856   3.206  0.2583  0.1250  0.3832
  125MOL0     O16415  10.512   3.667   3.235 -0.7714  1.2242  0.0885
  125MOL0     C16416  10.645   3.632   3.476  0.4361  0.4029 -0.7089
  125MOL0     C16417  10.706   3.608   3.604 -0.0071 -0.2696 -0.0648
  125MOL0     N16418  11.120   3.681   4.249 -0.6611  0.5147 -0.0513
  125MOL0     N16419  11.250   3.716   4.223 -0.5398  0.6841  0.3125
  125MOL0     C16420  11.267   3.683   3.269  0.4072 -0.5140 -0.2637
  125MOL0     C16421  11.133   3.701   3.261  0.1891  0.8256  0.9120
  125MOL0     C16422  10.783   3.989   3.203  0.4912 -0.1496 -0.0624
  125MOL0     C16423  10.675   3.919   3.143 -0.0672 -0.4254 -0.4147
  125MOL0     C16424  10.550   3.976   3.121  0.2593  1.2528 -0.4142
  125MOL0     C16425  10.519   4.106   3.147  0.2030  0.1121  0.2537
  125MOL0     O16426  10.393   4.155   3.106  0.6696 -0.0586 -0.3325
  125MOL0     C16427  10.397   4.298   3.100 -0.4567  0.7368  0.3362
  125MOL0     C16428  10.286   4.338   3.002 -0.2693  0.7739 -0.0515
  125MOL0     C16429  10.147   4.274   3.041  0.6508  0.0178  0.1575
  125MOL0     C16430  10.034   4.352   2.961 -0.0885 -0.1406 -0.2185
  125MOL0     C16431  10.003   4.480   3.024 -0.4530 -0.1527  0.0098
  125MOL0     C16432   9.988   4.593   3.052  0.0422 -0.4939  0.1350
  125MOL0     C16433  10.630   4.176   3.210  0.2978 -0.3444 -0.4847
  125MOL0     C16434  10.753   4.122   3.241  0.1275  0.7052 -0.3250
  125MOL0     H16435  11.154   3.889   2.975  1.7665 -1.6878 -0.8084
  125MOL0     H16436  11.383   3.804   2.977  1.8323 -0.6102  1.0573
  125MOL0     H16437  11.543   3.900   3.136  1.0559  1.9862  1.4292
  125MOL0     H16438  11.677   3.787   3.198  0.2363  0.5527 -0.5070
  125MOL0     H16439  11.460   3.887   3.371  0.1376 -0.2792 -0.6114
  125MOL0     H16440  11.626   3.955   3.356  1.3445  0.4596 -1.6574
  125MOL0     H16441  11.725   3.727   3.428  0.5259 -1.1073  0.7980
  125MOL0     H16442  11.569   3.664   3.439  0.2460 -0.3463 -0.5026
  125MOL0     H16443  11.693   3.727   3.638  0.1580 -1.0380 -0.2693
  125MOL0     H16444  11.671   3.905   3.599  1.6213 -0.4335 -2.5888
  125MOL0     H16445  11.453   3.694   3.641  3.3270 -2.0272  0.7208
  125MOL0     H16446  11.430   3.876   3.609 -0.6355 -0.6943  0.7808
  125MOL0     H16447  11.521   3.922   3.830 -0.5928 -0.0464  2.9465
  125MOL0     H16448  11.576   3.758   3.852 -2.0988 -1.4563  1.9241
  125MOL0     H16449  11.288   3.829   3.816 -1.9642 -0.8215  1.8650
  125MOL0     H16450  11.349   3.670   3.853 -1.5846 -0.1223  0.4445
  125MOL0     H16451  11.339   3.923   4.026  2.1814 -0.1715  3.0666
  125MOL0     H16452  11.455   3.791   4.070 -0.6328 -2.4518  0.8639
  125MOL0     H16453  11.097   3.701   3.931 -0.0392  0.2566  0.2935
  125MOL0     H16454  10.863   3.705   4.016 -0.8527 -1.8417 -0.1103
  125MOL0     H16455  10.838   3.669   4.181 -0.0809  0.1149  1.3447
  125MOL0     H16456  10.954   3.434   4.112 -2.4022  0.5498  3.2012
  125MOL0     H16457  10.917   3.497   3.942  0.7101  4.0509  0.5384
  125MOL0     H16458  10.778   3.350   3.983  3.1220 -1.8151  5.1002
  125MOL0     H16459  10.712   3.411   4.135 -1.8764  1.8856  0.4062
  125MOL0     H16460  10.650   3.623   3.997  2.3139  1.0987 -0.7881
  125MOL0     H16461  10.552   3.474   3.944  2.0723 -3.3084  0.8454
  125MOL0     H16462  10.428   3.566   3.789  1.4707 -3.2944  1.5463
  125MOL0     H16463  10.321   3.628   3.579 -0.1994 -1.0517  0.5772
  125MOL0     H16464  10.186   3.522   3.254 -1.6342  0.4626 -0.4287
  125MOL0     H16465   9.998   3.539   3.098  0.6454 -0.3273 -0.5743
  125MOL0     H16466   9.794   3.632   3.081 -0.7933  1.0910 -0.0700
  125MOL0     H16467   9.853   3.597   2.920  1.9718  1.5459 -0.2753
  125MOL0     H16468   9.617   3.767   3.008 -1.0150 -1.1759 -0.9255
  125MOL0     H16469   9.604   3.624   2.919 -1.2515 -0.3953 -0.1030
  125MOL0     H16470   9.661   3.752   2.715  0.6380  0.6607 -0.3623
  125MOL0     H16471   9.771   3.849   2.802 -0.3985  1.6428 -2.4321
  125MOL0     H16472   9.472   3.893   2.798 -0.9884  1.4568  4.1210
  125MOL0     H16473   9.585   3.970   2.910  1.1199 -0.5848  0.2801
  125MOL0     H16474   9.600   3.972   2.592 -2.2900  1.2613  0.3486
  125MOL0     H16475   9.708   4.059   2.713 -0.3082 -0.3655  0.5951
  125MOL0     H16476   9.520   4.187   2.787 -0.5253 -1.2972 -0.4785
  125MOL0     H16477   9.425   4.098   2.652 -0.3332  0.1495 -1.4766
  125MOL0     H16478   9.672   4.269   2.634 -1.3641  0.5417 -0.2438
  125MOL0     H16479   9.583   4.196   2.499  1.9469 -4.1380  1.3695
  125MOL0     H16480   9.487   4.421   2.674  4.6693  0.0909 -0.0006
  125MOL0     H16481   9.377   4.317   2.582 -0.0187  2.1695 -2.7949
  125MOL0     H16482  10.051   3.960   3.079  2.1724 -0.6735 -0.8978
  125MOL0     H16483  10.248   3.940   3.248 -2.2190  1.7843  0.5974
  125MOL0     H16484  10.705   3.651   3.387 -0.0086 -0.5837 -1.2392
  125MOL0     H16485  10.814   3.605   3.605  0.1101  2.1764  0.7693
  125MOL0     H16486  11.309   3.629   3.354 -0.5451 -0.2489  0.3958
  125MOL0     H16487  11.062   3.670   3.337  2.2887  0.0286  2.6162
  125MOL0     H16488  10.681   3.812   3.121 -3.6441 -1.9427  4.2662
  125MOL0     H16489  10.490   3.901   3.070  4.1302 -2.5718  0.1013
  125MOL0     H16490  10.492   4.344   3.070 -0.7161  1.9854  1.3549
  125MOL0     H16491  10.379   4.338   3.200 -1.8105  0.2578  0.3038
  125MOL0     H16492  10.270   4.445   3.015 -3.3661  0.1722  2.2163
  125MOL0     H16493  10.311   4.324   2.896  0.4834 -1.2128  0.3302
  125MOL0     H16494  10.134   4.281   3.150  0.7749 -3.9536  0.5715
  125MOL0     H16495  10.135   4.167   3.019 -3.4454 -0.7970  4.6302
  125MOL0     H16496  10.059   4.364   2.855 -0.7516  2.5688 -0.1339
  125MOL0     H16497   9.940   4.298   2.946 -1.9135  2.5503  0.8375
  125MOL0     H16498   9.960   4.694   3.074 -0.1145  0.0777 -2.3960
  125MOL0     H16499  10.604   4.264   3.268  1.5452 -1.3132  1.7048
  125MOL0     H16500  10.818   4.186   3.300  0.8824 -0.2688 -0.0883
  126MOL0     O16501   2.091   3.338   0.895  0.4102 -0.5163 -0.3455
  126MOL0     C16502   2.075   3.437   0.830  0.3315  1.0564 -0.3377
  126MOL0     O16503   1.957   3.498   0.812  0.4198  0.2417 -0.0183
  126MOL0     C16504   1.843   3.455   0.871  0.5434 -0.0509  0.2661
  126MOL0     C16505   1.730   3.440   0.788 -0.8372  0.7169 -0.0850
  126MOL0     C16506   1.615   3.415   0.852  0.2177 -0.1787  0.2996
  126MOL0     C16507   1.597   3.404   0.991 -0.8758  0.0805 -0.2618
  126MOL0     O16508   1.469   3.372   1.034  0.5918 -0.1824  0.3176
  126MOL0     C16509   1.446   3.344   1.174  0.1159 -0.0790 -0.6213
  126MOL0     C16510   1.306   3.292   1.185  0.8870  0.0129 -0.4796
  126MOL0     C16511   1.197   3.406   1.187 -0.5932 -0.6918  0.0736
  126MOL0     C16512   1.163   3.477   1.320 -0.7210  0.0642 -1.0611
  126MOL0     C16513   1.055   3.585   1.310  0.3696 -0.7851 -0.9615
  126MOL0     C16514   0.913   3.538   1.280  0.3908  0.6409  0.8356
  126MOL0     C16515   0.796   3.642   1.310 -0.1820  0.8029  0.3957
  126MOL0     C16516   0.661   3.569   1.344  0.3181  0.5129 -0.1711
  126MOL0     N16517   0.600   3.508   1.226  0.5483 -0.0232 -0.7700
  126MOL0     C16518   0.541   3.569   1.115  0.1109 -0.1637  0.3933
  126MOL0     C16519   0.532   3.476   1.018 -0.5113 -0.1721 -0.3517
  126MOL0     C16520   0.472   3.492   0.888 -0.1096 -0.6741 -0.0680
  126MOL0     C16521   0.313   3.492   0.907  0.6168 -0.3520  0.8003
  126MOL0     C16522   0.256   3.588   0.797 -0.4010  0.9220  0.0636
  126MOL0     C16523   0.108   3.595   0.788  0.3993 -0.7384  0.3477
  126MOL0     O16524   0.064   3.657   0.914  0.5400  0.0984 -0.2262
  126MOL0     C16525  -0.048   3.735   0.894  0.6269 -0.1580 -0.6792
  126MOL0     C16526  -0.138   3.719   0.780  0.2181 -0.0137  0.0364
  126MOL0     C16527  -0.264   3.784   0.780  0.0528  0.1595 -0.6407
  126MOL0     C16528  -0.300   3.871   0.888  0.3522 -0.8775 -0.4990
  126MOL0     C16529  -0.426   3.948   0.879  0.4781 -0.0854  0.0184
  126MOL0     O16530  -0.468   4.004   0.995 -0.3949  0.3442  0.9564
  126MOL0     C16531  -0.540   4.118   0.977 -1.1169 -0.0941  0.0503
  126MOL0     C16532  -0.481   4.247   0.958 -0.5149 -0.7096  0.9734
  126MOL0     C16533  -0.560   4.353   0.922  0.8911  0.1680 -0.6667
  126MOL0     C16534  -0.695   4.338   0.906 -0.4231 -0.2946  0.1526
  126MOL0     O16535  -0.772   4.448   0.870  0.4329 -0.4259  0.8618
  126MOL0     C16536  -0.874   4.493   0.954 -0.1198  0.1026 -0.3113
  126MOL0     C16537  -1.001   4.537   0.885 -0.6626  0.0591 -0.2454
  126MOL0     C16538  -1.089   4.416   0.847 -0.2312 -0.4250 -0.4699
  126MOL0     C16539  -1.129   4.320   0.971  0.6219 -0.2378 -0.5042
  126MOL0     C16540  -1.192   4.393   1.086 -0.2521  0.8090 -0.1809
  126MOL0     C16541  -1.333   4.441   1.061 -1.1634  0.0132 -0.6110
  126MOL0     C16542  -1.429   4.338   1.008  0.3170  0.2532 -0.3367
  126MOL0     C16543  -1.571   4.393   1.017  0.0367 -0.6750 -0.1242
  126MOL0    Cl16544  -1.627   4.396   1.181 -0.0077  0.2575  0.0543
  126MOL0     C16545  -0.756   4.219   0.919 -0.1574 -0.7122 -0.1177
  126MOL0     C16546  -0.680   4.104   0.957  0.0115  0.4479  0.3189
  126MOL0     O16547  -0.469   3.962   0.767 -0.1926 -0.0430 -0.4142
  126MOL0     C16548  -0.212   3.897   0.994 -0.0406  0.1811 -0.0241
  126MOL0     C16549  -0.088   3.832   0.992 -0.4589 -0.3475 -0.2057
  126MOL0     N16550   0.583   3.360   1.065  0.1077 -0.7369 -0.7196
  126MOL0     N16551   0.629   3.382   1.196 -0.1201 -0.5588  0.5168
  126MOL0     C16552   1.704   3.433   1.068 -0.1939 -0.2444 -0.6580
  126MOL0     C16553   1.827   3.454   1.008 -0.2615 -0.0049 -0.7384
  126MOL0     C16554   2.181   3.493   0.747  0.1557 -0.4918  0.7002
  126MOL0     C16555   2.154   3.611   0.666 -0.3587  0.5523 -0.8557
  126MOL0     C16556   2.256   3.673   0.594 -0.6146 -0.1323 -0.0327
  126MOL0     C16557   2.384   3.625   0.593 -1.1050 -0.4635  0.2443
  126MOL0     O16558   2.485   3.666   0.511  0.2381  0.1554 -0.1037
  126MOL0     C16559   2.460   3.742   0.396 -0.6132 -0.2283 -0.1540
  126MOL0     C16560   2.404   3.646   0.290 -0.8090  0.9759  0.2398
  126MOL0     C16561   2.515   3.546   0.253 -0.1524 -0.0136  0.0756
  126MOL0     C16562   2.463   3.475   0.115 -0.2920  1.2792  0.4439
  126MOL0     C16563   2.469   3.567   0.002  0.3846  0.1223  0.3420
  126MOL0     C16564   2.452   3.656  -0.078 -0.2898 -0.3532  0.0446
  126MOL0     C16565   2.409   3.503   0.661 -0.0196 -0.5113  0.3876
  126MOL0     C16566   2.308   3.435   0.730 -0.9342 -0.4031 -0.6305
  126MOL0     H16567   1.739   3.432   0.680 -2.2777 -0.8904 -0.1340
  126MOL0     H16568   1.521   3.389   0.805  0.5428 -1.8355  0.5272
  126MOL0     H16569   1.475   3.424   1.243 -0.7337 -1.0863  0.9720
  126MOL0     H16570   1.508   3.258   1.198  0.4901  0.6055  1.0134
  126MOL0     H16571   1.290   3.234   1.277  1.4723  4.7562  3.0205
  126MOL0     H16572   1.285   3.230   1.097  1.2952  1.7709 -1.8714
  126MOL0     H16573   1.102   3.360   1.161 -0.4916 -1.2102  0.6049
  126MOL0     H16574   1.219   3.487   1.117  2.4361  0.2678  1.9372
  126MOL0     H16575   1.136   3.404   1.397  0.1744  1.1108  0.2948
  126MOL0     H16576   1.257   3.520   1.355 -0.5406 -1.0942 -0.0555
  126MOL0     H16577   1.088   3.659   1.237  0.5003 -0.5434 -0.6618
  126MOL0     H16578   1.050   3.643   1.403 -1.4757 -0.5741 -1.1573
  126MOL0     H16579   0.901   3.447   1.340  0.1375 -0.0057 -0.1645
  126MOL0     H16580   0.901   3.502   1.178 -1.6770  0.1512  1.2090
  126MOL0     H16581   0.831   3.699   1.397 -0.3988  2.0126 -0.2841
  126MOL0     H16582   0.792   3.719   1.232 -0.0369 -0.0225 -0.4418
  126MOL0     H16583   0.588   3.640   1.382  2.6622  0.8964  4.3191
  126MOL0     H16584   0.679   3.498   1.425 -2.7938 -1.6077 -1.1481
  126MOL0     H16585   0.491   3.662   1.088 -1.7157 -2.3169 -5.1858
  126MOL0     H16586   0.479   3.399   0.831 -3.1257  0.0446 -1.8496
  126MOL0     H16587   0.520   3.582   0.848 -2.6625  0.9000  0.1531
  126MOL0     H16588   0.296   3.537   1.005 -0.0962  1.3849 -0.0720
  126MOL0     H16589   0.266   3.395   0.891  1.5115 -0.6193 -0.4025
  126MOL0     H16590   0.297   3.686   0.822  2.1338  0.1793 -0.9023
  126MOL0     H16591   0.298   3.561   0.700 -2.1998 -0.8243 -0.2871
  126MOL0     H16592   0.072   3.493   0.772  1.7198 -0.9589 -1.4877
  126MOL0     H16593   0.095   3.656   0.698 -1.3631 -1.6153 -0.0334
  126MOL0     H16594  -0.119   3.648   0.701 -0.5601  0.8579 -0.9531
  126MOL0     H16595  -0.336   3.752   0.705 -0.0758 -0.7428 -0.1590
  126MOL0     H16596  -0.378   4.254   0.991 -0.8413 -1.1088  2.1313
  126MOL0     H16597  -0.523   4.455   0.924  0.3793  0.3968 -1.8192
  126MOL0     H16598  -0.826   4.582   0.995 -1.7143  0.2841  1.3180
  126MOL0     H16599  -0.885   4.422   1.037  2.1348 -2.0417 -1.7170
  126MOL0     H16600  -0.965   4.590   0.797  2.2141 -3.0886 -1.1473
  126MOL0     H16601  -1.065   4.608   0.939  0.0198  0.5829 -0.1086
  126MOL0     H16602  -1.037   4.362   0.768 -1.0603  1.8848 -2.7544
  126MOL0     H16603  -1.184   4.448   0.803  0.2367  0.1873 -1.0638
  126MOL0     H16604  -1.193   4.236   0.941 -0.1131  0.3534 -0.6214
  126MOL0     H16605  -1.039   4.269   1.008  0.3538 -1.2791 -1.2455
  126MOL0     H16606  -1.133   4.469   1.138 -2.7117  1.5912  1.6688
  126MOL0     H16607  -1.195   4.319   1.167  0.4837  1.9919  0.9769
  126MOL0     H16608  -1.324   4.525   0.991 -1.4209  0.5785  0.0296
  126MOL0     H16609  -1.375   4.485   1.151  0.2479  0.3439 -0.0897
  126MOL0     H16610  -1.399   4.333   0.903  1.9949  0.7746  0.0859
  126MOL0     H16611  -1.422   4.236   1.047  1.0604 -0.5677 -2.4512
  126MOL0     H16612  -1.641   4.339   0.952 -0.8292  0.5932 -0.2600
  126MOL0     H16613  -1.577   4.499   0.993 -3.1888  0.4299  4.2754
  126MOL0     H16614  -0.863   4.213   0.903 -0.4395  0.9511  0.9203
  126MOL0     H16615  -0.723   4.005   0.964  1.9539 -0.4519  0.1428
  126MOL0     H16616  -0.235   3.970   1.071 -0.3568  2.1662 -1.8893
  126MOL0     H16617  -0.032   3.834   1.085  1.8010  0.5672 -1.4983
  126MOL0     H16618   1.710   3.414   1.175  1.9871  0.5650 -0.5939
  126MOL0     H16619   1.910   3.479   1.073 -1.6623  0.2780  1.0270
  126MOL0     H16620   2.062   3.667   0.673  0.5347  1.9779  0.0814
  126MOL0     H16621   2.233   3.765   0.543 -2.4950 -0.5607 -0.0410
  126MOL0     H16622   2.555   3.794   0.375  0.2008 -0.4368  2.5359
  126MOL0     H16623   2.394   3.824   0.427  1.5365  2.0130 -1.1018
  126MOL0     H16624   2.317   3.594   0.329  2.0187 -2.5840  2.4783
  126MOL0     H16625   2.372   3.706   0.204 -1.8204 -0.8418 -0.7110
  126MOL0     H16626   2.533   3.477   0.335 -0.8827  1.9572  1.9777
  126MOL0     H16627   2.611   3.591   0.227  1.9204 -4.3371 -0.5058
  126MOL0     H16628   2.536   3.395   0.094  0.7699  2.2074  0.5183
  126MOL0     H16629   2.362   3.445   0.144 -0.7869  1.4061 -1.0581
  126MOL0     H16630   2.433   3.739  -0.144  0.8078  0.0092  0.1631
  126MOL0     H16631   2.511   3.466   0.663  0.9570  1.9167  3.8101
  126MOL0     H16632   2.321   3.340   0.780  0.8275  0.3894  0.5004
  127MOL0     O16633   0.463  10.379   2.860  0.4028  0.0299  0.2847
  127MOL0     C16634   0.570  10.355   2.907 -0.5155 -0.8907 -0.7073
  127MOL0     O16635   0.591  10.304   3.037  0.4051  0.1218 -0.3885
  127MOL0     C16636   0.477  10.267   3.102  0.0158  0.1457 -0.2799
  127MOL0     C16637   0.397  10.362   3.172  0.3607  0.4163  0.4689
  127MOL0     C16638   0.285  10.319   3.239 -0.2174  0.3639 -0.2756
  127MOL0     C16639   0.246  10.183   3.250 -0.8052  0.4716 -0.0512
  127MOL0     O16640   0.135  10.155   3.328 -0.1245  0.0143  0.2337
  127MOL0     C16641   0.114  10.028   3.370 -0.2196 -0.5143 -0.9326
  127MOL0     C16642  -0.029  10.029   3.436  0.4256 -0.0890 -0.1768
  127MOL0     C16643  -0.073   9.896   3.483  0.0149  0.3695  0.0177
  127MOL0     C16644  -0.212   9.911   3.550 -0.3675 -0.7306  0.1124
  127MOL0     C16645  -0.288   9.774   3.560  0.0089 -0.0453 -0.6064
  127MOL0     C16646  -0.408   9.796   3.642 -0.5627 -0.2613  0.6681
  127MOL0     C16647  -0.481   9.662   3.652  0.1910  0.1900  0.4877
  127MOL0     C16648  -0.581   9.657   3.766  0.2479 -0.9654  0.1421
  127MOL0     N16649  -0.659   9.529   3.785 -0.4069  0.1201  0.3588
  127MOL0     C16650  -0.781   9.510   3.814  0.2376  0.2318 -0.7474
  127MOL0     C16651  -0.798   9.380   3.832  0.2280  0.4811  0.7093
  127MOL0     C16652  -0.938   9.320   3.865  0.9334  0.0062 -0.9735
  127MOL0     C16653  -0.995   9.275   3.727 -0.6917  0.2897 -0.0296
  127MOL0     C16654  -1.120   9.180   3.748  0.1957  0.0189  0.4043
  127MOL0     C16655  -1.219   9.232   3.841  0.1555 -0.1150  0.5838
  127MOL0     O16656  -1.317   9.303   3.768 -0.4752 -0.4772 -0.4800
  127MOL0     C16657  -1.442   9.281   3.816  0.6097 -0.3513 -0.3437
  127MOL0     C16658  -1.515   9.173   3.775  0.5928 -0.2039 -0.8643
  127MOL0     C16659  -1.656   9.174   3.811  0.2133 -0.2142  0.6074
  127MOL0     C16660  -1.713   9.272   3.900 -0.5937 -0.2948 -0.8176
  127MOL0     C16661  -1.858   9.269   3.944 -0.5691 -0.5619  0.9593
  127MOL0     O16662  -1.943   9.177   3.893  0.1508  0.6347  0.2239
  127MOL0     C16663  -2.071   9.155   3.937  0.1247  0.0070 -0.6476
  127MOL0     C16664  -2.156   9.091   3.852  0.3845 -0.5175 -0.1405
  127MOL0     C16665  -2.288   9.067   3.884  1.2290  1.0269 -0.3001
  127MOL0     C16666  -2.341   9.096   4.009 -1.1742 -0.1228 -0.5896
  127MOL0     O16667  -2.471   9.066   4.030  0.2428  0.2868  0.1289
  127MOL0     C16668  -2.513   9.060   4.162 -0.7983  0.6535 -0.6305
  127MOL0     C16669  -2.663   9.034   4.174 -0.1308 -0.0334 -0.3399
  127MOL0     C16670  -2.753   9.115   4.076  0.4619  0.2212 -0.5325
  127MOL0     C16671  -2.721   9.268   4.084 -0.0323  0.0031 -0.1552
  127MOL0     C16672  -2.794   9.368   3.989 -0.1902  0.1061  0.2124
  127MOL0     C16673  -2.946   9.376   4.016  0.0683  0.0663  0.1723
  127MOL0     C16674  -2.982   9.502   4.095  0.9800 -0.4247  0.2024
  127MOL0     C16675  -3.134   9.503   4.119 -0.6968  0.2018 -0.5671
  127MOL0    Cl16676  -3.237   9.491   3.958  0.1957  0.4872  0.0999
  127MOL0     C16677  -2.249   9.142   4.108 -0.5883  0.1158  0.1619
  127MOL0     C16678  -2.117   9.169   4.072 -0.9577 -0.7561 -0.5811
  127MOL0     O16679  -1.888   9.358   4.023  0.0487 -0.0885  0.4740
  127MOL0     C16680  -1.623   9.367   3.957 -0.1576  0.7052  0.5557
  127MOL0     C16681  -1.499   9.377   3.904 -0.1442 -1.0894 -0.3126
  127MOL0     N16682  -0.684   9.316   3.810  1.0302  0.4142 -0.3347
  127MOL0     N16683  -0.599   9.405   3.779 -0.1010  0.0481 -1.0397
  127MOL0     C16684   0.317  10.086   3.180  0.2490 -0.8444 -0.2621
  127MOL0     C16685   0.435  10.130   3.108 -0.2567 -0.7998  0.7292
  127MOL0     C16686   0.691  10.378   2.817  0.0165  0.5194 -0.7345
  127MOL0     C16687   0.667  10.379   2.680 -0.4973  0.4536  0.1763
  127MOL0     C16688   0.775  10.387   2.591 -0.0068 -0.0087 -0.1067
  127MOL0     C16689   0.906  10.410   2.635  0.1655  0.6937 -0.3701
  127MOL0     O16690   1.006  10.419   2.538 -0.3950 -0.0311 -0.9927
  127MOL0     C16691   1.144  10.426   2.576  0.0542 -0.2413 -0.6130
  127MOL0     C16692   1.228  10.462   2.456 -0.3495  0.4729 -0.4540
  127MOL0     C16693   1.369  10.513   2.494 -0.4526 -0.9218 -0.0279
  127MOL0     C16694   1.469  10.485   2.382 -0.4096 -0.2932 -1.1933
  127MOL0     C16695   1.609  10.458   2.431  0.0061 -0.6245 -0.2072
  127MOL0     C16696   1.723  10.443   2.457 -0.6900  0.4636 -0.2825
  127MOL0     C16697   0.920  10.410   2.778 -0.1201 -0.2200  0.1877
  127MOL0     C16698   0.817  10.385   2.872 -0.8409 -0.1409  0.6766
  127MOL0     H16699   0.419  10.468   3.176 -2.9505  1.3308 -1.3698
  127MOL0     H16700   0.223  10.398   3.279 -0.9609 -0.4398  0.2088
  127MOL0     H16701   0.185  10.005   3.450 -2.3439  2.9756  2.2354
  127MOL0     H16702   0.114   9.961   3.283 -4.1646  0.6160 -1.9816
  127MOL0     H16703  -0.100  10.070   3.364  1.5201  0.1638 -1.1287
  127MOL0     H16704  -0.023  10.097   3.522  2.3729  0.5492 -0.7810
  127MOL0     H16705  -0.005   9.848   3.555  1.0504  0.8589 -0.6031
  127MOL0     H16706  -0.096   9.837   3.394  2.4518  1.3798 -1.3751
  127MOL0     H16707  -0.206   9.958   3.648  1.7740 -0.4679 -0.0995
  127MOL0     H16708  -0.274   9.976   3.488  0.2533 -0.2208  0.0134
  127MOL0     H16709  -0.212   9.710   3.606 -0.2377 -0.1840 -0.3895
  127MOL0     H16710  -0.326   9.736   3.464 -3.7893 -0.0955  0.7516
  127MOL0     H16711  -0.467   9.880   3.604 -2.5601 -2.1217 -0.5723
  127MOL0     H16712  -0.375   9.835   3.739 -0.9827  3.0024 -0.3736
  127MOL0     H16713  -0.526   9.634   3.556  1.9609 -4.2190  0.7620
  127MOL0     H16714  -0.408   9.582   3.660  0.6345  0.3095 -1.7148
  127MOL0     H16715  -0.652   9.740   3.758  2.6260  1.0130 -2.1628
  127MOL0     H16716  -0.528   9.685   3.857 -1.2372 -1.4305  1.1949
  127MOL0     H16717  -0.859   9.583   3.833  1.7474  1.6248  0.4110
  127MOL0     H16718  -1.002   9.396   3.909 -1.6046 -1.0278 -2.6714
  127MOL0     H16719  -0.945   9.246   3.945 -2.7157  2.0397  0.8252
  127MOL0     H16720  -0.931   9.213   3.664 -0.8809 -1.2648  1.2563
  127MOL0     H16721  -1.031   9.366   3.679 -4.2677  0.7571  3.0814
  127MOL0     H16722  -1.163   9.163   3.649 -1.3561 -0.2241  1.0966
  127MOL0     H16723  -1.083   9.084   3.786  0.9029 -0.2472 -0.8630
  127MOL0     H16724  -1.173   9.292   3.920  1.5057  1.2996 -1.1965
  127MOL0     H16725  -1.263   9.142   3.886 -2.3653  0.2827 -0.8740
  127MOL0     H16726  -1.471   9.094   3.716  1.3714  1.7723 -3.1117
  127MOL0     H16727  -1.721   9.095   3.776 -1.4281  0.2057  2.5136
  127MOL0     H16728  -2.119   9.071   3.752 -1.2213 -0.5050 -0.7817
  127MOL0     H16729  -2.341   9.024   3.799  4.2438  2.4981 -3.1952
  127MOL0     H16730  -2.505   9.156   4.215 -0.5270 -0.3229  1.1883
  127MOL0     H16731  -2.456   8.981   4.211 -0.9343 -1.1147 -3.1571
  127MOL0     H16732  -2.684   9.060   4.278  1.4624 -1.2550  0.3254
  127MOL0     H16733  -2.691   8.930   4.155 -0.5646 -0.0066  0.1332
  127MOL0     H16734  -2.854   9.090   4.110  0.4698  0.8204 -0.0584
  127MOL0     H16735  -2.741   9.081   3.973  0.1341 -1.1690 -0.1347
  127MOL0     H16736  -2.728   9.310   4.185  0.6173 -1.3052  0.4446
  127MOL0     H16737  -2.619   9.288   4.049 -0.6503  0.6050 -1.7377
  127MOL0     H16738  -2.783   9.325   3.890  2.7410  1.8706 -0.3348
  127MOL0     H16739  -2.741   9.462   4.007 -1.3507  0.8006  0.1010
  127MOL0     H16740  -2.982   9.278   4.047 -0.8520 -0.8728 -3.3428
  127MOL0     H16741  -2.990   9.381   3.916  2.4418 -1.6140 -1.0406
  127MOL0     H16742  -2.932   9.498   4.192  1.0922  1.4312  0.2532
  127MOL0     H16743  -2.953   9.593   4.042  0.6827 -0.7902 -0.6025
  127MOL0     H16744  -3.171   9.591   4.173 -2.4474 -1.1704  0.5735
  127MOL0     H16745  -3.170   9.423   4.184 -1.7559  1.7513  0.8567
  127MOL0     H16746  -2.271   9.161   4.212  2.3020  3.8235  0.3050
  127MOL0     H16747  -2.055   9.198   4.156  2.8103 -2.0528 -2.6614
  127MOL0     H16748  -1.662   9.443   4.024  0.1549  1.6041 -0.2549
  127MOL0     H16749  -1.430   9.457   3.928 -0.8839 -0.9237  1.3785
  127MOL0     H16750   0.295   9.980   3.186  1.1851 -1.3823 -3.8255
  127MOL0     H16751   0.496  10.057   3.056 -0.7610 -0.7027 -0.0164
  127MOL0     H16752   0.569  10.365   2.635  0.4850 -4.0786 -1.1431
  127MOL0     H16753   0.751  10.378   2.486  1.2886  1.1544 -0.5363
  127MOL0     H16754   1.187  10.343   2.632  2.6287  2.7247  2.2477
  127MOL0     H16755   1.159  10.505   2.650 -1.8375 -0.3274 -0.0763
  127MOL0     H16756   1.227  10.366   2.405 -3.1574 -0.5095  1.2318
  127MOL0     H16757   1.168  10.534   2.399 -0.7821  0.7853  0.3674
  127MOL0     H16758   1.399  10.468   2.589 -3.2422  0.5453  1.6834
  127MOL0     H16759   1.362  10.622   2.501  2.3310 -0.5707 -1.2490
  127MOL0     H16760   1.436  10.397   2.327  2.2173 -1.4810 -1.0063
  127MOL0     H16761   1.458  10.554   2.297 -3.9415 -0.2128 -0.8204
  127MOL0     H16762   1.825  10.425   2.485  0.0208 -2.2067 -3.9173
  127MOL0     H16763   1.021  10.431   2.810  1.2878 -4.5335 -0.7021
  127MOL0     H16764   0.856  10.378   2.973  0.6391 -1.2226  0.0809
  128MOL0     O16765   0.010   5.680   7.926  0.3892  0.9506  0.1137
  128MOL0     C16766  -0.012   5.558   7.931 -0.1751  0.0340 -0.3890
  128MOL0     O16767  -0.140   5.497   7.938  0.1842 -0.2224  0.7886
  128MOL0     C16768  -0.249   5.578   7.963 -0.0049  0.0739 -0.1803
  128MOL0     C16769  -0.259   5.654   8.082 -0.1881 -0.5776 -0.5269
  128MOL0     C16770  -0.382   5.712   8.110  0.0863  0.2455 -0.4261
  128MOL0     C16771  -0.488   5.708   8.027 -0.2614  0.4198  0.5961
  128MOL0     O16772  -0.606   5.777   8.036  0.0658 -0.1329  0.3091
  128MOL0     C16773  -0.637   5.880   8.132  0.2033  0.4524  0.1712
  128MOL0     C16774  -0.763   5.954   8.106  0.8405  0.2759  0.5510
  128MOL0     C16775  -0.762   6.066   7.993 -0.3138 -0.2176  0.0738
  128MOL0     C16776  -0.749   6.016   7.852  0.5043  0.5323  0.3610
  128MOL0     C16777  -0.870   5.947   7.803  0.8698  0.1682 -0.8029
  128MOL0     C16778  -1.003   6.028   7.795 -0.5951 -0.1724 -0.2627
  128MOL0     C16779  -1.009   6.149   7.710  0.0421 -0.5267 -0.0824
  128MOL0     C16780  -1.150   6.206   7.717 -0.3093 -1.1170 -0.3084
  128MOL0     N16781  -1.167   6.351   7.704 -0.7280  0.3675 -0.1852
  128MOL0     C16782  -1.290   6.410   7.698 -0.0789  0.2175  0.1787
  128MOL0     C16783  -1.269   6.538   7.670  0.0960 -0.3528  0.4959
  128MOL0     C16784  -1.376   6.651   7.663 -0.6401  0.0410  0.6693
  128MOL0     C16785  -1.443   6.709   7.791 -0.5529 -0.1279  0.2659
  128MOL0     C16786  -1.509   6.850   7.755  0.6952 -0.4002 -0.1966
  128MOL0     C16787  -1.552   6.920   7.878  0.0288 -0.3737 -0.0008
  128MOL0     O16788  -1.602   7.056   7.852  0.1538 -0.3464  0.3940
  128MOL0     C16789  -1.736   7.083   7.850  0.2849  0.3352  0.5647
  128MOL0     C16790  -1.770   7.211   7.827  0.1008 -0.9750 -0.2311
  128MOL0     C16791  -1.892   7.261   7.809  1.3603  0.2502 -0.2314
  128MOL0     C16792  -2.002   7.176   7.856  0.3165 -0.0815  0.5021
  128MOL0     C16793  -2.142   7.228   7.860  1.0896  0.8562 -0.0296
  128MOL0     O16794  -2.241   7.138   7.894 -0.5823 -0.0965  1.1244
  128MOL0     C16795  -2.377   7.160   7.891 -0.9180 -0.0419  0.9177
  128MOL0     C16796  -2.449   7.272   7.918 -0.2435 -0.3381 -0.4128
  128MOL0     C16797  -2.588   7.272   7.930 -0.2273  0.8123  0.6807
  128MOL0     C16798  -2.658   7.157   7.896 -0.6187 -0.3431  0.5824
  128MOL0     O16799  -2.791   7.181   7.890  0.3265  0.7686  0.8480
  128MOL0     C16800  -2.886   7.078   7.938 -0.5777  0.3196 -0.0517
  128MOL0     C16801  -3.027   7.113   7.882  0.0876  0.9380  0.2307
  128MOL0     C16802  -3.125   7.034   7.970  1.1891  0.6585 -0.1051
  128MOL0     C16803  -3.265   7.079   7.949  1.0944  0.2691 -0.5076
  128MOL0     C16804  -3.353   7.005   8.050  0.4468  0.1123 -0.0146
  128MOL0     C16805  -3.494   7.057   8.048 -0.2317  0.3193 -0.6321
  128MOL0     C16806  -3.581   6.960   8.130 -1.6976 -0.3054 -0.5254
  128MOL0     C16807  -3.722   7.010   8.104 -0.4970 -0.2298  0.1398
  128MOL0    Cl16808  -3.838   6.902   8.184 -0.1287 -0.1473  0.4219
  128MOL0     C16809  -2.591   7.039   7.873 -0.6611  0.5914 -0.4953
  128MOL0     C16810  -2.447   7.038   7.871  0.2213 -0.7133 -0.5571
  128MOL0     O16811  -2.155   7.352   7.856  0.1502 -0.4285  0.4278
  128MOL0     C16812  -1.976   7.045   7.893 -0.6181 -0.3670 -0.3886
  128MOL0     C16813  -1.838   6.998   7.895  0.0199 -0.5036 -0.9136
  128MOL0     N16814  -1.130   6.545   7.625 -0.7416  1.1267  0.4663
  128MOL0     N16815  -1.073   6.430   7.652  0.0353 -0.4046 -0.0092
  128MOL0     C16816  -0.478   5.635   7.910 -0.0230  0.6719 -0.4613
  128MOL0     C16817  -0.358   5.568   7.871 -0.4249 -0.5635 -0.0800
  128MOL0     C16818   0.098   5.462   7.904  0.5278  0.0520  0.1712
  128MOL0     C16819   0.222   5.517   7.879 -0.8774  0.0860  0.1000
  128MOL0     C16820   0.332   5.439   7.855 -0.1725  0.4723  0.4857
  128MOL0     C16821   0.316   5.299   7.837  0.3433  0.2998  0.0000
  128MOL0     O16822   0.427   5.228   7.795  0.0126  0.5136 -0.1455
  128MOL0     C16823   0.440   5.083   7.801  0.5605 -0.7358 -0.1776
  128MOL0     C16824   0.587   5.034   7.807 -0.4462  0.1825  0.1587
  128MOL0     C16825   0.685   5.120   7.724 -0.0431  0.5245 -1.0770
  128MOL0     C16826   0.823   5.078   7.746  1.0179 -0.1352 -0.8808
  128MOL0     C16827   0.876   5.063   7.883 -0.8356  0.7138 -0.0440
  128MOL0     C16828   0.923   5.036   7.990  0.1863  0.2874 -0.3240
  128MOL0     C16829   0.186   5.245   7.849 -0.0050  0.5457  0.2802
  128MOL0     C16830   0.078   5.324   7.878 -0.0758 -0.0592 -0.5838
  128MOL0     H16831  -0.175   5.659   8.150  0.7645  2.9462 -1.7470
  128MOL0     H16832  -0.385   5.776   8.198  2.4113 -0.4717  0.2617
  128MOL0     H16833  -0.556   5.952   8.145 -1.4923  2.2120  1.9408
  128MOL0     H16834  -0.643   5.834   8.231 -1.6164  1.7001  0.7075
  128MOL0     H16835  -0.784   6.009   8.198  1.8372  0.6571  0.5542
  128MOL0     H16836  -0.848   5.885   8.101 -0.0533  1.2263  1.8869
  128MOL0     H16837  -0.673   6.127   8.012  0.2303  0.3030 -3.4601
  128MOL0     H16838  -0.841   6.141   8.003 -0.3941 -0.2128 -0.5902
  128MOL0     H16839  -0.739   6.104   7.787  0.4789  0.9789  0.9576
  128MOL0     H16840  -0.660   5.954   7.836  0.3765  0.7618 -1.4717
  128MOL0     H16841  -0.886   5.854   7.859 -3.2465  1.8589  1.2846
  128MOL0     H16842  -0.861   5.910   7.701 -0.8365  0.8140 -1.2194
  128MOL0     H16843  -1.021   6.067   7.896 -1.0597 -0.3952 -0.2606
  128MOL0     H16844  -1.087   5.966   7.765 -0.2169 -1.2435  0.8248
  128MOL0     H16845  -0.956   6.235   7.752 -1.4013  1.3880 -1.9266
  128MOL0     H16846  -0.984   6.145   7.604  1.0818 -1.3767  0.1925
  128MOL0     H16847  -1.185   6.196   7.820 -1.5076 -1.5529 -0.7434
  128MOL0     H16848  -1.218   6.141   7.661 -0.2695 -3.6718  2.3516
  128MOL0     H16849  -1.388   6.376   7.731 -0.0517 -2.8910 -2.4445
  128MOL0     H16850  -1.463   6.613   7.610 -1.7158  1.6921  1.1860
  128MOL0     H16851  -1.348   6.727   7.589  1.2778 -1.8859 -0.7043
  128MOL0     H16852  -1.373   6.725   7.873  0.4358 -0.7624 -0.4341
  128MOL0     H16853  -1.510   6.630   7.825 -1.8229  1.1626  0.8763
  128MOL0     H16854  -1.439   6.908   7.693 -0.6721  0.9453 -0.5544
  128MOL0     H16855  -1.592   6.844   7.684 -1.4054  2.7026  1.7420
  128MOL0     H16856  -1.461   6.936   7.937 -0.1280 -1.7182  0.6399
  128MOL0     H16857  -1.616   6.861   7.945  1.4727 -0.2430  1.5470
  128MOL0     H16858  -1.689   7.281   7.805  0.5920 -0.2960  3.2407
  128MOL0     H16859  -1.910   7.359   7.766 -0.9508 -0.7292 -1.7029
  128MOL0     H16860  -2.396   7.364   7.938 -1.8188  0.9229 -1.7413
  128MOL0     H16861  -2.645   7.359   7.962 -0.2028  1.9043 -1.9778
  128MOL0     H16862  -2.890   7.083   8.047 -0.5281  2.6673 -0.1057
  128MOL0     H16863  -2.857   6.980   7.898  1.1758  1.1187 -0.8589
  128MOL0     H16864  -3.037   7.086   7.777  0.4902  0.5648  0.2849
  128MOL0     H16865  -3.053   7.219   7.897  0.4870  0.8523  1.7284
  128MOL0     H16866  -3.108   7.046   8.078 -0.0121 -0.7424  0.2745
  128MOL0     H16867  -3.119   6.925   7.956 -2.4572  0.1317  1.1833
  128MOL0     H16868  -3.264   7.184   7.979  0.3015 -0.3332  1.7935
  128MOL0     H16869  -3.293   7.055   7.846 -1.8335 -1.7728  0.6428
  128MOL0     H16870  -3.299   7.018   8.145 -2.4829 -1.0034  1.9547
  128MOL0     H16871  -3.354   6.897   8.032 -0.1683  0.0374  0.4534
  128MOL0     H16872  -3.519   7.065   7.941  1.1962 -1.2596 -1.1330
  128MOL0     H16873  -3.499   7.158   8.088  1.2063  0.3562 -0.5233
  128MOL0     H16874  -3.585   6.855   8.100 -1.6307 -0.5235  0.2136
  128MOL0     H16875  -3.554   6.980   8.234 -0.7657 -0.2665 -0.7648
  128MOL0     H16876  -3.734   7.010   7.995  0.9398  1.8798 -0.0700
  128MOL0     H16877  -3.718   7.111   8.144 -1.6197 -0.0329 -0.2141
  128MOL0     H16878  -2.639   6.946   7.847 -2.1244  1.8232 -2.5050
  128MOL0     H16879  -2.398   6.942   7.863  1.4852 -0.2949  1.3812
  128MOL0     H16880  -2.061   6.988   7.929 -1.1028 -0.5026 -1.6846
  128MOL0     H16881  -1.811   6.902   7.937 -0.3546 -0.5277 -0.7195
  128MOL0     H16882  -0.559   5.602   7.845 -0.9436  0.5759  0.6988
  128MOL0     H16883  -0.354   5.503   7.785  2.6377 -2.7558  1.5089
  128MOL0     H16884   0.236   5.624   7.880 -2.3624  0.3184  1.8056
  128MOL0     H16885   0.428   5.479   7.824 -1.4429  3.4567  0.0487
  128MOL0     H16886   0.393   5.044   7.710  1.7970 -0.7707 -0.8269
  128MOL0     H16887   0.389   5.035   7.885  0.6054 -1.6993 -0.6809
  128MOL0     H16888   0.615   5.045   7.912  1.2513  0.3875 -0.2854
  128MOL0     H16889   0.595   4.930   7.776 -0.8695 -0.2617  1.4768
  128MOL0     H16890   0.679   5.228   7.744  2.1560  0.6213 -0.7470
  128MOL0     H16891   0.656   5.115   7.619  1.3903  1.5115 -1.5493
  128MOL0     H16892   0.827   4.972   7.718  0.5577 -0.3976  0.0293
  128MOL0     H16893   0.888   5.144   7.687 -0.1979  0.6409 -1.4047
  128MOL0     H16894   0.982   5.007   8.074 -4.0314 -0.8835  2.5332
  128MOL0     H16895   0.177   5.136   7.845  1.5003  0.3981  0.4732
  128MOL0     H16896  -0.020   5.283   7.902  0.4454  0.3266  2.5788
  129MOL0     O16897   6.730  10.665   5.560 -0.1704  0.3820  0.2936
  129MOL0     C16898   6.814  10.722   5.491  0.4994 -0.5749 -0.5340
  129MOL0     O16899   6.802  10.842   5.432 -0.0216 -0.2632 -0.2087
  129MOL0     C16900   6.673  10.896   5.441  0.3263  0.3135  0.7758
  129MOL0     C16901   6.567  10.844   5.356 -0.5888 -0.3423 -1.0256
  129MOL0     C16902   6.438  10.910   5.360 -1.0335  0.6543  0.0684
  129MOL0     C16903   6.422  11.019   5.438  0.1468 -0.3093  0.5108
  129MOL0     O16904   6.298  11.076   5.432 -0.1364 -0.8150 -0.0168
  129MOL0     C16905   6.296  11.216   5.471  0.2841  0.5596  0.7399
  129MOL0     C16906   6.152  11.260   5.503 -0.3636 -0.1450  0.7412
  129MOL0     C16907   6.146  11.410   5.547 -0.4312 -0.1667  0.3913
  129MOL0     C16908   6.163  11.507   5.425  0.1785  0.2510  0.2924
  129MOL0     C16909   6.135  11.648   5.467  0.1228 -0.5867  0.1281
  129MOL0     C16910   6.118  11.744   5.338  0.5803 -0.4193  0.0976
  129MOL0     C16911   6.109  11.893   5.371  0.5000  0.8220 -0.9059
  129MOL0     C16912   5.979  11.929   5.453 -0.7302  0.3034  0.0763
  129MOL0     N16913   5.960  12.074   5.464 -0.2417  1.0765 -0.2120
  129MOL0     C16914   5.920  12.153   5.359 -0.0576 -0.8768 -0.5487
  129MOL0     C16915   5.963  12.281   5.387 -0.1232  0.8284 -0.3519
  129MOL0     C16916   5.961  12.394   5.304  0.6420 -0.6221 -0.0869
  129MOL0     C16917   5.830  12.410   5.226  0.4302  0.2116 -0.4213
  129MOL0     C16918   5.846  12.537   5.144  0.7064  0.5072 -0.6931
  129MOL0     C16919   5.727  12.574   5.063 -0.3806  0.0703  0.2695
  129MOL0     O16920   5.650  12.668   5.136  0.1913 -0.0201 -0.3691
  129MOL0     C16921   5.517  12.660   5.117  0.3582  0.3295 -0.1193
  129MOL0     C16922   5.454  12.750   5.037 -0.7974 -0.2542  0.0538
  129MOL0     C16923   5.322  12.747   5.008  0.0749  0.0408  0.3957
  129MOL0     C16924   5.248  12.635   5.045  0.0250  0.3649 -0.4693
  129MOL0     C16925   5.107  12.633   5.019 -0.6821  0.3768 -0.2296
  129MOL0     O16926   5.039  12.547   5.103  0.7621  0.3801  0.0056
  129MOL0     C16927   4.908  12.548   5.089  1.0020  0.5659 -0.5465
  129MOL0     C16928   4.830  12.434   5.053  0.0459  0.0701  0.7784
  129MOL0     C16929   4.689  12.447   5.037 -0.6014  0.2020  0.1581
  129MOL0     C16930   4.621  12.578   5.068 -1.1725  0.1246  0.2518
  129MOL0     O16931   4.493  12.590   5.056  0.7074  0.4555 -0.3283
  129MOL0     C16932   4.434  12.526   4.947 -0.2977 -0.2171  0.8281
  129MOL0     C16933   4.294  12.583   4.937  0.7056  0.0779 -0.7211
  129MOL0     C16934   4.204  12.472   4.872 -0.3791 -0.2389 -0.5892
  129MOL0     C16935   4.055  12.520   4.848 -0.3327  0.0880  0.2607
  129MOL0     C16936   3.965  12.402   4.800 -0.5682  0.2365  0.2211
  129MOL0     C16937   3.826  12.462   4.766 -0.8387 -0.3611  0.3547
  129MOL0     C16938   3.750  12.346   4.716 -0.0947  0.3969  0.2765
  129MOL0     C16939   3.605  12.380   4.670 -0.5163 -0.8985  0.7156
  129MOL0    Cl16940   3.513  12.238   4.624  0.3109  0.3014  0.5239
  129MOL0     C16941   4.707  12.685   5.108  0.1396  0.0474  0.2962
  129MOL0     C16942   4.848  12.668   5.117  0.0247  1.1641 -0.5361
  129MOL0     O16943   5.064  12.706   4.929  0.1519 -0.0712  0.0325
  129MOL0     C16944   5.311  12.537   5.134  0.4541 -0.1706  0.4995
  129MOL0     C16945   5.447  12.558   5.165  0.3147  0.4909  0.1219
  129MOL0     N16946   6.018  12.272   5.523 -0.2910  0.2862  0.3573
  129MOL0     N16947   6.007  12.151   5.557  0.0743  0.3845 -0.3776
  129MOL0     C16948   6.524  11.065   5.529 -0.3248  0.3192  0.8297
  129MOL0     C16949   6.651  11.008   5.518 -0.5742  0.5289 -0.6372
  129MOL0     C16950   6.956  10.667   5.483 -0.4333  0.0300 -0.5431
  129MOL0     C16951   6.987  10.541   5.534  0.0519 -0.1787  0.3876
  129MOL0     C16952   7.107  10.478   5.499  0.1969  0.2886 -0.1430
  129MOL0     C16953   7.215  10.546   5.440  0.4574 -0.2131 -0.1680
  129MOL0     O16954   7.345  10.506   5.423  0.1700  0.3541  0.4067
  129MOL0     C16955   7.389  10.399   5.501 -0.7159 -0.8896  0.2370
  129MOL0     C16956   7.541  10.390   5.475 -0.3447 -0.1577  0.3210
  129MOL0     C16957   7.628  10.500   5.555  0.3929  0.0169 -0.5727
  129MOL0     C16958   7.648  10.469   5.706  0.3402 -0.5729 -0.0596
  129MOL0     C16959   7.640  10.580   5.794 -0.3509 -0.4661 -0.1601
  129MOL0     C16960   7.630  10.674   5.868 -0.5004  0.1375 -0.5916
  129MOL0     C16961   7.187  10.681   5.401 -0.1301  0.7135  0.4706
  129MOL0     C16962   7.062  10.737   5.413  0.2440  0.2193 -0.4426
  129MOL0     H16963   6.583  10.747   5.308  1.3186  0.1295 -1.4176
  129MOL0     H16964   6.360  10.880   5.290 -0.3314  1.6394 -1.1686
  129MOL0     H16965   6.333  11.265   5.381 -0.3933  0.1768  0.2441
  129MOL0     H16966   6.352  11.251   5.558  0.2276 -0.5407  1.2427
  129MOL0     H16967   6.121  11.188   5.579  2.9587 -1.6058  0.9097
  129MOL0     H16968   6.090  11.245   5.413 -0.4926  2.1665  0.3733
  129MOL0     H16969   6.226  11.440   5.615 -1.3986  1.3361  0.9136
  129MOL0     H16970   6.050  11.434   5.594 -0.5782 -1.7673  0.9779
  129MOL0     H16971   6.268  11.501   5.394  0.7717  0.9324  2.0198
  129MOL0     H16972   6.093  11.487   5.343 -0.1293  1.4738  0.2340
  129MOL0     H16973   6.211  11.689   5.534 -0.6347  1.3038 -0.1129
  129MOL0     H16974   6.043  11.645   5.525  0.5893  0.2782  0.9324
  129MOL0     H16975   6.032  11.721   5.275  1.6365  1.0568 -2.0069
  129MOL0     H16976   6.205  11.728   5.273  0.9983  0.3129  0.4683
  129MOL0     H16977   6.199  11.928   5.423  0.2532 -2.2830  1.8824
  129MOL0     H16978   6.111  11.941   5.273  0.3426 -0.6517 -1.6553
  129MOL0     H16979   5.981  11.887   5.554  2.1346 -2.3762 -0.9248
  129MOL0     H16980   5.893  11.892   5.397 -1.1129  0.4362  0.5720
  129MOL0     H16981   5.881  12.135   5.259  0.9447  0.6228 -1.2445
  129MOL0     H16982   6.047  12.380   5.239  1.1559  0.7991  0.2476
  129MOL0     H16983   5.968  12.475   5.378 -3.8105 -1.6919  1.8949
  129MOL0     H16984   5.740  12.403   5.288  2.3171 -0.5464  2.4770
  129MOL0     H16985   5.809  12.326   5.158  2.6772  0.3752 -1.4099
  129MOL0     H16986   5.863  12.619   5.215 -1.4834  0.2415  0.2378
  129MOL0     H16987   5.931  12.514   5.080  2.6561  0.4064  1.7824
  129MOL0     H16988   5.663  12.490   5.034  0.9045 -1.1250  0.7751
  129MOL0     H16989   5.750  12.622   4.967 -1.1528  0.4695  0.2818
  129MOL0     H16990   5.523  12.823   4.995 -1.6125  1.8807  2.1454
  129MOL0     H16991   5.279  12.828   4.950  1.5679 -0.3252 -1.2774
  129MOL0     H16992   4.885  12.347   5.018  1.8790  1.9788 -1.3963
  129MOL0     H16993   4.633  12.358   5.010 -2.8304  1.8659 -1.0537
  129MOL0     H16994   4.430  12.417   4.956 -1.0486 -0.4102 -1.4096
  129MOL0     H16995   4.480  12.541   4.849 -1.9590 -2.3530 -0.3629
  129MOL0     H16996   4.300  12.677   4.882  0.6059  0.2231 -0.4871
  129MOL0     H16997   4.256  12.604   5.038  1.3521  1.0751 -0.6722
  129MOL0     H16998   4.201  12.390   4.944 -3.8825  0.9946  0.8828
  129MOL0     H16999   4.239  12.444   4.772  0.8833  1.5637 -0.7025
  129MOL0     H17000   4.009  12.553   4.942 -2.5773  0.5084 -0.9139
  129MOL0     H17001   4.057  12.600   4.774 -1.7820 -3.0711 -3.5824
  129MOL0     H17002   3.957  12.340   4.890  2.2603  0.6790  0.8698
  129MOL0     H17003   4.011  12.349   4.717  0.1044 -0.4564  1.0161
  129MOL0     H17004   3.831  12.543   4.693 -2.0799 -0.4846  0.1076
  129MOL0     H17005   3.783  12.482   4.865 -2.2000 -1.6456  0.0610
  129MOL0     H17006   3.794  12.310   4.623 -1.0140  0.0847 -0.0484
  129MOL0     H17007   3.753  12.268   4.793  0.2086 -0.8751 -0.9761
  129MOL0     H17008   3.617  12.451   4.587 -4.2874  1.1653  1.7354
  129MOL0     H17009   3.547  12.444   4.736  0.8899 -2.1595  3.3110
  129MOL0     H17010   4.652  12.775   5.130  1.3863  2.5846 -5.3214
  129MOL0     H17011   4.919  12.736   5.163 -0.5717  1.5190 -0.1147
  129MOL0     H17012   5.260  12.451   5.174  2.4707 -1.8143 -0.2896
  129MOL0     H17013   5.491  12.478   5.224 -1.8522  0.1307  1.3816
  129MOL0     H17014   6.517  11.146   5.601  1.7098 -0.4557  1.9473
  129MOL0     H17015   6.728  11.049   5.583 -0.3301 -0.0592 -0.5445
  129MOL0     H17016   6.899  10.492   5.576 -1.3508  1.1105 -0.9472
  129MOL0     H17017   7.127  10.374   5.525  1.0292  0.3633 -0.4458
  129MOL0     H17018   7.340  10.308   5.467  0.8870 -1.2969 -1.0884
  129MOL0     H17019   7.373  10.407   5.609 -1.8412  0.3598  0.0121
  129MOL0     H17020   7.579  10.295   5.515  2.7438 -0.0308 -1.9285
  129MOL0     H17021   7.568  10.398   5.369 -3.7979  1.0536 -0.6001
  129MOL0     H17022   7.587  10.600   5.540 -2.6907 -0.7714  1.5943
  129MOL0     H17023   7.730  10.509   5.516  1.3680 -0.9812  1.5837
  129MOL0     H17024   7.574  10.392   5.730  1.1538 -2.0425 -1.9185
  129MOL0     H17025   7.745  10.423   5.729  0.9337  1.0834  0.8973
  129MOL0     H17026   7.623  10.750   5.943 -1.7309 -2.7740  2.5233
  129MOL0     H17027   7.268  10.733   5.352  0.1466 -1.2879 -1.3787
  129MOL0     H17028   7.042  10.834   5.369  1.8180  0.7381 -0.0696
  130MOL0     O17029   9.333   6.569  10.119  0.1136 -0.8722 -0.7223
  130MOL0     C17030   9.373   6.455  10.128 -0.2971 -0.6775 -0.2364
  130MOL0     O17031   9.290   6.347  10.121 -0.5102  0.9501 -0.2784
  130MOL0     C17032   9.161   6.348  10.081  0.6231 -0.4347 -0.4259
  130MOL0     C17033   9.127   6.253   9.984  0.3231  0.8356  1.0385
  130MOL0     C17034   8.996   6.255   9.931  0.4956 -0.0418  0.2060
  130MOL0     C17035   8.896   6.354   9.974  0.2210 -0.9286 -0.3941
  130MOL0     O17036   8.771   6.332   9.938  0.4250 -0.0471 -0.2539
  130MOL0     C17037   8.675   6.333  10.037  1.0226 -0.9778  0.3042
  130MOL0     C17038   8.554   6.249   9.982 -0.1721  0.8772  0.1484
  130MOL0     C17039   8.438   6.250  10.084 -0.2724 -0.0120 -0.9342
  130MOL0     C17040   8.332   6.146  10.039  0.4528 -0.3089 -0.2280
  130MOL0     C17041   8.213   6.134  10.120  0.3376 -0.1209 -0.0086
  130MOL0     C17042   8.121   6.043  10.035 -0.0373 -0.0347 -0.3891
  130MOL0     C17043   7.980   6.046  10.096 -0.9377 -0.4195 -0.5279
  130MOL0     C17044   7.901   5.919  10.040  0.1744 -0.8812  0.5998
  130MOL0     N17045   7.753   5.948  10.039 -0.7738  0.5876  0.3647
  130MOL0     C17046   7.683   6.001   9.932 -0.0620 -1.6738 -0.7542
  130MOL0     C17047   7.567   6.020   9.995  0.0673  0.2600  0.5774
  130MOL0     C17048   7.455   6.068   9.903 -0.9851 -0.0002 -0.3526
  130MOL0     C17049   7.317   6.054   9.956  0.0321 -0.9751  0.6494
  130MOL0     C17050   7.261   5.910   9.942  1.0954  0.1610 -0.0572
  130MOL0     C17051   7.107   5.915   9.953 -0.1531 -0.2797 -0.1448
  130MOL0     O17052   7.041   5.844   9.846 -0.0586 -0.1276  0.5728
  130MOL0     C17053   6.903   5.838   9.835  0.0843 -0.4505 -1.4012
  130MOL0     C17054   6.842   5.716   9.788  0.2988 -0.5343 -0.0427
  130MOL0     C17055   6.708   5.705   9.777 -0.0650 -0.2978  0.9157
  130MOL0     C17056   6.624   5.811   9.803  1.1818 -0.4953  0.4869
  130MOL0     C17057   6.474   5.798   9.793 -0.0564 -0.8550 -0.0608
  130MOL0     O17058   6.425   5.679   9.769  0.2883 -0.0404  0.1531
  130MOL0     C17059   6.294   5.665   9.762 -0.5662  0.4514 -0.3500
  130MOL0     C17060   6.211   5.725   9.671  0.9360 -0.8577 -0.0881
  130MOL0     C17061   6.068   5.704   9.682 -0.1100 -0.6459  0.4851
  130MOL0     C17062   6.018   5.606   9.765  0.2329 -0.2804  0.8630
  130MOL0     O17063   5.884   5.571   9.764 -0.7001  0.5228  0.2932
  130MOL0     C17064   5.791   5.632   9.674 -0.2484  0.6059  1.1019
  130MOL0     C17065   5.701   5.722   9.764 -0.3415 -0.0522 -0.2495
  130MOL0     C17066   5.556   5.706   9.710 -0.1610  0.3490 -0.0336
  130MOL0     C17067   5.452   5.766   9.800 -0.7451 -0.0698  0.2824
  130MOL0     C17068   5.306   5.752   9.745  0.0266  0.5024 -0.3142
  130MOL0     C17069   5.184   5.772   9.843 -0.3232 -0.2891 -0.0496
  130MOL0     C17070   5.203   5.906   9.922  0.1141 -0.4002 -0.1206
  130MOL0     C17071   5.079   5.934  10.004 -0.3205 -0.1868 -0.0748
  130MOL0    Cl17072   4.957   6.028   9.903  0.1321 -0.3014  0.1100
  130MOL0     C17073   6.103   5.541   9.858 -0.1280 -0.1008  0.7442
  130MOL0     C17074   6.241   5.576   9.859  1.4156  0.5475 -0.1845
  130MOL0     O17075   6.407   5.903   9.825  0.7050  0.7779 -0.0585
  130MOL0     C17076   6.680   5.924   9.862 -1.1581  0.4777  0.1191
  130MOL0     C17077   6.818   5.941   9.878  0.6494 -0.1069  1.2724
  130MOL0     N17078   7.558   6.003  10.130 -0.4279  0.2878  0.1691
  130MOL0     N17079   7.675   5.950  10.155  0.2476 -0.0324 -0.1929
  130MOL0     C17080   8.939   6.450  10.076  0.5744  0.4962  0.1189
  130MOL0     C17081   9.070   6.450  10.125 -0.2469  0.7872 -0.0999
  130MOL0     C17082   9.523   6.434  10.159  0.6184  0.5785 -0.3725
  130MOL0     C17083   9.598   6.348  10.082 -0.3217  0.3783  0.3120
  130MOL0     C17084   9.737   6.334  10.101 -0.4081 -0.3476  0.3926
  130MOL0     C17085   9.803   6.399  10.204  0.4196  0.5313  0.2302
  130MOL0     O17086   9.942   6.382  10.207  0.0357 -0.2880  0.0712
  130MOL0     C17087  10.019   6.399  10.332  0.4673  0.2479  0.4467
  130MOL0     C17088  10.167   6.392  10.320  0.1478  0.4537 -0.5635
  130MOL0     C17089  10.242   6.483  10.414 -0.2589 -0.2909 -0.8509
  130MOL0     C17090  10.391   6.518  10.366 -0.2761 -0.5255  0.4858
  130MOL0     C17091  10.460   6.386  10.365 -0.4498  0.0152 -0.2637
  130MOL0     C17092  10.521   6.279  10.372 -0.1384  0.3255 -0.0611
  130MOL0     C17093   9.730   6.492  10.279 -0.1597  0.2336 -0.2561
  130MOL0     C17094   9.591   6.509  10.259 -0.5657  0.3669  0.1984
  130MOL0     H17095   9.192   6.169   9.964  0.0477  0.0884  3.0547
  130MOL0     H17096   8.961   6.182   9.859 -3.3085  2.9070 -1.3322
  130MOL0     H17097   8.632   6.432  10.056  1.3469 -0.4175 -1.6861
  130MOL0     H17098   8.706   6.283  10.130  1.7779  0.5977  0.9218
  130MOL0     H17099   8.579   6.147   9.952 -1.3357  1.1006 -1.7470
  130MOL0     H17100   8.516   6.302   9.895 -0.7967 -1.0915 -0.8294
  130MOL0     H17101   8.394   6.349  10.103 -2.8897 -1.3125  0.2697
  130MOL0     H17102   8.482   6.227  10.181 -1.4247 -1.7423 -0.7932
  130MOL0     H17103   8.303   6.174   9.937  0.6028  1.5369  0.1915
  130MOL0     H17104   8.378   6.048  10.049  1.8131  0.1675 -1.4419
  130MOL0     H17105   8.159   6.229  10.129  1.3094  0.5369 -0.7864
  130MOL0     H17106   8.238   6.086  10.215 -0.4213 -2.4449 -0.9268
  130MOL0     H17107   8.154   5.939  10.034 -2.1882 -0.7547 -0.5165
  130MOL0     H17108   8.116   6.088   9.935  3.2468  2.1634  0.2528
  130MOL0     H17109   7.981   6.042  10.205  2.1557 -0.4725 -0.4712
  130MOL0     H17110   7.931   6.134  10.053 -2.4428 -1.5573 -1.2308
  130MOL0     H17111   7.918   5.823  10.091 -2.3582 -1.4661  0.4703
  130MOL0     H17112   7.940   5.904   9.939  0.9605  3.2632  0.1153
  130MOL0     H17113   7.706   6.029   9.830 -1.5582  1.6173 -0.3381
  130MOL0     H17114   7.466   6.030   9.801  2.1950 -1.6973  0.4886
  130MOL0     H17115   7.486   6.173   9.895  2.6856 -1.0402 -2.2868
  130MOL0     H17116   7.261   6.125   9.894 -0.2619 -0.2147  1.7601
  130MOL0     H17117   7.327   6.082  10.061  0.9347  1.9295 -0.1381
  130MOL0     H17118   7.293   5.860   9.851  1.0038  0.4336 -0.2401
  130MOL0     H17119   7.294   5.841  10.020  0.0586  0.1699  0.4064
  130MOL0     H17120   7.067   6.017   9.954 -0.1245 -0.2610  1.4783
  130MOL0     H17121   7.084   5.866  10.048  3.7487 -2.2308 -0.0274
  130MOL0     H17122   6.917   5.637   9.781  1.5491  0.7349 -2.1746
  130MOL0     H17123   6.665   5.612   9.739  0.2784 -0.3307  0.6068
  130MOL0     H17124   6.244   5.806   9.607  1.0092 -1.2140 -0.5055
  130MOL0     H17125   6.019   5.769   9.610  2.6416 -1.2975 -2.1924
  130MOL0     H17126   5.738   5.553   9.619  2.0975  0.8114 -1.6868
  130MOL0     H17127   5.835   5.681   9.587  1.4411 -1.2952  0.8078
  130MOL0     H17128   5.733   5.826   9.765 -1.7545  0.4314  2.0178
  130MOL0     H17129   5.705   5.699   9.871 -4.4366 -0.4752 -0.0542
  130MOL0     H17130   5.538   5.598   9.704  1.6911  0.0555 -0.9282
  130MOL0     H17131   5.554   5.759   9.615 -2.2396 -0.4216 -0.4740
  130MOL0     H17132   5.465   5.723   9.900  0.6956 -0.8547 -0.2143
  130MOL0     H17133   5.474   5.873   9.810  1.4078 -0.0108 -3.4116
  130MOL0     H17134   5.289   5.655   9.698  0.9533  0.9456 -1.6328
  130MOL0     H17135   5.293   5.826   9.665 -0.6098 -0.0590 -0.7307
  130MOL0     H17136   5.183   5.687   9.912  2.1944  0.0446  0.5033
  130MOL0     H17137   5.093   5.776   9.783 -0.2083  0.3997 -0.1835
  130MOL0     H17138   5.283   5.901   9.996 -0.6946  3.4113  1.2417
  130MOL0     H17139   5.222   5.986   9.851  1.7883 -2.3801 -2.0550
  130MOL0     H17140   5.112   6.002  10.083  1.0590 -0.1824 -0.6327
  130MOL0     H17141   5.039   5.840  10.045 -4.1495  0.1811 -2.3957
  130MOL0     H17142   6.062   5.469   9.928  1.7680 -3.6065 -1.4231
  130MOL0     H17143   6.306   5.558   9.944  1.5398  2.9610  0.3007
  130MOL0     H17144   6.615   6.009   9.877 -2.3199 -0.3134 -0.2146
  130MOL0     H17145   6.868   6.027   9.921  0.0934  0.2834  1.1481
  130MOL0     H17146   8.871   6.530  10.106  3.8508  3.8048 -0.5278
  130MOL0     H17147   9.106   6.525  10.194  1.6405  1.8571 -2.0908
  130MOL0     H17148   9.561   6.294   9.996  1.5702  1.0446 -0.9694
  130MOL0     H17149   9.791   6.279  10.025 -1.4277  0.4631 -0.9519
  130MOL0     H17150   9.978   6.328  10.405  2.9983 -1.2020  0.6005
  130MOL0     H17151   9.991   6.503  10.349  0.3179 -0.0884  2.6474
  130MOL0     H17152  10.204   6.291  10.339  0.9832  1.2771  3.2599
  130MOL0     H17153  10.193   6.409  10.215 -2.3712 -2.0111 -1.6988
  130MOL0     H17154  10.242   6.435  10.513 -1.9429  1.3251 -0.0147
  130MOL0     H17155  10.181   6.570  10.438 -0.9725 -1.0780  0.3324
  130MOL0     H17156  10.396   6.558  10.264  2.7944 -1.3136  0.2324
  130MOL0     H17157  10.443   6.585  10.435  1.8589  0.6222 -2.0474
  130MOL0     H17158  10.573   6.186  10.372  3.2912  2.0724 -1.7949
  130MOL0     H17159   9.771   6.556  10.357  3.5172 -1.6153 -0.4472
  130MOL0     H17160   9.546   6.580  10.328  1.1989  1.3576  0.3887
  131MOL0     O17161   7.015   4.065   2.169  0.0199  0.0073 -0.6438
  131MOL0     C17162   7.049   4.173   2.214 -0.2613 -1.1345  0.7361
  131MOL0     O17163   6.966   4.264   2.272  0.7775 -0.1902  0.3747
  131MOL0     C17164   6.833   4.231   2.283 -0.0489 -0.9385  0.2911
  131MOL0     C17165   6.794   4.127   2.361 -0.0101  0.7521 -0.1099
  131MOL0     C17166   6.658   4.099   2.379 -0.3972 -0.2745 -0.4313
  131MOL0     C17167   6.563   4.176   2.323  0.4431 -0.2911 -0.4556
  131MOL0     O17168   6.431   4.154   2.370  0.5966 -0.4045  0.2852
  131MOL0     C17169   6.319   4.188   2.288 -0.1895  0.4856 -0.0698
  131MOL0     C17170   6.188   4.154   2.350  0.5746  0.0666  0.0214
  131MOL0     C17171   6.078   4.174   2.235  0.6255  0.6896  0.3724
  131MOL0     C17172   5.934   4.171   2.278  0.3437  0.8156 -0.9743
  131MOL0     C17173   5.875   4.030   2.281  0.0615  0.6131 -0.4157
  131MOL0     C17174   5.735   4.039   2.355 -0.4678  0.8914  0.3624
  131MOL0     C17175   5.656   3.903   2.331  0.8768 -0.3293  0.0912
  131MOL0     C17176   5.627   3.851   2.193 -0.2393 -0.7708  0.1476
  131MOL0     N17177   5.531   3.928   2.111  0.0817 -0.8922 -0.4463
  131MOL0     C17178   5.570   4.036   2.033  0.5894  0.0864 -1.3885
  131MOL0     C17179   5.460   4.093   1.987 -0.1972 -0.2301  0.6615
  131MOL0     C17180   5.458   4.225   1.905 -1.0383  0.8106  0.1362
  131MOL0     C17181   5.314   4.294   1.917  0.3292 -0.8990 -0.1408
  131MOL0     C17182   5.301   4.423   1.837 -0.0363  0.7235 -0.4231
  131MOL0     C17183   5.184   4.506   1.870 -0.2934  0.2158  0.4457
  131MOL0     O17184   5.067   4.428   1.822 -0.5812  0.3817 -0.2725
  131MOL0     C17185   4.948   4.488   1.841  0.0553  0.6852 -0.4525
  131MOL0     C17186   4.932   4.626   1.866  0.1876  0.2528 -0.1004
  131MOL0     C17187   4.805   4.682   1.874 -0.1886  0.7597  0.2391
  131MOL0     C17188   4.693   4.599   1.874  0.6626  0.0435 -0.3100
  131MOL0     C17189   4.562   4.668   1.874 -0.0177  0.3541  0.2315
  131MOL0     O17190   4.553   4.800   1.919 -0.1671  0.6582  0.1585
  131MOL0     C17191   4.429   4.855   1.922 -0.5033 -0.2667 -0.6560
  131MOL0     C17192   4.354   4.861   1.807 -0.1251 -1.0566 -0.0600
  131MOL0     C17193   4.231   4.929   1.806 -0.0812  0.1542 -0.0126
  131MOL0     C17194   4.183   4.999   1.925 -0.8548  0.6818 -0.4158
  131MOL0     O17195   4.066   5.076   1.943 -0.7012 -0.4382  0.0720
  131MOL0     C17196   3.941   5.007   1.924  0.9403 -0.8769 -0.4989
  131MOL0     C17197   3.834   5.117   1.911 -1.5178  0.1493 -0.2853
  131MOL0     C17198   3.691   5.067   1.871  0.9968 -0.1054  0.3130
  131MOL0     C17199   3.602   5.189   1.875 -0.2252  0.3683  0.3160
  131MOL0     C17200   3.462   5.166   1.824  0.5621 -0.2800  0.2561
  131MOL0     C17201   3.392   5.299   1.806  0.3072 -0.2176  0.0800
  131MOL0     C17202   3.236   5.281   1.794 -0.1344  0.2999  0.0525
  131MOL0     C17203   3.161   5.406   1.759 -0.2470  0.4655  0.3198
  131MOL0    Cl17204   2.978   5.381   1.709 -0.0635 -0.1825  0.2654
  131MOL0     C17205   4.263   4.985   2.039 -0.6024  0.2390  1.0450
  131MOL0     C17206   4.378   4.916   2.039  0.0841  0.3293 -0.7983
  131MOL0     O17207   4.464   4.592   1.851  0.5927  0.1105 -0.5332
  131MOL0     C17208   4.707   4.466   1.837 -0.1106 -0.8781 -0.3970
  131MOL0     C17209   4.832   4.406   1.816  0.4741 -0.0670  0.0429
  131MOL0     N17210   5.355   4.017   2.039  0.0418 -0.5626 -0.0637
  131MOL0     N17211   5.401   3.918   2.110 -0.0077  1.3340 -0.1371
  131MOL0     C17212   6.590   4.290   2.246  0.0214 -0.5520 -0.2047
  131MOL0     C17213   6.731   4.314   2.222  0.2695  0.0575 -0.1634
  131MOL0     C17214   7.187   4.198   2.206 -0.1195  0.2151 -0.3827
  131MOL0     C17215   7.284   4.096   2.165 -0.6899  0.1420  0.1942
  131MOL0     C17216   7.427   4.128   2.174  0.0123 -0.2201 -0.6329
  131MOL0     C17217   7.469   4.250   2.218 -0.2057 -0.1733  0.4995
  131MOL0     O17218   7.612   4.275   2.219  0.5959 -0.8230 -1.0488
  131MOL0     C17219   7.659   4.404   2.265 -0.0974 -0.7575  0.6589
  131MOL0     C17220   7.805   4.394   2.292  0.1897  0.1576  0.2184
  131MOL0     C17221   7.856   4.523   2.353  0.3534 -0.0512 -0.5170
  131MOL0     C17222   7.996   4.505   2.406  0.0811 -0.1512 -0.1912
  131MOL0     C17223   8.019   4.445   2.537  0.4296  0.9134 -0.3590
  131MOL0     C17224   8.008   4.383   2.642 -0.1357  0.0631  0.4232
  131MOL0     C17225   7.374   4.359   2.249  0.0187  0.2444  0.0139
  131MOL0     C17226   7.239   4.325   2.244  0.3585  0.6236 -0.2567
  131MOL0     H17227   6.871   4.061   2.400 -1.7514 -2.0958 -1.1675
  131MOL0     H17228   6.629   4.016   2.442  3.0360 -0.8558  0.5893
  131MOL0     H17229   6.332   4.143   2.190 -0.0484  0.9766 -0.2780
  131MOL0     H17230   6.304   4.297   2.283 -2.4296  0.2479  0.4595
  131MOL0     H17231   6.162   4.215   2.436 -1.7499 -0.6733 -0.0870
  131MOL0     H17232   6.190   4.046   2.364  0.5630  0.1545  0.7356
  131MOL0     H17233   6.109   4.099   2.161  3.5595  0.0616  2.0899
  131MOL0     H17234   6.092   4.267   2.180 -3.7736  0.7059 -1.0908
  131MOL0     H17235   5.928   4.209   2.380  2.0120 -1.0848 -0.0943
  131MOL0     H17236   5.874   4.232   2.210 -1.8077 -0.6964 -0.5623
  131MOL0     H17237   5.943   3.964   2.337 -2.4816  0.5754  2.9455
  131MOL0     H17238   5.874   4.008   2.174  1.6277  0.9586 -0.5230
  131MOL0     H17239   5.675   4.122   2.317 -3.2756 -1.8110 -1.5760
  131MOL0     H17240   5.745   4.051   2.464 -1.5590 -0.8417  0.6900
  131MOL0     H17241   5.708   3.833   2.397  0.3398  1.4749  2.5733
  131MOL0     H17242   5.556   3.914   2.375  0.8408  4.5546 -0.6946
  131MOL0     H17243   5.595   3.746   2.200  0.3291 -0.8995  0.8621
  131MOL0     H17244   5.723   3.850   2.141 -0.8930 -1.9699 -1.1130
  131MOL0     H17245   5.673   4.068   2.030 -0.0793  2.6536  0.1733
  131MOL0     H17246   5.468   4.192   1.801 -0.4269  3.8527 -0.8499
  131MOL0     H17247   5.543   4.287   1.937  0.6849 -0.3776 -1.8752
  131MOL0     H17248   5.280   4.301   2.021  2.4599 -0.0745  0.5612
  131MOL0     H17249   5.239   4.225   1.877  1.6441 -2.0514 -0.6841
  131MOL0     H17250   5.393   4.479   1.852  0.8135 -0.6348 -0.4153
  131MOL0     H17251   5.288   4.388   1.734 -3.1760 -5.1484  1.4694
  131MOL0     H17252   5.194   4.601   1.816  1.1967 -1.0418 -1.6048
  131MOL0     H17253   5.176   4.523   1.978  1.0982 -3.0156  1.1583
  131MOL0     H17254   5.023   4.686   1.865  2.1552 -2.5120 -0.5953
  131MOL0     H17255   4.801   4.790   1.885  0.6905  0.7530  0.7296
  131MOL0     H17256   4.387   4.825   1.711  3.4493  1.3280  0.1068
  131MOL0     H17257   4.182   4.937   1.709  2.1784 -0.9715 -1.3308
  131MOL0     H17258   3.919   4.927   1.995  1.0685 -1.7614 -1.4367
  131MOL0     H17259   3.944   4.956   1.827 -1.8984  0.3093 -1.3270
  131MOL0     H17260   3.864   5.193   1.838 -2.5051  0.2301 -0.6213
  131MOL0     H17261   3.840   5.162   2.011  3.3201 -0.8644  0.1386
  131MOL0     H17262   3.664   4.993   1.948 -0.6109  1.1805  1.0279
  131MOL0     H17263   3.694   5.008   1.779 -4.3617 -3.5693  1.8688
  131MOL0     H17264   3.604   5.243   1.971 -2.8367  1.3136 -0.0794
  131MOL0     H17265   3.640   5.268   1.810  2.8713  1.8655  3.5800
  131MOL0     H17266   3.407   5.099   1.890  0.8408 -0.3068  0.4608
  131MOL0     H17267   3.473   5.111   1.730 -0.0558  2.4481 -1.5582
  131MOL0     H17268   3.436   5.341   1.715  1.1467  0.9038  0.9753
  131MOL0     H17269   3.420   5.351   1.898 -3.8126  1.7758  0.4209
  131MOL0     H17270   3.219   5.207   1.714  2.2068 -0.3881  0.1243
  131MOL0     H17271   3.201   5.231   1.885 -0.3159  0.8829  0.3043
  131MOL0     H17272   3.204   5.445   1.667  0.6937  0.7832  0.8718
  131MOL0     H17273   3.168   5.479   1.841 -1.0102 -0.8476  1.6104
  131MOL0     H17274   4.231   5.042   2.125 -1.4730  1.2783  0.0698
  131MOL0     H17275   4.443   4.911   2.126  1.9211  2.5046 -1.9147
  131MOL0     H17276   4.617   4.406   1.846  0.6783 -1.8767  1.4230
  131MOL0     H17277   4.850   4.300   1.803  1.4174  0.3730 -2.9996
  131MOL0     H17278   6.515   4.354   2.201 -1.2976 -1.2914  0.8644
  131MOL0     H17279   6.756   4.398   2.158 -1.8756 -0.9930 -2.5378
  131MOL0     H17280   7.238   4.003   2.133 -1.4387  0.5919 -0.0556
  131MOL0     H17281   7.504   4.063   2.135  0.7436  0.6507 -0.6687
  131MOL0     H17282   7.606   4.434   2.356 -0.9280  0.2181 -0.1304
  131MOL0     H17283   7.643   4.469   2.179  0.0700 -0.4995  0.8227
  131MOL0     H17284   7.811   4.318   2.370 -2.5985 -1.5947 -1.0921
  131MOL0     H17285   7.859   4.361   2.203 -1.1274 -2.8804  0.4177
  131MOL0     H17286   7.800   4.564   2.438  2.1389 -0.3481  0.8704
  131MOL0     H17287   7.860   4.591   2.267 -2.3410 -1.5374 -1.9484
  131MOL0     H17288   8.056   4.453   2.331  0.2691 -4.6863  2.7173
  131MOL0     H17289   8.026   4.609   2.418 -2.5932  0.7419 -0.5933
  131MOL0     H17290   7.996   4.336   2.737 -1.8690 -0.8879 -0.2238
  131MOL0     H17291   7.401   4.464   2.261 -0.8806  1.0317 -3.7628
  131MOL0     H17292   7.160   4.391   2.278 -1.7683 -2.9646  2.4674
  132MOL0     O17293   3.398   2.161   3.349 -0.0108 -0.1852  0.4565
  132MOL0     C17294   3.493   2.150   3.278 -0.1777 -0.6775 -0.2165
  132MOL0     O17295   3.486   2.148   3.141 -0.0979 -0.2281  0.9731
  132MOL0     C17296   3.368   2.184   3.063 -0.2041 -0.4351  0.1641
  132MOL0     C17297   3.343   2.125   2.934  0.2090  0.1935  0.1561
  132MOL0     C17298   3.231   2.161   2.859 -0.4311  0.5668  0.1406
  132MOL0     C17299   3.126   2.240   2.912 -0.1934 -0.2071 -0.2103
  132MOL0     O17300   3.022   2.284   2.839  0.0662  0.3473  0.0813
  132MOL0     C17301   3.004   2.241   2.704 -0.4947 -0.5890  0.3542
  132MOL0     C17302   2.902   2.334   2.644  0.2882  0.6753 -0.7385
  132MOL0     C17303   2.751   2.307   2.677 -0.6444 -0.5292  0.4485
  132MOL0     C17304   2.664   2.368   2.567 -0.2092  0.3820  0.0718
  132MOL0     C17305   2.520   2.378   2.606  0.0619 -0.3089 -0.4387
  132MOL0     C17306   2.489   2.519   2.666 -0.3252  0.5114 -0.0921
  132MOL0     C17307   2.341   2.534   2.691 -1.0903  0.7010 -0.2347
  132MOL0     C17308   2.308   2.547   2.842  1.0662 -0.1436  0.2406
  132MOL0     N17309   2.354   2.673   2.900  0.3404  0.1550 -0.4785
  132MOL0     C17310   2.453   2.669   3.002 -0.1611  0.2302 -0.7791
  132MOL0     C17311   2.491   2.788   3.012 -0.7165 -0.8387  0.4897
  132MOL0     C17312   2.612   2.845   3.098  0.9610  0.3325 -0.0845
  132MOL0     C17313   2.734   2.752   3.068  0.2783  0.5353 -0.1190
  132MOL0     C17314   2.852   2.820   3.157  0.5239 -0.7703  0.1439
  132MOL0     C17315   2.975   2.741   3.130  0.1249  0.9259  0.0413
  132MOL0     O17316   3.019   2.779   2.997 -0.4827 -0.6874  0.1324
  132MOL0     C17317   3.116   2.704   2.936 -0.2838  0.4225 -0.6299
  132MOL0     C17318   3.095   2.677   2.805 -0.4748  0.1704 -1.0296
  132MOL0     C17319   3.185   2.595   2.737 -0.0886  0.5892 -0.1340
  132MOL0     C17320   3.305   2.544   2.801  0.0818  0.1263 -0.4636
  132MOL0     C17321   3.404   2.456   2.738  1.8118  0.0309 -0.3352
  132MOL0     O17322   3.495   2.405   2.824  0.3872 -0.2194  0.6550
  132MOL0     C17323   3.601   2.329   2.779  0.4393 -0.6883  0.3299
  132MOL0     C17324   3.726   2.369   2.807 -0.1832 -0.4290 -0.0923
  132MOL0     C17325   3.832   2.299   2.767  0.1244 -0.0657 -0.2118
  132MOL0     C17326   3.813   2.184   2.687  0.0687 -0.9391 -1.0536
  132MOL0     O17327   3.924   2.126   2.654  0.2193  0.7213  0.7601
  132MOL0     C17328   3.916   1.980   2.664  0.2984 -0.4162  0.7086
  132MOL0     C17329   4.060   1.927   2.633  0.0747  0.0981 -0.2796
  132MOL0     C17330   4.158   1.967   2.749 -0.7370  0.3222 -0.5434
  132MOL0     C17331   4.308   1.943   2.701  0.1230  0.9996  0.0152
  132MOL0     C17332   4.400   1.953   2.825 -0.1111 -0.4240  0.2102
  132MOL0     C17333   4.389   1.835   2.928  0.0849  0.4246 -0.2179
  132MOL0     C17334   4.509   1.813   3.021 -0.5521  0.3707  0.2352
  132MOL0     C17335   4.515   1.907   3.140 -0.5443 -0.1950 -0.0826
  132MOL0    Cl17336   4.664   1.892   3.240 -0.1327  0.3678  0.2358
  132MOL0     C17337   3.681   2.146   2.655 -0.1003 -0.0957  0.3865
  132MOL0     C17338   3.575   2.216   2.695  0.7950 -0.3001 -0.7275
  132MOL0     O17339   3.400   2.437   2.620 -0.0040  0.4518  0.3092
  132MOL0     C17340   3.313   2.564   2.944  0.5131  0.5247  0.9300
  132MOL0     C17341   3.218   2.643   3.008  0.3522  0.5563  0.6902
  132MOL0     N17342   2.412   2.874   2.942 -0.1292  0.2673  0.3901
  132MOL0     N17343   2.335   2.805   2.863  0.2501 -0.0263  0.3602
  132MOL0     C17344   3.140   2.285   3.044  0.8322 -0.0866 -0.3000
  132MOL0     C17345   3.268   2.265   3.110 -0.1577 -0.1674 -0.9688
  132MOL0     C17346   3.630   2.131   3.335 -0.3150 -0.6416  0.1120
  132MOL0     C17347   3.735   2.190   3.265  0.2713  0.6916 -0.1369
  132MOL0     C17348   3.862   2.187   3.320 -0.3884 -0.7107  0.6884
  132MOL0     C17349   3.894   2.123   3.437 -0.7560  0.0357 -0.0061
  132MOL0     O17350   4.024   2.125   3.478  0.0055  0.0503 -0.1433
  132MOL0     C17351   4.044   2.096   3.620 -0.1719  0.0531  1.3244
  132MOL0     C17352   4.159   2.183   3.671  0.5864 -0.6426  0.4517
  132MOL0     C17353   4.152   2.336   3.625 -0.1592 -0.5357  1.0981
  132MOL0     C17354   4.290   2.377   3.591 -0.2481  0.2930 -0.1012
  132MOL0     C17355   4.348   2.311   3.477 -0.0421  1.4522 -0.0032
  132MOL0     C17356   4.383   2.249   3.376 -0.5902  0.2355  0.2952
  132MOL0     C17357   3.789   2.055   3.504 -0.6500  0.7984  0.4025
  132MOL0     C17358   3.661   2.064   3.458 -0.5291 -0.0553 -0.8336
  132MOL0     H17359   3.425   2.073   2.885  2.6430  3.0460  0.9309
  132MOL0     H17360   3.224   2.128   2.756 -1.7356 -2.6073  1.1194
  132MOL0     H17361   2.985   2.134   2.691  3.9742 -1.3294 -2.3698
  132MOL0     H17362   3.092   2.252   2.640 -1.8516 -2.0864 -1.9231
  132MOL0     H17363   2.909   2.324   2.535 -1.3461  3.1835 -1.1708
  132MOL0     H17364   2.927   2.440   2.655 -1.5414  1.0952 -0.2787
  132MOL0     H17365   2.738   2.348   2.778  1.6945  0.8181  0.2789
  132MOL0     H17366   2.745   2.198   2.677  1.1469 -0.7618 -2.7639
  132MOL0     H17367   2.718   2.454   2.525  3.8805 -1.7165  0.5170
  132MOL0     H17368   2.665   2.294   2.487  1.8639  0.5856 -0.1521
  132MOL0     H17369   2.497   2.311   2.689 -0.8349 -1.5826 -1.6646
  132MOL0     H17370   2.457   2.360   2.518 -0.6529 -1.4063  0.2769
  132MOL0     H17371   2.525   2.597   2.597  1.2524 -0.3014 -0.2435
  132MOL0     H17372   2.542   2.536   2.761  1.7324 -1.3883 -0.8071
  132MOL0     H17373   2.307   2.619   2.631 -2.5606  0.4403  0.2032
  132MOL0     H17374   2.279   2.448   2.665  1.3258 -0.3367 -3.2388
  132MOL0     H17375   2.341   2.458   2.896 -1.3555 -0.3591  1.5126
  132MOL0     H17376   2.198   2.545   2.841  1.0702 -0.6899 -0.6613
  132MOL0     H17377   2.491   2.584   3.057 -3.2654 -0.0201  1.2480
  132MOL0     H17378   2.591   2.838   3.205 -1.4397  2.0604 -0.3664
  132MOL0     H17379   2.637   2.947   3.067  1.8796  0.6728  1.6457
  132MOL0     H17380   2.750   2.747   2.960 -2.3381 -0.1346 -0.5453
  132MOL0     H17381   2.711   2.652   3.104 -3.2959  2.2361  3.1173
  132MOL0     H17382   2.863   2.924   3.125 -1.9949 -0.3192  0.5295
  132MOL0     H17383   2.830   2.814   3.264 -0.4580  0.4434  0.0345
  132MOL0     H17384   2.954   2.634   3.133 -0.1337  0.8971 -1.8199
  132MOL0     H17385   3.048   2.751   3.211  0.3659 -3.7819  0.6923
  132MOL0     H17386   3.011   2.719   2.749 -0.3248 -1.5501 -2.6311
  132MOL0     H17387   3.164   2.571   2.633 -0.9611 -2.5318  0.6588
  132MOL0     H17388   3.736   2.458   2.868 -0.0676 -1.9453  2.2293
  132MOL0     H17389   3.925   2.339   2.806  0.1115  1.5601 -1.7223
  132MOL0     H17390   3.859   1.938   2.581  3.4739  0.5551 -2.2053
  132MOL0     H17391   3.902   1.944   2.766 -0.1793  1.8789  1.5181
  132MOL0     H17392   4.104   1.962   2.540  0.0956 -0.8963 -0.6567
  132MOL0     H17393   4.072   1.819   2.627  3.1937  0.2103  1.7173
  132MOL0     H17394   4.145   1.906   2.839 -0.6923  0.2648 -0.5756
  132MOL0     H17395   4.157   2.071   2.783  0.9622  0.3259 -0.4481
  132MOL0     H17396   4.325   1.841   2.666  0.9559  0.7902  1.0021
  132MOL0     H17397   4.336   2.006   2.616  1.9554 -1.2568 -1.1746
  132MOL0     H17398   4.377   2.050   2.871 -2.5691  0.0903 -1.8894
  132MOL0     H17399   4.501   1.955   2.783 -1.4089  2.1423 -3.3363
  132MOL0     H17400   4.382   1.751   2.858 -2.9095  2.8046 -3.0744
  132MOL0     H17401   4.301   1.839   2.992 -0.8697 -2.4325 -1.2327
  132MOL0     H17402   4.522   1.708   3.047  0.8495  0.0826 -1.4401
  132MOL0     H17403   4.595   1.824   2.954 -2.8627 -1.5128 -3.4320
  132MOL0     H17404   4.425   1.890   3.198 -0.6786  2.4496  0.6357
  132MOL0     H17405   4.518   2.014   3.114 -2.5574 -0.9729 -4.4196
  132MOL0     H17406   3.658   2.082   2.570  0.4478  0.4447 -0.1831
  132MOL0     H17407   3.470   2.214   2.666  0.2522  4.7837 -0.0233
  132MOL0     H17408   3.392   2.511   2.997  0.7208 -0.8282 -0.6489
  132MOL0     H17409   3.228   2.661   3.114  1.1184 -1.3533  0.9869
  132MOL0     H17410   3.081   2.356   3.101 -0.3792 -0.6826 -0.7784
  132MOL0     H17411   3.265   2.310   3.208 -1.7646  0.6422 -1.3495
  132MOL0     H17412   3.716   2.241   3.171 -1.3787 -0.6333 -0.5724
  132MOL0     H17413   3.938   2.243   3.266 -1.4707  0.3982  0.2708
  132MOL0     H17414   4.065   1.990   3.606  0.4786  0.5959 -4.2741
  132MOL0     H17415   3.953   2.103   3.681 -1.1920 -3.7385  0.5146
  132MOL0     H17416   4.138   2.189   3.779  0.4815  1.2547  0.3695
  132MOL0     H17417   4.258   2.142   3.652  1.3742  0.2837  2.2358
  132MOL0     H17418   4.098   2.393   3.701 -3.2268 -1.0357 -0.5390
  132MOL0     H17419   4.086   2.352   3.539  1.0618  0.9680  0.3808
  132MOL0     H17420   4.296   2.486   3.583 -1.6721  0.3211 -1.1534
  132MOL0     H17421   4.356   2.369   3.678 -0.7899  3.7854  0.7927
  132MOL0     H17422   4.411   2.182   3.298  0.2282 -0.1029  0.8571
  132MOL0     H17423   3.811   1.989   3.588 -0.8122 -0.5601 -0.5871
  132MOL0     H17424   3.580   2.007   3.503  0.9655 -0.8125  1.0320
  133MOL0     O17425   6.967   8.200   7.141  0.3875 -0.1401  0.0653
  133MOL0     C17426   6.978   8.081   7.108 -0.1522  0.3042  1.2251
  133MOL0     O17427   6.882   7.982   7.127 -0.7440  0.1927 -0.1648
  133MOL0     C17428   6.765   7.999   7.185 -0.3491 -0.3403 -0.2018
  133MOL0     C17429   6.747   7.965   7.316 -1.0035  0.3716 -0.3220
  133MOL0     C17430   6.626   7.998   7.377 -0.2074 -0.1395  0.2403
  133MOL0     C17431   6.527   8.079   7.319  0.5482  0.1253  0.6123
  133MOL0     O17432   6.414   8.126   7.389 -0.0731  0.8123 -0.3667
  133MOL0     C17433   6.290   8.078   7.337  0.1832  0.2519  0.4403
  133MOL0     C17434   6.176   8.116   7.427  0.0496 -0.8175  0.1077
  133MOL0     C17435   6.034   8.096   7.374  0.6545 -0.2214 -0.2231
  133MOL0     C17436   5.938   8.139   7.488  0.6172 -0.5203  0.1064
  133MOL0     C17437   5.792   8.129   7.433  0.0384  1.0507  0.0142
  133MOL0     C17438   5.701   8.154   7.554 -0.2988  0.3336  0.5527
  133MOL0     C17439   5.553   8.148   7.517  0.2550 -0.3038  0.0406
  133MOL0     C17440   5.513   8.027   7.433 -0.2638  0.1656  0.2321
  133MOL0     N17441   5.374   7.997   7.443 -0.1611 -0.4375 -0.1863
  133MOL0     C17442   5.286   7.983   7.342 -0.2846  0.9512 -0.6613
  133MOL0     C17443   5.208   7.871   7.379 -0.4093  0.2392  0.4173
  133MOL0     C17444   5.104   7.804   7.296 -0.0944  0.7810  0.3332
  133MOL0     C17445   4.991   7.743   7.378  0.7266 -0.2746 -0.2898
  133MOL0     C17446   4.952   7.621   7.293  0.2759 -0.8858  0.0654
  133MOL0     C17447   4.831   7.546   7.353 -0.7679 -0.3904  0.0831
  133MOL0     O17448   4.713   7.631   7.370  0.7592 -0.3462 -0.1077
  133MOL0     C17449   4.596   7.582   7.332  0.5337  0.7490 -0.4865
  133MOL0     C17450   4.493   7.636   7.399  0.1484  0.2352 -0.4425
  133MOL0     C17451   4.364   7.603   7.366 -0.2268  0.5085  0.5172
  133MOL0     C17452   4.339   7.520   7.250 -0.8511 -1.1102 -0.0449
  133MOL0     C17453   4.198   7.514   7.191  0.0004 -0.3330 -0.2162
  133MOL0     O17454   4.093   7.555   7.267  0.2503 -0.3706 -0.5692
  133MOL0     C17455   3.965   7.531   7.223  0.4626 -0.3132 -0.5525
  133MOL0     C17456   3.884   7.454   7.297 -0.1625  0.6897 -0.3148
  133MOL0     C17457   3.749   7.431   7.248  0.8453  0.6721 -0.6302
  133MOL0     C17458   3.686   7.495   7.143  0.2089  0.4672 -0.2922
  133MOL0     O17459   3.557   7.483   7.107 -0.0956  0.3201 -0.5370
  133MOL0     C17460   3.538   7.415   6.980  0.8725 -1.0986  0.6219
  133MOL0     C17461   3.386   7.403   6.964  0.2217  0.3669  0.1104
  133MOL0     C17462   3.308   7.528   7.007 -0.0916  0.0850 -0.4019
  133MOL0     C17463   3.151   7.513   7.022  0.1796  0.2586  0.0461
  133MOL0     C17464   3.110   7.656   7.054  0.0293 -0.4436  0.1439
  133MOL0     C17465   2.961   7.663   7.065  0.6700 -0.4071 -0.2104
  133MOL0     C17466   2.926   7.748   7.191  0.1905  0.2430  0.7669
  133MOL0     C17467   2.784   7.806   7.185  0.6982  1.6379 -0.1591
  133MOL0    Cl17468   2.770   7.931   7.067  0.3821  0.0452 -0.0052
  133MOL0     C17469   3.774   7.571   7.067 -0.6016  0.5517 -0.2534
  133MOL0     C17470   3.907   7.590   7.111  0.9269  0.0190  0.0279
  133MOL0     O17471   4.184   7.462   7.073  0.0397  0.7175 -0.3037
  133MOL0     C17472   4.448   7.467   7.182  0.6051 -0.6613  0.2015
  133MOL0     C17473   4.578   7.493   7.226 -0.4694  0.1873  0.5809
  133MOL0     N17474   5.241   7.828   7.506 -0.2761  0.0572 -0.2426
  133MOL0     N17475   5.342   7.898   7.537 -0.1251  0.6361  0.1317
  133MOL0     C17476   6.547   8.112   7.180  0.3419  0.0292  0.6198
  133MOL0     C17477   6.666   8.069   7.116 -0.8844 -0.2554  0.3639
  133MOL0     C17478   7.106   8.036   7.054 -0.3898 -0.0575  0.1690
  133MOL0     C17479   7.125   7.903   6.997  0.8604 -0.0676  0.1928
  133MOL0     C17480   7.243   7.862   6.937  1.1416 -1.0619  0.7269
  133MOL0     C17481   7.357   7.952   6.948  0.0640 -0.3156 -0.0337
  133MOL0     O17482   7.483   7.936   6.896 -0.1524 -0.7785 -0.4450
  133MOL0     C17483   7.532   7.825   6.826  0.0712 -0.1443 -0.2047
  133MOL0     C17484   7.638   7.748   6.902 -0.2114 -0.7358  0.1485
  133MOL0     C17485   7.584   7.601   6.934  0.5175 -0.0994 -1.0144
  133MOL0     C17486   7.578   7.518   6.802  0.7950 -0.0191 -0.4259
  133MOL0     C17487   7.705   7.445   6.768 -1.2196  0.1295 -0.3759
  133MOL0     C17488   7.810   7.387   6.732 -0.1353  0.0263  0.0747
  133MOL0     C17489   7.341   8.086   7.006  0.3619  0.5685  1.0991
  133MOL0     C17490   7.214   8.128   7.048 -0.8205  0.2909 -1.0189
  133MOL0     H17491   6.804   7.905   7.386 -2.2970 -0.4838  0.0396
  133MOL0     H17492   6.601   7.975   7.480 -0.1435  0.9803  0.5195
  133MOL0     H17493   6.285   7.969   7.329  2.6177 -0.1061  2.3534
  133MOL0     H17494   6.284   8.121   7.237  0.8200  3.5541  1.7205
  133MOL0     H17495   6.173   8.220   7.462  1.9970 -1.0579  1.1572
  133MOL0     H17496   6.206   8.063   7.518  1.2397  1.3657  1.0683
  133MOL0     H17497   6.027   7.991   7.343  1.0827  0.5973 -3.5446
  133MOL0     H17498   6.027   8.163   7.288 -2.6063 -1.5470 -1.1877
  133MOL0     H17499   5.936   8.080   7.580 -1.1453  0.9318  1.0755
  133MOL0     H17500   5.946   8.246   7.508 -0.4532 -0.1613 -1.2146
  133MOL0     H17501   5.773   8.031   7.388 -1.2234  3.1332 -4.5633
  133MOL0     H17502   5.779   8.196   7.348 -1.3735 -0.9994 -1.4823
  133MOL0     H17503   5.734   8.244   7.606  0.0125  1.6455 -1.7829
  133MOL0     H17504   5.725   8.065   7.612 -1.8708  0.0515  0.8245
  133MOL0     H17505   5.487   8.147   7.604  0.4580 -2.3067  0.2267
  133MOL0     H17506   5.524   8.234   7.457 -0.7927 -1.4167 -1.1078
  133MOL0     H17507   5.561   7.937   7.472 -3.6140 -2.8023 -1.8736
  133MOL0     H17508   5.538   8.038   7.327 -0.3166 -0.8489  0.1072
  133MOL0     H17509   5.297   8.040   7.250  1.3543  0.4936 -0.7828
  133MOL0     H17510   5.154   7.728   7.235  1.6705  2.4766 -0.4031
  133MOL0     H17511   5.067   7.868   7.217 -0.5752 -0.4202 -0.4446
  133MOL0     H17512   4.914   7.820   7.393  1.6169  0.4487  0.7791
  133MOL0     H17513   5.032   7.724   7.478 -0.5405 -1.1291  0.0878
  133MOL0     H17514   4.924   7.657   7.194  0.5006 -0.6710  0.0822
  133MOL0     H17515   5.037   7.554   7.281  2.4048  1.7347 -0.3369
  133MOL0     H17516   4.857   7.511   7.453  0.7528  1.1234  0.2666
  133MOL0     H17517   4.828   7.472   7.272 -1.3923  3.0214 -3.2994
  133MOL0     H17518   4.514   7.692   7.489 -2.9963  1.4442 -0.3599
  133MOL0     H17519   4.281   7.649   7.420  0.5526  3.2322 -0.4260
  133MOL0     H17520   3.920   7.407   7.388  1.2606  1.2626 -0.5543
  133MOL0     H17521   3.682   7.378   7.315  2.4662  1.9308  2.1392
  133MOL0     H17522   3.588   7.318   6.977  1.4328 -0.7907 -0.0492
  133MOL0     H17523   3.575   7.472   6.895 -1.8103 -0.2271 -0.0539
  133MOL0     H17524   3.363   7.316   7.026 -0.2878 -0.7060 -1.5361
  133MOL0     H17525   3.363   7.383   6.859  1.3350  2.0639 -0.5047
  133MOL0     H17526   3.325   7.600   6.927  1.1015  1.5293  1.0927
  133MOL0     H17527   3.338   7.569   7.104 -0.3791  1.8182 -1.0154
  133MOL0     H17528   3.104   7.470   6.933  0.8143  3.0256 -1.7711
  133MOL0     H17529   3.105   7.451   7.100 -0.7615  1.0663  0.1527
  133MOL0     H17530   3.148   7.727   6.980  2.1594  0.0862  1.6714
  133MOL0     H17531   3.161   7.676   7.149 -0.1557 -1.2161  0.4118
  133MOL0     H17532   2.922   7.561   7.075 -1.0195  0.3362  1.4244
  133MOL0     H17533   2.923   7.706   6.972  0.5175 -1.5083 -0.6737
  133MOL0     H17534   2.933   7.691   7.285  0.0417  3.0774  2.6300
  133MOL0     H17535   3.001   7.827   7.196  2.0270 -1.2164 -1.6737
  133MOL0     H17536   2.767   7.852   7.282  2.8780  0.8483  0.6816
  133MOL0     H17537   2.731   7.712   7.167 -0.7885  1.6508  3.3290
  133MOL0     H17538   3.735   7.613   6.975 -2.2646  0.0078  0.1827
  133MOL0     H17539   3.973   7.662   7.064  3.0503 -2.6136 -1.3627
  133MOL0     H17540   4.434   7.402   7.096  0.9439 -1.3430  0.6508
  133MOL0     H17541   4.658   7.448   7.167 -3.7361 -3.4540 -1.4977
  133MOL0     H17542   6.467   8.162   7.127  2.4030  1.3708 -1.4367
  133MOL0     H17543   6.685   8.089   7.011  1.0007 -0.7134  0.5963
  133MOL0     H17544   7.035   7.842   6.990 -0.5315  1.8807  0.2349
  133MOL0     H17545   7.229   7.764   6.894 -2.7913 -0.2950 -0.1322
  133MOL0     H17546   7.567   7.850   6.725 -4.5430  0.5787 -1.8387
  133MOL0     H17547   7.435   7.776   6.812  0.1159 -0.1018 -0.6829
  133MOL0     H17548   7.724   7.744   6.835  1.3765  1.5358  1.8841
  133MOL0     H17549   7.671   7.814   6.983  0.4933 -0.9002 -0.0030
  133MOL0     H17550   7.480   7.610   6.969  0.9520 -0.4107  0.4205
  133MOL0     H17551   7.649   7.553   7.007 -1.3390  0.9762  1.4916
  133MOL0     H17552   7.499   7.442   6.805  0.1972  0.5862 -0.7114
  133MOL0     H17553   7.542   7.587   6.726 -0.2515  0.2511  0.2959
  133MOL0     H17554   7.899   7.339   6.695  0.5671 -0.0317  1.7387
  133MOL0     H17555   7.419   8.161   7.012  1.3896 -0.5786  3.3209
  133MOL0     H17556   7.198   8.226   7.091  0.3526 -0.1430  0.5107
  134MOL0     O17557   0.465   5.732   7.712 -0.1924  0.0151  0.7060
  134MOL0     C17558   0.429   5.819   7.627  0.1194 -0.2434 -0.2125
  134MOL0     O17559   0.511   5.917   7.572 -0.6798  0.1310 -0.4888
  134MOL0     C17560   0.647   5.894   7.579  0.2003  0.9967 -0.0974
  134MOL0     C17561   0.717   5.876   7.704 -0.1444 -0.0501  0.8438
  134MOL0     C17562   0.860   5.855   7.696 -0.0162  0.7416  0.4308
  134MOL0     C17563   0.932   5.864   7.577  0.6278  0.0785 -0.7921
  134MOL0     O17564   1.060   5.839   7.565 -0.6549 -0.4838 -0.8239
  134MOL0     C17565   1.145   5.959   7.579  0.1229 -0.4921 -0.6251
  134MOL0     C17566   1.263   5.970   7.484  0.0530  0.1933  0.1299
  134MOL0     C17567   1.351   5.848   7.483  0.2870  0.0693  0.0845
  134MOL0     C17568   1.477   5.878   7.385  0.6142  1.5187 -0.6867
  134MOL0     C17569   1.571   5.761   7.381 -0.0677 -0.7986 -0.3755
  134MOL0     C17570   1.690   5.783   7.281 -0.9426 -0.2657 -0.7719
  134MOL0     C17571   1.790   5.662   7.276  0.1829 -1.1986  0.5737
  134MOL0     C17572   1.897   5.665   7.390  0.1528 -0.5928  0.1790
  134MOL0     N17573   2.001   5.562   7.375  0.0872 -0.7776 -0.1081
  134MOL0     C17574   1.974   5.427   7.400 -0.4256  0.5688 -1.2415
  134MOL0     C17575   2.103   5.376   7.398  0.1198 -1.0901 -0.2594
  134MOL0     C17576   2.119   5.231   7.384  0.2241  0.1681  0.3242
  134MOL0     C17577   2.085   5.184   7.242 -0.4540 -0.7892  0.1298
  134MOL0     C17578   2.079   5.034   7.233  0.4139  0.5407  0.1582
  134MOL0     C17579   2.033   4.969   7.096  0.2867 -0.1113 -0.1565
  134MOL0     O17580   2.118   5.022   6.993 -0.0731  0.5747  0.4054
  134MOL0     C17581   2.074   5.020   6.864 -0.2711 -1.4117 -0.4687
  134MOL0     C17582   1.985   4.926   6.819  0.4264  0.0374  0.2633
  134MOL0     C17583   1.927   4.935   6.698  0.0082 -0.2644  0.6614
  134MOL0     C17584   1.969   5.033   6.603  0.8633 -0.5987 -0.2192
  134MOL0     C17585   1.886   5.048   6.488 -1.0551  0.1151 -1.0318
  134MOL0     O17586   1.949   5.122   6.393 -0.7304  0.1401  0.6774
  134MOL0     C17587   1.891   5.132   6.268 -0.5592 -0.0435  0.7194
  134MOL0     C17588   1.918   5.249   6.198 -0.1110  0.1380 -0.9697
  134MOL0     C17589   1.854   5.269   6.082 -0.0788  0.3160 -0.0517
  134MOL0     C17590   1.778   5.170   6.019  0.0908  0.8266 -0.6382
  134MOL0     O17591   1.710   5.181   5.897 -0.4896  0.4246  0.3313
  134MOL0     C17592   1.673   5.310   5.847  0.1238  0.3762 -0.1952
  134MOL0     C17593   1.576   5.300   5.730  0.1640  0.3725 -0.5501
  134MOL0     C17594   1.525   5.441   5.686 -0.7679  0.9733  0.2352
  134MOL0     C17595   1.425   5.446   5.574  0.2758 -0.2925  0.3047
  134MOL0     C17596   1.291   5.384   5.593 -0.5814 -0.0687  0.0401
  134MOL0     C17597   1.209   5.452   5.709  0.6551 -0.5103 -0.6759
  134MOL0     C17598   1.069   5.405   5.694 -0.5552 -0.5728 -0.5677
  134MOL0     C17599   0.985   5.438   5.820  0.9003  0.5019  0.8452
  134MOL0    Cl17600   0.832   5.368   5.770 -0.3825 -0.1768 -0.0425
  134MOL0     C17601   1.780   5.044   6.076  0.4259  0.1996 -0.3848
  134MOL0     C17602   1.838   5.023   6.196  0.0809 -0.2787  0.3586
  134MOL0     O17603   1.772   4.997   6.480 -0.1607 -0.1545  0.3506
  134MOL0     C17604   2.068   5.130   6.641 -0.1487 -0.3637  0.2887
  134MOL0     C17605   2.113   5.124   6.776 -0.7154  0.0256 -0.4553
  134MOL0     N17606   2.193   5.477   7.388  0.1132 -0.7729 -0.1070
  134MOL0     N17607   2.137   5.591   7.375  0.2791 -0.4028 -0.1475
  134MOL0     C17608   0.862   5.878   7.452  0.2064  0.0501 -0.2433
  134MOL0     C17609   0.723   5.895   7.462  0.3312 -1.3050  0.3876
  134MOL0     C17610   0.286   5.836   7.599 -0.3156  0.2975 -0.0701
  134MOL0     C17611   0.236   5.963   7.579  0.3583 -0.4682  0.3472
  134MOL0     C17612   0.100   5.990   7.570 -0.9106  0.7401 -0.4913
  134MOL0     C17613   0.008   5.890   7.597  0.8806 -0.5156  0.7877
  134MOL0     O17614  -0.117   5.931   7.595  0.9996 -0.1989  0.1439
  134MOL0     C17615  -0.210   5.835   7.650  0.4424  1.0533  0.9595
  134MOL0     C17616  -0.356   5.889   7.634  0.3577 -0.3739  0.2238
  134MOL0     C17617  -0.446   5.776   7.565  0.6836 -0.8340  0.3128
  134MOL0     C17618  -0.595   5.833   7.542 -0.0048 -0.1962 -0.7674
  134MOL0     C17619  -0.598   5.969   7.473  0.1022  0.0028 -1.3899
  134MOL0     C17620  -0.600   6.081   7.430 -0.5586  0.0251  0.4816
  134MOL0     C17621   0.061   5.763   7.625  0.2378  1.0266  0.0528
  134MOL0     C17622   0.198   5.729   7.619  0.4151 -0.1772  1.0972
  134MOL0     H17623   0.656   5.886   7.792 -2.0064  1.2473 -0.5153
  134MOL0     H17624   0.909   5.849   7.793 -1.0565  2.4041  1.1106
  134MOL0     H17625   1.173   5.956   7.685 -0.3511 -1.1366 -0.5163
  134MOL0     H17626   1.077   6.042   7.557 -1.3487 -1.7711 -1.0399
  134MOL0     H17627   1.329   6.054   7.508  4.5008 -3.0241  0.2759
  134MOL0     H17628   1.222   5.995   7.386  0.2846  2.5303  0.5671
  134MOL0     H17629   1.289   5.769   7.440  0.9840  0.3313 -1.4679
  134MOL0     H17630   1.389   5.826   7.584  2.2619  5.2721  0.7806
  134MOL0     H17631   1.447   5.893   7.281  0.1022 -3.4573 -1.4973
  134MOL0     H17632   1.530   5.969   7.415  1.1327  0.6302  1.2722
  134MOL0     H17633   1.515   5.671   7.354 -0.5572 -0.4136 -0.6552
  134MOL0     H17634   1.604   5.738   7.483 -1.6680  1.7777  0.8400
  134MOL0     H17635   1.740   5.875   7.312  0.2708 -1.3753  0.6809
  134MOL0     H17636   1.646   5.794   7.181 -0.4517 -3.3927 -1.4558
  134MOL0     H17637   1.738   5.566   7.268  1.5176 -1.7541 -3.0876
  134MOL0     H17638   1.841   5.673   7.180 -2.6065  1.2815 -0.8144
  134MOL0     H17639   1.846   5.651   7.485  1.3454 -0.1745  0.9039
  134MOL0     H17640   1.940   5.763   7.411  0.4508 -0.3888 -1.2607
  134MOL0     H17641   1.880   5.378   7.423  1.1216 -1.5628  1.1255
  134MOL0     H17642   2.054   5.170   7.448  0.8557 -0.5067  0.3407
  134MOL0     H17643   2.224   5.202   7.393  0.1041 -1.3165 -2.1416
  134MOL0     H17644   2.163   5.217   7.172 -0.7038 -0.4549  0.0033
  134MOL0     H17645   1.996   5.238   7.208  0.5633  1.6120  1.0345
  134MOL0     H17646   2.178   4.989   7.246 -0.5639 -1.9092 -0.3161
  134MOL0     H17647   2.016   4.988   7.309  0.6485  0.9821  0.6237
  134MOL0     H17648   1.928   4.997   7.085  0.6540  1.7738  0.7739
  134MOL0     H17649   2.038   4.860   7.105 -1.7380 -0.3670 -1.4664
  134MOL0     H17650   1.952   4.849   6.888  2.3830 -0.7699  0.3778
  134MOL0     H17651   1.857   4.862   6.658 -1.0930  2.4053 -2.8766
  134MOL0     H17652   1.970   5.336   6.238  1.2196 -1.2810  0.5309
  134MOL0     H17653   1.872   5.362   6.027  1.9175  0.9600  1.5594
  134MOL0     H17654   1.765   5.366   5.828  1.7265 -0.9991  2.7420
  134MOL0     H17655   1.630   5.367   5.931  3.0983  1.4255  0.7779
  134MOL0     H17656   1.489   5.237   5.752  0.3171 -0.2116 -1.5585
  134MOL0     H17657   1.628   5.243   5.652  0.9605  1.0746 -0.5523
  134MOL0     H17658   1.616   5.499   5.666  0.5935 -0.7245  1.1334
  134MOL0     H17659   1.484   5.489   5.775 -1.0100  0.5378  0.3624
  134MOL0     H17660   1.418   5.552   5.548 -0.8952  0.0100  1.6924
  134MOL0     H17661   1.474   5.392   5.493 -0.1082  1.1538 -0.9339
  134MOL0     H17662   1.299   5.278   5.616 -0.1188  0.4105  2.4021
  134MOL0     H17663   1.234   5.382   5.500  0.4547 -1.3011 -0.5987
  134MOL0     H17664   1.210   5.561   5.705 -3.3410 -0.2962  0.4290
  134MOL0     H17665   1.259   5.436   5.806  2.9401  6.1739 -0.2651
  134MOL0     H17666   1.028   5.456   5.606 -0.0446  1.3026  0.2328
  134MOL0     H17667   1.077   5.298   5.674 -0.9905 -0.1598 -3.3810
  134MOL0     H17668   0.974   5.547   5.824  0.6698  0.6423 -1.8729
  134MOL0     H17669   1.029   5.387   5.906 -0.1496 -2.3325 -0.1850
  134MOL0     H17670   1.711   4.967   6.043  1.1818 -0.5109 -0.3361
  134MOL0     H17671   1.829   4.925   6.243 -2.4521  0.0260  0.6427
  134MOL0     H17672   2.082   5.217   6.577  1.7442  0.0226  1.1560
  134MOL0     H17673   2.172   5.196   6.832 -3.2101  1.0752  0.9599
  134MOL0     H17674   0.924   5.878   7.363  0.3933  1.0083 -0.1243
  134MOL0     H17675   0.654   5.893   7.377 -0.2175  3.5169  0.4454
  134MOL0     H17676   0.304   6.048   7.579 -1.4235  1.0564 -1.5315
  134MOL0     H17677   0.066   6.092   7.558  1.9837  2.2778  2.7038
  134MOL0     H17678  -0.188   5.811   7.755 -2.8371 -0.8656  1.3665
  134MOL0     H17679  -0.210   5.739   7.598  0.1717  0.4362  2.0597
  134MOL0     H17680  -0.404   5.901   7.732 -0.3031 -0.3269 -0.0985
  134MOL0     H17681  -0.351   5.982   7.578 -0.8122  1.0103  2.2600
  134MOL0     H17682  -0.453   5.683   7.623 -1.9403 -0.2698  1.0651
  134MOL0     H17683  -0.403   5.757   7.467 -1.3553  0.9407 -1.0109
  134MOL0     H17684  -0.648   5.756   7.485 -0.1255 -2.7153  2.4635
  134MOL0     H17685  -0.649   5.841   7.637  0.4099 -0.7087 -0.4887
  134MOL0     H17686  -0.613   6.179   7.388  0.7104 -0.5974 -1.4788
  134MOL0     H17687  -0.009   5.683   7.645 -1.0248  2.1523  0.2510
  134MOL0     H17688   0.230   5.629   7.643  3.0144 -0.0009 -1.1568
  135MOL0     O17689   9.781   5.180  11.320 -0.4320  0.8677  0.6399
  135MOL0     C17690   9.870   5.109  11.276  0.4018  0.4470 -0.5281
  135MOL0     O17691   9.896   4.982  11.318  0.3056 -0.2200  0.1558
  135MOL0     C17692   9.821   4.927  11.418  0.0022 -0.4370 -0.3368
  135MOL0     C17693   9.829   4.990  11.542 -0.0899  0.7174  0.5444
  135MOL0     C17694   9.741   4.949  11.645 -0.1246 -0.1758  0.3884
  135MOL0     C17695   9.655   4.838  11.628  0.3832  0.4338  0.9514
  135MOL0     O17696   9.578   4.793  11.729 -0.5022  0.5629 -0.0006
  135MOL0     C17697   9.474   4.895  11.756  0.2605 -0.8385 -0.0113
  135MOL0     C17698   9.392   4.876  11.879 -0.9356 -0.0218 -0.4861
  135MOL0     C17699   9.327   4.736  11.892 -0.3891 -0.4505  0.6921
  135MOL0     C17700   9.267   4.728  12.040  0.1650  0.2839 -0.9989
  135MOL0     C17701   9.141   4.645  12.047 -0.6971 -0.1374 -0.1553
  135MOL0     C17702   9.020   4.707  11.987 -0.3786 -0.2119 -0.8017
  135MOL0     C17703   8.974   4.835  12.060  0.5852 -0.9207  0.5403
  135MOL0     C17704   8.844   4.896  12.001  0.2976 -0.0988 -0.1655
  135MOL0     N17705   8.877   4.937  11.862  0.7384  0.6579 -0.6204
  135MOL0     C17706   8.938   5.050  11.830 -0.8563 -0.0414 -0.5292
  135MOL0     C17707   8.952   5.055  11.702 -0.0535  0.1129 -0.9776
  135MOL0     C17708   9.017   5.161  11.618  1.1416 -0.3718 -0.7118
  135MOL0     C17709   8.937   5.294  11.628 -0.3656  0.2381 -1.2805
  135MOL0     C17710   9.000   5.398  11.544  0.3106  0.0963  0.1321
  135MOL0     C17711   8.937   5.540  11.563  0.0647 -0.0244 -0.0634
  135MOL0     O17712   8.808   5.569  11.504 -0.9997  0.2957 -0.1384
  135MOL0     C17713   8.747   5.688  11.530 -1.2974 -0.0010 -0.6598
  135MOL0     C17714   8.675   5.737  11.425  0.0620 -0.1184 -0.0115
  135MOL0     C17715   8.616   5.863  11.436 -0.0819 -0.2824 -0.6514
  135MOL0     C17716   8.626   5.947  11.553  0.1204  0.4102  0.1304
  135MOL0     C17717   8.578   6.088  11.551 -0.1475  0.7189 -0.1556
  135MOL0     O17718   8.529   6.125  11.432  0.3857 -0.6042 -0.0086
  135MOL0     C17719   8.450   6.235  11.424 -0.4102 -0.3833  0.4978
  135MOL0     C17720   8.485   6.336  11.331 -0.0611 -0.7683 -1.0411
  135MOL0     C17721   8.434   6.463  11.339  1.0300 -1.0811 -1.3308
  135MOL0     C17722   8.334   6.497  11.436 -0.0684  0.2663 -0.1862
  135MOL0     O17723   8.281   6.626  11.424 -0.7911  1.0702 -0.2623
  135MOL0     C17724   8.173   6.649  11.503 -0.3171 -0.0615 -0.7409
  135MOL0     C17725   8.141   6.794  11.502 -0.2471 -0.3698 -0.0566
  135MOL0     C17726   8.014   6.826  11.577  0.1405  0.5905  0.1437
  135MOL0     C17727   7.888   6.803  11.474  0.0661  0.0146 -0.2439
  135MOL0     C17728   7.748   6.806  11.541 -0.0892 -0.7597  0.1488
  135MOL0     C17729   7.715   6.942  11.601  0.5090  0.4957  0.3182
  135MOL0     C17730   7.580   6.913  11.682  0.2847  0.8168  0.4882
  135MOL0     C17731   7.463   6.938  11.598 -0.3856 -0.0189  0.8338
  135MOL0    Cl17732   7.325   6.893  11.702 -0.1494  0.5989 -0.4778
  135MOL0     C17733   8.281   6.390  11.516 -0.1131 -1.4594 -0.3548
  135MOL0     C17734   8.341   6.264  11.505  0.9254 -0.1091 -0.1404
  135MOL0     O17735   8.563   6.140  11.659  0.4510  0.3763  0.3002
  135MOL0     C17736   8.697   5.884  11.663 -0.3631 -0.0312  0.3334
  135MOL0     C17737   8.756   5.752  11.652 -0.3845 -1.0025 -0.1729
  135MOL0     N17738   8.904   4.932  11.663  0.2027 -0.0813 -0.1514
  135MOL0     N17739   8.855   4.860  11.760 -0.3507 -0.1605  0.6729
  135MOL0     C17740   9.649   4.776  11.505 -0.4416  0.4577  0.0808
  135MOL0     C17741   9.727   4.817  11.401 -0.7260 -0.6394  0.4991
  135MOL0     C17742   9.945   5.157  11.156  0.6108  0.7410 -0.5234
  135MOL0     C17743   9.975   5.294  11.130  0.0139 -0.5655 -0.7528
  135MOL0     C17744  10.035   5.332  11.011  0.2037 -0.4290  0.8639
  135MOL0     C17745  10.060   5.239  10.905 -0.5074 -0.1261 -0.7501
  135MOL0     O17746  10.126   5.275  10.792  0.8490  0.0189  0.1538
  135MOL0     C17747  10.183   5.401  10.782 -0.5065 -0.6636  0.0619
  135MOL0     C17748  10.242   5.416  10.645  0.1428 -0.2430 -0.7631
  135MOL0     C17749  10.134   5.440  10.544  0.2101 -0.2028 -0.2556
  135MOL0     C17750  10.201   5.445  10.404  0.8656 -0.2281 -0.6487
  135MOL0     C17751  10.090   5.476  10.313 -0.7324 -0.6745  0.2476
  135MOL0     C17752   9.989   5.476  10.251 -0.1790 -0.2383  0.5505
  135MOL0     C17753  10.052   5.102  10.937 -0.3188 -0.7387  0.7080
  135MOL0     C17754  10.002   5.061  11.061 -0.2214 -0.0994  0.2979
  135MOL0     H17755   9.892   5.076  11.561  0.0128  0.7555  0.0436
  135MOL0     H17756   9.735   5.012  11.734 -0.1819  0.0741  0.2074
  135MOL0     H17757   9.401   4.903  11.675 -1.2403 -2.1504  1.1482
  135MOL0     H17758   9.503   5.000  11.761 -2.3993  0.0052 -0.6005
  135MOL0     H17759   9.319   4.957  11.879  0.8630  1.7367 -2.2417
  135MOL0     H17760   9.450   4.903  11.968  0.9980 -2.7233 -0.7981
  135MOL0     H17761   9.407   4.663  11.880  0.6022  0.5447  1.1295
  135MOL0     H17762   9.251   4.730  11.813  3.0545 -0.8066 -2.9386
  135MOL0     H17763   9.338   4.669  12.099 -2.9273 -0.5195  2.2644
  135MOL0     H17764   9.261   4.820  12.099 -1.8235  0.4834 -1.4612
  135MOL0     H17765   9.122   4.621  12.152 -1.3919 -1.7893 -0.6277
  135MOL0     H17766   9.161   4.551  11.994 -2.0377 -0.1797 -0.6275
  135MOL0     H17767   8.938   4.635  11.992 -0.7405  0.2771  0.6968
  135MOL0     H17768   9.044   4.728  11.882 -0.8891  0.2215 -0.8320
  135MOL0     H17769   8.954   4.828  12.167  0.3957  1.6920  0.7386
  135MOL0     H17770   9.056   4.905  12.044 -0.6808  0.0915 -2.0295
  135MOL0     H17771   8.823   4.987  12.057  2.2033 -1.3916  2.9443
  135MOL0     H17772   8.770   4.816  11.997  0.2666 -0.0404 -1.2582
  135MOL0     H17773   8.974   5.123  11.902  0.2496 -1.1956  0.1318
  135MOL0     H17774   9.039   5.117  11.519 -0.2123 -2.4089 -0.1744
  135MOL0     H17775   9.114   5.179  11.665  0.5053 -1.5478  1.1653
  135MOL0     H17776   8.902   5.315  11.729 -0.1743  0.3299 -1.2314
  135MOL0     H17777   8.837   5.280  11.587 -0.8203  0.6014 -0.3335
  135MOL0     H17778   9.108   5.406  11.561  0.8213  0.3624 -2.6734
  135MOL0     H17779   8.986   5.353  11.445  0.8737  0.1006  0.0461
  135MOL0     H17780   9.022   5.603  11.535  4.9861 -5.1550  1.3286
  135MOL0     H17781   8.934   5.554  11.672  1.0929  3.2147 -0.3394
  135MOL0     H17782   8.664   5.679  11.334  1.6192  2.3327 -1.8794
  135MOL0     H17783   8.570   5.917  11.353  0.8229  2.1997  0.3561
  135MOL0     H17784   8.561   6.317  11.255 -1.3398 -0.9474 -2.3053
  135MOL0     H17785   8.465   6.543  11.272  1.3027 -0.7907 -0.8616
  135MOL0     H17786   8.196   6.621  11.606 -2.8125  1.5149  0.3362
  135MOL0     H17787   8.086   6.588  11.475 -1.8054  0.3088  2.6679
  135MOL0     H17788   8.127   6.815  11.395 -0.7739 -0.6886 -0.0486
  135MOL0     H17789   8.222   6.860  11.536 -0.9178  1.2046 -1.3970
  135MOL0     H17790   8.011   6.928  11.617 -0.9302  0.7815 -0.3859
  135MOL0     H17791   8.019   6.762  11.666  0.7082 -0.5356 -0.6727
  135MOL0     H17792   7.905   6.885  11.404  5.8464 -0.2849  0.3362
  135MOL0     H17793   7.898   6.709  11.420 -2.5118 -1.1711  1.1406
  135MOL0     H17794   7.746   6.734  11.623 -0.8913  1.4877  2.2226
  135MOL0     H17795   7.696   6.772  11.451  0.7592 -2.1123  0.1327
  135MOL0     H17796   7.699   7.002  11.511  1.7781 -4.7423 -3.9227
  135MOL0     H17797   7.799   6.960  11.668 -0.6012 -1.7047  2.4307
  135MOL0     H17798   7.570   6.816  11.732  2.7425  0.9393  1.3444
  135MOL0     H17799   7.577   6.986  11.763  2.9670  0.4102  1.0539
  135MOL0     H17800   7.462   6.870  11.512  1.3440  0.5941  0.2908
  135MOL0     H17801   7.473   7.042  11.564 -1.0887 -0.6688 -1.6142
  135MOL0     H17802   8.190   6.408  11.572  0.6729  2.2155  0.0218
  135MOL0     H17803   8.308   6.182  11.568  1.6406  0.0680  0.4797
  135MOL0     H17804   8.715   5.949  11.747 -0.4850 -0.3113  0.5782
  135MOL0     H17805   8.809   5.703  11.733  0.1671  3.2832  2.3317
  135MOL0     H17806   9.574   4.701  11.486  1.0361 -0.7362 -1.3169
  135MOL0     H17807   9.712   4.769  11.305 -1.5402  0.5566  0.0139
  135MOL0     H17808   9.941   5.352  11.215  0.0209 -2.5104  0.6423
  135MOL0     H17809  10.069   5.434  10.994  1.9079 -1.1794 -0.5062
  135MOL0     H17810  10.259   5.422  10.859  0.0409  1.5690 -1.0064
  135MOL0     H17811  10.123   5.487  10.814 -1.4347 -1.2250 -0.1387
  135MOL0     H17812  10.312   5.500  10.653  1.4715 -1.4863  1.7649
  135MOL0     H17813  10.294   5.322  10.622  1.8502  0.8560 -1.6304
  135MOL0     H17814  10.078   5.531  10.566 -1.1724 -1.4680  1.7764
  135MOL0     H17815  10.068   5.354  10.555 -0.5430  0.2836 -0.8953
  135MOL0     H17816  10.284   5.515  10.393 -0.8844  2.5712  2.2780
  135MOL0     H17817  10.247   5.349  10.382  3.8759  0.3461  2.3756
  135MOL0     H17818   9.914   5.468  10.175  0.9385  1.5552 -0.8200
  135MOL0     H17819  10.097   5.035  10.864  1.2243 -0.4247  1.3192
  135MOL0     H17820   9.988   4.955  11.079  1.0799 -0.9208 -2.7903
  136MOL0     O17821   9.502   9.739  11.270  0.4322  0.4295 -0.2626
  136MOL0     C17822   9.513   9.616  11.255 -0.1820 -1.0452 -0.4119
  136MOL0     O17823   9.417   9.531  11.271 -0.3227  0.8605 -0.3156
  136MOL0     C17824   9.288   9.548  11.329 -0.0554  0.0178  0.7587
  136MOL0     C17825   9.202   9.449  11.285  0.2877 -0.1314 -0.9560
  136MOL0     C17826   9.067   9.449  11.329 -0.2184 -0.6002 -0.3554
  136MOL0     C17827   9.029   9.555  11.420  0.5216  0.2831  0.6759
  136MOL0     O17828   8.896   9.576  11.448  0.4292  0.2232  0.5773
  136MOL0     C17829   8.806   9.569  11.340 -0.1120  0.1952  0.2055
  136MOL0     C17830   8.678   9.656  11.343 -0.2789  0.6647 -0.5583
  136MOL0     C17831   8.587   9.631  11.470 -0.5586  0.1106 -0.1317
  136MOL0     C17832   8.489   9.507  11.457 -0.1415  0.7081 -0.8323
  136MOL0     C17833   8.376   9.513  11.557 -0.2449 -0.2432  0.1012
  136MOL0     C17834   8.261   9.614  11.525  1.0023 -0.0094 -0.0424
  136MOL0     C17835   8.165   9.621  11.653  0.0838  0.2033  0.0606
  136MOL0     C17836   8.086   9.748  11.670 -0.0463  1.1663 -0.1143
  136MOL0     N17837   7.981   9.743  11.775 -0.1855  0.0494 -0.5549
  136MOL0     C17838   7.893   9.644  11.806 -0.9170  0.5366 -0.0177
  136MOL0     C17839   7.805   9.705  11.889  0.4756  0.1021 -0.2360
  136MOL0     C17840   7.677   9.639  11.944 -0.1228  0.2658 -0.5886
  136MOL0     C17841   7.575   9.642  11.826 -0.9329 -0.4168 -0.2081
  136MOL0     C17842   7.533   9.787  11.773 -0.4964 -0.0336  0.3461
  136MOL0     C17843   7.509   9.893  11.878 -0.9502  0.4822  0.8186
  136MOL0     O17844   7.382   9.862  11.938 -0.2504 -0.2077  0.1495
  136MOL0     C17845   7.365   9.904  12.069 -0.1802  0.3232  0.0268
  136MOL0     C17846   7.300   9.820  12.158  0.3678 -0.1436 -0.4747
  136MOL0     C17847   7.267   9.862  12.284  0.8950  0.2288 -0.5154
  136MOL0     C17848   7.305   9.984  12.336 -0.1121 -0.5892 -1.1059
  136MOL0     C17849   7.272  10.034  12.479  1.1488  0.1871  0.6462
  136MOL0     O17850   7.304  10.171  12.509  0.2951  0.3896 -0.1509
  136MOL0     C17851   7.252  10.218  12.632 -0.1910  0.0136  0.9986
  136MOL0     C17852   7.133  10.287  12.635 -0.2052 -0.0422  0.2383
  136MOL0     C17853   7.095  10.346  12.754  0.5681 -0.4898  0.0565
  136MOL0     C17854   7.166  10.341  12.872 -0.7472  0.9046 -0.6930
  136MOL0     O17855   7.124  10.417  12.978  1.2854  0.5041 -0.4785
  136MOL0     C17856   7.203  10.406  13.097  1.0708  0.3965 -1.4040
  136MOL0     C17857   7.148  10.528  13.184  0.0327  0.5153 -0.0293
  136MOL0     C17858   7.034  10.507  13.275 -0.1583  0.1852 -0.7194
  136MOL0     C17859   6.996  10.634  13.352 -0.5789 -0.5124 -0.9618
  136MOL0     C17860   6.900  10.620  13.465 -1.6584  0.3238 -0.1264
  136MOL0     C17861   6.784  10.531  13.435  0.6117  0.2625 -0.6505
  136MOL0     C17862   6.700  10.483  13.558  0.6200 -1.0749  0.0250
  136MOL0     C17863   6.775  10.438  13.669  0.0015 -0.2417 -0.6848
  136MOL0    Cl17864   6.875  10.293  13.631 -0.4785 -0.3108  0.6026
  136MOL0     C17865   7.282  10.250  12.877 -0.0254  0.2918 -0.1954
  136MOL0     C17866   7.310  10.186  12.755 -0.0084  0.3780  0.0106
  136MOL0     O17867   7.224   9.953  12.554  0.4449 -0.3182 -0.3455
  136MOL0     C17868   7.359  10.073  12.249 -0.4255 -0.8282  0.6530
  136MOL0     C17869   7.386  10.038  12.116 -0.2029  0.7284 -0.2577
  136MOL0     N17870   7.835   9.841  11.899 -0.1632 -0.0021 -0.2609
  136MOL0     N17871   7.948   9.852  11.845 -0.0039 -0.3403  0.3565
  136MOL0     C17872   9.124   9.650  11.465  0.3267 -0.2352  0.3688
  136MOL0     C17873   9.259   9.645  11.422  0.3158 -0.5498 -0.2965
  136MOL0     C17874   9.634   9.577  11.193 -0.5961 -0.5530  0.1767
  136MOL0     C17875   9.755   9.642  11.235  0.3208 -0.1755 -0.4514
  136MOL0     C17876   9.878   9.601  11.184 -0.3495 -0.6069  0.0510
  136MOL0     C17877   9.875   9.496  11.090  1.1895  0.2160  0.6595
  136MOL0     O17878   9.994   9.473  11.030  0.3443  0.8620  0.1906
  136MOL0     C17879  10.087   9.376  11.096  1.0079 -0.0992 -0.2117
  136MOL0     C17880  10.231   9.414  11.055 -0.9589  0.0740  0.1347
  136MOL0     C17881  10.329   9.353  11.155  0.5357 -0.2485  0.2186
  136MOL0     C17882  10.487   9.361  11.128 -0.0670  0.3240  0.1116
  136MOL0     C17883  10.525   9.280  11.010 -0.1353  0.6866  0.7512
  136MOL0     C17884  10.541   9.206  10.914 -0.5691  0.4817 -0.4102
  136MOL0     C17885   9.763   9.424  11.061  0.4462 -0.0262 -0.7227
  136MOL0     C17886   9.640   9.469  11.104  0.7256  0.3129  0.0495
  136MOL0     H17887   9.237   9.381  11.209 -0.5289  0.1226 -1.5735
  136MOL0     H17888   8.998   9.386  11.273 -2.0208  0.2609  0.7866
  136MOL0     H17889   8.789   9.462  11.333 -1.1444  0.3669 -0.0378
  136MOL0     H17890   8.859   9.593  11.247  2.1837  2.6796  1.9972
  136MOL0     H17891   8.614   9.626  11.259 -1.5414  1.5472  0.0565
  136MOL0     H17892   8.704   9.762  11.333 -2.2269  1.0583 -2.1682
  136MOL0     H17893   8.523   9.718  11.483 -0.7725 -0.2851  1.7505
  136MOL0     H17894   8.647   9.633  11.561 -2.1242 -2.2938  1.0614
  136MOL0     H17895   8.443   9.507  11.358 -3.2075 -0.7156  0.4788
  136MOL0     H17896   8.545   9.413  11.459 -1.4362 -0.0767  0.0090
  136MOL0     H17897   8.416   9.539  11.656  2.1045  0.6077 -0.9936
  136MOL0     H17898   8.335   9.412  11.563 -2.1464  0.5707  2.0900
  136MOL0     H17899   8.205   9.594  11.433  2.9699 -1.9954 -0.8998
  136MOL0     H17900   8.299   9.717  11.520  0.1546  0.2659 -1.5270
  136MOL0     H17901   8.099   9.536  11.641 -1.7323  1.7692 -1.8354
  136MOL0     H17902   8.224   9.613  11.744 -3.9033  0.2672  2.8899
  136MOL0     H17903   8.049   9.779  11.572  0.5577 -1.4231 -1.2407
  136MOL0     H17904   8.153   9.825  11.708  0.5718 -0.0887  1.4793
  136MOL0     H17905   7.899   9.540  11.776  0.3107  0.3652  0.7286
  136MOL0     H17906   7.630   9.690  12.028 -1.5956 -1.6758 -0.1640
  136MOL0     H17907   7.701   9.536  11.969  3.1765  0.4815 -2.2697
  136MOL0     H17908   7.485   9.594  11.866 -0.4770  1.2970  3.3233
  136MOL0     H17909   7.609   9.588  11.737  2.9780 -0.4786  1.1343
  136MOL0     H17910   7.611   9.823  11.705  1.2528 -0.3546  2.0876
  136MOL0     H17911   7.445   9.783  11.709  0.9565 -0.5118 -1.7352
  136MOL0     H17912   7.499   9.993  11.834 -0.1834 -0.9063 -2.9277
  136MOL0     H17913   7.592   9.890  11.949  0.4353 -1.1070 -0.7689
  136MOL0     H17914   7.274   9.715  12.145  0.5538 -0.4076  1.1486
  136MOL0     H17915   7.202   9.802  12.346  2.6638  0.1081  1.3283
  136MOL0     H17916   7.068  10.285  12.547  0.1827  0.0209 -0.0527
  136MOL0     H17917   6.996  10.392  12.754  0.1345 -1.3855 -0.7548
  136MOL0     H17918   7.309  10.424  13.079  1.3807 -0.0056 -0.0761
  136MOL0     H17919   7.183  10.314  13.152 -3.0433  3.1290  2.4569
  136MOL0     H17920   7.108  10.598  13.110 -1.6525  1.1807  1.4185
  136MOL0     H17921   7.232  10.576  13.234  1.7140 -2.3255  0.0717
  136MOL0     H17922   7.059  10.427  13.346 -0.2809 -1.2648 -2.2403
  136MOL0     H17923   6.945  10.477  13.218  0.0868 -1.4792 -0.2893
  136MOL0     H17924   7.088  10.682  13.387 -0.7799  0.3339 -1.5572
  136MOL0     H17925   6.951  10.706  13.283 -1.3786  0.4469  0.5057
  136MOL0     H17926   6.872  10.718  13.505 -0.5401 -0.1680  2.0470
  136MOL0     H17927   6.958  10.569  13.543 -0.4727  1.5552 -0.1784
  136MOL0     H17928   6.815  10.435  13.392 -0.9721 -0.4725 -0.2358
  136MOL0     H17929   6.724  10.579  13.357 -0.9516  0.7454  0.8028
  136MOL0     H17930   6.645  10.570  13.593 -1.5715 -1.3221 -2.5158
  136MOL0     H17931   6.625  10.416  13.515  0.8798 -0.7257 -1.0117
  136MOL0     H17932   6.704  10.411  13.748  1.4127  1.4629  1.2740
  136MOL0     H17933   6.838  10.518  13.710  2.1913 -1.5562 -1.3193
  136MOL0     H17934   7.346  10.238  12.964  2.8479  0.1713 -2.1801
  136MOL0     H17935   7.400  10.125  12.750  1.8828  3.0324 -1.0236
  136MOL0     H17936   7.366  10.179  12.274 -2.8588 -0.9056  1.9558
  136MOL0     H17937   7.420  10.105  12.037 -1.8849  0.6997 -1.0474
  136MOL0     H17938   9.106   9.726  11.541  1.1734 -0.1754  0.5227
  136MOL0     H17939   9.323   9.720  11.469 -1.0587 -1.4289  3.3092
  136MOL0     H17940   9.745   9.723  11.307 -0.1219 -0.6430  0.0282
  136MOL0     H17941   9.971   9.655  11.201 -2.1495  2.0787  2.3191
  136MOL0     H17942  10.058   9.273  11.076  1.1602 -0.6929  2.3547
  136MOL0     H17943  10.089   9.386  11.205  0.6446 -1.8433 -0.0284
  136MOL0     H17944  10.254   9.372  10.956 -0.0479 -2.0806  1.2006
  136MOL0     H17945  10.244   9.523  11.061  0.7222 -0.0199 -0.9412
  136MOL0     H17946  10.301   9.249  11.174 -2.5622  0.5711  0.7726
  136MOL0     H17947  10.317   9.418  11.243  1.5711 -0.5009  0.5609
  136MOL0     H17948  10.522   9.465  11.122 -0.1634  0.4195  1.1358
  136MOL0     H17949  10.537   9.316  11.214  2.0251 -0.3509 -1.3809
  136MOL0     H17950  10.551   9.150  10.823 -0.1158  0.9531 -0.6578
  136MOL0     H17951   9.778   9.349  10.984 -0.2291  1.3595 -2.2799
  136MOL0     H17952   9.541   9.429  11.085  0.1599  1.5087  0.3512
  137MOL0     O17953   1.062   6.256   7.344  0.4052 -0.3783  0.3854
  137MOL0     C17954   1.044   6.287   7.228  0.2324  0.2631 -0.1215
  137MOL0     O17955   0.917   6.319   7.172 -0.2398  1.4301 -0.0586
  137MOL0     C17956   0.798   6.286   7.226  1.0993 -0.1819  0.1153
  137MOL0     C17957   0.697   6.349   7.155  1.1579 -0.0746  0.2229
  137MOL0     C17958   0.569   6.353   7.206 -0.1551 -1.5876  0.3581
  137MOL0     C17959   0.530   6.280   7.322  0.4372 -0.4978  0.1237
  137MOL0     O17960   0.409   6.285   7.390  0.4934  0.5016 -0.5477
  137MOL0     C17961   0.290   6.329   7.318  1.3954  0.0525 -0.1337
  137MOL0     C17962   0.157   6.298   7.391 -0.2199 -0.5285  0.2520
  137MOL0     C17963   0.027   6.361   7.312 -0.2474  0.7878 -0.3072
  137MOL0     C17964  -0.105   6.324   7.370  0.5285  0.0084 -0.7829
  137MOL0     C17965  -0.159   6.184   7.357  0.0409  0.4098 -0.8932
  137MOL0     C17966  -0.224   6.145   7.215  0.3408  0.8117  0.4429
  137MOL0     C17967  -0.328   6.243   7.160  0.4359 -0.0869 -0.0530
  137MOL0     C17968  -0.379   6.193   7.028 -0.3608 -0.7320  0.3267
  137MOL0     N17969  -0.512   6.256   6.998  0.2567 -0.7024 -0.6654
  137MOL0     C17970  -0.548   6.388   7.010 -0.2423 -0.0698 -0.8069
  137MOL0     C17971  -0.686   6.380   7.005 -0.1682  0.3173 -0.7198
  137MOL0     C17972  -0.761   6.504   6.996 -0.1958  0.2243  0.3535
  137MOL0     C17973  -0.902   6.486   7.062 -0.4171  0.3545  0.1048
  137MOL0     C17974  -0.884   6.439   7.209  0.1480 -0.3672 -0.5107
  137MOL0     C17975  -1.018   6.400   7.274 -0.4956  0.0191 -0.0369
  137MOL0     O17976  -1.081   6.294   7.200 -0.1573 -0.4399 -0.0743
  137MOL0     C17977  -1.221   6.291   7.198  0.5568  0.4757 -0.0235
  137MOL0     C17978  -1.280   6.209   7.107 -0.2605  0.0658 -0.1404
  137MOL0     C17979  -1.418   6.197   7.103 -0.1620  0.1187  0.6531
  137MOL0     C17980  -1.501   6.256   7.194  0.2823  0.2760 -0.5868
  137MOL0     C17981  -1.648   6.238   7.193  0.1581  0.0399 -0.1005
  137MOL0     O17982  -1.713   6.325   7.277  1.2124 -0.5488  0.3857
  137MOL0     C17983  -1.849   6.322   7.295 -0.2154  0.0583  0.1904
  137MOL0     C17984  -1.918   6.203   7.309 -0.5624 -0.7096  0.1212
  137MOL0     C17985  -2.055   6.193   7.325 -0.5136 -0.3329 -0.1594
  137MOL0     C17986  -2.130   6.309   7.349 -0.6992 -0.4274 -0.6293
  137MOL0     O17987  -2.260   6.310   7.388  0.1841 -0.3137 -0.2481
  137MOL0     C17988  -2.299   6.192   7.463  0.0145  0.0147  0.0912
  137MOL0     C17989  -2.438   6.189   7.501  0.6375 -0.3963 -0.1820
  137MOL0     C17990  -2.470   6.286   7.616  0.0399  0.2448  0.4065
  137MOL0     C17991  -2.614   6.291   7.666  0.9237  0.7602 -0.7140
  137MOL0     C17992  -2.709   6.353   7.574  0.4875  0.1012 -0.1796
  137MOL0     C17993  -2.854   6.378   7.623 -0.8898 -0.1715  0.1921
  137MOL0     C17994  -2.915   6.258   7.696  0.9859 -0.0689 -0.2713
  137MOL0     C17995  -3.058   6.279   7.734  0.4395  1.0468 -0.5728
  137MOL0    Cl17996  -3.135   6.134   7.786  0.0488  0.0775  0.0633
  137MOL0     C17997  -2.061   6.430   7.343  0.2338 -0.0256  0.4753
  137MOL0     C17998  -1.923   6.433   7.307  0.0456 -0.0460 -0.8383
  137MOL0     O17999  -1.700   6.147   7.137  0.7483  0.2801 -0.0435
  137MOL0     C18000  -1.445   6.326   7.303 -0.4434 -1.3189 -0.4462
  137MOL0     C18001  -1.302   6.353   7.295 -0.2254 -0.0586 -0.1110
  137MOL0     N18002  -0.731   6.257   7.000  0.5206  0.8179  0.8790
  137MOL0     N18003  -0.629   6.181   6.981 -0.1488  0.6559 -0.7618
  137MOL0     C18004   0.626   6.207   7.379 -0.9259 -0.3393 -0.0392
  137MOL0     C18005   0.769   6.205   7.338 -0.1674  0.1301 -0.1600
  137MOL0     C18006   1.163   6.292   7.146 -0.5821  0.2515  0.5671
  137MOL0     C18007   1.164   6.388   7.041  0.6561  0.3190 -0.1557
  137MOL0     C18008   1.276   6.396   6.960 -1.2685 -0.0574  0.7715
  137MOL0     C18009   1.391   6.313   6.973 -0.4498 -0.2908 -0.1864
  137MOL0     O18010   1.489   6.339   6.879  0.3769 -0.6732 -0.2103
  137MOL0     C18011   1.562   6.219   6.848 -0.5646  0.3546  0.2631
  137MOL0     C18012   1.697   6.239   6.765 -0.6398 -1.1184 -0.2145
  137MOL0     C18013   1.823   6.242   6.855  0.5444 -0.5966 -0.0426
  137MOL0     C18014   1.955   6.246   6.767 -0.4628  0.4217 -0.2615
  137MOL0     C18015   1.962   6.367   6.682  0.3389  0.0781  0.4315
  137MOL0     C18016   1.940   6.459   6.606  0.4222  0.4705 -0.0495
  137MOL0     C18017   1.392   6.230   7.087 -0.7255  0.5726 -0.3113
  137MOL0     C18018   1.282   6.225   7.176 -0.4306  0.5153  0.7437
  137MOL0     H18019   0.708   6.386   7.054 -3.2953  1.5608  0.0829
  137MOL0     H18020   0.493   6.416   7.163 -3.2533 -3.1690  3.0765
  137MOL0     H18021   0.287   6.297   7.213  0.0667  0.3176 -0.2023
  137MOL0     H18022   0.289   6.437   7.299 -0.0090 -0.0393 -0.7645
  137MOL0     H18023   0.163   6.325   7.497 -0.3613 -1.7659  0.5903
  137MOL0     H18024   0.139   6.191   7.380  0.4910 -0.6528  0.2605
  137MOL0     H18025   0.017   6.335   7.206  0.3637  2.5852 -0.8295
  137MOL0     H18026   0.031   6.470   7.322 -0.3463  0.6329  1.8587
  137MOL0     H18027  -0.103   6.351   7.476 -0.7855  1.5142 -1.0952
  137MOL0     H18028  -0.172   6.398   7.324  1.1576  0.7756 -0.4976
  137MOL0     H18029  -0.243   6.184   7.428  0.4774 -0.4004 -0.3542
  137MOL0     H18030  -0.084   6.107   7.377  1.7546  2.2316 -0.1093
  137MOL0     H18031  -0.280   6.054   7.237  1.9488  0.1684  2.2313
  137MOL0     H18032  -0.146   6.125   7.142  0.7043  0.8399  0.8226
  137MOL0     H18033  -0.401   6.277   7.234 -0.9604 -0.7517 -1.0618
  137MOL0     H18034  -0.286   6.340   7.130 -0.6365 -0.4313 -3.0805
  137MOL0     H18035  -0.393   6.085   7.032  1.8755 -1.1371 -1.2613
  137MOL0     H18036  -0.309   6.213   6.946 -3.2874  0.1223 -2.1650
  137MOL0     H18037  -0.484   6.475   7.005 -1.6903  1.0740 -0.2607
  137MOL0     H18038  -0.761   6.518   6.888  2.0835  1.8535  0.5013
  137MOL0     H18039  -0.712   6.591   7.040  2.4632 -0.6769 -0.6401
  137MOL0     H18040  -0.958   6.408   7.010  0.5784  0.0558 -0.5438
  137MOL0     H18041  -0.964   6.574   7.046 -0.6902 -0.1116 -1.5876
  137MOL0     H18042  -0.817   6.355   7.231  2.1199  1.1853 -0.2180
  137MOL0     H18043  -0.856   6.534   7.256 -2.3771 -0.2435  0.9224
  137MOL0     H18044  -1.076   6.492   7.287  0.8630  1.1269 -1.4517
  137MOL0     H18045  -0.999   6.366   7.376  1.1486 -0.0486 -0.3436
  137MOL0     H18046  -1.218   6.177   7.024 -1.9963 -1.3780 -0.9501
  137MOL0     H18047  -1.455   6.140   7.018 -3.3660  0.2509  1.8342
  137MOL0     H18048  -1.860   6.112   7.294  0.7385 -0.0676  1.0252
  137MOL0     H18049  -2.099   6.093   7.325 -0.1284 -0.5421  1.8478
  137MOL0     H18050  -2.235   6.171   7.549  0.7338  0.2206 -0.3909
  137MOL0     H18051  -2.294   6.108   7.394  0.5911  1.9746 -2.3824
  137MOL0     H18052  -2.462   6.087   7.534  3.6973 -2.1932 -2.9258
  137MOL0     H18053  -2.502   6.206   7.413  3.2491  1.0902 -1.9262
  137MOL0     H18054  -2.444   6.387   7.582  1.3873  0.9718  3.3240
  137MOL0     H18055  -2.407   6.266   7.703  1.9116 -0.8070 -1.1024
  137MOL0     H18056  -2.640   6.188   7.692 -0.6449  1.9736  3.2658
  137MOL0     H18057  -2.628   6.359   7.750  0.0037  1.7563 -1.6430
  137MOL0     H18058  -2.717   6.290   7.484 -3.3218 -1.6854  1.1774
  137MOL0     H18059  -2.656   6.441   7.537  0.7620  0.0435  0.0736
  137MOL0     H18060  -2.914   6.415   7.539 -1.4266 -1.2972  0.0653
  137MOL0     H18061  -2.850   6.465   7.689 -0.8313  0.4132 -0.5542
  137MOL0     H18062  -2.905   6.173   7.629  1.2524 -1.0812  1.0194
  137MOL0     H18063  -2.845   6.246   7.779  0.5666 -2.1458 -0.1592
  137MOL0     H18064  -3.122   6.310   7.650 -1.5008  4.0287  1.7668
  137MOL0     H18065  -3.069   6.365   7.801  0.9878  1.8248 -1.4541
  137MOL0     H18066  -2.130   6.513   7.356 -2.1975 -1.9678  0.8488
  137MOL0     H18067  -1.866   6.525   7.303  0.4030 -0.2068  0.2463
  137MOL0     H18068  -1.497   6.350   7.395 -0.1205 -0.7561 -0.4013
  137MOL0     H18069  -1.254   6.400   7.380  1.0269 -0.3515 -0.6305
  137MOL0     H18070   0.594   6.146   7.463  0.2143  0.7055  1.2086
  137MOL0     H18071   0.844   6.161   7.402 -2.0099 -1.5537  0.9613
  137MOL0     H18072   1.086   6.462   7.023 -0.2236 -0.6315 -0.3534
  137MOL0     H18073   1.271   6.476   6.886  1.1219  2.2442  2.8846
  137MOL0     H18074   1.500   6.145   6.797 -0.9861  0.7106  0.2470
  137MOL0     H18075   1.593   6.169   6.940  0.3800 -3.1366 -1.7816
  137MOL0     H18076   1.709   6.156   6.695 -0.3739 -1.3781  0.1365
  137MOL0     H18077   1.687   6.336   6.714  1.4448 -0.8648 -0.2064
  137MOL0     H18078   1.830   6.158   6.924  4.0621  1.1938  2.0506
  137MOL0     H18079   1.814   6.337   6.908 -0.2436  0.5813 -2.1540
  137MOL0     H18080   2.037   6.243   6.839 -0.7240  0.7264  0.0521
  137MOL0     H18081   1.947   6.153   6.710  0.3944 -0.0543  0.3730
  137MOL0     H18082   1.911   6.524   6.526  0.2957  0.5963  0.0975
  137MOL0     H18083   1.477   6.166   7.107 -1.6367 -0.2262  1.1346
  137MOL0     H18084   1.285   6.142   7.246  1.1009 -1.1728 -1.1941
  138MOL0     O18085   0.670   7.436   0.080  0.7257 -1.7944  0.8316
  138MOL0     C18086   0.742   7.366   0.143  0.7606  0.9600 -0.3296
  138MOL0     O18087   0.703   7.282   0.253 -0.0987 -0.1273 -0.6964
  138MOL0     C18088   0.566   7.278   0.294 -0.1043 -0.2962  0.5508
  138MOL0     C18089   0.534   7.290   0.430  0.0544 -0.2607  0.1093
  138MOL0     C18090   0.405   7.287   0.469 -0.1805  0.4540  1.3304
  138MOL0     C18091   0.306   7.267   0.382 -0.5261  0.1420  1.0499
  138MOL0     O18092   0.171   7.276   0.409 -0.2225  0.2262  0.2106
  138MOL0     C18093   0.132   7.183   0.520 -0.4349  0.3156 -0.1851
  138MOL0     C18094  -0.013   7.120   0.528  0.6352  0.1232  1.6125
  138MOL0     C18095  -0.015   7.014   0.423  0.4102 -0.1289  0.4959
  138MOL0     C18096  -0.144   6.933   0.430  0.0683 -0.0136 -0.7946
  138MOL0     C18097  -0.142   6.822   0.319  0.2553 -0.1663  0.3381
  138MOL0     C18098  -0.274   6.746   0.328 -0.3594  0.0849 -0.6855
  138MOL0     C18099  -0.407   6.828   0.299 -0.4967  0.1702 -0.0659
  138MOL0     C18100  -0.393   6.933   0.191  0.3140 -0.2495  0.3673
  138MOL0     N18101  -0.523   6.954   0.132 -0.1334  0.9247  0.1904
  138MOL0     C18102  -0.621   7.039   0.173 -0.0386  0.1884 -0.4602
  138MOL0     C18103  -0.694   7.075   0.066  0.9433  0.3023 -0.2742
  138MOL0     C18104  -0.831   7.151   0.049 -0.3316 -0.4534 -0.7422
  138MOL0     C18105  -0.955   7.064   0.089  0.4221 -0.4483 -0.3996
  138MOL0     C18106  -0.977   6.949  -0.008  0.2681  0.1476 -0.0408
  138MOL0     C18107  -1.120   6.883   0.016  0.5089 -1.3467  0.5247
  138MOL0     O18108  -1.107   6.796   0.137  0.3594 -0.4830  0.3465
  138MOL0     C18109  -1.198   6.712   0.186  0.3707  0.6010 -0.3200
  138MOL0     C18110  -1.321   6.679   0.129 -0.2375 -0.5224  0.1690
  138MOL0     C18111  -1.402   6.584   0.196 -0.3563 -0.2940 -0.6525
  138MOL0     C18112  -1.350   6.508   0.304  0.8025  0.3455  0.1992
  138MOL0     C18113  -1.443   6.401   0.361  0.5422 -0.3353  0.8759
  138MOL0     O18114  -1.552   6.360   0.293 -0.7629 -0.0758 -0.6413
  138MOL0     C18115  -1.633   6.264   0.357  0.1064 -0.0669  0.3650
  138MOL0     C18116  -1.661   6.143   0.292  0.0993  0.3407  0.4515
  138MOL0     C18117  -1.760   6.057   0.338 -0.7259 -0.6491  0.3934
  138MOL0     C18118  -1.835   6.087   0.453 -1.1369 -0.6181  0.7621
  138MOL0     O18119  -1.925   5.984   0.499 -0.1856  0.1731  0.6125
  138MOL0     C18120  -1.977   5.986   0.629 -0.5302 -0.0012  1.0797
  138MOL0     C18121  -2.076   6.097   0.649  0.7235 -0.1069 -0.1047
  138MOL0     C18122  -2.213   6.053   0.620  0.1197 -0.0061  0.4720
  138MOL0     C18123  -2.321   6.167   0.636  0.5549  0.2027  0.0356
  138MOL0     C18124  -2.464   6.119   0.604 -0.1623 -0.0231  0.5087
  138MOL0     C18125  -2.564   6.200   0.689 -0.4609  0.0243 -0.5424
  138MOL0     C18126  -2.565   6.351   0.651 -0.0277  0.5308 -0.0785
  138MOL0     C18127  -2.642   6.354   0.519  0.2313  0.6065  0.3850
  138MOL0    Cl18128  -2.690   6.527   0.506  0.1485 -0.0827 -0.4659
  138MOL0     C18129  -1.792   6.197   0.531  0.0980 -0.2041 -0.7224
  138MOL0     C18130  -1.700   6.285   0.483 -0.2430  0.2970  0.4280
  138MOL0     O18131  -1.393   6.351   0.461  0.5071  0.0037 -0.6066
  138MOL0     C18132  -1.228   6.541   0.355 -0.3531 -0.0068 -0.1989
  138MOL0     C18133  -1.155   6.645   0.304  0.1626  0.7888 -0.3065
  138MOL0     N18134  -0.636   6.999  -0.039 -1.0117  0.7486 -0.0535
  138MOL0     N18135  -0.537   6.926   0.004  0.7813 -0.0666  0.4386
  138MOL0     C18136   0.331   7.240   0.245 -0.4553  0.1032  1.4853
  138MOL0     C18137   0.465   7.247   0.198 -0.7064 -0.3376  0.6307
  138MOL0     C18138   0.883   7.349   0.108 -0.5987 -0.5450  0.7824
  138MOL0     C18139   0.935   7.433   0.010  0.5345 -1.0276  0.5141
  138MOL0     C18140   1.066   7.429  -0.032 -0.4971  0.8386  0.4075
  138MOL0     C18141   1.146   7.324   0.013  0.8985  0.2305 -0.0134
  138MOL0     O18142   1.274   7.310  -0.037  0.1541  0.3867  0.6521
  138MOL0     C18143   1.328   7.176  -0.072  0.0755  0.0801 -0.4929
  138MOL0     C18144   1.468   7.169  -0.017 -0.0335  0.9472 -0.1316
  138MOL0     C18145   1.490   7.195   0.133 -0.4974  0.1053 -0.5946
  138MOL0     C18146   1.632   7.244   0.156  0.2411 -0.0874  0.0137
  138MOL0     C18147   1.642   7.289   0.297 -0.3189 -0.7534 -0.0254
  138MOL0     C18148   1.658   7.322   0.411 -0.5552 -0.0764  0.4925
  138MOL0     C18149   1.088   7.245   0.115 -0.5790  0.3704 -0.0002
  138MOL0     C18150   0.965   7.252   0.160 -0.5456  0.7741 -0.8568
  138MOL0     H18151   0.605   7.308   0.511 -0.8829 -1.6960  1.2966
  138MOL0     H18152   0.381   7.302   0.574 -0.2765  2.8510  1.0071
  138MOL0     H18153   0.152   7.217   0.622  0.4652 -5.3167  1.9089
  138MOL0     H18154   0.202   7.099   0.525  0.3259  0.9951  1.0008
  138MOL0     H18155  -0.095   7.189   0.508 -0.9819 -1.8580  0.9903
  138MOL0     H18156  -0.019   7.071   0.626  0.3083 -4.5567 -0.4722
  138MOL0     H18157   0.068   6.943   0.435  1.3636  0.8180 -0.2806
  138MOL0     H18158  -0.003   7.058   0.324  0.5523 -1.2552 -0.0032
  138MOL0     H18159  -0.160   6.896   0.532 -1.4295  0.5605 -0.7956
  138MOL0     H18160  -0.229   7.002   0.420 -2.1451 -2.1165  1.6387
  138MOL0     H18161  -0.053   6.760   0.326  1.9037  1.9475 -0.5975
  138MOL0     H18162  -0.137   6.877   0.224 -0.2811  0.3553  0.6039
  138MOL0     H18163  -0.280   6.726   0.435  0.3682 -0.5652 -0.7627
  138MOL0     H18164  -0.257   6.653   0.273  0.0729  0.3691 -1.0417
  138MOL0     H18165  -0.481   6.756   0.264  0.6828 -0.4438 -1.3757
  138MOL0     H18166  -0.440   6.867   0.396  2.8512  0.8632  0.9081
  138MOL0     H18167  -0.323   6.909   0.110 -1.8778 -2.6452 -0.9724
  138MOL0     H18168  -0.356   7.026   0.233 -0.3434 -0.7509  2.1288
  138MOL0     H18169  -0.642   7.088   0.267 -0.9914  2.2035 -1.6520
  138MOL0     H18170  -0.846   7.183  -0.054 -2.3027 -1.6148 -0.8723
  138MOL0     H18171  -0.839   7.228   0.127 -1.5901 -0.2988 -1.0033
  138MOL0     H18172  -1.043   7.125   0.112  2.6999  2.2172  2.1082
  138MOL0     H18173  -0.938   7.018   0.187 -1.8059  0.2121  0.3614
  138MOL0     H18174  -0.960   6.989  -0.108  2.0215  1.0297  0.5767
  138MOL0     H18175  -0.901   6.872   0.007 -1.3517 -2.0647 -2.3247
  138MOL0     H18176  -1.148   6.819  -0.068 -1.0689  1.9617 -1.6521
  138MOL0     H18177  -1.198   6.958   0.028  0.7814 -0.8055 -0.8846
  138MOL0     H18178  -1.345   6.730   0.036  1.7532 -3.0943 -1.8909
  138MOL0     H18179  -1.504   6.593   0.160 -0.4431  0.8786 -0.1599
  138MOL0     H18180  -1.608   6.129   0.198 -0.5760 -0.6218  0.1923
  138MOL0     H18181  -1.783   5.960   0.296 -2.2742 -0.3252  0.4351
  138MOL0     H18182  -1.898   5.999   0.704  0.8805  0.2812 -0.3812
  138MOL0     H18183  -2.021   5.890   0.655 -1.6315  0.9244  2.8238
  138MOL0     H18184  -2.055   6.181   0.582 -1.1853  2.3335  2.1476
  138MOL0     H18185  -2.073   6.134   0.752 -0.2737 -2.0157  0.6574
  138MOL0     H18186  -2.238   5.978   0.696 -0.9955  3.0194  3.3520
  138MOL0     H18187  -2.218   6.012   0.519  0.4236  0.7172  0.1579
  138MOL0     H18188  -2.322   6.187   0.744 -1.1219 -0.9402  0.2758
  138MOL0     H18189  -2.287   6.259   0.589  2.6836 -0.9482 -0.8685
  138MOL0     H18190  -2.472   6.012   0.628 -3.4909  0.0483  0.1697
  138MOL0     H18191  -2.492   6.128   0.499  1.1411  0.7390  0.2031
  138MOL0     H18192  -2.530   6.199   0.793  1.1391  0.2791 -1.0410
  138MOL0     H18193  -2.658   6.145   0.678 -0.1281 -0.1199 -3.4368
  138MOL0     H18194  -2.611   6.405   0.734 -1.4539 -1.3511  0.4536
  138MOL0     H18195  -2.466   6.395   0.641  0.9273 -0.8607  2.4256
  138MOL0     H18196  -2.732   6.292   0.525  0.8728 -0.5153 -0.9370
  138MOL0     H18197  -2.585   6.326   0.431 -2.1692 -1.6626 -0.5778
  138MOL0     H18198  -1.830   6.216   0.631  0.0485  1.3126 -0.9983
  138MOL0     H18199  -1.668   6.375   0.533  3.7780 -0.7529  0.1435
  138MOL0     H18200  -1.186   6.494   0.443  1.3390  1.3250 -0.2280
  138MOL0     H18201  -1.069   6.687   0.356  0.1927  0.3314  0.0214
  138MOL0     H18202   0.254   7.217   0.172 -0.6926 -0.6031  1.9460
  138MOL0     H18203   0.485   7.242   0.092 -1.2379  0.1737  0.5034
  138MOL0     H18204   0.872   7.513  -0.026 -0.8661 -0.8372  3.1275
  138MOL0     H18205   1.100   7.486  -0.119 -1.4668  1.3049  0.3185
  138MOL0     H18206   1.320   7.151  -0.178  0.8643 -0.1687 -0.4995
  138MOL0     H18207   1.271   7.100  -0.018  1.7049  0.3615  1.7558
  138MOL0     H18208   1.510   7.070  -0.039 -0.4888  0.9390 -0.9789
  138MOL0     H18209   1.529   7.242  -0.070  1.1830 -0.0456 -0.1608
  138MOL0     H18210   1.471   7.107   0.195 -2.2384  1.0250  0.2553
  138MOL0     H18211   1.410   7.259   0.171 -2.2310 -2.7280  0.8601
  138MOL0     H18212   1.711   7.169   0.153 -0.5375 -0.9676  0.9174
  138MOL0     H18213   1.654   7.323   0.084  0.2908 -0.3795 -0.2896
  138MOL0     H18214   1.690   7.355   0.508  0.0261  2.8561 -0.6013
  138MOL0     H18215   1.159   7.173   0.155  2.9205  1.7984 -3.0352
  138MOL0     H18216   0.925   7.185   0.236 -1.3799  1.1398 -0.9648
  139MOL0     O18217   8.207   9.049   6.547  0.3689  0.4738 -0.2200
  139MOL0     C18218   8.239   9.055   6.669 -1.2235 -0.7261 -0.8999
  139MOL0     O18219   8.161   9.029   6.772 -0.2687 -1.0113 -0.4465
  139MOL0     C18220   8.022   9.015   6.749 -0.8751 -0.2700 -0.2007
  139MOL0     C18221   7.933   9.117   6.792  0.0478 -1.3829  0.5733
  139MOL0     C18222   7.797   9.117   6.752 -0.5719  0.2955 -0.0613
  139MOL0     C18223   7.750   9.016   6.670 -0.3767  0.5317  0.7101
  139MOL0     O18224   7.620   9.018   6.624  0.4996 -0.7642  0.2449
  139MOL0     C18225   7.525   8.920   6.676  0.0575  0.0763 -0.1910
  139MOL0     C18226   7.392   8.966   6.723 -0.6355  0.0527 -1.2214
  139MOL0     C18227   7.286   8.853   6.738  0.5749 -0.0169 -0.0608
  139MOL0     C18228   7.162   8.917   6.794  0.0203 -0.1825 -0.0163
  139MOL0     C18229   7.046   8.818   6.820 -1.4444  0.1396 -1.0335
  139MOL0     C18230   7.081   8.684   6.887  0.6821 -0.4852 -0.3771
  139MOL0     C18231   6.960   8.614   6.956 -0.6244 -0.6368  0.1886
  139MOL0     C18232   6.991   8.561   7.096  0.4792  0.8324  0.3616
  139MOL0     N18233   6.869   8.558   7.175 -0.0463  0.1881  0.0425
  139MOL0     C18234   6.763   8.471   7.162 -0.2786  0.3282  0.2904
  139MOL0     C18235   6.671   8.517   7.248  0.2916  0.8064  0.8503
  139MOL0     C18236   6.555   8.446   7.292  0.3028  0.0025 -0.3631
  139MOL0     C18237   6.438   8.541   7.329  0.9694  0.1697  0.2860
  139MOL0     C18238   6.322   8.455   7.382 -0.7420 -0.0715  0.5392
  139MOL0     C18239   6.199   8.543   7.418  0.6289  0.8644 -0.5572
  139MOL0     O18240   6.107   8.561   7.304  0.2371 -0.2991  0.3402
  139MOL0     C18241   5.967   8.547   7.306  0.2043 -0.7107  0.3640
  139MOL0     C18242   5.888   8.528   7.425 -0.3079  0.0016 -0.4011
  139MOL0     C18243   5.754   8.519   7.428  1.2673 -0.2411 -0.4497
  139MOL0     C18244   5.683   8.543   7.307 -0.1771  0.4639 -0.7615
  139MOL0     C18245   5.539   8.540   7.297  0.2585 -0.7795 -0.2641
  139MOL0     O18246   5.483   8.554   7.175  0.2233  0.1372 -0.1322
  139MOL0     C18247   5.348   8.537   7.156  0.8182  0.6257 -0.1622
  139MOL0     C18248   5.267   8.431   7.203 -0.5597 -0.3395  0.4020
  139MOL0     C18249   5.135   8.410   7.167 -0.1905 -0.8991 -0.5979
  139MOL0     C18250   5.063   8.510   7.101 -0.0202 -0.7849 -0.1586
  139MOL0     O18251   4.926   8.521   7.076  0.3568 -0.6322  0.4276
  139MOL0     C18252   4.835   8.419   7.116 -0.4809 -0.1098 -1.3557
  139MOL0     C18253   4.696   8.429   7.048  0.5716 -0.5154  0.8574
  139MOL0     C18254   4.613   8.542   7.103  1.9384  0.4511  0.8219
  139MOL0     C18255   4.464   8.525   7.066 -0.3131 -0.4346 -0.3726
  139MOL0     C18256   4.379   8.625   7.138  0.3783 -0.0403 -0.0188
  139MOL0     C18257   4.239   8.619   7.074 -0.7806 -0.0801 -0.6216
  139MOL0     C18258   4.148   8.706   7.158 -0.3171  0.0028 -0.3589
  139MOL0     C18259   4.004   8.649   7.140  0.2362 -0.5447  0.8641
  139MOL0    Cl18260   3.904   8.694   7.277  0.5971 -0.3147  0.3065
  139MOL0     C18261   5.141   8.612   7.044 -0.0538  0.6560  0.0548
  139MOL0     C18262   5.286   8.624   7.067  1.1165 -0.2645  0.0442
  139MOL0     O18263   5.478   8.522   7.398 -0.3251 -1.0509  1.0348
  139MOL0     C18264   5.761   8.568   7.192 -1.0493  0.1002 -0.0919
  139MOL0     C18265   5.899   8.573   7.190  0.3624 -0.0500  0.0134
  139MOL0     N18266   6.716   8.637   7.306 -1.3624  0.5654  0.3957
  139MOL0     N18267   6.838   8.658   7.269  0.0324  0.2470  0.4510
  139MOL0     C18268   7.839   8.904   6.635 -0.3889 -0.1950  0.0372
  139MOL0     C18269   7.971   8.905   6.680 -0.2246  0.3928  0.0113
  139MOL0     C18270   8.375   9.101   6.714  0.7330 -1.9481  0.3088
  139MOL0     C18271   8.429   9.092   6.843 -0.2816 -0.0729 -0.0091
  139MOL0     C18272   8.539   9.166   6.884  0.0967 -0.8658 -0.1897
  139MOL0     C18273   8.601   9.253   6.791  0.4877  0.2758 -0.3858
  139MOL0     O18274   8.708   9.330   6.843  0.6253  0.8675 -0.1707
  139MOL0     C18275   8.788   9.386   6.744 -1.0985 -0.6458  0.2126
  139MOL0     C18276   8.887   9.452   6.836 -0.0110  0.5349  0.7030
  139MOL0     C18277   8.986   9.353   6.908 -0.2887  0.6013  0.3405
  139MOL0     C18278   9.112   9.311   6.831  0.1739  0.2267  0.0978
  139MOL0     C18279   9.183   9.198   6.899  0.4284 -0.0605 -0.6519
  139MOL0     C18280   9.254   9.110   6.947  0.6979  0.7622 -0.0924
  139MOL0     C18281   8.549   9.272   6.662  0.4055  0.4144 -0.6819
  139MOL0     C18282   8.441   9.191   6.622 -0.0308 -0.0273  0.1759
  139MOL0     H18283   7.970   9.191   6.861 -2.5231 -1.4906  2.1923
  139MOL0     H18284   7.734   9.191   6.800 -0.5782  0.1549  0.1474
  139MOL0     H18285   7.576   8.875   6.762 -1.4062  3.4386  2.6779
  139MOL0     H18286   7.509   8.854   6.590  0.1511 -0.5829  0.2869
  139MOL0     H18287   7.368   9.046   6.653 -0.0013  0.4367 -1.0151
  139MOL0     H18288   7.408   9.023   6.815  0.0127 -0.4352 -1.0162
  139MOL0     H18289   7.318   8.782   6.815  1.9804 -3.3444 -3.4297
  139MOL0     H18290   7.258   8.800   6.647 -0.8748 -1.2713  1.0548
  139MOL0     H18291   7.181   8.976   6.885  0.1249  0.4214 -0.4261
  139MOL0     H18292   7.121   8.986   6.720 -1.4024 -0.9983 -0.0092
  139MOL0     H18293   6.993   8.794   6.728 -1.8155 -3.9025  0.0289
  139MOL0     H18294   6.988   8.882   6.887  1.0750  1.5443 -0.0254
  139MOL0     H18295   7.164   8.700   6.957 -0.0538  0.2520  0.3497
  139MOL0     H18296   7.124   8.625   6.805  2.6930  0.4471 -0.0588
  139MOL0     H18297   6.877   8.685   6.960 -0.8431 -0.9400  1.4684
  139MOL0     H18298   6.919   8.530   6.898 -2.6310 -0.3659  1.1490
  139MOL0     H18299   7.069   8.622   7.143 -0.0196  0.7649  1.2854
  139MOL0     H18300   7.028   8.458   7.091  1.0206  1.0858 -1.8222
  139MOL0     H18301   6.755   8.370   7.122  0.2470 -0.7455  2.7504
  139MOL0     H18302   6.588   8.392   7.382  0.7125  1.9575  0.7264
  139MOL0     H18303   6.510   8.384   7.214  1.5476 -0.8991 -0.3909
  139MOL0     H18304   6.393   8.590   7.242 -4.7011 -3.0800  0.8964
  139MOL0     H18305   6.473   8.615   7.402  0.5531 -0.8271  1.5566
  139MOL0     H18306   6.296   8.383   7.304 -0.9745 -1.7150  2.0669
  139MOL0     H18307   6.352   8.398   7.471 -2.8586  0.3346  1.5709
  139MOL0     H18308   6.236   8.639   7.452 -0.5847  0.5311  1.8859
  139MOL0     H18309   6.147   8.497   7.502  0.5297  0.0142 -1.0680
  139MOL0     H18310   5.942   8.519   7.519 -0.3348 -1.0910 -0.4796
  139MOL0     H18311   5.702   8.475   7.512  2.1610 -3.1997 -1.3201
  139MOL0     H18312   5.315   8.348   7.252  0.6072 -0.2050 -0.4885
  139MOL0     H18313   5.073   8.326   7.198  1.0660 -1.5651  0.1762
  139MOL0     H18314   4.827   8.423   7.225  1.0949 -1.1482 -1.1701
  139MOL0     H18315   4.881   8.323   7.089  0.5671 -0.0670  0.1543
  139MOL0     H18316   4.645   8.333   7.062 -3.1672  0.9504 -1.1774
  139MOL0     H18317   4.712   8.434   6.940 -0.4353 -0.2170  0.7115
  139MOL0     H18318   4.652   8.634   7.058  2.2865  0.0235  0.2337
  139MOL0     H18319   4.614   8.530   7.212 -0.5610 -0.9090  0.7578
  139MOL0     H18320   4.455   8.536   6.957  1.2598  0.1822 -0.4612
  139MOL0     H18321   4.441   8.426   7.107  2.3780 -1.1574 -0.4322
  139MOL0     H18322   4.430   8.722   7.128 -0.8226  0.5111 -1.1557
  139MOL0     H18323   4.381   8.601   7.244  1.2605 -1.4048 -0.3119
  139MOL0     H18324   4.211   8.514   7.059  1.4162 -0.7716 -0.2666
  139MOL0     H18325   4.250   8.657   6.972  0.2285  0.4006 -0.3525
  139MOL0     H18326   4.183   8.708   7.261  0.6512 -0.6708 -0.6649
  139MOL0     H18327   4.141   8.810   7.124  0.4323 -0.5419 -2.3057
  139MOL0     H18328   4.002   8.540   7.154 -0.2394 -0.3336  2.7061
  139MOL0     H18329   3.961   8.675   7.043  0.2535 -0.5074  0.8664
  139MOL0     H18330   5.076   8.689   7.003 -4.2704 -2.1527  0.9151
  139MOL0     H18331   5.345   8.710   7.038 -0.4740  0.1855 -2.2103
  139MOL0     H18332   5.708   8.593   7.100 -2.2033 -0.7802  0.3085
  139MOL0     H18333   5.956   8.588   7.099 -0.9434 -1.9475 -1.1972
  139MOL0     H18334   7.808   8.811   6.587 -1.2662  0.1129 -0.0141
  139MOL0     H18335   8.031   8.821   6.649 -2.7687 -0.8982 -1.7650
  139MOL0     H18336   8.382   9.026   6.915 -1.8550  0.3436 -0.6151
  139MOL0     H18337   8.582   9.156   6.983  0.2351 -4.0189 -0.4549
  139MOL0     H18338   8.743   9.471   6.692 -1.7558 -0.8070  0.5014
  139MOL0     H18339   8.835   9.323   6.668  3.5055  2.2306  0.3430
  139MOL0     H18340   8.947   9.522   6.777 -1.4958  1.9353  0.7869
  139MOL0     H18341   8.840   9.522   6.906 -0.2608  0.7084  0.3653
  139MOL0     H18342   8.927   9.270   6.948 -4.5676  1.1838 -3.9174
  139MOL0     H18343   9.019   9.410   6.996 -0.8489  2.7845 -0.8152
  139MOL0     H18344   9.071   9.281   6.734  0.9197 -0.0526 -0.1387
  139MOL0     H18345   9.170   9.404   6.825 -0.9787  0.8870 -2.1624
  139MOL0     H18346   9.317   9.044   7.002  0.7329  1.0645  0.2335
  139MOL0     H18347   8.595   9.345   6.597  4.2860  1.2971  2.6094
  139MOL0     H18348   8.404   9.207   6.521 -2.4457  2.7335  1.3302
  140MOL0     O18349   4.747   8.900   8.169  0.1165  0.4349 -0.1352
  140MOL0     C18350   4.690   9.003   8.204  0.5084 -0.2002  0.3741
  140MOL0     O18351   4.556   9.035   8.207 -0.3717 -0.4012  0.0632
  140MOL0     C18352   4.476   8.944   8.153 -0.1701  0.7968  0.1336
  140MOL0     C18353   4.362   8.897   8.218  0.3467 -0.1528  0.2460
  140MOL0     C18354   4.277   8.807   8.151  0.2294 -1.1410 -0.3005
  140MOL0     C18355   4.298   8.764   8.026  0.2075 -0.0222 -0.1893
  140MOL0     O18356   4.215   8.664   7.979 -0.1473 -0.5649 -0.4523
  140MOL0     C18357   4.277   8.538   7.940  0.9759  0.7020 -0.4200
  140MOL0     C18358   4.168   8.427   7.941 -0.0959  0.1936 -0.1798
  140MOL0     C18359   4.077   8.441   8.063  0.1949  0.4048 -0.2635
  140MOL0     C18360   4.147   8.434   8.196 -0.9051 -0.4560 -0.0233
  140MOL0     C18361   4.061   8.378   8.313 -0.0948  0.2855 -0.5941
  140MOL0     C18362   4.126   8.394   8.449 -0.0523  0.3753  0.7731
  140MOL0     C18363   4.073   8.310   8.557  0.3484  0.6544 -0.5855
  140MOL0     C18364   3.917   8.336   8.567  0.4104 -1.1294 -0.1088
  140MOL0     N18365   3.869   8.286   8.696 -0.4194 -0.7721  0.9909
  140MOL0     C18366   3.835   8.362   8.804 -0.9892  0.0453 -0.4293
  140MOL0     C18367   3.799   8.271   8.897 -0.6429  0.6486 -0.1004
  140MOL0     C18368   3.769   8.299   9.039 -0.4831 -1.3414  0.5240
  140MOL0     C18369   3.894   8.301   9.128  0.2865 -0.1142 -0.2316
  140MOL0     C18370   3.909   8.430   9.215  0.0396 -1.1712  0.2179
  140MOL0     C18371   3.964   8.562   9.148 -0.3031 -0.0716 -0.1617
  140MOL0     O18372   3.872   8.607   9.042 -0.5946  0.4294 -0.8905
  140MOL0     C18373   3.747   8.649   9.076 -0.0675  0.0525 -0.0220
  140MOL0     C18374   3.652   8.663   8.972 -0.3305  0.2493 -0.4800
  140MOL0     C18375   3.522   8.699   9.006  1.0361 -0.5616  0.3348
  140MOL0     C18376   3.483   8.735   9.137 -0.7837 -0.1495  0.2069
  140MOL0     C18377   3.350   8.773   9.183 -0.7397  0.1095  0.5312
  140MOL0     O18378   3.255   8.748   9.084  0.4760 -0.2419  0.1008
  140MOL0     C18379   3.117   8.758   9.099 -0.0835 -0.1238  0.1004
  140MOL0     C18380   3.030   8.668   9.165 -0.0452 -0.1405  0.4015
  140MOL0     C18381   2.892   8.688   9.177 -0.5891 -0.2895  1.0786
  140MOL0     C18382   2.833   8.802   9.124 -0.2126  0.1350  0.5530
  140MOL0     O18383   2.703   8.823   9.153 -0.6630  0.1985 -0.4571
  140MOL0     C18384   2.652   8.951   9.119  1.5892  0.9293  1.0791
  140MOL0     C18385   2.518   8.966   9.210  0.2534  0.4150 -1.0278
  140MOL0     C18386   2.413   8.860   9.167 -0.2026 -0.9295  0.6283
  140MOL0     C18387   2.284   8.868   9.233  0.9410 -0.2340  0.3213
  140MOL0     C18388   2.186   8.962   9.159 -0.0349  0.1922 -0.5988
  140MOL0     C18389   2.041   8.954   9.229 -0.6947 -0.7343  0.5687
  140MOL0     C18390   2.002   9.084   9.304 -0.7086 -0.5828 -0.0787
  140MOL0     C18391   1.928   9.050   9.429  0.8379 -0.6917 -0.5328
  140MOL0    Cl18392   1.853   9.199   9.484  0.2133  0.6859 -0.0820
  140MOL0     C18393   2.908   8.885   9.040  0.4729  0.2902 -0.0315
  140MOL0     C18394   3.049   8.866   9.033 -0.2016 -0.2732 -1.1215
  140MOL0     O18395   3.326   8.833   9.288  0.1627  0.9139  0.1344
  140MOL0     C18396   3.584   8.741   9.231  0.2937 -0.1412 -0.5999
  140MOL0     C18397   3.712   8.698   9.202 -0.3741 -0.7442  0.0524
  140MOL0     N18398   3.806   8.144   8.840 -0.0466 -0.2647 -0.1417
  140MOL0     N18399   3.845   8.159   8.715  0.1426  0.2970 -0.1435
  140MOL0     C18400   4.403   8.808   7.958  0.8794  0.0611  0.8066
  140MOL0     C18401   4.495   8.897   8.019 -0.4306 -0.8844  0.3381
  140MOL0     C18402   4.781   9.098   8.270 -0.1272 -0.7082 -0.2394
  140MOL0     C18403   4.735   9.210   8.337  0.6486  0.1578 -1.2165
  140MOL0     C18404   4.822   9.293   8.398  0.2425  0.0205  0.3088
  140MOL0     C18405   4.965   9.279   8.382 -0.2559  0.7103 -0.2503
  140MOL0     O18406   5.051   9.360   8.456  0.0485  0.1942  0.2528
  140MOL0     C18407   5.118   9.476   8.399  0.6800  1.0492 -0.3727
  140MOL0     C18408   5.240   9.460   8.308  0.1037  0.0930 -0.3333
  140MOL0     C18409   5.357   9.393   8.371 -0.3199  0.2958  0.1361
  140MOL0     C18410   5.380   9.439   8.512 -0.0917 -0.4111 -0.1188
  140MOL0     C18411   5.509   9.407   8.574 -0.2294 -0.7115 -0.9211
  140MOL0     C18412   5.616   9.413   8.641  0.5938  0.0859  0.0311
  140MOL0     C18413   5.008   9.172   8.305  0.2870  0.5425  0.5666
  140MOL0     C18414   4.919   9.089   8.249 -0.2892 -0.3487 -1.0861
  140MOL0     H18415   4.347   8.938   8.318 -0.3821  0.2078 -0.0001
  140MOL0     H18416   4.201   8.763   8.215 -0.3177  1.5808  1.0727
  140MOL0     H18417   4.354   8.518   8.016 -0.3481  0.5990  0.9433
  140MOL0     H18418   4.319   8.567   7.843  0.8764 -0.0240 -0.6911
  140MOL0     H18419   4.225   8.334   7.944 -1.6076 -0.9445 -2.9450
  140MOL0     H18420   4.113   8.423   7.847  1.9774 -1.3152 -1.4169
  140MOL0     H18421   4.003   8.360   8.067  1.1031 -0.4464 -0.2505
  140MOL0     H18422   4.024   8.535   8.046  3.5427  2.2790 -1.1527
  140MOL0     H18423   4.235   8.371   8.184  0.0893  0.7848  0.5318
  140MOL0     H18424   4.187   8.532   8.222  0.6109 -1.1725  0.4592
  140MOL0     H18425   4.029   8.274   8.300 -0.7011  0.3366  0.3334
  140MOL0     H18426   3.969   8.438   8.315 -1.3356 -1.3553 -3.0092
  140MOL0     H18427   4.116   8.499   8.478  0.5253  0.8606 -0.6636
  140MOL0     H18428   4.231   8.363   8.447  0.5428  2.2206 -0.2434
  140MOL0     H18429   4.099   8.204   8.547 -1.6683 -0.4306  3.3896
  140MOL0     H18430   4.120   8.337   8.652 -2.0489 -1.5445  1.3639
  140MOL0     H18431   3.864   8.291   8.483 -2.1691  1.4486 -0.0277
  140MOL0     H18432   3.879   8.439   8.569  0.1738 -1.2054  1.5664
  140MOL0     H18433   3.841   8.465   8.837 -3.9436  0.0388  0.4402
  140MOL0     H18434   3.707   8.223   9.088 -0.5416 -1.6043  0.0476
  140MOL0     H18435   3.725   8.400   9.040 -1.3644 -1.7029  2.5329
  140MOL0     H18436   3.983   8.306   9.064  0.9213  0.0381  0.6527
  140MOL0     H18437   3.894   8.214   9.194 -4.0990 -1.1327 -1.2448
  140MOL0     H18438   3.814   8.445   9.268 -0.4582 -1.3658 -0.6010
  140MOL0     H18439   3.982   8.406   9.293  2.4010  1.0238 -1.1778
  140MOL0     H18440   4.063   8.539   9.107  1.1401  0.6381  2.6762
  140MOL0     H18441   3.978   8.640   9.224  2.2712 -1.4819  0.9455
  140MOL0     H18442   3.666   8.637   8.868  1.5773  0.3554 -0.2783
  140MOL0     H18443   3.451   8.715   8.926  0.8384  1.1857  0.8083
  140MOL0     H18444   3.078   8.585   9.216 -1.0658 -0.7230  0.4233
  140MOL0     H18445   2.834   8.621   9.240 -1.8612  1.0555  1.3725
  140MOL0     H18446   2.635   8.953   9.012  0.1522  2.1055  1.3029
  140MOL0     H18447   2.726   9.027   9.147  1.8258  0.8958  0.5383
  140MOL0     H18448   2.476   9.067   9.212  2.2055  1.3296 -2.1775
  140MOL0     H18449   2.549   8.935   9.310 -3.2009 -1.9651 -0.5326
  140MOL0     H18450   2.460   8.766   9.199 -1.4819 -1.4137  1.1590
  140MOL0     H18451   2.393   8.849   9.060 -0.3890 -2.7726  0.8209
  140MOL0     H18452   2.228   8.775   9.218  1.1307 -0.1557 -1.0534
  140MOL0     H18453   2.306   8.876   9.339  2.2869 -4.9327  0.6285
  140MOL0     H18454   2.178   8.937   9.053  1.2283  1.6187 -1.0494
  140MOL0     H18455   2.218   9.066   9.162 -1.7181  0.7997 -1.9761
  140MOL0     H18456   2.035   8.873   9.302 -0.3661  0.3940  1.8872
  140MOL0     H18457   1.968   8.942   9.148 -0.4471 -1.7913  0.4762
  140MOL0     H18458   2.091   9.147   9.316 -2.6755  2.5316 -0.6838
  140MOL0     H18459   1.928   9.137   9.243 -0.4850  0.2140  0.3224
  140MOL0     H18460   2.001   9.009   9.499  1.1304  1.2371  0.3448
  140MOL0     H18461   1.845   8.979   9.427 -1.1746  1.5120  0.1182
  140MOL0     H18462   2.865   8.976   8.998 -1.8962 -0.2697  1.0266
  140MOL0     H18463   3.103   8.946   8.984 -0.6369  4.4752  4.9451
  140MOL0     H18464   3.558   8.765   9.334 -1.5823  0.6954 -1.2181
  140MOL0     H18465   3.772   8.722   9.288 -2.6609  3.8630  0.6583
  140MOL0     H18466   4.409   8.786   7.852  4.2131  0.6148  0.7701
  140MOL0     H18467   4.579   8.940   7.968 -1.0119  2.1644  1.7121
  140MOL0     H18468   4.629   9.224   8.353  0.2460 -3.5097  0.3256
  140MOL0     H18469   4.794   9.392   8.434  1.1079 -0.2832  1.8846
  140MOL0     H18470   5.143   9.549   8.477  0.9690 -0.5573  1.1116
  140MOL0     H18471   5.046   9.533   8.339  0.2373  2.2735  1.2427
  140MOL0     H18472   5.211   9.420   8.211  2.7593 -1.1382 -0.7077
  140MOL0     H18473   5.276   9.559   8.279  0.4801 -0.0617 -0.4015
  140MOL0     H18474   5.448   9.415   8.314  1.6615 -4.1331  1.1265
  140MOL0     H18475   5.344   9.285   8.367 -0.1509  0.2190  1.1671
  140MOL0     H18476   5.375   9.548   8.516 -0.4916 -0.4562  0.5507
  140MOL0     H18477   5.297   9.407   8.574  0.5702  2.3064  2.3977
  140MOL0     H18478   5.705   9.422   8.700  0.6288 -0.4798  0.0654
  140MOL0     H18479   5.113   9.148   8.293  0.2264  0.6438 -0.2694
  140MOL0     H18480   4.968   9.001   8.209  1.5298 -2.1517  4.2302
  141MOL0     O18481  11.196   5.396   7.543 -0.6940  0.7624  0.5937
  141MOL0     C18482  11.176   5.276   7.511  0.1906 -0.6654 -0.5499
  141MOL0     O18483  11.063   5.230   7.476 -0.0698 -0.2206  0.1916
  141MOL0     C18484  10.952   5.312   7.500  0.7426 -0.2351  0.3063
  141MOL0     C18485  10.869   5.285   7.603  0.0588  0.5956  0.1321
  141MOL0     C18486  10.740   5.341   7.606  0.7966 -0.6268 -1.2244
  141MOL0     C18487  10.700   5.420   7.504 -0.6364  0.1618  0.1721
  141MOL0     O18488  10.569   5.457   7.505 -0.4091  0.0532  0.3163
  141MOL0     C18489  10.509   5.534   7.387 -0.6190  0.6281 -0.0024
  141MOL0     C18490  10.369   5.577   7.389  0.5439  0.2406  0.1145
  141MOL0     C18491  10.326   5.665   7.516  0.5078 -0.0548  1.2886
  141MOL0     C18492  10.179   5.685   7.502  0.2446 -0.7864  0.3834
  141MOL0     C18493  10.130   5.795   7.603  0.3920 -0.3526 -0.4058
  141MOL0     C18494   9.973   5.803   7.614  0.0361 -0.2500 -0.0495
  141MOL0     C18495   9.892   5.820   7.476 -0.0286 -0.8172 -0.9329
  141MOL0     C18496   9.912   5.970   7.435  0.4723  0.7943 -0.9116
  141MOL0     N18497   9.848   6.073   7.516  0.4625 -0.1407 -0.3866
  141MOL0     C18498   9.712   6.092   7.509  0.2564 -0.9348  0.5129
  141MOL0     C18499   9.689   6.180   7.607 -1.2878  0.5043 -1.0053
  141MOL0     C18500   9.558   6.249   7.661 -0.9591 -0.1001  0.2482
  141MOL0     C18501   9.564   6.397   7.650  0.2557 -0.4174  0.4265
  141MOL0     C18502   9.480   6.469   7.758 -0.3745 -0.6892  0.4910
  141MOL0     C18503   9.487   6.617   7.724  0.3131 -0.8018  0.4482
  141MOL0     O18504   9.388   6.696   7.800  0.1401  0.5972 -0.2523
  141MOL0     C18505   9.254   6.671   7.806 -0.1023  0.2116 -0.9626
  141MOL0     C18506   9.198   6.703   7.926 -0.0358 -0.2049  0.2491
  141MOL0     C18507   9.056   6.706   7.953 -0.1672  0.2127  0.0565
  141MOL0     C18508   8.974   6.668   7.840  0.3441 -0.2150  0.2609
  141MOL0     C18509   8.827   6.632   7.856 -0.5244 -0.1693 -0.1187
  141MOL0     O18510   8.794   6.632   7.989  0.0439 -0.3241  0.4784
  141MOL0     C18511   8.672   6.581   8.013  0.0438  0.1758 -0.6023
  141MOL0     C18512   8.550   6.658   8.001 -1.1380 -0.3622  0.8357
  141MOL0     C18513   8.430   6.596   8.002  0.5841  0.7288  0.4916
  141MOL0     C18514   8.420   6.457   8.025 -0.5078  0.9415  1.1984
  141MOL0     O18515   8.298   6.393   8.054  0.4419 -0.8716 -0.5711
  141MOL0     C18516   8.171   6.453   8.078  1.3892 -0.7381 -0.9270
  141MOL0     C18517   8.081   6.350   8.153  0.2008 -0.8052  0.4966
  141MOL0     C18518   7.955   6.421   8.193  1.5943  0.2079  0.4056
  141MOL0     C18519   7.857   6.344   8.286  0.3668  1.0615  0.0951
  141MOL0     C18520   7.711   6.391   8.264  0.0349  0.1654  0.5237
  141MOL0     C18521   7.678   6.533   8.295  0.3681  0.1084  0.6977
  141MOL0     C18522   7.698   6.571   8.441 -0.5122  0.6918 -0.7336
  141MOL0     C18523   7.660   6.714   8.464 -0.4697 -0.2565  0.3837
  141MOL0    Cl18524   7.679   6.739   8.636 -0.2231  0.5308  0.2895
  141MOL0     C18525   8.537   6.375   8.026  0.0507 -0.3443 -0.4240
  141MOL0     C18526   8.664   6.438   8.017 -0.3178  0.1938 -0.6308
  141MOL0     O18527   8.753   6.607   7.757 -0.3356  0.3403  0.3626
  141MOL0     C18528   9.038   6.626   7.721  0.0098 -0.4120 -0.0198
  141MOL0     C18529   9.173   6.641   7.708  0.2060  0.1459 -0.1790
  141MOL0     N18530   9.806   6.214   7.667  0.3830  0.4452 -0.0456
  141MOL0     N18531   9.896   6.144   7.609 -0.4188 -0.4886 -0.0599
  141MOL0     C18532  10.786   5.454   7.398  0.7837  0.6889 -0.7731
  141MOL0     C18533  10.916   5.407   7.401 -0.6767  0.2482  0.4277
  141MOL0     C18534  11.288   5.184   7.500  0.7735  0.2662  0.3975
  141MOL0     C18535  11.270   5.051   7.460  0.2085  0.8938 -0.2452
  141MOL0     C18536  11.382   4.968   7.460  0.6299  0.4275 -0.2030
  141MOL0     C18537  11.506   5.015   7.490  0.1544 -0.2849 -0.0157
  141MOL0     O18538  11.615   4.937   7.487 -0.0890  0.2324 -0.3995
  141MOL0     C18539  11.672   4.912   7.358 -0.4388 -0.1296  0.3793
  141MOL0     C18540  11.800   4.991   7.342 -0.3060 -0.4084  0.4183
  141MOL0     C18541  11.895   4.968   7.229 -0.9108  0.3983 -0.1012
  141MOL0     C18542  12.019   5.064   7.228  0.2611  0.2953 -0.0565
  141MOL0     C18543  12.095   5.064   7.106  0.4402  0.0481 -0.7097
  141MOL0     C18544  12.156   5.092   7.008 -0.3208 -0.4783 -0.0892
  141MOL0     C18545  11.533   5.144   7.535  0.0178  0.0457  0.5637
  141MOL0     C18546  11.425   5.231   7.532  1.3036 -0.1486  0.3796
  141MOL0     H18547  10.913   5.214   7.672  1.3962  2.0286  0.8122
  141MOL0     H18548  10.667   5.321   7.684  2.9622  2.7123  1.9929
  141MOL0     H18549  10.518   5.480   7.293 -2.2800  1.8684 -0.9325
  141MOL0     H18550  10.567   5.627   7.379 -0.7134  0.5687 -1.7588
  141MOL0     H18551  10.310   5.485   7.383  0.7391 -0.0463  2.0571
  141MOL0     H18552  10.342   5.631   7.298  0.0734 -2.1733 -1.2664
  141MOL0     H18553  10.367   5.764   7.497 -1.9894  0.9105  0.5791
  141MOL0     H18554  10.360   5.639   7.617  3.4096  3.2770  1.3664
  141MOL0     H18555  10.152   5.732   7.406 -0.7146  0.2817  1.1550
  141MOL0     H18556  10.118   5.594   7.509 -4.3550  1.9711 -0.0260
  141MOL0     H18557  10.174   5.889   7.569 -0.4429 -0.3414 -1.5277
  141MOL0     H18558  10.168   5.780   7.705 -1.2179  0.8489  0.4194
  141MOL0     H18559   9.968   5.891   7.680  2.8682  2.5737 -3.1799
  141MOL0     H18560   9.943   5.713   7.669  3.7797 -1.3685  0.4563
  141MOL0     H18561   9.932   5.762   7.392  2.3918  1.0761 -1.2043
  141MOL0     H18562   9.788   5.797   7.503  0.9754 -0.1462  4.6946
  141MOL0     H18563   9.866   5.964   7.336 -3.4479 -0.6604  0.8139
  141MOL0     H18564  10.019   5.992   7.425  1.1870 -1.5315  0.7852
  141MOL0     H18565   9.635   6.055   7.441 -1.2955 -1.2917  2.3703
  141MOL0     H18566   9.541   6.226   7.767  0.7427 -1.0213  0.3627
  141MOL0     H18567   9.477   6.203   7.602  2.1497 -2.0514 -2.8960
  141MOL0     H18568   9.532   6.428   7.550 -0.6406  3.6738  1.8100
  141MOL0     H18569   9.668   6.430   7.660 -0.2047  2.4193 -2.4886
  141MOL0     H18570   9.376   6.437   7.754 -0.5692  0.0273 -1.2576
  141MOL0     H18571   9.518   6.453   7.859 -0.3712  0.2382  0.6495
  141MOL0     H18572   9.472   6.635   7.617  0.1586  0.4281  0.6562
  141MOL0     H18573   9.588   6.650   7.749  1.0674  0.7468 -3.7692
  141MOL0     H18574   9.270   6.731   8.003  1.2084  0.3340 -1.0718
  141MOL0     H18575   9.016   6.708   8.054  0.8415  0.0291  0.4630
  141MOL0     H18576   8.556   6.766   7.990  1.2247 -0.4050  1.1864
  141MOL0     H18577   8.337   6.652   8.000 -0.6107 -1.0649  2.1811
  141MOL0     H18578   8.121   6.479   7.984  2.0794  0.8654 -0.8766
  141MOL0     H18579   8.184   6.542   8.140 -0.3801 -1.4395  0.5362
  141MOL0     H18580   8.138   6.318   8.240  2.1794 -1.7721 -1.0836
  141MOL0     H18581   8.065   6.265   8.086 -1.0484 -2.2399  2.5042
  141MOL0     H18582   7.904   6.466   8.107  0.9290  2.3440  1.8168
  141MOL0     H18583   7.975   6.505   8.260 -4.7857  1.5502  1.3545
  141MOL0     H18584   7.869   6.237   8.266  3.4670  1.2723  0.3485
  141MOL0     H18585   7.887   6.359   8.391  0.5987  2.4507 -0.1503
  141MOL0     H18586   7.648   6.335   8.334 -0.6186  4.2716  3.6501
  141MOL0     H18587   7.675   6.367   8.164 -0.2288  0.3531  0.5731
  141MOL0     H18588   7.571   6.551   8.282  0.2933 -1.8551 -2.4383
  141MOL0     H18589   7.736   6.603   8.234  0.4308 -0.8820 -0.4072
  141MOL0     H18590   7.658   6.502   8.516  3.9563  2.4245  3.8229
  141MOL0     H18591   7.806   6.564   8.454  0.4545  2.5690 -5.6540
  141MOL0     H18592   7.559   6.741   8.430  0.2546 -0.0538 -1.6873
  141MOL0     H18593   7.725   6.778   8.405 -3.4414  1.8941 -0.8415
  141MOL0     H18594   8.540   6.269   8.049 -0.1300  0.0222  1.4904
  141MOL0     H18595   8.750   6.373   8.021 -1.9793 -2.4813 -3.6439
  141MOL0     H18596   8.970   6.599   7.640 -1.5067  0.7183  0.8338
  141MOL0     H18597   9.229   6.612   7.619  1.1046 -2.3255  1.0876
  141MOL0     H18598  10.760   5.509   7.308  0.3657  0.9854 -0.4815
  141MOL0     H18599  10.980   5.438   7.319 -1.0797  0.0095  0.0173
  141MOL0     H18600  11.174   5.004   7.439 -0.4197  1.7654  0.6070
  141MOL0     H18601  11.374   4.861   7.446 -0.4362  0.3972  0.5164
  141MOL0     H18602  11.604   4.938   7.277  2.0022  0.6549 -1.5094
  141MOL0     H18603  11.700   4.806   7.357 -0.2564 -0.1201  1.7496
  141MOL0     H18604  11.775   5.098   7.337  3.9241  0.8009  1.3870
  141MOL0     H18605  11.851   4.989   7.439  0.6020  0.5865 -0.0118
  141MOL0     H18606  11.839   4.963   7.135  2.2978 -2.1649 -2.0961
  141MOL0     H18607  11.935   4.868   7.243  0.6809  1.3033  2.6542
  141MOL0     H18608  11.979   5.163   7.250 -1.7167  0.0156 -1.9759
  141MOL0     H18609  12.087   5.028   7.305  0.4916  3.6450  1.4826
  141MOL0     H18610  12.223   5.120   6.929 -2.0716  5.6786  0.1014
  141MOL0     H18611  11.634   5.178   7.559 -0.8413  1.1581  2.9269
  141MOL0     H18612  11.439   5.333   7.566 -1.2208 -0.4074  2.4738
  142MOL0     O18613   6.951   3.787   6.339 -0.8797  0.5678 -0.3842
  142MOL0     C18614   6.917   3.775   6.455 -0.2461 -0.6100  0.4158
  142MOL0     O18615   6.786   3.749   6.503 -0.0994 -0.1789 -0.6010
  142MOL0     C18616   6.684   3.706   6.412 -0.4806 -0.0023 -0.8307
  142MOL0     C18617   6.709   3.629   6.306 -0.4782  1.2824  0.5551
  142MOL0     C18618   6.603   3.583   6.231  0.8481  0.0983  0.0183
  142MOL0     C18619   6.470   3.640   6.247 -0.4474 -0.0787  0.3619
  142MOL0     O18620   6.368   3.601   6.169 -0.1682  0.0319 -0.4432
  142MOL0     C18621   6.256   3.684   6.167  0.7747 -0.7100  1.3341
  142MOL0     C18622   6.164   3.657   6.038 -0.1208 -0.3695 -1.0036
  142MOL0     C18623   6.030   3.725   6.028 -0.5832 -0.2915  0.1654
  142MOL0     C18624   6.047   3.878   5.996  0.1584  0.9406 -0.7132
  142MOL0     C18625   5.981   3.956   6.104 -0.2676 -0.4903 -0.6312
  142MOL0     C18626   6.083   3.990   6.219 -0.1880  0.6527  0.2389
  142MOL0     C18627   6.052   4.108   6.307 -0.2980 -0.0647 -0.5342
  142MOL0     C18628   6.153   4.137   6.412 -0.3083 -0.5611 -0.2657
  142MOL0     N18629   6.295   4.148   6.363 -0.5884 -0.2156  0.6852
  142MOL0     C18630   6.408   4.110   6.428 -0.1056 -0.3243 -0.0542
  142MOL0     C18631   6.504   4.149   6.334  0.4767  0.0021  1.4949
  142MOL0     C18632   6.649   4.108   6.322  0.1637  0.3446  0.5676
  142MOL0     C18633   6.707   4.106   6.453  0.4593  1.3475 -0.5075
  142MOL0     C18634   6.690   4.249   6.520 -0.3180  1.3431  0.1968
  142MOL0     C18635   6.775   4.257   6.656 -0.1452 -0.7262 -0.0835
  142MOL0     O18636   6.910   4.260   6.607 -0.5709 -0.4079 -0.0788
  142MOL0     C18637   7.009   4.233   6.696 -0.4117 -0.0195  1.2698
  142MOL0     C18638   7.020   4.262   6.828  0.2914 -0.1589 -0.0118
  142MOL0     C18639   7.132   4.255   6.904  0.5670  0.7820 -0.3681
  142MOL0     C18640   7.243   4.198   6.847 -0.1462  1.4179  0.5871
  142MOL0     C18641   7.368   4.198   6.925  0.4471 -0.1921  0.3844
  142MOL0     O18642   7.475   4.161   6.860  0.2364  0.2034 -0.1482
  142MOL0     C18643   7.604   4.160   6.906 -0.2041 -0.0645  0.6909
  142MOL0     C18644   7.642   4.143   7.036 -0.2443 -0.8373  0.1088
  142MOL0     C18645   7.776   4.141   7.076 -0.9043  0.4375  0.0450
  142MOL0     C18646   7.876   4.159   6.982  0.5345 -0.2843 -0.9952
  142MOL0     O18647   8.005   4.183   7.036  0.1730  0.5160 -0.4681
  142MOL0     C18648   8.116   4.235   6.958 -0.0304  0.0821  0.6657
  142MOL0     C18649   8.256   4.258   7.032 -0.3677 -0.7833 -0.6166
  142MOL0     C18650   8.286   4.134   7.119 -0.0639  0.3359  0.0834
  142MOL0     C18651   8.433   4.143   7.167 -0.0639 -0.7168  0.1192
  142MOL0     C18652   8.464   4.000   7.223 -0.4181  0.1930 -0.1545
  142MOL0     C18653   8.618   4.001   7.289  0.0123 -0.0274 -0.7573
  142MOL0     C18654   8.636   3.865   7.355 -0.1814  0.2702  0.0883
  142MOL0     C18655   8.758   3.880   7.457 -0.3087  0.4907 -0.1317
  142MOL0    Cl18656   8.904   3.927   7.362  0.3324 -0.1404 -0.0716
  142MOL0     C18657   7.840   4.191   6.852 -0.4611  0.9363  0.4938
  142MOL0     C18658   7.707   4.190   6.814 -0.2698  0.3411 -0.4088
  142MOL0     O18659   7.367   4.233   7.041 -0.3414  0.6538  0.1073
  142MOL0     C18660   7.237   4.162   6.710 -0.0499  0.2960  1.0655
  142MOL0     C18661   7.124   4.189   6.631  0.2750  0.2298  0.1360
  142MOL0     N18662   6.444   4.239   6.245 -0.5963  0.3282  0.7569
  142MOL0     N18663   6.317   4.235   6.253  0.8791 -0.5744 -0.1959
  142MOL0     C18664   6.451   3.733   6.350  0.0833 -0.2334  0.2348
  142MOL0     C18665   6.561   3.766   6.429 -0.0767 -0.3597 -0.3015
  142MOL0     C18666   7.010   3.819   6.565 -0.6056  0.1718 -0.3136
  142MOL0     C18667   7.147   3.785   6.563 -0.8040  0.3456  0.2205
  142MOL0     C18668   7.217   3.794   6.683  0.0104  0.3114  0.1489
  142MOL0     C18669   7.168   3.858   6.797  0.3841 -0.1424 -0.4139
  142MOL0     O18670   7.233   3.885   6.913  0.2488  0.2558 -0.2898
  142MOL0     C18671   7.366   3.835   6.916  0.5302 -0.0014 -0.3095
  142MOL0     C18672   7.414   3.826   7.064 -0.7534  1.2113  0.6220
  142MOL0     C18673   7.562   3.778   7.076 -0.1767  0.4222  0.5905
  142MOL0     C18674   7.603   3.793   7.228  0.1357 -0.1882  0.8076
  142MOL0     C18675   7.702   3.687   7.257  0.1895 -0.2220 -0.0799
  142MOL0     C18676   7.776   3.602   7.288 -1.0221  0.0669  0.0590
  142MOL0     C18677   7.032   3.901   6.784 -0.5456  0.3259 -0.9593
  142MOL0     C18678   6.951   3.889   6.672 -0.8002  0.0143  0.5084
  142MOL0     H18679   6.811   3.599   6.283 -0.1579  0.4685  2.8152
  142MOL0     H18680   6.629   3.511   6.154 -0.4713 -0.3087 -0.0705
  142MOL0     H18681   6.278   3.791   6.175  0.0773 -0.6261  2.3630
  142MOL0     H18682   6.205   3.643   6.254  2.6506 -1.4179  2.1582
  142MOL0     H18683   6.142   3.550   6.040 -0.2490 -0.3345 -0.0667
  142MOL0     H18684   6.214   3.684   5.945 -1.6341  1.0834 -1.4472
  142MOL0     H18685   5.972   3.710   6.120  0.3589 -0.1028  0.8060
  142MOL0     H18686   5.970   3.670   5.954  1.1173  0.2122 -1.6658
  142MOL0     H18687   6.151   3.902   5.974  0.7859 -0.3271  0.6978
  142MOL0     H18688   5.984   3.887   5.907 -2.5084  1.6882  1.1065
  142MOL0     H18689   5.894   3.915   6.156  1.6610  0.1516  3.5870
  142MOL0     H18690   5.959   4.048   6.049 -1.5024 -1.5511 -2.0010
  142MOL0     H18691   6.182   4.009   6.177  0.9115 -3.2045  0.7925
  142MOL0     H18692   6.077   3.902   6.282 -0.0302 -1.2435 -2.2280
  142MOL0     H18693   6.038   4.202   6.252  0.3372  1.4935  1.8229
  142MOL0     H18694   5.954   4.086   6.351 -0.4752  0.5497 -0.6101
  142MOL0     H18695   6.152   4.046   6.472 -0.9873  0.4066  1.2924
  142MOL0     H18696   6.125   4.229   6.465 -2.2313 -1.5652  0.5834
  142MOL0     H18697   6.413   4.048   6.517  0.4177  2.8268  2.2990
  142MOL0     H18698   6.702   4.179   6.257  1.0332  2.7409  3.6561
  142MOL0     H18699   6.636   4.014   6.269  0.9585 -1.5582  3.5189
  142MOL0     H18700   6.812   4.074   6.446  0.0732 -1.4786  3.3637
  142MOL0     H18701   6.663   4.028   6.517 -0.4869 -0.1490 -2.8356
  142MOL0     H18702   6.745   4.306   6.445  3.6016 -1.7435  0.3949
  142MOL0     H18703   6.585   4.277   6.536 -0.6172  1.0513 -1.1816
  142MOL0     H18704   6.753   4.180   6.731  0.3291 -0.7602  0.0243
  142MOL0     H18705   6.749   4.359   6.686 -1.0370 -0.4269 -1.7806
  142MOL0     H18706   6.937   4.317   6.872  0.8954  2.6221 -2.0520
  142MOL0     H18707   7.138   4.276   7.011 -0.9536 -0.5068  0.0184
  142MOL0     H18708   7.568   4.134   7.116 -0.4061 -1.9242 -0.1432
  142MOL0     H18709   7.805   4.120   7.178 -0.2040 -0.6114 -0.3423
  142MOL0     H18710   8.083   4.335   6.928  0.7310  0.8004  2.1394
  142MOL0     H18711   8.140   4.172   6.872  0.0896  0.6414  0.2859
  142MOL0     H18712   8.262   4.341   7.103 -0.6733 -0.1815 -1.2960
  142MOL0     H18713   8.329   4.271   6.951 -1.1425  0.6687 -1.1063
  142MOL0     H18714   8.267   4.040   7.066 -0.6164  1.2804 -1.4615
  142MOL0     H18715   8.219   4.138   7.205 -0.4494  5.1578 -0.1724
  142MOL0     H18716   8.498   4.179   7.088 -1.2681 -1.5605 -1.3057
  142MOL0     H18717   8.441   4.216   7.248  2.3343 -1.4959  0.6618
  142MOL0     H18718   8.456   3.919   7.150 -0.8104  0.7677 -0.7610
  142MOL0     H18719   8.393   3.981   7.304  0.3804  1.4587  0.8753
  142MOL0     H18720   8.610   4.085   7.359  0.4748 -1.5281  1.2096
  142MOL0     H18721   8.699   4.011   7.217  1.0731 -1.0402  0.2516
  142MOL0     H18722   8.544   3.828   7.402 -1.1044  0.9952 -1.0951
  142MOL0     H18723   8.657   3.793   7.275  1.7546  0.8461  0.0508
  142MOL0     H18724   8.791   3.794   7.515  2.7604  1.3140 -0.4878
  142MOL0     H18725   8.731   3.961   7.526 -1.8689  1.2937 -1.6162
  142MOL0     H18726   7.910   4.222   6.775  1.1378 -1.1852  1.0067
  142MOL0     H18727   7.690   4.239   6.718  1.7600  2.3258  0.1640
  142MOL0     H18728   7.325   4.114   6.671  1.0649  1.2346  2.3185
  142MOL0     H18729   7.108   4.165   6.526  1.2286  1.9980 -0.4522
  142MOL0     H18730   6.352   3.768   6.378 -0.2324 -0.1332 -0.9719
  142MOL0     H18731   6.544   3.836   6.510  0.7201 -0.3431 -0.1416
  142MOL0     H18732   7.192   3.742   6.474  0.1673  1.5745  0.0817
  142MOL0     H18733   7.322   3.765   6.677 -0.5269 -1.5295 -1.4615
  142MOL0     H18734   7.440   3.894   6.861  2.4947 -3.0396 -1.1839
  142MOL0     H18735   7.363   3.733   6.878 -0.7464 -1.1665  2.6057
  142MOL0     H18736   7.415   3.921   7.118  0.5679  0.7665  1.4221
  142MOL0     H18737   7.336   3.763   7.109 -3.3379  1.7675 -2.6178
  142MOL0     H18738   7.626   3.847   7.019  0.0170 -0.0427  0.2329
  142MOL0     H18739   7.566   3.675   7.039  0.6947  0.6180  0.0947
  142MOL0     H18740   7.644   3.893   7.246  2.4296 -0.3596 -2.4530
  142MOL0     H18741   7.516   3.774   7.292 -2.2905  0.4079 -2.0730
  142MOL0     H18742   7.842   3.524   7.319 -1.0734 -0.9125 -2.1123
  142MOL0     H18743   6.990   3.939   6.877 -1.7746 -0.7786 -1.0432
  142MOL0     H18744   6.849   3.925   6.678 -1.8193 -2.6738  1.0070
  143MOL0     O18745   4.044   6.639   9.201  0.5962  0.4664  0.2445
  143MOL0     C18746   4.022   6.668   9.320 -0.3813  0.2379  0.4841
  143MOL0     O18747   3.895   6.695   9.370 -0.8217  0.5651 -0.4770
  143MOL0     C18748   3.790   6.674   9.294  0.1280  1.0282  0.7585
  143MOL0     C18749   3.717   6.556   9.317 -0.5913 -0.5068 -0.2653
  143MOL0     C18750   3.594   6.527   9.266 -0.0407 -0.6875  0.4884
  143MOL0     C18751   3.546   6.609   9.161 -0.2356  0.3761 -0.2387
  143MOL0     O18752   3.428   6.564   9.101 -0.2858 -0.0276  0.5782
  143MOL0     C18753   3.375   6.643   8.993 -0.2552  0.1122  0.7331
  143MOL0     C18754   3.225   6.605   8.979  0.3258  0.5312 -0.2020
  143MOL0     C18755   3.139   6.672   9.097  0.2127  0.0674  0.6583
  143MOL0     C18756   2.994   6.614   9.089  0.2008 -0.5674 -0.4204
  143MOL0     C18757   2.915   6.669   9.220 -0.9577 -0.0878  0.5755
  143MOL0     C18758   2.989   6.624   9.348 -0.2538 -0.0948  0.5040
  143MOL0     C18759   2.885   6.572   9.447 -0.7887  0.1221  0.5656
  143MOL0     C18760   2.948   6.552   9.585 -0.5834  0.2199  0.2194
  143MOL0     N18761   2.837   6.507   9.669 -0.0132 -0.0252 -0.0565
  143MOL0     C18762   2.741   6.592   9.725 -0.6907  0.3184  0.2066
  143MOL0     C18763   2.667   6.515   9.801 -0.5276  0.7952  0.8471
  143MOL0     C18764   2.556   6.553   9.888 -0.8344 -0.2732  1.0577
  143MOL0     C18765   2.583   6.640  10.004 -0.7971 -0.0451  0.0766
  143MOL0     C18766   2.451   6.700  10.064 -0.8513 -0.2762 -0.1245
  143MOL0     C18767   2.469   6.727  10.208  0.9400  0.6884 -0.2320
  143MOL0     O18768   2.344   6.755  10.282 -0.8576  0.3342  0.4429
  143MOL0     C18769   2.338   6.759  10.416  0.4146 -0.2344 -0.0522
  143MOL0     C18770   2.214   6.749  10.480 -1.2405 -0.2760 -0.6998
  143MOL0     C18771   2.202   6.762  10.615  0.7267  0.0249 -0.4325
  143MOL0     C18772   2.319   6.780  10.702  0.4853 -0.2874  0.5653
  143MOL0     C18773   2.306   6.801  10.851  1.1982 -0.1263  0.9100
  143MOL0     O18774   2.186   6.798  10.903 -0.3897 -0.2913  0.4714
  143MOL0     C18775   2.165   6.859  11.026 -0.0355  0.7518 -0.4257
  143MOL0     C18776   2.235   6.976  11.063 -0.1971  0.0989 -0.1205
  143MOL0     C18777   2.179   7.066  11.158 -0.1468  0.1515 -0.3013
  143MOL0     C18778   2.062   7.025  11.229 -0.4935 -0.4411 -0.0746
  143MOL0     O18779   2.020   7.109  11.324 -0.3999 -0.4860  0.2006
  143MOL0     C18780   2.094   7.095  11.440 -0.8274  0.5418 -0.6304
  143MOL0     C18781   2.012   7.155  11.546 -0.2445 -0.7353  0.8690
  143MOL0     C18782   2.100   7.173  11.673 -0.4314  0.0475 -0.0082
  143MOL0     C18783   2.114   7.031  11.744  0.2868  0.4197  0.5536
  143MOL0     C18784   2.148   7.035  11.893 -0.2315 -0.3160 -0.2798
  143MOL0     C18785   2.144   6.885  11.952 -0.0154  0.3432 -0.4657
  143MOL0     C18786   2.021   6.858  12.039  0.0818  0.5654 -0.8960
  143MOL0     C18787   2.038   6.720  12.106  0.1236  0.3970  0.2019
  143MOL0    Cl18788   2.075   6.573  12.000  0.0616 -0.0995  0.1632
  143MOL0     C18789   2.000   6.903  11.196 -0.6497  1.1148  0.7039
  143MOL0     C18790   2.050   6.822  11.090  0.1280 -0.0947  0.5395
  143MOL0     O18791   2.410   6.817  10.914  0.4891 -0.4612  0.1641
  143MOL0     C18792   2.443   6.783  10.638  0.6702 -1.6777  0.7437
  143MOL0     C18793   2.447   6.777  10.496 -0.1759  1.4502 -0.2288
  143MOL0     N18794   2.713   6.384   9.783  0.0030  0.3114 -0.7037
  143MOL0     N18795   2.808   6.379   9.698  0.0305 -0.0757 -0.4824
  143MOL0     C18796   3.624   6.716   9.126  0.6833 -0.0100 -0.0969
  143MOL0     C18797   3.737   6.756   9.191 -0.8515  0.6567  0.3167
  143MOL0     C18798   4.146   6.687   9.401  0.5584  0.0893 -0.5140
  143MOL0     C18799   4.136   6.727   9.533 -0.5473 -0.4725 -0.5662
  143MOL0     C18800   4.250   6.734   9.616 -0.4235 -0.3299 -0.9795
  143MOL0     C18801   4.380   6.713   9.569  1.0989 -0.2722  0.0630
  143MOL0     O18802   4.499   6.692   9.637  0.2187  0.1371 -0.3261
  143MOL0     C18803   4.494   6.730   9.774 -0.1425  0.6803  0.2042
  143MOL0     C18804   4.639   6.729   9.821 -0.0197 -0.2106 -0.0881
  143MOL0     C18805   4.691   6.590   9.861 -0.2235  0.3488 -0.1453
  143MOL0     C18806   4.623   6.538   9.983  0.0646  0.8766 -0.7048
  143MOL0     C18807   4.669   6.397  10.010  0.0440  0.9831  0.4928
  143MOL0     C18808   4.707   6.278  10.027 -0.2310 -0.4311  0.4436
  143MOL0     C18809   4.395   6.671   9.437  0.0209 -1.3774  0.1968
  143MOL0     C18810   4.279   6.669   9.348  0.4932  0.0708  0.3326
  143MOL0     H18811   3.750   6.495   9.400  2.3880  0.2160 -0.8054
  143MOL0     H18812   3.536   6.440   9.295 -2.1630  0.0893 -1.1291
  143MOL0     H18813   3.427   6.612   8.902  0.0909  0.1788  0.9083
  143MOL0     H18814   3.393   6.747   9.021  1.6239  0.1533 -0.4456
  143MOL0     H18815   3.211   6.496   8.977  0.2103  0.4083  2.7796
  143MOL0     H18816   3.186   6.653   8.889 -0.8611 -1.3289 -0.7366
  143MOL0     H18817   3.143   6.778   9.071  0.5000 -0.6723 -2.8577
  143MOL0     H18818   3.194   6.661   9.191 -0.8193 -0.9555  1.1556
  143MOL0     H18819   2.952   6.642   8.992 -0.1136 -1.0715 -0.4276
  143MOL0     H18820   2.989   6.506   9.097  1.7315 -0.5103  2.8355
  143MOL0     H18821   2.816   6.621   9.222 -2.7371  3.3213  0.6510
  143MOL0     H18822   2.899   6.777   9.223 -0.6261 -0.0452  1.0256
  143MOL0     H18823   3.049   6.710   9.382 -0.2660  0.7111 -1.3696
  143MOL0     H18824   3.066   6.550   9.327  0.7368  1.2265 -0.7921
  143MOL0     H18825   2.813   6.652   9.462  1.1840  1.5950  2.8871
  143MOL0     H18826   2.840   6.481   9.406  1.0185 -1.4996  1.9528
  143MOL0     H18827   3.003   6.642   9.614  2.2173 -1.6449  1.2015
  143MOL0     H18828   3.024   6.473   9.582 -0.1136  0.6265  0.8855
  143MOL0     H18829   2.731   6.699   9.710  1.4343  0.6483  0.7618
  143MOL0     H18830   2.511   6.461   9.926 -0.8118 -0.2021  1.2585
  143MOL0     H18831   2.476   6.593   9.824 -0.0393 -0.8284 -0.3433
  143MOL0     H18832   2.645   6.727   9.979 -0.9868 -0.5570 -2.3921
  143MOL0     H18833   2.627   6.576  10.082  1.6566 -0.7289 -1.7524
  143MOL0     H18834   2.424   6.790  10.007  0.5120 -2.0971 -4.0352
  143MOL0     H18835   2.367   6.632  10.048 -2.3121  1.6786 -1.1697
  143MOL0     H18836   2.558   6.786  10.229  1.1775  0.7673 -1.3698
  143MOL0     H18837   2.492   6.627  10.246 -1.9576 -0.3060 -0.7904
  143MOL0     H18838   2.131   6.733  10.412 -1.1201 -1.3540 -0.6069
  143MOL0     H18839   2.100   6.748  10.649 -0.2254  1.1713 -2.5770
  143MOL0     H18840   2.332   7.003  11.021  0.3451 -0.1356  0.9485
  143MOL0     H18841   2.227   7.158  11.190  0.1514  0.4836 -1.6644
  143MOL0     H18842   2.188   7.151  11.430 -0.0564 -0.6464 -0.1884
  143MOL0     H18843   2.102   6.990  11.469 -0.7567  1.0429  1.2892
  143MOL0     H18844   1.924   7.092  11.562 -0.1887 -0.9836  0.2299
  143MOL0     H18845   1.971   7.251  11.514 -0.4648 -1.2006 -0.2779
  143MOL0     H18846   2.065   7.248  11.744  0.5374  0.8163 -0.3287
  143MOL0     H18847   2.193   7.212  11.632 -1.1567 -0.5482 -2.4357
  143MOL0     H18848   2.023   6.977  11.717  0.9095  0.1574 -1.1699
  143MOL0     H18849   2.193   6.984  11.685 -1.0332 -1.7847  0.4280
  143MOL0     H18850   2.086   7.105  11.948  0.7684  1.1405 -0.9324
  143MOL0     H18851   2.252   7.070  11.900  0.1378 -1.0908 -1.4162
  143MOL0     H18852   2.232   6.857  12.010 -0.4738  1.3084  0.7529
  143MOL0     H18853   2.136   6.822  11.863 -2.9277 -1.2985  0.8209
  143MOL0     H18854   2.012   6.940  12.111  0.3408  0.3266 -0.5871
  143MOL0     H18855   1.936   6.876  11.973  2.8669  0.5509 -4.8743
  143MOL0     H18856   1.959   6.692  12.176  0.4637 -0.0527  0.4074
  143MOL0     H18857   2.125   6.742  12.169  1.1456  1.5104 -1.4988
  143MOL0     H18858   1.902   6.890  11.241 -1.5961 -0.9459 -1.7087
  143MOL0     H18859   1.989   6.742  11.051 -3.3663  1.6304  1.9709
  143MOL0     H18860   2.532   6.802  10.697  0.7570  1.8918 -0.3190
  143MOL0     H18861   2.548   6.778  10.456 -0.1507  0.6624 -0.1953
  143MOL0     H18862   3.569   6.775   9.053 -3.7151 -0.8157  2.2089
  143MOL0     H18863   3.796   6.842   9.161  1.3205 -1.6028 -2.4815
  143MOL0     H18864   4.039   6.742   9.581  0.3735 -0.3559  1.3495
  143MOL0     H18865   4.236   6.759   9.720  1.0178 -0.7775 -0.6576
  143MOL0     H18866   4.418   6.682   9.836 -1.2902  0.4856 -1.3121
  143MOL0     H18867   4.465   6.835   9.781  0.6750  0.9178  0.1568
  143MOL0     H18868   4.704   6.772   9.745  1.0100 -2.9259 -0.8466
  143MOL0     H18869   4.651   6.791   9.910 -1.2280  1.7752 -1.2308
  143MOL0     H18870   4.798   6.589   9.885 -0.1633  0.5150 -0.3964
  143MOL0     H18871   4.679   6.517   9.780 -1.1401  0.0151  0.2856
  143MOL0     H18872   4.648   6.596  10.073 -1.0204 -0.9342  0.8419
  143MOL0     H18873   4.515   6.537   9.968  0.2053 -0.2371 -1.7545
  143MOL0     H18874   4.744   6.178  10.030 -1.6670 -0.9874  0.5978
  143MOL0     H18875   4.493   6.648   9.397 -0.4608 -4.2960  0.4836
  143MOL0     H18876   4.279   6.644   9.243 -1.3403  0.5786  0.1665
  144MOL0     O18877   8.714  10.811  10.136 -0.0844  0.9671 -0.1013
  144MOL0     C18878   8.779  10.724  10.195 -0.3086 -0.1901 -0.9441
  144MOL0     O18879   8.728  10.655  10.295 -0.4871 -0.2032  0.0627
  144MOL0     C18880   8.594  10.666  10.328 -0.9060  0.8277  0.9986
  144MOL0     C18881   8.504  10.580  10.269 -0.0227  0.4074 -0.0724
  144MOL0     C18882   8.374  10.574  10.313 -0.1348  0.3513  0.2429
  144MOL0     C18883   8.328  10.664  10.408  1.3845 -0.4131  1.0827
  144MOL0     O18884   8.204  10.662  10.467  0.1066 -0.2975 -0.3112
  144MOL0     C18885   8.105  10.558  10.428 -0.7506  0.0811  0.8478
  144MOL0     C18886   7.989  10.587  10.519 -0.6368  0.3095 -0.4379
  144MOL0     C18887   7.876  10.475  10.522  0.4651 -0.4742 -0.9815
  144MOL0     C18888   7.746  10.519  10.598 -0.2624 -0.1413  0.5755
  144MOL0     C18889   7.632  10.418  10.578 -0.5001 -0.7091  0.7426
  144MOL0     C18890   7.582  10.420  10.423 -0.2085  0.5062 -1.0518
  144MOL0     C18891   7.492  10.296  10.418 -0.5322 -0.0906 -0.3608
  144MOL0     C18892   7.398  10.306  10.302 -0.3488 -0.0162  0.0036
  144MOL0     N18893   7.300  10.208  10.327  0.2615 -0.3179  0.5537
  144MOL0     C18894   7.203  10.210  10.419 -0.0019  0.5261 -0.1916
  144MOL0     C18895   7.132  10.090  10.401 -0.8386 -0.0989 -0.0799
  144MOL0     C18896   7.015  10.043  10.478 -0.2454 -0.4655 -0.7427
  144MOL0     C18897   7.052   9.944  10.596  1.5094  0.3588 -0.2578
  144MOL0     C18898   7.132   9.815  10.546  0.1069 -0.1372  0.4166
  144MOL0     C18899   7.061   9.732  10.442  0.0414  0.7012 -0.4848
  144MOL0     O18900   6.925   9.696  10.485 -0.1062  0.3230 -0.5379
  144MOL0     C18901   6.833   9.665  10.384  0.4232  0.6357  0.6744
  144MOL0     C18902   6.853   9.566  10.293 -0.1192 -0.2298 -0.2984
  144MOL0     C18903   6.750   9.529  10.208  0.5481 -0.2602  0.6931
  144MOL0     C18904   6.614   9.583  10.219  0.3378 -0.4452  0.0494
  144MOL0     C18905   6.497   9.527  10.146  1.4254 -1.5767 -0.0897
  144MOL0     O18906   6.513   9.415  10.075 -0.4888 -0.1733 -0.2077
  144MOL0     C18907   6.395   9.375  10.010 -0.5440 -0.0967  0.1729
  144MOL0     C18908   6.354   9.430   9.894  0.1731  0.4250  0.4700
  144MOL0     C18909   6.238   9.377   9.837 -0.0762  0.1483  0.4138
  144MOL0     C18910   6.175   9.265   9.894  0.6061  0.0456  0.0904
  144MOL0     O18911   6.057   9.218   9.837 -0.5732  0.3620  0.0180
  144MOL0     C18912   5.953   9.176   9.933 -0.6063 -0.2031  0.0987
  144MOL0     C18913   5.831   9.143   9.862 -0.4923  0.5868 -0.6807
  144MOL0     C18914   5.760   9.257   9.796  0.4931 -0.0010  0.9296
  144MOL0     C18915   5.631   9.211   9.727  0.2122  0.2900 -0.3335
  144MOL0     C18916   5.569   9.333   9.644 -0.6893  0.2526 -0.4703
  144MOL0     C18917   5.644   9.359   9.514 -0.3671 -0.5494 -0.0393
  144MOL0     C18918   5.564   9.441   9.429 -0.1874 -0.1262  0.4443
  144MOL0     C18919   5.553   9.584   9.478 -0.6678 -0.1173  0.6828
  144MOL0    Cl18920   5.454   9.676   9.354  0.6432 -0.3413 -0.3842
  144MOL0     C18921   6.232   9.204  10.000 -0.1316 -0.1123 -0.1471
  144MOL0     C18922   6.342   9.257  10.063 -0.0414 -0.3093  0.3236
  144MOL0     O18923   6.391   9.586  10.162 -0.7261  0.5312 -0.1106
  144MOL0     C18924   6.601   9.686  10.309  2.1956 -0.0865 -0.1202
  144MOL0     C18925   6.705   9.728  10.394 -0.1295 -0.3255  0.2471
  144MOL0     N18926   7.189  10.033  10.286 -0.4857 -0.6438  0.2282
  144MOL0     N18927   7.291  10.101  10.248  0.1640 -0.4526  0.5149
  144MOL0     C18928   8.420  10.763  10.460  0.0489  0.2738  1.4118
  144MOL0     C18929   8.558  10.755  10.423  0.1199 -0.2323  0.5671
  144MOL0     C18930   8.926  10.704  10.167 -0.4348 -0.1108  0.5078
  144MOL0     C18931   8.985  10.584  10.213 -0.1494 -0.1448  0.1556
  144MOL0     C18932   9.123  10.563  10.194 -0.0324  0.4815  0.1867
  144MOL0     C18933   9.196  10.646  10.116 -0.1434  0.2806  0.6526
  144MOL0     O18934   9.330  10.616  10.097 -0.7330  0.1069  0.0701
  144MOL0     C18935   9.424  10.720  10.060 -0.4313 -0.4784  0.3331
  144MOL0     C18936   9.558  10.680  10.096 -0.2457 -0.4980  0.1508
  144MOL0     C18937   9.564  10.647  10.249 -0.4659 -0.2779  0.8224
  144MOL0     C18938   9.699  10.648  10.314 -0.4130  0.3329 -0.0331
  144MOL0     C18939   9.696  10.596  10.458  0.4441 -0.4167  0.0669
  144MOL0     C18940   9.707  10.560  10.573 -0.5314  0.4189 -1.1496
  144MOL0     C18941   9.142  10.766  10.065  0.1216  0.2405 -0.2366
  144MOL0     C18942   9.006  10.793  10.093 -0.0364  0.0844 -0.1044
  144MOL0     H18943   8.525  10.503  10.196 -2.1371  1.1690 -1.5878
  144MOL0     H18944   8.298  10.506  10.275  0.4515  0.1911 -0.6805
  144MOL0     H18945   8.146  10.460  10.456 -1.0971 -0.2543  0.1981
  144MOL0     H18946   8.088  10.566  10.321  2.0750  3.9241  0.4764
  144MOL0     H18947   7.948  10.680  10.479 -0.5172 -0.8356 -3.5326
  144MOL0     H18948   8.022  10.613  10.620  1.8856 -1.5239 -0.6736
  144MOL0     H18949   7.921  10.385  10.566  2.2946  0.6973 -0.2884
  144MOL0     H18950   7.858  10.463  10.415  0.8261  1.1993 -1.2648
  144MOL0     H18951   7.776  10.530  10.703  2.0417 -2.6861  0.2961
  144MOL0     H18952   7.717  10.617  10.559  1.4799  1.0291  2.0673
  144MOL0     H18953   7.554  10.430  10.653  0.9403 -1.5022  2.4299
  144MOL0     H18954   7.668  10.317  10.600 -2.1411 -1.8595 -1.3481
  144MOL0     H18955   7.669  10.412  10.358  1.8595  1.5990  1.3883
  144MOL0     H18956   7.519  10.506  10.400 -1.4340 -0.2523 -0.6352
  144MOL0     H18957   7.553  10.207  10.404  3.4080  2.1825  0.5796
  144MOL0     H18958   7.441  10.283  10.514  0.5257  0.2418  0.2599
  144MOL0     H18959   7.457  10.299  10.209  0.8922  0.2703  0.7459
  144MOL0     H18960   7.346  10.402  10.305 -2.7339 -1.1985  4.1855
  144MOL0     H18961   7.180  10.286  10.492  1.9297  1.3197 -0.3666
  144MOL0     H18962   6.944  10.003  10.405 -0.8555  1.4577 -1.2720
  144MOL0     H18963   6.975  10.135  10.522  1.8937  0.0989  0.1260
  144MOL0     H18964   6.956   9.911  10.636  2.8362 -0.8543  2.0944
  144MOL0     H18965   7.110   9.996  10.673  2.9683 -2.8409  0.9737
  144MOL0     H18966   7.223   9.855  10.500 -1.0130  2.3775  0.2644
  144MOL0     H18967   7.150   9.746  10.629 -5.1544 -2.3603  0.1055
  144MOL0     H18968   7.115   9.636  10.438  0.1544  0.5527  2.3737
  144MOL0     H18969   7.069   9.766  10.339  2.2868 -1.5400 -1.1497
  144MOL0     H18970   6.948   9.513  10.293 -0.6351 -1.1900 -0.6374
  144MOL0     H18971   6.768   9.442  10.147 -3.4469 -0.6635 -0.2098
  144MOL0     H18972   6.401   9.506   9.833 -0.1459 -1.4056 -2.2558
  144MOL0     H18973   6.191   9.421   9.749 -2.2720 -0.5576  1.1532
  144MOL0     H18974   5.936   9.252  10.009  4.4039 -1.4845  2.9826
  144MOL0     H18975   5.994   9.089   9.986  1.0316  0.7686  0.4981
  144MOL0     H18976   5.757   9.098   9.929  0.4484 -0.9054 -0.5835
  144MOL0     H18977   5.858   9.060   9.796  0.7544 -0.7873  1.4243
  144MOL0     H18978   5.827   9.296   9.719 -1.4527 -2.0524 -2.0372
  144MOL0     H18979   5.736   9.336   9.867 -0.7194  1.1258 -0.6436
  144MOL0     H18980   5.649   9.138   9.648 -1.0122  0.2697 -0.6153
  144MOL0     H18981   5.560   9.174   9.802  1.5648 -1.3135  0.2270
  144MOL0     H18982   5.591   9.418   9.709  1.2542 -0.6225  0.0918
  144MOL0     H18983   5.462   9.320   9.629 -1.1135  2.4362  0.4070
  144MOL0     H18984   5.657   9.262   9.465  0.7862 -0.2117 -0.4366
  144MOL0     H18985   5.747   9.392   9.529 -0.5214  1.0904 -2.1798
  144MOL0     H18986   5.602   9.445   9.327 -0.6443 -1.1438  0.2260
  144MOL0     H18987   5.468   9.390   9.416  0.6360 -2.0949  1.6138
  144MOL0     H18988   5.652   9.625   9.500 -0.5353  0.6703 -1.1881
  144MOL0     H18989   5.495   9.577   9.570 -1.4407 -2.0806  0.1097
  144MOL0     H18990   6.187   9.121  10.054  1.4608  0.2010  1.7862
  144MOL0     H18991   6.400   9.204  10.138 -1.1406 -1.8714  0.1136
  144MOL0     H18992   6.501   9.727  10.314  1.8887 -0.9582  1.8710
  144MOL0     H18993   6.692   9.794  10.479  0.9237 -1.3871  1.2671
  144MOL0     H18994   8.387  10.827  10.541  1.5482  0.4222  1.9417
  144MOL0     H18995   8.640  10.801  10.476 -1.4378  2.1857  1.0788
  144MOL0     H18996   8.916  10.505  10.240 -0.9399  0.4980  0.0404
  144MOL0     H18997   9.175  10.470  10.213  0.0360  0.5601  0.3863
  144MOL0     H18998   9.406  10.816  10.110  0.9470  0.9861 -1.8296
  144MOL0     H18999   9.427  10.730   9.951  3.5996 -2.8268  0.0228
  144MOL0     H19000   9.589  10.592  10.039  0.1975  0.9167 -1.9592
  144MOL0     H19001   9.637  10.748  10.061  0.5117 -2.4979 -2.3792
  144MOL0     H19002   9.510  10.552  10.262  0.7056 -1.2737 -1.0971
  144MOL0     H19003   9.518  10.733  10.297  1.0513  3.6500 -3.9188
  144MOL0     H19004   9.764  10.586  10.252 -0.9299 -1.8704  1.5017
  144MOL0     H19005   9.726  10.753  10.319 -0.5841  0.5066 -2.0110
  144MOL0     H19006   9.721  10.528  10.675 -0.8648 -0.0775 -1.2502
  144MOL0     H19007   9.205  10.840  10.017 -0.4601 -0.1755 -1.7006
  144MOL0     H19008   8.970  10.891  10.062  0.3741  1.0378  2.2142
  145MOL0     O19009   0.704   0.966   4.068  0.6322  1.0254  0.0859
  145MOL0     C19010   0.780   1.025   3.991 -0.1156 -0.7230 -0.2393
  145MOL0     O19011   0.756   1.038   3.859 -0.5662 -0.6377  0.2282
  145MOL0     C19012   0.638   1.011   3.801  0.6505 -0.0866 -0.5050
  145MOL0     C19013   0.506   1.051   3.855  0.8512 -0.0211 -0.0152
  145MOL0     C19014   0.388   1.037   3.778  0.1165 -0.4657 -0.0508
  145MOL0     C19015   0.390   0.982   3.651 -0.2189  0.4615  0.2305
  145MOL0     O19016   0.279   0.963   3.577  0.3998  0.1678  0.7079
  145MOL0     C19017   0.157   1.024   3.614 -0.1344 -0.3208  0.0801
  145MOL0     C19018   0.044   0.989   3.522  0.6271 -0.4486 -0.1681
  145MOL0     C19019  -0.095   1.038   3.587 -0.6412 -0.0767  0.0837
  145MOL0     C19020  -0.209   1.000   3.495 -0.3763 -0.2770 -0.2442
  145MOL0     C19021  -0.341   1.078   3.528 -0.8289  0.2362 -0.6528
  145MOL0     C19022  -0.447   1.056   3.418 -0.4980 -0.0998 -0.8854
  145MOL0     C19023  -0.585   1.102   3.466  0.4515  0.4460  0.1945
  145MOL0     C19024  -0.643   0.990   3.556  0.4914  0.5467 -0.7415
  145MOL0     N19025  -0.760   1.053   3.623  0.6576 -0.0681  0.7633
  145MOL0     C19026  -0.777   1.074   3.753  0.4607 -0.0862  0.1825
  145MOL0     C19027  -0.899   1.126   3.768  0.3157  0.1548 -0.6340
  145MOL0     C19028  -0.984   1.168   3.885  0.5510  1.1105 -0.4422
  145MOL0     C19029  -1.005   1.314   3.885 -0.1983  0.5179  0.5727
  145MOL0     C19030  -1.052   1.350   4.028 -0.5828 -0.5560  0.6705
  145MOL0     C19031  -1.065   1.505   4.033 -0.8173 -0.2307  0.2489
  145MOL0     O19032  -1.168   1.538   3.941  0.4409  0.4779 -0.5805
  145MOL0     C19033  -1.296   1.538   3.987  0.0438  0.7605  0.0372
  145MOL0     C19034  -1.405   1.574   3.905 -0.8360  0.1561 -0.9386
  145MOL0     C19035  -1.536   1.583   3.951  0.5175 -0.3559 -0.4884
  145MOL0     C19036  -1.569   1.546   4.084 -0.1864  0.0957 -0.0180
  145MOL0     C19037  -1.706   1.562   4.135  0.5785 -0.1494  0.8643
  145MOL0     O19038  -1.799   1.587   4.040 -0.1332 -0.3445  0.9651
  145MOL0     C19039  -1.929   1.602   4.073  0.0981 -0.7644 -0.0037
  145MOL0     C19040  -2.027   1.530   4.013  1.3340 -0.1930  1.2834
  145MOL0     C19041  -2.157   1.542   4.059  0.2256 -0.3148 -0.0915
  145MOL0     C19042  -2.200   1.617   4.167  0.8124  0.5305 -0.0649
  145MOL0     O19043  -2.327   1.598   4.227  0.8632  0.4680  0.4392
  145MOL0     C19044  -2.449   1.591   4.144  0.1472  0.0531 -0.1970
  145MOL0     C19045  -2.563   1.638   4.221 -0.3250  0.1748 -0.5694
  145MOL0     C19046  -2.690   1.613   4.144  0.6209  0.3461  0.2618
  145MOL0     C19047  -2.802   1.661   4.235 -0.0431  0.1923 -0.8996
  145MOL0     C19048  -2.937   1.671   4.155 -0.5484  0.2000 -0.1973
  145MOL0     C19049  -2.999   1.534   4.141  1.3840 -0.1209  0.4962
  145MOL0     C19050  -3.112   1.547   4.031  0.4974  0.2326 -0.2993
  145MOL0     C19051  -3.244   1.569   4.105  0.0355 -0.1405 -0.2845
  145MOL0    Cl19052  -3.306   1.423   4.196 -0.0116 -0.5107 -0.3581
  145MOL0     C19053  -2.095   1.694   4.230 -0.0671  0.8386  0.8791
  145MOL0     C19054  -1.964   1.685   4.184 -0.4704 -0.3542  0.7921
  145MOL0     O19055  -1.721   1.564   4.259  0.8678  0.6187  0.1947
  145MOL0     C19056  -1.459   1.516   4.165  0.6473  0.4211 -0.0384
  145MOL0     C19057  -1.333   1.505   4.117 -0.1196  0.9608  0.2184
  145MOL0     N19058  -0.949   1.154   3.640  0.5423  0.4866 -0.0428
  145MOL0     N19059  -0.864   1.113   3.556  0.4285  0.1530  0.7771
  145MOL0     C19060   0.514   0.952   3.599  0.1146 -0.3741  0.6766
  145MOL0     C19061   0.634   0.963   3.668  0.5524 -0.0350 -0.1600
  145MOL0     C19062   0.892   1.096   4.035 -1.2224 -0.3135  0.2833
  145MOL0     C19063   0.960   1.197   3.965 -0.0871  0.0346  0.9378
  145MOL0     C19064   1.082   1.253   4.009  0.3422 -0.3928  0.2540
  145MOL0     C19065   1.135   1.219   4.132  0.9585  0.8909  0.6352
  145MOL0     O19066   1.248   1.291   4.180  0.3686 -0.3803 -0.0569
  145MOL0     C19067   1.337   1.224   4.269 -0.0730  0.1367  0.2848
  145MOL0     C19068   1.461   1.313   4.260  0.1547  0.4683  0.0278
  145MOL0     C19069   1.569   1.265   4.351  0.3134  0.4050  0.6806
  145MOL0     C19070   1.699   1.346   4.333 -0.3350 -0.2318 -0.4063
  145MOL0     C19071   1.769   1.387   4.462 -0.1613 -0.4301 -0.7094
  145MOL0     C19072   1.830   1.404   4.558  0.2558 -1.4223  0.0741
  145MOL0     C19073   1.073   1.118   4.204  0.3328  1.7257  0.5295
  145MOL0     C19074   0.949   1.065   4.161  0.8390 -0.3276 -0.2754
  145MOL0     H19075   0.510   1.103   3.950  0.6339  2.9707 -1.5061
  145MOL0     H19076   0.302   1.095   3.811  2.6866  3.9153 -0.1706
  145MOL0     H19077   0.158   1.133   3.627 -1.3296 -0.5597  3.0844
  145MOL0     H19078   0.132   0.983   3.713 -3.3653  3.0551  0.8702
  145MOL0     H19079   0.034   0.882   3.500 -0.2950 -0.1802 -1.1617
  145MOL0     H19080   0.058   1.047   3.431 -2.1825 -1.6879 -1.5162
  145MOL0     H19081  -0.088   1.145   3.609  1.2904 -0.0443 -0.4216
  145MOL0     H19082  -0.101   0.987   3.684  2.7964 -1.4428 -0.2610
  145MOL0     H19083  -0.185   1.029   3.392 -0.0601 -0.5010 -0.2346
  145MOL0     H19084  -0.225   0.891   3.494  0.1052 -0.3471 -0.7363
  145MOL0     H19085  -0.308   1.182   3.542  2.3552 -0.6946 -0.3218
  145MOL0     H19086  -0.378   1.036   3.622 -0.9994 -0.5164 -1.0525
  145MOL0     H19087  -0.455   0.947   3.405  3.8745 -0.7962  0.7922
  145MOL0     H19088  -0.415   1.100   3.323  2.0335  0.6435  0.2251
  145MOL0     H19089  -0.573   1.196   3.520  0.4683 -1.2908  3.4640
  145MOL0     H19090  -0.646   1.116   3.376  1.7680 -0.5167 -0.8848
  145MOL0     H19091  -0.574   0.956   3.633 -0.4039  0.6015  0.1012
  145MOL0     H19092  -0.666   0.902   3.494  1.4455 -0.3306  0.1002
  145MOL0     H19093  -0.698   1.052   3.825  2.4159  0.4990 -1.6891
  145MOL0     H19094  -0.935   1.117   3.969  2.8816 -1.5132 -3.1411
  145MOL0     H19095  -1.077   1.111   3.880  0.7884  0.6763 -0.0239
  145MOL0     H19096  -1.076   1.333   3.804  2.4680  0.2915 -2.0024
  145MOL0     H19097  -0.912   1.363   3.855  0.3487  0.3987  1.9975
  145MOL0     H19098  -1.146   1.302   4.055 -1.6858  1.7920  1.2644
  145MOL0     H19099  -0.979   1.311   4.100  0.0218  3.3105  2.3939
  145MOL0     H19100  -0.973   1.545   3.990  0.2862 -2.2512  0.5627
  145MOL0     H19101  -1.074   1.553   4.131 -0.1383 -0.3103  0.3560
  145MOL0     H19102  -1.384   1.591   3.800 -5.5163  0.0359 -2.1256
  145MOL0     H19103  -1.601   1.610   3.869  2.1022  2.2962 -0.9843
  145MOL0     H19104  -2.027   1.471   3.922 -2.1551 -2.4098  2.5176
  145MOL0     H19105  -2.222   1.470   4.010 -0.6790  1.5364 -1.7882
  145MOL0     H19106  -2.476   1.487   4.122 -2.1491  0.5262  0.2415
  145MOL0     H19107  -2.443   1.652   4.053  0.9940 -2.5917 -2.0682
  145MOL0     H19108  -2.544   1.745   4.240  2.7599 -0.6309  1.7399
  145MOL0     H19109  -2.566   1.588   4.318 -0.8693  2.2158  0.5232
  145MOL0     H19110  -2.698   1.513   4.101  1.3874 -0.0255  0.9372
  145MOL0     H19111  -2.694   1.682   4.059  4.2376 -2.4441 -2.5218
  145MOL0     H19112  -2.816   1.610   4.331  0.9051  0.3312 -0.6833
  145MOL0     H19113  -2.785   1.764   4.269 -1.1660 -0.1359  0.7202
  145MOL0     H19114  -2.912   1.708   4.055  4.7427 -1.0515  0.3379
  145MOL0     H19115  -3.002   1.744   4.203  1.3472  0.7889  1.6397
  145MOL0     H19116  -3.038   1.497   4.237 -0.1036  1.7698  0.6640
  145MOL0     H19117  -2.921   1.462   4.112 -0.3721 -2.8360  2.0177
  145MOL0     H19118  -3.091   1.633   3.967 -0.7512  0.5415 -0.3104
  145MOL0     H19119  -3.116   1.455   3.972 -0.4146 -0.1396  0.3123
  145MOL0     H19120  -3.319   1.593   4.029 -2.0252  0.3607  1.7859
  145MOL0     H19121  -3.239   1.660   4.166 -3.0305 -0.1996  0.2208
  145MOL0     H19122  -2.112   1.762   4.312  0.9586  0.4961  1.4006
  145MOL0     H19123  -1.882   1.741   4.229 -3.4965  4.8930  0.6422
  145MOL0     H19124  -1.467   1.480   4.267 -0.7100 -0.1699 -0.3388
  145MOL0     H19125  -1.261   1.480   4.193 -3.7417  0.3499  3.7883
  145MOL0     H19126   0.517   0.902   3.503 -2.5224 -1.1837  0.9418
  145MOL0     H19127   0.727   0.956   3.613  0.1979  2.7049 -1.2693
  145MOL0     H19128   0.916   1.231   3.871  0.3448 -0.8317  0.4155
  145MOL0     H19129   1.132   1.314   3.935  0.3725  0.1254  0.6922
  145MOL0     H19130   1.355   1.125   4.225 -0.0582  0.7858 -1.2639
  145MOL0     H19131   1.297   1.202   4.368 -1.4377  0.4723 -0.1601
  145MOL0     H19132   1.498   1.303   4.157  1.1314  3.6040 -0.0230
  145MOL0     H19133   1.427   1.415   4.281  0.0416  0.3472  0.4518
  145MOL0     H19134   1.589   1.160   4.330 -0.6630  0.5462 -1.1161
  145MOL0     H19135   1.529   1.280   4.452 -0.0860 -0.8079  0.7198
  145MOL0     H19136   1.773   1.295   4.271 -1.6499  0.2264 -2.4440
  145MOL0     H19137   1.679   1.432   4.269 -0.4216  1.8636  2.2283
  145MOL0     H19138   1.883   1.430   4.647  0.1797  1.7876 -0.7218
  145MOL0     H19139   1.113   1.085   4.300 -1.9602 -1.9252  0.4327
  145MOL0     H19140   0.895   0.990   4.219 -1.5700  1.0370 -0.6112
  146MOL0     O19141   2.568   9.589   4.877  0.4146  0.0708  0.4644
  146MOL0     C19142   2.661   9.665   4.893  0.3239 -1.2309 -0.7669
  146MOL0     O19143   2.669   9.800   4.844  0.1302  0.4345 -0.2518
  146MOL0     C19144   2.553   9.845   4.798  0.1340  0.0920  0.9456
  146MOL0     C19145   2.461   9.895   4.890  0.3551  0.0864  0.7150
  146MOL0     C19146   2.343   9.945   4.837  0.3092  0.1312 -0.1405
  146MOL0     C19147   2.314   9.951   4.707 -0.3702  0.7043 -0.7904
  146MOL0     O19148   2.196   9.995   4.670 -0.0930  0.0009  0.1896
  146MOL0     C19149   2.186  10.096   4.565  0.7367  0.3365  0.0937
  146MOL0     C19150   2.043  10.145   4.533  0.2710 -0.7364 -0.0052
  146MOL0     C19151   1.971  10.189   4.665 -0.0467 -0.4220  0.5713
  146MOL0     C19152   1.861  10.294   4.644 -0.3119  0.0109 -0.8571
  146MOL0     C19153   1.748  10.303   4.753  0.0910  0.2841  0.8180
  146MOL0     C19154   1.666  10.423   4.715 -0.3999  0.4857  0.4739
  146MOL0     C19155   1.558  10.391   4.609 -0.1129 -0.2164 -0.1401
  146MOL0     C19156   1.463  10.513   4.585 -0.3827  0.9436 -0.6471
  146MOL0     N19157   1.383  10.545   4.709  0.3245  0.4527  0.2177
  146MOL0     C19158   1.266  10.485   4.748  1.4792  0.3201 -0.1252
  146MOL0     C19159   1.231  10.541   4.864 -0.2711 -0.3266  1.1723
  146MOL0     C19160   1.122  10.491   4.955 -0.1025 -0.9072  0.0613
  146MOL0     C19161   1.019  10.601   4.994  0.4288 -0.6716  0.0719
  146MOL0     C19162   0.895  10.538   5.056  0.2637 -0.0788 -0.3459
  146MOL0     C19163   0.783  10.639   5.088 -0.4038  0.4547 -1.0253
  146MOL0     O19164   0.680  10.567   5.162  0.0589  0.5306  0.3306
  146MOL0     C19165   0.551  10.570   5.132 -0.5643  0.0915 -0.0681
  146MOL0     C19166   0.487  10.680   5.084 -0.2341  0.2323 -0.6406
  146MOL0     C19167   0.358  10.680   5.054 -0.3440 -0.2812  0.9753
  146MOL0     C19168   0.274  10.576   5.099 -0.5871 -0.2690 -0.4233
  146MOL0     C19169   0.133  10.595   5.100 -0.2963 -0.0617 -0.9714
  146MOL0     O19170   0.093  10.717   5.060 -1.2210  0.1931  0.5342
  146MOL0     C19171  -0.036  10.734   5.050  0.0701 -0.4108 -0.1488
  146MOL0     C19172  -0.125  10.738   5.167  0.2993 -0.0537 -0.0665
  146MOL0     C19173  -0.262  10.758   5.142  0.8184 -0.5634 -0.0256
  146MOL0     C19174  -0.315  10.767   5.008  0.8227 -0.4487  0.8255
  146MOL0     O19175  -0.450  10.792   4.992  0.1295 -0.4726  0.8335
  146MOL0     C19176  -0.494  10.903   4.917  0.5933  0.1793 -0.2431
  146MOL0     C19177  -0.627  10.956   4.970 -0.4583 -0.0187  0.4891
  146MOL0     C19178  -0.738  10.858   4.946 -0.1083  0.6520 -0.1362
  146MOL0     C19179  -0.856  10.875   5.032  0.4478  0.0863  0.1465
  146MOL0     C19180  -0.963  10.765   5.006 -0.0492  0.0336 -0.9545
  146MOL0     C19181  -1.094  10.781   5.083 -0.7688 -0.0635  0.1860
  146MOL0     C19182  -1.180  10.903   5.037 -0.7580 -0.2177  0.3957
  146MOL0     C19183  -1.324  10.894   5.072  0.0161 -0.7802 -0.4867
  146MOL0    Cl19184  -1.404  10.759   4.995  0.0197 -0.0652 -0.5070
  146MOL0     C19185  -0.229  10.756   4.902  0.6052  0.4136 -0.1772
  146MOL0     C19186  -0.093  10.742   4.922  0.2301  0.0409 -0.4069
  146MOL0     O19187   0.058  10.507   5.125 -0.0723  0.1783 -0.0027
  146MOL0     C19188   0.341  10.462   5.147 -0.0866 -0.3377 -0.3455
  146MOL0     C19189   0.476  10.457   5.159 -1.0362  0.4910 -0.4098
  146MOL0     N19190   1.324  10.635   4.893 -0.5917  0.3397 -0.5273
  146MOL0     N19191   1.414  10.640   4.799 -0.1581 -0.3079  0.1593
  146MOL0     C19192   2.408   9.905   4.613 -0.7680  0.1066 -0.9822
  146MOL0     C19193   2.522   9.847   4.660  0.0953  0.4163  0.9961
  146MOL0     C19194   2.789   9.604   4.941 -0.1459 -0.1732 -0.5499
  146MOL0     C19195   2.891   9.672   5.005  0.3711  0.9359  0.1959
  146MOL0     C19196   3.009   9.605   5.043  0.6666  0.7648 -0.6950
  146MOL0     C19197   3.024   9.473   5.013 -1.0571  0.6241  0.6374
  146MOL0     O19198   3.138   9.405   5.056 -1.0309  0.1283  0.2322
  146MOL0     C19199   3.183   9.286   4.988 -0.5367 -0.0275 -0.2056
  146MOL0     C19200   3.317   9.249   5.025 -0.3657  0.5196  0.2880
  146MOL0     C19201   3.344   9.219   5.172 -0.3600 -0.2856 -0.7999
  146MOL0     C19202   3.272   9.085   5.212  0.2329 -0.8455  0.9527
  146MOL0     C19203   3.311   9.065   5.350 -0.3379 -0.0188 -0.2922
  146MOL0     C19204   3.340   9.030   5.460 -0.5860 -0.9431 -0.9126
  146MOL0     C19205   2.915   9.404   4.954  0.5217 -0.2955 -0.0912
  146MOL0     C19206   2.794   9.465   4.931  0.1442  0.3781  0.0603
  146MOL0     H19207   2.467   9.905   4.998 -4.0170 -0.2525  1.2038
  146MOL0     H19208   2.275   9.989   4.909  1.1427  0.7889  0.2725
  146MOL0     H19209   2.209  10.058   4.465  0.5046  3.0172 -1.0763
  146MOL0     H19210   2.248  10.184   4.585 -0.7699  1.2754  0.7840
  146MOL0     H19211   1.978  10.083   4.472 -4.3835  3.5754 -0.0102
  146MOL0     H19212   2.063  10.240   4.484 -1.2533  0.1365  1.0027
  146MOL0     H19213   2.042  10.235   4.734 -3.0694  2.9980  1.7545
  146MOL0     H19214   1.916  10.108   4.713 -0.5205 -0.3472  0.1638
  146MOL0     H19215   1.919  10.387   4.645 -1.1915  0.5773 -1.2464
  146MOL0     H19216   1.832  10.294   4.539 -0.3368  0.1574 -0.8511
  146MOL0     H19217   1.796  10.327   4.849 -0.7658  2.0097  0.8479
  146MOL0     H19218   1.693  10.210   4.766 -0.8334  0.9522  1.9158
  146MOL0     H19219   1.713  10.509   4.667 -1.2054 -0.3322 -1.9326
  146MOL0     H19220   1.623  10.454   4.811  2.4284  2.0314  1.3665
  146MOL0     H19221   1.600  10.365   4.511  1.8120  2.5783 -0.1542
  146MOL0     H19222   1.495  10.306   4.638  0.5228 -0.7244 -0.2489
  146MOL0     H19223   1.398  10.484   4.502 -1.7581  0.9663  0.3709
  146MOL0     H19224   1.532  10.597   4.574  0.1280  0.5750 -0.3110
  146MOL0     H19225   1.224  10.397   4.701  0.2708  0.3681  0.7954
  146MOL0     H19226   1.171  10.451   5.044  0.2302 -1.1429 -0.2244
  146MOL0     H19227   1.071  10.410   4.903 -1.6962  0.5967 -0.8147
  146MOL0     H19228   0.999  10.650   4.898 -2.3078 -1.5214  0.1223
  146MOL0     H19229   1.065  10.681   5.052 -1.6725  0.7381 -0.0815
  146MOL0     H19230   0.850  10.461   4.992  0.2689 -1.5215  1.3233
  146MOL0     H19231   0.930  10.480   5.142  0.5879  0.2038 -0.2881
  146MOL0     H19232   0.733  10.677   4.999  0.3293  0.4554 -1.4488
  146MOL0     H19233   0.832  10.722   5.141 -2.1095  1.3897 -0.8328
  146MOL0     H19234   0.541  10.774   5.078 -1.9737  1.3084 -0.2086
  146MOL0     H19235   0.323  10.777   5.021  0.0133 -0.6787 -0.6859
  146MOL0     H19236  -0.088  10.726   5.268 -0.8358 -1.0816  0.2524
  146MOL0     H19237  -0.328  10.765   5.228 -1.1230 -0.6087 -1.4355
  146MOL0     H19238  -0.495  10.872   4.812  0.9202  1.8418 -0.7745
  146MOL0     H19239  -0.428  10.989   4.930 -0.5564  1.1339 -0.4677
  146MOL0     H19240  -0.644  11.043   4.906 -0.9496  0.2954  1.0380
  146MOL0     H19241  -0.606  10.989   5.073  0.4453  0.9109  0.0227
  146MOL0     H19242  -0.698  10.756   4.954 -1.2956  0.1438 -0.4285
  146MOL0     H19243  -0.780  10.856   4.845 -0.4596 -2.0268 -0.0156
  146MOL0     H19244  -0.835  10.888   5.139  0.0316  0.0827  0.2339
  146MOL0     H19245  -0.902  10.970   5.002 -0.0900 -0.3506 -0.4526
  146MOL0     H19246  -0.919  10.669   5.036 -1.2497  0.1516  1.4496
  146MOL0     H19247  -0.972  10.761   4.897  0.5750 -0.4634 -0.9960
  146MOL0     H19248  -1.076  10.787   5.190  0.1647  1.5513 -0.0215
  146MOL0     H19249  -1.156  10.695   5.057 -1.0307 -0.1448  1.0549
  146MOL0     H19250  -1.138  10.998   5.073  0.1048  0.6093 -2.4888
  146MOL0     H19251  -1.162  10.902   4.929  0.8363 -0.4921  0.6350
  146MOL0     H19252  -1.383  10.985   5.056 -1.3498 -1.2355  1.6403
  146MOL0     H19253  -1.342  10.882   5.179 -7.5502  1.1744 -0.9930
  146MOL0     H19254  -0.258  10.750   4.797  0.3041 -0.3648 -0.0570
  146MOL0     H19255  -0.042  10.731   4.827  0.3984  0.0475 -0.3165
  146MOL0     H19256   0.278  10.389   5.196  0.2560  0.3599  1.1853
  146MOL0     H19257   0.522  10.369   5.203 -1.5606  0.7578  0.7125
  146MOL0     H19258   2.394   9.906   4.505 -0.3500  1.9169 -1.0552
  146MOL0     H19259   2.598   9.808   4.593  1.5875  2.4502  1.3910
  146MOL0     H19260   2.869   9.778   4.997  0.3427  0.7689 -3.2400
  146MOL0     H19261   3.091   9.655   5.094  0.3318  2.6951 -1.9515
  146MOL0     H19262   3.179   9.313   4.883 -1.1297 -0.5306 -0.3188
  146MOL0     H19263   3.113   9.202   4.991 -1.4342  0.6296 -1.7814
  146MOL0     H19264   3.360   9.172   4.960 -0.7448  0.1757  0.4370
  146MOL0     H19265   3.377   9.338   5.004  2.1430 -1.2434 -0.4805
  146MOL0     H19266   3.299   9.294   5.238 -0.3105 -0.1065 -0.9712
  146MOL0     H19267   3.452   9.215   5.189  0.1736  3.4509 -2.2737
  146MOL0     H19268   3.164   9.102   5.213  0.3894  0.9299 -1.8651
  146MOL0     H19269   3.297   8.999   5.148  1.7513  1.4442 -1.7728
  146MOL0     H19270   3.387   9.008   5.554  1.8780  4.2859 -0.5737
  146MOL0     H19271   2.905   9.298   4.933 -1.3615 -0.4995  1.4777
  146MOL0     H19272   2.707   9.417   4.886 -0.7510  0.2588  1.8505
  147MOL0     O19273   0.629  11.165   3.322 -0.2083  0.3052 -0.2255
  147MOL0     C19274   0.665  11.210   3.209  0.0653 -0.4809  0.1854
  147MOL0     O19275   0.578  11.258   3.117 -0.9423 -0.6784  0.3509
  147MOL0     C19276   0.443  11.246   3.138  0.0789 -0.4905 -0.1954
  147MOL0     C19277   0.372  11.357   3.189  0.5867 -0.4065 -0.0173
  147MOL0     C19278   0.232  11.358   3.176  0.4363 -0.8329 -0.8834
  147MOL0     C19279   0.159  11.253   3.114 -0.1006  0.9574 -0.7597
  147MOL0     O19280   0.024  11.248   3.098  0.2063  0.4710  0.2774
  147MOL0     C19281  -0.056  11.363   3.084  1.0901  0.7682  0.4630
  147MOL0     C19282  -0.198  11.321   3.064 -0.2103 -1.0075  0.3533
  147MOL0     C19283  -0.229  11.209   2.962  0.3027 -0.5385  0.0309
  147MOL0     C19284  -0.377  11.211   2.919  0.2148 -0.0117 -0.0810
  147MOL0     C19285  -0.427  11.072   2.851 -0.9098 -0.3264  0.4843
  147MOL0     C19286  -0.582  11.077   2.851  1.0872  0.8501  0.5152
  147MOL0     C19287  -0.630  10.952   2.765 -0.7747 -0.2594 -0.7423
  147MOL0     C19288  -0.765  10.976   2.691 -0.5987  0.0555  0.4359
  147MOL0     N19289  -0.876  10.966   2.785 -0.1809  0.9869  0.2965
  147MOL0     C19290  -0.956  11.071   2.797 -0.2984 -0.3861  0.3720
  147MOL0     C19291  -1.044  11.032   2.881  0.5930  0.4157 -0.5749
  147MOL0     C19292  -1.148  11.113   2.944  0.7187  0.2806 -0.5631
  147MOL0     C19293  -1.293  11.066   2.919  0.2708  0.0553 -0.6814
  147MOL0     C19294  -1.337  11.007   2.788  0.1361 -0.5597 -0.1474
  147MOL0     C19295  -1.483  10.950   2.788 -0.1491  0.0259 -0.0677
  147MOL0     O19296  -1.478  10.830   2.702  0.4610  0.5571 -0.5889
  147MOL0     C19297  -1.595  10.758   2.689  0.2848  0.0035 -0.1486
  147MOL0     C19298  -1.597  10.645   2.611 -0.6719  0.2494 -0.2015
  147MOL0     C19299  -1.700  10.559   2.619 -0.0204  0.0889 -0.0776
  147MOL0     C19300  -1.811  10.578   2.704 -0.6692  1.4290 -0.6580
  147MOL0     C19301  -1.921  10.472   2.704 -0.4424  0.3170 -0.3314
  147MOL0     O19302  -2.044  10.516   2.737  0.2619 -0.2061  0.3435
  147MOL0     C19303  -2.157  10.444   2.729  0.1806  0.0326  0.2004
  147MOL0     C19304  -2.190  10.320   2.673 -0.3947 -0.0352  1.1995
  147MOL0     C19305  -2.311  10.252   2.686  0.6267 -0.0298 -0.6351
  147MOL0     C19306  -2.410  10.308   2.761 -0.9802 -0.6696  0.5550
  147MOL0     O19307  -2.525  10.235   2.767  0.3561  0.3328 -0.3275
  147MOL0     C19308  -2.638  10.279   2.836  0.7548  0.0733  0.2118
  147MOL0     C19309  -2.767  10.199   2.790  0.3513 -0.2045  0.6456
  147MOL0     C19310  -2.760  10.050   2.782 -1.0226 -0.5355 -0.2377
  147MOL0     C19311  -2.900  10.001   2.792  1.2655  0.8542  0.6344
  147MOL0     C19312  -2.904   9.846   2.776 -0.1551  1.0264  0.2704
  147MOL0     C19313  -2.834   9.768   2.882 -0.2198 -0.2608 -0.1654
  147MOL0     C19314  -2.894   9.628   2.908 -0.3857  0.0252  0.2682
  147MOL0     C19315  -2.849   9.520   2.806  0.5318 -0.0430  0.1617
  147MOL0    Cl19316  -2.903   9.355   2.867  0.1549 -0.5122 -0.0708
  147MOL0     C19317  -2.385  10.430   2.828  0.0196 -0.3563  0.1630
  147MOL0     C19318  -2.270  10.499   2.800  0.2361  0.1614 -0.3801
  147MOL0     O19319  -1.896  10.366   2.656  0.2745  0.2772 -0.3817
  147MOL0     C19320  -1.811  10.691   2.783  1.0798  0.1065  0.1868
  147MOL0     C19321  -1.711  10.785   2.767 -0.6770 -0.6742  0.4236
  147MOL0     N19322  -1.019  10.898   2.925 -0.3213  0.4180 -0.4586
  147MOL0     N19323  -0.911  10.860   2.863  0.6099 -0.1176 -0.0282
  147MOL0     C19324   0.233  11.152   3.063  0.0269  0.4815 -0.3918
  147MOL0     C19325   0.372  11.137   3.083 -0.9540 -0.3015  0.2723
  147MOL0     C19326   0.810  11.212   3.177  0.8342  0.2662 -1.1838
  147MOL0     C19327   0.901  11.135   3.249 -0.7077 -0.2358  0.2677
  147MOL0     C19328   1.040  11.133   3.211  0.1442  0.6112  0.0578
  147MOL0     C19329   1.089  11.223   3.120  0.9151  0.1434 -0.1966
  147MOL0     O19330   1.221  11.226   3.104  0.4692  0.5558  0.2915
  147MOL0     C19331   1.276  11.320   3.005  0.4875 -0.3635  0.1035
  147MOL0     C19332   1.422  11.291   2.995  0.0173  0.8682  1.2301
  147MOL0     C19333   1.447  11.148   2.953  0.2144 -0.5880  0.2827
  147MOL0     C19334   1.595  11.120   2.912  0.8449 -0.8782 -0.6688
  147MOL0     C19335   1.638  11.194   2.792 -0.0116 -0.3677  0.7326
  147MOL0     C19336   1.677  11.261   2.692 -0.8153  0.6549 -0.3014
  147MOL0     C19337   1.001  11.313   3.055  0.0247 -0.0238 -0.5456
  147MOL0     C19338   0.865  11.297   3.083 -0.5883 -0.3365  0.1511
  147MOL0     H19339   0.418  11.444   3.234 -2.0442  1.3366 -0.4359
  147MOL0     H19340   0.185  11.448   3.216 -0.1926 -1.8206  0.6662
  147MOL0     H19341  -0.028  11.417   2.992 -0.5276 -1.8993 -1.7469
  147MOL0     H19342  -0.053  11.426   3.173 -0.4485  1.9482 -0.2605
  147MOL0     H19343  -0.234  11.417   3.027  1.0863 -1.0462 -1.1280
  147MOL0     H19344  -0.245  11.302   3.161  0.2993  1.9309  1.2664
  147MOL0     H19345  -0.221  11.112   3.013  1.1696 -0.9530 -0.8770
  147MOL0     H19346  -0.153  11.213   2.884  0.1568  0.0470 -0.0865
  147MOL0     H19347  -0.442  11.239   3.003 -0.5166 -0.8473 -0.3561
  147MOL0     H19348  -0.391  11.287   2.842 -2.1248  1.1022  1.3225
  147MOL0     H19349  -0.401  10.981   2.906 -0.8688 -0.5926  0.0261
  147MOL0     H19350  -0.386  11.077   2.750  0.0151 -1.2535  0.8119
  147MOL0     H19351  -0.618  11.166   2.799 -1.5125 -0.0618  0.6011
  147MOL0     H19352  -0.627  11.077   2.950 -0.8116  0.6350 -0.3049
  147MOL0     H19353  -0.559  10.947   2.682  0.2519 -0.7370  0.1424
  147MOL0     H19354  -0.624  10.862   2.826  1.7876  1.4883  1.8378
  147MOL0     H19355  -0.777  10.899   2.613 -0.6585  1.0389 -0.5485
  147MOL0     H19356  -0.769  11.072   2.639  1.1229  0.1885  0.4906
  147MOL0     H19357  -0.941  11.165   2.743  2.5480 -2.4815 -2.9148
  147MOL0     H19358  -1.130  11.216   2.910 -2.5233  0.5899 -1.6912
  147MOL0     H19359  -1.146  11.109   3.053 -2.3282 -2.0113 -0.4612
  147MOL0     H19360  -1.360  11.150   2.941  1.2643  0.4882  0.8149
  147MOL0     H19361  -1.319  10.994   2.997  5.0111  0.7761  1.8735
  147MOL0     H19362  -1.329  11.082   2.708  1.0235  0.8979  1.2365
  147MOL0     H19363  -1.264  10.931   2.757  1.5658  1.0503 -0.9313
  147MOL0     H19364  -1.553  11.032   2.768 -1.0690 -0.9607 -1.0710
  147MOL0     H19365  -1.509  10.917   2.889 -1.5132  2.7628  0.5754
  147MOL0     H19366  -1.522  10.637   2.533 -2.0326  3.5640 -2.0324
  147MOL0     H19367  -1.704  10.475   2.551 -2.7955 -1.1276  1.4486
  147MOL0     H19368  -2.111  10.275   2.613 -0.3957  4.0436 -2.3099
  147MOL0     H19369  -2.321  10.154   2.639 -0.9180 -0.9646  1.4600
  147MOL0     H19370  -2.653  10.386   2.823  0.8979  0.4372  2.5912
  147MOL0     H19371  -2.629  10.247   2.940  0.8978  0.8632  0.4444
  147MOL0     H19372  -2.806  10.237   2.695  0.7272 -0.4372  0.3953
  147MOL0     H19373  -2.844  10.222   2.864 -1.4098  1.7650 -1.6121
  147MOL0     H19374  -2.703  10.002   2.862  0.1610  0.0767 -0.6889
  147MOL0     H19375  -2.723  10.024   2.682 -0.8420  1.7665 -0.8282
  147MOL0     H19376  -2.942  10.040   2.885  2.3709  2.5964  0.4410
  147MOL0     H19377  -2.960  10.043   2.711 -2.0617  0.7215  2.8436
  147MOL0     H19378  -2.857   9.821   2.681 -1.7403  0.9263 -0.5185
  147MOL0     H19379  -3.009   9.820   2.759  0.3549  0.1320 -1.7259
  147MOL0     H19380  -2.839   9.822   2.977 -0.1796 -0.5544  0.0031
  147MOL0     H19381  -2.726   9.769   2.867 -0.2390 -0.8132 -0.3418
  147MOL0     H19382  -2.860   9.594   3.006  2.8864  2.2737  0.0555
  147MOL0     H19383  -3.003   9.634   2.919 -0.9074 -2.4343 -2.2895
  147MOL0     H19384  -2.743   9.523   2.781  0.3877  0.8858 -0.3787
  147MOL0     H19385  -2.902   9.536   2.712 -1.2547 -2.3456  0.6690
  147MOL0     H19386  -2.464  10.492   2.868  2.0007  0.6824  2.8339
  147MOL0     H19387  -2.260  10.590   2.858 -1.2918 -0.8870  1.6406
  147MOL0     H19388  -1.886  10.711   2.859  2.4410  3.3043  0.8689
  147MOL0     H19389  -1.727  10.880   2.817  0.4055 -0.7575  0.9417
  147MOL0     H19390   0.189  11.068   3.011 -1.3262 -0.0585  1.4711
  147MOL0     H19391   0.424  11.052   3.041 -3.4822 -0.6176 -2.5565
  147MOL0     H19392   0.868  11.075   3.334  0.0966  1.5065  1.8709
  147MOL0     H19393   1.106  11.065   3.263  0.1437 -0.5629 -1.4134
  147MOL0     H19394   1.258  11.421   3.042  1.4666 -1.6828  4.8393
  147MOL0     H19395   1.241  11.306   2.902  1.1355 -1.0107 -0.0402
  147MOL0     H19396   1.473  11.345   2.915 -2.4156  0.6046 -0.5987
  147MOL0     H19397   1.481  11.320   3.083 -0.3143  0.1996  1.6855
  147MOL0     H19398   1.379  11.126   2.869 -1.0546  3.3178  0.0779
  147MOL0     H19399   1.422  11.078   3.033  3.3692 -0.2268  1.7243
  147MOL0     H19400   1.665  11.165   2.983  1.4260  0.9617 -2.3530
  147MOL0     H19401   1.607  11.012   2.901  1.5547 -0.8582 -0.1643
  147MOL0     H19402   1.703  11.306   2.599  0.7279  1.7700  0.6158
  147MOL0     H19403   1.040  11.394   2.993  0.3329 -0.6948 -1.2421
  147MOL0     H19404   0.795  11.369   3.043 -0.4178 -1.2781 -1.9499
  148MOL0     O19405   0.588   9.359   8.725 -0.5874 -0.3041  0.0409
  148MOL0     C19406   0.614   9.409   8.834  0.6097 -0.2588 -0.5691
  148MOL0     O19407   0.525   9.411   8.942 -0.8587  0.6181 -0.0518
  148MOL0     C19408   0.419   9.325   8.946 -0.1754  0.6165  1.1904
  148MOL0     C19409   0.281   9.371   8.936 -0.5401  0.0826  0.2587
  148MOL0     C19410   0.169   9.285   8.954  0.2943  0.4887 -0.0817
  148MOL0     C19411   0.196   9.148   8.965 -0.5861  0.1361  0.7894
  148MOL0     O19412   0.104   9.050   8.992  0.2411 -0.0195 -0.6374
  148MOL0     C19413  -0.042   9.076   9.009 -1.3348 -0.1488 -0.0530
  148MOL0     C19414  -0.102   8.944   8.973 -0.0742  0.8335 -0.4657
  148MOL0     C19415  -0.252   8.964   8.971 -0.3079 -1.0529 -0.0431
  148MOL0     C19416  -0.334   8.834   8.941  0.1389 -0.4228 -0.1647
  148MOL0     C19417  -0.475   8.876   8.981  0.5223 -0.1081  0.7122
  148MOL0     C19418  -0.563   8.758   8.954 -0.0240  0.9867  0.1228
  148MOL0     C19419  -0.713   8.796   8.956 -0.3964 -0.1998 -0.4217
  148MOL0     C19420  -0.796   8.685   9.030  0.7641 -0.2873 -0.8650
  148MOL0     N19421  -0.939   8.728   9.030 -0.5908  0.2442  0.3707
  148MOL0     C19422  -1.005   8.762   9.152 -0.9708 -1.3282  0.2513
  148MOL0     C19423  -1.137   8.763   9.111 -0.4194 -0.1889 -0.7462
  148MOL0     C19424  -1.256   8.812   9.200  0.2121  0.4891  0.7706
  148MOL0     C19425  -1.305   8.720   9.304  0.1565 -0.4997  1.0039
  148MOL0     C19426  -1.368   8.594   9.239  0.4464 -0.4693 -0.5041
  148MOL0     C19427  -1.420   8.492   9.347 -0.5350  0.2535  1.1237
  148MOL0     O19428  -1.553   8.524   9.393 -0.3132 -1.0321  0.0478
  148MOL0     C19429  -1.670   8.476   9.342 -0.2079 -0.3710  0.0800
  148MOL0     C19430  -1.671   8.401   9.231  0.3254  0.4917  0.0578
  148MOL0     C19431  -1.798   8.344   9.189 -0.6083 -0.4627  0.8711
  148MOL0     C19432  -1.910   8.378   9.267 -0.2595  0.1451 -0.3086
  148MOL0     C19433  -2.037   8.302   9.237 -0.0082 -0.3071  1.2683
  148MOL0     O19434  -2.145   8.348   9.303  0.2137  0.3043 -0.9389
  148MOL0     C19435  -2.272   8.301   9.284 -0.0507 -0.6079  0.9988
  148MOL0     C19436  -2.341   8.312   9.168  0.2584 -0.2784  0.5619
  148MOL0     C19437  -2.468   8.261   9.158  0.0046  0.1703 -0.3711
  148MOL0     C19438  -2.539   8.206   9.269  0.2908 -0.1786  0.3070
  148MOL0     O19439  -2.661   8.146   9.255 -0.8633  0.5932  0.2987
  148MOL0     C19440  -2.747   8.202   9.168  0.0793  0.2319  1.0756
  148MOL0     C19441  -2.885   8.151   9.193 -0.6618 -0.6092 -0.6220
  148MOL0     C19442  -2.914   8.009   9.149 -0.1927 -0.2217  0.4777
  148MOL0     C19443  -3.047   7.968   9.210 -0.4497  0.8158 -0.1071
  148MOL0     C19444  -3.149   7.962   9.096  0.2189 -0.7104  0.4353
  148MOL0     C19445  -3.186   8.090   9.030  0.0223  0.3421 -0.0629
  148MOL0     C19446  -3.306   8.076   8.942  0.4266 -0.6535 -0.3048
  148MOL0     C19447  -3.325   8.198   8.853  0.1754  0.3871  0.9382
  148MOL0    Cl19448  -3.210   8.194   8.714 -0.0015  0.0408 -0.1087
  148MOL0     C19449  -2.473   8.208   9.391  0.4577 -0.1067  0.2309
  148MOL0     C19450  -2.337   8.240   9.392 -0.1685  0.0251  0.5555
  148MOL0     O19451  -2.036   8.207   9.154 -0.1982  0.4919 -0.5859
  148MOL0     C19452  -1.901   8.459   9.377  0.2529  0.3072  1.4609
  148MOL0     C19453  -1.784   8.514   9.418  0.0193  0.5819  0.3494
  148MOL0     N19454  -1.147   8.724   8.979  0.4636 -0.3706  0.9702
  148MOL0     N19455  -1.026   8.713   8.932  0.5481  0.3612  0.0367
  148MOL0     C19456   0.328   9.100   8.972 -0.3948  0.3492  0.1455
  148MOL0     C19457   0.443   9.188   8.965 -0.4870  0.0571  0.1562
  148MOL0     C19458   0.735   9.490   8.859  0.2435 -0.2879  0.7665
  148MOL0     C19459   0.778   9.529   8.988 -0.6440 -0.4858 -0.2564
  148MOL0     C19460   0.897   9.608   8.995  0.2529  0.5058  0.0498
  148MOL0     C19461   0.969   9.648   8.877 -0.5822  0.3216 -0.1999
  148MOL0     O19462   1.081   9.727   8.876 -0.2654 -0.6048 -0.6796
  148MOL0     C19463   1.133   9.766   8.996  0.0825 -0.3855  0.1396
  148MOL0     C19464   1.256   9.859   8.978 -0.1493 -0.0387 -0.8033
  148MOL0     C19465   1.225   9.975   8.892  0.9532 -0.0941 -1.0354
  148MOL0     C19466   1.332  10.056   8.843  0.1223  0.0012  0.5730
  148MOL0     C19467   1.269  10.147   8.743 -0.8170 -0.3835 -1.3773
  148MOL0     C19468   1.221  10.231   8.673  0.4171  0.5267  0.4052
  148MOL0     C19469   0.939   9.586   8.759 -0.0411  0.1392  0.1414
  148MOL0     C19470   0.822   9.504   8.755 -0.1807 -0.0339  0.9457
  148MOL0     H19471   0.265   9.478   8.927  0.2074  0.0059 -3.5699
  148MOL0     H19472   0.068   9.323   8.951 -0.7066 -1.9384  0.5419
  148MOL0     H19473  -0.078   9.150   8.936  1.1211  1.8048  0.5654
  148MOL0     H19474  -0.055   9.096   9.116  0.6290 -0.0689  0.1976
  148MOL0     H19475  -0.077   8.862   9.041 -2.6889 -0.0533 -0.4520
  148MOL0     H19476  -0.066   8.909   8.875  2.0079  1.6924 -0.0529
  148MOL0     H19477  -0.274   9.034   8.890  0.5165 -1.4209 -0.6038
  148MOL0     H19478  -0.284   9.011   9.065 -2.7785  0.8833 -1.7389
  148MOL0     H19479  -0.337   8.791   8.840 -2.2727  0.1771 -0.4176
  148MOL0     H19480  -0.305   8.759   9.015 -0.8282 -1.1424 -0.4882
  148MOL0     H19481  -0.510   8.957   8.917 -0.4736 -0.8714  0.2805
  148MOL0     H19482  -0.468   8.920   9.082  2.1382 -1.0501  1.0513
  148MOL0     H19483  -0.537   8.680   9.025  0.6806 -0.3032 -1.4851
  148MOL0     H19484  -0.547   8.711   8.857 -3.9230  0.6902 -0.5284
  148MOL0     H19485  -0.735   8.886   9.014 -2.8224 -0.6220 -0.5532
  148MOL0     H19486  -0.751   8.807   8.854  1.5350 -0.5546 -1.2162
  148MOL0     H19487  -0.764   8.674   9.134 -0.2337 -2.8597 -0.7531
  148MOL0     H19488  -0.793   8.588   8.978 -1.2574 -0.2298 -1.1884
  148MOL0     H19489  -0.968   8.778   9.253 -0.8491  0.2070 -0.0221
  148MOL0     H19490  -1.345   8.840   9.143 -1.6772  3.2392  4.6484
  148MOL0     H19491  -1.213   8.897   9.253  2.0343 -1.1157  2.0020
  148MOL0     H19492  -1.382   8.776   9.357  0.1960  1.1467 -0.5616
  148MOL0     H19493  -1.230   8.689   9.377  1.1001  0.7181  0.5920
  148MOL0     H19494  -1.442   8.630   9.168 -0.8171  0.0778  1.0453
  148MOL0     H19495  -1.290   8.538   9.187 -1.1440 -0.7260 -2.7503
  148MOL0     H19496  -1.343   8.494   9.425  3.6485  3.0966 -2.5826
  148MOL0     H19497  -1.423   8.390   9.307 -1.8786  0.3292  0.9867
  148MOL0     H19498  -1.575   8.376   9.185 -0.0060  0.1153 -0.4516
  148MOL0     H19499  -1.796   8.290   9.095  0.8247  0.5231  0.3013
  148MOL0     H19500  -2.297   8.362   9.083 -0.7499  1.3818  0.9765
  148MOL0     H19501  -2.513   8.257   9.059  2.7686  1.5224 -1.8066
  148MOL0     H19502  -2.717   8.165   9.069  0.4455  1.0383  0.8828
  148MOL0     H19503  -2.758   8.310   9.170  0.1325  0.4118 -2.1423
  148MOL0     H19504  -2.945   8.221   9.135 -1.5881 -0.1132  0.8886
  148MOL0     H19505  -2.911   8.179   9.296  4.0293  0.9964  0.3800
  148MOL0     H19506  -2.832   7.944   9.183 -1.6623 -1.7377  1.2588
  148MOL0     H19507  -2.918   7.977   9.044  0.5215 -0.4939  0.5250
  148MOL0     H19508  -3.038   7.862   9.232  0.4140  1.0572  0.7835
  148MOL0     H19509  -3.075   8.035   9.292 -0.8837  0.6930 -0.1561
  148MOL0     H19510  -3.247   7.927   9.132  0.1554 -1.0227 -0.0335
  148MOL0     H19511  -3.111   7.890   9.023  3.1217  1.5029 -0.4004
  148MOL0     H19512  -3.096   8.120   8.976  3.1682 -0.2967  4.2474
  148MOL0     H19513  -3.212   8.161   9.109 -1.8046 -0.3446  0.0012
  148MOL0     H19514  -3.307   7.993   8.870  4.8778 -1.4645  0.2849
  148MOL0     H19515  -3.403   8.069   8.993 -1.4533  1.0819 -3.3192
  148MOL0     H19516  -3.313   8.294   8.904 -2.5781  1.5196 -0.3400
  148MOL0     H19517  -3.429   8.196   8.818  0.4544 -0.4324  0.1404
  148MOL0     H19518  -2.524   8.160   9.474  2.6068 -1.1909  1.0037
  148MOL0     H19519  -2.286   8.212   9.483  0.3819 -3.0615 -0.5772
  148MOL0     H19520  -1.977   8.471   9.454 -0.6481  0.8882  0.5024
  148MOL0     H19521  -1.769   8.578   9.505 -2.2224 -2.0139  2.8283
  148MOL0     H19522   0.358   8.996   8.975 -2.8364 -0.5018 -1.8884
  148MOL0     H19523   0.548   9.162   8.977 -0.6702 -1.7528 -1.6873
  148MOL0     H19524   0.725   9.517   9.082 -1.1645  3.2139  0.0462
  148MOL0     H19525   0.933   9.621   9.097  2.1592 -1.0396 -0.3851
  148MOL0     H19526   1.133   9.681   9.064  0.8662  0.1125  0.7799
  148MOL0     H19527   1.061   9.832   9.046  0.1787 -0.2333  0.0773
  148MOL0     H19528   1.304   9.891   9.072  2.9519 -2.0781 -1.5653
  148MOL0     H19529   1.331   9.805   8.921 -1.2514 -2.7082  0.1242
  148MOL0     H19530   1.180  10.051   8.956  0.7280 -1.1038  0.0332
  148MOL0     H19531   1.159   9.945   8.810  1.0439  2.5054 -2.1566
  148MOL0     H19532   1.372  10.125   8.918 -2.2874  2.4570 -0.2460
  148MOL0     H19533   1.418  10.000   8.805  0.4586  0.8444  0.0567
  148MOL0     H19534   1.170  10.305   8.614  0.9424  0.0263 -0.7020
  148MOL0     H19535   1.001   9.591   8.669 -0.1398  0.0972  0.0701
  148MOL0     H19536   0.797   9.457   8.661 -1.1341  0.7039  0.8179
  149MOL0     O19537   4.947   3.879   5.294 -0.1682 -0.4925 -0.7355
  149MOL0     C19538   4.971   3.764   5.265 -0.8520  0.8780 -0.7252
  149MOL0     O19539   5.083   3.695   5.309 -1.4461  0.0262  0.2245
  149MOL0     C19540   5.175   3.761   5.387 -0.1431  1.2334 -0.4657
  149MOL0     C19541   5.304   3.729   5.357 -0.5235 -0.6600 -0.7781
  149MOL0     C19542   5.407   3.787   5.437  0.3430  0.5317  0.1739
  149MOL0     C19543   5.374   3.888   5.543 -0.4388  0.0031 -0.1718
  149MOL0     O19544   5.472   3.940   5.625  0.1046 -0.5414 -0.0662
  149MOL0     C19545   5.605   3.891   5.612  0.6847  0.0454 -0.4411
  149MOL0     C19546   5.658   3.896   5.755  0.5883  0.7435 -0.6089
  149MOL0     C19547   5.568   3.812   5.857 -1.4841 -0.2817  0.2299
  149MOL0     C19548   5.615   3.831   6.007 -0.7895 -0.0324  0.0831
  149MOL0     C19549   5.506   3.768   6.090  0.5877  1.2028  0.1708
  149MOL0     C19550   5.538   3.777   6.242  0.1808  0.3159 -0.5237
  149MOL0     C19551   5.428   3.708   6.321 -0.8461  0.4086 -0.4253
  149MOL0     C19552   5.441   3.727   6.475  0.1634  0.3200  0.1064
  149MOL0     N19553   5.557   3.662   6.530  0.1131 -0.8922 -0.3838
  149MOL0     C19554   5.674   3.726   6.574 -0.5254  1.0131  0.9173
  149MOL0     C19555   5.762   3.631   6.609  0.8940 -0.4322 -0.2362
  149MOL0     C19556   5.894   3.658   6.678  0.3533  0.2230  0.5851
  149MOL0     C19557   5.985   3.697   6.561 -0.0809 -0.1058 -0.8179
  149MOL0     C19558   6.132   3.705   6.604  0.0936  1.3973 -0.3292
  149MOL0     C19559   6.160   3.805   6.717 -0.8150 -0.3669  0.4145
  149MOL0     O19560   6.298   3.845   6.725 -0.0449 -0.7778 -0.0060
  149MOL0     C19561   6.398   3.758   6.770 -0.1528 -0.8264 -0.0909
  149MOL0     C19562   6.363   3.635   6.832  0.1828  0.0674  0.8247
  149MOL0     C19563   6.462   3.566   6.891 -0.0763  0.5811 -0.1059
  149MOL0     C19564   6.604   3.609   6.887  0.9029  0.4794  0.3541
  149MOL0     C19565   6.710   3.520   6.926 -0.2359  0.2433  0.0659
  149MOL0     O19566   6.836   3.575   6.957 -0.2217 -0.1281 -0.0093
  149MOL0     C19567   6.928   3.485   7.004  0.2195  0.2188  0.2741
  149MOL0     C19568   7.029   3.451   6.917  0.1776 -0.2830 -1.0243
  149MOL0     C19569   7.136   3.367   6.955  0.3334  0.8429 -0.2956
  149MOL0     C19570   7.128   3.305   7.080 -0.2064 -0.1170  0.1146
  149MOL0     O19571   7.219   3.208   7.124  0.2996 -0.5092 -0.2843
  149MOL0     C19572   7.358   3.234   7.116  0.8049  0.4891 -0.4663
  149MOL0     C19573   7.431   3.102   7.143  0.2110  0.2081  0.5689
  149MOL0     C19574   7.584   3.100   7.105 -0.9629 -0.2608  0.3606
  149MOL0     C19575   7.626   2.962   7.058  0.3930 -0.0937 -0.1173
  149MOL0     C19576   7.772   2.958   7.020 -0.2489 -0.1261  0.0198
  149MOL0     C19577   7.817   2.809   7.005  0.5866  0.1388  0.3814
  149MOL0     C19578   7.972   2.808   6.968  0.2056  0.1250  0.4240
  149MOL0     C19579   8.017   2.655   6.963 -0.8779 -0.3698 -0.6534
  149MOL0    Cl19580   8.007   2.597   7.140  0.1193 -0.2682 -0.0697
  149MOL0     C19581   7.027   3.329   7.169 -0.3733 -0.9505  0.2905
  149MOL0     C19582   6.932   3.433   7.135  0.4126 -0.3898 -0.7307
  149MOL0     O19583   6.678   3.402   6.931  0.4865  0.0383  0.7272
  149MOL0     C19584   6.627   3.735   6.826 -0.1643 -0.0434  0.1406
  149MOL0     C19585   6.530   3.804   6.768  0.5757 -1.1567 -0.2474
  149MOL0     N19586   5.702   3.510   6.577 -0.1692  0.6947 -0.4473
  149MOL0     N19587   5.583   3.526   6.520  0.6542 -0.4226 -0.4645
  149MOL0     C19588   5.241   3.915   5.572 -0.2352 -0.1191  0.3229
  149MOL0     C19589   5.138   3.850   5.492  0.2886 -0.0072  0.0838
  149MOL0     C19590   4.887   3.704   5.160 -0.0094 -0.3184 -0.9856
  149MOL0     C19591   4.749   3.735   5.140 -0.2381  0.0448  0.8110
  149MOL0     C19592   4.680   3.672   5.039  1.0476  0.1704  0.6497
  149MOL0     C19593   4.734   3.595   4.940  0.1484  0.3303  0.4897
  149MOL0     O19594   4.655   3.558   4.829 -0.3567 -0.0947 -0.9115
  149MOL0     C19595   4.703   3.507   4.704 -0.3393 -0.4081  0.3340
  149MOL0     C19596   4.595   3.517   4.601 -0.1891  0.4033  0.3218
  149MOL0     C19597   4.470   3.436   4.631  0.1374  0.1702 -0.6401
  149MOL0     C19598   4.360   3.455   4.525 -0.6032 -0.6463 -0.3851
  149MOL0     C19599   4.236   3.381   4.556 -1.0570  0.7968 -0.3733
  149MOL0     C19600   4.137   3.313   4.577 -0.1442  0.2217  1.2535
  149MOL0     C19601   4.865   3.569   4.953 -0.3001  0.1090 -0.2890
  149MOL0     C19602   4.935   3.611   5.064 -0.8628  0.2129 -0.0519
  149MOL0     H19603   5.340   3.659   5.282  1.0753 -1.2905  0.5194
  149MOL0     H19604   5.505   3.755   5.406  0.3914 -1.2546  1.9717
  149MOL0     H19605   5.671   3.948   5.545  2.4580  0.0286  1.2276
  149MOL0     H19606   5.607   3.785   5.588  0.3728  0.2559 -1.4569
  149MOL0     H19607   5.645   4.000   5.783 -4.0563  0.5296 -1.1254
  149MOL0     H19608   5.761   3.869   5.779  0.6939  1.0629 -0.7020
  149MOL0     H19609   5.561   3.706   5.830 -1.1861  0.2275 -2.0588
  149MOL0     H19610   5.466   3.850   5.853 -1.6928 -0.8794 -0.5167
  149MOL0     H19611   5.710   3.781   6.032  0.9966  3.6452  1.3613
  149MOL0     H19612   5.626   3.939   6.018  1.4405 -0.0217 -1.4894
  149MOL0     H19613   5.496   3.663   6.062  2.1917  0.6516  1.5314
  149MOL0     H19614   5.415   3.821   6.060 -0.2391 -1.5965 -2.8953
  149MOL0     H19615   5.548   3.885   6.256  0.4151  0.6944 -3.1711
  149MOL0     H19616   5.638   3.737   6.261  0.8132  1.5621 -1.1723
  149MOL0     H19617   5.326   3.740   6.297 -0.9378 -0.2519 -0.9214
  149MOL0     H19618   5.434   3.600   6.308 -1.5090 -0.0087  2.2987
  149MOL0     H19619   5.352   3.682   6.520  0.4525 -1.0797 -0.6840
  149MOL0     H19620   5.434   3.833   6.501 -1.5126 -0.0389  1.3272
  149MOL0     H19621   5.698   3.830   6.593 -1.0727  1.3884 -0.3749
  149MOL0     H19622   5.934   3.578   6.741  0.7133 -0.0624 -0.0000
  149MOL0     H19623   5.892   3.750   6.738  0.6599 -0.6721  2.0057
  149MOL0     H19624   5.963   3.803   6.542 -0.7771  0.3103  1.7762
  149MOL0     H19625   5.965   3.627   6.480 -0.6620 -1.4349  0.4103
  149MOL0     H19626   6.156   3.606   6.642  0.5993  1.9200  0.7438
  149MOL0     H19627   6.189   3.722   6.512  0.7063 -0.6091 -0.3506
  149MOL0     H19628   6.141   3.756   6.813 -0.4123 -0.5644  0.3914
  149MOL0     H19629   6.103   3.898   6.703 -0.3053  0.3598  2.6751
  149MOL0     H19630   6.264   3.593   6.846  0.9255 -3.0374 -1.8765
  149MOL0     H19631   6.437   3.472   6.938  0.2884  0.0028 -1.0274
  149MOL0     H19632   7.029   3.485   6.814 -1.8754  0.9073 -0.7026
  149MOL0     H19633   7.209   3.341   6.879  0.2932 -0.4237  0.0803
  149MOL0     H19634   7.395   3.324   7.167  1.0447 -1.3071  2.7993
  149MOL0     H19635   7.404   3.259   7.020  5.4478 -3.7600  0.2866
  149MOL0     H19636   7.378   3.031   7.079 -0.8668  0.7472  0.8496
  149MOL0     H19637   7.415   3.065   7.245 -0.7805  0.8895  0.6732
  149MOL0     H19638   7.659   3.136   7.176  0.6085  1.2011 -1.9252
  149MOL0     H19639   7.601   3.168   7.021  2.6226 -0.2987  0.8973
  149MOL0     H19640   7.619   2.891   7.141 -3.5024  1.3865  1.0034
  149MOL0     H19641   7.566   2.924   6.975  2.6469  0.1781 -1.9875
  149MOL0     H19642   7.817   3.002   7.109  0.3001 -1.0188  0.2001
  149MOL0     H19643   7.794   3.002   6.923 -3.0998 -0.8213 -1.0491
  149MOL0     H19644   7.768   2.757   6.922  0.5882 -0.7151  0.8969
  149MOL0     H19645   7.813   2.758   7.102  0.4047  0.9929  0.8305
  149MOL0     H19646   7.998   2.848   6.870 -1.2471 -0.6915 -0.3331
  149MOL0     H19647   8.022   2.857   7.052  0.1537 -1.6722  1.5573
  149MOL0     H19648   8.117   2.645   6.920 -0.8526  1.3950 -1.0571
  149MOL0     H19649   7.952   2.602   6.892  0.6511 -2.3280 -0.6787
  149MOL0     H19650   7.048   3.284   7.266 -2.4716  2.2119  2.3676
  149MOL0     H19651   6.852   3.477   7.193 -1.0558 -1.1914 -2.0846
  149MOL0     H19652   6.727   3.775   6.843  0.6108 -1.7965 -0.0796
  149MOL0     H19653   6.560   3.901   6.727  0.0689 -0.8534  0.0881
  149MOL0     H19654   5.218   3.982   5.654  0.1531  0.6031 -0.1468
  149MOL0     H19655   5.034   3.869   5.516  0.4561  1.2200 -0.1099
  149MOL0     H19656   4.704   3.812   5.201 -1.7136  0.5991 -0.8896
  149MOL0     H19657   4.575   3.696   5.024  0.8417 -1.1155 -0.0888
  149MOL0     H19658   4.745   3.406   4.706  2.3540  0.6350  0.4705
  149MOL0     H19659   4.768   3.592   4.680 -2.9113  1.7569  0.6036
  149MOL0     H19660   4.572   3.620   4.575 -2.2839 -0.2260 -0.5531
  149MOL0     H19661   4.638   3.477   4.509  1.9454  0.0109  1.4188
  149MOL0     H19662   4.432   3.478   4.725  1.8719 -1.0475  0.6627
  149MOL0     H19663   4.487   3.329   4.640  0.5080  0.1993 -1.0080
  149MOL0     H19664   4.332   3.558   4.502  0.3941 -1.2057 -4.8869
  149MOL0     H19665   4.398   3.416   4.430 -2.7117 -2.1345 -0.6893
  149MOL0     H19666   4.055   3.252   4.611  1.3709 -0.5411  3.8170
  149MOL0     H19667   4.907   3.510   4.873  1.7747 -0.0719  0.8462
  149MOL0     H19668   5.043   3.599   5.071 -0.5232  0.2256 -3.5606
  150MOL0     O19669  10.132  11.268   8.299 -0.4466 -0.8493 -0.0798
  150MOL0     C19670  10.163  11.154   8.311  0.0582  0.1481  0.0043
  150MOL0     O19671  10.078  11.045   8.287 -0.6378  0.6260 -0.2142
  150MOL0     C19672   9.945  11.060   8.267  0.5631 -0.3394  0.2457
  150MOL0     C19673   9.879  11.169   8.203 -0.2556 -0.2723  0.6878
  150MOL0     C19674   9.747  11.170   8.174  0.0164  0.2580 -0.4772
  150MOL0     C19675   9.670  11.060   8.221 -0.5461 -0.1633  0.4029
  150MOL0     O19676   9.539  11.041   8.191  0.5273  0.4782 -0.1880
  150MOL0     C19677   9.452  11.162   8.206  0.6461  0.0984 -0.1366
  150MOL0     C19678   9.308  11.135   8.162 -0.0807  0.3141  0.4710
  150MOL0     C19679   9.205  11.197   8.257 -0.9627 -0.0011 -0.5075
  150MOL0     C19680   9.061  11.174   8.193  0.8371  0.1862 -0.3266
  150MOL0     C19681   8.958  11.126   8.294  0.3654  0.4120  0.7475
  150MOL0     C19682   8.826  11.108   8.213 -0.7933  0.0636  0.0747
  150MOL0     C19683   8.717  11.030   8.292 -0.1659 -0.5692  0.6181
  150MOL0     C19684   8.576  11.026   8.222 -0.1427  0.1359  0.5169
  150MOL0     N19685   8.509  11.153   8.220  1.3762  0.2720 -0.3409
  150MOL0     C19686   8.429  11.194   8.323  0.4546 -0.1064  1.4714
  150MOL0     C19687   8.377  11.313   8.282  0.9922  0.4941  0.8504
  150MOL0     C19688   8.304  11.406   8.366 -0.2953  0.1467 -0.7374
  150MOL0     C19689   8.145  11.417   8.350 -1.0676  0.1394  0.4537
  150MOL0     C19690   8.068  11.281   8.381 -0.8149 -0.0100  0.6108
  150MOL0     C19691   7.920  11.301   8.406  0.2841 -0.1074  0.6728
  150MOL0     O19692   7.865  11.171   8.420  0.1779  0.0229 -0.1199
  150MOL0     C19693   7.723  11.177   8.440  0.2188 -0.5040  0.3736
  150MOL0     C19694   7.669  11.060   8.491  0.1433  0.4892  0.7203
  150MOL0     C19695   7.537  11.038   8.509  0.3598 -0.7677  0.1727
  150MOL0     C19696   7.458  11.150   8.501 -0.1679 -0.3293  0.2724
  150MOL0     C19697   7.319  11.137   8.533 -0.2348 -0.6616 -0.1612
  150MOL0     O19698   7.277  11.047   8.618 -0.3482  0.7773 -0.2818
  150MOL0     C19699   7.143  11.041   8.649 -0.6319 -0.2518 -0.7847
  150MOL0     C19700   7.067  10.930   8.601  0.4712  0.0169  0.9779
  150MOL0     C19701   6.941  10.914   8.645  0.1557 -0.4207  0.6618
  150MOL0     C19702   6.892  10.988   8.746  0.2703 -0.1881  0.2092
  150MOL0     O19703   6.763  10.947   8.780  0.3354  0.3094 -0.3017
  150MOL0     C19704   6.687  11.039   8.854 -0.9248 -0.3366  0.1382
  150MOL0     C19705   6.545  10.989   8.880 -0.9565  0.5674  0.8344
  150MOL0     C19706   6.463  10.983   8.746 -0.1460  0.1308  0.1678
  150MOL0     C19707   6.341  10.887   8.754 -1.1492  0.1912 -0.3710
  150MOL0     C19708   6.307  10.861   8.607 -0.4933 -0.0549  0.2579
  150MOL0     C19709   6.197  10.762   8.592 -0.0590  0.0233  0.6511
  150MOL0     C19710   6.068  10.828   8.640 -0.0472 -0.8380  0.4185
  150MOL0     C19711   5.947  10.785   8.558 -0.4356  0.3591 -0.4148
  150MOL0    Cl19712   5.916  10.611   8.576 -0.2328  0.5338  0.3581
  150MOL0     C19713   6.962  11.094   8.803  0.5379  0.1482  0.7299
  150MOL0     C19714   7.093  11.124   8.750  0.6013 -0.4171  0.2646
  150MOL0     O19715   7.243  11.205   8.459  0.6308  0.7711 -0.8699
  150MOL0     C19716   7.508  11.271   8.440  0.1927 -0.1046 -0.2181
  150MOL0     C19717   7.643  11.288   8.413  0.0688 -0.7662  0.3213
  150MOL0     N19718   8.427  11.352   8.157  0.7495  0.2488 -0.0047
  150MOL0     N19719   8.511  11.255   8.124  0.4642  0.3865 -0.0334
  150MOL0     C19720   9.732  10.947   8.267 -0.6851  0.0003  0.2478
  150MOL0     C19721   9.871  10.954   8.308  0.3666  0.3313  0.8093
  150MOL0     C19722  10.300  11.133   8.347  0.4322 -0.1006 -0.4398
  150MOL0     C19723  10.390  11.249   8.352  0.6776  0.2096  0.6273
  150MOL0     C19724  10.524  11.219   8.382  0.1315 -1.1157  0.5437
  150MOL0     C19725  10.568  11.091   8.405 -0.0262  0.2043 -0.5965
  150MOL0     O19726  10.695  11.071   8.451  0.7111  0.0975  0.1836
  150MOL0     C19727  10.777  10.970   8.391 -0.3417  0.3424  0.0044
  150MOL0     C19728  10.907  11.031   8.346  0.8207  0.5032 -0.8370
  150MOL0     C19729  10.889  11.141   8.248 -1.0822 -0.2985 -0.6873
  150MOL0     C19730  11.020  11.220   8.222  0.5798 -0.3852 -0.7473
  150MOL0     C19731  11.139  11.146   8.167 -0.4893 -0.3556  0.2347
  150MOL0     C19732  11.242  11.087   8.119 -0.4212 -1.1314 -0.9055
  150MOL0     C19733  10.482  10.983   8.401 -0.4848  0.3292  0.2464
  150MOL0     C19734  10.350  11.006   8.375  0.3125 -0.4642 -0.3318
  150MOL0     H19735   9.929  11.254   8.159 -1.4353  0.4908  0.8065
  150MOL0     H19736   9.705  11.250   8.113  3.2464  3.1697  0.7443
  150MOL0     H19737   9.484  11.234   8.131 -1.5371  1.0981 -0.1869
  150MOL0     H19738   9.455  11.216   8.301 -1.2613 -0.7450  0.4588
  150MOL0     H19739   9.285  11.030   8.143  0.1224  0.5177 -0.9953
  150MOL0     H19740   9.285  11.193   8.073 -0.2524 -0.2991  0.1115
  150MOL0     H19741   9.229  11.303   8.271 -1.1369 -0.1926  1.5932
  150MOL0     H19742   9.210  11.165   8.361 -4.0000  4.3324  1.3246
  150MOL0     H19743   9.028  11.274   8.163  1.3128  0.9408  1.4876
  150MOL0     H19744   9.065  11.109   8.106  2.1479 -1.8344  1.1712
  150MOL0     H19745   8.929  11.198   8.371 -1.1561  1.9071 -1.1480
  150MOL0     H19746   8.983  11.028   8.336  0.0109  0.7516  1.7953
  150MOL0     H19747   8.854  11.052   8.124  1.5370 -0.5068  1.0969
  150MOL0     H19748   8.793  11.205   8.174  1.0582  1.5190  1.9071
  150MOL0     H19749   8.748  10.925   8.284  1.7698  0.1184 -2.5568
  150MOL0     H19750   8.701  11.072   8.392 -4.6564 -1.1753  0.3558
  150MOL0     H19751   8.505  10.950   8.254  0.0521  0.2746  1.3020
  150MOL0     H19752   8.609  11.002   8.120 -0.6114  0.4670  0.2803
  150MOL0     H19753   8.405  11.143   8.415 -1.8913 -0.6749  0.6156
  150MOL0     H19754   8.346  11.506   8.349 -0.5166  0.0504 -1.9987
  150MOL0     H19755   8.322  11.386   8.472 -4.0393 -1.2009 -0.2207
  150MOL0     H19756   8.137  11.449   8.246  2.8994  1.6581  0.4307
  150MOL0     H19757   8.098  11.494   8.411  0.2491  1.5273 -0.2161
  150MOL0     H19758   8.074  11.221   8.289  0.1515  0.6014  0.2557
  150MOL0     H19759   8.117  11.232   8.466 -0.1952 -2.6197 -1.1327
  150MOL0     H19760   7.874  11.358   8.325  0.8583  1.5001  1.4317
  150MOL0     H19761   7.903  11.372   8.489 -1.6001  2.1326 -1.4514
  150MOL0     H19762   7.737  10.978   8.514  0.7316  1.2708  1.8653
  150MOL0     H19763   7.491  10.941   8.530  1.7568 -2.0720 -2.3404
  150MOL0     H19764   7.100  10.866   8.520 -0.6963  3.5607 -2.6599
  150MOL0     H19765   6.897  10.820   8.615 -1.7153  1.3368 -2.6704
  150MOL0     H19766   6.689  11.130   8.792  2.5660 -1.6882 -2.0097
  150MOL0     H19767   6.730  11.058   8.952 -1.8463 -0.2608  0.5423
  150MOL0     H19768   6.507  11.060   8.954  0.8323  2.0197  0.4205
  150MOL0     H19769   6.550  10.891   8.929 -0.9669  2.1062  4.1901
  150MOL0     H19770   6.533  10.962   8.665  0.4600  2.0141  0.1416
  150MOL0     H19771   6.429  11.082   8.713  1.4262 -0.2673 -3.0448
  150MOL0     H19772   6.368  10.799   8.812  0.3331  0.7842 -0.1115
  150MOL0     H19773   6.253  10.933   8.800 -1.1451  3.0145 -2.8620
  150MOL0     H19774   6.398  10.826   8.556  0.4206  2.3244  0.1535
  150MOL0     H19775   6.290  10.957   8.557  2.8398  0.6085  0.1450
  150MOL0     H19776   6.214  10.675   8.657  2.5782  0.2347  0.3366
  150MOL0     H19777   6.196  10.744   8.484 -0.9617  1.4447  0.3979
  150MOL0     H19778   6.066  10.801   8.746  0.9018 -1.8342  0.2090
  150MOL0     H19779   6.079  10.934   8.616 -0.8887 -1.1433 -1.4720
  150MOL0     H19780   5.959  10.820   8.455  1.0744  1.0422 -0.0354
  150MOL0     H19781   5.860  10.834   8.602 -0.3901  0.3808 -0.3497
  150MOL0     H19782   6.924  11.148   8.890  1.4296 -2.9563  3.2325
  150MOL0     H19783   7.150  11.209   8.784 -0.2093 -0.0829  0.8122
  150MOL0     H19784   7.439  11.353   8.422 -0.2889  0.5947  3.7857
  150MOL0     H19785   7.672  11.381   8.367 -0.8217 -0.3839  0.5067
  150MOL0     H19786   9.676  10.857   8.289  1.1455 -0.9177  1.4136
  150MOL0     H19787   9.934  10.872   8.340  2.5367  0.1200 -3.3891
  150MOL0     H19788  10.363  11.351   8.328  0.5758  0.2959  1.0979
  150MOL0     H19789  10.588  11.307   8.389 -0.9713 -0.1439 -0.9341
  150MOL0     H19790  10.729  10.935   8.298  0.4563  1.0002 -0.6714
  150MOL0     H19791  10.798  10.895   8.467  3.8578 -1.5512 -2.6227
  150MOL0     H19792  10.967  11.066   8.430  0.8937  2.5943 -1.7051
  150MOL0     H19793  10.973  10.955   8.303  1.2348 -0.1945  0.9314
  150MOL0     H19794  10.820  11.216   8.287 -2.0432 -0.5095 -1.9131
  150MOL0     H19795  10.845  11.101   8.156 -2.5931  2.2154 -1.1339
  150MOL0     H19796  11.003  11.296   8.145  3.0493  0.9311 -0.0739
  150MOL0     H19797  11.036  11.271   8.317 -3.0210 -0.1985 -0.0751
  150MOL0     H19798  11.327  11.040   8.075  0.2745 -2.5177  1.7082
  150MOL0     H19799  10.526  10.885   8.415  2.2685  1.1690 -1.6517
  150MOL0     H19800  10.293  10.914   8.380  1.9389 -1.4447  2.2186
  151MOL0     O19801   7.904   8.866  11.095 -0.3450 -0.4593 -0.0452
  151MOL0     C19802   7.966   8.772  11.137 -0.6993 -0.7087  0.7265
  151MOL0     O19803   7.922   8.652  11.185 -0.8393  0.2644 -0.0682
  151MOL0     C19804   7.791   8.629  11.201 -0.5229 -0.5265 -0.0006
  151MOL0     C19805   7.716   8.549  11.114  0.5215 -0.7423 -0.2498
  151MOL0     C19806   7.577   8.545  11.118 -0.2333 -0.6785  0.1702
  151MOL0     C19807   7.509   8.610  11.223 -0.5494  0.7719 -0.7096
  151MOL0     O19808   7.373   8.603  11.237  0.3868  0.8996 -0.1702
  151MOL0     C19809   7.302   8.688  11.330  0.1901  0.3398  0.0632
  151MOL0     C19810   7.156   8.672  11.312  0.4971  0.8038 -0.2573
  151MOL0     C19811   7.056   8.743  11.394 -0.6339  0.0062 -0.5872
  151MOL0     C19812   6.926   8.775  11.320  0.0829  0.4935  0.2546
  151MOL0     C19813   6.803   8.821  11.414 -0.0667 -0.4432 -0.3064
  151MOL0     C19814   6.684   8.879  11.332 -1.0569 -0.8789 -0.2463
  151MOL0     C19815   6.601   8.983  11.417 -0.1067 -0.0653 -0.6501
  151MOL0     C19816   6.475   9.013  11.343 -0.1815 -0.2626 -0.7861
  151MOL0     N19817   6.476   9.091  11.223  0.5605  0.9665  1.3117
  151MOL0     C19818   6.488   9.043  11.093 -0.0199  0.1751  0.4144
  151MOL0     C19819   6.533   9.144  11.020  0.0287  0.2566 -0.3307
  151MOL0     C19820   6.569   9.127  10.869  0.0669 -0.1501 -0.3781
  151MOL0     C19821   6.449   9.118  10.777  0.1527 -1.1368  1.1330
  151MOL0     C19822   6.354   9.233  10.808  1.2774  0.7124  1.4836
  151MOL0     C19823   6.223   9.206  10.751  0.5530  0.3979  0.8212
  151MOL0     O19824   6.156   9.108  10.833 -0.0503 -0.2152 -0.0569
  151MOL0     C19825   6.039   9.053  10.783  0.4239 -1.5081 -0.0667
  151MOL0     C19826   5.963   9.103  10.671  0.5249 -0.0214 -0.7400
  151MOL0     C19827   5.839   9.036  10.638  0.0905  0.9761 -0.4660
  151MOL0     C19828   5.789   8.931  10.725  0.6897 -0.5553  0.6865
  151MOL0     C19829   5.649   8.888  10.703 -0.7565  0.6391 -0.0022
  151MOL0     O19830   5.585   8.929  10.589 -0.2034 -0.5555 -0.3955
  151MOL0     C19831   5.463   8.879  10.562 -0.3642 -0.1361 -0.1261
  151MOL0     C19832   5.423   8.746  10.548 -0.1476 -0.1622 -1.3396
  151MOL0     C19833   5.290   8.705  10.522 -0.3918 -0.4949 -0.0564
  151MOL0     C19834   5.196   8.804  10.494  1.0557  0.3204 -0.1306
  151MOL0     O19835   5.063   8.766  10.483  0.2524 -0.8893  0.8277
  151MOL0     C19836   4.972   8.858  10.427  0.4332  0.2213 -0.1805
  151MOL0     C19837   4.828   8.833  10.426 -0.4580  0.3519 -0.5480
  151MOL0     C19838   4.760   8.908  10.315 -1.0490 -0.0236 -0.0766
  151MOL0     C19839   4.615   8.944  10.358 -0.0706  0.0723 -0.0223
  151MOL0     C19840   4.553   9.052  10.264 -0.2517  0.3074  0.9948
  151MOL0     C19841   4.405   9.082  10.284 -0.2048  0.2559 -0.2453
  151MOL0     C19842   4.352   9.197  10.197 -0.1773 -0.0761 -0.7860
  151MOL0     C19843   4.208   9.237  10.256 -0.6552  0.0533  0.0692
  151MOL0    Cl19844   4.105   9.100  10.219 -0.5617  0.0083  0.0992
  151MOL0     C19845   5.246   8.944  10.497  0.2233 -0.1756  0.8244
  151MOL0     C19846   5.375   8.980  10.528 -0.6067  0.4459  0.1208
  151MOL0     O19847   5.601   8.803  10.783 -0.5359  0.9670  0.0489
  151MOL0     C19848   5.869   8.885  10.833  0.0733 -0.4755  0.4730
  151MOL0     C19849   5.996   8.942  10.853  0.7205  0.5862 -0.0179
  151MOL0     N19850   6.546   9.255  11.101 -0.6411  0.8944  0.9439
  151MOL0     N19851   6.518   9.218  11.224 -0.0177 -0.3591  0.3116
  151MOL0     C19852   7.587   8.669  11.325 -0.4385  0.1435  0.3483
  151MOL0     C19853   7.724   8.683  11.314 -0.8152  0.4601 -0.7675
  151MOL0     C19854   8.111   8.784  11.121  0.8574 -0.0958  0.4063
  151MOL0     C19855   8.168   8.913  11.087 -0.3383  0.8539  0.0592
  151MOL0     C19856   8.303   8.917  11.081  0.6750 -0.6167  0.2488
  151MOL0     C19857   8.385   8.804  11.098  0.1245 -0.2322  0.8406
  151MOL0     O19858   8.523   8.825  11.086  0.1756  0.2197  0.0359
  151MOL0     C19859   8.608   8.715  11.058 -0.2275 -0.5582 -0.3327
  151MOL0     C19860   8.740   8.787  11.024 -1.2454 -0.2301  0.4756
  151MOL0     C19861   8.744   8.821  10.878 -0.3804  0.1532 -0.1699
  151MOL0     C19862   8.877   8.881  10.822  0.5154  0.3220 -0.8719
  151MOL0     C19863   8.973   8.771  10.846 -0.4544  0.1628 -0.0822
  151MOL0     C19864   9.056   8.680  10.840  0.0735 -0.5706  0.0101
  151MOL0     C19865   8.331   8.677  11.114  0.0118 -0.9144  0.2979
  151MOL0     C19866   8.190   8.662  11.130 -0.5865  0.1935  0.0692
  151MOL0     H19867   7.771   8.486  11.045 -0.3994 -2.7557  0.7952
  151MOL0     H19868   7.518   8.489  11.046  3.1126 -5.4424  0.6433
  151MOL0     H19869   7.329   8.792  11.307 -2.9837  1.2726  0.0797
  151MOL0     H19870   7.321   8.664  11.435 -0.0747 -2.1357 -0.3892
  151MOL0     H19871   7.129   8.566  11.320  2.8148  0.2354  0.8507
  151MOL0     H19872   7.141   8.703  11.208 -0.2989  2.2574  0.2633
  151MOL0     H19873   7.112   8.825  11.440 -0.9050 -1.5206  2.8335
  151MOL0     H19874   7.026   8.684  11.482 -2.9190 -2.1849 -2.6789
  151MOL0     H19875   6.940   8.856  11.248  0.7338  1.0992  1.0469
  151MOL0     H19876   6.894   8.679  11.277 -0.0281 -1.5509  4.3997
  151MOL0     H19877   6.840   8.889  11.491  1.5766 -1.6444  0.0342
  151MOL0     H19878   6.774   8.726  11.460  0.9278 -0.7269 -0.2447
  151MOL0     H19879   6.615   8.802  11.298 -3.1152  1.6690 -2.3016
  151MOL0     H19880   6.730   8.941  11.255 -3.1375  1.3897  0.2008
  151MOL0     H19881   6.578   8.936  11.513  0.4359 -1.4214 -1.1648
  151MOL0     H19882   6.648   9.080  11.437 -0.2811  0.3153 -1.9678
  151MOL0     H19883   6.407   9.060  11.415 -0.2819  0.7005 -1.4895
  151MOL0     H19884   6.428   8.918  11.317 -1.6602  0.6411 -1.6057
  151MOL0     H19885   6.470   8.938  11.072 -0.9709  0.1453  1.3078
  151MOL0     H19886   6.621   9.031  10.857 -1.5361 -1.3448  1.5692
  151MOL0     H19887   6.643   9.205  10.846 -0.0213  0.7129  2.0532
  151MOL0     H19888   6.394   9.024  10.779 -0.4667 -0.9003 -1.5600
  151MOL0     H19889   6.485   9.120  10.674 -1.6372  2.0282  0.4203
  151MOL0     H19890   6.340   9.242  10.916  1.8953  1.3334  1.5265
  151MOL0     H19891   6.386   9.327  10.761 -0.8526 -0.4102 -2.6769
  151MOL0     H19892   6.229   9.181  10.645 -2.6763  0.2206  0.5866
  151MOL0     H19893   6.167   9.300  10.750 -1.0351 -0.5119 -0.4007
  151MOL0     H19894   5.995   9.189  10.613  0.6949 -0.9846 -2.1257
  151MOL0     H19895   5.777   9.084  10.563  1.1589  3.3066  0.0484
  151MOL0     H19896   5.491   8.670  10.585  1.0162  0.1340 -2.7463
  151MOL0     H19897   5.267   8.600  10.530 -1.0688 -0.3991 -0.6264
  151MOL0     H19898   5.004   8.873  10.324  1.0968  2.4895  0.3053
  151MOL0     H19899   4.998   8.954  10.471  5.7583 -1.5277  1.2068
  151MOL0     H19900   4.788   8.874  10.519 -1.2560  3.2920 -2.0481
  151MOL0     H19901   4.802   8.727  10.424 -1.3889  0.5467  0.6073
  151MOL0     H19902   4.750   8.844  10.226  0.9207  0.6615 -0.8384
  151MOL0     H19903   4.799   9.005  10.283 -3.0831  1.8437  2.5871
  151MOL0     H19904   4.553   8.855  10.363  0.4726 -0.2454  1.5542
  151MOL0     H19905   4.614   8.983  10.460 -1.6862 -0.6684  0.2802
  151MOL0     H19906   4.560   9.019  10.160  3.3219  1.3701  0.7574
  151MOL0     H19907   4.619   9.139  10.270  2.5877 -1.5610 -0.6355
  151MOL0     H19908   4.399   9.112  10.389 -0.0288  1.4673 -0.5719
  151MOL0     H19909   4.334   9.000  10.270 -1.8594  1.8037 -1.3465
  151MOL0     H19910   4.421   9.280  10.214 -0.0857 -0.7205  2.7504
  151MOL0     H19911   4.350   9.167  10.092  0.1437 -0.1855 -0.7612
  151MOL0     H19912   4.173   9.325  10.201 -0.0961  0.3989  0.2606
  151MOL0     H19913   4.222   9.245  10.364  1.2661 -0.1735 -0.1225
  151MOL0     H19914   5.180   9.029  10.483  0.8557  0.6838  2.6951
  151MOL0     H19915   5.393   9.086  10.540 -2.3129  1.0303 -1.8618
  151MOL0     H19916   5.826   8.815  10.904 -2.1682  1.7037  1.3900
  151MOL0     H19917   6.061   8.897  10.927  1.7790  0.9418 -0.7089
  151MOL0     H19918   7.536   8.712  11.411 -1.6853  0.2209 -0.4002
  151MOL0     H19919   7.787   8.728  11.390 -0.7705 -2.7008  1.2557
  151MOL0     H19920   8.117   9.006  11.065 -1.6383 -0.0459 -0.8936
  151MOL0     H19921   8.354   9.009  11.056  1.5294 -0.9166  0.8606
  151MOL0     H19922   8.574   8.648  10.979  2.0948 -1.7003 -0.4398
  151MOL0     H19923   8.606   8.661  11.153  2.6771  1.9535  1.3614
  151MOL0     H19924   8.746   8.880  11.082  0.3650 -0.2437  0.3702
  151MOL0     H19925   8.826   8.727  11.056  0.7384 -0.4882 -4.4808
  151MOL0     H19926   8.661   8.888  10.852 -0.5899  0.1764  0.5458
  151MOL0     H19927   8.721   8.731  10.819 -1.1638  1.0764 -1.3325
  151MOL0     H19928   8.865   8.903  10.715  0.4224  1.3908 -0.6511
  151MOL0     H19929   8.902   8.976  10.870 -0.7677  0.8739 -1.2566
  151MOL0     H19930   9.127   8.599  10.843 -1.8803 -2.4956 -2.0730
  151MOL0     H19931   8.392   8.588  11.109  1.5921 -0.0351  2.5205
  151MOL0     H19932   8.150   8.562  11.148 -0.8086  0.3653  0.5570
  152MOL0     O19933   2.457   4.411   2.232  0.2159  0.1448 -0.0748
  152MOL0     C19934   2.537   4.502   2.247 -0.6791  0.9209 -0.3265
  152MOL0     O19935   2.505   4.635   2.232 -0.3315  0.2190  0.1927
  152MOL0     C19936   2.391   4.646   2.160  0.2771  0.2516 -0.1954
  152MOL0     C19937   2.262   4.646   2.230  0.1156 -0.2354  0.8062
  152MOL0     C19938   2.139   4.647   2.153  0.3937  0.0279 -0.2748
  152MOL0     C19939   2.135   4.668   2.022 -0.5010 -0.1807  0.6505
  152MOL0     O19940   2.015   4.696   1.970  0.5681 -0.1503 -0.8146
  152MOL0     C19941   2.005   4.834   1.918 -0.1124 -0.4923  0.0049
  152MOL0     C19942   1.852   4.866   1.906  0.2578 -0.1152 -0.2129
  152MOL0     C19943   1.794   4.775   1.803  0.2968 -1.0263  0.0325
  152MOL0     C19944   1.644   4.805   1.782  0.6382 -0.0305  0.1398
  152MOL0     C19945   1.596   4.717   1.669 -0.2249 -0.2110 -0.2160
  152MOL0     C19946   1.450   4.729   1.640  0.4512 -1.3105  0.3641
  152MOL0     C19947   1.407   4.627   1.531 -0.7851  0.6152  0.1217
  152MOL0     C19948   1.402   4.496   1.602  0.7847  0.4331  0.0775
  152MOL0     N19949   1.282   4.491   1.688 -0.2487 -0.2699 -0.3913
  152MOL0     C19950   1.153   4.521   1.653  0.2723 -0.2333 -0.5629
  152MOL0     C19951   1.081   4.498   1.761 -0.4393 -0.8989  0.0329
  152MOL0     C19952   0.931   4.519   1.783  0.2085  0.0597  0.2573
  152MOL0     C19953   0.855   4.393   1.810 -0.0695  0.2531  0.4054
  152MOL0     C19954   0.808   4.312   1.689  0.7251  0.3979 -0.1900
  152MOL0     C19955   0.656   4.318   1.665 -0.1190  0.5216 -0.8053
  152MOL0     O19956   0.610   4.449   1.623  0.4735  0.4854  0.2025
  152MOL0     C19957   0.479   4.479   1.636  0.8494 -0.6521  0.1189
  152MOL0     C19958   0.411   4.457   1.757 -0.2353 -0.5612 -0.3762
  152MOL0     C19959   0.265   4.473   1.764 -0.2367  0.0413  0.1736
  152MOL0     C19960   0.195   4.513   1.644 -0.2052  0.7890  0.8104
  152MOL0     C19961   0.053   4.545   1.651 -0.5876 -1.2775  0.4595
  152MOL0     O19962  -0.012   4.474   1.743  0.2573  0.0987  0.3090
  152MOL0     C19963  -0.148   4.485   1.747  0.1785 -0.4672 -0.3906
  152MOL0     C19964  -0.214   4.576   1.839  0.3558 -0.2089  0.6042
  152MOL0     C19965  -0.355   4.576   1.851  1.4586  0.4946  0.1623
  152MOL0     C19966  -0.432   4.485   1.777  0.5429  1.0232  0.5852
  152MOL0     O19967  -0.571   4.492   1.760  0.1091 -0.5126 -0.6900
  152MOL0     C19968  -0.656   4.503   1.881 -0.0357 -0.6860 -0.5781
  152MOL0     C19969  -0.762   4.390   1.877 -0.1119  0.1763  0.2455
  152MOL0     C19970  -0.848   4.398   1.750 -0.8186  0.0677 -0.0427
  152MOL0     C19971  -0.911   4.267   1.738  0.6921 -0.5556  0.4986
  152MOL0     C19972  -1.011   4.285   1.615  0.9019  0.4936 -0.3601
  152MOL0     C19973  -1.149   4.332   1.644  0.2899 -0.2928 -0.1786
  152MOL0     C19974  -1.237   4.349   1.523  0.1133 -0.5763  0.0747
  152MOL0     C19975  -1.270   4.229   1.432  1.4113  1.0383 -0.8248
  152MOL0    Cl19976  -1.361   4.113   1.531 -0.4436 -0.1110 -0.6288
  152MOL0     C19977  -0.374   4.407   1.678 -0.2407  0.0250  0.1864
  152MOL0     C19978  -0.232   4.393   1.675 -0.9167 -0.6658  0.0894
  152MOL0     O19979   0.008   4.631   1.578  0.7049 -0.0033 -0.1700
  152MOL0     C19980   0.270   4.546   1.528 -0.5015 -0.6087 -0.5479
  152MOL0     C19981   0.406   4.525   1.526 -0.1553  0.6244  1.0796
  152MOL0     N19982   1.162   4.457   1.867  0.3297  0.0485 -0.3829
  152MOL0     N19983   1.282   4.454   1.822  0.7548 -0.0265  0.0088
  152MOL0     C19984   2.260   4.677   1.955  0.1543  0.1807  0.7707
  152MOL0     C19985   2.381   4.655   2.022  0.4383  0.0812  0.8458
  152MOL0     C19986   2.668   4.469   2.306 -0.5315 -0.5099 -0.9778
  152MOL0     C19987   2.691   4.351   2.369 -0.4399  0.5828  1.4686
  152MOL0     C19988   2.818   4.322   2.424  0.2798  0.4026  0.0733
  152MOL0     C19989   2.923   4.410   2.428 -0.1710 -0.4297  0.9719
  152MOL0     O19990   3.030   4.372   2.504  0.0895 -0.2537  0.6189
  152MOL0     C19991   3.012   4.401   2.645 -0.0598 -0.1778  0.0861
  152MOL0     C19992   3.109   4.510   2.678 -0.7536 -0.0481  0.0664
  152MOL0     C19993   3.258   4.479   2.657 -0.3633 -0.1635 -0.0721
  152MOL0     C19994   3.327   4.611   2.640  0.2033 -0.7633 -0.5088
  152MOL0     C19995   3.469   4.592   2.620 -0.1120  0.0549 -0.1883
  152MOL0     C19996   3.587   4.572   2.583 -0.3248 -0.1271 -0.8815
  152MOL0     C19997   2.895   4.541   2.379  0.1603  0.3173  0.9980
  152MOL0     C19998   2.774   4.571   2.317  0.9926 -0.3743  0.2226
  152MOL0     H19999   2.262   4.642   2.339  3.3831  1.3138  0.9935
  152MOL0     H20000   2.047   4.666   2.209  0.1746 -1.5665 -0.0544
  152MOL0     H20001   2.042   4.847   1.816 -1.0934 -0.3128 -0.3414
  152MOL0     H20002   2.057   4.908   1.979  0.4478 -0.8901  0.0189
  152MOL0     H20003   1.828   4.970   1.882 -0.4599  0.4834  2.6824
  152MOL0     H20004   1.799   4.854   2.001 -0.1528  1.6637 -0.1689
  152MOL0     H20005   1.801   4.670   1.831 -1.1609 -1.5836 -1.5022
  152MOL0     H20006   1.849   4.793   1.710 -0.8653  1.6703 -0.2395
  152MOL0     H20007   1.586   4.779   1.870 -0.2083  0.6718 -0.1974
  152MOL0     H20008   1.623   4.906   1.746 -0.3829  0.1405  1.1661
  152MOL0     H20009   1.627   4.618   1.704 -0.8497  0.9694  4.1801
  152MOL0     H20010   1.649   4.746   1.578  1.2478  0.7207  0.8903
  152MOL0     H20011   1.427   4.831   1.606  1.3012 -0.5024  2.0514
  152MOL0     H20012   1.391   4.709   1.730 -2.0007  0.9244 -0.6061
  152MOL0     H20013   1.306   4.645   1.494 -0.8097 -3.9647 -2.7993
  152MOL0     H20014   1.462   4.613   1.438  1.4882  0.9233  1.3481
  152MOL0     H20015   1.490   4.480   1.665  1.1569 -1.2996 -0.8241
  152MOL0     H20016   1.385   4.411   1.536 -2.5483  0.2984  0.9652
  152MOL0     H20017   1.131   4.546   1.550  1.2261  2.4553 -0.1854
  152MOL0     H20018   0.884   4.565   1.695 -2.7827 -1.6862  0.7862
  152MOL0     H20019   0.921   4.583   1.871 -2.0673 -0.3469  0.3633
  152MOL0     H20020   0.774   4.419   1.879  0.2339  1.3160  0.3819
  152MOL0     H20021   0.910   4.316   1.865 -2.0201 -1.9927 -0.6202
  152MOL0     H20022   0.872   4.334   1.603 -0.9079  2.3220 -0.9872
  152MOL0     H20023   0.816   4.208   1.721 -0.7276  0.5598  0.7977
  152MOL0     H20024   0.598   4.283   1.751 -0.7094 -0.2362 -1.4909
  152MOL0     H20025   0.626   4.247   1.587  1.3364 -1.5126  0.3863
  152MOL0     H20026   0.472   4.430   1.842 -1.2090 -1.8128 -0.0360
  152MOL0     H20027   0.215   4.447   1.857  0.4029 -0.4478  0.3893
  152MOL0     H20028  -0.154   4.642   1.901  0.7033  1.8499 -1.7793
  152MOL0     H20029  -0.402   4.642   1.924  1.0906 -2.0532  2.3709
  152MOL0     H20030  -0.703   4.601   1.864  1.1705 -0.3701 -2.4235
  152MOL0     H20031  -0.593   4.492   1.970 -1.7298  0.9094  0.9005
  152MOL0     H20032  -0.835   4.401   1.958  0.2695  2.7775  0.3415
  152MOL0     H20033  -0.717   4.291   1.890 -1.1051 -0.2675  0.3338
  152MOL0     H20034  -0.798   4.408   1.653 -1.5027  1.2546 -0.3026
  152MOL0     H20035  -0.921   4.479   1.761 -1.1757 -0.3342  0.5942
  152MOL0     H20036  -0.831   4.200   1.707  1.4430  0.9225 -0.8977
  152MOL0     H20037  -0.957   4.220   1.826 -0.9837  2.5002  1.3860
  152MOL0     H20038  -1.022   4.182   1.581 -1.8678  1.0588 -1.4180
  152MOL0     H20039  -0.970   4.347   1.534  2.4021 -0.1913 -0.1722
  152MOL0     H20040  -1.151   4.429   1.695 -1.3896 -0.5110  0.2336
  152MOL0     H20041  -1.211   4.267   1.707  0.4953 -1.1923 -0.8868
  152MOL0     H20042  -1.320   4.407   1.565  2.5510  1.3257  2.6101
  152MOL0     H20043  -1.181   4.422   1.463 -0.2338  0.8801  1.4588
  152MOL0     H20044  -1.187   4.171   1.392 -0.6477 -1.8804 -1.2325
  152MOL0     H20045  -1.333   4.241   1.344  0.3457 -2.6618 -0.7076
  152MOL0     H20046  -0.435   4.350   1.609 -0.8820  2.4040 -1.3511
  152MOL0     H20047  -0.187   4.304   1.631  1.7585  1.4031 -1.6365
  152MOL0     H20048   0.229   4.574   1.432 -2.1330  2.0767  0.7893
  152MOL0     H20049   0.456   4.543   1.431 -1.4018 -0.5761  0.1571
  152MOL0     H20050   2.264   4.694   1.847  2.1547  1.3751  0.9931
  152MOL0     H20051   2.477   4.667   1.972 -0.6497  1.5691 -1.0445
  152MOL0     H20052   2.618   4.271   2.372  0.5375 -0.3308  1.4360
  152MOL0     H20053   2.824   4.220   2.460 -1.3812  0.4108  0.4673
  152MOL0     H20054   3.044   4.317   2.706  0.8483  1.1374  1.5096
  152MOL0     H20055   2.911   4.430   2.673  0.3922  2.1472 -0.4342
  152MOL0     H20056   3.070   4.590   2.614 -0.5557 -0.5913 -0.7479
  152MOL0     H20057   3.095   4.536   2.783  0.2429  2.5332 -0.3651
  152MOL0     H20058   3.266   4.413   2.569  2.0134 -1.3455  0.9310
  152MOL0     H20059   3.302   4.431   2.744 -1.4244 -0.1362  0.4970
  152MOL0     H20060   3.283   4.667   2.557  0.3211 -1.0530 -0.7709
  152MOL0     H20061   3.311   4.680   2.723  1.8846  0.5677 -1.2263
  152MOL0     H20062   3.688   4.564   2.547 -0.1492 -2.7135 -0.0237
  152MOL0     H20063   2.958   4.628   2.392  0.2485 -0.0835  3.8519
  152MOL0     H20064   2.765   4.673   2.281 -1.1528 -0.6024  0.0022
  153MOL0     O20065   7.886   9.339   9.616 -0.0016  0.9513  0.1838
  153MOL0     C20066   7.851   9.359   9.735  0.2349 -0.0065  0.2479
  153MOL0     O20067   7.937   9.407   9.833  0.1513  0.6735 -0.0001
  153MOL0     C20068   8.062   9.442   9.798  0.5427  0.5985 -0.7007
  153MOL0     C20069   8.094   9.532   9.699  0.0545 -0.3052  0.0672
  153MOL0     C20070   8.228   9.560   9.662  0.3431  0.2335  0.0152
  153MOL0     C20071   8.325   9.508   9.742 -1.1555 -0.8185  0.4846
  153MOL0     O20072   8.456   9.494   9.695  0.1160 -0.8543 -0.6707
  153MOL0     C20073   8.559   9.437   9.783  0.4633 -0.2667 -0.0110
  153MOL0     C20074   8.682   9.420   9.699 -0.1355 -0.1957  0.7381
  153MOL0     C20075   8.663   9.328   9.577  0.4085 -0.0925  1.3833
  153MOL0     C20076   8.790   9.317   9.495 -0.4491 -0.1810 -0.1368
  153MOL0     C20077   8.878   9.205   9.537  0.5129  1.1340 -0.2732
  153MOL0     C20078   9.025   9.212   9.498 -1.2053  0.2103  0.3302
  153MOL0     C20079   9.101   9.071   9.497  0.2390  1.4751 -0.3485
  153MOL0     C20080   9.233   9.067   9.413 -0.4274 -0.4467 -1.4171
  153MOL0     N20081   9.354   9.062   9.501 -1.1518 -0.0417  0.3944
  153MOL0     C20082   9.386   8.962   9.596 -0.2970 -0.1568  0.4335
  153MOL0     C20083   9.521   8.978   9.621  0.3683 -0.1749  0.2492
  153MOL0     C20084   9.603   8.918   9.725 -0.1383 -0.5552  0.6368
  153MOL0     C20085   9.593   8.764   9.695  0.0823 -0.1623 -0.8470
  153MOL0     C20086   9.698   8.697   9.793  0.3410 -0.7726  0.0559
  153MOL0     C20087   9.832   8.682   9.729 -0.0615  0.1632  0.9216
  153MOL0     O20088   9.924   8.627   9.821  0.2798 -0.4382  0.5642
  153MOL0     C20089  10.052   8.604   9.791 -0.0972  0.4363  0.0817
  153MOL0     C20090  10.110   8.628   9.662 -0.1541 -0.7816 -0.3473
  153MOL0     C20091  10.246   8.596   9.635 -0.0424 -0.5727 -0.6698
  153MOL0     C20092  10.322   8.542   9.739 -0.4930 -0.6494 -0.1738
  153MOL0     C20093  10.459   8.501   9.716 -0.2249  0.2593  0.2762
  153MOL0     O20094  10.541   8.576   9.625  0.3781  0.1832 -0.2126
  153MOL0     C20095  10.666   8.526   9.611 -0.0761  0.0384  0.2266
  153MOL0     C20096  10.705   8.465   9.485  0.4827  1.2213  0.6531
  153MOL0     C20097  10.832   8.421   9.465 -1.0278  0.4740 -0.3261
  153MOL0     C20098  10.928   8.450   9.558  0.2854  1.4617  0.5830
  153MOL0     O20099  11.048   8.390   9.524 -0.2385 -0.3426 -0.0603
  153MOL0     C20100  11.147   8.385   9.628 -0.1362 -0.2376  0.0823
  153MOL0     C20101  11.254   8.294   9.583  0.4615 -0.0536  0.0457
  153MOL0     C20102  11.365   8.284   9.681  0.6701 -0.4150 -0.5689
  153MOL0     C20103  11.492   8.290   9.595  0.8141  0.1182  0.6340
  153MOL0     C20104  11.591   8.212   9.665 -0.0540 -0.0964 -0.3173
  153MOL0     C20105  11.718   8.218   9.592 -1.2752 -0.1600  0.2386
  153MOL0     C20106  11.784   8.364   9.596 -0.0578  0.6046 -0.1649
  153MOL0     C20107  11.924   8.369   9.643  1.4051 -0.2456  0.4336
  153MOL0    Cl20108  12.032   8.257   9.553  0.0816 -0.0645 -0.1690
  153MOL0     C20109  10.895   8.503   9.680 -0.0023 -0.4931 -0.3739
  153MOL0     C20110  10.772   8.543   9.708 -0.4196 -0.7430  0.4731
  153MOL0     O20111  10.497   8.408   9.785  0.0035  0.9148  0.0413
  153MOL0     C20112  10.254   8.497   9.860 -0.9166  1.2073 -0.7597
  153MOL0     C20113  10.125   8.532   9.887  0.1417  0.3644 -0.3081
  153MOL0     N20114   9.566   9.084   9.536 -0.0650  0.1453  0.5441
  153MOL0     N20115   9.465   9.137   9.474 -0.1432 -0.0857 -0.9498
  153MOL0     C20116   8.292   9.439   9.854 -0.0063  0.0612 -1.0434
  153MOL0     C20117   8.165   9.402   9.882  0.2343  0.1831 -0.1214
  153MOL0     C20118   7.710   9.310   9.762  0.5043 -0.0663  0.2911
  153MOL0     C20119   7.634   9.225   9.686  0.3851 -0.8772  0.6143
  153MOL0     C20120   7.505   9.199   9.715 -0.0487 -0.2198 -0.8664
  153MOL0     C20121   7.440   9.252   9.827 -0.0405  0.8383  0.1543
  153MOL0     O20122   7.304   9.213   9.845 -0.7847 -0.4929 -0.7307
  153MOL0     C20123   7.274   9.194   9.981 -0.7788  0.3135  0.0058
  153MOL0     C20124   7.147   9.105   9.982  0.2658  0.6786  0.9639
  153MOL0     C20125   7.179   8.955   9.984 -0.2496  0.0894 -0.4174
  153MOL0     C20126   7.170   8.882   9.850  0.2214  0.0980  0.1411
  153MOL0     C20127   7.301   8.870   9.792 -0.4069 -0.4773 -0.5688
  153MOL0     C20128   7.408   8.860   9.743 -1.0337 -0.0763 -0.1291
  153MOL0     C20129   7.513   9.341   9.901 -0.1935 -0.8510  0.2355
  153MOL0     C20130   7.655   9.368   9.873 -0.2311  0.0615 -0.3608
  153MOL0     H20131   8.017   9.567   9.631 -0.2937 -0.3981  0.4158
  153MOL0     H20132   8.260   9.616   9.575  1.3320 -2.0992 -1.2397
  153MOL0     H20133   8.527   9.338   9.816  0.1062 -1.1660 -2.7850
  153MOL0     H20134   8.584   9.511   9.860  0.9013 -0.6028  0.1723
  153MOL0     H20135   8.767   9.396   9.763 -0.0927  0.1241  0.8051
  153MOL0     H20136   8.707   9.520   9.662 -1.7578  0.3406  1.0054
  153MOL0     H20137   8.580   9.377   9.524  1.4746 -1.1917 -1.5115
  153MOL0     H20138   8.618   9.232   9.603 -1.6580  0.2894 -0.4555
  153MOL0     H20139   8.783   9.305   9.387  0.2150 -0.2830 -0.1684
  153MOL0     H20140   8.851   9.406   9.513  1.2098 -1.6516  1.9846
  153MOL0     H20141   8.834   9.116   9.492  0.6694  0.5205  0.7529
  153MOL0     H20142   8.872   9.200   9.647 -2.1962  1.5219 -0.3373
  153MOL0     H20143   9.068   9.274   9.577 -1.9046 -4.2890  4.7663
  153MOL0     H20144   9.027   9.255   9.398  0.0632 -1.1212 -0.2595
  153MOL0     H20145   9.112   9.025   9.595 -0.9205 -2.9910 -2.0896
  153MOL0     H20146   9.030   9.004   9.448  0.9944 -0.8604  1.5637
  153MOL0     H20147   9.236   9.156   9.350 -0.9525  1.4425  1.0724
  153MOL0     H20148   9.243   8.985   9.341  0.9800  0.1282 -1.8996
  153MOL0     H20149   9.315   8.886   9.628 -0.0026 -0.5461  0.1724
  153MOL0     H20150   9.588   8.943   9.830  1.5373 -4.8558  2.0990
  153MOL0     H20151   9.706   8.942   9.698 -0.5773 -0.3564 -0.9972
  153MOL0     H20152   9.616   8.737   9.591 -2.7198 -2.1803 -1.0499
  153MOL0     H20153   9.491   8.733   9.720  1.5353 -4.2631  0.8770
  153MOL0     H20154   9.707   8.756   9.884  0.6597 -0.4164 -0.2057
  153MOL0     H20155   9.672   8.594   9.819  0.1999 -0.5468  0.8181
  153MOL0     H20156   9.866   8.778   9.688 -4.0593  2.1677  1.8010
  153MOL0     H20157   9.830   8.613   9.644 -1.0702 -0.3092  1.3045
  153MOL0     H20158  10.055   8.670   9.578  0.6953  0.8640 -0.1260
  153MOL0     H20159  10.279   8.609   9.533 -2.8746  2.9490 -1.3544
  153MOL0     H20160  10.635   8.445   9.405  0.3230 -1.1347  1.2940
  153MOL0     H20161  10.865   8.378   9.371  0.5877  0.7118  0.1022
  153MOL0     H20162  11.105   8.351   9.723  0.3800 -0.0083  0.3957
  153MOL0     H20163  11.175   8.487   9.657 -0.9200 -0.5063  1.9443
  153MOL0     H20164  11.289   8.336   9.489  3.9651  3.0058  2.4255
  153MOL0     H20165  11.217   8.194   9.556 -1.8741  0.8185 -0.2588
  153MOL0     H20166  11.367   8.188   9.732  2.5965  1.6423  3.7108
  153MOL0     H20167  11.351   8.357   9.761  0.8760  0.2626 -1.1341
  153MOL0     H20168  11.481   8.239   9.498  0.7146 -0.0997  0.7594
  153MOL0     H20169  11.512   8.397   9.590  0.9873  0.1898  2.3934
  153MOL0     H20170  11.558   8.108   9.665  0.7565 -0.3783  0.7516
  153MOL0     H20171  11.591   8.230   9.773 -1.8095 -0.2418 -0.2673
  153MOL0     H20172  11.705   8.188   9.488 -0.4934  1.4885 -0.3656
  153MOL0     H20173  11.775   8.137   9.639 -1.9031 -1.1484 -0.6546
  153MOL0     H20174  11.771   8.413   9.499  0.8902 -0.2868 -0.7522
  153MOL0     H20175  11.734   8.421   9.675 -2.2588 -1.3436 -0.0468
  153MOL0     H20176  11.937   8.345   9.749  0.8319 -2.0787  0.1139
  153MOL0     H20177  11.958   8.471   9.622 -0.5570  0.0764 -1.5555
  153MOL0     H20178  10.971   8.517   9.756 -1.5087  1.2017  0.9000
  153MOL0     H20179  10.751   8.595   9.801 -2.0794  1.5829 -1.0753
  153MOL0     H20180  10.320   8.450   9.932 -0.4869 -0.7143 -2.3446
  153MOL0     H20181  10.058   8.518   9.972  1.0787  2.2407  0.8265
  153MOL0     H20182   8.364   9.420   9.933 -0.7169  1.0234 -0.1391
  153MOL0     H20183   8.131   9.345   9.968  0.1614  0.5275  0.0807
  153MOL0     H20184   7.664   9.189   9.588 -0.5488 -1.9473  0.7118
  153MOL0     H20185   7.440   9.143   9.648  1.3864 -1.0927 -1.5650
  153MOL0     H20186   7.255   9.288  10.034 -3.8512  1.5269 -2.8688
  153MOL0     H20187   7.358   9.147  10.033 -0.6281  2.3589  1.7814
  153MOL0     H20188   7.090   9.139  10.069  1.6570  0.2996  2.0664
  153MOL0     H20189   7.091   9.128   9.891  0.6261  0.1016  0.5872
  153MOL0     H20190   7.094   8.917  10.041 -1.2147 -0.1336 -1.9723
  153MOL0     H20191   7.279   8.945  10.029 -0.5534 -3.0816 -0.2425
  153MOL0     H20192   7.135   8.780   9.867  1.7571 -0.3645  0.6921
  153MOL0     H20193   7.103   8.940   9.786  0.7220  2.0340  1.2651
  153MOL0     H20194   7.502   8.850   9.692 -1.5769 -4.3294 -0.6897
  153MOL0     H20195   7.465   9.383   9.989  2.4218  2.1331  0.3889
  153MOL0     H20196   7.719   9.431   9.933 -1.3359  3.2352 -2.2609
  154MOL0     O20197   1.312   3.777   6.397  0.5509 -0.1770 -0.6067
  154MOL0     C20198   1.342   3.679   6.324  0.6351 -0.1187  0.2857
  154MOL0     O20199   1.449   3.584   6.347  0.5095  0.2254 -0.3058
  154MOL0     C20200   1.551   3.606   6.437 -0.8027  0.5903 -0.6788
  154MOL0     C20201   1.641   3.497   6.461 -0.3182 -0.9250 -0.9396
  154MOL0     C20202   1.749   3.517   6.547 -0.1753  0.4643 -0.7660
  154MOL0     C20203   1.755   3.628   6.627  0.2217 -0.8817  0.3843
  154MOL0     O20204   1.861   3.625   6.712 -0.4724 -0.1849 -0.8022
  154MOL0     C20205   1.891   3.734   6.789 -0.0638  0.1069  0.4097
  154MOL0     C20206   2.028   3.716   6.843  0.3384  0.3148 -1.4065
  154MOL0     C20207   2.076   3.824   6.939 -0.3364  1.1008 -0.4890
  154MOL0     C20208   2.211   3.774   7.000  0.0555  0.5434  0.8904
  154MOL0     C20209   2.288   3.887   7.067 -0.4498  0.6064  0.0492
  154MOL0     C20210   2.404   3.830   7.141 -0.3449 -1.0889  0.4364
  154MOL0     C20211   2.474   3.930   7.230  0.6249 -0.1763 -0.3256
  154MOL0     C20212   2.388   3.979   7.356 -1.0102  0.2990 -0.5865
  154MOL0     N20213   2.327   3.859   7.425 -0.3706  0.7961  0.0235
  154MOL0     C20214   2.404   3.782   7.521 -0.1196 -0.4682  0.9055
  154MOL0     C20215   2.306   3.715   7.594  0.4497  0.6300  0.1345
  154MOL0     C20216   2.341   3.648   7.723 -0.4442  0.0333  0.6611
  154MOL0     C20217   2.339   3.500   7.708 -0.0268  0.7898  0.5410
  154MOL0     C20218   2.318   3.443   7.844 -0.6918 -0.9097 -0.2603
  154MOL0     C20219   2.334   3.294   7.834  0.4136  0.0043  0.1290
  154MOL0     O20220   2.331   3.225   7.965 -0.0929  0.8411  0.5465
  154MOL0     C20221   2.379   3.094   7.967  0.1621 -0.5881 -0.6818
  154MOL0     C20222   2.347   3.004   7.868  0.2044  0.3417  0.5076
  154MOL0     C20223   2.386   2.870   7.874 -0.0044 -0.3347  0.3718
  154MOL0     C20224   2.451   2.822   7.981 -0.3498  0.1593  0.4190
  154MOL0     C20225   2.495   2.687   7.977  0.5961  0.5490  0.5109
  154MOL0     O20226   2.556   2.642   8.088 -0.4382  0.3026 -0.1836
  154MOL0     C20227   2.611   2.523   8.095  0.4442  0.0614 -0.7022
  154MOL0     C20228   2.617   2.455   8.219 -0.4316 -0.0222  0.2288
  154MOL0     C20229   2.687   2.339   8.232 -0.8686  1.0889  1.6511
  154MOL0     C20230   2.754   2.278   8.121 -0.7066 -0.1878 -0.5869
  154MOL0     O20231   2.826   2.164   8.143 -0.2407 -0.2494 -0.5663
  154MOL0     C20232   2.952   2.143   8.082 -0.3302  0.3166 -0.6222
  154MOL0     C20233   3.074   2.192   8.157 -0.4862 -0.1487  0.4136
  154MOL0     C20234   3.089   2.147   8.306  0.2604  0.0933  0.7078
  154MOL0     C20235   3.218   2.201   8.365  0.1848 -0.1628  1.4606
  154MOL0     C20236   3.222   2.187   8.514  0.0510 -0.0156  0.1594
  154MOL0     C20237   3.340   2.266   8.579 -0.1994  0.3274 -0.0630
  154MOL0     C20238   3.351   2.252   8.737  0.6602 -0.4881 -0.5111
  154MOL0     C20239   3.222   2.306   8.814 -0.1340 -0.7233  0.3637
  154MOL0    Cl20240   3.276   2.367   8.976 -0.4091  0.1000  0.0596
  154MOL0     C20241   2.740   2.340   7.994  0.4365  0.5441 -0.3077
  154MOL0     C20242   2.670   2.465   7.986  0.1091 -0.0431  0.5943
  154MOL0     O20243   2.470   2.620   7.876  0.1684 -0.8747  0.2780
  154MOL0     C20244   2.489   2.911   8.088 -0.1223 -1.0925 -0.4278
  154MOL0     C20245   2.451   3.054   8.078 -0.1121 -0.0015  0.1070
  154MOL0     N20246   2.184   3.744   7.537  0.1750 -0.4063 -0.6778
  154MOL0     N20247   2.200   3.841   7.458  0.5587 -0.3406 -0.0852
  154MOL0     C20248   1.666   3.735   6.604 -0.4105 -0.0124 -0.9807
  154MOL0     C20249   1.564   3.725   6.510  0.2947 -0.2550  0.1256
  154MOL0     C20250   1.249   3.652   6.206 -0.7610  0.3258  0.6666
  154MOL0     C20251   1.147   3.731   6.166  0.5376 -0.3059  0.1993
  154MOL0     C20252   1.067   3.714   6.050 -0.3839 -0.7468 -0.6384
  154MOL0     C20253   1.095   3.606   5.967 -0.8212  0.2444  0.4824
  154MOL0     O20254   1.021   3.585   5.848 -0.3411 -0.0704 -0.3657
  154MOL0     C20255   0.882   3.631   5.849 -0.3717  0.1039  0.7708
  154MOL0     C20256   0.819   3.613   5.710  0.0026  0.7823 -0.3692
  154MOL0     C20257   0.698   3.698   5.699 -0.0498  0.0002  0.3848
  154MOL0     C20258   0.625   3.671   5.571  0.2261  0.4463  0.2336
  154MOL0     C20259   0.541   3.792   5.542  0.3264 -1.0257 -0.0738
  154MOL0     C20260   0.476   3.896   5.536 -0.3026  0.9389  0.0932
  154MOL0     C20261   1.202   3.516   6.001 -0.3741 -0.1390 -0.6530
  154MOL0     C20262   1.280   3.543   6.120  0.5411  0.5109 -0.0378
  154MOL0     H20263   1.613   3.403   6.414  1.3152 -1.8406 -0.1542
  154MOL0     H20264   1.797   3.427   6.585  0.2342  1.4147  1.0752
  154MOL0     H20265   1.822   3.743   6.873  1.0340  1.3146  1.2280
  154MOL0     H20266   1.870   3.831   6.743 -2.4618 -0.9750 -0.9573
  154MOL0     H20267   2.098   3.703   6.760 -2.3234 -0.5788 -3.7132
  154MOL0     H20268   2.030   3.620   6.896 -2.7333  0.6382 -0.5073
  154MOL0     H20269   2.003   3.841   7.019  0.2164  0.6728  0.1111
  154MOL0     H20270   2.077   3.915   6.878 -0.9629  1.8297  0.5339
  154MOL0     H20271   2.192   3.693   7.071 -1.6302  2.3748  2.6674
  154MOL0     H20272   2.269   3.736   6.915 -0.9026 -0.9194  0.8509
  154MOL0     H20273   2.215   3.927   7.138  0.6296  2.6772  0.0642
  154MOL0     H20274   2.330   3.951   6.989  0.0020 -2.0682 -2.0543
  154MOL0     H20275   2.477   3.778   7.078  1.3584 -0.9370  2.2099
  154MOL0     H20276   2.379   3.752   7.213  1.6687 -0.0521  2.4028
  154MOL0     H20277   2.568   3.891   7.271  1.1080  1.6823  0.4558
  154MOL0     H20278   2.482   4.012   7.158 -2.6767 -0.1113 -0.7863
  154MOL0     H20279   2.312   4.033   7.300 -2.3321 -0.4372  0.4309
  154MOL0     H20280   2.452   4.041   7.419 -3.1404  1.7266  0.2632
  154MOL0     H20281   2.512   3.784   7.530  0.2621 -0.5967 -2.3187
  154MOL0     H20282   2.262   3.690   7.786  0.6407  1.3215  1.2094
  154MOL0     H20283   2.437   3.675   7.768 -0.6054 -0.2406  1.1839
  154MOL0     H20284   2.433   3.462   7.667  0.2021  1.7969  0.1035
  154MOL0     H20285   2.255   3.475   7.642 -0.8539  1.6746  1.2397
  154MOL0     H20286   2.387   3.473   7.924 -1.0273 -0.8843  0.0226
  154MOL0     H20287   2.220   3.463   7.889 -0.9266  0.6250 -1.3532
  154MOL0     H20288   2.431   3.264   7.795  0.0109 -0.2685 -0.6747
  154MOL0     H20289   2.259   3.244   7.771 -0.2818 -1.1315  1.7686
  154MOL0     H20290   2.288   3.033   7.782  0.3917  1.9218  0.8882
  154MOL0     H20291   2.343   2.807   7.797 -1.5000 -0.1888  1.0423
  154MOL0     H20292   2.583   2.518   8.300  0.2109 -2.3398  2.4026
  154MOL0     H20293   2.695   2.299   8.333  1.0152 -2.8643  0.1097
  154MOL0     H20294   2.960   2.174   7.978  2.8189 -4.1254 -1.9912
  154MOL0     H20295   2.950   2.034   8.093 -1.9167  0.4119  0.4932
  154MOL0     H20296   3.081   2.300   8.169  1.7681  0.0225 -1.6950
  154MOL0     H20297   3.162   2.174   8.095 -0.5930 -1.2049  0.5528
  154MOL0     H20298   3.088   2.037   8.311 -0.1172  0.0306 -0.3909
  154MOL0     H20299   3.003   2.192   8.355 -1.2257 -1.9359  0.1247
  154MOL0     H20300   3.295   2.142   8.314 -0.6075  0.2573 -0.2914
  154MOL0     H20301   3.240   2.301   8.328  1.1496 -1.2610 -1.1568
  154MOL0     H20302   3.214   2.084   8.548 -1.9640 -0.5280 -1.6749
  154MOL0     H20303   3.133   2.231   8.560  0.3858  0.2673  0.5434
  154MOL0     H20304   3.324   2.374   8.568 -0.3423  0.2995 -0.1255
  154MOL0     H20305   3.431   2.230   8.530  0.6152  1.0528  0.8701
  154MOL0     H20306   3.358   2.147   8.768 -0.5713 -0.4698 -0.1318
  154MOL0     H20307   3.441   2.304   8.772 -0.8220  1.3747  0.6969
  154MOL0     H20308   3.146   2.229   8.827  1.5555 -2.1951  2.0989
  154MOL0     H20309   3.178   2.391   8.761  2.2877 -0.5084 -1.4495
  154MOL0     H20310   2.798   2.298   7.912  1.7569  2.1030 -0.2179
  154MOL0     H20311   2.668   2.500   7.883 -4.1545 -3.0286 -0.6163
  154MOL0     H20312   2.557   2.897   8.171 -2.2093  1.1043  1.8394
  154MOL0     H20313   2.486   3.128   8.150  0.1697 -1.8611  1.9753
  154MOL0     H20314   1.668   3.825   6.665 -0.9398 -0.7634  0.1756
  154MOL0     H20315   1.511   3.820   6.498  0.1150 -0.4848 -1.0453
  154MOL0     H20316   1.118   3.810   6.235  1.7493 -0.9485  1.4881
  154MOL0     H20317   0.989   3.789   6.041 -0.0290 -0.1630  0.8722
  154MOL0     H20318   0.881   3.738   5.872 -0.3293  0.2714  0.0082
  154MOL0     H20319   0.817   3.596   5.930 -0.5963  2.8794  1.9149
  154MOL0     H20320   0.892   3.632   5.631  1.9288 -0.8030  0.9304
  154MOL0     H20321   0.773   3.513   5.704 -2.1763  1.8012 -3.0688
  154MOL0     H20322   0.735   3.800   5.715 -0.5511 -0.1002  2.5249
  154MOL0     H20323   0.638   3.678   5.789 -0.2126  1.0721  0.5267
  154MOL0     H20324   0.695   3.658   5.488 -2.1146 -1.7727 -1.5623
  154MOL0     H20325   0.571   3.576   5.586  2.0938 -0.3498  2.4557
  154MOL0     H20326   0.425   3.989   5.528 -2.2146 -0.1935 -2.4352
  154MOL0     H20327   1.219   3.430   5.937  3.8289 -1.2457  1.6124
  154MOL0     H20328   1.351   3.466   6.152 -0.1182 -0.4589 -0.8568
  155MOL0     O20329  11.240   1.442   0.102  0.0115  0.3318 -0.2549
  155MOL0     C20330  11.324   1.507   0.163  0.5262 -0.7237  0.0495
  155MOL0     O20331  11.300   1.638   0.209 -0.5480  0.6019  0.9624
  155MOL0     C20332  11.180   1.702   0.190 -0.4501  0.3539  1.0622
  155MOL0     C20333  11.118   1.772   0.295 -0.7784 -0.3423  0.1603
  155MOL0     C20334  11.001   1.846   0.267 -0.2643 -0.4874  0.6275
  155MOL0     C20335  10.941   1.857   0.145 -0.8690  0.0092 -1.1441
  155MOL0     O20336  10.814   1.913   0.123  0.1710  0.5781 -0.3833
  155MOL0     C20337  10.758   1.985   0.232  0.8543 -0.7782 -0.0693
  155MOL0     C20338  10.617   2.015   0.189  0.0310  0.8239  0.2626
  155MOL0     C20339  10.542   2.090   0.301 -0.0180 -0.2561  0.3793
  155MOL0     C20340  10.388   2.106   0.272 -1.3243 -0.4491  0.5948
  155MOL0     C20341  10.331   2.190   0.388 -0.7237 -0.2237 -0.3307
  155MOL0     C20342  10.185   2.218   0.383  0.5360  0.8116 -0.2647
  155MOL0     C20343  10.145   2.315   0.487  0.2781 -0.1468 -0.0802
  155MOL0     C20344   9.989   2.324   0.487 -0.1662  0.9285 -0.1767
  155MOL0     N20345   9.936   2.421   0.586 -0.3325  0.3578  0.3289
  155MOL0     C20346   9.867   2.536   0.544 -0.4967  1.0017 -0.4964
  155MOL0     C20347   9.805   2.594   0.647 -0.5757  0.1364 -0.1514
  155MOL0     C20348   9.736   2.730   0.616  0.0318  1.4709 -0.0537
  155MOL0     C20349   9.594   2.681   0.569  0.7789 -1.6837 -0.2767
  155MOL0     C20350   9.504   2.636   0.689 -0.0241 -0.5605  0.1276
  155MOL0     C20351   9.361   2.591   0.654  0.2766  0.6006  0.1538
  155MOL0     O20352   9.350   2.501   0.539 -0.8264  0.7288  0.5596
  155MOL0     C20353   9.230   2.477   0.481  0.6913 -0.7687  0.4453
  155MOL0     C20354   9.109   2.537   0.523  1.5877  0.0755  0.2965
  155MOL0     C20355   8.987   2.494   0.468  0.1778 -0.5518  1.1594
  155MOL0     C20356   8.981   2.400   0.364  0.9006  0.3221  0.4706
  155MOL0     C20357   8.843   2.361   0.321  0.0391 -0.0873  0.6379
  155MOL0     O20358   8.827   2.262   0.227 -1.0782 -0.0713 -0.1048
  155MOL0     C20359   8.709   2.196   0.192  0.1506 -0.2732  0.4562
  155MOL0     C20360   8.685   2.154   0.062 -0.1841 -0.8495  0.2872
  155MOL0     C20361   8.564   2.091   0.030  0.1403 -0.0867 -0.3017
  155MOL0     C20362   8.465   2.070   0.124  0.1703  1.5015 -0.5087
  155MOL0     O20363   8.342   2.004   0.103 -0.2609 -0.2605  0.5088
  155MOL0     C20364   8.341   1.921  -0.012 -0.7944 -0.3143 -0.5421
  155MOL0     C20365   8.213   1.840  -0.009 -0.4429 -0.3584 -0.2105
  155MOL0     C20366   8.199   1.758  -0.135  0.3052  0.1415 -0.3037
  155MOL0     C20367   8.081   1.664  -0.130 -0.2824 -0.6515  0.1647
  155MOL0     C20368   8.064   1.577  -0.256  0.5434 -0.2107 -0.3721
  155MOL0     C20369   7.950   1.476  -0.248 -0.2611  0.0192  1.1369
  155MOL0     C20370   7.976   1.349  -0.337 -0.2391  0.2746  0.1623
  155MOL0     C20371   7.861   1.247  -0.344 -0.3414  0.4033  0.4732
  155MOL0    Cl20372   7.832   1.157  -0.190  0.5776  0.5820  0.6427
  155MOL0     C20373   8.499   2.106   0.257  1.1652  0.5918  0.5570
  155MOL0     C20374   8.616   2.165   0.284  0.4349  0.3876  0.0700
  155MOL0     O20375   8.750   2.429   0.362  0.2518 -0.0450 -0.0387
  155MOL0     C20376   9.101   2.341   0.326 -0.3920  0.1919 -0.6116
  155MOL0     C20377   9.218   2.378   0.389  0.1976  0.4327  0.4411
  155MOL0     N20378   9.842   2.526   0.753 -0.4699  0.0925 -0.2373
  155MOL0     N20379   9.910   2.417   0.719  0.6022 -0.7518 -0.3432
  155MOL0     C20380  11.002   1.799   0.042 -0.0556 -0.6211 -0.4379
  155MOL0     C20381  11.119   1.720   0.063 -0.5432  0.5544  0.6054
  155MOL0     C20382  11.462   1.464   0.195 -0.6875 -0.4552 -0.6389
  155MOL0     C20383  11.565   1.557   0.255  0.4593 -0.2202  0.2491
  155MOL0     C20384  11.692   1.502   0.281  0.0042  0.0119  0.1541
  155MOL0     C20385  11.712   1.362   0.269 -1.0853 -0.1054 -0.1747
  155MOL0     O20386  11.832   1.294   0.296 -0.5151 -0.6006 -0.1056
  155MOL0     C20387  11.970   1.348   0.299  0.7041  0.0570  0.3694
  155MOL0     C20388  12.072   1.246   0.257 -0.0765  0.1907 -0.1607
  155MOL0     C20389  12.089   1.158   0.386  0.6854 -0.3486  0.1499
  155MOL0     C20390  12.055   1.012   0.334  0.0519  0.5988 -1.2176
  155MOL0     C20391  12.166   0.955   0.262  0.0740 -0.1818 -0.2465
  155MOL0     C20392  12.256   0.914   0.195 -0.2741  1.3685  0.4872
  155MOL0     C20393  11.622   1.288   0.201  1.8821 -0.4409 -1.2837
  155MOL0     C20394  11.489   1.337   0.173  0.6303 -0.8719  0.2018
  155MOL0     H20395  11.171   1.768   0.390  2.7496  3.5466 -1.3189
  155MOL0     H20396  10.976   1.895   0.361  4.4525 -0.5821  2.2090
  155MOL0     H20397  10.814   2.076   0.256  0.3644  0.2715 -2.6511
  155MOL0     H20398  10.746   1.929   0.325 -0.6433 -1.0705 -0.4071
  155MOL0     H20399  10.562   1.925   0.162  0.2351  1.0335 -0.8833
  155MOL0     H20400  10.629   2.088   0.108 -2.4650  0.0628 -0.8996
  155MOL0     H20401  10.601   2.179   0.325  2.8293 -2.1713  1.0155
  155MOL0     H20402  10.544   2.031   0.394 -0.9197 -0.6562  0.1536
  155MOL0     H20403  10.376   2.162   0.178  0.5258 -1.0379 -0.0440
  155MOL0     H20404  10.340   2.009   0.278 -1.6778 -0.2813  0.4940
  155MOL0     H20405  10.386   2.285   0.386 -1.0228  0.0235 -4.0331
  155MOL0     H20406  10.356   2.136   0.479 -1.0634 -0.5178 -0.4093
  155MOL0     H20407  10.133   2.123   0.402  1.2234  0.3298 -0.7217
  155MOL0     H20408  10.161   2.264   0.287 -0.2704  2.0363  0.4934
  155MOL0     H20409  10.185   2.290   0.586  1.2228  0.7515 -0.2168
  155MOL0     H20410  10.195   2.409   0.461 -0.4833  1.1758  2.8381
  155MOL0     H20411   9.945   2.225   0.503  0.2944  0.3513 -2.2013
  155MOL0     H20412   9.950   2.358   0.390 -1.8446 -0.0047  0.1332
  155MOL0     H20413   9.869   2.566   0.440  0.5964 -1.1150 -1.1375
  155MOL0     H20414   9.791   2.772   0.531 -3.0139  0.4332 -2.7549
  155MOL0     H20415   9.734   2.793   0.705 -0.3364 -0.2482  1.2150
  155MOL0     H20416   9.587   2.608   0.488 -1.5048  0.2509 -1.9497
  155MOL0     H20417   9.541   2.762   0.520 -3.9711 -4.7659 -0.8874
  155MOL0     H20418   9.548   2.552   0.744  1.7487 -0.5566 -1.1809
  155MOL0     H20419   9.496   2.722   0.757  0.0226 -0.5080  0.0670
  155MOL0     H20420   9.305   2.683   0.634  1.2133  0.7794 -1.9124
  155MOL0     H20421   9.316   2.547   0.743 -3.3399  2.8684 -0.3750
  155MOL0     H20422   9.120   2.613   0.600 -0.9350 -2.4120  3.4052
  155MOL0     H20423   8.892   2.536   0.500  0.5399  0.8983  0.4254
  155MOL0     H20424   8.761   2.174  -0.013 -0.1076  0.2616  0.6444
  155MOL0     H20425   8.549   2.055  -0.071 -3.0516  0.2176 -0.0512
  155MOL0     H20426   8.427   1.854  -0.016  0.4497  1.2002 -0.1402
  155MOL0     H20427   8.345   1.983  -0.103  1.7756  1.8294  0.9151
  155MOL0     H20428   8.131   1.913  -0.005 -0.4679 -0.4188  0.3638
  155MOL0     H20429   8.205   1.768   0.073  1.9478  0.6744  1.0381
  155MOL0     H20430   8.290   1.702  -0.157  0.1903  0.3263 -1.2999
  155MOL0     H20431   8.173   1.829  -0.214 -0.2501  1.6604  1.1644
  155MOL0     H20432   8.093   1.599  -0.043  4.6134  1.5355  1.4403
  155MOL0     H20433   7.991   1.722  -0.111 -0.9319 -0.6582 -2.4626
  155MOL0     H20434   8.160   1.525  -0.253 -0.0794 -1.3807  1.8394
  155MOL0     H20435   8.043   1.642  -0.341 -2.9571  0.2483  0.6758
  155MOL0     H20436   7.852   1.511  -0.281  1.1690  2.8060 -0.5538
  155MOL0     H20437   7.940   1.457  -0.141 -1.1422  1.5752  1.3605
  155MOL0     H20438   8.002   1.376  -0.440  2.3182 -0.6047  0.5262
  155MOL0     H20439   8.067   1.302  -0.300  1.2522  2.4500 -0.5043
  155MOL0     H20440   7.889   1.186  -0.430  0.0959  3.8720 -2.0899
  155MOL0     H20441   7.777   1.306  -0.383  0.7554  0.9325 -1.2432
  155MOL0     H20442   8.428   2.083   0.336  2.9784  0.8078  2.3381
  155MOL0     H20443   8.642   2.188   0.387 -0.5929 -1.4130  0.7797
  155MOL0     H20444   9.113   2.245   0.277  2.1118  0.4497 -0.6087
  155MOL0     H20445   9.299   2.306   0.379  0.2951  0.4125  1.2971
  155MOL0     H20446  10.955   1.796  -0.056 -3.8746 -0.3845  1.1937
  155MOL0     H20447  11.173   1.671  -0.017 -0.3728 -1.1999  1.7330
  155MOL0     H20448  11.555   1.664   0.261  1.3585  0.1296 -2.6154
  155MOL0     H20449  11.773   1.568   0.312 -1.1064  1.4612  0.0278
  155MOL0     H20450  11.988   1.393   0.396 -4.5214 -1.5547  2.4357
  155MOL0     H20451  11.973   1.427   0.224 -1.8215  0.3694  0.5186
  155MOL0     H20452  12.036   1.187   0.172 -3.5820  2.3337 -0.3464
  155MOL0     H20453  12.170   1.291   0.238  0.0193  0.1830  0.3030
  155MOL0     H20454  12.027   1.184   0.472 -0.4976 -0.0490 -0.7782
  155MOL0     H20455  12.195   1.163   0.414  0.8733 -1.8832 -0.2033
  155MOL0     H20456  12.034   0.959   0.427  0.9873  0.1600 -1.2387
  155MOL0     H20457  11.959   1.003   0.283 -1.0850  1.8394  0.5946
  155MOL0     H20458  12.333   0.892   0.124 -0.5418  0.0386  0.5892
  155MOL0     H20459  11.652   1.187   0.176 -2.7349 -2.6809  0.8714
  155MOL0     H20460  11.411   1.277   0.128 -0.2276  0.9688 -0.8965
  156MOL0     O20461   3.712   5.457   8.657  0.2762  0.1353  0.1197
  156MOL0     C20462   3.662   5.442   8.765 -0.1957  0.1339  0.3117
  156MOL0     O20463   3.729   5.434   8.882  0.0286 -0.3600 -0.3696
  156MOL0     C20464   3.862   5.414   8.878 -0.3208 -0.3881  0.0803
  156MOL0     C20465   3.926   5.289   8.843  0.9999  0.0901 -0.1312
  156MOL0     C20466   4.062   5.287   8.816 -0.7839 -0.5493  0.4270
  156MOL0     C20467   4.143   5.399   8.851  0.6564  0.7384 -0.4300
  156MOL0     O20468   4.281   5.372   8.859  0.3589  0.3306 -0.2319
  156MOL0     C20469   4.362   5.456   8.929 -0.2721 -0.7701  0.0091
  156MOL0     C20470   4.517   5.438   8.916  0.3563  0.4586 -0.8894
  156MOL0     C20471   4.603   5.547   8.977  1.0464  0.1077  0.1387
  156MOL0     C20472   4.752   5.520   8.977 -1.2578  0.4779  0.3078
  156MOL0     C20473   4.842   5.647   8.982  0.2270 -0.2531  0.1005
  156MOL0     C20474   4.816   5.738   9.108  0.0551  0.3631 -0.3722
  156MOL0     C20475   4.855   5.673   9.241  1.0360 -0.1803 -0.0836
  156MOL0     C20476   4.733   5.594   9.312 -0.2747 -0.8372 -0.1513
  156MOL0     N20477   4.634   5.688   9.361  0.6571 -0.1074  0.6950
  156MOL0     C20478   4.500   5.697   9.325 -0.2764  0.0834  0.0611
  156MOL0     C20479   4.443   5.782   9.416 -0.5402 -0.8030 -0.5851
  156MOL0     C20480   4.305   5.840   9.400 -0.2939  0.5313  0.6235
  156MOL0     C20481   4.186   5.749   9.446 -0.1707 -0.6693  1.1743
  156MOL0     C20482   4.052   5.826   9.415  0.0024  0.1005  0.1453
  156MOL0     C20483   3.925   5.748   9.466  0.5357 -0.3333 -0.2586
  156MOL0     O20484   3.935   5.619   9.403 -0.5228  0.2381  0.4917
  156MOL0     C20485   3.811   5.554   9.400  0.0413  0.2760 -0.5994
  156MOL0     C20486   3.715   5.569   9.499  0.2662  0.5832  0.1644
  156MOL0     C20487   3.597   5.494   9.492 -0.5766  0.5999 -0.5226
  156MOL0     C20488   3.580   5.403   9.389 -0.8828  0.2793  1.1997
  156MOL0     C20489   3.444   5.333   9.381 -0.2916  0.3078 -0.6966
  156MOL0     O20490   3.360   5.335   9.488  0.2564 -0.5127 -0.1319
  156MOL0     C20491   3.225   5.297   9.487 -0.7945  0.0768  0.3502
  156MOL0     C20492   3.175   5.235   9.606 -0.3256  0.7242  0.3821
  156MOL0     C20493   3.038   5.187   9.612  0.3418  0.3951  0.1298
  156MOL0     C20494   2.948   5.187   9.506 -0.1934  0.2111  0.6651
  156MOL0     O20495   2.821   5.161   9.523  0.9594  0.1507  0.3575
  156MOL0     C20496   2.721   5.192   9.426  0.4514  0.1547 -0.2367
  156MOL0     C20497   2.684   5.072   9.344 -0.7141  0.6370 -0.3224
  156MOL0     C20498   2.630   4.945   9.409  0.8795  0.2720  1.7107
  156MOL0     C20499   2.613   4.834   9.303  0.2988 -0.4918  0.3854
  156MOL0     C20500   2.547   4.702   9.358  0.1943 -0.1521  0.5009
  156MOL0     C20501   2.482   4.611   9.249  0.4192 -0.8148 -0.1802
  156MOL0     C20502   2.578   4.598   9.138 -0.2791 -0.2648 -0.3391
  156MOL0     C20503   2.708   4.518   9.152  0.1163 -0.5476  0.0998
  156MOL0    Cl20504   2.799   4.552   9.000 -0.3776 -0.1967  0.1018
  156MOL0     C20505   3.003   5.231   9.385 -0.2586  0.8022  0.0349
  156MOL0     C20506   3.135   5.289   9.377  0.3454 -0.4537 -0.8799
  156MOL0     O20507   3.415   5.282   9.272 -0.3843 -0.3340  0.9793
  156MOL0     C20508   3.675   5.401   9.280  0.4951 -0.3378  0.5303
  156MOL0     C20509   3.793   5.473   9.289 -0.2123  0.1905 -0.4748
  156MOL0     N20510   4.540   5.807   9.517  0.1028  0.9010  0.3282
  156MOL0     N20511   4.645   5.750   9.483 -0.2719  0.3316  0.3270
  156MOL0     C20512   4.077   5.520   8.893 -0.1402 -0.3460  0.5164
  156MOL0     C20513   3.940   5.523   8.901 -0.2605 -1.5925  0.7077
  156MOL0     C20514   3.517   5.437   8.768  0.0722 -0.9995  0.0423
  156MOL0     C20515   3.444   5.512   8.674 -0.1802 -0.6064 -0.4875
  156MOL0     C20516   3.306   5.499   8.678  0.6130  0.3736 -0.0478
  156MOL0     C20517   3.240   5.426   8.774 -0.3797 -0.3114  0.2493
  156MOL0     O20518   3.109   5.400   8.775  0.3658  0.5211 -0.1669
  156MOL0     C20519   3.037   5.414   8.653 -0.6579 -1.4179 -0.7590
  156MOL0     C20520   2.886   5.387   8.678 -0.2014 -0.2236  0.1852
  156MOL0     C20521   2.808   5.372   8.560 -0.5743  0.3172  0.4551
  156MOL0     C20522   2.669   5.305   8.608  0.5327 -0.2385 -0.1721
  156MOL0     C20523   2.586   5.383   8.707 -0.8569  0.2476 -0.3241
  156MOL0     C20524   2.524   5.450   8.789  0.2544 -0.4613  0.3733
  156MOL0     C20525   3.313   5.367   8.878 -0.0715 -0.2819 -0.5118
  156MOL0     C20526   3.447   5.371   8.873 -0.5190 -0.0676  0.6886
  156MOL0     H20527   3.857   5.206   8.849  2.0634 -0.7124  3.4760
  156MOL0     H20528   4.107   5.190   8.797 -0.1408 -0.3273  0.8057
  156MOL0     H20529   4.340   5.442   9.035  1.8108  1.3953  0.8128
  156MOL0     H20530   4.356   5.558   8.888  0.5871  0.9245  3.6899
  156MOL0     H20531   4.540   5.433   8.809  0.4869  2.4486 -0.9899
  156MOL0     H20532   4.544   5.343   8.964  0.4683  0.4633 -0.9432
  156MOL0     H20533   4.571   5.576   9.078  0.8520  1.2310 -0.2273
  156MOL0     H20534   4.588   5.639   8.920  1.2348  1.2909  1.9315
  156MOL0     H20535   4.775   5.459   9.065 -0.8690  0.0776 -0.0666
  156MOL0     H20536   4.774   5.450   8.895 -1.8871 -0.1955  0.7003
  156MOL0     H20537   4.844   5.708   8.892  0.1558  1.1251  1.0126
  156MOL0     H20538   4.946   5.614   8.987 -0.3237 -2.0721  0.5816
  156MOL0     H20539   4.715   5.778   9.119  0.8794  1.8778  2.5287
  156MOL0     H20540   4.875   5.830   9.099 -2.3940  2.3911  2.4234
  156MOL0     H20541   4.935   5.604   9.211 -0.2012 -1.1932 -1.1891
  156MOL0     H20542   4.898   5.741   9.315 -1.8009  1.6750 -0.0263
  156MOL0     H20543   4.765   5.541   9.403 -2.3967  1.7130  2.2566
  156MOL0     H20544   4.695   5.519   9.242 -3.5339  1.3640 -0.9073
  156MOL0     H20545   4.430   5.656   9.253 -1.0224 -2.1687  1.9242
  156MOL0     H20546   4.295   5.861   9.294  1.6441  1.5131  0.6056
  156MOL0     H20547   4.302   5.937   9.451  0.1900  1.3332 -0.8202
  156MOL0     H20548   4.189   5.723   9.552  1.4230  0.6095  1.4961
  156MOL0     H20549   4.174   5.656   9.390 -3.2396  0.6406 -0.6360
  156MOL0     H20550   4.059   5.918   9.473 -1.8538 -0.5038  1.4216
  156MOL0     H20551   4.043   5.854   9.309  3.6173  0.2300 -0.2323
  156MOL0     H20552   3.836   5.802   9.432  0.6775 -1.0077 -1.7719
  156MOL0     H20553   3.920   5.742   9.575 -0.3847 -2.8335 -0.3780
  156MOL0     H20554   3.738   5.630   9.586  4.2995 -2.3209  1.4407
  156MOL0     H20555   3.527   5.496   9.574  0.4967 -1.4414  0.5138
  156MOL0     H20556   3.239   5.238   9.693 -2.5630 -2.6048  2.3948
  156MOL0     H20557   3.006   5.179   9.715  0.6913  0.4583  0.2443
  156MOL0     H20558   2.747   5.278   9.363 -1.0695 -0.0586 -1.2062
  156MOL0     H20559   2.633   5.221   9.484  1.6967 -0.0591  1.8592
  156MOL0     H20560   2.771   5.035   9.290 -0.2333  0.4930  0.5431
  156MOL0     H20561   2.611   5.105   9.269 -1.8467 -0.5624  0.2179
  156MOL0     H20562   2.540   4.976   9.464  1.0856  1.0017  1.6528
  156MOL0     H20563   2.711   4.916   9.476  1.1005 -0.7610  1.0131
  156MOL0     H20564   2.538   4.860   9.228 -0.1039 -2.5712  0.0120
  156MOL0     H20565   2.705   4.806   9.251 -0.1951  1.6131 -1.7746
  156MOL0     H20566   2.470   4.725   9.432  2.0440  2.4651  1.7758
  156MOL0     H20567   2.624   4.647   9.413  1.0901  0.4797 -0.0827
  156MOL0     H20568   2.389   4.662   9.219 -0.2790 -0.4982  2.2859
  156MOL0     H20569   2.458   4.512   9.289 -0.6046 -0.9195 -1.0073
  156MOL0     H20570   2.524   4.542   9.061  2.8521 -2.3855 -1.1531
  156MOL0     H20571   2.592   4.696   9.092 -1.1443 -0.4431 -1.0068
  156MOL0     H20572   2.677   4.414   9.148 -1.3094 -0.1195 -0.3596
  156MOL0     H20573   2.763   4.540   9.245 -0.9145 -0.4898  0.7124
  156MOL0     H20574   2.948   5.229   9.292  3.4712 -2.3357 -2.4553
  156MOL0     H20575   3.164   5.332   9.282 -0.1011  3.0093  0.4170
  156MOL0     H20576   3.656   5.341   9.191  2.5005 -1.1755  0.6121
  156MOL0     H20577   3.858   5.471   9.202 -1.5194 -0.8081 -1.4567
  156MOL0     H20578   4.133   5.612   8.903 -0.5924  0.0795 -0.6742
  156MOL0     H20579   3.879   5.612   8.918 -0.4260 -0.5760 -3.9502
  156MOL0     H20580   3.496   5.578   8.605 -1.6767  2.0052  0.6975
  156MOL0     H20581   3.259   5.569   8.609  2.5557  0.3613 -1.4701
  156MOL0     H20582   3.074   5.338   8.583 -0.4445  0.3499 -2.6408
  156MOL0     H20583   3.043   5.511   8.603 -1.8278 -0.0536  1.6114
  156MOL0     H20584   2.878   5.292   8.732 -1.4106 -0.1692  0.1441
  156MOL0     H20585   2.840   5.466   8.739  1.0557  0.0039  0.8688
  156MOL0     H20586   2.865   5.303   8.497 -3.7466 -4.0904  1.9499
  156MOL0     H20587   2.803   5.465   8.503  2.6214  2.0009  2.5873
  156MOL0     H20588   2.613   5.291   8.515  1.6659 -0.5956 -0.8128
  156MOL0     H20589   2.680   5.206   8.651 -0.1375  1.2496  3.8886
  156MOL0     H20590   2.481   5.524   8.854 -0.2109 -2.7215  2.7983
  156MOL0     H20591   3.249   5.316   8.950 -2.6076  3.4145  0.1272
  156MOL0     H20592   3.498   5.322   8.956  0.9091  0.7348  0.3171
  157MOL0     O20593   6.038   3.859   4.673  0.0943 -0.0907  0.6900
  157MOL0     C20594   6.001   3.981   4.681 -0.5822 -0.0671 -0.7015
  157MOL0     O20595   6.046   4.067   4.781  0.1395 -0.0914  1.1021
  157MOL0     C20596   6.130   4.015   4.873  0.0205  0.5407  0.3344
  157MOL0     C20597   6.265   4.030   4.858  0.0107 -1.2311  0.3003
  157MOL0     C20598   6.361   3.989   4.948  0.2955 -0.5489 -0.3567
  157MOL0     C20599   6.318   3.937   5.066 -0.1572  0.1282 -0.6609
  157MOL0     O20600   6.399   3.892   5.176 -0.6398 -0.1160  1.4179
  157MOL0     C20601   6.501   3.982   5.204 -0.7073  0.6462 -0.2513
  157MOL0     C20602   6.553   3.971   5.345  0.3881  0.9493 -0.7473
  157MOL0     C20603   6.686   4.045   5.362  0.4245  0.5708  0.3506
  157MOL0     C20604   6.727   4.030   5.510  0.4999  0.2938  1.0405
  157MOL0     C20605   6.863   4.102   5.522 -0.6437  0.2708  1.2923
  157MOL0     C20606   6.848   4.256   5.548 -0.1729  0.6775  0.5358
  157MOL0     C20607   6.981   4.323   5.596 -0.2612  0.4932 -0.7560
  157MOL0     C20608   7.065   4.379   5.479  0.6544 -0.2812 -0.1899
  157MOL0     N20609   7.070   4.293   5.358  0.3901 -1.3129  0.6343
  157MOL0     C20610   6.992   4.317   5.248  0.5346  0.3299  0.1081
  157MOL0     C20611   7.051   4.256   5.146  1.5612  0.6008  0.2293
  157MOL0     C20612   7.014   4.242   4.998  1.1663  0.8394 -0.2306
  157MOL0     C20613   6.875   4.297   4.942  0.0392  0.1759 -0.7534
  157MOL0     C20614   6.873   4.300   4.789 -0.3935 -1.0835 -0.4429
  157MOL0     C20615   6.753   4.380   4.741  0.5686 -0.0890 -0.5620
  157MOL0     O20616   6.628   4.339   4.803 -0.1076 -0.4354 -0.3045
  157MOL0     C20617   6.516   4.379   4.740 -0.0535  0.5255 -0.8039
  157MOL0     C20618   6.396   4.333   4.795 -0.0448  0.5517  1.2006
  157MOL0     C20619   6.279   4.350   4.726  0.5261  0.3573  0.0005
  157MOL0     C20620   6.271   4.428   4.607  0.8241  0.0054  0.4235
  157MOL0     C20621   6.142   4.456   4.538  0.2054 -1.0757  0.2509
  157MOL0     O20622   6.163   4.528   4.421  0.3349  0.5342 -0.1023
  157MOL0     C20623   6.062   4.544   4.333  0.4892  0.0325 -0.8965
  157MOL0     C20624   6.044   4.663   4.262  0.0277  0.2764 -0.1741
  157MOL0     C20625   5.934   4.681   4.170  0.2737  0.7777  0.2383
  157MOL0     C20626   5.843   4.581   4.141  0.1646 -0.2301  0.0003
  157MOL0     O20627   5.741   4.575   4.046  0.1359 -0.2524 -0.6283
  157MOL0     C20628   5.695   4.698   3.985 -0.4638  0.9680  0.8579
  157MOL0     C20629   5.555   4.682   3.929 -1.1308 -0.7889 -0.7320
  157MOL0     C20630   5.554   4.581   3.821 -0.3696 -0.6680  0.1181
  157MOL0     C20631   5.424   4.597   3.733 -0.4866  0.3254 -0.8728
  157MOL0     C20632   5.431   4.704   3.633 -0.8713  0.2827 -0.6687
  157MOL0     C20633   5.331   4.692   3.510 -0.0324  0.2053 -0.2460
  157MOL0     C20634   5.357   4.811   3.411  0.1742 -0.2727  0.6697
  157MOL0     C20635   5.388   4.769   3.260 -0.0502  0.7428  0.1454
  157MOL0    Cl20636   5.503   4.627   3.252  0.0546  0.4939 -0.0829
  157MOL0     C20637   5.877   4.455   4.209 -0.2838  0.5899  0.6577
  157MOL0     C20638   5.980   4.434   4.299  0.3044 -0.3727 -0.0685
  157MOL0     O20639   6.033   4.433   4.588  0.1205 -0.0299  0.7629
  157MOL0     C20640   6.390   4.490   4.568 -0.6041  0.6856 -0.3500
  157MOL0     C20641   6.510   4.461   4.629 -0.6041 -0.7151 -0.7618
  157MOL0     N20642   7.167   4.194   5.189 -0.1318 -0.4261 -0.5341
  157MOL0     N20643   7.183   4.226   5.315 -0.2819 -0.4640  0.4372
  157MOL0     C20644   6.182   3.921   5.094 -0.0925  1.2750  0.3421
  157MOL0     C20645   6.087   3.955   4.997 -0.8519  0.0383 -0.4327
  157MOL0     C20646   5.918   4.037   4.579 -0.1009  0.2665 -0.1114
  157MOL0     C20647   5.857   3.956   4.475 -0.3000  0.3788 -0.5705
  157MOL0     C20648   5.773   4.007   4.379 -0.1062 -0.6336  0.0335
  157MOL0     C20649   5.749   4.146   4.380 -0.3257  0.0548  0.2830
  157MOL0     O20650   5.669   4.204   4.287  0.5830 -0.9926 -0.1404
  157MOL0     C20651   5.602   4.120   4.189 -0.6237 -0.6581 -0.1759
  157MOL0     C20652   5.528   4.178   4.067  0.5265 -0.6490 -0.3963
  157MOL0     C20653   5.416   4.273   4.105 -1.0210 -0.1840 -0.6114
  157MOL0     C20654   5.317   4.287   3.992  0.0270  0.4307  0.4159
  157MOL0     C20655   5.253   4.416   3.983  0.2361 -0.2108 -0.5507
  157MOL0     C20656   5.196   4.530   3.978  0.5735 -0.4682 -0.1157
  157MOL0     C20657   5.804   4.230   4.480 -0.5878  0.1027  0.4502
  157MOL0     C20658   5.875   4.167   4.579  0.2224 -0.0144 -0.0826
  157MOL0     H20659   6.303   4.063   4.762 -4.0976  1.6098 -0.6106
  157MOL0     H20660   6.462   4.004   4.911  0.5245 -1.9509 -0.3592
  157MOL0     H20661   6.457   4.081   5.188 -0.1222  1.1230  1.0223
  157MOL0     H20662   6.590   3.966   5.143 -0.8422  2.3318 -0.9402
  157MOL0     H20663   6.560   3.863   5.362 -1.1947  0.9575  0.1338
  157MOL0     H20664   6.485   4.014   5.419 -0.5284  1.0456 -1.6301
  157MOL0     H20665   6.668   4.143   5.317 -0.0331 -0.2965 -1.4277
  157MOL0     H20666   6.764   4.007   5.296  0.0385  0.3610  0.0046
  157MOL0     H20667   6.656   4.077   5.579  4.4391 -0.8433  6.5549
  157MOL0     H20668   6.726   3.924   5.537  1.7808  0.0482  0.1971
  157MOL0     H20669   6.924   4.084   5.433 -2.5563 -1.4150  0.2158
  157MOL0     H20670   6.909   4.051   5.607  1.0229 -0.6982 -0.1090
  157MOL0     H20671   6.778   4.258   5.632 -3.4060 -4.0331 -1.6236
  157MOL0     H20672   6.814   4.320   5.466 -0.5124  0.3848  0.4427
  157MOL0     H20673   6.958   4.409   5.658 -0.1266 -1.6472  2.5437
  157MOL0     H20674   7.034   4.252   5.661  1.1491  2.0242 -0.1565
  157MOL0     H20675   7.164   4.402   5.519  0.0313  2.2954  0.0469
  157MOL0     H20676   7.018   4.473   5.450 -3.4768 -2.2266 -0.5420
  157MOL0     H20677   6.892   4.360   5.253 -0.7574 -2.3582 -0.6004
  157MOL0     H20678   7.011   4.135   4.974  0.5681  1.0508 -1.1440
  157MOL0     H20679   7.100   4.291   4.953  1.4903  0.8041  0.3466
  157MOL0     H20680   6.870   4.394   4.993  0.6673  0.0923 -0.5215
  157MOL0     H20681   6.801   4.223   4.974  1.8304 -0.7502  1.5179
  157MOL0     H20682   6.968   4.341   4.755 -0.7515  1.5036  1.4482
  157MOL0     H20683   6.867   4.203   4.739  0.3333 -0.0999 -2.5241
  157MOL0     H20684   6.756   4.379   4.631  0.8275  1.0919 -0.5784
  157MOL0     H20685   6.769   4.484   4.769  1.6216 -0.0901 -1.1205
  157MOL0     H20686   6.394   4.279   4.889 -0.6375  1.4413  1.7138
  157MOL0     H20687   6.180   4.327   4.765  0.8701  1.1522  1.3980
  157MOL0     H20688   6.105   4.751   4.276 -1.4874  1.2478  0.6352
  157MOL0     H20689   5.930   4.779   4.121  2.1417  0.9129  0.2731
  157MOL0     H20690   5.751   4.713   3.893  1.3556 -1.0155  1.5704
  157MOL0     H20691   5.700   4.777   4.061 -0.9991  0.9008  0.9669
  157MOL0     H20692   5.527   4.779   3.888  0.2585  0.0626  0.2352
  157MOL0     H20693   5.487   4.661   4.012  3.2595 -0.9605  3.2866
  157MOL0     H20694   5.540   4.480   3.862 -0.3103 -0.7685 -0.1059
  157MOL0     H20695   5.635   4.594   3.748 -0.7195  0.5255 -0.0766
  157MOL0     H20696   5.409   4.502   3.683 -2.7382  0.7057 -1.0390
  157MOL0     H20697   5.335   4.609   3.796  0.0172 -2.0104  0.3979
  157MOL0     H20698   5.529   4.704   3.586 -0.7691 -1.9074 -0.5503
  157MOL0     H20699   5.415   4.788   3.702  2.5026  1.3697 -1.0532
  157MOL0     H20700   5.226   4.695   3.542 -1.3743 -1.9797 -3.8132
  157MOL0     H20701   5.339   4.591   3.470  0.0003 -0.7675  2.0223
  157MOL0     H20702   5.268   4.875   3.411  0.4055  0.0620 -0.0834
  157MOL0     H20703   5.442   4.873   3.443  0.3775  1.9075 -3.3488
  157MOL0     H20704   5.430   4.853   3.204  1.1772 -1.0596 -1.8187
  157MOL0     H20705   5.288   4.748   3.220 -1.2671  4.1876  1.0734
  157MOL0     H20706   5.815   4.367   4.195  1.0423 -0.9563  3.4993
  157MOL0     H20707   6.009   4.334   4.329  1.9712 -1.1216 -3.6532
  157MOL0     H20708   6.386   4.569   4.494  3.2931  0.9830 -0.4562
  157MOL0     H20709   6.599   4.508   4.589  1.5281 -2.7667  1.2249
  157MOL0     H20710   6.152   3.884   5.192  1.6267 -3.9155 -0.7402
  157MOL0     H20711   5.982   3.935   5.016 -0.9627 -2.3971 -2.9187
  157MOL0     H20712   5.881   3.850   4.466 -0.6555  0.2618 -0.1430
  157MOL0     H20713   5.725   3.932   4.318 -2.1717 -0.4319  1.3263
  157MOL0     H20714   5.522   4.065   4.239 -0.3993  0.7022  1.8019
  157MOL0     H20715   5.670   4.047   4.145  1.4448 -1.4711  3.8305
  157MOL0     H20716   5.598   4.217   3.992 -0.1146  0.1007 -0.6269
  157MOL0     H20717   5.486   4.088   4.022  0.1175  1.2600 -4.2845
  157MOL0     H20718   5.455   4.370   4.137 -1.2701  0.0318 -0.9571
  157MOL0     H20719   5.368   4.236   4.196  1.8658  0.4326  1.3184
  157MOL0     H20720   5.366   4.266   3.896  0.5805  1.2154  0.5173
  157MOL0     H20721   5.239   4.213   4.007 -1.1680  2.0215  2.6717
  157MOL0     H20722   5.164   4.631   3.992  3.1030  0.0674  2.7688
  157MOL0     H20723   5.793   4.338   4.490 -3.8768  0.3137 -2.9944
  157MOL0     H20724   5.916   4.230   4.657  1.2817 -2.1402  1.1459
  158MOL0     O20725   5.711   5.275   9.421 -0.4906 -0.6107 -0.3603
  158MOL0     C20726   5.784   5.217   9.337  0.1212 -0.1641  0.4563
  158MOL0     O20727   5.746   5.124   9.250  0.1515  0.7768  0.4571
  158MOL0     C20728   5.617   5.084   9.211 -0.4290  1.0067  0.0718
  158MOL0     C20729   5.516   5.035   9.295 -0.3705 -0.3311 -0.7929
  158MOL0     C20730   5.395   4.987   9.232 -0.4646  0.5753  0.0694
  158MOL0     C20731   5.374   4.989   9.088  0.5150  0.0288  0.3041
  158MOL0     O20732   5.260   4.940   9.022 -0.5397 -0.4518 -0.1882
  158MOL0     C20733   5.174   4.857   9.092 -0.0529 -0.8922 -0.2607
  158MOL0     C20734   5.070   4.792   9.005  0.2331 -0.3276  0.6739
  158MOL0     C20735   4.982   4.882   8.935  0.5533  0.5685  0.5753
  158MOL0     C20736   4.891   4.803   8.836 -0.4218 -0.4306 -0.3181
  158MOL0     C20737   4.781   4.890   8.780  0.1858 -0.3268 -0.0184
  158MOL0     C20738   4.813   5.034   8.732 -1.0206 -0.1662 -0.1038
  158MOL0     C20739   4.700   5.084   8.645 -0.6054  0.3820  0.8753
  158MOL0     C20740   4.575   5.135   8.729  0.1089  0.2985 -0.2367
  158MOL0     N20741   4.462   5.045   8.744  0.2623  0.3170 -0.2753
  158MOL0     C20742   4.398   4.987   8.643 -0.6112 -0.3578  0.1674
  158MOL0     C20743   4.279   4.946   8.693  0.3274 -0.0838  0.3065
  158MOL0     C20744   4.181   4.890   8.590  0.6491  0.6988 -0.3948
  158MOL0     C20745   4.037   4.885   8.654  0.0339  0.4127  0.0410
  158MOL0     C20746   3.960   4.784   8.579 -0.6785  0.1478 -0.5850
  158MOL0     C20747   3.819   4.775   8.637 -0.1476 -0.4475  0.9269
  158MOL0     O20748   3.752   4.887   8.588  0.8985 -0.5949 -0.1657
  158MOL0     C20749   3.619   4.909   8.626 -0.1739  0.4381 -0.5844
  158MOL0     C20750   3.571   5.035   8.619 -0.2625  0.3397  0.4769
  158MOL0     C20751   3.432   5.065   8.637  0.3249 -0.5580 -0.0930
  158MOL0     C20752   3.338   4.960   8.652 -0.5038 -0.1188 -0.9874
  158MOL0     C20753   3.194   4.985   8.645  0.2029 -0.1120  0.2017
  158MOL0     O20754   3.130   4.871   8.615  0.6142  0.1607 -0.3331
  158MOL0     C20755   2.991   4.877   8.586 -0.3125 -0.1405  0.3601
  158MOL0     C20756   2.904   4.775   8.632 -0.1886  0.2694  0.4924
  158MOL0     C20757   2.768   4.785   8.613  0.0273 -0.0400 -0.1231
  158MOL0     C20758   2.716   4.880   8.525  0.4235 -0.3872 -0.5095
  158MOL0     O20759   2.586   4.877   8.505 -0.5182  0.2811  0.1782
  158MOL0     C20760   2.558   4.802   8.387  0.4998 -1.0787 -1.2338
  158MOL0     C20761   2.435   4.875   8.321  0.2787  0.0445 -1.0086
  158MOL0     C20762   2.465   4.936   8.184 -0.3367 -0.6293 -0.1623
  158MOL0     C20763   2.339   5.043   8.165 -0.7472  0.3167  0.6379
  158MOL0     C20764   2.362   5.165   8.072  0.8725  0.1430  0.3832
  158MOL0     C20765   2.391   5.111   7.931  0.0200  0.8720  0.6579
  158MOL0     C20766   2.392   5.228   7.834  0.3788 -0.0473 -0.4580
  158MOL0     C20767   2.409   5.191   7.694 -0.2651  0.1448  0.2633
  158MOL0    Cl20768   2.539   5.072   7.673 -0.0150  0.5005 -0.4485
  158MOL0     C20769   2.800   4.965   8.455 -0.6393 -0.7062  0.9127
  158MOL0     C20770   2.932   4.965   8.492 -0.6592  0.3014  0.2716
  158MOL0     O20771   3.142   5.097   8.646 -0.6352 -0.4365 -0.1509
  158MOL0     C20772   3.392   4.832   8.686  0.5261 -0.1802 -0.0113
  158MOL0     C20773   3.531   4.813   8.677 -0.5723  0.5652 -0.2358
  158MOL0     N20774   4.272   4.965   8.830 -0.3183  0.3084  0.0580
  158MOL0     N20775   4.392   5.014   8.857  0.4995 -0.3402 -0.1869
  158MOL0     C20776   5.482   5.031   9.015 -0.4682  0.2238  0.2454
  158MOL0     C20777   5.603   5.073   9.068 -0.2268 -0.1065  0.2671
  158MOL0     C20778   5.926   5.240   9.350 -0.9825 -0.3768 -0.1630
  158MOL0     C20779   5.976   5.332   9.441  0.8108 -0.6668 -1.1955
  158MOL0     C20780   6.112   5.360   9.451 -1.0151  0.8835  0.9511
  158MOL0     C20781   6.205   5.298   9.371 -0.0529 -0.1204  0.8668
  158MOL0     O20782   6.343   5.322   9.359  0.0863  0.1809  0.9506
  158MOL0     C20783   6.393   5.441   9.424  1.0829 -0.3513 -0.5694
  158MOL0     C20784   6.507   5.498   9.344  0.3513 -0.3986  0.5240
  158MOL0     C20785   6.634   5.403   9.346  0.3870  0.4090  0.4547
  158MOL0     C20786   6.757   5.470   9.274  0.6069 -0.5280 -0.0798
  158MOL0     C20787   6.801   5.592   9.347 -0.6353  0.5681 -0.6954
  158MOL0     C20788   6.843   5.687   9.409  0.2447 -0.0688  0.0059
  158MOL0     C20789   6.163   5.196   9.289 -0.4899 -1.1284 -0.4481
  158MOL0     C20790   6.025   5.174   9.283 -0.0468  0.1468  0.2339
  158MOL0     H20791   5.535   5.025   9.401  1.5939  1.6818 -0.8665
  158MOL0     H20792   5.322   4.961   9.308  0.6548 -0.0601  0.9715
  158MOL0     H20793   5.110   4.905   9.166 -2.0136 -0.8464 -1.8987
  158MOL0     H20794   5.230   4.783   9.150 -0.3611 -2.3169 -1.7054
  158MOL0     H20795   5.018   4.717   9.064  0.5977 -0.0841  1.3234
  158MOL0     H20796   5.129   4.738   8.930  0.7337  1.3105 -0.1560
  158MOL0     H20797   5.043   4.954   8.879 -2.8573  3.3414  0.0350
  158MOL0     H20798   4.924   4.946   9.003  0.5404  1.5055 -0.2816
  158MOL0     H20799   4.953   4.779   8.749  1.4459  2.0826  0.2123
  158MOL0     H20800   4.853   4.713   8.886 -0.4292 -1.6145 -2.3529
  158MOL0     H20801   4.702   4.893   8.857 -1.4972  0.4679 -1.6950
  158MOL0     H20802   4.749   4.834   8.692  3.3973 -0.6305 -1.0925
  158MOL0     H20803   4.910   5.027   8.682  0.1385 -1.3022  2.2043
  158MOL0     H20804   4.827   5.101   8.817  1.3085 -0.7598  0.0440
  158MOL0     H20805   4.716   5.155   8.564  0.2038 -1.7174 -0.8877
  158MOL0     H20806   4.682   4.998   8.581 -0.6098  0.4198  0.8263
  158MOL0     H20807   4.539   5.225   8.679  2.1046  1.6886  0.6837
  158MOL0     H20808   4.611   5.169   8.827  1.4195 -1.6533  0.0109
  158MOL0     H20809   4.444   4.975   8.546  1.1366 -3.9492  1.2554
  158MOL0     H20810   4.208   4.785   8.577 -0.9707 -0.2810  2.9977
  158MOL0     H20811   4.179   4.938   8.492 -2.6151 -0.4467 -1.0008
  158MOL0     H20812   3.984   4.981   8.649 -2.4599 -0.8555  0.4259
  158MOL0     H20813   4.038   4.857   8.760  1.3408 -0.7679 -0.2557
  158MOL0     H20814   3.960   4.804   8.472 -1.6885 -0.8423 -0.7887
  158MOL0     H20815   4.006   4.686   8.588 -1.2834 -0.0705  0.3834
  158MOL0     H20816   3.823   4.770   8.747 -2.4256 -0.3546  1.0709
  158MOL0     H20817   3.762   4.691   8.596 -3.4062  2.1797 -0.3717
  158MOL0     H20818   3.631   5.114   8.575 -0.0148 -0.3931 -0.5414
  158MOL0     H20819   3.393   5.164   8.619 -1.9261 -1.4046 -0.1684
  158MOL0     H20820   2.955   4.701   8.692  1.0997 -0.2006 -1.1137
  158MOL0     H20821   2.700   4.713   8.658 -1.7098  1.3697 -0.3655
  158MOL0     H20822   2.537   4.696   8.405  0.4111 -0.7954  0.5073
  158MOL0     H20823   2.647   4.814   8.324 -0.2109 -1.3042 -2.2880
  158MOL0     H20824   2.421   4.951   8.398  2.6584 -1.4528  1.0373
  158MOL0     H20825   2.357   4.800   8.319 -0.5539  0.8819 -0.5779
  158MOL0     H20826   2.461   4.850   8.117 -0.1714 -1.3575  0.7415
  158MOL0     H20827   2.558   4.992   8.193 -0.4367 -0.6476  1.2543
  158MOL0     H20828   2.256   4.986   8.124 -1.5842  3.6547 -2.9180
  158MOL0     H20829   2.302   5.086   8.259  1.4983  0.1530  1.6510
  158MOL0     H20830   2.436   5.236   8.109  1.2754  1.3454 -2.4690
  158MOL0     H20831   2.270   5.224   8.066 -0.0058 -1.2652 -0.7400
  158MOL0     H20832   2.302   5.050   7.912 -0.4394  1.6404  0.3267
  158MOL0     H20833   2.476   5.043   7.926 -2.0429 -1.7818 -2.7006
  158MOL0     H20834   2.290   5.262   7.853  0.2513  0.9396 -2.5867
  158MOL0     H20835   2.461   5.310   7.856  0.8231  0.5868 -3.6846
  158MOL0     H20836   2.435   5.286   7.648  1.7416  2.0439  4.7846
  158MOL0     H20837   2.319   5.143   7.653  1.6908 -1.3384 -2.7093
  158MOL0     H20838   2.765   5.042   8.386 -0.2933 -2.4041 -1.2675
  158MOL0     H20839   2.999   5.035   8.443 -1.7740  0.9794 -0.3422
  158MOL0     H20840   3.334   4.743   8.711 -1.6749  0.5468 -2.0735
  158MOL0     H20841   3.568   4.712   8.691 -0.6947  0.5908  0.2951
  158MOL0     H20842   5.475   5.043   8.908 -1.7989 -2.0707 -0.0011
  158MOL0     H20843   5.679   5.116   9.004 -0.5781  0.5951  0.3018
  158MOL0     H20844   5.909   5.376   9.514  2.9638  2.1320 -0.7091
  158MOL0     H20845   6.141   5.436   9.523  0.7351 -1.3700  2.8075
  158MOL0     H20846   6.430   5.410   9.522  1.5448 -1.8393 -1.1881
  158MOL0     H20847   6.317   5.520   9.426  1.5925  0.1352  0.7209
  158MOL0     H20848   6.466   5.514   9.244 -0.0402 -1.1906  0.5485
  158MOL0     H20849   6.539   5.589   9.395  1.4160  0.9140 -2.2793
  158MOL0     H20850   6.608   5.309   9.295  1.4144  0.4837 -0.2290
  158MOL0     H20851   6.677   5.370   9.441 -0.0846  0.8271  0.8176
  158MOL0     H20852   6.840   5.399   9.270  1.3695  0.2520  1.1400
  158MOL0     H20853   6.743   5.495   9.169 -0.2951 -1.7792 -0.2785
  158MOL0     H20854   6.864   5.779   9.461  0.3587  1.3602 -2.4182
  158MOL0     H20855   6.241   5.138   9.239 -0.3084 -0.4798 -0.9299
  158MOL0     H20856   5.991   5.097   9.215  0.3314 -2.5059  2.8506
  159MOL0     O20857   3.804   3.522   1.887 -0.0047 -0.0186  0.1476
  159MOL0     C20858   3.899   3.509   1.815 -1.1578 -0.0593  0.4879
  159MOL0     O20859   3.893   3.512   1.679 -0.2951 -0.3115 -0.5861
  159MOL0     C20860   3.772   3.523   1.614 -0.0370  0.4468  0.2286
  159MOL0     C20861   3.766   3.464   1.485  0.1737 -0.3709  0.5990
  159MOL0     C20862   3.645   3.476   1.409 -0.0978  0.0084 -0.0176
  159MOL0     C20863   3.540   3.552   1.450 -0.1930 -0.0094 -0.1440
  159MOL0     O20864   3.432   3.549   1.371  0.1182  0.7243  0.3179
  159MOL0     C20865   3.359   3.673   1.366 -0.1509  0.0923  0.0441
  159MOL0     C20866   3.280   3.673   1.239  1.2394 -0.3129 -0.3543
  159MOL0     C20867   3.199   3.801   1.227  0.0128 -0.5385  0.0923
  159MOL0     C20868   3.140   3.808   1.094  0.9475 -0.2008  0.0765
  159MOL0     C20869   3.039   3.914   1.069 -0.2926  0.3568 -0.4044
  159MOL0     C20870   3.082   4.048   1.107  0.0381 -0.3815  0.0222
  159MOL0     C20871   3.182   4.118   1.007 -0.2166 -0.0836 -0.3356
  159MOL0     C20872   3.230   4.258   1.050  0.1640 -0.0818 -0.2513
  159MOL0     N20873   3.334   4.297   0.959 -0.1985 -0.2548 -0.2466
  159MOL0     C20874   3.465   4.250   0.963 -0.0705 -0.0020 -0.0987
  159MOL0     C20875   3.535   4.351   0.909  0.1787  0.4391  0.8617
  159MOL0     C20876   3.678   4.343   0.865  0.4730 -0.1174  0.4108
  159MOL0     C20877   3.683   4.310   0.716 -0.4755 -0.4014  0.0628
  159MOL0     C20878   3.830   4.253   0.682  0.5319  0.1766 -0.1262
  159MOL0     C20879   3.946   4.351   0.705  0.3922 -0.2384 -0.0382
  159MOL0     O20880   4.059   4.293   0.652 -0.3565  0.6225  0.0873
  159MOL0     C20881   4.185   4.347   0.643 -1.0720 -0.3569  0.7379
  159MOL0     C20882   4.212   4.478   0.688 -0.8898 -0.1583 -0.6163
  159MOL0     C20883   4.339   4.526   0.675 -0.1394 -0.6190 -0.1046
  159MOL0     C20884   4.448   4.455   0.612  0.4865  0.7589  0.5809
  159MOL0     C20885   4.591   4.510   0.597 -0.6629 -0.2951 -1.2528
  159MOL0     O20886   4.694   4.440   0.538  0.3483  1.0366 -0.8080
  159MOL0     C20887   4.819   4.490   0.514 -0.5900 -0.8444  0.5621
  159MOL0     C20888   4.910   4.387   0.492 -0.5890 -0.1298 -0.2829
  159MOL0     C20889   5.045   4.420   0.456 -0.5511 -0.9182 -0.0065
  159MOL0     C20890   5.081   4.554   0.443 -0.5293  0.4506 -1.0853
  159MOL0     O20891   5.213   4.581   0.397  0.1248  0.3683  0.3972
  159MOL0     C20892   5.270   4.689   0.463  0.0548 -0.7841 -0.4084
  159MOL0     C20893   5.414   4.704   0.425 -0.1449  1.2925  0.6333
  159MOL0     C20894   5.474   4.826   0.482 -1.1597 -0.8260 -0.4626
  159MOL0     C20895   5.606   4.873   0.417  0.0732 -0.4330  0.1438
  159MOL0     C20896   5.731   4.800   0.472 -0.3872  0.2182  0.5273
  159MOL0     C20897   5.854   4.871   0.410 -0.3698  0.4094  0.8164
  159MOL0     C20898   5.894   5.013   0.453 -0.0085  0.0017  0.0654
  159MOL0     C20899   6.045   5.041   0.470 -0.4571  0.3105  0.2163
  159MOL0    Cl20900   6.145   4.995   0.325 -0.1124 -0.4555 -0.0997
  159MOL0     C20901   4.988   4.658   0.478  0.6540 -0.7478 -0.5193
  159MOL0     C20902   4.854   4.622   0.509 -0.8590 -0.4870  0.2905
  159MOL0     O20903   4.607   4.619   0.650  0.1308 -0.1717 -0.6596
  159MOL0     C20904   4.419   4.319   0.580  0.1223  0.3498 -0.5360
  159MOL0     C20905   4.285   4.270   0.604  0.3686 -0.7850  0.6751
  159MOL0     N20906   3.457   4.451   0.873  0.3555  0.2138 -0.0195
  159MOL0     N20907   3.334   4.421   0.900  0.3558 -0.5651 -0.5710
  159MOL0     C20908   3.543   3.608   1.579 -0.1267  0.7312 -0.6818
  159MOL0     C20909   3.656   3.592   1.662  0.4472 -0.4966 -0.5380
  159MOL0     C20910   4.036   3.491   1.883 -0.3680 -0.5440 -0.2707
  159MOL0     C20911   4.059   3.482   2.022 -0.3026 -0.2276 -0.9531
  159MOL0     C20912   4.191   3.498   2.074 -0.1528 -1.2039  0.8888
  159MOL0     C20913   4.303   3.503   1.991  0.5138  0.5124 -0.2015
  159MOL0     O20914   4.439   3.515   2.030  0.4813  0.2598 -0.0486
  159MOL0     C20915   4.469   3.564   2.160 -0.2598  0.0151  0.3640
  159MOL0     C20916   4.623   3.566   2.184 -0.2607 -0.1929  0.5161
  159MOL0     C20917   4.680   3.685   2.123 -0.3436  0.2326  0.4460
  159MOL0     C20918   4.830   3.698   2.161 -0.7919  0.1338 -0.9804
  159MOL0     C20919   4.853   3.770   2.281  0.0868  0.5384  1.2573
  159MOL0     C20920   4.856   3.839   2.380 -0.0622 -0.1245  0.1842
  159MOL0     C20921   4.281   3.495   1.857 -0.5392  0.6715 -0.2746
  159MOL0     C20922   4.153   3.482   1.802  0.0772  0.1120  0.5968
  159MOL0     H20923   3.846   3.400   1.449  2.3466  2.1560  0.5540
  159MOL0     H20924   3.631   3.420   1.317 -0.6339 -2.9452  1.7657
  159MOL0     H20925   3.428   3.758   1.365  1.0375 -0.8408 -1.0835
  159MOL0     H20926   3.300   3.664   1.458 -0.4629 -1.1404 -0.2546
  159MOL0     H20927   3.212   3.588   1.247 -1.4064  1.6276 -0.7631
  159MOL0     H20928   3.343   3.663   1.151  1.8758  2.8292 -0.3903
  159MOL0     H20929   3.263   3.887   1.250 -0.7285 -0.1675  0.8511
  159MOL0     H20930   3.121   3.800   1.304  0.1090  2.5072  0.3533
  159MOL0     H20931   3.205   3.811   1.006 -0.2503  0.9262 -0.8092
  159MOL0     H20932   3.090   3.712   1.080 -0.6460  0.9210 -2.8271
  159MOL0     H20933   2.949   3.895   1.128 -0.7118  0.7168 -0.9198
  159MOL0     H20934   3.006   3.917   0.965 -0.8903  3.0805 -0.2081
  159MOL0     H20935   3.125   4.046   1.207  0.2035 -0.9195 -0.0549
  159MOL0     H20936   2.996   4.114   1.123  1.1927  1.2233 -0.1767
  159MOL0     H20937   3.273   4.057   0.998  0.3169  0.5246  0.6891
  159MOL0     H20938   3.133   4.132   0.911 -4.4969  0.0174  1.6557
  159MOL0     H20939   3.265   4.250   1.154 -0.3040 -4.0144 -0.2593
  159MOL0     H20940   3.145   4.325   1.036  0.3685 -0.3354 -3.1827
  159MOL0     H20941   3.497   4.156   1.007  0.7858  1.2442  2.0534
  159MOL0     H20942   3.733   4.271   0.926  0.1521 -0.8006 -0.1031
  159MOL0     H20943   3.722   4.443   0.878 -0.3126  0.7076 -2.5798
  159MOL0     H20944   3.668   4.400   0.655  2.7681  1.1788  1.3434
  159MOL0     H20945   3.610   4.233   0.690  1.5739 -2.7665  0.8295
  159MOL0     H20946   3.847   4.158   0.734  1.4108 -0.1736 -1.0150
  159MOL0     H20947   3.838   4.212   0.581  0.8080 -1.2968  0.4593
  159MOL0     H20948   3.960   4.381   0.810  1.0607  4.9195 -1.3232
  159MOL0     H20949   3.924   4.443   0.651  1.7842 -0.4942 -1.0857
  159MOL0     H20950   4.127   4.526   0.736 -1.9895 -0.1803 -2.4629
  159MOL0     H20951   4.377   4.622   0.709 -0.9810 -0.8228  1.5022
  159MOL0     H20952   4.878   4.284   0.501 -0.5848 -0.0313  1.0256
  159MOL0     H20953   5.123   4.345   0.445  1.6427  1.0410  1.1312
  159MOL0     H20954   5.272   4.666   0.570 -1.2436  1.0608  0.0418
  159MOL0     H20955   5.216   4.782   0.446  0.3920  0.1242  2.8600
  159MOL0     H20956   5.421   4.693   0.317  0.8614 -0.2948  0.8193
  159MOL0     H20957   5.477   4.629   0.474  2.2938  2.2197 -0.8929
  159MOL0     H20958   5.489   4.825   0.590  0.0398  1.0874 -0.5601
  159MOL0     H20959   5.402   4.908   0.476  1.2534  1.5267  0.3672
  159MOL0     H20960   5.600   4.859   0.309 -1.9498 -1.1931  0.3029
  159MOL0     H20961   5.618   4.976   0.452 -0.1419 -1.2817  3.0537
  159MOL0     H20962   5.725   4.696   0.440  0.2461 -0.3177  2.0489
  159MOL0     H20963   5.729   4.813   0.580  0.2435 -2.3980  0.9167
  159MOL0     H20964   5.847   4.860   0.301 -0.1838 -1.1811  0.9462
  159MOL0     H20965   5.932   4.805   0.448 -1.9236  0.3551  4.2938
  159MOL0     H20966   5.848   5.082   0.381 -0.6503  1.5854  1.9080
  159MOL0     H20967   5.835   5.029   0.544 -0.7916  2.9329 -0.8533
  159MOL0     H20968   6.084   4.995   0.562 -0.8811  1.3285  0.9288
  159MOL0     H20969   6.067   5.145   0.495 -0.0408 -0.1429  1.8627
  159MOL0     H20970   5.017   4.762   0.487  2.7585 -1.4773  5.2840
  159MOL0     H20971   4.785   4.701   0.536 -1.6952 -1.0868 -0.0408
  159MOL0     H20972   4.489   4.249   0.536 -1.8651 -1.9045 -0.3817
  159MOL0     H20973   4.269   4.167   0.574  1.9399 -1.1258  0.9179
  159MOL0     H20974   3.452   3.649   1.621  0.8760  1.3231  1.0156
  159MOL0     H20975   3.646   3.634   1.761  1.8539 -1.2716 -0.0387
  159MOL0     H20976   3.977   3.474   2.093 -0.1439 -1.0805 -0.8605
  159MOL0     H20977   4.202   3.509   2.182 -0.3504 -0.1138  0.8116
  159MOL0     H20978   4.416   3.494   2.226  1.1180 -3.2324 -1.6932
  159MOL0     H20979   4.429   3.665   2.174 -1.2276 -0.4007  0.6715
  159MOL0     H20980   4.633   3.556   2.293  0.7694 -0.4386  0.4039
  159MOL0     H20981   4.675   3.481   2.139 -0.9329  0.8342 -2.4264
  159MOL0     H20982   4.630   3.776   2.158 -0.9623 -1.0530  3.1732
  159MOL0     H20983   4.665   3.683   2.015  2.1293  3.2217 -0.1085
  159MOL0     H20984   4.868   3.596   2.177 -3.3080 -0.9061 -1.1386
  159MOL0     H20985   4.891   3.741   2.080  3.9201  1.4450  2.7713
  159MOL0     H20986   4.881   3.902   2.464 -2.4393  0.4972  0.5184
  159MOL0     H20987   4.369   3.485   1.794  0.2898 -3.5917  1.2529
  159MOL0     H20988   4.162   3.497   1.695  1.2142  0.4417  0.7346
  160MOL0     O20989   3.367   1.649   0.920  1.4646  0.1853 -0.0767
  160MOL0     C20990   3.306   1.737   0.858 -0.0576 -0.3204  0.1259
  160MOL0     O20991   3.357   1.816   0.763 -0.1941  0.0333 -0.4379
  160MOL0     C20992   3.495   1.805   0.740  0.4147  0.3543 -0.8639
  160MOL0     C20993   3.534   1.749   0.611 -0.2225  0.1852  0.0036
  160MOL0     C20994   3.671   1.729   0.590 -0.1496  0.1131 -0.3658
  160MOL0     C20995   3.772   1.773   0.679 -0.6372  0.2367 -0.4531
  160MOL0     O20996   3.911   1.768   0.660 -0.6446 -0.3091 -0.6552
  160MOL0     C20997   3.972   1.896   0.648  0.7264  0.8078  0.4770
  160MOL0     C20998   4.055   1.893   0.517  0.0554  0.6271 -1.4217
  160MOL0     C20999   3.968   1.859   0.408 -0.2721 -1.0839  0.1704
  160MOL0     C21000   4.018   1.930   0.282 -0.5181 -0.0998 -0.1045
  160MOL0     C21001   3.888   1.934   0.197 -0.4321 -0.8911 -0.4883
  160MOL0     C21002   3.931   1.934   0.045  0.1634 -0.0950  0.2553
  160MOL0     C21003   3.809   1.962  -0.059 -0.0543 -0.4158  0.7980
  160MOL0     C21004   3.698   1.851  -0.062 -0.0182  0.8246 -0.1022
  160MOL0     N21005   3.612   1.839   0.060 -0.0800  0.0295  0.4332
  160MOL0     C21006   3.542   1.936   0.121 -0.0340  0.5054  0.0937
  160MOL0     C21007   3.454   1.871   0.213 -0.3071  0.1283  0.4134
  160MOL0     C21008   3.359   1.962   0.291 -0.2996 -0.0729  0.5605
  160MOL0     C21009   3.223   1.974   0.219  0.4838  0.1300  0.1780
  160MOL0     C21010   3.160   1.832   0.228  1.0343 -0.0788  0.3077
  160MOL0     C21011   3.017   1.849   0.201  0.2460 -0.7559 -0.4185
  160MOL0     O21012   3.000   1.899   0.066 -0.2284 -0.0975  0.6171
  160MOL0     C21013   2.869   1.919   0.020  0.3145 -0.1282 -0.2128
  160MOL0     C21014   2.862   1.926  -0.119  0.2256  0.2449  0.2868
  160MOL0     C21015   2.734   1.946  -0.177 -0.5165 -0.5467 -0.1162
  160MOL0     C21016   2.616   1.962  -0.098 -0.8795 -0.4003  0.6109
  160MOL0     C21017   2.491   1.997  -0.156 -0.2089 -0.4660  0.7278
  160MOL0     O21018   2.477   1.977  -0.288 -0.1395  0.2732  0.9332
  160MOL0     C21019   2.345   1.962  -0.322 -0.6276 -0.4690 -0.0230
  160MOL0     C21020   2.233   2.056  -0.316  0.1201  0.8038  0.1919
  160MOL0     C21021   2.106   2.008  -0.348 -0.2098 -0.6283  0.2604
  160MOL0     C21022   2.077   1.877  -0.385  0.0254 -0.1606 -0.4271
  160MOL0     O21023   1.947   1.833  -0.415  1.0172  0.1203 -0.1952
  160MOL0     C21024   1.941   1.757  -0.543  0.3145 -0.6420 -0.7987
  160MOL0     C21025   1.800   1.746  -0.592 -0.0458 -0.0356  0.1670
  160MOL0     C21026   1.720   1.872  -0.634 -0.2941 -0.5747 -0.4826
  160MOL0     C21027   1.585   1.850  -0.694  0.1005  0.6425  0.2740
  160MOL0     C21028   1.540   1.974  -0.764 -0.1696  0.5610 -0.3310
  160MOL0     C21029   1.400   1.969  -0.806  0.5233  0.6275 -0.8434
  160MOL0     C21030   1.362   2.107  -0.855 -0.0924 -0.1255  0.4491
  160MOL0     C21031   1.345   2.108  -1.015 -0.7334  0.1425 -0.0181
  160MOL0    Cl21032   1.202   2.013  -1.066  0.3428  0.0287 -0.4661
  160MOL0     C21033   2.185   1.794  -0.409 -1.3733  0.0754 -0.2091
  160MOL0     C21034   2.314   1.840  -0.379  0.7593  1.0226 -0.3283
  160MOL0     O21035   2.408   2.054  -0.081  0.0949 -0.3147 -0.4382
  160MOL0     C21036   2.622   1.943   0.041  0.5341 -0.3544 -0.1149
  160MOL0     C21037   2.749   1.914   0.100 -0.1329 -0.2311  0.1690
  160MOL0     N21038   3.483   1.730   0.205  0.7664 -0.1187 -0.5108
  160MOL0     N21039   3.569   1.723   0.110 -0.2848 -0.0851  0.0967
  160MOL0     C21040   3.725   1.815   0.808 -0.3457  0.9749  0.4640
  160MOL0     C21041   3.588   1.835   0.835 -0.3469  0.2687 -0.2915
  160MOL0     C21042   3.167   1.751   0.888  0.7219 -0.6245  0.4511
  160MOL0     C21043   3.100   1.875   0.882 -0.1490  0.3840  0.2037
  160MOL0     C21044   2.971   1.885   0.912 -0.0957 -0.9488 -1.1670
  160MOL0     C21045   2.895   1.777   0.955 -0.3726 -0.9569 -0.3233
  160MOL0     O21046   2.770   1.772   1.010 -0.8347  0.2482 -0.1033
  160MOL0     C21047   2.696   1.888   1.009  0.7249 -0.5847  0.6046
  160MOL0     C21048   2.557   1.857   1.065  0.5048  0.8836 -0.5002
  160MOL0     C21049   2.445   1.959   1.033 -0.4004 -0.0228 -1.4093
  160MOL0     C21050   2.315   1.922   1.095  0.2352  1.1006 -0.8139
  160MOL0     C21051   2.251   1.820   1.018 -0.6296  0.3747  0.5808
  160MOL0     C21052   2.212   1.718   0.958 -0.6818  0.1525  0.3372
  160MOL0     C21053   2.958   1.656   0.963  0.0526  0.2378 -0.2271
  160MOL0     C21054   3.094   1.645   0.927  0.3729 -0.1669  0.8356
  160MOL0     H21055   3.460   1.725   0.536 -4.0706 -1.3816  3.8600
  160MOL0     H21056   3.705   1.686   0.497  0.1029 -1.7372  0.5355
  160MOL0     H21057   4.046   1.906   0.728 -0.5814 -0.5898  1.9214
  160MOL0     H21058   3.899   1.977   0.651  0.0312  0.2802 -1.1930
  160MOL0     H21059   4.127   1.812   0.534 -0.6428  0.3605  0.5200
  160MOL0     H21060   4.114   1.985   0.514  0.1187  0.6978  0.6085
  160MOL0     H21061   3.870   1.900   0.433 -1.2030 -2.0944 -1.6689
  160MOL0     H21062   3.955   1.752   0.393  0.9951 -0.9782 -2.3261
  160MOL0     H21063   4.045   2.034   0.300  2.7383 -0.4286 -2.3395
  160MOL0     H21064   4.104   1.883   0.234  0.3563  1.8963 -0.5968
  160MOL0     H21065   3.836   2.023   0.233 -0.1203 -1.5016  1.5816
  160MOL0     H21066   3.820   1.849   0.208 -1.2263  0.0747  3.6734
  160MOL0     H21067   3.981   1.841   0.017 -1.6768 -0.4119 -2.4011
  160MOL0     H21068   4.011   2.008   0.033  2.0828 -2.2013 -0.6560
  160MOL0     H21069   3.760   2.058  -0.044 -2.5020 -1.4716  0.0420
  160MOL0     H21070   3.869   1.967  -0.150  1.2620  1.1284  1.6898
  160MOL0     H21071   3.737   1.751  -0.083 -0.0738  1.4675 -3.8861
  160MOL0     H21072   3.637   1.874  -0.149  1.3838 -1.4640 -1.8370
  160MOL0     H21073   3.552   2.044   0.116 -2.8466  0.8116 -0.7331
  160MOL0     H21074   3.413   2.055   0.310  1.4916 -0.5758 -1.6293
  160MOL0     H21075   3.346   1.920   0.391  1.6845 -0.0440  0.8679
  160MOL0     H21076   3.244   1.992   0.113  0.5757  0.7396  0.2917
  160MOL0     H21077   3.161   2.048   0.271 -2.1038 -1.8976  0.1555
  160MOL0     H21078   3.207   1.760   0.160  0.7028  0.1974 -0.2156
  160MOL0     H21079   3.168   1.790   0.330  0.9124 -1.4671 -0.2264
  160MOL0     H21080   2.975   1.924   0.270  0.2000 -1.1935  0.0392
  160MOL0     H21081   2.950   1.764   0.218 -1.0390  0.0368 -1.3044
  160MOL0     H21082   2.953   1.927  -0.178 -1.0254  2.6936 -1.8206
  160MOL0     H21083   2.732   1.960  -0.285 -2.2779  1.2346  0.0898
  160MOL0     H21084   2.240   2.158  -0.279 -2.5669  1.7056 -1.4636
  160MOL0     H21085   2.018   2.072  -0.353 -1.8356 -2.5563  2.3774
  160MOL0     H21086   1.979   1.656  -0.527  0.2932 -0.2778  2.2239
  160MOL0     H21087   2.002   1.801  -0.623  4.1772 -2.8532  0.6222
  160MOL0     H21088   1.749   1.699  -0.507  2.8789 -2.9692  0.5509
  160MOL0     H21089   1.800   1.668  -0.670 -0.7904 -0.4577  0.5753
  160MOL0     H21090   1.774   1.919  -0.717 -0.2065  1.9937  0.9271
  160MOL0     H21091   1.720   1.946  -0.554  1.6955  0.6051 -1.4669
  160MOL0     H21092   1.594   1.770  -0.768  0.0370  1.5369 -0.7217
  160MOL0     H21093   1.514   1.827  -0.614 -2.6774 -1.9257 -2.6741
  160MOL0     H21094   1.616   2.001  -0.838 -1.2077  0.8229 -1.3387
  160MOL0     H21095   1.543   2.057  -0.694 -3.5159 -1.3529  2.4473
  160MOL0     H21096   1.331   1.928  -0.731  1.6002  2.5048  1.2802
  160MOL0     H21097   1.394   1.890  -0.882  1.9196  1.3546 -1.7486
  160MOL0     H21098   1.277   2.152  -0.803  0.7174  1.8334  0.1515
  160MOL0     H21099   1.434   2.181  -0.818 -0.4180  0.9709 -1.0044
  160MOL0     H21100   1.437   2.074  -1.064  0.7080  0.9912  1.9775
  160MOL0     H21101   1.327   2.209  -1.052 -0.4138  0.5006  0.7857
  160MOL0     H21102   2.166   1.688  -0.422 -1.1692  0.0506 -0.2959
  160MOL0     H21103   2.390   1.771  -0.414  1.0424  1.7993 -1.2835
  160MOL0     H21104   2.536   1.956   0.105  0.2046  0.2864 -0.6735
  160MOL0     H21105   2.750   1.891   0.206  1.4507 -1.7688 -0.1277
  160MOL0     H21106   3.808   1.848   0.871  0.0115  1.2895 -0.1641
  160MOL0     H21107   3.572   1.876   0.934  3.2516  1.1691  0.0570
  160MOL0     H21108   3.154   1.965   0.852 -0.3513  1.2342  2.2127
  160MOL0     H21109   2.930   1.986   0.913 -0.6096 -1.1256  1.1550
  160MOL0     H21110   2.685   1.932   0.910 -0.9133 -3.0000 -0.3911
  160MOL0     H21111   2.746   1.955   1.080  2.3399  0.1036 -1.1071
  160MOL0     H21112   2.533   1.763   1.017  2.1645 -2.2988  4.1633
  160MOL0     H21113   2.567   1.817   1.167 -0.8484 -2.6481 -1.6229
  160MOL0     H21114   2.431   1.985   0.928 -0.5722  0.9145 -1.1681
  160MOL0     H21115   2.476   2.055   1.076  0.5602  0.1603 -2.4514
  160MOL0     H21116   2.319   1.882   1.197 -5.1789  2.3985  0.2102
  160MOL0     H21117   2.248   2.007   1.109 -0.5331  0.6024 -1.3841
  160MOL0     H21118   2.189   1.622   0.916  0.9136 -0.0351 -0.1551
  160MOL0     H21119   2.907   1.570   1.006  1.9217  0.0253  1.7580
  160MOL0     H21120   3.158   1.558   0.942  0.9658  0.1373  0.1181
  161MOL0     O21121   9.450   2.442   2.556 -0.7820 -0.4209  0.6683
  161MOL0     C21122   9.435   2.319   2.545 -0.3773  0.8903  0.2498
  161MOL0     O21123   9.311   2.261   2.527 -0.4819 -0.1673 -0.0681
  161MOL0     C21124   9.203   2.334   2.517  0.1921 -0.5788 -0.4674
  161MOL0     C21125   9.111   2.306   2.420 -0.1052  0.0915 -0.0073
  161MOL0     C21126   8.997   2.387   2.411 -0.0711 -0.3565 -0.3334
  161MOL0     C21127   8.980   2.504   2.496  0.0800 -0.1530  0.1239
  161MOL0     O21128   8.867   2.587   2.481  0.4000  0.0079  0.1670
  161MOL0     C21129   8.736   2.529   2.449  0.4749 -0.2395  0.3899
  161MOL0     C21130   8.671   2.606   2.345 -0.1285 -0.0492  0.0795
  161MOL0     C21131   8.537   2.557   2.303  1.2832  0.5124  0.1373
  161MOL0     C21132   8.425   2.667   2.283  0.2047 -0.3085 -0.1751
  161MOL0     C21133   8.287   2.613   2.249  0.1512  0.4013 -0.6320
  161MOL0     C21134   8.183   2.713   2.197  0.1276 -0.9106  0.5015
  161MOL0     C21135   8.217   2.796   2.073 -0.0244  0.8134  0.2089
  161MOL0     C21136   8.284   2.718   1.958  0.1817  0.2141  0.2104
  161MOL0     N21137   8.209   2.604   1.905  0.5191  0.3883 -0.3863
  161MOL0     C21138   8.121   2.620   1.793  0.4473  1.2189 -0.6744
  161MOL0     C21139   8.025   2.530   1.799 -0.2640 -1.0007 -0.1135
  161MOL0     C21140   7.914   2.529   1.704 -0.0529  0.2266 -0.0631
  161MOL0     C21141   7.945   2.404   1.620  0.0110 -0.0291  0.1523
  161MOL0     C21142   7.872   2.391   1.493 -0.6566 -0.6685 -0.3249
  161MOL0     C21143   7.847   2.258   1.438  0.9472  0.1023 -0.5255
  161MOL0     O21144   7.720   2.242   1.368  0.3067 -0.1428  0.1492
  161MOL0     C21145   7.706   2.290   1.239 -0.2498  0.3393  0.3356
  161MOL0     C21146   7.573   2.286   1.195 -0.0148  0.6799 -0.5723
  161MOL0     C21147   7.536   2.334   1.068 -0.1612  0.1183 -0.4475
  161MOL0     C21148   7.642   2.355   0.977  0.4939 -0.7549  0.3933
  161MOL0     C21149   7.608   2.371   0.833 -0.1419 -1.1609 -0.1592
  161MOL0     O21150   7.480   2.382   0.797 -0.4064 -0.3467 -0.3820
  161MOL0     C21151   7.457   2.380   0.665  0.1454  0.0624 -0.2723
  161MOL0     C21152   7.453   2.496   0.579  0.7903 -0.2934 -0.8189
  161MOL0     C21153   7.404   2.490   0.445 -0.0409  0.5268 -0.3273
  161MOL0     C21154   7.362   2.361   0.388 -0.4319  0.5069  0.8104
  161MOL0     O21155   7.325   2.349   0.261  0.3740  0.2919 -0.1342
  161MOL0     C21156   7.289   2.468   0.190  0.2920  0.2052 -0.4227
  161MOL0     C21157   7.251   2.421   0.051 -0.3679  0.6309 -0.2263
  161MOL0     C21158   7.144   2.310   0.051 -0.4830  0.3337 -0.3888
  161MOL0     C21159   7.130   2.255  -0.094 -0.1507 -0.2851 -0.3565
  161MOL0     C21160   7.077   2.103  -0.084 -0.6643  0.6918 -0.3128
  161MOL0     C21161   6.929   2.112  -0.048 -0.6889  0.7682  0.3447
  161MOL0     C21162   6.841   1.983  -0.067 -0.0813 -0.7601  0.6620
  161MOL0     C21163   6.701   2.007  -0.017  0.8343  0.1869 -0.2527
  161MOL0    Cl21164   6.691   1.967   0.149 -0.4745  0.6174 -0.1886
  161MOL0     C21165   7.382   2.247   0.472 -0.7036 -0.0519  0.3176
  161MOL0     C21166   7.405   2.266   0.612 -0.5632  0.1918  0.1410
  161MOL0     O21167   7.700   2.392   0.755 -0.6105  0.2348 -0.1943
  161MOL0     C21168   7.780   2.367   1.023  0.1580  0.6144  0.0793
  161MOL0     C21169   7.806   2.335   1.156 -0.4430  1.0481  0.8431
  161MOL0     N21170   8.076   2.442   1.894 -0.7800  0.3192 -0.1638
  161MOL0     N21171   8.185   2.481   1.957  0.0552  0.6657  0.7688
  161MOL0     C21172   9.073   2.532   2.596 -0.3770  0.2252  0.1805
  161MOL0     C21173   9.183   2.436   2.614  0.3915 -0.6354  0.3687
  161MOL0     C21174   9.554   2.225   2.572  0.6071 -0.3473  0.5783
  161MOL0     C21175   9.690   2.268   2.593  0.0570 -0.0695 -0.5084
  161MOL0     C21176   9.791   2.186   2.634 -0.8319  1.3565 -0.6141
  161MOL0     C21177   9.772   2.046   2.662  0.6177  0.6973  0.3128
  161MOL0     O21178   9.862   1.952   2.705 -0.3518  0.3421  0.5143
  161MOL0     C21179   9.968   1.984   2.794  0.4736 -0.0742 -0.0823
  161MOL0     C21180  10.092   1.894   2.772 -0.3139  0.4500  0.0873
  161MOL0     C21181  10.200   1.933   2.870  0.6350 -0.9950  0.2087
  161MOL0     C21182  10.310   1.821   2.888  0.3627  0.5409  1.4017
  161MOL0     C21183  10.416   1.853   2.974  0.0714  0.5152 -0.0060
  161MOL0     C21184  10.516   1.868   3.049  0.5652 -0.2776 -0.9079
  161MOL0     C21185   9.637   2.002   2.639 -1.0377 -0.0292  0.2848
  161MOL0     C21186   9.533   2.086   2.597 -0.0475 -0.8912  0.6688
  161MOL0     H21187   9.133   2.230   2.346 -0.8873 -0.0002 -0.1517
  161MOL0     H21188   8.932   2.359   2.329  2.0754 -0.9897 -1.9161
  161MOL0     H21189   8.674   2.518   2.539  0.3236 -1.0665  0.1934
  161MOL0     H21190   8.746   2.424   2.422 -1.5611 -0.6111  0.8905
  161MOL0     H21191   8.742   2.613   2.262  1.9069  3.1384  1.8909
  161MOL0     H21192   8.655   2.708   2.378 -2.1554  0.0804 -1.1610
  161MOL0     H21193   8.490   2.494   2.379 -5.1486  0.4426 -3.2085
  161MOL0     H21194   8.542   2.505   2.207  2.6499  2.4782 -0.9299
  161MOL0     H21195   8.404   2.723   2.374  0.4901  0.1449 -0.3853
  161MOL0     H21196   8.465   2.746   2.220 -0.7464  0.9702  0.7749
  161MOL0     H21197   8.244   2.564   2.337  0.3324  3.7282  1.4959
  161MOL0     H21198   8.296   2.538   2.170 -0.5307  0.2220 -0.5478
  161MOL0     H21199   8.172   2.784   2.279 -1.2276 -1.5615  0.9133
  161MOL0     H21200   8.085   2.668   2.178  0.6105 -1.8951  0.3129
  161MOL0     H21201   8.123   2.847   2.050 -0.3756 -0.6679 -1.9243
  161MOL0     H21202   8.300   2.861   2.103  1.1794 -0.4806 -0.2337
  161MOL0     H21203   8.380   2.671   1.984 -1.2955 -1.6320  2.8183
  161MOL0     H21204   8.313   2.791   1.882  1.4631 -0.1406  0.3281
  161MOL0     H21205   8.127   2.704   1.725  2.2079 -0.3959 -2.6970
  161MOL0     H21206   7.918   2.618   1.641  1.2145 -0.6194 -1.2159
  161MOL0     H21207   7.822   2.522   1.763  0.2258  0.2021  0.3673
  161MOL0     H21208   7.922   2.316   1.681  3.5073 -0.1497  1.5005
  161MOL0     H21209   8.052   2.407   1.597 -0.0937  1.9177 -0.3203
  161MOL0     H21210   7.771   2.423   1.519 -0.3947  1.2258 -1.4462
  161MOL0     H21211   7.913   2.464   1.423  0.6106  2.1898  3.0583
  161MOL0     H21212   7.840   2.185   1.519 -2.0902  1.7709  0.9125
  161MOL0     H21213   7.934   2.220   1.384  0.3035 -1.2165 -0.6873
  161MOL0     H21214   7.491   2.251   1.257  1.4143 -1.0340  0.4517
  161MOL0     H21215   7.438   2.301   1.037  0.6057 -0.0069 -2.9533
  161MOL0     H21216   7.482   2.589   0.627 -0.0248 -0.8429  0.8337
  161MOL0     H21217   7.378   2.583   0.394  2.1030  1.3091 -0.0983
  161MOL0     H21218   7.370   2.538   0.166  1.0044  0.0177  1.2845
  161MOL0     H21219   7.208   2.519   0.244  0.7996  1.4838 -0.8166
  161MOL0     H21220   7.342   2.381   0.006 -2.0576  1.3232 -4.7813
  161MOL0     H21221   7.223   2.505  -0.013  0.0431 -0.0395 -1.3047
  161MOL0     H21222   7.058   2.366   0.088  1.7957  3.5993  0.3541
  161MOL0     H21223   7.175   2.230   0.118  1.7057  2.0045  0.6998
  161MOL0     H21224   7.066   2.324  -0.149 -1.3833 -0.0537  1.2769
  161MOL0     H21225   7.231   2.249  -0.135  0.3017  1.5575  0.3982
  161MOL0     H21226   7.126   2.049  -0.003 -3.7046 -0.4450  0.9414
  161MOL0     H21227   7.085   2.053  -0.181  1.0918  0.0645  0.1223
  161MOL0     H21228   6.883   2.195  -0.102 -2.1560 -0.5824 -0.5583
  161MOL0     H21229   6.924   2.136   0.059 -2.3936  1.5217  0.1258
  161MOL0     H21230   6.839   1.967  -0.175  0.3289  1.8115  0.2020
  161MOL0     H21231   6.893   1.907  -0.008  0.4962  0.0049  1.1547
  161MOL0     H21232   6.630   1.949  -0.077  0.7264  0.0252  0.0308
  161MOL0     H21233   6.668   2.109  -0.039  1.0509  0.7026  1.6210
  161MOL0     H21234   7.348   2.155   0.426  0.5602 -0.0813 -0.6318
  161MOL0     H21235   7.385   2.189   0.686  3.2748  0.2454  1.4421
  161MOL0     H21236   7.865   2.382   0.957  2.2363 -1.6566  2.0350
  161MOL0     H21237   7.905   2.355   1.196  2.0023 -0.3569 -3.7391
  161MOL0     H21238   9.062   2.605   2.675  3.7192 -0.7155  1.8585
  161MOL0     H21239   9.245   2.450   2.702  0.5190  4.6461 -0.2277
  161MOL0     H21240   9.701   2.376   2.587 -2.0387  0.3559  1.8028
  161MOL0     H21241   9.889   2.231   2.644 -1.8885  3.6806 -0.0371
  161MOL0     H21242   9.948   1.971   2.900  0.2663 -1.6471 -0.2883
  161MOL0     H21243  10.005   2.084   2.771  1.8056 -0.9124 -1.8197
  161MOL0     H21244  10.056   1.792   2.785  0.7973 -0.1228 -1.1143
  161MOL0     H21245  10.139   1.895   2.673  0.9858 -2.9795  0.5379
  161MOL0     H21246  10.153   1.946   2.968 -2.3774  0.3640 -1.2910
  161MOL0     H21247  10.248   2.023   2.831  0.5624 -1.9323 -2.2279
  161MOL0     H21248  10.269   1.728   2.928 -1.2372 -0.5857 -2.3703
  161MOL0     H21249  10.343   1.784   2.790  3.5510 -0.9926  2.8956
  161MOL0     H21250  10.605   1.889   3.106 -1.0749 -1.0632  2.2163
  161MOL0     H21251   9.613   1.904   2.677  1.1107 -1.2046 -1.2000
  161MOL0     H21252   9.432   2.058   2.569 -1.3126  2.7642  1.0951
  162MOL0     O21253   8.230   5.728   7.543 -0.2743  0.6265 -0.0265
  162MOL0     C21254   8.291   5.698   7.647  0.5311  0.9257  0.3681
  162MOL0     O21255   8.236   5.622   7.755  0.8378  0.4129 -0.3702
  162MOL0     C21256   8.101   5.621   7.773  0.0740  0.3418  0.4323
  162MOL0     C21257   8.045   5.498   7.810 -0.8434  0.0263 -0.0466
  162MOL0     C21258   7.915   5.485   7.853 -0.0804 -0.7784 -0.0516
  162MOL0     C21259   7.836   5.598   7.862 -0.1417 -0.6078 -0.4435
  162MOL0     O21260   7.712   5.589   7.921  0.7778 -0.2294 -0.3172
  162MOL0     C21261   7.616   5.692   7.897  0.0961 -0.5699  0.5199
  162MOL0     C21262   7.467   5.646   7.922 -0.8937  0.5115 -0.1874
  162MOL0     C21263   7.376   5.763   7.953 -0.6677  0.4734  0.2227
  162MOL0     C21264   7.258   5.707   8.028 -0.6895 -0.8582  0.0088
  162MOL0     C21265   7.175   5.825   8.071  0.4930 -0.7821  0.6784
  162MOL0     C21266   7.051   5.772   8.139  0.4551  0.4416 -0.1293
  162MOL0     C21267   6.961   5.883   8.199 -0.2355  1.2525  0.0198
  162MOL0     C21268   6.853   5.931   8.102  0.1500 -0.3511  0.1657
  162MOL0     N21269   6.722   5.951   8.176 -0.6512  0.1014 -0.2267
  162MOL0     C21270   6.684   6.075   8.221 -0.2756 -0.3875  0.4184
  162MOL0     C21271   6.570   6.051   8.286 -0.1303 -0.1641 -0.1651
  162MOL0     C21272   6.499   6.158   8.355 -0.9225 -0.9074  0.4971
  162MOL0     C21273   6.348   6.138   8.364 -0.4020  0.3997  0.1971
  162MOL0     C21274   6.265   6.250   8.431  0.0643  0.1555  0.0627
  162MOL0     C21275   6.113   6.229   8.448  0.3165 -0.0136  0.8497
  162MOL0     O21276   6.059   6.342   8.521 -0.9534  0.6087 -0.0980
  162MOL0     C21277   5.931   6.338   8.566 -0.0673  0.2869  0.9268
  162MOL0     C21278   5.885   6.436   8.647 -0.2674  0.9810 -0.4237
  162MOL0     C21279   5.761   6.432   8.703 -0.1923 -1.1050  0.0308
  162MOL0     C21280   5.667   6.336   8.668  0.4739  1.0177 -0.1620
  162MOL0     C21281   5.525   6.352   8.713  0.2284  0.7752 -0.4886
  162MOL0     O21282   5.489   6.475   8.749 -0.5165  0.0201 -0.1295
  162MOL0     C21283   5.367   6.508   8.812 -1.1106 -0.1835 -0.4276
  162MOL0     C21284   5.269   6.422   8.857  0.6307  0.6617  0.0476
  162MOL0     C21285   5.161   6.459   8.922 -0.1542 -0.3057 -0.2588
  162MOL0     C21286   5.140   6.595   8.960 -0.7675 -0.0143 -0.3656
  162MOL0     O21287   5.025   6.617   9.029  0.6066  0.5002 -0.2387
  162MOL0     C21288   5.000   6.754   9.067  0.9740  0.3228 -0.1425
  162MOL0     C21289   4.847   6.755   9.106  0.3654  0.4958 -0.1559
  162MOL0     C21290   4.793   6.887   9.163 -0.4874 -0.1195 -0.4585
  162MOL0     C21291   4.634   6.874   9.160 -0.5843 -0.6002 -0.1662
  162MOL0     C21292   4.564   6.989   9.229  1.2923 -0.8171  0.6328
  162MOL0     C21293   4.579   7.128   9.165 -0.7223 -0.4778 -0.5816
  162MOL0     C21294   4.519   7.236   9.258 -0.4792 -0.2742 -0.3908
  162MOL0     C21295   4.505   7.376   9.208  0.0832 -0.8894  0.0888
  162MOL0    Cl21296   4.362   7.411   9.105 -0.2656 -0.1730  0.1472
  162MOL0     C21297   5.237   6.685   8.921  0.0621  0.6256  0.1975
  162MOL0     C21298   5.347   6.644   8.842  0.4295 -0.2825  1.1012
  162MOL0     O21299   5.450   6.252   8.704 -0.1539 -0.5939  0.0242
  162MOL0     C21300   5.708   6.231   8.582 -0.1045 -0.5813  0.0076
  162MOL0     C21301   5.838   6.235   8.532  0.9895 -0.4509  0.5792
  162MOL0     N21302   6.551   5.914   8.295  0.1716 -0.7392  0.1571
  162MOL0     N21303   6.638   5.856   8.223 -0.1125  0.6508  1.2588
  162MOL0     C21304   7.891   5.723   7.802  1.0166  0.3354  0.2858
  162MOL0     C21305   8.028   5.736   7.770  0.3676 -0.0632  0.3271
  162MOL0     C21306   8.436   5.732   7.655 -1.1002  0.0727  0.3017
  162MOL0     C21307   8.518   5.681   7.752  0.2957 -0.1454  0.5600
  162MOL0     C21308   8.653   5.723   7.761  0.3052  0.0199 -0.0237
  162MOL0     C21309   8.706   5.816   7.670  0.5932  0.2339  0.6014
  162MOL0     O21310   8.831   5.869   7.658 -0.3039  0.0751  0.1452
  162MOL0     C21311   8.907   5.865   7.781  1.0848  0.3390  0.8768
  162MOL0     C21312   9.026   5.958   7.775 -0.5192  0.1339  0.3294
  162MOL0     C21313   9.127   5.922   7.662 -0.1229  0.2843  1.1993
  162MOL0     C21314   9.270   5.962   7.707 -0.2901  0.6642  0.5500
  162MOL0     C21315   9.358   5.915   7.600  0.2302  0.0666  0.2759
  162MOL0     C21316   9.419   5.864   7.510 -0.1765  0.5310 -0.2399
  162MOL0     C21317   8.624   5.863   7.575 -0.7321 -0.1850 -0.0718
  162MOL0     C21318   8.485   5.830   7.570 -0.3138  0.2659 -0.2714
  162MOL0     H21319   8.115   5.415   7.815 -0.9041  0.0074  0.4683
  162MOL0     H21320   7.875   5.392   7.893 -1.4762  1.0080  3.0888
  162MOL0     H21321   7.623   5.731   7.795 -2.0792  1.2243  0.9907
  162MOL0     H21322   7.641   5.773   7.967  0.0939 -0.4132  0.3385
  162MOL0     H21323   7.459   5.582   8.011 -2.5639  4.5725  2.8904
  162MOL0     H21324   7.431   5.586   7.838 -0.0013  1.3508 -1.2073
  162MOL0     H21325   7.363   5.814   7.857  0.3770 -0.0868 -0.2389
  162MOL0     H21326   7.427   5.838   8.014  0.6268  1.0244 -1.4513
  162MOL0     H21327   7.204   5.638   7.962  1.7268 -3.0612  0.1695
  162MOL0     H21328   7.294   5.657   8.118  0.4953  0.8365  0.5245
  162MOL0     H21329   7.149   5.887   7.985  0.9783 -1.8538 -0.2667
  162MOL0     H21330   7.229   5.897   8.134  2.7251  0.1358 -2.0284
  162MOL0     H21331   7.081   5.701   8.217  1.1398  0.9465  0.0853
  162MOL0     H21332   6.997   5.706   8.072  3.3602 -1.0985 -1.1518
  162MOL0     H21333   6.908   5.833   8.281 -2.1844  2.7125 -0.2506
  162MOL0     H21334   7.013   5.965   8.250 -2.6831  2.1985  1.1422
  162MOL0     H21335   6.846   5.851   8.029  2.4876 -3.3985  2.9538
  162MOL0     H21336   6.877   6.024   8.049 -1.4499  0.4944  0.8427
  162MOL0     H21337   6.740   6.167   8.223 -0.4543 -0.2713  0.0467
  162MOL0     H21338   6.519   6.250   8.299  1.0744 -0.4286  1.8843
  162MOL0     H21339   6.542   6.175   8.454 -1.7330 -1.5271  0.9688
  162MOL0     H21340   6.319   6.049   8.420  0.7958 -0.0598  0.1105
  162MOL0     H21341   6.313   6.126   8.261 -0.4088  0.2135  0.2208
  162MOL0     H21342   6.303   6.250   8.533  0.5502  4.0692  0.0088
  162MOL0     H21343   6.276   6.350   8.389 -1.6733  0.8422  1.1390
  162MOL0     H21344   6.093   6.139   8.507 -2.6930  1.2647  2.0095
  162MOL0     H21345   6.054   6.219   8.356  0.0939 -2.9750  1.2176
  162MOL0     H21346   5.955   6.517   8.668 -0.5809  0.7995  1.5517
  162MOL0     H21347   5.731   6.513   8.769 -1.7840 -0.9494 -0.8257
  162MOL0     H21348   5.283   6.315   8.844  3.6227  0.9827 -0.0331
  162MOL0     H21349   5.103   6.374   8.957 -0.4047  0.3698  1.0083
  162MOL0     H21350   5.012   6.827   8.986 -0.5519  0.6811 -0.0897
  162MOL0     H21351   5.068   6.783   9.147  0.3378 -2.6471  1.6294
  162MOL0     H21352   4.823   6.680   9.182 -0.0098 -0.3253 -1.0604
  162MOL0     H21353   4.786   6.726   9.020  0.0509 -1.3900  0.6531
  162MOL0     H21354   4.830   6.964   9.095  4.1010 -0.5389  1.2141
  162MOL0     H21355   4.838   6.910   9.260  0.4640  1.3432 -1.2161
  162MOL0     H21356   4.594   6.859   9.059 -1.1557 -2.8935  0.3244
  162MOL0     H21357   4.608   6.779   9.209 -0.1161 -0.7496 -0.1928
  162MOL0     H21358   4.614   6.990   9.326  1.0309 -2.6423  0.8234
  162MOL0     H21359   4.457   6.971   9.244  1.3469 -2.0603 -0.3098
  162MOL0     H21360   4.535   7.124   9.065  0.3720 -5.0195 -1.0878
  162MOL0     H21361   4.686   7.145   9.154 -0.9783  0.8809 -1.1755
  162MOL0     H21362   4.420   7.202   9.287 -0.7817 -0.3177 -1.4384
  162MOL0     H21363   4.576   7.249   9.350 -0.3455  1.6688 -0.6907
  162MOL0     H21364   4.583   7.411   9.140 -1.7876  2.4039 -0.6066
  162MOL0     H21365   4.512   7.451   9.286  2.8475 -0.7574 -0.2001
  162MOL0     H21366   5.231   6.790   8.946  0.0281  0.8719 -0.8314
  162MOL0     H21367   5.420   6.709   8.796 -0.8519  0.3145 -0.1916
  162MOL0     H21368   5.651   6.149   8.540 -1.0172  1.7387 -3.8017
  162MOL0     H21369   5.868   6.160   8.461  4.7713 -0.5550  2.0645
  162MOL0     H21370   7.838   5.818   7.796  1.6821  0.6604 -0.7590
  162MOL0     H21371   8.076   5.832   7.756  1.1862 -0.4976  0.1188
  162MOL0     H21372   8.488   5.601   7.819 -2.9480 -0.1267 -0.6957
  162MOL0     H21373   8.711   5.668   7.834 -0.4151 -0.2573  0.3486
  162MOL0     H21374   8.933   5.759   7.793 -1.1922 -0.7707 -2.4980
  162MOL0     H21375   8.849   5.899   7.868  1.0958 -0.1561  1.0824
  162MOL0     H21376   8.984   6.058   7.763 -0.2867  0.1112 -0.7623
  162MOL0     H21377   9.082   5.956   7.869  2.6252  0.2158 -1.4146
  162MOL0     H21378   9.107   5.974   7.568  2.7278 -0.3622  0.1603
  162MOL0     H21379   9.127   5.816   7.639  1.1264  0.6984 -0.9599
  162MOL0     H21380   9.279   6.070   7.723  0.7591  0.8372 -0.9922
  162MOL0     H21381   9.295   5.918   7.804 -0.9935  0.4619  0.6486
  162MOL0     H21382   9.484   5.815   7.441  0.5301 -0.1783  0.9068
  162MOL0     H21383   8.668   5.938   7.510  2.3021 -0.2246  1.7793
  162MOL0     H21384   8.417   5.873   7.498  2.1860  3.1540 -1.0905
  163MOL0     O21385   8.298   2.888  10.114 -0.2017 -0.2912 -0.8246
  163MOL0     C21386   8.410   2.945  10.146  0.2171  0.7274 -0.9556
  163MOL0     O21387   8.533   2.891  10.137 -0.5336 -0.1935  0.3523
  163MOL0     C21388   8.569   2.769  10.095 -0.1420  0.3832  0.0343
  163MOL0     C21389   8.491   2.687  10.009 -1.2585  0.9030 -0.5637
  163MOL0     C21390   8.532   2.553   9.969 -0.1633 -0.1526 -0.8930
  163MOL0     C21391   8.651   2.501  10.013  0.0503 -0.2160  0.1707
  163MOL0     O21392   8.703   2.376   9.995 -0.1895  0.4985  0.1161
  163MOL0     C21393   8.623   2.273   9.932  0.4068  0.2206  0.6450
  163MOL0     C21394   8.510   2.211  10.019  0.0366 -0.6225  0.6931
  163MOL0     C21395   8.470   2.081   9.953 -0.1079 -0.1407  0.4701
  163MOL0     C21396   8.368   2.013  10.039  0.3643 -0.4768 -0.4612
  163MOL0     C21397   8.226   2.093  10.043  0.0470  0.4130  0.1201
  163MOL0     C21398   8.119   2.015  10.124 -0.7611 -0.4467 -0.1508
  163MOL0     C21399   8.000   2.086  10.185 -0.0520 -0.2976  0.1268
  163MOL0     C21400   7.908   1.996  10.271  0.2896  0.1831  0.0298
  163MOL0     N21401   7.775   2.050  10.288 -0.9389  0.0610  0.0707
  163MOL0     C21402   7.710   2.085  10.405 -0.1605 -0.4134 -0.0879
  163MOL0     C21403   7.584   2.125  10.376  0.3346  0.0886 -0.6046
  163MOL0     C21404   7.493   2.188  10.481  0.4235 -0.0070 -0.3892
  163MOL0     C21405   7.338   2.192  10.443  0.4716 -0.5604 -0.3897
  163MOL0     C21406   7.296   2.287  10.323 -0.7939  0.1870 -0.7665
  163MOL0     C21407   7.149   2.285  10.290  0.7360  0.1910 -0.8569
  163MOL0     O21408   7.068   2.299  10.410 -0.4384  0.3003  0.4020
  163MOL0     C21409   6.931   2.291  10.411 -0.2893 -0.8994  0.8915
  163MOL0     C21410   6.859   2.233  10.303 -0.3757 -0.0073  0.5442
  163MOL0     C21411   6.721   2.216  10.316 -0.2107  0.7677  0.3203
  163MOL0     C21412   6.644   2.258  10.426 -0.1813  0.2072 -0.1570
  163MOL0     C21413   6.494   2.243  10.427  1.0886 -0.0141 -0.2430
  163MOL0     O21414   6.431   2.261  10.553  0.5815  0.3328  0.4171
  163MOL0     C21415   6.291   2.248  10.576  0.6288  1.0632 -0.4773
  163MOL0     C21416   6.247   2.237  10.710 -0.2825 -0.5466  0.7117
  163MOL0     C21417   6.111   2.230  10.741 -0.4116 -0.9181  1.0303
  163MOL0     C21418   6.011   2.234  10.639 -0.4261 -0.4931  0.2807
  163MOL0     O21419   5.886   2.203  10.674  0.0568 -0.2064 -0.4806
  163MOL0     C21420   5.780   2.232  10.586  0.1169  1.0193  0.1561
  163MOL0     C21421   5.653   2.255  10.665 -1.1871 -0.8649  0.4189
  163MOL0     C21422   5.540   2.335  10.598  1.1063  0.1859  0.2625
  163MOL0     C21423   5.443   2.397  10.705 -0.2177  0.3306  0.2318
  163MOL0     C21424   5.336   2.488  10.651 -0.3927 -0.0051 -0.2456
  163MOL0     C21425   5.249   2.426  10.540  0.6512  0.2372  0.5027
  163MOL0     C21426   5.101   2.475  10.525  0.0695 -0.1567 -0.1264
  163MOL0     C21427   4.987   2.391  10.583 -0.9247  0.1568  0.4695
  163MOL0    Cl21428   4.994   2.408  10.755 -0.0080  0.1882 -0.1607
  163MOL0     C21429   6.065   2.234  10.503  1.1542  0.2449 -0.0643
  163MOL0     C21430   6.194   2.248  10.472 -0.0106 -0.9638  0.0165
  163MOL0     O21431   6.441   2.204  10.321 -0.0725 -1.0304  0.5113
  163MOL0     C21432   6.724   2.321  10.533  0.7352  0.3714 -0.3221
  163MOL0     C21433   6.861   2.340  10.520  0.1370 -0.4999  0.4538
  163MOL0     N21434   7.567   2.102  10.241  0.2494  0.1341 -0.5468
  163MOL0     N21435   7.676   2.058  10.193  0.7540  0.0382 -0.1528
  163MOL0     C21436   8.739   2.591  10.074  0.0140 -0.0195 -0.7248
  163MOL0     C21437   8.697   2.724  10.114  0.0157  0.2720 -0.2660
  163MOL0     C21438   8.411   3.072  10.215 -0.0615  0.0546  0.0822
  163MOL0     C21439   8.527   3.136  10.255  0.4525 -0.8196  0.3906
  163MOL0     C21440   8.527   3.248  10.334  0.3924  0.4092  1.0676
  163MOL0     C21441   8.406   3.308  10.360 -0.1804  0.4107 -0.8349
  163MOL0     O21442   8.425   3.414  10.460  0.4081  0.7467 -0.0162
  163MOL0     C21443   8.319   3.430  10.557  0.5633  0.0427 -0.3997
  163MOL0     C21444   8.379   3.453  10.696 -0.2966  0.8484  0.4868
  163MOL0     C21445   8.476   3.566  10.689 -0.1584 -0.3605  0.3580
  163MOL0     C21446   8.538   3.602  10.826  0.1901 -0.3615 -0.0297
  163MOL0     C21447   8.679   3.650  10.817  1.1954 -0.5586 -0.4369
  163MOL0     C21448   8.795   3.675  10.810 -0.0522 -0.4459  0.2737
  163MOL0     C21449   8.288   3.257  10.309 -0.1741 -0.4203  0.7385
  163MOL0     C21450   8.289   3.136  10.234 -0.5563 -0.6877  0.2405
  163MOL0     H21451   8.399   2.720   9.962 -1.6799 -0.2269 -0.5754
  163MOL0     H21452   8.459   2.509   9.902 -0.7883 -0.4540 -0.0365
  163MOL0     H21453   8.697   2.194   9.916  1.7502  1.1118  2.1768
  163MOL0     H21454   8.582   2.299   9.834 -0.8800 -2.3452  0.4092
  163MOL0     H21455   8.420   2.273  10.023 -1.1959 -2.3468  0.8122
  163MOL0     H21456   8.541   2.204  10.123 -0.7527  0.6990  1.0372
  163MOL0     H21457   8.560   2.021   9.941  0.5141  0.6020  1.2829
  163MOL0     H21458   8.430   2.097   9.853 -0.6143 -1.3527  0.4608
  163MOL0     H21459   8.341   1.916   9.996  3.6537 -0.3638 -3.1785
  163MOL0     H21460   8.401   1.983  10.139  1.2355 -3.0882 -1.4582
  163MOL0     H21461   8.196   2.126   9.943  0.7599  1.6951  0.3021
  163MOL0     H21462   8.241   2.191  10.091  0.0712  1.6279 -2.2189
  163MOL0     H21463   8.170   1.966  10.208 -1.5693 -1.3234 -0.1578
  163MOL0     H21464   8.084   1.942  10.051 -2.9194  1.0713 -0.6934
  163MOL0     H21465   8.037   2.178  10.233 -1.1751  0.4529 -0.4021
  163MOL0     H21466   7.942   2.125  10.101 -0.9503 -1.0144  0.3986
  163MOL0     H21467   7.954   1.973  10.368  2.5305 -0.9140 -1.2095
  163MOL0     H21468   7.898   1.897  10.225  1.3436  0.8630 -1.7711
  163MOL0     H21469   7.754   2.097  10.504 -0.1449 -0.0550 -0.1390
  163MOL0     H21470   7.519   2.287  10.520  0.5695 -0.6327  1.1704
  163MOL0     H21471   7.494   2.120  10.567 -4.1638  2.4621  1.9946
  163MOL0     H21472   7.282   2.209  10.535  0.3298 -3.1024  0.0520
  163MOL0     H21473   7.314   2.088  10.419 -0.0881 -0.7697  0.9727
  163MOL0     H21474   7.323   2.388  10.354 -0.1057  0.5480 -2.4356
  163MOL0     H21475   7.351   2.266  10.231  0.8858 -2.2209  0.6702
  163MOL0     H21476   7.111   2.194  10.241 -2.8412  0.5092  1.0382
  163MOL0     H21477   7.139   2.373  10.225  1.2134 -0.4585 -1.8472
  163MOL0     H21478   6.899   2.203  10.207 -1.2889 -0.5328  0.3162
  163MOL0     H21479   6.678   2.163  10.232  1.9430 -0.6443  0.0418
  163MOL0     H21480   6.313   2.241  10.796 -0.8530 -0.7851  1.1693
  163MOL0     H21481   6.072   2.225  10.842 -1.4901 -0.6968  0.6362
  163MOL0     H21482   5.756   2.158  10.509 -2.1960  2.7827 -0.9749
  163MOL0     H21483   5.809   2.321  10.530  0.7633 -0.1166 -1.3731
  163MOL0     H21484   5.667   2.302  10.763  1.4128  0.3866 -0.4845
  163MOL0     H21485   5.613   2.156  10.691 -1.0950 -0.6802  1.3050
  163MOL0     H21486   5.498   2.258  10.532  0.6799 -0.0386  0.7824
  163MOL0     H21487   5.587   2.418  10.545 -0.4256  1.6912  1.1665
  163MOL0     H21488   5.387   2.321  10.760  0.5895 -0.4972 -0.0735
  163MOL0     H21489   5.506   2.459  10.770 -1.0316  1.7716 -0.2904
  163MOL0     H21490   5.379   2.582  10.615 -0.5173  0.6508  1.2233
  163MOL0     H21491   5.272   2.521  10.734  0.3386  0.7893  0.0189
  163MOL0     H21492   5.250   2.317  10.542 -2.0884  0.1435  0.9910
  163MOL0     H21493   5.297   2.455  10.446 -1.8967 -3.3562 -2.2416
  163MOL0     H21494   5.106   2.572  10.574  3.4860 -0.1255 -0.2748
  163MOL0     H21495   5.079   2.503  10.422 -0.4255  1.2014  0.3240
  163MOL0     H21496   5.004   2.289  10.546  1.0979  0.7832 -0.4834
  163MOL0     H21497   4.895   2.429  10.537 -0.8032 -2.4403 -2.2588
  163MOL0     H21498   6.004   2.223  10.413 -0.0188  0.0806  0.7169
  163MOL0     H21499   6.232   2.256  10.371  0.8916  0.3445  0.4236
  163MOL0     H21500   6.680   2.357  10.626 -1.0143 -0.0391 -0.9578
  163MOL0     H21501   6.921   2.379  10.602 -0.9289  1.6422  0.2976
  163MOL0     H21502   8.842   2.558  10.078  0.7228  1.8792 -1.9470
  163MOL0     H21503   8.763   2.791  10.167  0.8249 -0.7011 -0.0047
  163MOL0     H21504   8.621   3.086  10.233  0.1910 -0.4342 -1.7882
  163MOL0     H21505   8.620   3.280  10.379  1.6641 -2.0450  0.3396
  163MOL0     H21506   8.252   3.345  10.569 -0.2332  0.9030  1.6058
  163MOL0     H21507   8.257   3.515  10.529 -4.2394 -2.7479  0.5859
  163MOL0     H21508   8.299   3.473  10.768 -1.2374  0.8140 -0.5331
  163MOL0     H21509   8.434   3.364  10.728 -1.1799  0.0377 -0.2383
  163MOL0     H21510   8.427   3.655  10.649 -1.0499 -1.0540 -0.1266
  163MOL0     H21511   8.553   3.547  10.614  2.0092  0.1928  2.3193
  163MOL0     H21512   8.478   3.681  10.873  2.0860  0.9901  0.2000
  163MOL0     H21513   8.545   3.509  10.884  0.8110 -1.1855 -1.3743
  163MOL0     H21514   8.900   3.694  10.812 -0.7084  4.2949  0.0105
  163MOL0     H21515   8.192   3.307  10.319 -0.4963 -0.8464 -0.0749
  163MOL0     H21516   8.203   3.089  10.186 -1.7488  1.9757 -0.4011
  164MOL0     O21517   5.943   9.599  10.817 -0.7437 -0.2215  0.8156
  164MOL0     C21518   5.971   9.713  10.856 -0.0346  0.0502  0.2754
  164MOL0     O21519   5.898   9.834  10.832  0.4703  0.8216 -0.0542
  164MOL0     C21520   5.793   9.792  10.750 -0.5474 -0.4398  0.6489
  164MOL0     C21521   5.798   9.820  10.609 -0.4758  0.3780  0.6080
  164MOL0     C21522   5.685   9.787  10.524  0.2006 -0.6323  0.4701
  164MOL0     C21523   5.569   9.722  10.588 -0.4040 -0.4584 -0.4612
  164MOL0     O21524   5.462   9.702  10.511 -0.1329  0.5155  0.6040
  164MOL0     C21525   5.488   9.615  10.396 -0.5241 -1.1098  0.8882
  164MOL0     C21526   5.356   9.579  10.330 -1.3441 -0.4998  0.1039
  164MOL0     C21527   5.368   9.494  10.209  0.0277 -0.3354 -0.7667
  164MOL0     C21528   5.428   9.574  10.089  0.4764  0.8782 -0.7707
  164MOL0     C21529   5.425   9.493   9.963 -0.6717  0.1322  0.3230
  164MOL0     C21530   5.287   9.433   9.921  0.6515 -0.8930  0.0905
  164MOL0     C21531   5.210   9.538   9.845 -0.0400  0.4443  0.3554
  164MOL0     C21532   5.076   9.473   9.791  0.4042  0.4352 -0.1192
  164MOL0     N21533   5.097   9.381   9.670  0.4732 -0.3130 -0.1206
  164MOL0     C21534   5.066   9.426   9.538 -1.1872  0.5673 -0.4592
  164MOL0     C21535   5.052   9.306   9.474 -0.0767 -0.7981  0.0631
  164MOL0     C21536   5.055   9.290   9.327 -1.0163 -0.6404  0.1848
  164MOL0     C21537   4.928   9.240   9.273 -0.3531  0.1371  0.7259
  164MOL0     C21538   4.955   9.217   9.115  0.7149 -0.9189 -0.2797
  164MOL0     C21539   4.829   9.154   9.051  0.1262  0.0471  0.4773
  164MOL0     O21540   4.717   9.174   9.133  0.1616  0.0428 -0.1875
  164MOL0     C21541   4.612   9.080   9.151  1.1929 -0.3683  0.0844
  164MOL0     C21542   4.590   8.954   9.083  0.1017  0.5572  0.5195
  164MOL0     C21543   4.471   8.879   9.127  0.0338  0.5789  0.0526
  164MOL0     C21544   4.378   8.918   9.229  0.6929  0.2939 -0.2079
  164MOL0     C21545   4.273   8.818   9.281 -0.2069 -0.5764  0.1516
  164MOL0     O21546   4.199   8.855   9.387 -0.3407  0.0510 -0.5312
  164MOL0     C21547   4.109   8.763   9.450 -0.6019 -0.4105  0.0887
  164MOL0     C21548   4.151   8.639   9.500 -0.1234  0.5699 -0.6214
  164MOL0     C21549   4.076   8.556   9.581  0.4253  0.0939 -0.6619
  164MOL0     C21550   3.937   8.595   9.598  0.6214 -1.2096 -0.2588
  164MOL0     O21551   3.837   8.513   9.650 -0.0228 -0.4615  1.0913
  164MOL0     C21552   3.866   8.373   9.691 -0.5689  0.2966  0.1541
  164MOL0     C21553   3.745   8.280   9.663 -0.5533 -0.4927 -0.3285
  164MOL0     C21554   3.696   8.309   9.523  0.3876  0.3302 -0.0747
  164MOL0     C21555   3.547   8.254   9.518 -0.9626 -0.0330  0.7185
  164MOL0     C21556   3.495   8.280   9.376  0.4532  0.4111 -0.3600
  164MOL0     C21557   3.448   8.417   9.344  0.5495 -0.3237  0.2256
  164MOL0     C21558   3.327   8.478   9.427 -0.6933  0.3861  0.4890
  164MOL0     C21559   3.194   8.392   9.432 -0.0142  0.4764 -0.5681
  164MOL0    Cl21560   3.040   8.483   9.483 -0.6328  0.0494  0.0728
  164MOL0     C21561   3.894   8.721   9.554  0.5280 -0.4605  0.6059
  164MOL0     C21562   3.982   8.811   9.483  0.0945 -0.1064  0.5325
  164MOL0     O21563   4.246   8.724   9.208 -0.4329 -0.1903  0.0108
  164MOL0     C21564   4.401   9.042   9.287 -0.6191  0.6413  0.6536
  164MOL0     C21565   4.515   9.128   9.237  0.1279  0.4830  0.6698
  164MOL0     N21566   5.075   9.198   9.565 -0.4092 -0.2863 -0.1553
  164MOL0     N21567   5.094   9.246   9.683  0.3013  1.2604 -0.6121
  164MOL0     C21568   5.563   9.714  10.729  0.8138 -0.2156 -0.0373
  164MOL0     C21569   5.675   9.745  10.808  0.9134  0.4737 -0.4232
  164MOL0     C21570   6.098   9.718  10.933  0.5111 -0.1354  0.4581
  164MOL0     C21571   6.150   9.848  10.970 -0.0050  0.9253  0.0122
  164MOL0     C21572   6.277   9.855  11.022  0.6694 -0.4428  0.3141
  164MOL0     C21573   6.358   9.733  11.044  0.2313  1.2456 -0.7658
  164MOL0     O21574   6.491   9.751  11.093  0.7431  0.4030  0.2379
  164MOL0     C21575   6.593   9.667  11.046  0.0361 -0.1360  0.0680
  164MOL0     C21576   6.723   9.749  11.057  0.0113 -0.1822 -0.4326
  164MOL0     C21577   6.844   9.668  11.020 -0.0216  0.2733  0.2132
  164MOL0     C21578   6.916   9.724  10.893  0.6500 -0.4475 -0.0028
  164MOL0     C21579   6.983   9.846  10.933 -1.2434 -0.0257 -0.2729
  164MOL0     C21580   7.043   9.946  10.971 -0.3607 -0.2957  0.8270
  164MOL0     C21581   6.297   9.607  11.019  0.2986  0.1893  0.9022
  164MOL0     C21582   6.175   9.605  10.964  0.0348  0.2617  0.1459
  164MOL0     H21583   5.888   9.852  10.557  0.2581 -1.2323  0.8208
  164MOL0     H21584   5.678   9.815  10.419  0.4298 -1.2328  0.2928
  164MOL0     H21585   5.550   9.529  10.425 -2.3108 -1.9618  2.4231
  164MOL0     H21586   5.542   9.664  10.314  1.9456 -5.1688 -0.2238
  164MOL0     H21587   5.302   9.671  10.305 -0.1517 -0.1695 -1.3362
  164MOL0     H21588   5.309   9.535  10.418 -3.9536 -0.4076 -1.1616
  164MOL0     H21589   5.263   9.469  10.192 -1.1181 -1.0362  5.2923
  164MOL0     H21590   5.412   9.395  10.222 -0.7871 -0.8143 -1.5381
  164MOL0     H21591   5.364   9.663  10.084 -0.1862  0.4259 -0.5390
  164MOL0     H21592   5.525   9.607  10.126  0.4805 -0.2513  0.2745
  164MOL0     H21593   5.501   9.415   9.952 -2.7598 -1.6740 -3.1533
  164MOL0     H21594   5.465   9.555   9.883  0.9582 -1.7250 -0.3837
  164MOL0     H21595   5.226   9.377   9.992  0.4573  0.3509  0.9357
  164MOL0     H21596   5.312   9.358   9.845  2.1832  2.0740 -2.5625
  164MOL0     H21597   5.187   9.612   9.921  1.5783  0.9255  0.4150
  164MOL0     H21598   5.280   9.581   9.772  1.1533  1.7521  2.1837
  164MOL0     H21599   5.017   9.559   9.757  3.5021  2.3914 -0.9634
  164MOL0     H21600   5.030   9.422   9.876  1.5026  0.7539  0.6854
  164MOL0     H21601   5.068   9.529   9.503  2.9247  0.9024  0.2652
  164MOL0     H21602   5.123   9.210   9.298 -2.4131 -1.7104 -0.2542
  164MOL0     H21603   5.089   9.374   9.266 -0.5789 -1.9809 -1.4972
  164MOL0     H21604   4.848   9.315   9.273 -0.7959 -0.1951 -2.1123
  164MOL0     H21605   4.895   9.153   9.330 -2.2789  0.4182  0.1252
  164MOL0     H21606   4.968   9.318   9.074 -0.0550 -0.2325  1.1105
  164MOL0     H21607   5.040   9.154   9.090 -0.6066 -1.8160 -2.9306
  164MOL0     H21608   4.845   9.046   9.057  0.8733  0.0017 -1.5522
  164MOL0     H21609   4.813   9.182   8.947  2.0226  1.4709  0.5049
  164MOL0     H21610   4.676   8.921   9.027 -0.8248 -1.4976  0.2118
  164MOL0     H21611   4.462   8.781   9.084 -0.2299  0.3049  0.7101
  164MOL0     H21612   4.244   8.592   9.469  0.3840 -1.4719  3.3985
  164MOL0     H21613   4.106   8.465   9.633 -0.5770 -0.5986 -1.2529
  164MOL0     H21614   3.893   8.381   9.797 -0.4647 -1.7499  0.3092
  164MOL0     H21615   3.948   8.333   9.631 -0.6988  1.0858 -0.5763
  164MOL0     H21616   3.670   8.300   9.740 -0.8615 -0.1196 -0.7216
  164MOL0     H21617   3.782   8.177   9.673  0.4395  0.0680  2.7641
  164MOL0     H21618   3.762   8.264   9.448  1.7645 -1.4349  2.0753
  164MOL0     H21619   3.678   8.416   9.505 -0.5346  0.2121  0.0875
  164MOL0     H21620   3.551   8.146   9.536  0.0175  0.4207  3.7606
  164MOL0     H21621   3.491   8.294   9.602  0.6509  1.0646  1.3221
  164MOL0     H21622   3.416   8.207   9.356  1.3342 -0.4833 -0.5878
  164MOL0     H21623   3.568   8.252   9.300  0.7859 -0.9539  0.4390
  164MOL0     H21624   3.411   8.419   9.240 -0.1636  1.0627  0.4863
  164MOL0     H21625   3.532   8.486   9.338  1.7179 -1.7268 -0.1569
  164MOL0     H21626   3.360   8.481   9.532  0.3946  0.4402  0.1562
  164MOL0     H21627   3.307   8.582   9.400 -3.0322  0.4853  2.2126
  164MOL0     H21628   3.204   8.302   9.493  1.7469  1.1865  0.2553
  164MOL0     H21629   3.168   8.353   9.333  0.5456 -2.4896  0.3533
  164MOL0     H21630   3.789   8.750   9.560 -0.8215 -4.5740  0.1426
  164MOL0     H21631   3.958   8.910   9.446  1.7408 -0.2867 -1.1393
  164MOL0     H21632   4.334   9.090   9.357 -0.7617  1.7059 -0.1852
  164MOL0     H21633   4.529   9.231   9.268  0.4998  1.6179 -2.9255
  164MOL0     H21634   5.467   9.681  10.767 -1.0032 -1.0817 -4.6717
  164MOL0     H21635   5.663   9.733  10.916 -0.6769 -0.4951 -0.6677
  164MOL0     H21636   6.090   9.938  10.970 -0.2566  0.7598 -0.1236
  164MOL0     H21637   6.317   9.947  11.062  0.6345  0.8701 -2.4479
  164MOL0     H21638   6.576   9.637  10.942 -2.0455  1.7576 -0.2206
  164MOL0     H21639   6.601   9.577  11.107  0.8787 -0.3878 -0.3957
  164MOL0     H21640   6.702   9.833  10.990 -3.7733 -0.3201  0.3615
  164MOL0     H21641   6.736   9.786  11.159 -0.2684  2.2997 -1.2345
  164MOL0     H21642   6.816   9.563  11.009  4.9033 -2.1518  5.6872
  164MOL0     H21643   6.908   9.663  11.108 -1.5635  0.7722  1.3904
  164MOL0     H21644   6.988   9.655  10.847  0.9210  0.2223 -0.6047
  164MOL0     H21645   6.851   9.772  10.820  0.2435 -0.8024  0.1254
  164MOL0     H21646   7.081  10.032  11.023  0.5084 -0.5951  0.6940
  164MOL0     H21647   6.347   9.513  11.042 -1.3185 -0.5304  1.6142
  164MOL0     H21648   6.141   9.510  10.926 -1.3097  1.6362 -2.3968
  165MOL0     O21649   6.261   6.591   9.462 -0.0374 -0.5380  0.1782
  165MOL0     C21650   6.238   6.475   9.452 -0.1974  0.2037  0.8584
  165MOL0     O21651   6.327   6.376   9.428  0.0423  0.3925  0.7795
  165MOL0     C21652   6.451   6.411   9.384  0.3087  0.3001 -0.9378
  165MOL0     C21653   6.525   6.317   9.306  0.5191 -0.1209  0.5736
  165MOL0     C21654   6.660   6.337   9.264  0.3415  0.2600 -0.2336
  165MOL0     C21655   6.728   6.446   9.320  0.4111 -0.4550  0.6313
  165MOL0     O21656   6.860   6.483   9.293  0.3475  0.7743 -0.0534
  165MOL0     C21657   6.946   6.374   9.246 -0.4718  0.7065  0.0948
  165MOL0     C21658   7.090   6.429   9.226  0.4426  0.6921 -0.3430
  165MOL0     C21659   7.102   6.470   9.072  0.0258 -0.1990  1.1244
  165MOL0     C21660   7.253   6.485   9.026  0.7698  0.3046 -0.3203
  165MOL0     C21661   7.272   6.501   8.873  0.3896  0.5436 -1.0719
  165MOL0     C21662   7.408   6.549   8.824  0.1055 -0.2347 -0.1937
  165MOL0     C21663   7.532   6.480   8.874  0.1582  1.1295  0.1477
  165MOL0     C21664   7.540   6.335   8.826  0.0784 -0.2521 -0.0047
  165MOL0     N21665   7.665   6.271   8.856 -0.4479 -0.4535 -0.1662
  165MOL0     C21666   7.760   6.240   8.762  0.4757  0.1336  0.5568
  165MOL0     C21667   7.849   6.164   8.833 -0.0774 -0.6931  0.0059
  165MOL0     C21668   7.954   6.083   8.766 -0.2591 -0.3817  0.0443
  165MOL0     C21669   8.030   6.014   8.872 -0.7252 -0.3200 -0.2230
  165MOL0     C21670   8.147   5.930   8.812 -0.2531 -0.2253 -0.3289
  165MOL0     C21671   8.214   5.830   8.907 -0.3024  0.0392 -1.0547
  165MOL0     O21672   8.312   5.746   8.841  0.3485  0.7000 -0.2598
  165MOL0     C21673   8.424   5.802   8.794 -0.3088  0.5346 -0.6008
  165MOL0     C21674   8.503   5.716   8.715  0.4515  0.6106  0.2733
  165MOL0     C21675   8.623   5.771   8.671 -0.6137  0.3831  0.0072
  165MOL0     C21676   8.670   5.901   8.701 -0.0352  0.3541  0.2189
  165MOL0     C21677   8.813   5.945   8.681  0.5513 -0.5018 -0.4358
  165MOL0     O21678   8.843   6.084   8.692  0.2818 -0.4345  0.3033
  165MOL0     C21679   8.981   6.120   8.690  0.0193  0.5048  0.3818
  165MOL0     C21680   9.021   6.229   8.759  0.1459  0.1798 -0.7812
  165MOL0     C21681   9.156   6.269   8.754 -0.0434 -0.8420 -0.5433
  165MOL0     C21682   9.244   6.210   8.669 -0.1661  0.2247  0.1671
  165MOL0     O21683   9.373   6.252   8.657 -0.2881 -0.4027 -0.7465
  165MOL0     C21684   9.408   6.393   8.684  0.3364  0.3364  1.2920
  165MOL0     C21685   9.464   6.404   8.836 -0.5324  0.2656 -0.6150
  165MOL0     C21686   9.608   6.343   8.856  0.2408  0.1598 -0.6316
  165MOL0     C21687   9.718   6.434   8.820 -0.0072 -0.1473 -0.3507
  165MOL0     C21688   9.852   6.358   8.848  0.3786 -0.2129 -0.4629
  165MOL0     C21689   9.979   6.427   8.808  0.1538  0.0276  0.1007
  165MOL0     C21690  10.107   6.346   8.858  0.3362  0.3628  0.2266
  165MOL0     C21691  10.230   6.421   8.808 -0.3645  0.2360  0.0624
  165MOL0    Cl21692  10.363   6.338   8.873  0.0976 -0.5528 -0.1151
  165MOL0     C21693   9.210   6.101   8.593 -0.5674 -0.4242 -0.0817
  165MOL0     C21694   9.081   6.048   8.620  0.7701 -0.1168 -0.2637
  165MOL0     O21695   8.890   5.852   8.654  0.4648 -0.0118 -0.2874
  165MOL0     C21696   8.591   5.982   8.784  0.7584  0.2116  0.1370
  165MOL0     C21697   8.470   5.930   8.826  0.0455  0.6716 -0.7415
  165MOL0     N21698   7.806   6.159   8.966 -0.0624 -0.6648 -0.2885
  165MOL0     N21699   7.697   6.227   8.979  0.4585 -1.1796  0.7895
  165MOL0     C21700   6.660   6.540   9.392 -0.1700 -0.3581  1.2749
  165MOL0     C21701   6.523   6.521   9.426  0.8381 -0.2181 -0.1669
  165MOL0     C21702   6.099   6.424   9.471  0.0264 -0.8529 -0.1306
  165MOL0     C21703   5.988   6.508   9.491 -0.6673  0.2449 -0.3941
  165MOL0     C21704   5.858   6.461   9.509  0.6392 -0.6046 -0.7035
  165MOL0     C21705   5.839   6.321   9.516  0.2869 -0.3037  0.2128
  165MOL0     O21706   5.722   6.258   9.533  0.2703 -0.7943  0.5198
  165MOL0     C21707   5.593   6.330   9.534  0.3822 -0.5579 -0.4686
  165MOL0     C21708   5.476   6.231   9.533  0.3056 -0.4171  1.1411
  165MOL0     C21709   5.457   6.153   9.395  0.4264  0.7661  0.5161
  165MOL0     C21710   5.356   6.039   9.428 -0.4719 -0.7033 -0.0937
  165MOL0     C21711   5.231   6.099   9.477  0.5134  0.2836 -0.0884
  165MOL0     C21712   5.126   6.144   9.523  0.0547 -0.6523 -1.1591
  165MOL0     C21713   5.947   6.234   9.500 -0.4877 -0.2810 -0.1044
  165MOL0     C21714   6.070   6.284   9.470  0.2253 -0.8449 -0.3386
  165MOL0     H21715   6.473   6.227   9.272 -0.7058 -0.3549  2.8546
  165MOL0     H21716   6.708   6.264   9.199 -1.2370 -0.1707 -0.9809
  165MOL0     H21717   6.918   6.321   9.154 -0.9954 -1.3891  1.3817
  165MOL0     H21718   6.952   6.288   9.314  0.3960 -0.6004 -1.5714
  165MOL0     H21719   7.168   6.354   9.242  1.2366  1.5911  0.1062
  165MOL0     H21720   7.109   6.511   9.296  0.7732 -1.5594  2.3666
  165MOL0     H21721   7.050   6.563   9.046  2.3716  0.4659 -1.7529
  165MOL0     H21722   7.065   6.389   9.008  2.3419 -2.7052  2.7296
  165MOL0     H21723   7.293   6.574   9.074  1.5276 -1.2845  2.1251
  165MOL0     H21724   7.320   6.404   9.055  3.2102  2.5745  0.7680
  165MOL0     H21725   7.190   6.568   8.843 -0.6984  1.2042  2.7924
  165MOL0     H21726   7.253   6.405   8.825  1.0335  0.4173 -1.0716
  165MOL0     H21727   7.412   6.651   8.862  0.9200  0.7398 -2.7021
  165MOL0     H21728   7.410   6.542   8.715  1.6469 -0.8880 -0.1501
  165MOL0     H21729   7.615   6.532   8.825  0.4361 -0.4262 -1.1588
  165MOL0     H21730   7.535   6.496   8.982 -4.9938 -0.9884  0.8995
  165MOL0     H21731   7.536   6.328   8.717  0.4048 -0.2227 -0.0190
  165MOL0     H21732   7.455   6.276   8.863  0.1393 -2.0642 -2.4879
  165MOL0     H21733   7.764   6.272   8.658 -0.5943 -0.5150  0.2998
  165MOL0     H21734   8.026   6.143   8.709 -1.7668 -0.5426 -2.1177
  165MOL0     H21735   7.908   6.017   8.693  1.7966  0.5360 -2.2253
  165MOL0     H21736   7.955   5.957   8.927 -1.7630 -0.7702 -2.0221
  165MOL0     H21737   8.075   6.090   8.937 -0.5717 -1.6534  1.3201
  165MOL0     H21738   8.101   5.874   8.730 -3.1612 -0.6412  1.4555
  165MOL0     H21739   8.228   5.980   8.759  2.7766 -2.7070  1.5698
  165MOL0     H21740   8.132   5.769   8.948 -1.3480  1.8847 -0.3053
  165MOL0     H21741   8.257   5.885   8.991 -3.0572 -0.0171  0.5066
  165MOL0     H21742   8.471   5.615   8.693 -0.9815  1.4392 -1.6993
  165MOL0     H21743   8.687   5.710   8.608 -3.0215  1.2225 -3.5807
  165MOL0     H21744   8.950   6.290   8.814  2.3742  1.4022  0.8947
  165MOL0     H21745   9.197   6.356   8.804  0.1979 -1.9900  1.3471
  165MOL0     H21746   9.318   6.455   8.677  0.4434  0.4193  0.6189
  165MOL0     H21747   9.481   6.424   8.608 -1.1963  3.4908  0.9298
  165MOL0     H21748   9.401   6.348   8.906  1.2453 -0.2358  0.6802
  165MOL0     H21749   9.464   6.505   8.876 -0.9996 -0.4974  1.4425
  165MOL0     H21750   9.622   6.246   8.808 -0.0353 -0.2907  0.1780
  165MOL0     H21751   9.611   6.318   8.962 -3.7091  0.5628 -0.2403
  165MOL0     H21752   9.710   6.463   8.715 -4.2254 -1.9978 -0.7401
  165MOL0     H21753   9.724   6.520   8.888  0.4290 -2.3147  2.5279
  165MOL0     H21754   9.842   6.257   8.807  1.5342 -0.6844  0.3396
  165MOL0     H21755   9.870   6.328   8.952 -0.4304 -1.2958 -0.6202
  165MOL0     H21756   9.978   6.530   8.844  2.0750 -0.5630  2.0643
  165MOL0     H21757   9.992   6.429   8.699 -1.4572 -3.1517 -0.2509
  165MOL0     H21758  10.089   6.345   8.966 -1.6180 -1.0112 -0.0571
  165MOL0     H21759  10.117   6.246   8.815 -0.0533  1.6260 -3.0936
  165MOL0     H21760  10.219   6.525   8.839  3.0081  1.1115 -1.2200
  165MOL0     H21761  10.239   6.415   8.699 -0.0647  0.6812  0.0635
  165MOL0     H21762   9.285   6.054   8.529 -0.1562 -1.4195  1.0866
  165MOL0     H21763   9.062   5.956   8.566 -2.7607 -0.9000  1.9802
  165MOL0     H21764   8.630   6.076   8.820  1.7308 -0.9674  2.3594
  165MOL0     H21765   8.403   5.987   8.889 -0.1494 -0.4141  0.0608
  165MOL0     H21766   6.719   6.626   9.424 -0.9219 -0.1389  2.1220
  165MOL0     H21767   6.481   6.603   9.483  0.5494  0.3732 -1.2131
  165MOL0     H21768   6.017   6.613   9.495  0.5972 -0.0984  0.1294
  165MOL0     H21769   5.776   6.529   9.530 -1.5552 -3.2421 -0.3051
  165MOL0     H21770   5.579   6.402   9.452  1.7518 -0.9105 -1.0422
  165MOL0     H21771   5.585   6.380   9.631  0.2785 -1.2977 -0.0894
  165MOL0     H21772   5.483   6.166   9.620 -1.5375 -1.7546  0.3832
  165MOL0     H21773   5.383   6.287   9.547  0.0553  0.0688 -1.8430
  165MOL0     H21774   5.554   6.107   9.373 -0.1928 -0.7499  0.7972
  165MOL0     H21775   5.420   6.211   9.310 -2.4949 -2.2859 -0.5288
  165MOL0     H21776   5.334   5.975   9.342  1.8330 -0.7195 -0.7162
  165MOL0     H21777   5.410   5.976   9.499 -3.5773  0.9371  4.1549
  165MOL0     H21778   5.030   6.158   9.569  0.2730 -2.2315 -0.1586
  165MOL0     H21779   5.933   6.130   9.528  3.1531 -0.6046  0.9253
  165MOL0     H21780   6.152   6.213   9.470  2.0348  1.1025 -1.7642
  166MOL0     O21781   3.422   8.490  10.330  0.5866  0.1194 -0.0354
  166MOL0     C21782   3.347   8.512  10.426 -0.3749 -0.0776 -0.4176
  166MOL0     O21783   3.381   8.580  10.537  0.7483  0.2752  0.5259
  166MOL0     C21784   3.496   8.654  10.538  0.1429 -0.0355  0.0323
  166MOL0     C21785   3.597   8.645  10.635 -0.8869  1.4783  0.1632
  166MOL0     C21786   3.700   8.738  10.646 -0.4557 -0.1468  0.6940
  166MOL0     C21787   3.700   8.839  10.549 -1.1600  0.0629 -0.9453
  166MOL0     O21788   3.781   8.947  10.549 -0.2153  0.1679 -0.4880
  166MOL0     C21789   3.912   8.938  10.616  0.7166  0.1696  0.3925
  166MOL0     C21790   4.001   8.861  10.518  0.1086  0.5539  0.4965
  166MOL0     C21791   4.131   8.835  10.597  0.1366  0.7490  0.4306
  166MOL0     C21792   4.237   8.947  10.618 -1.1414 -0.3789 -1.1788
  166MOL0     C21793   4.324   8.916  10.739 -0.3056  1.0081  0.0333
  166MOL0     C21794   4.440   9.022  10.752 -0.0438 -0.3677 -0.6607
  166MOL0     C21795   4.495   9.027  10.893 -1.0082  0.1800 -0.3157
  166MOL0     C21796   4.634   9.100  10.881 -0.2342 -0.4306  0.2674
  166MOL0     N21797   4.710   9.088  11.000 -0.5966 -0.0860 -0.8951
  166MOL0     C21798   4.802   9.184  11.042 -0.0559  0.8873 -0.4844
  166MOL0     C21799   4.836   9.139  11.166 -0.0646  0.6129  1.1465
  166MOL0     C21800   4.934   9.214  11.249 -0.4929 -0.0510 -1.0136
  166MOL0     C21801   5.074   9.172  11.235  0.5569  0.3487 -0.0843
  166MOL0     C21802   5.167   9.255  11.321 -0.0915  0.0001 -0.0087
  166MOL0     C21803   5.193   9.391  11.254  0.3785  0.2784 -0.5539
  166MOL0     O21804   5.329   9.407  11.218 -0.5879 -0.4471 -0.3483
  166MOL0     C21805   5.427   9.428  11.315  0.3660  0.4641  0.6960
  166MOL0     C21806   5.558   9.442  11.266  0.3572 -0.3518 -0.4478
  166MOL0     C21807   5.675   9.460  11.346  0.5313 -0.5482  0.1267
  166MOL0     C21808   5.649   9.475  11.484 -0.8679  1.1226  0.4820
  166MOL0     C21809   5.757   9.506  11.578  0.2084  0.1293  0.4228
  166MOL0     O21810   5.728   9.509  11.712 -0.7191  0.0594  0.2290
  166MOL0     C21811   5.838   9.522  11.795  0.3470 -0.1306  0.0748
  166MOL0     C21812   5.841   9.459  11.926  0.0996  0.3303 -0.0973
  166MOL0     C21813   5.954   9.454  12.010  0.3228 -0.6009  0.1029
  166MOL0     C21814   6.062   9.524  11.969  0.0348 -0.2849  0.1983
  166MOL0     O21815   6.181   9.546  12.047  0.4352 -0.6948 -0.0940
  166MOL0     C21816   6.307   9.545  11.990 -0.0407  0.1293  0.2116
  166MOL0     C21817   6.410   9.461  12.079 -0.5047 -0.1540 -0.7616
  166MOL0     C21818   6.537   9.438  11.984 -0.1204 -0.5509 -0.7513
  166MOL0     C21819   6.636   9.377  12.080 -0.6181  0.7085 -0.2789
  166MOL0     C21820   6.758   9.313  12.000 -0.5542  0.3774  0.2891
  166MOL0     C21821   6.832   9.408  11.903 -0.3665  0.4449 -0.0371
  166MOL0     C21822   6.974   9.354  11.873 -1.3367  0.5260 -0.0660
  166MOL0     C21823   7.071   9.473  11.834  0.9573  0.2445 -0.0522
  166MOL0    Cl21824   7.233   9.401  11.785  0.1854 -0.0328  0.3778
  166MOL0     C21825   6.052   9.614  11.865 -0.5000 -0.2997  0.7134
  166MOL0     C21826   5.940   9.611  11.781  0.1598  0.2655 -0.5923
  166MOL0     O21827   5.862   9.523  11.525 -0.8740 -0.1480  0.2714
  166MOL0     C21828   5.515   9.477  11.532  0.1758 -0.4802 -0.4164
  166MOL0     C21829   5.405   9.445  11.456  0.7685  0.4925  0.1541
  166MOL0     N21830   4.779   9.018  11.193 -0.0700 -0.2760  0.2858
  166MOL0     N21831   4.704   8.994  11.098  0.3760 -0.4937 -0.4020
  166MOL0     C21832   3.602   8.847  10.460  0.0774 -0.5388  0.0648
  166MOL0     C21833   3.498   8.760  10.455  0.3499 -0.3937  0.2099
  166MOL0     C21834   3.198   8.475  10.417  1.0120 -0.3463  0.7063
  166MOL0     C21835   3.150   8.390  10.315 -0.1686 -0.3286  0.0329
  166MOL0     C21836   3.011   8.361  10.298 -0.3624 -0.3705 -0.2111
  166MOL0     C21837   2.920   8.411  10.395  0.1578 -0.3138 -0.4683
  166MOL0     O21838   2.790   8.368  10.404  0.3021 -0.5644  0.0950
  166MOL0     C21839   2.754   8.251  10.330  1.0828  0.0220 -0.8286
  166MOL0     C21840   2.623   8.190  10.395 -0.0916  1.0343  0.1949
  166MOL0     C21841   2.498   8.249  10.327 -0.7808 -0.1265 -0.0877
  166MOL0     C21842   2.370   8.225  10.401  0.4080 -0.3255  0.1562
  166MOL0     C21843   2.267   8.341  10.395 -0.1236 -0.1843 -0.4467
  166MOL0     C21844   2.177   8.421  10.397 -0.0419 -0.4968 -0.3024
  166MOL0     C21845   2.971   8.498  10.491 -0.1881 -0.1154  0.0348
  166MOL0     C21846   3.105   8.528  10.501  1.0962 -0.9451 -0.4400
  166MOL0     H21847   3.579   8.557  10.696 -1.2571  1.1782 -0.3679
  166MOL0     H21848   3.781   8.715  10.714 -0.5191 -0.3643  0.6995
  166MOL0     H21849   3.903   8.881  10.708  1.2183 -2.7500 -1.2465
  166MOL0     H21850   3.931   9.045  10.634 -1.4163  0.3794  1.6820
  166MOL0     H21851   4.024   8.900  10.418  0.1132 -1.0535 -0.1641
  166MOL0     H21852   3.963   8.765  10.483 -0.7854  0.9198  0.4421
  166MOL0     H21853   4.184   8.765  10.531 -3.1218 -2.6909  1.1245
  166MOL0     H21854   4.109   8.775  10.686  1.4338 -2.0562 -0.9950
  166MOL0     H21855   4.302   8.952  10.530  2.0580  0.0196  1.0458
  166MOL0     H21856   4.190   9.044  10.639 -0.3562 -0.1505 -0.4030
  166MOL0     H21857   4.372   8.818  10.729  1.2968  2.0173 -3.4088
  166MOL0     H21858   4.255   8.921  10.824  2.1365 -1.5824  2.4084
  166MOL0     H21859   4.403   9.124  10.735  0.9394  0.4519  1.6947
  166MOL0     H21860   4.518   9.010  10.677 -0.5724  1.7765 -1.6310
  166MOL0     H21861   4.425   9.070  10.965  0.4123 -0.7578  1.7321
  166MOL0     H21862   4.512   8.921  10.915 -1.1351 -0.1884 -1.8436
  166MOL0     H21863   4.628   9.205  10.848  4.1500 -0.1520 -0.2307
  166MOL0     H21864   4.682   9.057  10.793  2.2821 -0.4840  1.5838
  166MOL0     H21865   4.835   9.271  10.987 -1.3555  0.9070 -1.2734
  166MOL0     H21866   4.900   9.206  11.352 -1.3208  0.8051 -1.2120
  166MOL0     H21867   4.915   9.319  11.226 -3.7917 -0.7582 -1.9752
  166MOL0     H21868   5.099   9.177  11.128  1.4018 -0.8112  0.0401
  166MOL0     H21869   5.078   9.065  11.255  0.6452  0.3365 -0.1683
  166MOL0     H21870   5.141   9.256  11.428  0.8402 -0.1696  0.2292
  166MOL0     H21871   5.265   9.206  11.313  0.0947  0.6254 -1.9620
  166MOL0     H21872   5.154   9.468  11.321  0.6106 -0.0077 -0.0859
  166MOL0     H21873   5.133   9.395  11.163 -2.5429 -1.1634  1.1648
  166MOL0     H21874   5.581   9.425  11.162  1.2180 -1.5363 -0.0927
  166MOL0     H21875   5.771   9.485  11.302 -0.6995  0.4906 -2.1402
  166MOL0     H21876   5.752   9.403  11.956 -1.2610  1.1976 -2.3238
  166MOL0     H21877   5.967   9.409  12.108  1.9996  2.7493  1.5801
  166MOL0     H21878   6.348   9.645  11.972  0.2797 -0.1743 -0.7716
  166MOL0     H21879   6.304   9.493  11.894 -0.6324 -3.5149  2.0368
  166MOL0     H21880   6.367   9.367  12.116 -0.5430  0.8626  2.0134
  166MOL0     H21881   6.444   9.513  12.169  0.5198  0.0886 -1.2766
  166MOL0     H21882   6.587   9.532  11.959 -1.1247  0.7667  1.9017
  166MOL0     H21883   6.510   9.375  11.898 -1.1774 -1.1997  0.0260
  166MOL0     H21884   6.679   9.465  12.129  1.4447 -0.0696 -0.5845
  166MOL0     H21885   6.596   9.307  12.154 -1.0710 -0.2399 -1.3954
  166MOL0     H21886   6.723   9.221  11.954  1.7005 -0.4518  0.1082
  166MOL0     H21887   6.829   9.280  12.076 -2.6520  1.1327  2.7043
  166MOL0     H21888   6.861   9.500  11.955  2.9433  1.0728 -2.6383
  166MOL0     H21889   6.773   9.423  11.812  0.7680  0.5796 -0.7699
  166MOL0     H21890   7.023   9.292  11.949  0.7559 -1.6596 -2.9414
  166MOL0     H21891   6.958   9.295  11.782 -1.2714  1.9224 -1.0123
  166MOL0     H21892   7.072   9.536  11.924 -0.9402 -1.6112  1.3859
  166MOL0     H21893   7.023   9.524  11.751 -0.3244  2.4603  1.9207
  166MOL0     H21894   6.128   9.686  11.837 -0.7084 -0.4390 -0.2755
  166MOL0     H21895   5.916   9.687  11.707 -2.7056  0.8008  0.7154
  166MOL0     H21896   5.502   9.499  11.638  1.4418 -0.6238 -0.2113
  166MOL0     H21897   5.312   9.442  11.512  2.2097 -1.8996  2.6796
  166MOL0     H21898   3.595   8.921  10.381 -1.1842 -0.6775  0.0196
  166MOL0     H21899   3.413   8.773  10.389  0.5456  0.7376  0.1535
  166MOL0     H21900   3.225   8.362  10.241  0.2929  1.3346 -0.1777
  166MOL0     H21901   2.984   8.302  10.210 -4.4780  3.6722 -2.0513
  166MOL0     H21902   2.832   8.176  10.309  2.2236  1.7809 -3.5458
  166MOL0     H21903   2.717   8.283  10.232 -2.0611 -1.0769 -0.1191
  166MOL0     H21904   2.630   8.082  10.384 -1.5502  0.8749  0.6515
  166MOL0     H21905   2.621   8.206  10.503  0.6898  0.9579  0.2289
  166MOL0     H21906   2.486   8.213  10.224 -2.5575 -0.5147  0.2154
  166MOL0     H21907   2.524   8.355  10.337  2.0758 -0.9794  3.9654
  166MOL0     H21908   2.326   8.135  10.357 -0.1228  1.1246 -2.4916
  166MOL0     H21909   2.390   8.208  10.508  1.2648  3.3667  0.7464
  166MOL0     H21910   2.087   8.480  10.391 -1.4168 -2.4842 -0.1627
  166MOL0     H21911   2.900   8.542  10.561 -0.8397  1.8776 -1.7956
  166MOL0     H21912   3.134   8.610  10.566 -0.0029  0.9718 -2.2421
  167MOL0     O21913   3.599  10.280   5.424  0.6980 -0.2362  0.4476
  167MOL0     C21914   3.619  10.239   5.537  0.3742 -0.3826  0.8840
  167MOL0     O21915   3.527  10.239   5.639  0.5036  0.4143 -0.0428
  167MOL0     C21916   3.392  10.265   5.610 -1.0517  0.5663  0.2250
  167MOL0     C21917   3.313  10.153   5.581 -0.0792 -0.3211 -0.6638
  167MOL0     C21918   3.177  10.170   5.557  1.1766 -0.8320 -0.5623
  167MOL0     C21919   3.119  10.301   5.557  0.0058  0.9315  0.0652
  167MOL0     O21920   2.985  10.302   5.529 -0.2880  0.6962 -0.6593
  167MOL0     C21921   2.948  10.352   5.400 -0.5380  0.3768  0.0506
  167MOL0     C21922   2.919  10.500   5.410 -0.0127  0.3191 -0.1637
  167MOL0     C21923   2.800  10.538   5.503  0.1268 -0.1862 -0.7580
  167MOL0     C21924   2.662  10.497   5.453  0.0688 -0.1064 -0.3679
  167MOL0     C21925   2.557  10.509   5.571 -0.1540  0.3818  0.4414
  167MOL0     C21926   2.418  10.479   5.520 -0.6126 -0.1436 -0.4492
  167MOL0     C21927   2.310  10.547   5.609 -0.5488 -0.3846  1.0198
  167MOL0     C21928   2.187  10.575   5.531  0.6459 -0.0390  0.2886
  167MOL0     N21929   2.090  10.648   5.612  1.1380 -0.3882  0.0288
  167MOL0     C21930   1.967  10.603   5.653  0.3113  0.1569 -0.2622
  167MOL0     C21931   1.914  10.713   5.706 -0.4167 -0.6194  0.4220
  167MOL0     C21932   1.783  10.701   5.786  0.5854 -0.5991  0.5504
  167MOL0     C21933   1.790  10.593   5.896  0.4406  0.1028 -0.6494
  167MOL0     C21934   1.669  10.592   5.993  0.1799  0.4513 -0.6676
  167MOL0     C21935   1.699  10.689   6.099  0.6411 -0.1230 -0.1839
  167MOL0     O21936   1.592  10.708   6.206  0.3397 -0.2681 -0.6436
  167MOL0     C21937   1.601  10.816   6.289  0.6052  0.5421  0.5881
  167MOL0     C21938   1.709  10.906   6.270 -0.0787 -0.0607 -0.3894
  167MOL0     C21939   1.734  10.998   6.366 -1.4432 -0.0921  0.6121
  167MOL0     C21940   1.646  11.018   6.475  0.0982  0.1142 -0.3821
  167MOL0     C21941   1.668  11.128   6.574 -0.0730 -0.4245  0.8902
  167MOL0     O21942   1.764  11.222   6.544 -1.3420  0.1029 -0.3165
  167MOL0     C21943   1.787  11.330   6.626 -0.1843 -0.3099  0.7159
  167MOL0     C21944   1.693  11.399   6.705 -0.1839 -0.0468  0.8613
  167MOL0     C21945   1.729  11.522   6.767 -0.7785 -0.2910  0.5796
  167MOL0     C21946   1.859  11.569   6.761  0.1387  0.0504 -0.5550
  167MOL0     O21947   1.888  11.688   6.819 -0.1056  0.2720 -0.1644
  167MOL0     C21948   1.905  11.799   6.733  0.4294 -0.4484 -0.7155
  167MOL0     C21949   1.933  11.923   6.817 -0.5483 -0.1156 -0.3389
  167MOL0     C21950   1.950  12.045   6.724  0.1440  0.0068 -0.7587
  167MOL0     C21951   1.833  12.141   6.713  0.6879  0.7978  0.6622
  167MOL0     C21952   1.811  12.216   6.842 -0.5011 -0.5567  0.5090
  167MOL0     C21953   1.751  12.355   6.821  0.3777  0.2534 -0.3201
  167MOL0     C21954   1.639  12.388   6.927 -0.2047  0.2404  0.4704
  167MOL0     C21955   1.595  12.535   6.898 -0.0845  0.0609  0.2455
  167MOL0    Cl21956   1.526  12.608   7.054 -0.1745 -0.4664 -0.3127
  167MOL0     C21957   1.958  11.487   6.699  1.3379 -0.4624 -0.2434
  167MOL0     C21958   1.923  11.377   6.622 -0.3774  0.9663 -0.1719
  167MOL0     O21959   1.599  11.136   6.672 -0.2205 -0.6535  0.3108
  167MOL0     C21960   1.522  10.945   6.482  0.1147 -0.1950  0.1823
  167MOL0     C21961   1.504  10.841   6.386 -0.5479  0.2433  0.2084
  167MOL0     N21962   1.998  10.822   5.705  0.0429 -0.4997  0.1320
  167MOL0     N21963   2.097  10.778   5.642 -0.1135 -0.0018 -0.5296
  167MOL0     C21964   3.201  10.409   5.588  0.4678  0.6257 -0.3061
  167MOL0     C21965   3.336  10.395   5.618 -0.6473  0.3825  0.1913
  167MOL0     C21966   3.760  10.205   5.575  0.2808  0.2348  0.3035
  167MOL0     C21967   3.795  10.187   5.708  0.1667  0.9761 -0.1233
  167MOL0     C21968   3.922  10.158   5.756  0.4666  0.6285  0.2741
  167MOL0     C21969   4.021  10.149   5.663 -0.1548 -0.0885  0.4755
  167MOL0     O21970   4.146  10.125   5.721 -0.6089 -0.1380 -0.0126
  167MOL0     C21971   4.256  10.101   5.626 -0.0621 -0.2191 -0.4005
  167MOL0     C21972   4.370  10.038   5.710  0.3111  0.4296  0.1262
  167MOL0     C21973   4.493   9.996   5.625 -0.2012  0.3571  1.1268
  167MOL0     C21974   4.613   9.984   5.713 -0.0513 -0.4061  0.0048
  167MOL0     C21975   4.725   9.911   5.656 -0.1968  0.4466  0.0157
  167MOL0     C21976   4.812   9.851   5.594 -1.4516 -0.1737 -0.4536
  167MOL0     C21977   3.995  10.167   5.524  0.2613 -0.3396  0.8205
  167MOL0     C21978   3.860  10.198   5.478 -0.0208 -0.9944 -0.7427
  167MOL0     H21979   3.350  10.051   5.583 -2.9988 -1.5513 -2.4065
  167MOL0     H21980   3.117  10.082   5.533 -1.0374  1.4285 -4.3797
  167MOL0     H21981   2.866  10.291   5.361  0.7719  1.1371 -4.3886
  167MOL0     H21982   3.030  10.334   5.330 -0.4264 -0.3613  0.3535
  167MOL0     H21983   2.897  10.537   5.309 -1.4855  3.2867  1.1311
  167MOL0     H21984   3.007  10.555   5.445 -0.0168 -0.9323  1.9581
  167MOL0     H21985   2.809  10.647   5.512 -3.9661  0.3137 -0.6181
  167MOL0     H21986   2.822  10.492   5.599  1.3804  1.3931 -0.2381
  167MOL0     H21987   2.648  10.559   5.365  3.1413  1.1191 -0.1298
  167MOL0     H21988   2.660  10.390   5.431 -0.4442 -0.4223  1.0997
  167MOL0     H21989   2.573  10.610   5.611  5.1087  0.1449 -0.3686
  167MOL0     H21990   2.578  10.429   5.643  3.2541  0.9271  0.2143
  167MOL0     H21991   2.395  10.373   5.517  5.3830 -1.7853 -1.3248
  167MOL0     H21992   2.409  10.512   5.416 -0.8112 -4.1477 -1.8754
  167MOL0     H21993   2.275  10.483   5.691  1.3144 -1.5314  0.9789
  167MOL0     H21994   2.359  10.634   5.654 -0.0264 -0.4188  0.5362
  167MOL0     H21995   2.140  10.481   5.499  0.3667  0.4483 -0.7653
  167MOL0     H21996   2.214  10.631   5.441  0.1035 -1.8355 -1.0387
  167MOL0     H21997   1.917  10.510   5.628  1.4335 -0.2542 -1.0753
  167MOL0     H21998   1.703  10.680   5.715  1.8325 -2.0024 -0.5073
  167MOL0     H21999   1.765  10.797   5.836 -1.8948 -0.4624 -0.4541
  167MOL0     H22000   1.882  10.609   5.953 -2.2610  1.7181  3.7604
  167MOL0     H22001   1.812  10.499   5.846  2.7335  0.1464  0.1633
  167MOL0     H22002   1.576  10.605   5.936  0.2760 -1.1934 -1.2288
  167MOL0     H22003   1.668  10.493   6.038 -0.1822 -0.2404 -2.1506
  167MOL0     H22004   1.709  10.784   6.047 -2.3309  0.5942  0.3460
  167MOL0     H22005   1.796  10.656   6.139 -0.5148 -4.6702 -0.4866
  167MOL0     H22006   1.791  10.891   6.201  0.0002 -1.6494  0.0117
  167MOL0     H22007   1.824  11.058   6.352 -1.2126 -0.6495 -0.4237
  167MOL0     H22008   1.590  11.366   6.709 -0.0398 -0.7959 -0.9087
  167MOL0     H22009   1.654  11.575   6.825 -1.3439  0.2453 -0.6208
  167MOL0     H22010   1.807  11.818   6.688  0.7792  3.8315 -0.0742
  167MOL0     H22011   1.985  11.790   6.658  0.2591  1.8150 -1.2350
  167MOL0     H22012   2.020  11.900   6.879 -0.7833  1.2431  0.5422
  167MOL0     H22013   1.852  11.949   6.887  0.1306  0.7635  0.1370
  167MOL0     H22014   1.978  12.002   6.627  4.3009 -0.0251  0.2740
  167MOL0     H22015   2.034  12.107   6.757 -1.0996  1.2197  0.2503
  167MOL0     H22016   1.845  12.204   6.624 -1.3203 -0.5251 -0.6250
  167MOL0     H22017   1.743  12.083   6.691  0.7820  0.7782  0.3203
  167MOL0     H22018   1.906  12.229   6.896  0.7949  3.1928 -2.2297
  167MOL0     H22019   1.753  12.159   6.915  2.2465 -0.1478  3.2732
  167MOL0     H22020   1.707  12.353   6.721 -0.2551  0.9229 -0.0664
  167MOL0     H22021   1.839  12.420   6.819  0.0161  0.7622 -2.5293
  167MOL0     H22022   1.550  12.324   6.924  0.1412 -0.2213 -0.0986
  167MOL0     H22023   1.680  12.385   7.028  0.2633  0.7756  0.2974
  167MOL0     H22024   1.522  12.537   6.816  2.4906 -0.6079 -2.2357
  167MOL0     H22025   1.681  12.593   6.864 -0.0157  0.0934  0.4749
  167MOL0     H22026   2.060  11.525   6.691  1.2637  0.1201  1.3096
  167MOL0     H22027   1.994  11.321   6.562 -0.2478 -0.1623  0.9824
  167MOL0     H22028   1.445  10.936   6.558 -2.5175 -0.5056 -2.3607
  167MOL0     H22029   1.420  10.773   6.384  0.2213 -0.7263  0.3627
  167MOL0     H22030   3.156  10.509   5.593 -1.5516 -0.2694  0.9547
  167MOL0     H22031   3.386  10.488   5.644 -0.5199 -0.5151  3.5892
  167MOL0     H22032   3.713  10.189   5.780 -0.2256  0.1329 -0.5363
  167MOL0     H22033   3.933  10.132   5.861 -1.7093 -0.9454  0.1863
  167MOL0     H22034   4.280  10.199   5.584 -3.2944  1.2031  0.7449
  167MOL0     H22035   4.222  10.030   5.549  0.7305 -0.8529 -0.1803
  167MOL0     H22036   4.394  10.103   5.794 -3.2730 -0.2689  1.8726
  167MOL0     H22037   4.326   9.949   5.756 -3.1386  1.3728 -1.0241
  167MOL0     H22038   4.502  10.072   5.546 -1.7651 -2.0557 -1.5682
  167MOL0     H22039   4.467   9.905   5.570 -1.6805  0.7966  1.0478
  167MOL0     H22040   4.637  10.079   5.760 -2.5667 -0.4776  1.6063
  167MOL0     H22041   4.602   9.919   5.800 -0.9359  0.5052  0.5873
  167MOL0     H22042   4.899   9.794   5.568 -0.6319  0.4386  0.8567
  167MOL0     H22043   4.065  10.157   5.442  0.4075 -0.3651  0.9476
  167MOL0     H22044   3.828  10.233   5.380  0.0669  1.0117 -0.0915
  168MOL0     O22045   3.921  10.062   1.715 -0.4972 -0.8324  0.0070
  168MOL0     C22046   3.860  10.166   1.725 -0.9708  0.0564  0.7158
  168MOL0     O22047   3.876  10.265   1.818 -0.0296  0.4503 -0.4929
  168MOL0     C22048   3.986  10.250   1.902 -0.1699 -0.3943 -0.0913
  168MOL0     C22049   3.974  10.166   2.011 -0.8810 -0.0698 -0.8355
  168MOL0     C22050   4.085  10.143   2.095  0.0730 -0.7647  1.2067
  168MOL0     C22051   4.210  10.220   2.073  0.6332  0.8847 -0.4786
  168MOL0     O22052   4.290  10.200   2.181 -0.4939  0.3045  0.0059
  168MOL0     C22053   4.419  10.259   2.151 -0.1890 -0.3403  0.2106
  168MOL0     C22054   4.507  10.198   2.265 -0.8389 -0.0261  0.8382
  168MOL0     C22055   4.654  10.247   2.251 -0.1380 -0.7718 -0.0151
  168MOL0     C22056   4.755  10.198   2.357 -0.7166  0.6951  0.4077
  168MOL0     C22057   4.873  10.296   2.351  0.4388  0.1035 -0.3581
  168MOL0     C22058   4.952  10.283   2.489  0.1352  0.2909  0.5954
  168MOL0     C22059   5.084  10.357   2.470 -0.5531  0.3526  0.3755
  168MOL0     C22060   5.169  10.331   2.591 -0.2495  0.0452 -0.3519
  168MOL0     N22061   5.313  10.366   2.582 -0.0274 -0.5138 -0.0022
  168MOL0     C22062   5.353  10.473   2.655 -0.3733  0.0451  0.0529
  168MOL0     C22063   5.486  10.491   2.620 -0.1772  0.6656  0.2235
  168MOL0     C22064   5.585  10.593   2.683  0.1032 -0.5066  0.5259
  168MOL0     C22065   5.607  10.709   2.583 -0.7076 -0.1498  0.2510
  168MOL0     C22066   5.701  10.812   2.648 -0.4156 -0.0049  0.2398
  168MOL0     C22067   5.699  10.941   2.579 -1.0107 -0.1656  0.5266
  168MOL0     O22068   5.784  10.927   2.457  0.0262 -0.4980 -0.5737
  168MOL0     C22069   5.908  10.983   2.451 -0.6733  0.9654 -0.0812
  168MOL0     C22070   5.979  11.041   2.559  0.3997  0.4785 -0.9530
  168MOL0     C22071   6.098  11.108   2.525  0.3282 -0.8296  0.1556
  168MOL0     C22072   6.141  11.127   2.391  0.2911  0.4504 -0.4301
  168MOL0     C22073   6.268  11.202   2.356  0.4065 -0.0303  0.1873
  168MOL0     O22074   6.274  11.256   2.229  0.1145  0.5263 -0.1389
  168MOL0     C22075   6.372  11.352   2.198  0.1873 -0.0628 -0.6003
  168MOL0     C22076   6.487  11.311   2.124  0.8153  0.4853 -0.5556
  168MOL0     C22077   6.582  11.404   2.092  0.1852 -0.4975  0.0952
  168MOL0     C22078   6.564  11.545   2.128 -0.0090  0.4869 -0.4933
  168MOL0     O22079   6.640  11.648   2.097 -0.4032  0.1322 -0.5584
  168MOL0     C22080   6.739  11.636   1.987 -0.7790 -0.1100 -0.3339
  168MOL0     C22081   6.737  11.782   1.941 -0.3098 -0.5624 -0.8619
  168MOL0     C22082   6.803  11.884   2.040 -0.3791 -0.9179  0.9845
  168MOL0     C22083   6.771  12.027   2.005 -0.5070  0.0521  0.1129
  168MOL0     C22084   6.850  12.127   2.088  0.0190 -0.4793 -0.3689
  168MOL0     C22085   6.987  12.132   2.045  0.4243 -0.7545  0.8653
  168MOL0     C22086   7.058  12.240   2.127  0.2467 -0.0475 -0.2619
  168MOL0     C22087   7.198  12.247   2.067 -0.2406  0.4270  0.8379
  168MOL0    Cl22088   7.305  12.371   2.161  0.0492 -0.3590 -0.3104
  168MOL0     C22089   6.470  11.570   2.216  0.2218 -0.9227  0.9049
  168MOL0     C22090   6.373  11.476   2.258  0.5630 -0.1915  0.6243
  168MOL0     O22091   6.349  11.218   2.441  0.3131 -0.6160 -0.0305
  168MOL0     C22092   6.079  11.054   2.297 -1.0648  0.1725  0.5788
  168MOL0     C22093   5.972  10.981   2.326  0.2869  0.0607 -0.4952
  168MOL0     N22094   5.521  10.386   2.543  0.4174  1.1368 -0.2485
  168MOL0     N22095   5.417  10.318   2.512 -0.0345 -0.3452 -0.4935
  168MOL0     C22096   4.208  10.318   1.972 -1.0997  0.4969  0.0060
  168MOL0     C22097   4.103  10.325   1.880 -0.0051 -0.7740  0.3140
  168MOL0     C22098   3.741  10.179   1.649 -0.4150  0.0769  0.1644
  168MOL0     C22099   3.737  10.113   1.523 -0.4159  0.7397 -0.2995
  168MOL0     C22100   3.618  10.114   1.449 -0.3316  0.5119 -0.5590
  168MOL0     C22101   3.508  10.177   1.495  0.2619 -0.3338 -0.6393
  168MOL0     O22102   3.388  10.151   1.431  0.7830  0.1032  0.3541
  168MOL0     C22103   3.261  10.216   1.453 -0.0850  0.2731 -0.2254
  168MOL0     C22104   3.169  10.189   1.336  0.5111 -0.6245 -0.4743
  168MOL0     C22105   3.118  10.052   1.299 -0.2733 -0.2417 -0.4058
  168MOL0     C22106   3.059   9.974   1.420 -0.1220 -0.8611 -1.3261
  168MOL0     C22107   2.961  10.048   1.497 -0.1329  0.7535 -1.1747
  168MOL0     C22108   2.868  10.100   1.562 -0.5886 -0.4773  0.4640
  168MOL0     C22109   3.519  10.255   1.611  0.6288 -0.5498 -0.3900
  168MOL0     C22110   3.630  10.245   1.695 -0.1333 -0.7595  0.4536
  168MOL0     H22111   3.879  10.118   2.030  0.9238 -3.4177  0.7579
  168MOL0     H22112   4.058  10.080   2.179 -0.9874  2.8909  3.8477
  168MOL0     H22113   4.410  10.368   2.158 -2.5058 -0.4427 -0.3705
  168MOL0     H22114   4.448  10.245   2.046  0.4925 -0.1163  0.3676
  168MOL0     H22115   4.505  10.089   2.263  4.8321 -0.5727  4.0020
  168MOL0     H22116   4.477  10.227   2.366  3.9570  1.8679  1.9900
  168MOL0     H22117   4.644  10.356   2.257 -0.6353 -0.8819  3.4071
  168MOL0     H22118   4.694  10.236   2.150 -0.1420 -0.6675 -0.0288
  168MOL0     H22119   4.713  10.198   2.458 -0.8651 -2.2429  0.4311
  168MOL0     H22120   4.778  10.093   2.339 -3.9958  0.1976 -1.7770
  168MOL0     H22121   4.833  10.398   2.353 -2.4248 -0.9326  1.2182
  168MOL0     H22122   4.938  10.283   2.264  2.7702 -0.0294  1.3380
  168MOL0     H22123   4.966  10.177   2.513 -0.9586 -0.2414 -0.9340
  168MOL0     H22124   4.896  10.335   2.567 -1.8419  1.9042 -1.7518
  168MOL0     H22125   5.141  10.314   2.387 -2.4298 -0.2237 -0.6617
  168MOL0     H22126   5.070  10.465   2.457  0.4412  0.5491  0.8696
  168MOL0     H22127   5.159  10.223   2.604  0.6851  0.1782  1.8414
  168MOL0     H22128   5.124  10.383   2.676  1.4727  0.6492  0.2254
  168MOL0     H22129   5.289  10.537   2.716 -0.1480  2.0770 -1.7032
  168MOL0     H22130   5.684  10.560   2.714  1.7093  2.4363 -1.0180
  168MOL0     H22131   5.530  10.636   2.767 -0.0030  0.7549 -0.1648
  168MOL0     H22132   5.513  10.761   2.561  0.1336  0.3281 -2.7018
  168MOL0     H22133   5.648  10.677   2.486  2.3031  2.1766  0.6061
  168MOL0     H22134   5.668  10.828   2.751 -0.7865 -3.1124  0.7147
  168MOL0     H22135   5.803  10.775   2.656 -0.2359 -0.0997 -1.9808
  168MOL0     H22136   5.736  11.011   2.655 -0.1316 -1.9479  1.8182
  168MOL0     H22137   5.594  10.968   2.566 -1.6760 -1.0093  3.4059
  168MOL0     H22138   5.938  11.040   2.660 -2.5211 -2.5794 -2.0386
  168MOL0     H22139   6.140  11.159   2.611 -1.0169  1.4649 -0.4425
  168MOL0     H22140   6.502  11.205   2.106  0.1550 -0.2007  2.3921
  168MOL0     H22141   6.679  11.381   2.048  2.0800  1.1892  3.0352
  168MOL0     H22142   6.702  11.570   1.908  2.6498 -0.0684 -2.2003
  168MOL0     H22143   6.842  11.608   2.011 -0.2518 -0.1771 -2.4139
  168MOL0     H22144   6.635  11.821   1.936 -0.6960 -1.3692  0.2694
  168MOL0     H22145   6.783  11.786   1.842  2.1857 -2.1261  0.1355
  168MOL0     H22146   6.911  11.881   2.052 -0.2395 -0.4399 -0.0550
  168MOL0     H22147   6.764  11.870   2.141  0.6311  0.3326  1.5720
  168MOL0     H22148   6.787  12.047   1.899  0.1846 -0.6668  0.0782
  168MOL0     H22149   6.665  12.049   2.021 -0.6582 -0.6964  0.1472
  168MOL0     H22150   6.842  12.100   2.193  0.1520 -1.5337 -0.6243
  168MOL0     H22151   6.805  12.227   2.078  0.2158 -0.4843 -1.3833
  168MOL0     H22152   6.983  12.155   1.938  1.5816  0.0111  0.9673
  168MOL0     H22153   7.043  12.040   2.057  2.1874  0.4430  2.2457
  168MOL0     H22154   7.022  12.343   2.121 -1.6249 -0.2949  3.5927
  168MOL0     H22155   7.062  12.206   2.231 -0.2462  0.3893 -0.0994
  168MOL0     H22156   7.202  12.256   1.958  0.4252 -0.1669  0.8022
  168MOL0     H22157   7.248  12.150   2.080 -0.4165  0.0873 -0.7372
  168MOL0     H22158   6.453  11.671   2.252  0.9770  1.5166 -4.5546
  168MOL0     H22159   6.296  11.514   2.325 -1.7038 -0.2934 -1.7986
  168MOL0     H22160   6.118  11.046   2.195 -1.4995 -0.8788  0.4907
  168MOL0     H22161   5.924  10.930   2.242  1.8688  1.0788 -2.0857
  168MOL0     H22162   4.295  10.383   1.976  0.0966 -0.7940 -2.5787
  168MOL0     H22163   4.092  10.390   1.793  2.3408  0.7918  1.0930
  168MOL0     H22164   3.830  10.074   1.482 -0.7072 -0.2352 -0.0657
  168MOL0     H22165   3.609  10.053   1.360 -1.7810 -0.2009  0.0481
  168MOL0     H22166   3.263  10.323   1.475 -2.6198  0.4795 -0.6977
  168MOL0     H22167   3.213  10.169   1.539  3.5693 -1.3856  1.0940
  168MOL0     H22168   3.082  10.252   1.357 -1.1991 -3.5219  1.9172
  168MOL0     H22169   3.222  10.238   1.254 -0.9668  0.9862 -0.5127
  168MOL0     H22170   3.202   9.991   1.266  2.2651  2.0608  1.3560
  168MOL0     H22171   3.041  10.048   1.221  1.3428 -3.3254 -1.9964
  168MOL0     H22172   3.021   9.877   1.386  1.9190 -2.5816  0.9550
  168MOL0     H22173   3.142   9.957   1.489 -2.0822  0.2531  1.5194
  168MOL0     H22174   2.788  10.143   1.620 -0.0616 -0.0627  0.9065
  168MOL0     H22175   3.434  10.316   1.642  0.2337 -1.0605 -0.4520
  168MOL0     H22176   3.643  10.310   1.780  0.7649 -2.4647  1.6906
  169MOL0     O22177   3.239   5.611  10.499  0.3188  0.6737 -0.1796
  169MOL0     C22178   3.298   5.601  10.393  0.7924 -0.7562  0.2610
  169MOL0     O22179   3.233   5.576  10.275  0.8843 -0.8455  0.1969
  169MOL0     C22180   3.093   5.577  10.281 -0.3255 -1.0895 -0.7754
  169MOL0     C22181   3.032   5.687  10.215 -0.3375 -0.7660 -0.1015
  169MOL0     C22182   2.894   5.684  10.197  0.0974  0.7337 -0.5792
  169MOL0     C22183   2.821   5.577  10.247 -0.8149 -0.2162 -0.0684
  169MOL0     O22184   2.689   5.585  10.234  0.1187  0.5174  0.0622
  169MOL0     C22185   2.608   5.465  10.232  0.5643 -0.4007  0.0712
  169MOL0     C22186   2.481   5.471  10.150 -1.0992 -0.6206  0.6840
  169MOL0     C22187   2.358   5.522  10.218  0.3695 -0.8889 -0.0045
  169MOL0     C22188   2.374   5.659  10.281 -1.0003 -0.3305 -1.5183
  169MOL0     C22189   2.233   5.740  10.273  0.5837 -0.1192  0.2026
  169MOL0     C22190   2.113   5.709  10.370  0.0743 -0.6144 -0.0267
  169MOL0     C22191   2.014   5.823  10.360 -0.0414 -0.2496  1.0728
  169MOL0     C22192   1.899   5.802  10.451 -0.6703  0.5361 -0.2103
  169MOL0     N22193   1.846   5.928  10.495 -0.2249  0.0439  0.0773
  169MOL0     C22194   1.749   5.991  10.428 -0.4777  0.2450 -0.5091
  169MOL0     C22195   1.730   6.105  10.499  0.2307 -0.0407 -0.6618
  169MOL0     C22196   1.629   6.208  10.478 -0.1512  0.3994 -0.0500
  169MOL0     C22197   1.484   6.176  10.544 -0.4230 -0.8233  0.4519
  169MOL0     C22198   1.398   6.304  10.505  0.6046 -1.0180  0.3741
  169MOL0     C22199   1.250   6.282  10.477  0.6065  0.6407 -0.1557
  169MOL0     O22200   1.186   6.252  10.598  0.7212 -0.5316  0.6809
  169MOL0     C22201   1.046   6.272  10.601  0.3690 -0.2023 -0.9530
  169MOL0     C22202   0.979   6.252  10.722 -0.5428 -1.1307  1.2149
  169MOL0     C22203   0.842   6.260  10.735  0.1017  0.9647  0.0062
  169MOL0     C22204   0.763   6.292  10.625  0.4251 -0.3679 -0.9472
  169MOL0     C22205   0.619   6.309  10.637  0.1394 -1.0514 -0.0159
  169MOL0     O22206   0.574   6.319  10.758  0.6946 -0.6625 -0.3585
  169MOL0     C22207   0.435   6.323  10.773  0.2033 -0.3373 -0.3722
  169MOL0     C22208   0.360   6.218  10.826 -0.2262  0.2099 -0.3191
  169MOL0     C22209   0.228   6.227  10.863 -1.0150 -0.3507  0.0954
  169MOL0     C22210   0.164   6.350  10.856 -1.1630 -1.7244 -0.6046
  169MOL0     O22211   0.043   6.381  10.909 -0.3616 -0.4771  0.3996
  169MOL0     C22212  -0.005   6.312  11.022  0.5406  0.1898 -0.5859
  169MOL0     C22213  -0.060   6.172  10.973  0.6677 -0.4518  0.0911
  169MOL0     C22214  -0.203   6.145  11.023 -0.2851  0.1831  0.4917
  169MOL0     C22215  -0.311   6.236  10.953  0.4414 -0.7181 -0.3163
  169MOL0     C22216  -0.455   6.226  11.008  0.5940 -0.3240  0.5138
  169MOL0     C22217  -0.533   6.114  10.952 -0.7904 -0.0158 -1.0824
  169MOL0     C22218  -0.676   6.121  11.016  0.2698 -0.1888  0.0633
  169MOL0     C22219  -0.763   5.997  11.003 -0.3445  0.3494  0.4896
  169MOL0    Cl22220  -0.749   5.889  11.155 -0.1092  0.1004  0.0282
  169MOL0     C22221   0.231   6.462  10.795  0.2635 -0.4520 -0.2001
  169MOL0     C22222   0.361   6.447  10.756 -0.5278  0.5371 -0.2356
  169MOL0     O22223   0.559   6.302  10.528 -0.2262 -0.5581  0.0587
  169MOL0     C22224   0.825   6.325  10.502  0.6874  0.0217  0.2471
  169MOL0     C22225   0.966   6.319  10.503  0.6581 -0.0419 -0.2708
  169MOL0     N22226   1.808   6.103  10.613 -0.1949 -1.4122  0.3752
  169MOL0     N22227   1.885   6.002  10.600  0.4490  0.9066 -0.1143
  169MOL0     C22228   2.880   5.472  10.308 -0.2902 -0.4045 -0.2617
  169MOL0     C22229   3.020   5.472  10.324 -1.5728  0.1072  0.1825
  169MOL0     C22230   3.443   5.632  10.389 -0.6495  0.7675  0.4483
  169MOL0     C22231   3.504   5.668  10.264 -0.1256 -0.2917  0.4924
  169MOL0     C22232   3.640   5.701  10.265  0.2995  0.1648  0.4711
  169MOL0     C22233   3.716   5.693  10.384 -0.1736 -0.0265 -0.4289
  169MOL0     O22234   3.847   5.741  10.405 -0.4452 -0.0293 -0.1044
  169MOL0     C22235   3.923   5.752  10.280  0.1912 -0.1584 -0.4339
  169MOL0     C22236   4.062   5.798  10.309 -0.3811 -0.4777 -0.1298
  169MOL0     C22237   4.070   5.934  10.392  0.2990  0.2590 -0.0919
  169MOL0     C22238   4.212   5.974  10.419 -0.3228  0.2379 -0.6857
  169MOL0     C22239   4.263   6.045  10.306 -0.4390  0.4341  0.7186
  169MOL0     C22240   4.327   6.104  10.224 -0.3052  0.5122 -0.0567
  169MOL0     C22241   3.649   5.659  10.501 -0.1089 -0.3727  0.2360
  169MOL0     C22242   3.518   5.637  10.505  0.1107  0.9089  0.4904
  169MOL0     H22243   3.099   5.760  10.173 -1.7682 -1.3470 -3.7483
  169MOL0     H22244   2.843   5.769  10.152 -0.1743  0.4298 -0.8558
  169MOL0     H22245   2.574   5.436  10.332 -0.2028 -2.1413 -0.6410
  169MOL0     H22246   2.679   5.388  10.201  1.5624  0.1623  0.9130
  169MOL0     H22247   2.466   5.370  10.110  0.2868 -0.2746 -0.8364
  169MOL0     H22248   2.514   5.532  10.065 -0.0702 -0.5110  1.1437
  169MOL0     H22249   2.323   5.449  10.292  4.3816  0.1372  3.2720
  169MOL0     H22250   2.275   5.528  10.147  1.5363  1.0771 -1.2982
  169MOL0     H22251   2.404   5.662  10.386 -0.9931  1.6144 -1.5444
  169MOL0     H22252   2.450   5.706  10.218  0.8143 -2.1342 -0.8016
  169MOL0     H22253   2.199   5.726  10.170  0.8351  1.3793 -0.1063
  169MOL0     H22254   2.267   5.844  10.278  0.4583 -0.1078  1.0083
  169MOL0     H22255   2.147   5.706  10.474 -3.0160 -0.5105  1.0670
  169MOL0     H22256   2.060   5.617  10.344  0.5946 -0.5101 -1.5970
  169MOL0     H22257   2.061   5.916  10.393  0.4742 -0.8407  2.0559
  169MOL0     H22258   1.978   5.844  10.259 -2.3160  3.5872  2.4470
  169MOL0     H22259   1.921   5.736  10.536  1.5287 -0.0164 -1.1359
  169MOL0     H22260   1.824   5.754  10.387 -1.3347 -0.4335  1.2416
  169MOL0     H22261   1.696   5.957  10.340 -0.4644 -1.6283  0.1762
  169MOL0     H22262   1.619   6.195  10.370  0.2201 -3.9385  0.2521
  169MOL0     H22263   1.655   6.308  10.516  2.3696 -0.9461  2.0944
  169MOL0     H22264   1.495   6.166  10.652  0.7799  1.0766  0.5470
  169MOL0     H22265   1.450   6.081  10.501 -0.3580  0.2435 -2.1646
  169MOL0     H22266   1.401   6.388  10.575 -0.9758 -0.6622  0.0605
  169MOL0     H22267   1.433   6.344  10.409  3.1049 -1.5501  0.9891
  169MOL0     H22268   1.229   6.207  10.400  0.1486 -0.8858  1.3828
  169MOL0     H22269   1.214   6.378  10.439 -1.9164 -1.3843 -3.4389
  169MOL0     H22270   1.031   6.216  10.810  1.9739 -3.5182 -1.0478
  169MOL0     H22271   0.801   6.225  10.830  0.7590 -0.6646 -0.2681
  169MOL0     H22272   0.420   6.135  10.864  0.4631  0.5338 -0.6751
  169MOL0     H22273   0.198   6.145  10.929  3.1990 -0.0894  2.6865
  169MOL0     H22274  -0.088   6.371  11.062  0.8151 -0.4395  0.9690
  169MOL0     H22275   0.073   6.304  11.098  0.3220 -0.7686 -0.4455
  169MOL0     H22276   0.008   6.096  11.013  0.8365  0.3876  1.4285
  169MOL0     H22277  -0.054   6.161  10.864 -0.4598  1.5511 -0.2232
  169MOL0     H22278  -0.210   6.157  11.132  3.8210 -2.2309  1.2216
  169MOL0     H22279  -0.233   6.040  11.018  0.3402  0.0118  0.2323
  169MOL0     H22280  -0.300   6.338  10.993 -1.5719 -0.8764  0.8406
  169MOL0     H22281  -0.308   6.224  10.845  3.4933  0.5437 -0.4693
  169MOL0     H22282  -0.514   6.310  10.972  0.4277  0.3428  2.2745
  169MOL0     H22283  -0.446   6.218  11.116  2.4203 -1.2573  0.3485
  169MOL0     H22284  -0.488   6.021  10.987 -2.4904  0.8905  4.4064
  169MOL0     H22285  -0.528   6.113  10.843  2.0962  0.5371 -1.0431
  169MOL0     H22286  -0.678   6.136  11.124 -1.5209  2.5990 -0.2640
  169MOL0     H22287  -0.737   6.204  10.979 -0.6772 -0.3877  1.1317
  169MOL0     H22288  -0.739   5.933  10.917 -1.3372 -0.2819  0.6764
  169MOL0     H22289  -0.866   6.030  10.993  0.4461  2.5437 -1.0519
  169MOL0     H22290   0.188   6.561  10.784 -0.3376 -0.8265 -1.4565
  169MOL0     H22291   0.427   6.526  10.721  1.4506 -1.8904 -2.3559
  169MOL0     H22292   0.768   6.364  10.418 -1.1740 -2.5170  0.2213
  169MOL0     H22293   1.010   6.345  10.408 -1.1870  0.5823 -1.0002
  169MOL0     H22294   2.831   5.381  10.342 -1.1170 -0.6869 -2.0832
  169MOL0     H22295   3.086   5.396  10.364  1.2124  3.3534  2.2855
  169MOL0     H22296   3.445   5.685  10.174 -1.5732  0.3494  1.5254
  169MOL0     H22297   3.684   5.733  10.172  0.5162  0.3664  0.6410
  169MOL0     H22298   3.875   5.824  10.213  1.6223  1.6413  0.4125
  169MOL0     H22299   3.939   5.657  10.227 -4.8509 -0.7487 -1.3514
  169MOL0     H22300   4.120   5.724  10.365 -2.2863 -3.0243 -1.2750
  169MOL0     H22301   4.109   5.802  10.210  1.4624 -0.0644  0.7207
  169MOL0     H22302   4.024   5.921  10.490 -1.6197  1.7828 -0.7267
  169MOL0     H22303   4.014   6.016  10.347 -0.3881  0.4269  1.0352
  169MOL0     H22304   4.209   6.033  10.511  2.9798 -1.0837  0.4332
  169MOL0     H22305   4.276   5.888  10.443 -0.3989  0.2166 -0.5592
  169MOL0     H22306   4.386   6.162  10.156 -0.7198  1.3734  0.3134
  169MOL0     H22307   3.701   5.654  10.596  0.0064  0.6416  0.2353
  169MOL0     H22308   3.471   5.616  10.601  1.1919 -4.2441  0.1717
  170MOL0     O22309   0.492  10.005   9.659 -0.8859 -0.5096  0.3699
  170MOL0     C22310   0.616   9.965   9.641  1.0433 -0.0686 -0.1195
  170MOL0     O22311   0.709  10.022   9.556  0.0293  0.3452 -0.4939
  170MOL0     C22312   0.661  10.129   9.486  0.2282 -0.8776 -0.9680
  170MOL0     C22313   0.695  10.267   9.524  0.4574 -0.4961  0.3361
  170MOL0     C22314   0.655  10.372   9.449 -0.3480  0.3206  0.3405
  170MOL0     C22315   0.580  10.344   9.334  0.6715 -0.5015  0.5119
  170MOL0     O22316   0.553  10.451   9.249  0.2201  0.5493  0.5304
  170MOL0     C22317   0.548  10.407   9.115  0.5104  0.8370  0.7093
  170MOL0     C22318   0.576  10.518   9.013  0.1226 -0.4976 -0.1669
  170MOL0     C22319   0.713  10.579   9.041 -0.1533 -0.3254 -0.5398
  170MOL0     C22320   0.749  10.695   8.942  0.0929  0.8707  1.0709
  170MOL0     C22321   0.883  10.761   8.972  0.2007 -0.4625  0.1179
  170MOL0     C22322   0.921  10.847   8.842  0.6419 -0.0638  0.3041
  170MOL0     C22323   1.054  10.925   8.879  0.4053 -0.9481  0.2431
  170MOL0     C22324   1.116  10.968   8.754  0.7921 -0.0867 -0.3530
  170MOL0     N22325   1.239  11.039   8.781 -0.0731  0.0895  0.8078
  170MOL0     C22326   1.362  10.981   8.799 -0.4420  0.3728  0.8051
  170MOL0     C22327   1.431  11.076   8.854 -1.9037 -0.6860  0.0806
  170MOL0     C22328   1.577  11.058   8.904 -0.2470  0.5016  0.1219
  170MOL0     C22329   1.676  11.128   8.808  0.9715  0.2453  0.1070
  170MOL0     C22330   1.711  11.022   8.694  1.1045 -0.4063 -0.1424
  170MOL0     C22331   1.815  11.064   8.594  0.2721  0.5805 -0.4503
  170MOL0     O22332   1.777  11.193   8.553 -0.3512 -0.1741 -0.4191
  170MOL0     C22333   1.863  11.258   8.471 -0.0944  0.4384 -0.2803
  170MOL0     C22334   1.960  11.194   8.392 -0.4924  0.3718  0.2897
  170MOL0     C22335   2.044  11.270   8.304  0.2927 -0.5256  0.0857
  170MOL0     C22336   2.025  11.407   8.297  0.7275 -0.5936  0.4054
  170MOL0     C22337   2.086  11.477   8.185 -0.4306 -0.6849 -0.7784
  170MOL0     O22338   2.192  11.416   8.130  0.3858  0.1155  0.2273
  170MOL0     C22339   2.254  11.493   8.034  0.1093  0.0309 -0.4545
  170MOL0     C22340   2.211  11.495   7.901 -0.9266  0.9292  0.2331
  170MOL0     C22341   2.276  11.583   7.815 -0.0705 -0.1669  0.1424
  170MOL0     C22342   2.378  11.675   7.853  0.0606 -1.5600  0.9501
  170MOL0     O22343   2.448  11.766   7.763  0.4083 -0.4717  0.1087
  170MOL0     C22344   2.418  11.768   7.620  0.4423 -0.6196  0.1916
  170MOL0     C22345   2.517  11.865   7.565 -0.2814  0.5759  0.1389
  170MOL0     C22346   2.668  11.838   7.581  0.1903  0.6463 -0.0504
  170MOL0     C22347   2.742  11.943   7.506 -0.3520  0.3001  0.3012
  170MOL0     C22348   2.888  11.924   7.533 -0.3930 -0.6919  0.7157
  170MOL0     C22349   2.960  11.979   7.413  0.5949  0.4896  0.2286
  170MOL0     C22350   3.053  11.879   7.353  0.0894 -0.4726  0.1328
  170MOL0     C22351   3.188  11.862   7.418 -0.6542  0.6716  0.3947
  170MOL0    Cl22352   3.255  12.024   7.441 -0.0395  0.2249 -0.0672
  170MOL0     C22353   2.432  11.656   7.974  0.3589 -1.0149  0.3030
  170MOL0     C22354   2.366  11.569   8.066 -0.5956 -0.7889  0.3855
  170MOL0     O22355   2.033  11.585   8.163  0.3839 -0.8916 -0.2753
  170MOL0     C22356   1.916  11.466   8.379  0.4514  0.4057 -0.0036
  170MOL0     C22357   1.843  11.395   8.472 -0.5645 -0.5613 -0.1416
  170MOL0     N22358   1.354  11.188   8.878  0.6212 -0.1510 -0.1365
  170MOL0     N22359   1.246  11.166   8.818  0.3336 -0.6621 -0.6518
  170MOL0     C22360   0.524  10.220   9.307 -0.4423  0.4993  0.2350
  170MOL0     C22361   0.560  10.107   9.384  0.0913 -0.1385 -0.9530
  170MOL0     C22362   0.648   9.837   9.720 -0.3530 -0.4433 -0.5070
  170MOL0     C22363   0.759   9.770   9.666  0.1130  0.1284 -1.3870
  170MOL0     C22364   0.838   9.677   9.743  0.2538 -0.5818 -0.0506
  170MOL0     C22365   0.803   9.652   9.880  0.2955 -1.1347 -0.2342
  170MOL0     O22366   0.862   9.558   9.954 -0.4091 -0.3768 -0.1502
  170MOL0     C22367   0.930   9.444   9.893  1.2551  0.2356  0.0312
  170MOL0     C22368   0.964   9.338  10.002  0.2005  0.2477 -0.1815
  170MOL0     C22369   0.850   9.285  10.091 -0.2491  0.9260 -0.0421
  170MOL0     C22370   0.903   9.186  10.198  0.0350  0.3368  0.7462
  170MOL0     C22371   0.975   9.071  10.147 -0.8280  0.2213  0.5624
  170MOL0     C22372   1.053   8.980  10.116  0.2637 -0.0783  0.1661
  170MOL0     C22373   0.695   9.716   9.929 -0.3410 -0.2743  0.5983
  170MOL0     C22374   0.612   9.804   9.854 -0.9743 -0.1177  0.6803
  170MOL0     H22375   0.768  10.266   9.605 -0.3672 -0.1131  1.0928
  170MOL0     H22376   0.695  10.472   9.460 -0.0372  0.7450 -3.3582
  170MOL0     H22377   0.454  10.362   9.081  1.2353 -0.1360 -0.0750
  170MOL0     H22378   0.630  10.337   9.105  0.1194  0.4441  0.1920
  170MOL0     H22379   0.508  10.603   9.026  0.3820 -0.6240  2.6934
  170MOL0     H22380   0.572  10.487   8.908 -0.4271  3.0773 -1.3444
  170MOL0     H22381   0.794  10.505   9.032  1.6666  1.1994  1.9312
  170MOL0     H22382   0.712  10.619   9.142  2.0507  2.2486 -1.4183
  170MOL0     H22383   0.754  10.655   8.840  1.4404  0.5882  1.2291
  170MOL0     H22384   0.665  10.765   8.942 -0.6904  0.0100 -0.9928
  170MOL0     H22385   0.961  10.687   8.996  0.3873 -0.7039 -1.1723
  170MOL0     H22386   0.873  10.834   9.052  0.8914  2.3474 -2.2162
  170MOL0     H22387   0.839  10.913   8.811  0.4072 -1.5128 -2.4805
  170MOL0     H22388   0.924  10.776   8.758 -1.7050 -0.0768  0.1679
  170MOL0     H22389   1.019  11.006   8.944 -3.7803 -2.6578  0.4565
  170MOL0     H22390   1.111  10.856   8.941  1.1114  1.6962  2.7520
  170MOL0     H22391   1.053  11.031   8.692  1.5555 -0.1821 -1.2340
  170MOL0     H22392   1.141  10.880   8.695  2.6682  1.3952 -1.8786
  170MOL0     H22393   1.389  10.879   8.776 -2.0826 -0.2037  1.3113
  170MOL0     H22394   1.594  10.951   8.920  1.3137  0.3146 -2.2607
  170MOL0     H22395   1.583  11.100   9.005  2.5437 -0.3824  0.4174
  170MOL0     H22396   1.773  11.155   8.851  2.0565 -1.3204 -1.2539
  170MOL0     H22397   1.632  11.221   8.770 -0.1256 -0.8953 -1.5771
  170MOL0     H22398   1.749  10.931   8.742  1.2326 -0.0639  0.4182
  170MOL0     H22399   1.627  10.987   8.633  1.4455 -0.1100 -0.8000
  170MOL0     H22400   1.831  11.000   8.507  1.1218  0.4187 -0.1899
  170MOL0     H22401   1.914  11.065   8.641  0.3814 -1.0845 -0.5872
  170MOL0     H22402   1.986  11.088   8.396  1.1081  0.7670  1.5663
  170MOL0     H22403   2.111  11.216   8.238  0.3808  1.9624 -2.0028
  170MOL0     H22404   2.122  11.445   7.866  0.0394 -2.0150  1.6816
  170MOL0     H22405   2.239  11.598   7.714 -1.3562  2.1510  0.8802
  170MOL0     H22406   2.316  11.805   7.603  1.4298  1.4205 -1.8115
  170MOL0     H22407   2.437  11.670   7.574  1.2614  0.3310 -1.5959
  170MOL0     H22408   2.491  11.963   7.606 -0.4584 -0.0942  1.6546
  170MOL0     H22409   2.493  11.867   7.458 -0.5901 -1.9215  0.1159
  170MOL0     H22410   2.683  11.742   7.530 -3.0810  0.1820 -0.4032
  170MOL0     H22411   2.688  11.841   7.689  0.6354 -1.4701 -0.0192
  170MOL0     H22412   2.719  11.935   7.399  0.1617  0.6838  0.1533
  170MOL0     H22413   2.711  12.044   7.532 -0.8892  0.2832 -0.2594
  170MOL0     H22414   2.904  11.817   7.550 -1.2953 -0.4037  3.9105
  170MOL0     H22415   2.924  11.972   7.624 -1.7676 -0.6163  1.2385
  170MOL0     H22416   3.010  12.066   7.456 -0.0218 -0.1234  2.3386
  170MOL0     H22417   2.891  12.013   7.337 -1.9401 -2.9025  0.7654
  170MOL0     H22418   3.000  11.784   7.347 -0.5537 -0.2641  1.7993
  170MOL0     H22419   3.068  11.916   7.251 -0.8538 -2.7346 -0.8789
  170MOL0     H22420   3.246  11.792   7.358 -2.4407 -2.3648  1.9799
  170MOL0     H22421   3.162  11.812   7.512 -1.3473 -0.2518 -0.2725
  170MOL0     H22422   2.519  11.708   8.013  2.4363 -5.8083  2.8276
  170MOL0     H22423   2.388  11.574   8.172 -1.5862 -1.3374  0.6301
  170MOL0     H22424   1.890  11.571   8.370  0.8245  0.3450 -2.7531
  170MOL0     H22425   1.774  11.441   8.542 -0.6995  0.4096 -0.8814
  170MOL0     H22426   0.450  10.213   9.229 -3.4249 -3.2026  2.9667
  170MOL0     H22427   0.526  10.006   9.361  0.8273 -1.4729  3.0294
  170MOL0     H22428   0.789   9.796   9.565  0.8064  1.4701 -0.8617
  170MOL0     H22429   0.927   9.627   9.707 -1.7922 -3.4362 -1.4954
  170MOL0     H22430   1.021   9.465   9.836  0.6936 -0.5288 -1.1728
  170MOL0     H22431   0.861   9.401   9.820  3.3584 -4.5363  0.4871
  170MOL0     H22432   0.990   9.242   9.955  0.7124 -0.5829  1.6911
  170MOL0     H22433   1.049   9.364  10.066 -1.6930  0.0326  2.6261
  170MOL0     H22434   0.770   9.238  10.033  0.4109  0.2284 -0.3955
  170MOL0     H22435   0.809   9.366  10.152  1.8630  1.1056  1.2418
  170MOL0     H22436   0.973   9.241  10.261  2.2070  0.8040 -1.9317
  170MOL0     H22437   0.822   9.145  10.260 -1.9633  1.3276 -1.1006
  170MOL0     H22438   1.136   8.915  10.098 -0.6176 -1.4599  0.9353
  170MOL0     H22439   0.669   9.692  10.031  4.0603 -1.4372  1.6733
  170MOL0     H22440   0.525   9.850   9.900 -0.6607  2.0792 -0.8029
  171MOL0     O22441   9.411   4.700   9.089 -0.0909 -0.2133  0.4435
  171MOL0     C22442   9.513   4.645   9.039 -0.9696 -0.1365 -0.3271
  171MOL0     O22443   9.511   4.538   8.957 -0.8728 -0.8607  0.2987
  171MOL0     C22444   9.392   4.479   8.935 -0.1927  0.2688  0.8810
  171MOL0     C22445   9.281   4.554   8.881  0.3893  0.6293 -0.1044
  171MOL0     C22446   9.168   4.481   8.842 -1.1899 -0.5684  0.7167
  171MOL0     C22447   9.161   4.347   8.838  0.1110 -0.7526 -1.2841
  171MOL0     O22448   9.043   4.300   8.785 -0.3763  0.3868 -0.4047
  171MOL0     C22449   9.015   4.158   8.790 -0.2954 -0.4007  0.0374
  171MOL0     C22450   9.016   4.093   8.651  0.1352 -0.3169  0.2830
  171MOL0     C22451   9.152   4.057   8.598  0.1797  0.3653  0.6102
  171MOL0     C22452   9.146   3.967   8.478 -0.1232  0.2561 -0.1520
  171MOL0     C22453   9.079   4.027   8.360  0.3991  0.7989  0.6222
  171MOL0     C22454   9.088   3.951   8.222 -0.1008  0.1133  0.7068
  171MOL0     C22455   9.231   3.923   8.170 -0.2461  0.1512  0.5527
  171MOL0     C22456   9.308   4.055   8.156 -0.0096  0.0877  0.1118
  171MOL0     N22457   9.245   4.148   8.052  0.2131  0.5001  0.5689
  171MOL0     C22458   9.259   4.139   7.915  1.5390  0.4851 -0.4431
  171MOL0     C22459   9.186   4.247   7.870  0.1349  0.8034  0.2865
  171MOL0     C22460   9.182   4.276   7.721 -0.0592  0.0910  0.7011
  171MOL0     C22461   9.049   4.276   7.656  0.4015 -0.4894 -0.8768
  171MOL0     C22462   8.954   4.384   7.710 -1.0081 -0.0669  0.0829
  171MOL0     C22463   8.818   4.380   7.642  0.8789  0.3271 -0.6152
  171MOL0     O22464   8.746   4.253   7.660 -0.0146 -0.1389 -0.2562
  171MOL0     C22465   8.610   4.243   7.623 -0.8150  0.5898  0.1418
  171MOL0     C22466   8.537   4.345   7.567  0.2928  0.0935 -0.1856
  171MOL0     C22467   8.402   4.347   7.553  0.1609  0.1641  0.0387
  171MOL0     C22468   8.329   4.236   7.581  0.4298  0.9128 -0.2228
  171MOL0     C22469   8.180   4.240   7.578  0.3155  0.5121  0.4786
  171MOL0     O22470   8.117   4.307   7.485 -0.2308  0.4816  0.2898
  171MOL0     C22471   7.985   4.309   7.470  0.2010  0.8564 -0.6622
  171MOL0     C22472   7.942   4.358   7.344  0.3462 -0.7951 -0.0583
  171MOL0     C22473   7.809   4.367   7.307  0.5287 -0.1085  0.5363
  171MOL0     C22474   7.708   4.322   7.402 -0.0012 -0.0493 -0.1113
  171MOL0     O22475   7.583   4.315   7.361  0.3042 -0.3843  0.4146
  171MOL0     C22476   7.471   4.288   7.449 -0.1274  0.3596  0.6229
  171MOL0     C22477   7.390   4.156   7.415  0.5019  0.0643 -0.6308
  171MOL0     C22478   7.244   4.153   7.465  0.0359 -0.4907  0.4049
  171MOL0     C22479   7.240   4.126   7.620  0.4805 -0.5576  0.1431
  171MOL0     C22480   7.117   4.174   7.695  0.5162 -0.0126  0.1734
  171MOL0     C22481   6.996   4.102   7.653  0.4090  0.5872 -0.7837
  171MOL0     C22482   6.868   4.139   7.734  0.6092  0.3622  0.5133
  171MOL0     C22483   6.768   4.212   7.637 -0.1776  0.7283 -0.9754
  171MOL0    Cl22484   6.633   4.284   7.739 -0.0987 -0.2377  0.2898
  171MOL0     C22485   7.745   4.283   7.530  0.0757  0.3503 -0.3564
  171MOL0     C22486   7.882   4.278   7.568 -0.8447 -0.1254 -0.0055
  171MOL0     O22487   8.130   4.180   7.668  0.1784 -0.6327 -0.1073
  171MOL0     C22488   8.400   4.124   7.633  0.0090  0.5222 -0.0632
  171MOL0     C22489   8.539   4.131   7.654  0.4549 -0.4383 -0.1591
  171MOL0     N22490   9.137   4.320   7.974  0.5056  0.5077  0.2737
  171MOL0     N22491   9.176   4.259   8.079  0.2978 -0.1541 -0.1765
  171MOL0     C22492   9.263   4.278   8.896 -0.2954  1.1060 -0.2847
  171MOL0     C22493   9.381   4.339   8.938  0.2632  0.7782  0.1715
  171MOL0     C22494   9.641   4.724   9.051  0.8853  0.0554  0.8877
  171MOL0     C22495   9.654   4.846   9.124  1.1143  0.6062 -0.3216
  171MOL0     C22496   9.786   4.893   9.157  0.2634  1.1899 -0.0877
  171MOL0     C22497   9.898   4.827   9.118 -0.5938  0.4195 -0.4554
  171MOL0     O22498  10.027   4.870   9.127 -0.0599 -0.0457  0.0270
  171MOL0     C22499  10.111   4.794   9.212  0.3081  0.4637 -0.2334
  171MOL0     C22500  10.173   4.887   9.322 -0.4882 -0.1078  0.1106
  171MOL0     C22501  10.264   4.987   9.252 -0.7075  0.1394  0.1552
  171MOL0     C22502  10.310   5.089   9.355  0.2495  0.9480  0.0283
  171MOL0     C22503  10.315   5.221   9.295 -0.0227 -0.0065 -1.0354
  171MOL0     C22504  10.318   5.335   9.252 -1.1708  0.4520  0.2868
  171MOL0     C22505   9.890   4.704   9.052 -0.2263  0.2210  0.0487
  171MOL0     C22506   9.763   4.662   9.014  0.6028 -0.3665  0.0373
  171MOL0     H22507   9.273   4.662   8.872 -0.1034  0.4336 -3.2465
  171MOL0     H22508   9.080   4.540   8.818 -0.4040  0.2719 -0.1693
  171MOL0     H22509   8.918   4.148   8.839 -0.2778 -0.3867  0.0752
  171MOL0     H22510   9.081   4.111   8.863  0.0859  2.3995  1.6346
  171MOL0     H22511   8.969   4.154   8.573  3.6765  0.0965 -1.7380
  171MOL0     H22512   8.961   3.999   8.664 -0.7007 -0.0857 -1.3426
  171MOL0     H22513   9.205   4.004   8.678 -1.8877  2.4684  3.6054
  171MOL0     H22514   9.200   4.152   8.574 -0.0360 -0.0180 -1.4892
  171MOL0     H22515   9.245   3.930   8.451 -0.6276  1.1981 -3.7897
  171MOL0     H22516   9.084   3.883   8.510 -1.0909  1.7000  2.0079
  171MOL0     H22517   9.110   4.130   8.344  0.2181  0.5580 -1.5855
  171MOL0     H22518   8.972   4.034   8.385  0.6849 -0.2279  2.3270
  171MOL0     H22519   9.031   3.999   8.142 -0.5061 -1.6548 -0.1286
  171MOL0     H22520   9.036   3.857   8.242  0.3619 -0.4037 -0.4387
  171MOL0     H22521   9.278   3.865   8.249 -0.7951  0.5056  1.1449
  171MOL0     H22522   9.233   3.871   8.074  1.4408 -0.3405  0.8227
  171MOL0     H22523   9.415   4.043   8.141  0.7847  1.3462  3.7186
  171MOL0     H22524   9.325   4.094   8.256  0.2019 -1.7611  0.8278
  171MOL0     H22525   9.308   4.071   7.847  2.0390  1.1316 -0.7363
  171MOL0     H22526   9.246   4.209   7.663 -0.6706  1.0655 -1.2010
  171MOL0     H22527   9.223   4.375   7.698  0.7261 -0.5973 -1.0018
  171MOL0     H22528   9.010   4.177   7.682  1.0960 -0.4010  0.5444
  171MOL0     H22529   9.062   4.288   7.548  1.2282  0.7503 -0.6497
  171MOL0     H22530   8.926   4.359   7.812 -1.7149 -2.7147 -0.6751
  171MOL0     H22531   9.001   4.482   7.709  1.3359 -1.1170 -0.2301
  171MOL0     H22532   8.830   4.400   7.536  0.2229 -1.4903 -1.0655
  171MOL0     H22533   8.771   4.472   7.677  1.0986  0.6058 -1.0599
  171MOL0     H22534   8.588   4.433   7.529 -1.6160  0.4470 -2.0591
  171MOL0     H22535   8.342   4.432   7.522 -3.8537 -2.0466  1.1108
  171MOL0     H22536   8.021   4.377   7.272  0.1610 -1.0538 -0.3330
  171MOL0     H22537   7.772   4.411   7.215 -0.2448  0.5333  1.1415
  171MOL0     H22538   7.414   4.381   7.447  1.7424  1.5485 -0.6963
  171MOL0     H22539   7.489   4.291   7.557 -2.7394  2.2410  1.1142
  171MOL0     H22540   7.430   4.068   7.467 -2.6231 -1.7417 -0.9977
  171MOL0     H22541   7.396   4.138   7.307  1.4363 -0.7313 -0.4594
  171MOL0     H22542   7.190   4.071   7.416 -1.5469  1.3282 -1.0547
  171MOL0     H22543   7.195   4.245   7.433  3.1397  1.6630  1.3581
  171MOL0     H22544   7.258   4.024   7.655 -0.9208 -2.0229 -3.0085
  171MOL0     H22545   7.314   4.190   7.668  1.4416 -0.5081 -1.3524
  171MOL0     H22546   7.093   4.270   7.649 -1.8613 -0.8230 -0.4315
  171MOL0     H22547   7.126   4.175   7.804 -0.4003 -0.8766  0.2727
  171MOL0     H22548   7.019   4.000   7.682  1.9528  0.6643 -1.6384
  171MOL0     H22549   6.984   4.127   7.547  1.1912  3.6343 -0.2504
  171MOL0     H22550   6.823   4.046   7.769 -0.7484  0.4242 -0.9564
  171MOL0     H22551   6.896   4.205   7.817 -1.2731  0.3281  1.2303
  171MOL0     H22552   6.729   4.144   7.561  0.4648  0.8137 -1.3967
  171MOL0     H22553   6.824   4.292   7.587  0.6632  1.2015  0.6494
  171MOL0     H22554   7.673   4.243   7.600  1.7673 -0.5514  0.9536
  171MOL0     H22555   7.904   4.242   7.667  0.4917  0.4487 -0.0688
  171MOL0     H22556   8.341   4.044   7.678 -1.7294  1.2754 -0.9219
  171MOL0     H22557   8.598   4.055   7.705  0.9744 -0.1482 -0.3254
  171MOL0     H22558   9.280   4.172   8.909  2.1157  1.3133 -1.1935
  171MOL0     H22559   9.461   4.280   8.981  0.8549  1.1167 -0.4306
  171MOL0     H22560   9.569   4.899   9.165  0.7965 -2.5105  3.6229
  171MOL0     H22561   9.799   4.988   9.207 -1.1168  1.7002 -0.6472
  171MOL0     H22562  10.187   4.744   9.150 -0.4364 -1.0317  0.0030
  171MOL0     H22563  10.065   4.715   9.272  0.4570  1.3444  1.0718
  171MOL0     H22564  10.092   4.939   9.375  0.1756 -1.3164  2.4775
  171MOL0     H22565  10.220   4.827   9.401  0.2580  0.3305  0.0120
  171MOL0     H22566  10.207   5.034   9.171  1.7496 -2.8908 -3.6988
  171MOL0     H22567  10.349   4.940   9.204  1.0587  1.4724  1.8283
  171MOL0     H22568  10.238   5.099   9.437 -0.9659  2.4440 -1.1445
  171MOL0     H22569  10.408   5.061   9.392  0.6061 -3.7230 -3.5121
  171MOL0     H22570  10.329   5.440   9.232 -0.9574  0.6943  1.5608
  171MOL0     H22571   9.981   4.652   9.026 -0.2195  0.6359 -0.7884
  171MOL0     H22572   9.764   4.566   8.963  1.3358  0.0180 -0.6943
  172MOL0     O22573  10.883   3.721   5.842  0.6109 -0.3177 -1.0460
  172MOL0     C22574  10.909   3.763   5.957 -0.1973  0.8347  0.7793
  172MOL0     O22575  11.039   3.787   6.000  0.1466 -0.1706 -0.5330
  172MOL0     C22576  11.132   3.722   5.934  0.7543 -0.2672  0.7260
  172MOL0     C22577  11.203   3.788   5.842  0.3292  0.0630 -0.0276
  172MOL0     C22578  11.310   3.724   5.783  0.3500 -0.7474 -0.1300
  172MOL0     C22579  11.324   3.583   5.796 -0.8127  0.1777  0.4947
  172MOL0     O22580  11.417   3.510   5.718  0.0202  0.6212  0.1575
  172MOL0     C22581  11.515   3.583   5.640  0.2695  0.4819 -0.7544
  172MOL0     C22582  11.602   3.498   5.553  0.7430  0.2915 -0.0454
  172MOL0     C22583  11.523   3.411   5.453  0.0196 -0.1472 -0.2042
  172MOL0     C22584  11.478   3.494   5.331  0.3753 -0.1661  0.8131
  172MOL0     C22585  11.400   3.404   5.235  1.0676 -0.2583  0.7312
  172MOL0     C22586  11.343   3.474   5.110 -0.6527 -0.8082  0.1449
  172MOL0     C22587  11.217   3.414   5.043  0.5184 -0.2482  0.1215
  172MOL0     C22588  11.222   3.263   5.037  0.3149  0.1798 -0.0560
  172MOL0     N22589  11.123   3.221   4.936  0.2143  0.0045  0.0006
  172MOL0     C22590  11.136   3.137   4.821  0.0917 -0.6582  0.3349
  172MOL0     C22591  11.005   3.132   4.765  0.3496 -0.2410 -0.1881
  172MOL0     C22592  10.964   3.056   4.644  0.8045 -0.4608  0.7239
  172MOL0     C22593  10.860   2.945   4.677 -0.1927  0.7396 -0.3382
  172MOL0     C22594  10.914   2.825   4.755 -0.8902  0.5396 -0.3806
  172MOL0     C22595  10.837   2.694   4.747 -0.7530  0.3367 -0.3724
  172MOL0     O22596  10.925   2.585   4.799 -0.2424 -0.1147  0.4426
  172MOL0     C22597  10.868   2.528   4.905 -0.6969  1.2563 -0.2042
  172MOL0     C22598  10.916   2.540   5.036 -0.1625  0.3818  0.2348
  172MOL0     C22599  10.852   2.489   5.145 -0.1382  0.1813  0.3035
  172MOL0     C22600  10.750   2.402   5.133 -0.4209  0.0685 -0.5174
  172MOL0     C22601  10.687   2.325   5.249  0.3818  0.7099  0.9452
  172MOL0     O22602  10.735   2.346   5.373 -0.0758 -0.7740 -0.1215
  172MOL0     C22603  10.718   2.244   5.468 -0.0954 -0.4490  0.5540
  172MOL0     C22604  10.706   2.104   5.450 -0.1392  0.2450  0.1644
  172MOL0     C22605  10.703   2.014   5.557  0.8438 -0.4398 -0.5169
  172MOL0     C22606  10.716   2.071   5.687  0.0211 -0.0614 -0.0148
  172MOL0     O22607  10.741   2.002   5.806 -0.4425  0.0642  0.5859
  172MOL0     C22608  10.675   1.879   5.817  0.4153 -0.1225 -0.0878
  172MOL0     C22609  10.655   1.835   5.964  0.7542 -0.2097  0.1053
  172MOL0     C22610  10.533   1.908   6.030 -1.0031  0.2651  0.7581
  172MOL0     C22611  10.470   1.846   6.154 -0.2349  0.6424  1.1539
  172MOL0     C22612  10.551   1.839   6.289  1.2183 -0.2637 -0.9575
  172MOL0     C22613  10.610   1.970   6.323  0.0074 -0.0853 -1.0162
  172MOL0     C22614  10.696   1.951   6.451  0.3993 -0.4023  0.0258
  172MOL0     C22615  10.725   2.090   6.503 -0.2306  0.1323 -0.5998
  172MOL0    Cl22616  10.833   2.098   6.656 -0.0289  0.1729  0.1111
  172MOL0     C22617  10.726   2.206   5.699  1.0024 -0.5638 -0.2911
  172MOL0     C22618  10.727   2.294   5.599  0.0156 -1.0949  0.0922
  172MOL0     O22619  10.582   2.267   5.223  0.3539 -0.4354 -0.8916
  172MOL0     C22620  10.704   2.384   5.003 -0.1903 -0.1505  0.6795
  172MOL0     C22621  10.763   2.441   4.893  0.6777  0.0223  0.8786
  172MOL0     N22622  10.917   3.204   4.844  0.6430 -0.0608  0.0789
  172MOL0     N22623  10.990   3.256   4.939  0.7793 -0.7022 -1.2339
  172MOL0     C22624  11.243   3.510   5.878  0.1046 -0.1985 -0.2329
  172MOL0     C22625  11.151   3.581   5.953 -0.1331  0.1806  0.7532
  172MOL0     C22626  10.794   3.811   6.038 -0.2426 -1.1054 -0.0795
  172MOL0     C22627  10.664   3.818   5.983  0.6069 -0.3377  0.2540
  172MOL0     C22628  10.556   3.864   6.072 -0.0362 -0.4589 -0.2201
  172MOL0     C22629  10.581   3.901   6.199  1.0404 -0.4710 -0.6715
  172MOL0     O22630  10.474   3.949   6.276 -0.0880 -0.3140 -0.0453
  172MOL0     C22631  10.432   4.089   6.252 -0.4798  0.3750  0.1588
  172MOL0     C22632  10.429   4.174   6.381 -0.1441 -1.1848  0.3459
  172MOL0     C22633  10.560   4.230   6.427 -0.1662  0.2145 -0.0384
  172MOL0     C22634  10.565   4.381   6.405 -0.7148 -1.3186 -0.0698
  172MOL0     C22635  10.692   4.437   6.431 -0.5398 -0.0819 -0.2623
  172MOL0     C22636  10.811   4.462   6.453  1.1624 -1.0216  0.2475
  172MOL0     C22637  10.711   3.904   6.251 -0.3226  0.3427  0.3585
  172MOL0     C22638  10.817   3.852   6.175 -0.4482 -0.2667 -0.4990
  172MOL0     H22639  11.173   3.891   5.829  0.3197  0.0385 -0.2023
  172MOL0     H22640  11.363   3.781   5.708 -2.1179 -2.2821 -3.3092
  172MOL0     H22641  11.589   3.635   5.702  0.9177  3.3534 -3.6868
  172MOL0     H22642  11.464   3.654   5.574  0.4958 -0.7631 -2.3441
  172MOL0     H22643  11.665   3.427   5.607 -0.4324  0.3701  1.4936
  172MOL0     H22644  11.674   3.565   5.506  1.8600 -0.0040  1.1961
  172MOL0     H22645  11.437   3.375   5.511  0.4349 -0.4608  0.2247
  172MOL0     H22646  11.584   3.323   5.433  1.2787 -0.3961  3.8241
  172MOL0     H22647  11.405   3.569   5.364  0.6321  0.9506 -1.0507
  172MOL0     H22648  11.565   3.532   5.279 -0.1194 -0.0091  0.0849
  172MOL0     H22649  11.322   3.345   5.285 -0.2146 -1.4189 -2.3367
  172MOL0     H22650  11.474   3.336   5.192  3.4833  2.4797  0.2034
  172MOL0     H22651  11.420   3.473   5.032 -2.1595  1.5459 -1.4924
  172MOL0     H22652  11.315   3.576   5.136 -2.4850 -1.4954  1.0413
  172MOL0     H22653  11.127   3.446   5.096  0.2774  1.2542 -1.1201
  172MOL0     H22654  11.201   3.459   4.944 -2.5021 -1.2341  0.0479
  172MOL0     H22655  11.186   3.226   5.133  0.0911 -0.6209 -0.4469
  172MOL0     H22656  11.318   3.218   5.011 -0.3289 -1.3883  0.1835
  172MOL0     H22657  11.222   3.082   4.784  0.4929 -1.9003  2.8835
  172MOL0     H22658  11.048   3.007   4.593 -1.4677 -2.6182 -1.2059
  172MOL0     H22659  10.920   3.112   4.560  1.2147 -2.5762 -1.0074
  172MOL0     H22660  10.834   2.913   4.576 -1.8013 -0.7942  0.5136
  172MOL0     H22661  10.773   2.980   4.733 -1.8442 -1.3950 -1.4497
  172MOL0     H22662  11.014   2.794   4.724 -1.6745 -0.2480 -2.2599
  172MOL0     H22663  10.920   2.857   4.860  0.8777 -0.9343  0.0129
  172MOL0     H22664  10.807   2.684   4.642  1.1324  1.6177 -1.0878
  172MOL0     H22665  10.745   2.712   4.802 -3.4525 -2.5779 -3.4805
  172MOL0     H22666  11.006   2.596   5.059  0.3786  0.9885 -2.9037
  172MOL0     H22667  10.903   2.507   5.239 -0.7532 -1.2145  0.9330
  172MOL0     H22668  10.707   2.061   5.351  4.1934  2.7654 -1.1642
  172MOL0     H22669  10.684   1.908   5.546 -4.4243  0.3216 -1.3881
  172MOL0     H22670  10.741   1.804   5.773  0.5110 -0.3407  0.4134
  172MOL0     H22671  10.577   1.887   5.768  0.0387  2.8038  0.9831
  172MOL0     H22672  10.748   1.867   6.011  0.3471  2.9050 -0.9998
  172MOL0     H22673  10.649   1.726   5.970 -0.5188 -0.1897 -0.5183
  172MOL0     H22674  10.451   1.908   5.957  1.0163  0.2095 -1.6323
  172MOL0     H22675  10.565   2.012   6.040 -0.5353 -0.0424  2.8118
  172MOL0     H22676  10.371   1.891   6.166 -0.0104  1.6969 -0.6172
  172MOL0     H22677  10.469   1.742   6.122  1.3078  1.0292 -0.3093
  172MOL0     H22678  10.629   1.763   6.280  1.7174  0.1348 -0.1231
  172MOL0     H22679  10.484   1.817   6.372  0.6250  1.5196 -0.9171
  172MOL0     H22680  10.534   2.047   6.341 -1.1003 -1.6868  1.8560
  172MOL0     H22681  10.671   2.004   6.239 -0.6309 -1.5981 -2.1248
  172MOL0     H22682  10.642   1.898   6.530  1.6005 -2.3553 -0.3889
  172MOL0     H22683  10.788   1.899   6.424  1.7648  1.5741  0.6906
  172MOL0     H22684  10.635   2.149   6.521  0.7948  2.4503 -2.5903
  172MOL0     H22685  10.773   2.157   6.432 -0.1216  0.7149  0.0077
  172MOL0     H22686  10.721   2.264   5.791 -5.9831 -0.1701 -0.3284
  172MOL0     H22687  10.735   2.401   5.618 -2.5198 -0.7867 -0.2347
  172MOL0     H22688  10.609   2.338   4.982  0.2817 -2.8082  3.6647
  172MOL0     H22689  10.724   2.428   4.792 -0.3394 -1.9384  1.4668
  172MOL0     H22690  11.243   3.401   5.877 -2.6170 -0.2962  1.5747
  172MOL0     H22691  11.070   3.542   6.014 -4.3487  1.5157 -3.3554
  172MOL0     H22692  10.640   3.786   5.882 -1.4512 -1.0554  0.8999
  172MOL0     H22693  10.451   3.868   6.043 -0.0518  0.8585 -0.0640
  172MOL0     H22694  10.331   4.078   6.212 -0.7109 -1.1699  1.1029
  172MOL0     H22695  10.490   4.135   6.171 -1.0129  1.9213  0.6247
  172MOL0     H22696  10.359   4.256   6.361 -0.6065 -1.8576 -0.9731
  172MOL0     H22697  10.379   4.116   6.458 -1.0945 -1.9141 -0.7837
  172MOL0     H22698  10.643   4.196   6.364  0.8411  0.8841  0.8843
  172MOL0     H22699  10.579   4.197   6.530 -0.4762 -0.3107 -0.1454
  172MOL0     H22700  10.556   4.402   6.298 -1.5243 -0.2468  0.1857
  172MOL0     H22701  10.488   4.439   6.457 -1.1040  1.6160 -3.5495
  172MOL0     H22702  10.909   4.502   6.472  0.6585  0.6272 -0.4495
  172MOL0     H22703  10.715   3.930   6.356 -3.9183 -1.7336  1.1832
  172MOL0     H22704  10.919   3.844   6.213 -0.4686 -1.3027 -0.6275
  173MOL0     O22705   2.065  11.008  10.698 -0.4609 -0.5972  0.9132
  173MOL0     C22706   2.072  11.062  10.583 -0.8018  0.0856  0.4700
  173MOL0     O22707   2.175  11.140  10.535  0.1194  0.9397 -0.1198
  173MOL0     C22708   2.294  11.149  10.600  0.6152 -0.0910 -1.0870
  173MOL0     C22709   2.313  11.178  10.737  0.4940  0.9545  0.3243
  173MOL0     C22710   2.443  11.188  10.793 -0.4254 -0.2125  0.2437
  173MOL0     C22711   2.554  11.165  10.719 -0.9331  0.2154  0.1621
  173MOL0     O22712   2.687  11.159  10.764  0.2304 -0.2260  0.3678
  173MOL0     C22713   2.717  11.176  10.907  0.6628 -0.1302 -0.0971
  173MOL0     C22714   2.857  11.132  10.927 -0.4458  0.4262 -0.6604
  173MOL0     C22715   2.886  11.172  11.069 -0.5943  0.2295 -0.2897
  173MOL0     C22716   3.019  11.094  11.103 -0.3437  0.0727  0.2776
  173MOL0     C22717   3.064  11.089  11.245  0.2662 -0.2803 -0.1171
  173MOL0     C22718   2.957  11.034  11.342  0.1589 -0.1209 -0.1678
  173MOL0     C22719   3.011  11.003  11.478  0.2428  0.5799  0.5208
  173MOL0     C22720   2.913  10.923  11.563 -0.0096  0.2825  0.1024
  173MOL0     N22721   2.779  10.994  11.561 -0.4470  0.6442 -0.1176
  173MOL0     C22722   2.738  11.110  11.624  0.5545  0.3314 -0.6239
  173MOL0     C22723   2.621  11.147  11.563 -1.0350  0.9707  0.1992
  173MOL0     C22724   2.540  11.267  11.603 -0.1241  0.6628  0.2379
  173MOL0     C22725   2.402  11.222  11.647 -0.2914  0.0425  0.7874
  173MOL0     C22726   2.319  11.342  11.684 -0.4588 -0.2114  0.5973
  173MOL0     C22727   2.180  11.297  11.744 -0.1149  0.4785  0.3776
  173MOL0     O22728   2.121  11.223  11.636  0.3709 -0.7763 -0.6456
  173MOL0     C22729   1.987  11.202  11.642  0.3830  0.0875  0.2842
  173MOL0     C22730   1.904  11.303  11.646  0.0665  0.0394 -0.1217
  173MOL0     C22731   1.761  11.281  11.644 -0.2206 -0.7152  0.0070
  173MOL0     C22732   1.714  11.153  11.643  0.1429  0.2492 -0.2650
  173MOL0     C22733   1.569  11.125  11.643 -0.0044  0.1552  0.6781
  173MOL0     O22734   1.529  11.024  11.557  0.6218  0.1028  0.1670
  173MOL0     C22735   1.399  10.990  11.535  0.2844 -0.3219  0.1992
  173MOL0     C22736   1.371  10.961  11.403  0.9674  0.8508  0.8424
  173MOL0     C22737   1.243  10.923  11.362 -0.6727  0.3438 -0.7286
  173MOL0     C22738   1.140  10.907  11.457 -0.6377  0.4260 -0.0014
  173MOL0     O22739   1.015  10.856  11.440  0.6288  0.4279  0.5274
  173MOL0     C22740   0.956  10.868  11.304  0.2161  0.7532 -0.5136
  173MOL0     C22741   0.808  10.834  11.303 -1.5888  0.0795  0.2480
  173MOL0     C22742   0.776  10.709  11.379 -0.3713 -0.2345  0.7949
  173MOL0     C22743   0.628  10.670  11.351  0.5136  0.2185  0.0554
  173MOL0     C22744   0.532  10.773  11.414 -0.3882 -0.1493  1.1283
  173MOL0     C22745   0.403  10.702  11.423  0.1562 -0.2484  0.0424
  173MOL0     C22746   0.394  10.618  11.553 -0.4187  0.4726  0.2113
  173MOL0     C22747   0.296  10.506  11.535 -1.5044 -0.0612  0.0799
  173MOL0    Cl22748   0.386  10.381  11.445  0.1419  0.3482 -0.3470
  173MOL0     C22749   1.169  10.928  11.600 -0.6332  0.4964  0.1772
  173MOL0     C22750   1.296  10.970  11.630 -0.7227 -0.0047 -0.3092
  173MOL0     O22751   1.494  11.195  11.711 -0.4610 -0.1133  0.3704
  173MOL0     C22752   1.810  11.048  11.639 -0.5510 -0.0045  0.1477
  173MOL0     C22753   1.939  11.074  11.619 -0.7563 -0.4691 -0.5778
  173MOL0     N22754   2.586  11.049  11.472  0.5558 -0.9027  0.7558
  173MOL0     N22755   2.678  10.963  11.479  0.6044 -0.0688 -0.6235
  173MOL0     C22756   2.542  11.139  10.585 -0.2019  0.1399 -0.0494
  173MOL0     C22757   2.411  11.141  10.526 -0.2940 -0.6090  0.2186
  173MOL0     C22758   1.962  11.032  10.493  0.4296  0.6895  0.3656
  173MOL0     C22759   1.957  11.090  10.367 -0.2353  0.2735 -0.0776
  173MOL0     C22760   1.863  11.061  10.268 -0.1701 -0.1630 -0.3843
  173MOL0     C22761   1.772  10.964  10.293 -0.3501 -0.5139 -0.4569
  173MOL0     O22762   1.684  10.961  10.188  0.0279  0.2195  0.6604
  173MOL0     C22763   1.559  10.906  10.204  0.5138  0.3398 -0.3999
  173MOL0     C22764   1.556  10.749  10.173  0.2760  0.4497 -0.1020
  173MOL0     C22765   1.417  10.706  10.138 -0.6147  1.0052  0.1775
  173MOL0     C22766   1.316  10.717  10.251  1.1325 -0.0446 -0.1409
  173MOL0     C22767   1.198  10.634  10.237 -0.1962  0.4352  0.4244
  173MOL0     C22768   1.113  10.558  10.196  0.0450  0.0722 -0.6501
  173MOL0     C22769   1.764  10.900  10.436  0.5514 -1.0060  0.3531
  173MOL0     C22770   1.867  10.934  10.524  0.3210 -0.0796 -0.3110
  173MOL0     H22771   2.240  11.198  10.815  0.3497  0.3425  0.3508
  173MOL0     H22772   2.450  11.207  10.900  3.6201  2.3748 -0.2674
  173MOL0     H22773   2.650  11.114  10.967 -1.0000  1.5674 -0.0923
  173MOL0     H22774   2.702  11.283  10.923  0.2869 -0.0430 -0.9470
  173MOL0     H22775   2.930  11.184  10.864 -0.4197  3.5752  1.6854
  173MOL0     H22776   2.859  11.023  10.916 -0.0446  0.0244  2.3402
  173MOL0     H22777   2.804  11.137  11.132 -1.4392  2.2473 -0.1966
  173MOL0     H22778   2.897  11.279  11.085 -0.9327  0.0753  1.0368
  173MOL0     H22779   3.013  10.997  11.052  0.5210  0.6385 -0.9581
  173MOL0     H22780   3.096  11.143  11.044 -1.0343 -0.7325 -1.3563
  173MOL0     H22781   3.090  11.191  11.274  0.4917  0.3647 -2.3826
  173MOL0     H22782   3.155  11.030  11.259 -0.2907 -1.4107 -1.0256
  173MOL0     H22783   2.940  10.933  11.302  0.2092  0.4343 -1.6632
  173MOL0     H22784   2.858  11.081  11.336 -0.2765 -0.9243 -6.2826
  173MOL0     H22785   3.100  10.940  11.466  1.2009  1.4956  2.4734
  173MOL0     H22786   3.029  11.099  11.526  0.7890  0.6129  0.2586
  173MOL0     H22787   2.941  10.935  11.668  0.2211  2.6531 -0.1841
  173MOL0     H22788   2.908  10.815  11.546  0.4133  0.0804  1.1529
  173MOL0     H22789   2.787  11.158  11.708 -1.2875 -1.1700  1.3920
  173MOL0     H22790   2.539  11.330  11.513 -3.7077 -0.0033 -0.3369
  173MOL0     H22791   2.589  11.324  11.682  0.3926  0.3904  0.1152
  173MOL0     H22792   2.407  11.157  11.735 -3.2107 -0.5511  0.6000
  173MOL0     H22793   2.353  11.173  11.563 -0.4160  2.0867 -0.4104
  173MOL0     H22794   2.372  11.393  11.764  0.1936  2.4363 -1.3913
  173MOL0     H22795   2.312  11.413  11.601  1.4777 -1.0186 -0.3264
  173MOL0     H22796   2.126  11.390  11.762  0.8909  1.2696 -0.5000
  173MOL0     H22797   2.188  11.237  11.836 -1.6133  3.3851  2.5527
  173MOL0     H22798   1.930  11.409  11.649  0.0096  0.1359 -1.9150
  173MOL0     H22799   1.693  11.365  11.656  1.4539  0.4613  2.0387
  173MOL0     H22800   1.451  10.959  11.330  1.1574  2.1062  1.0006
  173MOL0     H22801   1.233  10.902  11.256 -0.1266 -0.1126 -0.6970
  173MOL0     H22802   1.009  10.798  11.238  0.7151  0.3167  0.3204
  173MOL0     H22803   0.975  10.970  11.270  3.0157  0.5150  0.0799
  173MOL0     H22804   0.794  10.815  11.196 -0.4290  1.2870 -0.1416
  173MOL0     H22805   0.745  10.920  11.326 -2.2282 -0.0259 -1.0371
  173MOL0     H22806   0.803  10.718  11.484 -2.6429  0.8128  1.3715
  173MOL0     H22807   0.825  10.623  11.334 -0.0670  0.3668 -0.0532
  173MOL0     H22808   0.604  10.662  11.244 -1.7675 -2.3299  0.6760
  173MOL0     H22809   0.617  10.567  11.385  0.6091  0.7200  1.6725
  173MOL0     H22810   0.527  10.859  11.346 -3.1253 -0.0526  1.3443
  173MOL0     H22811   0.560  10.791  11.518 -0.4685  0.9152  0.9759
  173MOL0     H22812   0.398  10.635  11.337  2.4240 -4.0224  2.5452
  173MOL0     H22813   0.322  10.775  11.430 -0.1014 -0.4783 -0.5063
  173MOL0     H22814   0.492  10.589  11.592 -1.8045 -3.9217  1.0122
  173MOL0     H22815   0.353  10.689  11.625 -0.4825  1.6358 -0.9438
  173MOL0     H22816   0.197  10.521  11.489 -1.8365 -0.2158  0.7375
  173MOL0     H22817   0.276  10.474  11.637  2.1205 -0.1231  0.8988
  173MOL0     H22818   1.096  10.915  11.680 -2.6310 -0.3841 -1.6706
  173MOL0     H22819   1.331  10.972  11.733 -1.3407  1.4648 -0.1107
  173MOL0     H22820   1.768  10.949  11.624  1.5353 -0.8291 -0.6188
  173MOL0     H22821   2.005  10.990  11.602 -1.0539 -0.6431 -0.8822
  173MOL0     H22822   2.626  11.122  10.519 -0.1592 -2.8323  0.6500
  173MOL0     H22823   2.387  11.125  10.422 -0.0939 -0.7550  0.1966
  173MOL0     H22824   2.025  11.172  10.346  1.3268 -1.2864 -1.4291
  173MOL0     H22825   1.850  11.120  10.178 -3.3642 -1.7289 -1.0646
  173MOL0     H22826   1.489  10.957  10.138 -0.4660 -1.2039 -0.6048
  173MOL0     H22827   1.505  10.932  10.296  1.5592  2.2978 -0.2838
  173MOL0     H22828   1.620  10.732  10.086  1.9808  0.0403  1.1826
  173MOL0     H22829   1.607  10.688  10.249  1.3830 -0.6634 -1.6667
  173MOL0     H22830   1.415  10.603  10.100  2.3554  0.1269  2.0623
  173MOL0     H22831   1.401  10.773  10.053  1.1612 -0.4483 -1.4167
  173MOL0     H22832   1.368  10.694  10.344  0.3310  2.0124  0.8965
  173MOL0     H22833   1.281  10.821  10.254  0.1846 -0.3376 -0.5351
  173MOL0     H22834   1.041  10.482  10.173 -2.3955  2.2187 -0.5142
  173MOL0     H22835   1.672  10.842  10.445 -1.9392  2.3991 -0.9274
  173MOL0     H22836   1.869  10.873  10.614 -1.4630 -0.6272 -0.6059
  174MOL0     O22837   5.542   2.204   4.878 -0.3221  0.3452 -0.2364
  174MOL0     C22838   5.609   2.298   4.923 -0.5288 -0.1775 -1.1754
  174MOL0     O22839   5.584   2.434   4.910 -0.2270 -0.1281  0.0696
  174MOL0     C22840   5.488   2.479   4.824 -0.6807 -1.1244  0.2813
  174MOL0     C22841   5.516   2.593   4.747  0.0330  0.0885 -0.0532
  174MOL0     C22842   5.431   2.635   4.644  0.2822  0.4514 -0.9873
  174MOL0     C22843   5.301   2.572   4.630 -0.2122  0.0618  0.7809
  174MOL0     O22844   5.203   2.614   4.539  0.6491  0.5202 -0.1508
  174MOL0     C22845   5.228   2.735   4.473 -0.6671  0.2880  1.2415
  174MOL0     C22846   5.106   2.778   4.407  1.0767  0.1273  0.0041
  174MOL0     C22847   5.069   2.690   4.287 -0.3597  1.2636  0.1802
  174MOL0     C22848   4.948   2.741   4.212  0.1535  0.2463  0.3867
  174MOL0     C22849   4.871   2.616   4.160 -0.5412 -0.0683 -0.5735
  174MOL0     C22850   4.765   2.625   4.043  0.2200 -1.1690 -0.9434
  174MOL0     C22851   4.707   2.494   4.003 -0.9818 -0.2926 -0.5161
  174MOL0     C22852   4.780   2.408   3.906 -0.1283  0.3386 -0.8043
  174MOL0     N22853   4.711   2.287   3.880  0.3068  0.0568 -0.1719
  174MOL0     C22854   4.686   2.175   3.951 -0.5585  0.0471 -0.6854
  174MOL0     C22855   4.578   2.118   3.893 -0.1186  0.1104 -0.0720
  174MOL0     C22856   4.510   1.986   3.925 -0.6563  0.5302  0.9458
  174MOL0     C22857   4.353   1.987   3.941 -0.1271 -0.1683 -0.7025
  174MOL0     C22858   4.303   1.861   4.011  0.0113  0.1017 -0.1627
  174MOL0     C22859   4.160   1.831   3.977  1.5408  0.8227 -0.1606
  174MOL0     O22860   4.079   1.929   4.030 -0.9199 -0.4275 -0.2704
  174MOL0     C22861   3.952   1.932   3.983  0.0112 -0.1274 -0.6776
  174MOL0     C22862   3.884   2.060   4.006  0.4893 -0.0006 -0.0456
  174MOL0     C22863   3.754   2.079   3.951  0.0310  0.2243 -0.3115
  174MOL0     C22864   3.688   1.980   3.872 -0.0056 -0.0135 -0.5507
  174MOL0     C22865   3.551   2.009   3.809 -0.1280  1.2965 -0.6348
  174MOL0     O22866   3.485   2.123   3.835  0.3816 -0.4987  0.3025
  174MOL0     C22867   3.365   2.125   3.777  0.1921 -0.0502 -0.3687
  174MOL0     C22868   3.341   2.187   3.658 -0.1445 -0.1550 -0.0643
  174MOL0     C22869   3.209   2.171   3.603  0.1522 -0.5229  0.5189
  174MOL0     C22870   3.112   2.093   3.662 -0.3224 -0.2418  0.2370
  174MOL0     O22871   2.979   2.072   3.609  0.5316 -0.3578 -0.4524
  174MOL0     C22872   2.937   2.134   3.484 -0.5790 -0.2365  0.5464
  174MOL0     C22873   2.828   2.053   3.414  0.9923  0.0485 -0.4641
  174MOL0     C22874   2.695   2.067   3.492  0.5381  0.3644 -0.5230
  174MOL0     C22875   2.576   2.006   3.408 -0.2104 -0.0252  0.1266
  174MOL0     C22876   2.438   2.041   3.474 -1.4298  0.5159  0.0313
  174MOL0     C22877   2.328   2.027   3.369  0.1506 -0.6852  0.5465
  174MOL0     C22878   2.194   2.064   3.440  0.1782 -0.0679 -0.1538
  174MOL0     C22879   2.058   2.027   3.375  0.0527  0.0455 -0.4238
  174MOL0    Cl22880   2.022   2.103   3.223  0.0075 -0.1972 -0.1410
  174MOL0     C22881   3.152   2.028   3.786  0.1316  0.0195  0.4706
  174MOL0     C22882   3.275   2.043   3.839 -0.1897 -0.2319  0.4457
  174MOL0     O22883   3.511   1.915   3.739  0.6659  0.7855 -0.1400
  174MOL0     C22884   3.749   1.856   3.863  0.4844  0.6140 -0.0052
  174MOL0     C22885   3.875   1.831   3.923 -0.4174  0.6984  0.0217
  174MOL0     N22886   4.526   2.193   3.793 -0.3165 -0.3318 -0.0736
  174MOL0     N22887   4.613   2.290   3.780 -0.8508  0.4030 -0.0245
  174MOL0     C22888   5.270   2.462   4.713  0.0797  0.7362 -0.5948
  174MOL0     C22889   5.365   2.418   4.809  0.2268  0.3509 -0.5421
  174MOL0     C22890   5.736   2.256   4.994  0.3214 -0.0656  0.2100
  174MOL0     C22891   5.740   2.149   5.082 -0.4662 -0.2359  0.3181
  174MOL0     C22892   5.856   2.121   5.147 -0.2659 -0.3582  0.2481
  174MOL0     C22893   5.976   2.201   5.132 -0.0433 -0.4164 -0.4477
  174MOL0     O22894   6.097   2.174   5.193  0.0834  0.4843 -0.1294
  174MOL0     C22895   6.096   2.071   5.297  0.1706 -0.4332  0.0448
  174MOL0     C22896   6.236   2.034   5.325 -0.0481 -0.4664 -0.6044
  174MOL0     C22897   6.258   1.908   5.411  0.6212 -0.8098  0.5594
  174MOL0     C22898   6.399   1.886   5.453 -0.0481 -0.3973 -0.3158
  174MOL0     C22899   6.453   1.990   5.538 -0.2209  0.1907 -0.2445
  174MOL0     C22900   6.511   2.061   5.617  0.4869  0.9359  0.1930
  174MOL0     C22901   5.970   2.312   5.045  0.7680  0.2508  0.2120
  174MOL0     C22902   5.847   2.341   4.983 -0.9988  0.0199  0.0978
  174MOL0     H22903   5.614   2.637   4.759  1.3245 -2.7592  0.6828
  174MOL0     H22904   5.468   2.711   4.576  1.2785  2.9735  2.1562
  174MOL0     H22905   5.305   2.731   4.395  0.4856  0.7550  2.3235
  174MOL0     H22906   5.263   2.816   4.539  1.2513 -0.6059  1.4003
  174MOL0     H22907   5.116   2.881   4.371  0.8538 -0.4399 -1.7571
  174MOL0     H22908   5.021   2.783   4.476 -0.3366 -5.2293 -0.9100
  174MOL0     H22909   5.057   2.587   4.320 -0.3663  1.8340  2.0798
  174MOL0     H22910   5.139   2.688   4.202 -2.6798 -0.6765 -1.8197
  174MOL0     H22911   4.878   2.792   4.278  2.1317 -0.0563  2.8396
  174MOL0     H22912   4.973   2.806   4.128  0.3706  2.3881  2.0347
  174MOL0     H22913   4.818   2.571   4.244 -1.4428 -0.8526 -1.5317
  174MOL0     H22914   4.951   2.549   4.128 -0.3428 -0.5071  0.7772
  174MOL0     H22915   4.803   2.669   3.951  0.1318 -1.5581 -1.1685
  174MOL0     H22916   4.683   2.687   4.081  1.7157 -0.8389  2.0026
  174MOL0     H22917   4.695   2.435   4.095 -1.5132  1.4575  0.5762
  174MOL0     H22918   4.616   2.526   3.953 -1.0466  1.2764  0.5265
  174MOL0     H22919   4.881   2.398   3.946 -0.8720 -1.6960  0.7527
  174MOL0     H22920   4.792   2.454   3.808  0.8452 -2.3983 -2.0575
  174MOL0     H22921   4.748   2.135   4.030 -0.9688  0.6187 -0.0705
  174MOL0     H22922   4.547   1.927   4.009  0.6879 -2.6523 -1.6736
  174MOL0     H22923   4.521   1.924   3.835 -0.8439  3.6081 -1.3637
  174MOL0     H22924   4.300   2.001   3.847 -1.2325  0.2152 -0.0357
  174MOL0     H22925   4.334   2.079   3.997  1.4774 -1.2678  1.8190
  174MOL0     H22926   4.369   1.776   3.992  1.0095  0.7421  0.3358
  174MOL0     H22927   4.304   1.882   4.119  0.5704 -1.4012  0.1441
  174MOL0     H22928   4.136   1.738   4.029  2.0959 -0.2043 -1.6575
  174MOL0     H22929   4.141   1.814   3.871  2.0236 -1.1024  0.0376
  174MOL0     H22930   3.941   2.147   4.034  0.6915 -0.0373 -0.3339
  174MOL0     H22931   3.697   2.171   3.960 -0.6555 -0.1429 -0.8173
  174MOL0     H22932   3.426   2.237   3.613  1.3246  3.0229  5.3275
  174MOL0     H22933   3.197   2.221   3.507  1.4985  2.8614  1.9459
  174MOL0     H22934   3.024   2.139   3.419 -0.6999 -0.0505  0.4000
  174MOL0     H22935   2.899   2.235   3.497 -2.6879 -0.4696 -2.7188
  174MOL0     H22936   2.859   1.948   3.414  0.9134  0.0248 -0.5648
  174MOL0     H22937   2.818   2.079   3.308 -1.2658  0.8012 -0.1249
  174MOL0     H22938   2.674   2.167   3.530  1.0447  2.1356 -4.4797
  174MOL0     H22939   2.699   2.004   3.581 -1.1682 -0.9916 -1.3405
  174MOL0     H22940   2.585   2.046   3.307 -0.9858 -1.9057 -0.7338
  174MOL0     H22941   2.608   1.902   3.399  2.4527  0.7645 -0.6445
  174MOL0     H22942   2.450   2.147   3.499  0.7302  0.8649 -2.1151
  174MOL0     H22943   2.424   1.974   3.559  0.7014  0.6614  0.5712
  174MOL0     H22944   2.331   1.925   3.331  0.5782 -0.2761 -0.5435
  174MOL0     H22945   2.346   2.100   3.289  2.9893  0.5093  2.1282
  174MOL0     H22946   2.192   2.009   3.534  1.9296 -0.3515 -0.2523
  174MOL0     H22947   2.193   2.172   3.456 -0.9658  0.1979 -1.7540
  174MOL0     H22948   1.969   2.049   3.434 -1.3656 -1.5292 -1.8495
  174MOL0     H22949   2.051   1.919   3.361 -0.8808  0.1226 -0.5819
  174MOL0     H22950   3.092   1.949   3.828  2.5159 -2.8707 -1.1485
  174MOL0     H22951   3.303   1.980   3.923  1.7471 -1.0402 -0.7293
  174MOL0     H22952   3.693   1.770   3.827 -0.1017 -0.1255  2.4522
  174MOL0     H22953   3.897   1.725   3.922 -2.5963  0.1471 -2.8860
  174MOL0     H22954   5.175   2.411   4.709  0.9533 -0.8976 -2.3652
  174MOL0     H22955   5.329   2.334   4.868 -2.8390  1.0727 -1.2214
  174MOL0     H22956   5.651   2.088   5.093 -0.7914 -0.4090 -2.4954
  174MOL0     H22957   5.856   2.038   5.216  1.5068 -1.8371 -1.3972
  174MOL0     H22958   6.044   1.982   5.259 -0.0564 -0.4627  0.4240
  174MOL0     H22959   6.048   2.116   5.384 -1.8944  0.6789 -1.5733
  174MOL0     H22960   6.292   2.030   5.231  1.1792 -0.0978  0.0788
  174MOL0     H22961   6.283   2.119   5.375 -1.5423  1.2774 -2.0597
  174MOL0     H22962   6.228   1.819   5.355  4.6932  0.1205 -3.7807
  174MOL0     H22963   6.192   1.913   5.498  1.5615 -1.8350  1.3662
  174MOL0     H22964   6.393   1.793   5.510 -1.7616 -1.2449 -1.7482
  174MOL0     H22965   6.471   1.875   5.372 -1.0933  1.7801 -1.6226
  174MOL0     H22966   6.546   2.112   5.704  2.0885  0.6716 -0.2527
  174MOL0     H22967   6.049   2.385   5.038 -0.7314  1.8226 -1.2971
  174MOL0     H22968   5.847   2.426   4.916 -0.1782  0.4931  0.6900
  175MOL0     O22969   0.316   1.757   8.713 -0.1010  0.2719 -1.1925
  175MOL0     C22970   0.335   1.833   8.622 -0.3968 -0.4906  1.4576
  175MOL0     O22971   0.234   1.888   8.536 -0.4797  0.0235  0.8296
  175MOL0     C22972   0.102   1.856   8.563  0.0028  0.0037  0.9441
  175MOL0     C22973   0.053   1.723   8.567 -0.7647  0.1260 -0.3183
  175MOL0     C22974  -0.090   1.710   8.575 -0.2065 -0.1545 -0.1673
  175MOL0     C22975  -0.171   1.821   8.574  0.6452  0.3244  0.2247
  175MOL0     O22976  -0.309   1.807   8.575  0.2569 -0.5926  0.2521
  175MOL0     C22977  -0.388   1.867   8.471  0.2866 -0.0214  0.0609
  175MOL0     C22978  -0.511   1.932   8.538  0.1713  0.1551  0.2452
  175MOL0     C22979  -0.625   1.825   8.564 -0.7899  0.2481  0.3748
  175MOL0     C22980  -0.751   1.909   8.596  0.3180 -0.1390 -0.1092
  175MOL0     C22981  -0.871   1.828   8.645 -0.7639  0.9176 -0.3550
  175MOL0     C22982  -0.999   1.898   8.654  0.1797 -0.7146  0.5320
  175MOL0     C22983  -1.108   1.815   8.709  0.1933  1.2467 -0.2622
  175MOL0     C22984  -1.231   1.900   8.741  1.6735  0.4375  0.3294
  175MOL0     N22985  -1.281   1.994   8.640 -0.1106 -0.4814  0.3299
  175MOL0     C22986  -1.321   2.118   8.673 -0.2726 -0.1508  0.0669
  175MOL0     C22987  -1.382   2.169   8.566  0.4766  0.0580  0.4607
  175MOL0     C22988  -1.450   2.304   8.563 -0.4318  0.1747 -0.3908
  175MOL0     C22989  -1.515   2.350   8.694 -0.4401 -0.7404 -0.1939
  175MOL0     C22990  -1.616   2.464   8.691  0.5775 -0.6054 -0.2047
  175MOL0     C22991  -1.758   2.418   8.668 -0.6322  0.5472  0.5091
  175MOL0     O22992  -1.841   2.520   8.613  0.2852 -0.1982  0.1942
  175MOL0     C22993  -1.976   2.508   8.607 -0.3522  0.7148  1.2576
  175MOL0     C22994  -2.045   2.384   8.579 -0.2829  0.1336 -0.8385
  175MOL0     C22995  -2.183   2.377   8.557 -0.2931  0.7927  0.4796
  175MOL0     C22996  -2.256   2.492   8.570  0.3794  0.4799  0.3073
  175MOL0     C22997  -2.404   2.509   8.526  0.2734 -0.9868 -0.7983
  175MOL0     O22998  -2.468   2.637   8.524 -0.2861 -0.4871 -0.4587
  175MOL0     C22999  -2.594   2.642   8.475  0.2595  0.3612  0.1058
  175MOL0     C23000  -2.632   2.595   8.348  0.0246 -0.0539 -0.1674
  175MOL0     C23001  -2.765   2.593   8.321 -0.4496  0.0871 -0.1065
  175MOL0     C23002  -2.863   2.640   8.410 -0.6042 -0.2138  0.2235
  175MOL0     O23003  -2.998   2.637   8.376  0.6431  0.4582  0.1012
  175MOL0     C23004  -3.031   2.576   8.245  0.2248  0.0150  0.1519
  175MOL0     C23005  -3.180   2.604   8.221 -0.5785 -0.3462  0.5640
  175MOL0     C23006  -3.198   2.751   8.209  0.2600  0.1166 -0.8204
  175MOL0     C23007  -3.344   2.793   8.175  0.4431 -0.0015  0.0545
  175MOL0     C23008  -3.345   2.935   8.129 -0.1469  0.4862 -0.4734
  175MOL0     C23009  -3.310   3.030   8.247 -0.2241  0.3264 -0.1162
  175MOL0     C23010  -3.324   3.171   8.193 -0.0304 -0.1922 -0.4091
  175MOL0     C23011  -3.195   3.220   8.124  0.1529  0.6104 -0.5757
  175MOL0    Cl23012  -3.210   3.400   8.108 -0.0283  0.0867 -0.1445
  175MOL0     C23013  -2.826   2.697   8.533  0.1910  0.2545  0.1192
  175MOL0     C23014  -2.693   2.703   8.556 -1.1188  0.0511  0.0982
  175MOL0     O23015  -2.470   2.405   8.512 -0.9350 -0.4438  0.6360
  175MOL0     C23016  -2.199   2.615   8.592 -0.7394 -0.7601 -0.6082
  175MOL0     C23017  -2.058   2.620   8.617  0.3736 -0.2928  0.2972
  175MOL0     N23018  -1.370   2.077   8.462  0.3260  0.0390 -0.0279
  175MOL0     N23019  -1.309   1.977   8.509  0.7296 -0.3516  0.4289
  175MOL0     C23020  -0.114   1.952   8.564  0.0646  0.6631  0.1648
  175MOL0     C23021   0.024   1.972   8.556 -0.5927  0.0676  0.3358
  175MOL0     C23022   0.467   1.894   8.591 -0.0766 -0.1034  0.2315
  175MOL0     C23023   0.571   1.899   8.687 -0.6260  0.3583 -1.4733
  175MOL0     C23024   0.698   1.957   8.664  0.1085 -0.3035  0.2154
  175MOL0     C23025   0.734   1.998   8.533  0.1316  0.1772  0.5833
  175MOL0     O23026   0.849   2.070   8.500  1.0293 -0.1384 -0.4386
  175MOL0     C23027   0.969   2.051   8.569 -0.0868 -1.4207 -0.3487
  175MOL0     C23028   1.089   2.093   8.472  0.1935 -0.4881  0.8013
  175MOL0     C23029   1.229   2.084   8.540  0.7747  0.4826 -0.3239
  175MOL0     C23030   1.281   1.942   8.542 -0.2494 -0.4689  0.8639
  175MOL0     C23031   1.413   1.938   8.607  0.1947 -0.4106  0.2054
  175MOL0     C23032   1.519   1.930   8.657 -0.2218 -0.5659  0.2180
  175MOL0     C23033   0.629   2.006   8.436 -0.3608  0.1369 -0.1625
  175MOL0     C23034   0.502   1.952   8.461 -0.3662 -0.3490 -1.1283
  175MOL0     H23035   0.119   1.639   8.550 -2.2270 -1.4266  1.2805
  175MOL0     H23036  -0.134   1.612   8.565 -0.0679 -0.1516 -0.9245
  175MOL0     H23037  -0.420   1.785   8.406 -0.8542 -0.0151  0.5932
  175MOL0     H23038  -0.333   1.941   8.412 -0.7713 -0.4648 -1.5336
  175MOL0     H23039  -0.545   2.011   8.470 -0.9368 -0.4204  0.1006
  175MOL0     H23040  -0.483   1.982   8.631  1.1026 -1.6285  0.9556
  175MOL0     H23041  -0.609   1.756   8.647  2.4534 -0.4307 -0.6880
  175MOL0     H23042  -0.634   1.761   8.475 -1.5976 -1.5158  1.6784
  175MOL0     H23043  -0.723   1.977   8.677  1.4667 -1.0170  0.2484
  175MOL0     H23044  -0.780   1.966   8.508  1.4327 -1.8060 -1.6198
  175MOL0     H23045  -0.843   1.799   8.747 -1.3739  1.9892  0.1340
  175MOL0     H23046  -0.876   1.740   8.580  0.3199  1.4867 -1.2503
  175MOL0     H23047  -1.038   1.936   8.559 -1.9407 -1.1971  1.1592
  175MOL0     H23048  -0.988   1.991   8.711  4.6172  0.0695 -1.2079
  175MOL0     H23049  -1.129   1.726   8.648  0.6416  0.4166  0.7557
  175MOL0     H23050  -1.084   1.774   8.808 -1.2870  1.7166  0.3242
  175MOL0     H23051  -1.220   1.956   8.835  0.3320  3.5510 -1.1991
  175MOL0     H23052  -1.311   1.826   8.753  0.4538  1.9199  1.8914
  175MOL0     H23053  -1.321   2.153   8.775 -1.7722 -0.3430  0.1492
  175MOL0     H23054  -1.527   2.304   8.485  0.4378 -3.0330 -1.3918
  175MOL0     H23055  -1.382   2.387   8.542 -1.0627  1.9786  3.8341
  175MOL0     H23056  -1.436   2.385   8.761 -1.7641 -0.5501  1.3453
  175MOL0     H23057  -1.556   2.263   8.747 -0.6899 -0.8335 -0.5390
  175MOL0     H23058  -1.610   2.503   8.793 -0.1929 -0.2666 -0.2800
  175MOL0     H23059  -1.595   2.534   8.609  0.3882 -0.7697 -0.3935
  175MOL0     H23060  -1.781   2.367   8.763  3.8256  1.4263  2.3281
  175MOL0     H23061  -1.746   2.338   8.594  0.5373  0.4016  0.8333
  175MOL0     H23062  -1.984   2.295   8.570  0.5471  0.6016  0.0036
  175MOL0     H23063  -2.218   2.280   8.523  1.4976  0.3304 -0.1823
  175MOL0     H23064  -2.556   2.558   8.281  0.2585  0.7517 -0.3543
  175MOL0     H23065  -2.790   2.552   8.224  0.3356 -2.6995  0.7747
  175MOL0     H23066  -3.001   2.472   8.230  0.1162 -0.1526  1.0526
  175MOL0     H23067  -2.970   2.633   8.174 -0.3249  1.3407  0.7040
  175MOL0     H23068  -3.252   2.567   8.295 -3.0643  2.3647 -0.3215
  175MOL0     H23069  -3.197   2.561   8.122  0.1418  2.5157 -0.9172
  175MOL0     H23070  -3.126   2.792   8.137  1.0534  1.9404  0.8976
  175MOL0     H23071  -3.178   2.807   8.301 -1.8149 -1.1013  0.4378
  175MOL0     H23072  -3.381   2.733   8.091 -3.9099  3.5457 -0.9391
  175MOL0     H23073  -3.401   2.766   8.265  1.3368 -1.1917  0.2833
  175MOL0     H23074  -3.446   2.956   8.094 -0.5378 -0.1849  0.2175
  175MOL0     H23075  -3.281   2.941   8.040 -2.1386 -0.7044 -2.0606
  175MOL0     H23076  -3.212   3.016   8.293  0.2169  0.1371 -1.0984
  175MOL0     H23077  -3.386   3.018   8.326 -2.3220  0.0919 -2.0589
  175MOL0     H23078  -3.413   3.167   8.130  1.9014  2.2202 -3.5808
  175MOL0     H23079  -3.357   3.241   8.270 -0.4185 -0.5876 -0.2119
  175MOL0     H23080  -3.186   3.174   8.025 -0.7265 -1.7398  0.3684
  175MOL0     H23081  -3.111   3.208   8.193 -1.6407 -0.1761  1.5730
  175MOL0     H23082  -2.907   2.726   8.599 -0.6565  0.6212 -1.0520
  175MOL0     H23083  -2.656   2.739   8.652 -1.2964  1.7672 -0.4426
  175MOL0     H23084  -2.261   2.704   8.597 -0.2838 -0.4954  0.9675
  175MOL0     H23085  -2.019   2.719   8.640  0.3421 -0.0639 -0.5929
  175MOL0     H23086  -0.180   2.038   8.570 -2.5208 -1.2827  1.8931
  175MOL0     H23087   0.059   2.075   8.553 -1.2134  0.3806 -4.6763
  175MOL0     H23088   0.550   1.856   8.784  2.5423  0.5999 -0.5614
  175MOL0     H23089   0.768   1.952   8.747 -0.9621 -0.3893  1.1401
  175MOL0     H23090   0.980   1.946   8.597 -2.0329 -1.7844 -0.8191
  175MOL0     H23091   0.962   2.116   8.656 -0.2960  1.5733 -2.4463
  175MOL0     H23092   1.093   2.029   8.383 -0.9852 -2.3114  1.9802
  175MOL0     H23093   1.070   2.193   8.433  2.4890 -0.2255  0.2353
  175MOL0     H23094   1.221   2.134   8.636  1.4269  0.5099 -0.2777
  175MOL0     H23095   1.299   2.142   8.479 -0.6185  0.7082 -1.7868
  175MOL0     H23096   1.209   1.872   8.586 -0.6310 -0.0122  0.9703
  175MOL0     H23097   1.309   1.924   8.438  0.8123  1.3251  0.8026
  175MOL0     H23098   1.620   1.913   8.686  0.4879  2.7864  0.0446
  175MOL0     H23099   0.649   2.054   8.341  0.3867  2.7023  1.2126
  175MOL0     H23100   0.428   1.938   8.383  0.2558 -4.6296 -1.2076
  176MOL0     O23101   3.099   6.601   2.701  0.5160  0.1040  0.0393
  176MOL0     C23102   3.105   6.476   2.717 -0.1825 -0.5670  0.2157
  176MOL0     O23103   2.996   6.393   2.735  0.0988 -0.1844  0.4656
  176MOL0     C23104   2.870   6.416   2.685 -0.4444 -0.3930  0.0565
  176MOL0     C23105   2.848   6.486   2.570  0.3910  0.4975  0.0093
  176MOL0     C23106   2.728   6.492   2.513  0.6054  0.3094 -0.2544
  176MOL0     C23107   2.626   6.420   2.574 -0.0845 -0.0803  0.3230
  176MOL0     O23108   2.510   6.437   2.504  0.0978  0.2659 -0.1261
  176MOL0     C23109   2.387   6.377   2.545  0.4880  0.0920 -1.1700
  176MOL0     C23110   2.305   6.412   2.428 -0.4250 -0.2324  0.8985
  176MOL0     C23111   2.154   6.421   2.468 -0.3235  0.3582 -0.4813
  176MOL0     C23112   2.080   6.284   2.467  1.3304 -0.4860  0.0206
  176MOL0     C23113   1.926   6.301   2.490  0.1205 -1.5607 -0.1606
  176MOL0     C23114   1.905   6.323   2.634  0.4570  0.2244  0.0837
  176MOL0     C23115   1.760   6.370   2.668 -0.1319  0.0621  0.3972
  176MOL0     C23116   1.728   6.516   2.677  0.9452 -0.4883  0.5725
  176MOL0     N23117   1.598   6.534   2.732  0.6619  0.1889  0.0814
  176MOL0     C23118   1.495   6.544   2.644  0.1622  0.1541  0.9074
  176MOL0     C23119   1.383   6.580   2.715 -0.0251 -0.7959 -0.2538
  176MOL0     C23120   1.238   6.605   2.678  0.1845  0.0663  0.0172
  176MOL0     C23121   1.172   6.476   2.608 -0.1101  0.1161 -0.0972
  176MOL0     C23122   1.130   6.378   2.725 -0.3401  0.2556 -0.0330
  176MOL0     C23123   1.009   6.429   2.807  0.7195  0.6307  0.1600
  176MOL0     O23124   0.903   6.436   2.710 -0.0404 -0.6992 -0.2992
  176MOL0     C23125   0.783   6.499   2.742 -0.2645  0.7168 -0.7360
  176MOL0     C23126   0.761   6.562   2.862 -0.8965  0.5860 -0.2964
  176MOL0     C23127   0.644   6.634   2.890 -0.4908  0.9498  0.0903
  176MOL0     C23128   0.547   6.632   2.794  1.1695  0.0084  0.4214
  176MOL0     C23129   0.410   6.688   2.834 -1.1034 -0.0455 -0.2302
  176MOL0     O23130   0.301   6.675   2.745  0.2455  0.0223 -0.2875
  176MOL0     C23131   0.187   6.728   2.802  0.3840 -0.0603  0.6962
  176MOL0     C23132   0.168   6.868   2.807 -0.6857 -0.3131  0.1706
  176MOL0     C23133   0.056   6.923   2.866  0.1880 -1.0701 -0.6771
  176MOL0     C23134  -0.045   6.833   2.904  0.3177 -0.4791  0.8896
  176MOL0     O23135  -0.160   6.879   2.963 -0.2787 -0.1056 -0.9333
  176MOL0     C23136  -0.245   6.952   2.872  0.2123  0.1991 -0.9918
  176MOL0     C23137  -0.386   6.971   2.933 -0.3862  0.2422 -0.4147
  176MOL0     C23138  -0.385   7.022   3.082 -0.0233  0.3412  0.4914
  176MOL0     C23139  -0.519   7.083   3.113  0.2559 -0.1829 -1.3421
  176MOL0     C23140  -0.509   7.117   3.267  0.3449  0.2917 -0.6821
  176MOL0     C23141  -0.622   7.193   3.330  0.5025  0.4364 -0.3702
  176MOL0     C23142  -0.754   7.122   3.311  1.0428  0.5337 -0.0228
  176MOL0     C23143  -0.803   7.057   3.434 -0.6234  0.2080  0.3136
  176MOL0    Cl23144  -0.961   7.001   3.387  0.1589  0.4020 -0.5006
  176MOL0     C23145  -0.022   6.701   2.910  0.3434  0.7027  1.0926
  176MOL0     C23146   0.091   6.648   2.862  0.2634 -0.1559  0.2721
  176MOL0     O23147   0.405   6.746   2.941 -0.0029  0.2341  0.0890
  176MOL0     C23148   0.565   6.568   2.675  0.5061 -0.2521  0.0945
  176MOL0     C23149   0.686   6.504   2.650  0.9796  0.1147 -0.5348
  176MOL0     N23150   1.420   6.592   2.856 -0.3905  0.3880 -0.6576
  176MOL0     N23151   1.549   6.577   2.853  0.2756  1.0654  0.0898
  176MOL0     C23152   2.639   6.348   2.697  0.4390  0.4838  0.1391
  176MOL0     C23153   2.761   6.350   2.752 -0.2336 -0.6646 -0.1425
  176MOL0     C23154   3.241   6.423   2.733 -0.1178  0.1064 -0.1303
  176MOL0     C23155   3.349   6.500   2.779 -1.3706  0.3999  0.1425
  176MOL0     C23156   3.472   6.432   2.815  0.4935 -1.0401 -0.2592
  176MOL0     C23157   3.495   6.298   2.796  0.7341 -0.3042 -0.7339
  176MOL0     O23158   3.606   6.240   2.850 -0.7011 -0.2526 -0.2306
  176MOL0     C23159   3.597   6.150   2.962 -0.4827  0.8041 -0.6047
  176MOL0     C23160   3.565   6.222   3.095 -0.4538  0.3519  0.2112
  176MOL0     C23161   3.685   6.311   3.133  0.1005 -0.9723 -0.1635
  176MOL0     C23162   3.647   6.442   3.212 -0.1989 -0.8154  0.0974
  176MOL0     C23163   3.768   6.517   3.217 -0.0635 -0.3780  0.9749
  176MOL0     C23164   3.868   6.579   3.222  0.1474  0.9206 -0.5398
  176MOL0     C23165   3.390   6.227   2.739  0.2672 -0.1969  0.6052
  176MOL0     C23166   3.273   6.288   2.709  0.9773  0.0329  0.0906
  176MOL0     H23167   2.928   6.545   2.527  0.1418  0.1527 -0.9584
  176MOL0     H23168   2.716   6.549   2.421  1.6605  2.2120  0.7063
  176MOL0     H23169   2.365   6.409   2.647  3.0141  0.0231 -0.5320
  176MOL0     H23170   2.407   6.269   2.545  0.8751  0.0887  1.6386
  176MOL0     H23171   2.325   6.355   2.337  0.6779  2.2785 -0.5300
  176MOL0     H23172   2.336   6.512   2.396  1.3937 -0.4464  1.8286
  176MOL0     H23173   2.114   6.487   2.391  2.5863  4.1524  0.9244
  176MOL0     H23174   2.136   6.475   2.561 -1.6632 -0.7565 -0.0509
  176MOL0     H23175   2.080   6.235   2.369  0.2138  0.2493 -0.3786
  176MOL0     H23176   2.130   6.214   2.534  1.1413 -1.1318 -0.4925
  176MOL0     H23177   1.874   6.212   2.454  0.4472 -1.8753  0.1235
  176MOL0     H23178   1.895   6.387   2.431 -0.6590 -0.7002  1.4386
  176MOL0     H23179   1.980   6.393   2.673  0.1343 -0.8214  2.7920
  176MOL0     H23180   1.919   6.235   2.697 -1.3407  2.5790  4.1656
  176MOL0     H23181   1.688   6.321   2.602  1.9332 -1.3765 -0.9277
  176MOL0     H23182   1.744   6.325   2.766 -0.1807  0.3522  0.5239
  176MOL0     H23183   1.732   6.569   2.581 -4.4995  1.5482  1.0877
  176MOL0     H23184   1.805   6.554   2.745  0.4614 -1.4166  1.6650
  176MOL0     H23185   1.505   6.533   2.537 -0.3573  0.7210  0.7947
  176MOL0     H23186   1.238   6.690   2.609  1.4468  0.3855  0.3871
  176MOL0     H23187   1.191   6.635   2.772  0.4514 -1.3881  0.6345
  176MOL0     H23188   1.256   6.433   2.552  0.1087  1.8956 -1.2170
  176MOL0     H23189   1.093   6.508   2.540  0.3193 -1.5875 -1.4673
  176MOL0     H23190   1.118   6.274   2.691 -0.3442  0.7665 -1.6980
  176MOL0     H23191   1.211   6.377   2.798 -0.4069 -4.0240  0.2708
  176MOL0     H23192   1.021   6.529   2.849 -1.9166  0.1036  2.4773
  176MOL0     H23193   0.997   6.362   2.893  0.5834  1.0396  0.4584
  176MOL0     H23194   0.822   6.550   2.950 -1.8102  0.5588  0.3520
  176MOL0     H23195   0.639   6.688   2.984 -3.1245 -0.4577  0.8645
  176MOL0     H23196   0.238   6.929   2.751 -0.0993  0.8133  2.0062
  176MOL0     H23197   0.034   7.029   2.869  1.3952 -0.8055 -0.7813
  176MOL0     H23198  -0.260   6.910   2.772 -3.9602  0.9024 -0.8447
  176MOL0     H23199  -0.191   7.046   2.862  1.9379 -0.6140  0.1378
  176MOL0     H23200  -0.447   6.881   2.930 -0.2446  0.1480 -0.4641
  176MOL0     H23201  -0.431   7.050   2.872  0.6356  1.0511 -0.1468
  176MOL0     H23202  -0.300   7.089   3.094  1.0535 -0.8552 -0.1600
  176MOL0     H23203  -0.376   6.933   3.144  0.7125 -0.2957 -0.4851
  176MOL0     H23204  -0.543   7.172   3.055 -0.9635 -2.1840 -4.1507
  176MOL0     H23205  -0.595   7.008   3.091 -0.9443  0.8074 -0.6728
  176MOL0     H23206  -0.424   7.184   3.283  1.3938 -1.2901  0.6822
  176MOL0     H23207  -0.502   7.024   3.324  0.0281  0.2827 -0.6544
  176MOL0     H23208  -0.625   7.283   3.268 -2.0445  1.1371  0.6587
  176MOL0     H23209  -0.603   7.213   3.435  1.1494 -0.8238 -0.2229
  176MOL0     H23210  -0.837   7.190   3.289 -0.6855 -0.4167  2.9117
  176MOL0     H23211  -0.736   7.050   3.230  4.5908  1.1193  0.0960
  176MOL0     H23212  -0.812   7.127   3.518 -2.4976  0.9344 -0.4517
  176MOL0     H23213  -0.745   6.967   3.459 -1.8278 -0.8423 -0.5476
  176MOL0     H23214  -0.095   6.627   2.940  1.5524 -1.0381 -0.0064
  176MOL0     H23215   0.099   6.541   2.874  2.7349 -0.1875 -0.9652
  176MOL0     H23216   0.497   6.568   2.590  1.0595 -1.9680 -0.3927
  176MOL0     H23217   0.693   6.453   2.554 -1.4492 -1.4080  0.0048
  176MOL0     H23218   2.556   6.288   2.734  0.4202 -1.4719 -2.7299
  176MOL0     H23219   2.779   6.297   2.844  0.6165 -1.3165 -0.6657
  176MOL0     H23220   3.335   6.607   2.792 -0.8119  0.8812 -2.5494
  176MOL0     H23221   3.562   6.488   2.839  0.3803 -0.4708 -1.1029
  176MOL0     H23222   3.688   6.089   2.957 -1.1337 -0.1077 -3.4536
  176MOL0     H23223   3.516   6.080   2.938  0.7078 -0.5212 -0.9114
  176MOL0     H23224   3.470   6.275   3.086 -1.3249 -0.9307  1.4363
  176MOL0     H23225   3.544   6.157   3.181  0.6187  0.6033  0.6752
  176MOL0     H23226   3.739   6.330   3.039  0.2008 -3.9570 -0.8058
  176MOL0     H23227   3.750   6.253   3.200  1.2281  0.8329  0.3691
  176MOL0     H23228   3.570   6.503   3.164  0.6654 -0.7162 -1.2036
  176MOL0     H23229   3.607   6.420   3.311 -1.3498  3.8863  0.9610
  176MOL0     H23230   3.949   6.649   3.232 -0.0194  0.9905  0.3772
  176MOL0     H23231   3.394   6.119   2.725  0.6494  0.1185 -2.2428
  176MOL0     H23232   3.190   6.223   2.683  0.6825 -0.1112  1.3164
  177MOL0     O23233   6.347   6.610  10.534 -0.3824  0.0491  0.2746
  177MOL0     C23234   6.302   6.693  10.456 -0.8313  0.1484 -0.5751
  177MOL0     O23235   6.375   6.773  10.374 -0.3192  0.1868 -0.2941
  177MOL0     C23236   6.509   6.746  10.341  0.2328 -0.2726 -0.3892
  177MOL0     C23237   6.544   6.657  10.242  0.4193 -0.2018  0.3629
  177MOL0     C23238   6.681   6.636  10.208 -0.0300 -0.1460  1.6454
  177MOL0     C23239   6.780   6.703  10.276 -0.4948 -1.0046 -0.2727
  177MOL0     O23240   6.917   6.674  10.248  0.5961 -0.1671 -0.2956
  177MOL0     C23241   7.018   6.758  10.309  0.1308  0.1370  0.0738
  177MOL0     C23242   7.157   6.728  10.247  0.3866  0.2509 -0.4236
  177MOL0     C23243   7.261   6.835  10.288  0.5303 -0.1149  0.4834
  177MOL0     C23244   7.396   6.770  10.244  0.6801  0.2946 -0.3026
  177MOL0     C23245   7.511   6.843  10.304 -0.0538  0.7803  0.0608
  177MOL0     C23246   7.557   6.962  10.230 -0.3673 -0.1673  0.9697
  177MOL0     C23247   7.561   7.082  10.327  0.3989  0.4054 -0.0571
  177MOL0     C23248   7.679   7.069  10.432 -0.8092  0.7754 -0.9186
  177MOL0     N23249   7.803   7.004  10.371  0.0209 -0.4024  0.7666
  177MOL0     C23250   7.892   7.063  10.284 -0.8413  0.0226  0.0264
  177MOL0     C23251   7.958   6.958  10.236 -0.9087  0.6853  0.0814
  177MOL0     C23252   8.058   6.955  10.119  0.1887 -0.4205 -0.9451
  177MOL0     C23253   8.198   6.975  10.157 -0.1791 -0.5734 -0.2790
  177MOL0     C23254   8.294   7.014  10.042 -0.5277  0.1680  0.3039
  177MOL0     C23255   8.433   7.011  10.098 -1.2250 -0.1654  0.0889
  177MOL0     O23256   8.460   7.120  10.191 -0.0598 -0.8221  0.1058
  177MOL0     C23257   8.580   7.147  10.252  0.5280  0.0999 -0.7684
  177MOL0     C23258   8.584   7.244  10.352 -0.3248  0.0678  1.0559
  177MOL0     C23259   8.700   7.281  10.424  0.3039  0.1426 -0.0731
  177MOL0     C23260   8.819   7.218  10.394 -0.7041 -1.5153  0.0641
  177MOL0     C23261   8.940   7.271  10.460  0.0704  1.0185  0.6174
  177MOL0     O23262   9.062   7.214  10.426  0.2464 -0.2910 -0.3289
  177MOL0     C23263   9.177   7.262  10.490  1.0726  0.1598 -0.0482
  177MOL0     C23264   9.225   7.196  10.604  0.0644 -0.5040 -0.1176
  177MOL0     C23265   9.349   7.225  10.662  0.5328  0.0227 -0.5994
  177MOL0     C23266   9.429   7.321  10.590  0.7249  1.7575 -0.3569
  177MOL0     O23267   9.554   7.351  10.645 -0.0220 -0.1506  0.4374
  177MOL0     C23268   9.572   7.363  10.785  0.0892 -0.0232  0.2861
  177MOL0     C23269   9.713   7.387  10.817  0.3379 -1.1324 -0.5272
  177MOL0     C23270   9.773   7.510  10.753 -0.9187 -0.5840  0.8514
  177MOL0     C23271   9.920   7.519  10.800 -0.2764  0.0830 -1.4754
  177MOL0     C23272  10.006   7.606  10.716 -0.0641  0.3245  0.2962
  177MOL0     C23273  10.072   7.532  10.603 -1.2224  0.2115  0.4710
  177MOL0     C23274  10.158   7.626  10.515 -1.0886  1.3181  0.2977
  177MOL0     C23275  10.251   7.541  10.426  0.0739  0.1731 -0.1554
  177MOL0    Cl23276  10.391   7.477  10.528 -0.2167 -0.0333  0.1124
  177MOL0     C23277   9.376   7.389  10.475  0.4600  0.7625  0.1995
  177MOL0     C23278   9.253   7.357  10.422  1.3071  0.9076 -1.0693
  177MOL0     O23279   8.925   7.359  10.543  0.4373 -0.5583  0.2447
  177MOL0     C23280   8.823   7.118  10.296  0.6532 -0.1872  0.3893
  177MOL0     C23281   8.703   7.084  10.221  0.4265  0.5421 -0.3829
  177MOL0     N23282   7.928   6.842  10.309 -1.0289  1.0665  0.0175
  177MOL0     N23283   7.835   6.874  10.385 -0.5494  0.1123  0.0821
  177MOL0     C23284   6.739   6.795  10.377  0.0369  0.5965  0.2168
  177MOL0     C23285   6.603   6.820  10.409  0.3853  0.6012 -0.5441
  177MOL0     C23286   6.157   6.717  10.466 -0.1709  0.3224  0.0892
  177MOL0     C23287   6.093   6.780  10.355 -0.5859  0.3883  0.0452
  177MOL0     C23288   5.955   6.783  10.351 -0.8065 -0.0299  0.1573
  177MOL0     C23289   5.878   6.740  10.455  1.3161 -0.4278 -0.3850
  177MOL0     O23290   5.745   6.759  10.457  1.0225 -1.3503 -0.3424
  177MOL0     C23291   5.666   6.668  10.373  0.0300  0.0655 -0.8610
  177MOL0     C23292   5.665   6.522  10.413 -1.4114 -1.0553  0.0728
  177MOL0     C23293   5.549   6.440  10.341 -0.6974 -0.5528 -0.7549
  177MOL0     C23294   5.543   6.293  10.394 -0.1247  0.1557  0.3129
  177MOL0     C23295   5.452   6.209  10.312  0.4796  0.2239  0.5154
  177MOL0     C23296   5.378   6.133  10.251  0.1375  0.3941 -0.5936
  177MOL0     C23297   5.936   6.682  10.575 -0.8463  0.0959 -0.0621
  177MOL0     C23298   6.082   6.675  10.579 -0.3819 -0.5023  0.6254
  177MOL0     H23299   6.466   6.602  10.191  0.8201 -0.4046 -0.0374
  177MOL0     H23300   6.702   6.576  10.121 -3.4197 -0.7196  1.0899
  177MOL0     H23301   7.019   6.748  10.418 -1.7303  1.5335  0.2894
  177MOL0     H23302   7.011   6.862  10.277  2.2818  0.2174 -0.2878
  177MOL0     H23303   7.141   6.716  10.139  1.6642  0.5308 -0.6598
  177MOL0     H23304   7.195   6.635  10.290 -3.7547 -0.7437  1.6244
  177MOL0     H23305   7.247   6.855  10.395 -4.6415 -0.1729  0.0494
  177MOL0     H23306   7.248   6.933  10.241  0.9674  0.5024  1.5967
  177MOL0     H23307   7.394   6.667  10.281  0.9169 -0.0004 -1.0935
  177MOL0     H23308   7.402   6.771  10.135  0.3473  0.9360 -0.3223
  177MOL0     H23309   7.592   6.771  10.290 -0.4623  0.8274 -3.7974
  177MOL0     H23310   7.511   6.857  10.412 -0.7259 -2.1893  0.5364
  177MOL0     H23311   7.485   6.976  10.149 -0.5937  2.1982  1.5023
  177MOL0     H23312   7.648   6.943  10.172 -0.7493  0.2807  0.2180
  177MOL0     H23313   7.575   7.175  10.270 -1.6783  2.4490  2.5175
  177MOL0     H23314   7.467   7.106  10.377 -0.2496  0.9621 -1.4838
  177MOL0     H23315   7.659   7.008  10.521  4.0448  2.6910  1.8629
  177MOL0     H23316   7.697   7.174  10.457 -1.7155  0.5776  0.7478
  177MOL0     H23317   7.890   7.165  10.245 -2.0472  0.0047  0.0215
  177MOL0     H23318   8.026   7.038  10.056  0.5527 -0.3024 -0.9728
  177MOL0     H23319   8.038   6.866  10.058  2.5179 -1.2500 -0.6240
  177MOL0     H23320   8.234   6.885  10.208 -0.2242 -0.3041  0.2369
  177MOL0     H23321   8.203   7.059  10.228 -1.5860  0.2000 -1.0581
  177MOL0     H23322   8.289   6.933   9.969  0.1576 -0.8556  1.3617
  177MOL0     H23323   8.272   7.116  10.007 -0.3999 -0.5795 -2.1575
  177MOL0     H23324   8.507   7.016  10.017 -1.1120 -0.9962  0.1359
  177MOL0     H23325   8.440   6.914  10.147 -2.7368  0.5291  1.8098
  177MOL0     H23326   8.489   7.284  10.385 -0.8107 -2.9547  3.8405
  177MOL0     H23327   8.685   7.360  10.496 -1.8224 -0.5416  0.3127
  177MOL0     H23328   9.148   7.136  10.652 -1.6060  1.9965  0.4938
  177MOL0     H23329   9.384   7.175  10.751 -0.1292 -0.8250 -0.8028
  177MOL0     H23330   9.548   7.269  10.836  2.0250 -0.4785  0.4363
  177MOL0     H23331   9.509   7.447  10.814 -0.7342  1.0117 -3.8555
  177MOL0     H23332   9.764   7.302  10.770 -2.4189 -1.4215 -3.3326
  177MOL0     H23333   9.726   7.389  10.925  0.0329 -1.5081 -0.4821
  177MOL0     H23334   9.711   7.597  10.775  3.1849  2.5583  1.1778
  177MOL0     H23335   9.774   7.504  10.643  1.5104  1.4903  0.6446
  177MOL0     H23336   9.924   7.572  10.896  1.2659 -0.5718 -1.1484
  177MOL0     H23337   9.975   7.428  10.828  0.0894 -0.0591 -2.6133
  177MOL0     H23338  10.084   7.647  10.781 -0.9493  1.9323  0.3890
  177MOL0     H23339   9.949   7.687  10.670  1.0791 -0.3112 -2.4387
  177MOL0     H23340   9.985   7.499  10.546 -0.7567 -4.8304  2.1209
  177MOL0     H23341  10.124   7.442  10.638  1.2817  0.8994 -1.1667
  177MOL0     H23342  10.096   7.698  10.461 -0.3499 -0.5004 -3.2306
  177MOL0     H23343  10.224   7.684  10.580 -0.7398  1.1776  0.0688
  177MOL0     H23344  10.279   7.604  10.341  0.7219  2.3771  1.5949
  177MOL0     H23345  10.195   7.456  10.386  0.2813 -0.3870  0.7257
  177MOL0     H23346   9.431   7.457  10.411  1.0115  0.9174  0.8306
  177MOL0     H23347   9.210   7.401  10.333 -3.5395  0.5490  0.8129
  177MOL0     H23348   8.919   7.078  10.265  1.5786  1.9420  0.3234
  177MOL0     H23349   8.708   7.021  10.133 -0.6141  1.5565 -1.2075
  177MOL0     H23350   6.814   6.853  10.430 -0.1537  0.7659  0.3027
  177MOL0     H23351   6.581   6.894  10.485  1.7753  1.3915 -0.8740
  177MOL0     H23352   6.137   6.813  10.261 -0.4056 -1.4451 -0.5537
  177MOL0     H23353   5.908   6.820  10.260 -3.2033 -0.5428  1.1187
  177MOL0     H23354   5.695   6.682  10.268 -0.2680  0.6183 -0.8719
  177MOL0     H23355   5.562   6.702  10.375  1.1824  4.1568 -1.3360
  177MOL0     H23356   5.763   6.481  10.385 -0.8133 -0.1635  0.7891
  177MOL0     H23357   5.656   6.511  10.522 -0.7514  1.7587  0.4963
  177MOL0     H23358   5.563   6.446  10.232 -1.3205  0.2878 -0.7922
  177MOL0     H23359   5.455   6.486  10.372  0.3240  0.7172  0.5851
  177MOL0     H23360   5.641   6.249  10.375 -0.5700 -0.7413  0.0447
  177MOL0     H23361   5.507   6.287  10.497  1.8728  1.6913  1.1634
  177MOL0     H23362   5.300   6.078  10.203 -0.7160  2.5556 -1.7892
  177MOL0     H23363   5.870   6.657  10.658  2.7565  1.3419  3.5525
  177MOL0     H23364   6.131   6.638  10.668 -2.8933  0.3620  2.5094
  178MOL0     O23365   2.777   6.739  10.308  0.0094 -0.4349 -0.2294
  178MOL0     C23366   2.845   6.646  10.259  0.1772  0.1384  0.0632
  178MOL0     O23367   2.835   6.514  10.295 -0.1183 -0.4587 -0.3585
  178MOL0     C23368   2.760   6.485  10.404 -0.1195  0.0647  0.4713
  178MOL0     C23369   2.676   6.375  10.390  0.4159  0.4703  0.2475
  178MOL0     C23370   2.595   6.328  10.502 -0.7055 -0.7413 -0.1707
  178MOL0     C23371   2.611   6.398  10.620 -0.1309  0.5418  0.1407
  178MOL0     O23372   2.524   6.352  10.720  0.5602 -0.1214  0.6323
  178MOL0     C23373   2.411   6.440  10.732 -0.4199 -0.3546 -0.8200
  178MOL0     C23374   2.302   6.371  10.812 -0.5800 -0.1651  0.0808
  178MOL0     C23375   2.186   6.463  10.851  0.1988 -0.0079  0.3259
  178MOL0     C23376   2.059   6.388  10.893 -0.3020  0.0664  0.2577
  178MOL0     C23377   1.928   6.474  10.907 -0.0007 -0.2712  0.2386
  178MOL0     C23378   1.823   6.365  10.909 -0.7114  0.2463  0.0265
  178MOL0     C23379   1.676   6.421  10.943 -0.4710  0.6572  0.1976
  178MOL0     C23380   1.581   6.389  10.834  0.2715  0.4101 -0.0034
  178MOL0     N23381   1.445   6.423  10.871  0.6116 -1.1313  0.0863
  178MOL0     C23382   1.366   6.356  10.962 -0.4699 -0.4139  0.2283
  178MOL0     C23383   1.272   6.447  11.004 -0.3820  1.1149 -0.5733
  178MOL0     C23384   1.165   6.431  11.114  0.0809 -0.1054  0.3536
  178MOL0     C23385   1.023   6.463  11.054 -0.1391 -1.3184  0.2843
  178MOL0     C23386   0.897   6.429  11.143 -0.0255 -0.2928  0.0780
  178MOL0     C23387   0.773   6.515  11.103 -0.2664  0.3398  0.0315
  178MOL0     O23388   0.654   6.467  11.167 -0.3438  0.4965 -0.0678
  178MOL0     C23389   0.536   6.516  11.117  0.6417  0.2221 -0.8799
  178MOL0     C23390   0.507   6.618  11.026 -0.2863 -0.3189 -0.4958
  178MOL0     C23391   0.384   6.680  11.012 -0.0062  0.3688  1.1318
  178MOL0     C23392   0.272   6.623  11.080 -0.0606 -0.6195  0.7567
  178MOL0     C23393   0.136   6.689  11.069  0.5901  0.1502  0.0291
  178MOL0     O23394   0.035   6.653  11.152 -0.4920  0.0616  0.5291
  178MOL0     C23395  -0.098   6.670  11.124  0.0524 -0.6303 -0.4934
  178MOL0     C23396  -0.194   6.720  11.220 -0.8810  0.6173 -0.6902
  178MOL0     C23397  -0.330   6.713  11.211 -0.4954 -0.4010  0.7103
  178MOL0     C23398  -0.381   6.675  11.086 -0.3169 -0.4340  1.0004
  178MOL0     O23399  -0.511   6.679  11.057  0.8554  0.0004  0.5459
  178MOL0     C23400  -0.597   6.617  11.156  0.8059 -0.5696  0.0625
  178MOL0     C23401  -0.727   6.567  11.094  0.5641 -0.2883  0.3232
  178MOL0     C23402  -0.854   6.549  11.190 -0.1009  0.0749  0.7041
  178MOL0     C23403  -0.872   6.415  11.261 -0.1556  0.8149  0.7884
  178MOL0     C23404  -1.008   6.431  11.349 -0.5718 -0.1809  0.4705
  178MOL0     C23405  -1.065   6.293  11.403 -0.5230 -0.9235 -0.6387
  178MOL0     C23406  -1.058   6.192  11.291 -0.4219 -0.1518  0.2539
  178MOL0     C23407  -1.146   6.071  11.303  1.2971 -0.1769 -0.0741
  178MOL0    Cl23408  -1.292   6.093  11.215  0.0253 -0.2234  0.2001
  178MOL0     C23409  -0.292   6.631  10.988  0.4130 -0.2646  0.0309
  178MOL0     C23410  -0.157   6.634  11.006  0.2539 -0.7245  0.2296
  178MOL0     O23411   0.127   6.778  10.986  0.0516 -0.0179 -0.7572
  178MOL0     C23412   0.296   6.516  11.167 -0.3195  0.1420 -1.2180
  178MOL0     C23413   0.425   6.465  11.198 -0.2328  0.0765 -0.0882
  178MOL0     N23414   1.295   6.563  10.942  0.0540 -0.0049  0.9634
  178MOL0     N23415   1.397   6.555  10.859 -0.8600  0.2944  0.5934
  178MOL0     C23416   2.696   6.510  10.635  0.1093  0.5753 -0.1520
  178MOL0     C23417   2.772   6.550  10.525  0.1737 -0.1162 -0.1332
  178MOL0     C23418   2.939   6.675  10.146  0.1680 -0.5631  0.3328
  178MOL0     C23419   2.990   6.570  10.077  0.8064  0.1312 -0.4605
  178MOL0     C23420   3.071   6.589   9.972 -0.7056 -0.0573  0.6837
  178MOL0     C23421   3.117   6.718   9.947  0.0254  0.1890  0.4962
  178MOL0     O23422   3.227   6.708   9.858  0.2578 -0.1387  0.2639
  178MOL0     C23423   3.261   6.825   9.785 -1.1593 -1.3813 -0.6410
  178MOL0     C23424   3.368   6.806   9.678  0.8345 -0.1650  0.7154
  178MOL0     C23425   3.489   6.727   9.715 -0.1654 -0.3823 -0.0583
  178MOL0     C23426   3.579   6.723   9.590  0.4296 -0.1982  0.7753
  178MOL0     C23427   3.642   6.855   9.578  0.1376 -0.2617 -0.0648
  178MOL0     C23428   3.689   6.963   9.563 -0.6746  0.3374 -0.2623
  178MOL0     C23429   3.059   6.829  10.008  0.2840  0.3338 -0.0692
  178MOL0     C23430   2.969   6.801  10.106 -0.2748  0.3661  0.2449
  178MOL0     H23431   2.674   6.320  10.296 -1.2740 -0.6698  0.8827
  178MOL0     H23432   2.523   6.247  10.496 -3.2926  1.1128  2.7460
  178MOL0     H23433   2.374   6.475  10.635 -0.5709 -0.7555 -0.9095
  178MOL0     H23434   2.440   6.532  10.783  0.8315 -2.1846  2.0736
  178MOL0     H23435   2.352   6.336  10.903  1.0060  1.7123 -0.0169
  178MOL0     H23436   2.273   6.282  10.755 -1.4776  0.2482 -0.1179
  178MOL0     H23437   2.167   6.519  10.759 -1.6818  1.0893  1.3161
  178MOL0     H23438   2.216   6.541  10.921 -1.2869  2.0487 -1.2083
  178MOL0     H23439   2.034   6.315  10.815 -2.1323 -2.2748  2.8629
  178MOL0     H23440   2.086   6.333  10.983  0.8374 -1.0688 -0.7413
  178MOL0     H23441   1.901   6.536  10.821 -0.6424  0.1665  0.7458
  178MOL0     H23442   1.933   6.531  11.000  2.8063  1.7559 -1.0039
  178MOL0     H23443   1.850   6.297  10.991 -1.7681 -0.4406 -0.1686
  178MOL0     H23444   1.829   6.316  10.812 -1.7749 -0.4774  0.3041
  178MOL0     H23445   1.644   6.368  11.033 -1.1968 -2.7172 -1.8522
  178MOL0     H23446   1.664   6.528  10.961 -0.5133  0.2982  2.5070
  178MOL0     H23447   1.584   6.285  10.800  1.8610  0.4308 -0.0018
  178MOL0     H23448   1.613   6.455  10.753  1.6760  0.5061  0.6020
  178MOL0     H23449   1.377   6.255  11.000 -2.9220 -0.7584  0.2105
  178MOL0     H23450   1.176   6.496  11.201  0.9969  0.0589  0.1188
  178MOL0     H23451   1.168   6.326  11.143  0.2161 -0.9643 -2.4714
  178MOL0     H23452   1.007   6.410  10.960  1.8159  2.4106 -2.3928
  178MOL0     H23453   1.022   6.571  11.032 -2.6264 -1.5025 -0.9262
  178MOL0     H23454   0.882   6.320  11.143 -1.9039 -0.0936  1.7112
  178MOL0     H23455   0.930   6.459  11.243  1.2003 -0.4210 -0.2809
  178MOL0     H23456   0.766   6.502  10.994 -0.7752 -3.0126  0.3621
  178MOL0     H23457   0.787   6.621  11.127 -1.5116  1.2171 -2.6911
  178MOL0     H23458   0.585   6.646  10.956  0.8737 -0.9494  0.5078
  178MOL0     H23459   0.380   6.769  10.951 -3.6654 -1.5816 -1.8628
  178MOL0     H23460  -0.160   6.734  11.322  0.8636 -2.7093 -0.6847
  178MOL0     H23461  -0.395   6.732  11.296  2.4913 -1.2565  3.4052
  178MOL0     H23462  -0.608   6.687  11.239 -0.0336 -2.4149  1.6010
  178MOL0     H23463  -0.549   6.532  11.206  1.0620  0.0699  0.9307
  178MOL0     H23464  -0.703   6.472  11.045  0.1621 -0.7273  0.9500
  178MOL0     H23465  -0.760   6.632  11.013  1.9036  1.8859  1.4555
  178MOL0     H23466  -0.947   6.563  11.133  0.3781  1.6526  0.2624
  178MOL0     H23467  -0.840   6.631  11.262  1.6620  0.3768  0.0502
  178MOL0     H23468  -0.890   6.345  11.180 -2.0504 -0.6125  2.3488
  178MOL0     H23469  -0.794   6.381  11.330  0.5012  1.9014  0.6048
  178MOL0     H23470  -1.086   6.480  11.291 -0.9045 -2.2844 -0.9492
  178MOL0     H23471  -0.985   6.504  11.428  1.0575  2.7631 -2.4893
  178MOL0     H23472  -1.167   6.316  11.437  0.3519  1.0166  0.8546
  178MOL0     H23473  -1.010   6.261  11.491 -0.1342 -1.6588 -1.1399
  178MOL0     H23474  -1.065   6.235  11.191 -0.9917  3.1479  1.5866
  178MOL0     H23475  -0.963   6.138  11.300 -1.1269 -1.4976 -0.0702
  178MOL0     H23476  -1.171   6.037  11.403 -4.2807 -1.4811 -1.5379
  178MOL0     H23477  -1.092   5.989  11.256  1.8791  0.0394  0.2091
  178MOL0     H23478  -0.337   6.592  10.897 -0.4938 -2.2792  1.2671
  178MOL0     H23479  -0.105   6.597  10.918  0.3676  1.6310 -0.7779
  178MOL0     H23480   0.218   6.472  11.227  0.4435  0.4378  0.0347
  178MOL0     H23481   0.452   6.386  11.267  0.4801 -0.1265 -0.5975
  178MOL0     H23482   2.723   6.556  10.730  2.3425 -1.8990  0.5402
  178MOL0     H23483   2.849   6.627  10.530 -0.2151  0.4139 -1.7436
  178MOL0     H23484   2.956   6.468  10.095  0.8741  0.1879  0.0042
  178MOL0     H23485   3.100   6.501   9.916  0.8333 -0.4052  1.9528
  178MOL0     H23486   3.308   6.887   9.862  0.3052 -0.6939 -2.0332
  178MOL0     H23487   3.175   6.877   9.742 -0.0808  0.7612 -0.3528
  178MOL0     H23488   3.315   6.761   9.594 -1.1974  0.0835  1.8074
  178MOL0     H23489   3.405   6.901   9.639 -0.5489  0.0369 -0.1454
  178MOL0     H23490   3.450   6.626   9.732 -0.1888 -0.4710 -0.6089
  178MOL0     H23491   3.545   6.764   9.801  1.5288  2.1179 -2.0851
  178MOL0     H23492   3.649   6.640   9.605 -0.6542 -0.8613  2.5968
  178MOL0     H23493   3.523   6.699   9.500 -1.3358  2.0888  1.1558
  178MOL0     H23494   3.734   7.060   9.552  0.4205 -0.0235  0.7667
  178MOL0     H23495   3.091   6.932   9.995  0.1661  0.5627  1.2883
  178MOL0     H23496   2.932   6.884  10.167 -1.2006 -0.1879  0.4594
  179MOL0     O23497   2.056   7.553  11.304  0.3908  0.1077  0.3080
  179MOL0     C23498   2.091   7.522  11.414  0.2993  1.3426  0.1214
  179MOL0     O23499   2.008   7.512  11.520  0.1189  0.0755 -0.1090
  179MOL0     C23500   1.874   7.557  11.527 -0.4618  0.0835 -0.4541
  179MOL0     C23501   1.819   7.592  11.657 -0.0810  0.0599 -0.0876
  179MOL0     C23502   1.694   7.639  11.679  0.9330  1.2029 -0.2872
  179MOL0     C23503   1.607   7.644  11.578  0.3834 -0.3988  0.1799
  179MOL0     O23504   1.492   7.706  11.609  0.2255  0.4166  0.5628
  179MOL0     C23505   1.382   7.617  11.614  0.3568  0.0194  0.1474
  179MOL0     C23506   1.365   7.598  11.766  0.1103 -0.6782 -0.0789
  179MOL0     C23507   1.254   7.511  11.805  0.6119 -0.4606  0.8103
  179MOL0     C23508   1.116   7.577  11.768 -0.1419  0.0464 -0.3753
  179MOL0     C23509   0.995   7.474  11.803 -0.3105  0.4155 -0.2641
  179MOL0     C23510   0.992   7.436  11.949 -0.3152 -0.6100 -0.0965
  179MOL0     C23511   0.850   7.390  11.995  0.2866 -0.0498 -0.5975
  179MOL0     C23512   0.864   7.318  12.127 -0.0537 -0.1560 -1.0050
  179MOL0     N23513   0.739   7.256  12.159 -0.0695  0.1125 -0.5107
  179MOL0     C23514   0.673   7.155  12.085 -0.0867  1.1343  0.0818
  179MOL0     C23515   0.555   7.140  12.155  0.1637  0.3231 -0.9386
  179MOL0     C23516   0.441   7.046  12.125 -0.2404 -1.4084 -0.4628
  179MOL0     C23517   0.453   6.902  12.167  0.6732 -0.2062  0.3190
  179MOL0     C23518   0.475   6.883  12.319 -0.0513 -0.2390  0.0834
  179MOL0     C23519   0.380   6.966  12.395 -0.6286  0.8761  0.1510
  179MOL0     O23520   0.246   6.965  12.341  0.3733  0.0190 -0.0602
  179MOL0     C23521   0.150   6.864  12.345 -0.6800 -0.2286 -0.2564
  179MOL0     C23522   0.042   6.900  12.262 -1.1251 -0.1274 -0.7011
  179MOL0     C23523  -0.067   6.817  12.272  0.1637  0.0912 -0.2604
  179MOL0     C23524  -0.065   6.690  12.344 -0.8536  0.4785 -0.4539
  179MOL0     C23525  -0.175   6.600  12.358 -0.1750  0.9913  0.1907
  179MOL0     O23526  -0.166   6.501  12.450  0.0424 -0.2216 -0.1525
  179MOL0     C23527  -0.261   6.406  12.467  0.1498 -0.9409  0.3989
  179MOL0     C23528  -0.395   6.443  12.488  0.2260 -0.0828 -0.4562
  179MOL0     C23529  -0.488   6.330  12.495  0.1892 -0.0010  0.0880
  179MOL0     C23530  -0.437   6.199  12.498  0.2590  1.0454 -0.2272
  179MOL0     O23531  -0.518   6.086  12.500 -0.1670 -0.2851  0.2953
  179MOL0     C23532  -0.665   6.092  12.494  0.3680 -0.1095 -0.3323
  179MOL0     C23533  -0.722   6.077  12.353 -0.3675 -0.1355  0.6485
  179MOL0     C23534  -0.699   5.938  12.288  0.0042  0.4390  1.1630
  179MOL0     C23535  -0.787   5.939  12.155  0.3125 -0.1461 -0.7450
  179MOL0     C23536  -0.835   5.803  12.120 -0.8280 -0.7925 -0.7444
  179MOL0     C23537  -0.961   5.772  12.208 -0.2622  0.5593  0.4013
  179MOL0     C23538  -1.037   5.645  12.139  0.7691 -0.3987 -0.8872
  179MOL0     C23539  -1.174   5.634  12.206  0.6014 -0.0277  0.4869
  179MOL0    Cl23540  -1.143   5.549  12.355  0.3309  0.2118 -0.0210
  179MOL0     C23541  -0.302   6.176  12.499  0.4996  0.2966 -0.0124
  179MOL0     C23542  -0.221   6.276  12.465 -0.5651  0.3651 -0.0252
  179MOL0     O23543  -0.261   6.605  12.274  0.3128  0.0455 -0.7325
  179MOL0     C23544   0.053   6.656  12.415 -0.0521 -0.2179 -0.8455
  179MOL0     C23545   0.156   6.750  12.425 -0.6414  0.2487 -0.0265
  179MOL0     N23546   0.553   7.238  12.252  0.4114 -0.7750  0.0270
  179MOL0     N23547   0.657   7.302  12.258  0.1039  0.6860  0.0349
  179MOL0     C23548   1.652   7.608  11.451  0.1875  0.1154 -0.5529
  179MOL0     C23549   1.784   7.573  11.425 -0.5522 -0.2365 -0.0965
  179MOL0     C23550   2.234   7.484  11.436  0.0167 -0.0686 -0.1822
  179MOL0     C23551   2.326   7.441  11.336  0.2380  0.2409  0.2781
  179MOL0     C23552   2.460   7.405  11.346 -0.4417 -0.0183 -0.8494
  179MOL0     C23553   2.512   7.403  11.473 -0.7616 -0.1490  0.0473
  179MOL0     O23554   2.641   7.362  11.482  0.5228 -0.2519  0.1732
  179MOL0     C23555   2.703   7.327  11.601  0.4018  0.6839  0.3012
  179MOL0     C23556   2.648   7.205  11.683  0.1826 -0.1941  0.1051
  179MOL0     C23557   2.624   7.081  11.597  0.3325 -0.2223 -0.2115
  179MOL0     C23558   2.551   6.970  11.672  0.1232 -0.3286  0.6434
  179MOL0     C23559   2.455   6.902  11.585 -0.7124  0.6598 -0.8321
  179MOL0     C23560   2.378   6.823  11.521  0.1650  0.4868 -0.6352
  179MOL0     C23561   2.428   7.434  11.581 -0.2151  0.1540 -1.1158
  179MOL0     C23562   2.297   7.470  11.561  0.4702  0.7198 -0.0526
  179MOL0     H23563   1.881   7.577  11.745 -1.2556  0.8693  0.9098
  179MOL0     H23564   1.661   7.675  11.776 -0.4619  1.6960 -0.9098
  179MOL0     H23565   1.380   7.522  11.561  3.0101 -0.0437  0.0152
  179MOL0     H23566   1.296   7.675  11.580 -0.2508  1.5381  3.7366
  179MOL0     H23567   1.355   7.693  11.819 -0.0039 -1.3469  1.1226
  179MOL0     H23568   1.463   7.559  11.795 -0.3186 -1.4942  0.2936
  179MOL0     H23569   1.252   7.501  11.914  0.4194 -0.1058  0.8413
  179MOL0     H23570   1.252   7.416  11.751  3.8246 -1.2576  1.8851
  179MOL0     H23571   1.105   7.674  11.817 -0.1952 -0.9154  1.6274
  179MOL0     H23572   1.113   7.598  11.661  0.8612 -0.0655 -0.4311
  179MOL0     H23573   0.993   7.381  11.745 -2.1159  0.3270 -0.1251
  179MOL0     H23574   0.901   7.524  11.779 -1.0743  0.4686  2.5492
  179MOL0     H23575   1.013   7.527  12.006  1.1551 -1.3164  0.5336
  179MOL0     H23576   1.069   7.360  11.965  2.4541  1.2864 -3.2434
  179MOL0     H23577   0.788   7.475  12.025 -0.5670 -0.6995 -0.5103
  179MOL0     H23578   0.799   7.326  11.923 -0.1074  0.9710 -1.2626
  179MOL0     H23579   0.894   7.383  12.209  1.7451 -2.6301  0.4203
  179MOL0     H23580   0.931   7.233  12.114 -3.1576 -3.0287  0.3579
  179MOL0     H23581   0.708   7.098  11.999 -2.5492 -2.5184  1.2408
  179MOL0     H23582   0.430   7.053  12.017  0.1546  0.2449 -0.4287
  179MOL0     H23583   0.360   7.107  12.168  4.0752  2.2717  3.7726
  179MOL0     H23584   0.535   6.852  12.114 -0.6526 -2.1636 -0.0278
  179MOL0     H23585   0.359   6.857  12.134 -0.2123  0.6423  1.5919
  179MOL0     H23586   0.467   6.777  12.346  1.4857 -0.5902 -0.7216
  179MOL0     H23587   0.573   6.921  12.351  0.9656 -1.0941 -1.8054
  179MOL0     H23588   0.423   7.066  12.408  1.3435 -0.0303  0.8982
  179MOL0     H23589   0.364   6.922  12.494 -0.1819  3.7300  1.5907
  179MOL0     H23590   0.038   6.999  12.217  1.1286  1.2305  1.8041
  179MOL0     H23591  -0.163   6.846  12.231  1.3829  1.3746 -2.4380
  179MOL0     H23592  -0.416   6.549  12.496 -3.7828 -0.8128  1.1004
  179MOL0     H23593  -0.588   6.358  12.526  1.0383  1.1078  2.0203
  179MOL0     H23594  -0.703   6.184  12.540 -1.5241 -0.6858 -0.6971
  179MOL0     H23595  -0.702   6.008  12.553 -0.8485 -0.0089 -0.9272
  179MOL0     H23596  -0.685   6.151  12.282 -3.3109  1.5575  0.6954
  179MOL0     H23597  -0.829   6.099  12.356  0.0803  2.1301  3.4674
  179MOL0     H23598  -0.740   5.865  12.359 -1.1729  1.3178  1.4047
  179MOL0     H23599  -0.593   5.924  12.264 -0.3069 -0.3803  0.1710
  179MOL0     H23600  -0.871   6.008  12.149  2.4733  2.7256 -0.0412
  179MOL0     H23601  -0.728   5.990  12.078 -0.3604  3.6559  1.0562
  179MOL0     H23602  -0.751   5.735  12.136 -1.4561 -1.9316 -2.1575
  179MOL0     H23603  -0.865   5.799  12.015 -1.3820 -1.9598 -0.5518
  179MOL0     H23604  -1.028   5.856  12.190  1.4075  1.6213 -1.1857
  179MOL0     H23605  -0.941   5.756  12.314 -3.2013  0.5006  1.0386
  179MOL0     H23606  -1.053   5.682  12.037  0.7366 -1.6109 -1.3432
  179MOL0     H23607  -0.975   5.555  12.142 -2.8731 -3.1092  1.5476
  179MOL0     H23608  -1.227   5.560  12.144  2.4376 -2.1601  1.3394
  179MOL0     H23609  -1.230   5.727  12.213  1.2626  0.5041 -0.9567
  179MOL0     H23610  -0.266   6.073  12.504 -0.9182 -0.1554  1.7482
  179MOL0     H23611  -0.119   6.268  12.430 -0.0594 -0.9358  1.5827
  179MOL0     H23612   0.067   6.564  12.470  0.9077  0.2032 -0.3584
  179MOL0     H23613   0.247   6.742  12.484  0.0994  1.3898 -0.9843
  179MOL0     H23614   1.583   7.629  11.370 -0.3595  1.4267  0.2160
  179MOL0     H23615   1.793   7.553  11.319 -0.5637  1.9843 -0.5611
  179MOL0     H23616   2.300   7.446  11.230  1.5965  3.0303 -0.0123
  179MOL0     H23617   2.518   7.370  11.261  1.0362 -3.1128  1.2339
  179MOL0     H23618   2.701   7.420  11.658  2.6793  0.8366  0.2368
  179MOL0     H23619   2.803   7.303  11.563 -0.8389 -1.6303 -1.8425
  179MOL0     H23620   2.696   7.189  11.779 -0.5473  2.1905  0.9162
  179MOL0     H23621   2.545   7.224  11.715 -0.1122 -1.5026  0.0230
  179MOL0     H23622   2.721   7.039  11.567  0.0421 -0.2119 -1.1906
  179MOL0     H23623   2.573   7.113  11.505  1.0578  0.9302 -0.2406
  179MOL0     H23624   2.615   6.888  11.706 -1.5999 -1.2815  1.7343
  179MOL0     H23625   2.488   7.015  11.750  1.0333 -3.7894  3.6783
  179MOL0     H23626   2.311   6.767  11.458 -0.5123  1.1688 -0.5327
  179MOL0     H23627   2.453   7.437  11.686 -4.2192  1.2476 -0.0179
  179MOL0     H23628   2.226   7.465  11.642 -1.8718 -1.3003 -2.0475
  180MOL0     O23629  10.562  11.064   5.287  0.2710  0.6786 -0.1663
  180MOL0     C23630  10.563  11.013   5.397 -0.2372 -0.0977 -0.0219
  180MOL0     O23631  10.482  11.037   5.501 -0.2837 -0.9975  0.0817
  180MOL0     C23632  10.366  11.106   5.484 -1.4001 -0.4932 -0.0030
  180MOL0     C23633  10.265  11.079   5.387 -0.4889  0.0097  0.1098
  180MOL0     C23634  10.160  11.171   5.370 -0.2889 -0.5005  0.6872
  180MOL0     C23635  10.148  11.286   5.460 -0.7400  0.8227  0.2510
  180MOL0     O23636  10.065  11.393   5.434 -0.1302  0.2135 -0.0775
  180MOL0     C23637   9.928  11.362   5.432 -0.1964  0.6938  0.3954
  180MOL0     C23638   9.848  11.495   5.440  0.1558  0.1240 -0.7404
  180MOL0     C23639   9.698  11.463   5.443 -0.1415  0.9293  0.0823
  180MOL0     C23640   9.620  11.591   5.465  0.1220 -0.3985 -0.0431
  180MOL0     C23641   9.468  11.560   5.469  0.0498  0.2997 -0.1502
  180MOL0     C23642   9.389  11.687   5.448  0.4341  0.4831  1.4573
  180MOL0     C23643   9.243  11.660   5.424 -0.3369 -0.1674  0.2814
  180MOL0     C23644   9.199  11.664   5.274  0.2515  0.5520  0.3186
  180MOL0     N23645   9.054  11.654   5.278  0.8107  0.4835 -0.4317
  180MOL0     C23646   8.965  11.743   5.342 -0.0950 -0.7036  0.2070
  180MOL0     C23647   8.834  11.693   5.325  0.2598  0.0641  0.3801
  180MOL0     C23648   8.706  11.743   5.376  0.6325  0.2090  0.8069
  180MOL0     C23649   8.616  11.790   5.259 -0.3498 -0.3018 -0.8672
  180MOL0     C23650   8.645  11.943   5.218 -0.4875 -0.0775 -0.1927
  180MOL0     C23651   8.531  11.994   5.131 -0.2330 -0.0823  0.0657
  180MOL0     O23652   8.533  11.941   4.994 -0.1489 -0.2717  0.4621
  180MOL0     C23653   8.402  11.916   4.951 -0.5186 -0.8400 -0.5186
  180MOL0     C23654   8.295  12.007   4.969 -0.3019  0.0521 -0.3482
  180MOL0     C23655   8.170  11.967   4.930 -0.0004  0.0263 -0.2748
  180MOL0     C23656   8.143  11.846   4.876  0.7035  0.5322  0.5419
  180MOL0     C23657   8.003  11.808   4.830  0.5785 -0.1571 -0.3388
  180MOL0     O23658   7.993  11.683   4.778 -0.1099 -0.1584 -0.6542
  180MOL0     C23659   7.880  11.615   4.729 -0.3201 -0.1905  0.0608
  180MOL0     C23660   7.899  11.499   4.655  0.4060  0.8589  0.3912
  180MOL0     C23661   7.787  11.420   4.632  0.4300  0.4305  0.5818
  180MOL0     C23662   7.650  11.463   4.654 -1.1487  0.4518  0.4727
  180MOL0     O23663   7.534  11.387   4.627 -0.4970  0.5672 -0.3446
  180MOL0     C23664   7.552  11.264   4.556  0.0025  1.0341  0.2129
  180MOL0     C23665   7.413  11.200   4.537  0.9593 -0.0889  0.5892
  180MOL0     C23666   7.314  11.313   4.498 -0.2968  0.6407 -1.0256
  180MOL0     C23667   7.182  11.244   4.463  0.0108 -0.5232  0.5132
  180MOL0     C23668   7.100  11.358   4.395  0.3815  0.1119 -0.8182
  180MOL0     C23669   6.956  11.329   4.375  0.5060  0.2352 -0.3446
  180MOL0     C23670   6.915  11.196   4.314 -0.9157 -0.2591 -0.4984
  180MOL0     C23671   6.782  11.204   4.261  0.6335  0.5210  1.1268
  180MOL0    Cl23672   6.736  11.054   4.190  0.2151  0.1226  0.0520
  180MOL0     C23673   7.631  11.584   4.726  0.9136  0.0270  0.2452
  180MOL0     C23674   7.748  11.659   4.753 -0.2600 -1.0506 -0.4058
  180MOL0     O23675   7.917  11.900   4.834 -0.2732  0.3069 -0.4260
  180MOL0     C23676   8.250  11.758   4.857  0.3412  0.4607 -1.2548
  180MOL0     C23677   8.383  11.798   4.889 -0.1009 -0.1203 -0.5501
  180MOL0     N23678   8.854  11.571   5.257 -0.3605 -0.4045 -0.0365
  180MOL0     N23679   8.972  11.556   5.223 -0.8773 -0.2037  0.3570
  180MOL0     C23680  10.239  11.305   5.557  0.2424  0.9616  0.7202
  180MOL0     C23681  10.338  11.209   5.577 -1.2223 -0.5343  0.5270
  180MOL0     C23682  10.693  10.941   5.437  0.2789 -0.8408  0.0264
  180MOL0     C23683  10.811  10.968   5.368 -0.3499 -0.0624 -1.0158
  180MOL0     C23684  10.933  10.898   5.411 -0.2919 -1.1102 -0.3013
  180MOL0     C23685  10.931  10.812   5.522 -0.5561  0.0160 -0.5927
  180MOL0     O23686  11.047  10.737   5.542  0.3677 -0.0761 -1.0745
  180MOL0     C23687  11.043  10.665   5.670  0.0585 -0.0014 -1.2082
  180MOL0     C23688  11.176  10.595   5.711  0.5762 -0.3289  0.4028
  180MOL0     C23689  11.238  10.519   5.596 -0.7643 -0.2428  0.8152
  180MOL0     C23690  11.357  10.431   5.656  0.2050 -0.1593 -0.5147
  180MOL0     C23691  11.430  10.355   5.551 -0.3504  0.6053  0.2142
  180MOL0     C23692  11.496  10.298   5.468 -0.5239  0.2236 -0.0683
  180MOL0     C23693  10.806  10.786   5.584 -0.4515  0.0727 -1.3999
  180MOL0     C23694  10.693  10.858   5.547 -0.7523  0.6373 -0.0957
  180MOL0     H23695  10.281  10.996   5.319  3.5989 -0.8681  1.8841
  180MOL0     H23696  10.080  11.145   5.301  0.0444  0.2389  0.0016
  180MOL0     H23697   9.906  11.300   5.519  2.0394  1.2393  1.4229
  180MOL0     H23698   9.897  11.298   5.349 -0.7131 -0.4939  1.4691
  180MOL0     H23699   9.865  11.552   5.348 -0.1149 -0.5204 -1.2065
  180MOL0     H23700   9.882  11.562   5.519  1.0460 -1.3009  0.1438
  180MOL0     H23701   9.683  11.400   5.531  2.0684  2.2308  1.4977
  180MOL0     H23702   9.675  11.404   5.353  1.4909 -1.0817  0.9143
  180MOL0     H23703   9.648  11.642   5.558 -1.7866  0.3102  0.1906
  180MOL0     H23704   9.645  11.669   5.393  2.3700 -0.6861  0.3561
  180MOL0     H23705   9.446  11.515   5.566  1.1205  2.0971  0.9901
  180MOL0     H23706   9.440  11.499   5.383  0.3255 -0.5227  0.3281
  180MOL0     H23707   9.425  11.752   5.367 -3.0608  0.4985 -0.3189
  180MOL0     H23708   9.401  11.755   5.533 -0.5239  3.2145 -0.4318
  180MOL0     H23709   9.222  11.560   5.462  1.5312 -0.1070  1.6181
  180MOL0     H23710   9.187  11.732   5.484 -0.0848  1.3342 -1.2029
  180MOL0     H23711   9.258  11.581   5.233  0.3696 -0.1412  1.8405
  180MOL0     H23712   9.222  11.753   5.215 -0.3695 -0.6124 -1.7905
  180MOL0     H23713   8.997  11.830   5.398  1.6838  0.1129 -1.9844
  180MOL0     H23714   8.723  11.819   5.453 -0.1153  3.1820 -1.7708
  180MOL0     H23715   8.658  11.656   5.423 -2.8978  2.0692  0.9455
  180MOL0     H23716   8.515  11.778   5.297 -0.1746  1.3158  0.2059
  180MOL0     H23717   8.639  11.718   5.181  1.3241 -1.9025  0.9861
  180MOL0     H23718   8.656  11.998   5.312 -0.7585  0.6465 -0.5829
  180MOL0     H23719   8.739  11.958   5.164 -0.7111 -2.3780 -1.3467
  180MOL0     H23720   8.548  12.102   5.120 -2.5104  0.2097 -1.4644
  180MOL0     H23721   8.437  11.988   5.186 -1.7868  0.4608 -2.3481
  180MOL0     H23722   8.312  12.097   5.028 -1.2313 -2.5828  4.5106
  180MOL0     H23723   8.088  12.036   4.949 -0.0581 -0.1784  0.2346
  180MOL0     H23724   7.996  11.461   4.628 -0.0812  0.3439 -0.7119
  180MOL0     H23725   7.813  11.319   4.601  1.2545  0.2910  1.6624
  180MOL0     H23726   7.614  11.191   4.610 -0.8837 -1.1687 -1.5709
  180MOL0     H23727   7.609  11.282   4.465  3.8000  0.5414  2.2787
  180MOL0     H23728   7.370  11.163   4.631 -4.0493 -1.2944 -1.8821
  180MOL0     H23729   7.422  11.121   4.463  0.7022 -0.6500  1.1461
  180MOL0     H23730   7.347  11.375   4.414  1.8513  1.3298  0.2486
  180MOL0     H23731   7.286  11.387   4.573  1.1840  3.3310 -2.9523
  180MOL0     H23732   7.206  11.176   4.380 -0.6780  0.1469 -0.2554
  180MOL0     H23733   7.129  11.196   4.546 -1.7762 -0.9705 -0.8167
  180MOL0     H23734   7.155  11.380   4.303  3.0740  1.9785  1.0863
  180MOL0     H23735   7.114  11.442   4.464  1.5288 -0.7381  0.0347
  180MOL0     H23736   6.917  11.407   4.310 -1.7540 -1.4342 -1.1098
  180MOL0     H23737   6.905  11.327   4.472  1.4665  0.9304  0.1969
  180MOL0     H23738   6.995  11.181   4.241  0.8676  0.2997  1.2224
  180MOL0     H23739   6.929  11.112   4.383  0.2245  0.3918  0.1054
  180MOL0     H23740   6.773  11.276   4.180 -0.5177 -2.2390 -1.3946
  180MOL0     H23741   6.714  11.210   4.346 -0.6105 -4.9360  0.9033
  180MOL0     H23742   7.534  11.615   4.764  1.5362 -0.8986  2.8202
  180MOL0     H23743   7.728  11.744   4.817 -2.2394 -0.8723 -1.2045
  180MOL0     H23744   8.229  11.661   4.813 -1.5971 -0.0801  0.6687
  180MOL0     H23745   8.475  11.742   4.876 -0.0873 -0.9033  2.2280
  180MOL0     H23746  10.217  11.390   5.620  3.5266  0.9307  2.0539
  180MOL0     H23747  10.405  11.233   5.659 -3.2126 -1.1308  2.4325
  180MOL0     H23748  10.827  11.041   5.288 -0.1688 -2.8735 -3.7219
  180MOL0     H23749  11.032  10.916   5.370 -0.1400  0.9487  0.8617
  180MOL0     H23750  10.968  10.588   5.650 -1.1054  1.3429 -2.2428
  180MOL0     H23751  11.010  10.730   5.751 -0.2003 -1.3258 -0.2172
  180MOL0     H23752  11.254  10.658   5.756  2.8209 -1.8350 -1.2325
  180MOL0     H23753  11.152  10.517   5.784  1.8924 -0.2767  0.9192
  180MOL0     H23754  11.269  10.593   5.522 -0.3513 -0.0251  1.2064
  180MOL0     H23755  11.170  10.446   5.550 -1.1932  1.8022 -2.0275
  180MOL0     H23756  11.431  10.497   5.703 -0.8113  2.5204 -2.4146
  180MOL0     H23757  11.306  10.361   5.723 -0.4252 -2.0095 -2.7995
  180MOL0     H23758  11.560  10.254   5.394 -0.1222 -1.3510  1.1669
  180MOL0     H23759  10.805  10.730   5.677 -1.4513  2.8980  0.4262
  180MOL0     H23760  10.610  10.852   5.617 -1.3324 -1.6859 -0.8859
  181MOL0     O23761   8.208   0.729   9.785 -0.4907  0.6127  0.3241
  181MOL0     C23762   8.252   0.624   9.840  0.5092  0.4306  0.0253
  181MOL0     O23763   8.174   0.545   9.918 -0.5564 -0.1295 -0.1236
  181MOL0     C23764   8.057   0.597   9.968  0.3208  0.6928 -0.5896
  181MOL0     C23765   7.969   0.507  10.027  0.2223  0.1619 -0.9434
  181MOL0     C23766   7.855   0.543  10.092 -0.0649  0.1839  1.2329
  181MOL0     C23767   7.819   0.678  10.106  0.2383  0.2608  1.0759
  181MOL0     O23768   7.697   0.706  10.152 -0.1731 -0.6284 -0.9267
  181MOL0     C23769   7.630   0.815  10.091  0.2760 -0.1811 -0.1432
  181MOL0     C23770   7.491   0.805  10.148  0.0823 -0.1110 -1.0853
  181MOL0     C23771   7.408   0.693  10.099 -0.2404 -0.0623  0.4287
  181MOL0     C23772   7.271   0.696  10.167  0.2886  0.6943 -0.6610
  181MOL0     C23773   7.174   0.582  10.124  0.9118 -0.1841 -0.1350
  181MOL0     C23774   7.068   0.595  10.230  0.5931  0.3602 -0.5563
  181MOL0     C23775   6.998   0.452  10.226 -0.7560  1.1303  0.3581
  181MOL0     C23776   6.880   0.441  10.315 -0.1008  0.4941  0.1047
  181MOL0     N23777   6.808   0.308  10.296 -0.0260  0.6286 -0.3729
  181MOL0     C23778   6.767   0.269  10.177  0.2783  0.1005 -0.6328
  181MOL0     C23779   6.702   0.156  10.200 -0.5493  0.4983 -0.3749
  181MOL0     C23780   6.640   0.080  10.095 -0.7452 -0.0029 -0.6725
  181MOL0     C23781   6.498   0.025  10.121  1.0866 -0.7610 -0.2003
  181MOL0     C23782   6.481  -0.076  10.233  0.2355 -0.4563  0.6128
  181MOL0     C23783   6.332  -0.105  10.253  0.0957  0.7477  0.2366
  181MOL0     O23784   6.299  -0.134  10.381  1.1851  0.9997 -0.4714
  181MOL0     C23785   6.170  -0.184  10.402  0.3957  0.3986 -0.2322
  181MOL0     C23786   6.072  -0.217  10.301  0.1448 -0.6774 -0.8039
  181MOL0     C23787   5.945  -0.263  10.342  0.1656 -0.1972 -0.5183
  181MOL0     C23788   5.913  -0.292  10.478  0.3444 -0.2537 -0.7395
  181MOL0     C23789   5.783  -0.335  10.521  0.0140  0.3522  0.3559
  181MOL0     O23790   5.675  -0.302  10.445  0.4357  0.1247 -0.3749
  181MOL0     C23791   5.557  -0.361  10.492  0.2221  0.7732 -0.4107
  181MOL0     C23792   5.478  -0.328  10.597  0.9513 -0.4802  0.0319
  181MOL0     C23793   5.355  -0.375  10.614 -0.7330 -0.2500  0.1665
  181MOL0     C23794   5.303  -0.468  10.528 -0.4142 -0.0477 -0.2491
  181MOL0     O23795   5.175  -0.499  10.557  0.2017 -0.3693 -1.1378
  181MOL0     C23796   5.118  -0.610  10.481 -0.4755 -0.4133  1.0756
  181MOL0     C23797   4.979  -0.629  10.528 -0.2230  1.2142 -0.8264
  181MOL0     C23798   4.887  -0.509  10.539 -0.0999  0.1283  0.7304
  181MOL0     C23799   4.886  -0.426  10.409 -0.6089 -0.4588  0.3369
  181MOL0     C23800   4.771  -0.327  10.399 -0.3538 -0.5783 -0.2573
  181MOL0     C23801   4.766  -0.217  10.516  0.3030  0.2522 -0.1261
  181MOL0     C23802   4.633  -0.130  10.503  1.2582  1.0429 -0.6366
  181MOL0     C23803   4.570  -0.096  10.643 -1.2653 -0.4036  0.0213
  181MOL0    Cl23804   4.697   0.006  10.721 -0.1122 -0.4088 -0.0248
  181MOL0     C23805   5.384  -0.513  10.420 -0.1639  0.4785  0.6416
  181MOL0     C23806   5.508  -0.457  10.395 -0.0252  0.3680  0.0685
  181MOL0     O23807   5.778  -0.378  10.634  1.0262  0.8406 -0.1456
  181MOL0     C23808   6.014  -0.259  10.572  0.0892  0.7259 -0.0332
  181MOL0     C23809   6.140  -0.212  10.534  0.7269 -0.2672 -0.7827
  181MOL0     N23810   6.695   0.135  10.333  0.2800  0.3979 -0.5957
  181MOL0     N23811   6.756   0.229  10.394  0.0865  0.4229  0.4134
  181MOL0     C23812   7.908   0.776  10.054  0.4761  0.5315  0.0477
  181MOL0     C23813   8.020   0.735   9.981 -0.4984 -0.0093 -0.6650
  181MOL0     C23814   8.385   0.580   9.797 -0.1728  0.7043  0.3122
  181MOL0     C23815   8.456   0.649   9.698 -1.0104  0.6935  1.3539
  181MOL0     C23816   8.591   0.600   9.674  0.0678  0.0165  0.4779
  181MOL0     C23817   8.648   0.491   9.726  0.1046  0.0875 -0.4385
  181MOL0     O23818   8.774   0.449   9.675  0.3355  0.3472  0.1000
  181MOL0     C23819   8.854   0.355   9.753 -0.7838  0.2964 -0.4066
  181MOL0     C23820   8.904   0.437   9.871  0.6420  0.1318 -0.5067
  181MOL0     C23821   9.019   0.389   9.953 -0.3055  0.0308  0.4321
  181MOL0     C23822   8.989   0.259  10.036 -0.3770  0.8584  0.0907
  181MOL0     C23823   8.986   0.141   9.960 -0.6406 -0.1749 -0.2166
  181MOL0     C23824   8.995   0.037   9.901  0.2232  0.0120 -0.5107
  181MOL0     C23825   8.575   0.431   9.831 -0.3276  0.3037  0.9230
  181MOL0     C23826   8.452   0.474   9.868  0.3463 -1.2284 -0.0771
  181MOL0     H23827   7.991   0.402  10.009 -1.5204 -0.6452  1.1803
  181MOL0     H23828   7.811   0.456  10.141  2.8500 -0.7441  2.4048
  181MOL0     H23829   7.622   0.810   9.982  2.4836 -1.9286 -0.3005
  181MOL0     H23830   7.682   0.908  10.116  1.0036 -0.2060 -1.4884
  181MOL0     H23831   7.435   0.899  10.145 -0.1307 -0.1991 -0.0697
  181MOL0     H23832   7.508   0.777  10.252 -0.9763 -3.7079 -1.7114
  181MOL0     H23833   7.465   0.605  10.129 -3.2685 -2.6479 -0.9193
  181MOL0     H23834   7.401   0.692   9.990 -1.3925 -0.8895  0.4871
  181MOL0     H23835   7.273   0.705  10.276 -0.8646 -0.9231 -0.4746
  181MOL0     H23836   7.208   0.780  10.134 -1.6651 -0.5282 -0.2507
  181MOL0     H23837   7.229   0.488  10.118  1.0157 -0.6117  4.3718
  181MOL0     H23838   7.133   0.614  10.027  4.4451  0.4979 -1.5710
  181MOL0     H23839   6.991   0.667  10.201  0.0819 -1.1063 -3.1977
  181MOL0     H23840   7.096   0.602  10.335 -0.8452 -1.1312 -0.0199
  181MOL0     H23841   6.963   0.435  10.124 -1.7335 -3.1739  1.1809
  181MOL0     H23842   7.058   0.360  10.238 -1.6762  0.3690 -0.6955
  181MOL0     H23843   6.803   0.513  10.285  1.9116  2.2029 -1.2716
  181MOL0     H23844   6.908   0.459  10.419  0.5281  0.1362  0.0030
  181MOL0     H23845   6.785   0.317  10.081  0.4170 -0.8266 -1.0775
  181MOL0     H23846   6.715   0.006  10.067  1.1432  1.9942 -1.2037
  181MOL0     H23847   6.632   0.148  10.010  1.0294  0.2244 -0.6886
  181MOL0     H23848   6.455  -0.005  10.025 -0.2000  0.8644 -0.1791
  181MOL0     H23849   6.439   0.111  10.153 -1.1565 -2.9607  2.0403
  181MOL0     H23850   6.552  -0.154  10.204  1.1940  1.4572 -2.6512
  181MOL0     H23851   6.516  -0.031  10.327 -0.9679 -2.0488  1.8750
  181MOL0     H23852   6.317  -0.180  10.175  1.7944  1.6901 -1.0331
  181MOL0     H23853   6.277  -0.016  10.222 -1.0679 -0.7573 -2.2997
  181MOL0     H23854   6.094  -0.190  10.199 -0.8592 -0.4155 -0.9599
  181MOL0     H23855   5.877  -0.296  10.265  0.9486 -1.1912 -0.8069
  181MOL0     H23856   5.510  -0.246  10.661 -3.0413  3.4008 -2.4289
  181MOL0     H23857   5.286  -0.336  10.688 -2.4598 -0.9909 -0.9839
  181MOL0     H23858   5.178  -0.701  10.480  0.3936  0.1209  1.7269
  181MOL0     H23859   5.117  -0.580  10.376  1.2529  1.1041  1.4176
  181MOL0     H23860   4.990  -0.666  10.630  0.2725 -1.0020 -1.6272
  181MOL0     H23861   4.949  -0.708  10.459  0.9642  0.4895 -0.5300
  181MOL0     H23862   4.922  -0.449  10.623 -1.4208 -0.6084  1.8483
  181MOL0     H23863   4.785  -0.537  10.567 -0.5335  1.4222  0.5377
  181MOL0     H23864   4.983  -0.376  10.413 -0.4110 -0.5982 -1.8358
  181MOL0     H23865   4.883  -0.477  10.313  1.5861 -0.1669  0.0606
  181MOL0     H23866   4.675  -0.380  10.397  1.2458 -3.8589  2.0461
  181MOL0     H23867   4.778  -0.278  10.301 -0.8307  0.3595  0.1682
  181MOL0     H23868   4.855  -0.156  10.532  1.2040 -1.0084 -0.2593
  181MOL0     H23869   4.769  -0.272  10.611 -0.5513  1.9515  0.9479
  181MOL0     H23870   4.655  -0.045  10.437  0.3272  0.5279 -1.6510
  181MOL0     H23871   4.564  -0.196  10.449  1.6889 -0.4991  0.6254
  181MOL0     H23872   4.554  -0.190  10.698 -2.6603 -0.5965 -0.6657
  181MOL0     H23873   4.473  -0.048  10.629  0.4408  3.2861 -0.3622
  181MOL0     H23874   5.351  -0.589  10.349 -0.5722  1.7590 -0.5761
  181MOL0     H23875   5.577  -0.489  10.317  0.2694 -1.0274  0.8669
  181MOL0     H23876   5.989  -0.253  10.678  1.1596  2.8627  0.1734
  181MOL0     H23877   6.209  -0.187  10.614 -0.2240  0.5297 -0.1874
  181MOL0     H23878   7.873   0.879  10.052  0.9607  0.7545  1.6268
  181MOL0     H23879   8.083   0.816   9.947  1.7709 -1.1931  0.4733
  181MOL0     H23880   8.400   0.715   9.633 -0.1379  1.3346  1.2267
  181MOL0     H23881   8.645   0.651   9.594  2.0333  0.3970  1.9479
  181MOL0     H23882   8.940   0.327   9.691 -0.8994 -2.8260  0.7197
  181MOL0     H23883   8.810   0.258   9.776  3.6300 -2.0961 -1.0416
  181MOL0     H23884   8.917   0.534   9.824 -2.2946  1.4850  1.1803
  181MOL0     H23885   8.823   0.457   9.942  1.1911  1.0093 -0.1133
  181MOL0     H23886   9.042   0.464  10.029 -1.6917 -0.3803  1.2993
  181MOL0     H23887   9.110   0.382   9.893 -0.2055 -0.2209  0.6105
  181MOL0     H23888   9.052   0.262  10.125  1.9975 -0.4392 -1.4244
  181MOL0     H23889   8.896   0.265  10.093  0.8740  0.9934  2.2223
  181MOL0     H23890   9.000  -0.062   9.860 -1.0186 -0.5941  0.7388
  181MOL0     H23891   8.616   0.344   9.880 -1.3965 -1.0919 -0.5561
  181MOL0     H23892   8.412   0.429   9.958 -1.0172 -1.0484 -0.5669
  182MOL0     O23893  10.321   6.098   6.258  0.4959 -0.2445  0.1326
  182MOL0     C23894  10.337   6.208   6.214  0.2613 -0.9574 -0.1917
  182MOL0     O23895  10.239   6.306   6.193  0.3063 -0.7581 -0.1344
  182MOL0     C23896  10.100   6.294   6.222  0.0680  0.9189  0.7543
  182MOL0     C23897  10.029   6.412   6.200 -0.1279  0.3625  0.1020
  182MOL0     C23898   9.896   6.423   6.256  0.0871  0.5179  0.3963
  182MOL0     C23899   9.831   6.321   6.321 -0.0709 -0.2805 -0.9946
  182MOL0     O23900   9.711   6.353   6.380  0.1672  0.1508  0.4087
  182MOL0     C23901   9.636   6.265   6.471  0.3010 -0.0668  0.4325
  182MOL0     C23902   9.507   6.336   6.499  0.3438 -0.0569 -0.3491
  182MOL0     C23903   9.421   6.393   6.374 -0.6703 -0.2634  1.1551
  182MOL0     C23904   9.276   6.411   6.395 -0.5083 -0.5085  1.2559
  182MOL0     C23905   9.217   6.460   6.256 -0.0564  0.0380  0.7069
  182MOL0     C23906   9.072   6.497   6.280  0.1402 -0.0178 -0.7989
  182MOL0     C23907   9.049   6.632   6.350  1.4941 -0.3448 -0.5452
  182MOL0     C23908   8.905   6.681   6.343  0.3231  0.0552  0.1208
  182MOL0     N23909   8.873   6.757   6.462  0.2133  0.1371 -0.5482
  182MOL0     C23910   8.838   6.702   6.579 -0.2896 -0.3246  0.3917
  182MOL0     C23911   8.825   6.805   6.663  0.6071  0.4970 -0.6854
  182MOL0     C23912   8.796   6.798   6.813 -0.8358 -0.0404  0.1756
  182MOL0     C23913   8.678   6.880   6.860  0.1626 -0.3100  0.4245
  182MOL0     C23914   8.536   6.825   6.835  0.3959  0.1734 -0.6549
  182MOL0     C23915   8.427   6.922   6.870 -0.6344 -0.7153  1.3189
  182MOL0     O23916   8.298   6.858   6.859 -0.2390 -0.4132 -0.2405
  182MOL0     C23917   8.188   6.912   6.801 -0.6303  0.2313  0.0845
  182MOL0     C23918   8.183   7.014   6.701 -0.5086  0.4937 -0.9811
  182MOL0     C23919   8.057   7.056   6.654 -0.2831  0.0325 -0.3226
  182MOL0     C23920   7.938   6.989   6.694 -0.3486 -0.7485  1.3378
  182MOL0     C23921   7.807   7.042   6.649 -0.5516 -0.1827 -0.0984
  182MOL0     O23922   7.691   6.982   6.691 -0.7221  0.4084  0.1088
  182MOL0     C23923   7.569   7.004   6.626 -0.3745 -0.8659 -0.2077
  182MOL0     C23924   7.551   7.033   6.482 -0.9127  0.2149 -0.2618
  182MOL0     C23925   7.423   7.058   6.431  0.0323 -0.3072  0.4137
  182MOL0     C23926   7.310   7.030   6.509 -0.8358  0.8642  1.0929
  182MOL0     O23927   7.194   7.040   6.445 -0.0914  0.9488 -0.0418
  182MOL0     C23928   7.070   7.049   6.511  0.9629 -0.1032 -0.4821
  182MOL0     C23929   6.956   7.070   6.417  0.2738 -0.1382  0.0302
  182MOL0     C23930   6.825   7.087   6.500  0.3900  0.5602 -0.2351
  182MOL0     C23931   6.776   6.956   6.558  0.2723 -0.1732 -0.5052
  182MOL0     C23932   6.632   6.958   6.626 -1.1559 -0.7005  0.0471
  182MOL0     C23933   6.648   7.031   6.754  0.2183  0.2760 -0.0967
  182MOL0     C23934   6.635   7.185   6.766  0.4934 -0.5930 -0.4953
  182MOL0     C23935   6.495   7.231   6.813  0.5355 -0.5279 -0.0489
  182MOL0    Cl23936   6.388   7.113   6.726 -0.3051 -0.3388 -0.5436
  182MOL0     C23937   7.330   6.995   6.643 -0.8028  0.2398  0.4149
  182MOL0     C23938   7.456   6.980   6.696 -0.0761  1.0024 -0.1060
  182MOL0     O23939   7.817   7.127   6.563  0.4443 -0.4054 -0.0937
  182MOL0     C23940   7.949   6.882   6.783 -0.4879 -0.8309  0.2614
  182MOL0     C23941   8.068   6.849   6.835 -0.1961 -1.6133  0.4575
  182MOL0     N23942   8.838   6.925   6.595 -0.7213 -0.7934  0.2197
  182MOL0     N23943   8.869   6.889   6.472  0.2831 -0.6952 -0.2584
  182MOL0     C23944   9.898   6.199   6.328  0.4747  1.1276 -0.4951
  182MOL0     C23945  10.027   6.185   6.275 -0.7585 -0.5268  0.1906
  182MOL0     C23946  10.482   6.245   6.186  0.5594  0.1072 -0.6177
  182MOL0     C23947  10.513   6.361   6.116 -0.2376  0.3771  0.8441
  182MOL0     C23948  10.643   6.386   6.080 -0.6620  0.1336  0.3471
  182MOL0     C23949  10.748   6.298   6.100  0.4367  0.5688 -0.5593
  182MOL0     O23950  10.872   6.336   6.068 -0.0723  0.1699  0.2706
  182MOL0     C23951  10.983   6.255   6.107  0.3389  0.4057  0.1193
  182MOL0     C23952  11.097   6.286   6.012  0.1857 -0.3981 -1.1563
  182MOL0     C23953  11.168   6.418   6.034 -0.0352  0.0762 -0.3818
  182MOL0     C23954  11.271   6.433   5.922  0.0660 -0.1325  0.1878
  182MOL0     C23955  11.212   6.439   5.787  1.7674 -0.2520 -0.4629
  182MOL0     C23956  11.154   6.454   5.679  0.1303  0.3311 -0.6529
  182MOL0     C23957  10.716   6.191   6.186  0.1549 -0.7778 -0.2814
  182MOL0     C23958  10.585   6.166   6.231 -0.4779  0.0905 -0.5666
  182MOL0     H23959  10.085   6.496   6.160  0.6909 -1.4255 -2.8360
  182MOL0     H23960   9.863   6.526   6.258 -3.4761 -0.4066 -1.9654
  182MOL0     H23961   9.704   6.252   6.556  1.3594  0.7487 -0.2464
  182MOL0     H23962   9.620   6.168   6.425 -0.1194  0.1264  0.1683
  182MOL0     H23963   9.548   6.416   6.560  1.3515 -0.0861 -0.9642
  182MOL0     H23964   9.451   6.261   6.555  1.1290 -2.5228 -2.6107
  182MOL0     H23965   9.432   6.319   6.294  2.1118  2.2829 -1.0766
  182MOL0     H23966   9.467   6.488   6.343 -2.0956  0.4401  1.1437
  182MOL0     H23967   9.238   6.317   6.435  0.3040 -1.3143  0.1847
  182MOL0     H23968   9.269   6.492   6.467  3.4918  0.8136  0.4496
  182MOL0     H23969   9.223   6.379   6.183 -1.3910 -2.7723  3.4957
  182MOL0     H23970   9.270   6.549   6.222 -2.3007  1.4550  0.6884
  182MOL0     H23971   9.023   6.414   6.331 -0.4534  0.3570 -0.7593
  182MOL0     H23972   9.029   6.510   6.180 -0.6951  1.3519 -0.2855
  182MOL0     H23973   9.096   6.598   6.443  0.6885 -1.5728 -0.5603
  182MOL0     H23974   9.107   6.718   6.316  0.9279 -1.0465 -3.6159
  182MOL0     H23975   8.832   6.600   6.328  0.9947 -1.1003  2.6207
  182MOL0     H23976   8.903   6.758   6.265  2.6513  0.1426  0.0921
  182MOL0     H23977   8.833   6.599   6.613 -0.9766 -0.9067 -1.3916
  182MOL0     H23978   8.876   6.845   6.871  0.8547 -2.3437 -0.1566
  182MOL0     H23979   8.788   6.696   6.852  1.2858 -0.0857  0.6121
  182MOL0     H23980   8.690   6.976   6.809  2.3447  0.6342  2.5413
  182MOL0     H23981   8.692   6.903   6.966  3.4842  0.8450 -0.1402
  182MOL0     H23982   8.527   6.769   6.741 -2.6930 -1.0379  0.2384
  182MOL0     H23983   8.510   6.754   6.915  0.4320  0.9667  0.0780
  182MOL0     H23984   8.440   7.016   6.815  0.2034  0.4967  3.4682
  182MOL0     H23985   8.439   6.950   6.975  1.4423  2.2434  0.4254
  182MOL0     H23986   8.274   7.066   6.674 -1.0426  2.0922  0.1237
  182MOL0     H23987   8.056   7.140   6.585  0.9734  0.8443  0.5881
  182MOL0     H23988   7.644   7.037   6.425 -0.8796  0.7095 -0.1778
  182MOL0     H23989   7.420   7.082   6.325 -1.3126 -0.0432  0.4922
  182MOL0     H23990   7.081   7.145   6.562  0.6047  2.3274 -4.4957
  182MOL0     H23991   7.053   6.965   6.579 -0.0912  0.3195 -0.2140
  182MOL0     H23992   6.952   6.989   6.344 -1.2277  0.0743 -0.1485
  182MOL0     H23993   6.969   7.168   6.370  1.0121 -0.3686 -0.2639
  182MOL0     H23994   6.750   7.132   6.434 -0.6963 -0.5543  0.2095
  182MOL0     H23995   6.836   7.150   6.588 -3.6577 -1.1127  1.7200
  182MOL0     H23996   6.779   6.876   6.484  0.0279 -2.2802  1.6097
  182MOL0     H23997   6.854   6.910   6.621  2.9201  0.8988 -2.8148
  182MOL0     H23998   6.613   6.852   6.648  1.8068 -1.5667 -1.0102
  182MOL0     H23999   6.565   7.002   6.552  1.4166 -0.9363 -2.6202
  182MOL0     H24000   6.736   7.010   6.815  0.3134  0.6884 -0.0883
  182MOL0     H24001   6.581   6.976   6.820  1.9876 -0.9301  0.7730
  182MOL0     H24002   6.708   7.223   6.839 -0.9389  0.9860  0.1963
  182MOL0     H24003   6.653   7.237   6.672 -1.3274  2.7334  0.8145
  182MOL0     H24004   6.476   7.332   6.776  1.0937  0.3170  1.8100
  182MOL0     H24005   6.489   7.230   6.922  6.2953 -0.8856  0.5651
  182MOL0     H24006   7.242   6.973   6.702  0.5204 -3.2881  1.3392
  182MOL0     H24007   7.451   6.971   6.804 -3.1786 -0.6599 -0.2612
  182MOL0     H24008   7.873   6.807   6.800 -1.6306 -0.0272 -1.0579
  182MOL0     H24009   8.064   6.776   6.915 -1.5961  0.3992  2.3296
  182MOL0     H24010   9.855   6.112   6.377  1.6593  0.2344 -0.9816
  182MOL0     H24011  10.080   6.091   6.287 -0.5890 -0.8923 -2.7961
  182MOL0     H24012  10.435   6.432   6.091 -0.9256 -0.5000  0.4685
  182MOL0     H24013  10.666   6.479   6.030 -3.0236  2.3484  3.0627
  182MOL0     H24014  10.959   6.149   6.093 -1.7125  1.0859 -2.3850
  182MOL0     H24015  11.005   6.280   6.211 -0.8819  2.9491 -0.1460
  182MOL0     H24016  11.176   6.211   6.023 -0.2749 -0.6585  0.7883
  182MOL0     H24017  11.054   6.280   5.912 -0.7354  1.9120 -0.9518
  182MOL0     H24018  11.215   6.422   6.132  0.2397  2.6785 -0.5295
  182MOL0     H24019  11.106   6.508   6.035  0.8195  0.7260 -2.0280
  182MOL0     H24020  11.323   6.528   5.938  1.4147 -1.0717  1.6870
  182MOL0     H24021  11.339   6.348   5.926  0.9783  0.5282 -0.8608
  182MOL0     H24022  11.113   6.468   5.581  0.7815  2.4545 -0.6619
  182MOL0     H24023  10.799   6.127   6.217  1.3543  0.6004 -0.5441
  182MOL0     H24024  10.569   6.086   6.303  0.2401 -0.1563 -0.6758
  183MOL0     O24025  11.337   5.405   4.571 -0.1906  0.0477  0.9840
  183MOL0     C24026  11.333   5.530   4.552  0.5484 -0.1766 -0.0732
  183MOL0     O24027  11.261   5.621   4.620  0.2403  0.1276  0.2118
  183MOL0     C24028  11.170   5.575   4.720  0.1937  0.1236 -0.1730
  183MOL0     C24029  11.042   5.523   4.695 -0.2134 -0.3330  0.5166
  183MOL0     C24030  10.952   5.492   4.794  0.4893  0.9518 -0.1888
  183MOL0     C24031  10.987   5.502   4.928  0.3978 -0.2816  0.2936
  183MOL0     O24032  10.899   5.482   5.032  0.2211  0.0706 -0.5408
  183MOL0     C24033  10.759   5.471   5.020  0.7423 -0.6437 -0.9093
  183MOL0     C24034  10.698   5.436   5.150  0.3612  1.1135 -0.2204
  183MOL0     C24035  10.724   5.532   5.275  0.5683  0.0582  0.4681
  183MOL0     C24036  10.667   5.477   5.402 -0.2459 -0.1432  0.1051
  183MOL0     C24037  10.712   5.555   5.527 -0.5470 -0.3096 -0.0592
  183MOL0     C24038  10.681   5.469   5.642  0.1810  0.8468 -0.6255
  183MOL0     C24039  10.667   5.556   5.766  1.1167 -0.4190  0.7221
  183MOL0     C24040  10.679   5.477   5.896 -0.1562  0.2020 -0.0515
  183MOL0     N24041  10.821   5.437   5.913 -0.7483  0.2067  0.3203
  183MOL0     C24042  10.932   5.517   5.923  0.3313  0.2813 -0.2812
  183MOL0     C24043  11.039   5.431   5.910  0.3049  0.9355 -0.5839
  183MOL0     C24044  11.191   5.461   5.913 -0.3683 -0.1287  0.8714
  183MOL0     C24045  11.264   5.413   6.048 -0.1433 -0.7391 -0.7183
  183MOL0     C24046  11.400   5.471   6.070 -0.4683 -0.2822 -0.2149
  183MOL0     C24047  11.475   5.421   6.193 -0.1935  0.3019  0.0964
  183MOL0     O24048  11.519   5.283   6.160 -0.2556  0.2543  0.0880
  183MOL0     C24049  11.549   5.206   6.270 -0.2523 -0.0726 -1.0665
  183MOL0     C24050  11.463   5.101   6.304  0.0179  0.2458 -0.0571
  183MOL0     C24051  11.484   5.025   6.416 -0.2048  0.7299  0.0620
  183MOL0     C24052  11.584   5.055   6.511  0.7164 -0.0998  0.9372
  183MOL0     C24053  11.607   4.964   6.621  0.1228 -0.3616 -0.7948
  183MOL0     O24054  11.721   4.972   6.675 -1.2215 -0.2992 -0.3334
  183MOL0     C24055  11.796   4.872   6.733 -0.1110  0.4376  0.2445
  183MOL0     C24056  11.898   4.903   6.824  0.2738 -0.7253 -0.4392
  183MOL0     C24057  11.962   4.800   6.898 -0.0127 -0.4349  0.1660
  183MOL0     C24058  11.934   4.664   6.884 -0.2658 -0.0678  0.6440
  183MOL0     O24059  11.984   4.567   6.968  0.4521 -0.3722 -0.4778
  183MOL0     C24060  12.038   4.592   7.098 -0.9817 -0.2688 -0.1488
  183MOL0     C24061  12.125   4.465   7.130 -0.7219  0.2758  0.8320
  183MOL0     C24062  12.166   4.466   7.269  0.1645  0.2289 -0.3311
  183MOL0     C24063  12.274   4.358   7.291 -0.6031  0.1183  0.2676
  183MOL0     C24064  12.310   4.339   7.444 -0.3992 -0.1563  0.1750
  183MOL0     C24065  12.440   4.259   7.482  0.2691 -0.3501  0.2361
  183MOL0     C24066  12.569   4.326   7.438 -0.6328  0.1545  0.3647
  183MOL0     C24067  12.610   4.455   7.510  0.9455 -0.3786  0.7841
  183MOL0    Cl24068  12.584   4.460   7.681 -0.0148 -0.5331  0.1659
  183MOL0     C24069  11.841   4.631   6.788  0.8229 -0.4025  0.1462
  183MOL0     C24070  11.773   4.735   6.714  0.6287 -0.2709  0.0559
  183MOL0     O24071  11.518   4.888   6.657 -0.3861  0.1133 -0.2971
  183MOL0     C24072  11.675   5.156   6.475 -0.2300 -0.0999  0.2186
  183MOL0     C24073  11.649   5.239   6.363  0.2779 -0.3841 -0.4202
  183MOL0     N24074  11.003   5.301   5.903 -0.3353  0.8209  0.5437
  183MOL0     N24075  10.871   5.308   5.896  0.3478 -0.5214 -0.2028
  183MOL0     C24076  11.118   5.540   4.956 -0.4837  0.3106 -0.1283
  183MOL0     C24077  11.207   5.569   4.851 -0.6036 -0.1836 -0.9881
  183MOL0     C24078  11.404   5.580   4.429  0.1926 -0.1921 -0.2710
  183MOL0     C24079  11.507   5.506   4.380 -0.5636  0.3734 -0.3230
  183MOL0     C24080  11.579   5.536   4.265  0.3639 -0.4615  0.2353
  183MOL0     C24081  11.532   5.632   4.183  0.1806 -0.1109 -1.1934
  183MOL0     O24082  11.576   5.649   4.049  0.1496 -0.1149 -0.3040
  183MOL0     C24083  11.695   5.599   4.003 -0.8200 -0.2120 -0.2725
  183MOL0     C24084  11.749   5.699   3.891 -0.0046  0.0680 -0.2654
  183MOL0     C24085  11.859   5.636   3.811  0.4855  0.9753 -0.1136
  183MOL0     C24086  11.900   5.711   3.696 -0.7904  0.3774 -0.0177
  183MOL0     C24087  12.011   5.646   3.617  0.1569 -1.0563  0.2637
  183MOL0     C24088  12.103   5.611   3.551 -0.0054 -0.3667 -0.2515
  183MOL0     C24089  11.422   5.710   4.217 -0.6552  0.5773  0.1110
  183MOL0     C24090  11.365   5.694   4.347 -0.4345  0.4325  0.6625
  183MOL0     H24091  11.009   5.525   4.592  1.6573  2.2042 -0.1044
  183MOL0     H24092  10.856   5.467   4.751 -0.6367 -1.7747  3.4305
  183MOL0     H24093  10.729   5.396   4.946  0.6848 -0.8096 -0.7178
  183MOL0     H24094  10.713   5.563   4.983  0.8653  0.6212  1.8434
  183MOL0     H24095  10.702   5.332   5.182 -1.6040  1.3976  1.1765
  183MOL0     H24096  10.593   5.465   5.135  0.7865  3.0430  0.2270
  183MOL0     H24097  10.673   5.626   5.250 -0.4465 -0.8017 -0.8200
  183MOL0     H24098  10.833   5.536   5.281  0.9722 -1.8420 -2.9465
  183MOL0     H24099  10.558   5.478   5.388 -0.1570  1.7261 -0.8708
  183MOL0     H24100  10.709   5.376   5.409  0.3209  0.1624  1.2951
  183MOL0     H24101  10.661   5.652   5.527  0.1386  0.0666  0.6995
  183MOL0     H24102  10.819   5.578   5.520 -1.0755  2.7009  0.1925
  183MOL0     H24103  10.760   5.396   5.657 -1.1983 -0.9846 -1.7118
  183MOL0     H24104  10.588   5.416   5.617  1.6370 -2.6194  0.7404
  183MOL0     H24105  10.737   5.639   5.770 -0.1754  0.8799 -1.4722
  183MOL0     H24106  10.572   5.610   5.758  2.4706  1.7977 -1.4215
  183MOL0     H24107  10.611   5.392   5.903 -1.0281  0.8240 -0.8265
  183MOL0     H24108  10.644   5.543   5.976  0.6741 -0.5887  1.0013
  183MOL0     H24109  10.935   5.624   5.942  0.2495 -0.0728  2.0902
  183MOL0     H24110  11.206   5.568   5.896  0.3758 -0.2291  0.8416
  183MOL0     H24111  11.235   5.417   5.823 -3.5132 -0.8459 -0.4153
  183MOL0     H24112  11.275   5.304   6.049 -2.6396 -1.1503  2.7969
  183MOL0     H24113  11.208   5.444   6.137  0.7333  1.0779 -0.7476
  183MOL0     H24114  11.462   5.440   5.986 -0.7110 -1.2647 -0.0533
  183MOL0     H24115  11.398   5.579   6.057  1.7414 -0.3053 -1.1681
  183MOL0     H24116  11.403   5.424   6.275  1.0256  1.7364  1.1884
  183MOL0     H24117  11.558   5.487   6.218 -0.0600  0.1257  0.1245
  183MOL0     H24118  11.382   5.062   6.243  0.8511 -1.4973 -0.1130
  183MOL0     H24119  11.417   4.941   6.427  3.6259 -2.7234 -0.3215
  183MOL0     H24120  11.905   5.010   6.839 -1.3644 -0.5871 -0.4307
  183MOL0     H24121  12.028   4.835   6.977 -1.4340  0.5345  0.9639
  183MOL0     H24122  11.947   4.606   7.157 -2.5035 -3.0252 -1.6419
  183MOL0     H24123  12.105   4.677   7.114  0.7508 -1.1699 -2.2007
  183MOL0     H24124  12.209   4.455   7.061  1.0124  0.8242  2.7381
  183MOL0     H24125  12.058   4.379   7.120  1.3359 -1.3697  0.6259
  183MOL0     H24126  12.077   4.457   7.332  1.3744 -0.1290  1.4148
  183MOL0     H24127  12.222   4.557   7.292 -0.8666  0.4668  1.4411
  183MOL0     H24128  12.244   4.257   7.261  1.1244 -1.0209  2.0901
  183MOL0     H24129  12.360   4.390   7.232 -0.6569 -2.5785 -1.4660
  183MOL0     H24130  12.228   4.279   7.485 -1.4524  1.9256  1.3083
  183MOL0     H24131  12.290   4.431   7.501 -2.8452 -0.0523 -0.7089
  183MOL0     H24132  12.424   4.162   7.435  0.2302 -0.0000 -0.4790
  183MOL0     H24133  12.445   4.240   7.590 -2.8994 -0.1367  0.5131
  183MOL0     H24134  12.641   4.246   7.459 -1.1895 -0.9699 -1.7588
  183MOL0     H24135  12.561   4.343   7.330 -4.2513  1.5127  0.7370
  183MOL0     H24136  12.541   4.532   7.475  0.9694 -0.4372  0.6081
  183MOL0     H24137  12.714   4.483   7.493  1.5666 -3.5348 -1.6424
  183MOL0     H24138  11.825   4.526   6.770  0.6858 -1.5555  5.3191
  183MOL0     H24139  11.697   4.699   6.645 -0.3379 -0.5608  1.2366
  183MOL0     H24140  11.755   5.182   6.543  0.6342  1.2578 -1.2415
  183MOL0     H24141  11.708   5.324   6.330 -0.6249 -0.0821 -1.3403
  183MOL0     H24142  11.155   5.558   5.057 -0.2822  3.8058 -0.7041
  183MOL0     H24143  11.301   5.613   4.882 -0.7286 -0.1557 -0.6431
  183MOL0     H24144  11.549   5.427   4.442  1.8500 -0.8818 -3.2900
  183MOL0     H24145  11.664   5.473   4.242  0.7999 -0.9732  2.9052
  183MOL0     H24146  11.676   5.500   3.961  1.1762 -0.2338 -1.2550
  183MOL0     H24147  11.776   5.599   4.077 -1.2027  2.5166  0.2724
  183MOL0     H24148  11.667   5.721   3.822 -1.9862 -1.1563  1.5714
  183MOL0     H24149  11.786   5.792   3.934 -1.1315 -0.9928  3.3121
  183MOL0     H24150  11.824   5.544   3.764  0.5073  1.7069 -1.6078
  183MOL0     H24151  11.945   5.630   3.879 -0.8117  4.1982  2.0250
  183MOL0     H24152  11.809   5.723   3.636  0.1729  2.4206 -1.1531
  183MOL0     H24153  11.930   5.808   3.736  0.0603  0.8113 -1.6500
  183MOL0     H24154  12.166   5.563   3.479 -0.6003  1.5046 -2.0883
  183MOL0     H24155  11.388   5.777   4.139  2.5237 -0.4213 -2.3372
  183MOL0     H24156  11.285   5.761   4.376  0.5996  1.8258  0.4267
  184MOL0     O24157   9.117  10.099   3.375 -0.9326  0.5247 -0.2871
  184MOL0     C24158   9.167  10.075   3.265 -0.7370 -0.9900 -0.2002
  184MOL0     O24159   9.114   9.998   3.168 -0.1305  0.4478  0.3339
  184MOL0     C24160   8.980   9.967   3.180 -0.3597  0.5938  0.6258
  184MOL0     C24161   8.957   9.843   3.230  0.4653 -0.0865  0.2909
  184MOL0     C24162   8.823   9.803   3.246  0.1383 -0.3870 -0.1415
  184MOL0     C24163   8.711   9.890   3.199  0.0779  0.1963 -0.1935
  184MOL0     O24164   8.581   9.855   3.206  0.6311  0.6117  0.3443
  184MOL0     C24165   8.529   9.745   3.261  0.0530 -0.2636  0.2423
  184MOL0     C24166   8.384   9.751   3.307  0.1048  0.3238  0.1649
  184MOL0     C24167   8.291   9.777   3.187  0.0606 -0.0709 -0.3232
  184MOL0     C24168   8.144   9.821   3.233  0.7859  0.6197  0.7423
  184MOL0     C24169   8.043   9.705   3.189 -0.2675 -0.1159  0.1214
  184MOL0     C24170   8.051   9.579   3.277 -0.1639  0.4617  0.6531
  184MOL0     C24171   7.998   9.607   3.424 -0.5437 -0.7692  1.0928
  184MOL0     C24172   8.072   9.529   3.535 -0.3939 -0.1385 -0.0552
  184MOL0     N24173   8.204   9.582   3.582 -0.3900  0.1717  0.1773
  184MOL0     C24174   8.236   9.711   3.626  0.4481  0.4161 -0.0985
  184MOL0     C24175   8.372   9.702   3.636  0.3290 -0.1161  0.1419
  184MOL0     C24176   8.466   9.823   3.654  1.5054  0.0124 -0.5480
  184MOL0     C24177   8.540   9.809   3.793  0.0469 -0.3878 -0.1138
  184MOL0     C24178   8.625   9.940   3.812 -0.6761 -0.0951  0.4811
  184MOL0     C24179   8.700   9.953   3.934 -0.2823 -0.8816  0.1460
  184MOL0     O24180   8.774  10.080   3.955 -0.0147  0.2441  0.0412
  184MOL0     C24181   8.895  10.081   3.894 -0.4096 -0.3170 -0.8684
  184MOL0     C24182   8.966   9.972   3.843 -0.3133 -0.1218  0.0054
  184MOL0     C24183   9.089   9.990   3.781  0.2044  0.3022 -0.0936
  184MOL0     C24184   9.152  10.119   3.778  0.5516  0.1565  0.0765
  184MOL0     C24185   9.282  10.137   3.719 -0.1136  0.2488 -0.1269
  184MOL0     O24186   9.359  10.023   3.715  0.6952  0.1028  0.1440
  184MOL0     C24187   9.494  10.057   3.687 -0.3212  0.8981  0.0039
  184MOL0     C24188   9.570   9.998   3.585  0.7050  0.0128  0.3047
  184MOL0     C24189   9.701  10.021   3.564 -0.1088 -0.7999 -0.3757
  184MOL0     C24190   9.770  10.115   3.653  0.3382  0.6180  0.6944
  184MOL0     O24191   9.900  10.138   3.628  0.2705  0.5362 -0.4660
  184MOL0     C24192   9.951  10.274   3.667  1.2488 -0.5447  0.3752
  184MOL0     C24193  10.085  10.280   3.600 -0.5493  0.1114 -0.3646
  184MOL0     C24194  10.137  10.414   3.563 -0.2006  0.1867 -0.2082
  184MOL0     C24195  10.260  10.408   3.471 -0.0397  0.0506  0.3319
  184MOL0     C24196  10.302  10.550   3.436 -0.7133 -0.0603 -0.2158
  184MOL0     C24197  10.437  10.571   3.361 -0.4084  0.1429  0.7681
  184MOL0     C24198  10.476  10.715   3.322  0.0302 -0.0924 -0.8778
  184MOL0     C24199  10.559  10.723   3.202  0.2124 -0.4156  0.1394
  184MOL0    Cl24200  10.609  10.887   3.167  0.5796 -0.4671 -0.4260
  184MOL0     C24201   9.701  10.157   3.758  0.0394 -0.0005  0.1277
  184MOL0     C24202   9.567  10.124   3.784  0.0524 -0.3209  0.4780
  184MOL0     O24203   9.314  10.246   3.669 -0.3304 -0.1317  0.8867
  184MOL0     C24204   9.080  10.219   3.843  0.2522  1.0073  0.2516
  184MOL0     C24205   8.956  10.208   3.893  0.6997 -0.4811 -0.5726
  184MOL0     N24206   8.418   9.577   3.606  0.4061  0.0522 -0.6557
  184MOL0     N24207   8.319   9.500   3.578  0.5124 -0.8696  0.1063
  184MOL0     C24208   8.743  10.014   3.158  0.6400 -0.4888 -0.3853
  184MOL0     C24209   8.873  10.055   3.148 -0.5338  0.8161  0.2800
  184MOL0     C24210   9.291  10.153   3.226  0.1806  0.1988  0.3198
  184MOL0     C24211   9.307  10.183   3.085  0.5356  0.5880  0.5362
  184MOL0     C24212   9.418  10.257   3.048 -1.1066  0.9145 -0.3935
  184MOL0     C24213   9.518  10.293   3.146  1.2689  0.5543  0.8580
  184MOL0     O24214   9.624  10.374   3.120 -0.2762  0.1780  0.6039
  184MOL0     C24215   9.657  10.398   2.989  0.6369 -1.0549  0.4904
  184MOL0     C24216   9.796  10.456   2.981 -0.4724 -0.4856  0.2448
  184MOL0     C24217   9.807  10.593   3.041  0.5731 -0.1266  0.2766
  184MOL0     C24218   9.960  10.616   3.057  0.0459 -0.8245  0.5524
  184MOL0     C24219   9.979  10.724   3.164  0.2576  0.6899  0.0563
  184MOL0     C24220   9.979  10.802   3.256  0.6711 -0.0965 -0.0679
  184MOL0     C24221   9.507  10.256   3.284  0.5040 -0.6530 -0.1498
  184MOL0     C24222   9.385  10.188   3.327  0.0126  0.1219 -0.2705
  184MOL0     H24223   9.036   9.775   3.261 -0.9553 -1.5804  0.7240
  184MOL0     H24224   8.793   9.708   3.291  0.3636 -0.1271  0.5728
  184MOL0     H24225   8.588   9.716   3.349 -0.8760 -1.1792  0.5837
  184MOL0     H24226   8.553   9.660   3.197 -1.6422 -0.9737  0.5024
  184MOL0     H24227   8.381   9.841   3.369 -2.1647 -0.0282  0.6225
  184MOL0     H24228   8.352   9.656   3.352  2.3461 -1.6872 -2.1553
  184MOL0     H24229   8.292   9.696   3.114  1.2256  1.0233 -1.5816
  184MOL0     H24230   8.338   9.868   3.148  1.6878 -0.3992  0.7875
  184MOL0     H24231   8.143   9.840   3.340 -1.3703  0.4128  0.7950
  184MOL0     H24232   8.113   9.917   3.191 -1.2113  0.4880  1.7970
  184MOL0     H24233   8.067   9.667   3.089 -3.5869  1.9620 -1.6390
  184MOL0     H24234   7.946   9.753   3.177  0.9530  1.8853 -3.3419
  184MOL0     H24235   8.155   9.543   3.277 -0.5636 -0.7322  0.6485
  184MOL0     H24236   7.997   9.495   3.233 -1.7825  1.5744  0.4167
  184MOL0     H24237   7.996   9.709   3.462 -1.6304 -0.4942  0.3410
  184MOL0     H24238   7.892   9.582   3.431 -0.9606  1.0954  2.1472
  184MOL0     H24239   8.101   9.430   3.498 -0.0925  0.0080 -0.2135
  184MOL0     H24240   8.007   9.510   3.622  1.4463 -0.4747  1.3220
  184MOL0     H24241   8.175   9.801   3.625 -2.0858 -1.1657  1.3746
  184MOL0     H24242   8.412   9.918   3.655  3.0338  0.9181  0.3977
  184MOL0     H24243   8.539   9.836   3.574  0.5531 -0.7179 -1.5664
  184MOL0     H24244   8.607   9.726   3.768  1.7353  0.9933 -0.3208
  184MOL0     H24245   8.482   9.792   3.884  2.0927  0.5109  1.4436
  184MOL0     H24246   8.694   9.957   3.729 -2.7609  2.1177 -0.9247
  184MOL0     H24247   8.558  10.026   3.807 -1.4715 -0.7893 -1.4041
  184MOL0     H24248   8.753   9.859   3.953 -0.9142 -1.2667  0.0577
  184MOL0     H24249   8.633   9.957   4.021  2.5880 -1.1555  2.5324
  184MOL0     H24250   8.920   9.875   3.827  0.8823 -0.2455 -3.3105
  184MOL0     H24251   9.135   9.900   3.739  0.1289 -0.0413  0.5573
  184MOL0     H24252   9.517   9.928   3.522  1.9568  0.0085 -0.7841
  184MOL0     H24253   9.759   9.980   3.483  1.9187  0.9889  0.0724
  184MOL0     H24254   9.969  10.292   3.773  0.2956  0.3095  0.4021
  184MOL0     H24255   9.881  10.345   3.621  1.0198 -2.3720 -2.3921
  184MOL0     H24256  10.084  10.226   3.505 -0.0374  0.4664 -0.5786
  184MOL0     H24257  10.159  10.224   3.658 -3.7149 -2.3287  1.6353
  184MOL0     H24258  10.177  10.455   3.655  0.3245  0.2810 -0.4760
  184MOL0     H24259  10.058  10.470   3.512  2.0499  1.0338 -3.0021
  184MOL0     H24260  10.346  10.352   3.511  0.9932  2.3846  1.5570
  184MOL0     H24261  10.240  10.355   3.377  3.7029 -3.5670  1.2183
  184MOL0     H24262  10.314  10.611   3.526  2.1922  0.4629 -0.8477
  184MOL0     H24263  10.220  10.608   3.392  2.9006  3.0641 -3.6189
  184MOL0     H24264  10.421  10.517   3.267 -3.7019  1.2068  0.5636
  184MOL0     H24265  10.517  10.533   3.425 -1.5021  0.6072  2.5011
  184MOL0     H24266  10.383  10.773   3.317 -1.2235 -1.9953 -1.1480
  184MOL0     H24267  10.531  10.750   3.409  1.1363 -3.4330 -0.0953
  184MOL0     H24268  10.508  10.697   3.110 -1.1951 -1.3225  1.1339
  184MOL0     H24269  10.646  10.658   3.213 -0.7629 -1.6251  1.0515
  184MOL0     H24270   9.750  10.223   3.829 -0.2207 -0.9946  1.2570
  184MOL0     H24271   9.510  10.170   3.864 -0.5993  2.1406 -1.2531
  184MOL0     H24272   9.132  10.314   3.847 -0.7867  1.6615 -0.9346
  184MOL0     H24273   8.896  10.293   3.923 -1.7816 -1.7354 -1.5867
  184MOL0     H24274   8.656  10.071   3.127  1.5279 -0.4980 -3.1863
  184MOL0     H24275   8.893  10.158   3.120  0.6127 -0.1722 -2.9792
  184MOL0     H24276   9.249  10.144   3.002  3.1275 -1.4298 -0.4384
  184MOL0     H24277   9.420  10.278   2.941  1.3157  2.5141 -0.1158
  184MOL0     H24278   9.591  10.458   2.925  1.5888  1.9472  2.1438
  184MOL0     H24279   9.658  10.306   2.930 -0.3080 -1.9698  1.8373
  184MOL0     H24280   9.879  10.394   3.018 -0.3965  0.4445  1.7012
  184MOL0     H24281   9.808  10.474   2.874 -0.3659  2.2869  0.6628
  184MOL0     H24282   9.764  10.610   3.141 -0.4552  3.5043 -0.6092
  184MOL0     H24283   9.756  10.669   2.981  1.1820 -0.5148 -0.7465
  184MOL0     H24284  10.004  10.529   3.106 -3.1130 -1.4393  2.6532
  184MOL0     H24285  10.006  10.655   2.966  0.5084 -0.4374  0.9494
  184MOL0     H24286   9.967  10.873   3.336  2.6219 -0.4742  0.6241
  184MOL0     H24287   9.586  10.290   3.350 -0.4153  1.7490 -0.1848
  184MOL0     H24288   9.371  10.172   3.434 -1.9369 -3.8338 -0.9137
  185MOL0     O24289  10.191  10.441   8.154  0.6603  0.0250  0.1684
  185MOL0     C24290  10.282  10.475   8.228  0.3152  0.1781  0.4159
  185MOL0     O24291  10.269  10.535   8.343 -0.7026  0.1046  0.2481
  185MOL0     C24292  10.141  10.541   8.398 -0.1611  0.3379  0.7964
  185MOL0     C24293  10.109  10.658   8.463  0.0651 -1.0688  0.4645
  185MOL0     C24294   9.989  10.679   8.531  0.3502  0.3385 -0.1408
  185MOL0     C24295   9.892  10.573   8.529 -0.0965 -0.2759 -0.4936
  185MOL0     O24296   9.765  10.576   8.571 -0.4551  0.2144  0.4407
  185MOL0     C24297   9.727  10.705   8.640 -0.0974  0.2904 -0.4240
  185MOL0     C24298   9.584  10.686   8.673  0.1564  0.4415 -0.4973
  185MOL0     C24299   9.486  10.658   8.557 -0.1395  0.6026 -0.7136
  185MOL0     C24300   9.389  10.768   8.507 -0.7813 -0.2931  0.7951
  185MOL0     C24301   9.327  10.723   8.374 -0.6868 -0.6221 -0.1097
  185MOL0     C24302   9.195  10.649   8.402  0.4247  0.7498 -0.3815
  185MOL0     C24303   9.123  10.599   8.279 -0.1850  0.7302 -0.0538
  185MOL0     C24304   9.126  10.702   8.160  0.5167 -0.7980 -0.3276
  185MOL0     N24305   9.009  10.665   8.071 -0.6516 -0.3665  0.6269
  185MOL0     C24306   8.887  10.718   8.087 -0.7868 -0.3288  0.1117
  185MOL0     C24307   8.813  10.684   7.984 -0.1574 -0.5023  0.2525
  185MOL0     C24308   8.677  10.720   7.954 -0.1155  1.0831  0.6257
  185MOL0     C24309   8.592  10.612   7.875  0.6082  0.3179 -0.2581
  185MOL0     C24310   8.444  10.648   7.871 -0.0697 -0.5312 -0.1898
  185MOL0     C24311   8.400  10.790   7.851  1.0457  0.8398 -0.4606
  185MOL0     O24312   8.388  10.852   7.983  0.2736  0.1911  0.0081
  185MOL0     C24313   8.261  10.905   8.002 -0.0897  0.0032  0.4473
  185MOL0     C24314   8.147  10.818   8.004 -0.1322 -0.9317  0.0050
  185MOL0     C24315   8.022  10.879   8.007 -1.0360  0.0736 -0.1083
  185MOL0     C24316   8.009  11.015   8.038  0.9186  0.5438  0.3421
  185MOL0     C24317   7.869  11.067   8.071 -0.1886  1.2386 -0.4769
  185MOL0     O24318   7.766  10.971   8.062 -0.6439  0.8559 -0.1409
  185MOL0     C24319   7.635  11.007   8.046  0.7345  0.1888 -0.6173
  185MOL0     C24320   7.565  11.008   7.922 -0.1508 -0.5303 -0.1738
  185MOL0     C24321   7.428  11.033   7.923  0.5109  0.4242  0.2340
  185MOL0     C24322   7.355  11.048   8.042  0.0950  0.7004 -0.0098
  185MOL0     O24323   7.223  11.069   8.022 -0.1209 -0.5406 -0.0969
  185MOL0     C24324   7.134  11.039   8.134  0.0143 -0.0209 -0.2929
  185MOL0     C24325   6.988  11.038   8.090 -0.0985 -0.4889 -0.0818
  185MOL0     C24326   6.899  10.965   8.188  1.4235  0.2349 -0.2340
  185MOL0     C24327   6.755  10.948   8.123 -0.8115  0.5405  0.4121
  185MOL0     C24328   6.638  10.926   8.221  0.3933  0.2004 -0.2085
  185MOL0     C24329   6.670  10.826   8.331 -0.5185 -0.2278 -1.6099
  185MOL0     C24330   6.725  10.690   8.287 -0.2954  0.1230 -0.7179
  185MOL0     C24331   6.772  10.625   8.419 -0.0346 -0.1046 -0.1552
  185MOL0    Cl24332   6.780  10.450   8.382 -0.2260 -0.5307  0.3897
  185MOL0     C24333   7.425  11.063   8.161  0.5535 -0.4329  0.5140
  185MOL0     C24334   7.564  11.040   8.159  0.3365 -0.8611  0.1406
  185MOL0     O24335   7.849  11.189   8.084  0.6603 -0.1513 -0.1159
  185MOL0     C24336   8.115  11.101   8.024  0.5431 -1.1344  0.4313
  185MOL0     C24337   8.242  11.045   8.001 -0.0840 -0.5089 -0.1399
  185MOL0     N24338   8.892  10.609   7.905 -0.0617  0.3477  0.6366
  185MOL0     N24339   9.008  10.600   7.953 -0.0449 -0.2590  0.5282
  185MOL0     C24340   9.921  10.458   8.453  1.3435  0.0494  0.1578
  185MOL0     C24341  10.045  10.437   8.397  0.1794  1.1358 -0.2265
  185MOL0     C24342  10.417  10.440   8.198 -0.2414  0.2338  0.8829
  185MOL0     C24343  10.537  10.470   8.262  0.6049  0.2301 -0.7545
  185MOL0     C24344  10.664  10.436   8.211  0.0504 -1.3533  0.0838
  185MOL0     C24345  10.680  10.354   8.100 -0.2284 -0.6679  0.2161
  185MOL0     O24346  10.806  10.306   8.069 -0.4035 -0.0855  0.3470
  185MOL0     C24347  10.818  10.204   7.965 -0.1885 -0.2366  0.3466
  185MOL0     C24348  10.963  10.182   7.902 -0.0104 -0.3669 -0.1333
  185MOL0     C24349  11.077  10.168   8.003  0.0137  0.8258 -0.1433
  185MOL0     C24350  11.184  10.080   7.933 -0.2757  0.7871 -0.3758
  185MOL0     C24351  11.285  10.021   8.023  0.1317 -0.1767  0.1140
  185MOL0     C24352  11.359   9.962   8.106  0.3588 -1.3766  0.9693
  185MOL0     C24353  10.568  10.312   8.042  0.3943  0.3341  0.5066
  185MOL0     C24354  10.441  10.362   8.086  0.7287 -0.3291  0.5125
  185MOL0     H24355  10.173  10.746   8.467 -2.2190  0.6508  2.0316
  185MOL0     H24356   9.974  10.776   8.576  0.5651  0.1781  0.2825
  185MOL0     H24357   9.731  10.797   8.581  1.7941  2.2292  2.4570
  185MOL0     H24358   9.787  10.724   8.729  1.2043  0.9047 -1.4023
  185MOL0     H24359   9.537  10.770   8.724 -0.1272 -0.3617  0.6143
  185MOL0     H24360   9.580  10.601   8.742 -3.8361  1.4579  0.7577
  185MOL0     H24361   9.436  10.561   8.554  0.5835  0.2284 -0.8410
  185MOL0     H24362   9.556  10.644   8.474  0.7521 -0.8522  0.2272
  185MOL0     H24363   9.315  10.789   8.585 -3.8794  0.0997 -2.0078
  185MOL0     H24364   9.442  10.860   8.484 -1.8605  0.6493  1.9400
  185MOL0     H24365   9.400  10.670   8.312  3.6551  1.8018  2.4771
  185MOL0     H24366   9.310  10.818   8.321  1.4228  1.6699  2.9604
  185MOL0     H24367   9.131  10.716   8.459  0.5889  0.0619  0.6326
  185MOL0     H24368   9.219  10.562   8.464 -1.4451 -0.8383 -1.7496
  185MOL0     H24369   9.176  10.509   8.244 -1.4212 -0.0199 -0.0824
  185MOL0     H24370   9.017  10.580   8.300  0.0859 -1.9839 -0.6290
  185MOL0     H24371   9.219  10.694   8.103  0.7878  0.4534 -0.0916
  185MOL0     H24372   9.112  10.807   8.189  3.3458  0.0358 -1.5968
  185MOL0     H24373   8.846  10.772   8.172 -0.2496 -2.9284  2.1592
  185MOL0     H24374   8.689  10.813   7.899  3.1299  0.7619  0.5737
  185MOL0     H24375   8.622  10.748   8.045 -1.0540  1.6386 -0.1039
  185MOL0     H24376   8.601  10.514   7.923  0.1636  1.0554  1.4034
  185MOL0     H24377   8.641  10.599   7.778 -0.6172 -0.6024 -0.7654
  185MOL0     H24378   8.389  10.591   7.796  0.7586  0.1073 -1.3210
  185MOL0     H24379   8.402  10.611   7.965  0.9311 -0.7653  0.1742
  185MOL0     H24380   8.308  10.797   7.793 -1.3018 -1.0369  2.7307
  185MOL0     H24381   8.482  10.843   7.801  0.9594 -0.7173 -2.3914
  185MOL0     H24382   8.173  10.713   7.999  0.7073 -0.6625 -3.9047
  185MOL0     H24383   7.930  10.822   7.996 -0.3057 -0.9859 -0.9253
  185MOL0     H24384   7.612  10.980   7.829 -1.1692  1.3559 -1.3113
  185MOL0     H24385   7.378  11.036   7.826 -0.2825  0.5329  0.6372
  185MOL0     H24386   7.153  11.110   8.215  2.3476  0.4821 -1.2005
  185MOL0     H24387   7.153  10.938   8.172 -2.6169 -0.2420  0.6066
  185MOL0     H24388   6.981  10.998   7.989  1.2881 -0.1040 -0.3497
  185MOL0     H24389   6.950  11.141   8.087 -0.3882 -0.6090 -0.6343
  185MOL0     H24390   6.901  11.002   8.291 -0.1245 -3.7682  1.4309
  185MOL0     H24391   6.924  10.859   8.198 -3.2294 -1.2205 -1.8495
  185MOL0     H24392   6.731  11.038   8.064 -1.1611  1.1995  1.5271
  185MOL0     H24393   6.751  10.864   8.054 -2.7620 -0.4861  1.6695
  185MOL0     H24394   6.546  10.900   8.170  1.1565 -0.3204 -1.3629
  185MOL0     H24395   6.606  11.023   8.262 -0.7192  0.3041 -1.3082
  185MOL0     H24396   6.581  10.817   8.393  0.0922  1.8725 -0.3257
  185MOL0     H24397   6.738  10.874   8.403  1.3561 -0.9219 -2.8285
  185MOL0     H24398   6.642  10.632   8.246 -2.2338  1.5812  0.9175
  185MOL0     H24399   6.812  10.692   8.220 -0.7220 -1.9899 -1.4157
  185MOL0     H24400   6.712  10.655   8.505  2.4025  3.4898  0.5354
  185MOL0     H24401   6.875  10.658   8.435  0.2382 -1.5325  1.3134
  185MOL0     H24402   7.381  11.092   8.256 -0.7291  1.4804 -0.5831
  185MOL0     H24403   7.619  11.040   8.253  0.3478  0.5836  0.1587
  185MOL0     H24404   8.096  11.206   8.041 -2.0750 -1.6702  1.3625
  185MOL0     H24405   8.335  11.102   8.002 -0.5448  0.2700 -0.3757
  185MOL0     H24406   9.849  10.377   8.454  0.4807  0.7990  1.2793
  185MOL0     H24407  10.056  10.340   8.351  0.0080 -0.3387  2.6028
  185MOL0     H24408  10.531  10.516   8.360 -4.2080 -2.4328  0.5031
  185MOL0     H24409  10.753  10.474   8.259  0.6057 -1.7489 -0.6161
  185MOL0     H24410  10.761  10.244   7.880  2.5822 -1.0826 -2.0994
  185MOL0     H24411  10.784  10.110   8.009  1.9063  0.1880  3.1520
  185MOL0     H24412  10.952  10.086   7.852 -0.7254 -0.8464  0.9197
  185MOL0     H24413  10.989  10.259   7.828  3.3432  1.4251  2.6084
  185MOL0     H24414  11.042  10.109   8.089  1.1297  1.7903  1.0128
  185MOL0     H24415  11.105  10.266   8.042  0.6389 -0.2259  2.2509
  185MOL0     H24416  11.147   9.992   7.879 -0.4975  0.5067  0.2154
  185MOL0     H24417  11.233  10.152   7.867 -0.3509  1.8411  0.6829
  185MOL0     H24418  11.438   9.931   8.171  1.9633  1.1889  0.4058
  185MOL0     H24419  10.566  10.237   7.963  1.7745  2.3762 -1.6327
  185MOL0     H24420  10.366  10.329   8.016  2.5101 -2.9915 -0.2940
  186MOL0     O24421   0.998   1.435   1.177  0.2119  0.3224 -0.2420
  186MOL0     C24422   1.090   1.370   1.131 -0.1694  0.3377 -0.2524
  186MOL0     O24423   1.082   1.256   1.054  0.2522 -1.0056 -0.0010
  186MOL0     C24424   0.965   1.240   0.987 -0.1064  0.0039  0.4759
  186MOL0     C24425   0.835   1.237   1.032 -0.5974 -0.0611 -0.0430
  186MOL0     C24426   0.725   1.226   0.946 -0.1620  0.1003  0.7756
  186MOL0     C24427   0.742   1.219   0.810  0.3215  0.7208  0.2868
  186MOL0     O24428   0.645   1.216   0.719  0.0441 -0.5956 -0.1130
  186MOL0     C24429   0.503   1.184   0.748 -0.6422  0.1911 -1.3052
  186MOL0     C24430   0.430   1.145   0.622 -0.5461 -0.7247 -0.6527
  186MOL0     C24431   0.286   1.146   0.649 -0.5276  0.2796  0.8267
  186MOL0     C24432   0.220   1.094   0.516  0.8511 -0.9470  0.4855
  186MOL0     C24433   0.067   1.090   0.520 -0.4152 -0.7046  0.4767
  186MOL0     C24434   0.004   1.229   0.531  0.4337  0.4448 -0.5525
  186MOL0     C24435  -0.147   1.230   0.494 -0.2118  0.1425  0.0902
  186MOL0     C24436  -0.205   1.370   0.517  0.7674  0.0839  0.0528
  186MOL0     N24437  -0.339   1.376   0.456 -0.1491 -0.4088  0.7536
  186MOL0     C24438  -0.372   1.381   0.321  0.7143  0.4235 -0.5863
  186MOL0     C24439  -0.511   1.383   0.308 -0.3287 -0.3007 -0.6783
  186MOL0     C24440  -0.593   1.395   0.177  0.1501  0.1657 -0.5891
  186MOL0     C24441  -0.698   1.502   0.179  0.0531 -0.0220 -0.1622
  186MOL0     C24442  -0.792   1.481   0.057 -0.3642  0.1864 -0.4460
  186MOL0     C24443  -0.865   1.614   0.042 -0.0086  0.5818 -0.1719
  186MOL0     O24444  -0.988   1.593  -0.032  0.6198 -0.7077 -0.0790
  186MOL0     C24445  -1.064   1.706  -0.055 -0.5819  0.1048  0.0373
  186MOL0     C24446  -1.202   1.675  -0.089 -0.0041  0.1756 -0.3477
  186MOL0     C24447  -1.296   1.771  -0.086 -1.1700 -0.3853  1.1722
  186MOL0     C24448  -1.262   1.910  -0.070 -0.2123  0.1654 -0.1441
  186MOL0     C24449  -1.364   2.010  -0.101  0.0717  0.7126  0.1225
  186MOL0     O24450  -1.465   1.970  -0.184  0.6574 -0.0985 -0.2290
  186MOL0     C24451  -1.571   2.055  -0.217 -0.6294  0.7801 -0.3735
  186MOL0     C24452  -1.542   2.182  -0.282 -0.2148 -0.2760 -0.1457
  186MOL0     C24453  -1.639   2.284  -0.289  0.4792  0.0125  0.7391
  186MOL0     C24454  -1.768   2.256  -0.243  0.0787 -0.0856 -0.5925
  186MOL0     O24455  -1.855   2.364  -0.260 -0.0375 -0.2091 -0.1839
  186MOL0     C24456  -1.982   2.368  -0.196 -0.4620  0.1998  0.5706
  186MOL0     C24457  -2.074   2.300  -0.301  0.2159  0.5024  0.9465
  186MOL0     C24458  -2.228   2.304  -0.263 -0.5507 -0.0474  0.0675
  186MOL0     C24459  -2.297   2.442  -0.291 -0.2185 -0.8539  0.0559
  186MOL0     C24460  -2.447   2.435  -0.262 -0.2350 -0.2629  0.4504
  186MOL0     C24461  -2.477   2.427  -0.113  0.4226  1.1571  0.4491
  186MOL0     C24462  -2.437   2.549  -0.032  0.1628  0.6059  0.3027
  186MOL0     C24463  -2.477   2.683  -0.098  0.5609 -0.5348 -0.5727
  186MOL0    Cl24464  -2.662   2.687  -0.130 -0.1479  0.1984  0.0850
  186MOL0     C24465  -1.795   2.137  -0.181  0.5661 -0.0440 -0.6028
  186MOL0     C24466  -1.707   2.037  -0.176 -0.1932  1.0593 -0.1253
  186MOL0     O24467  -1.353   2.126  -0.055  0.9916 -0.2165  0.9271
  186MOL0     C24468  -1.122   1.940  -0.052  0.5245 -0.7655  0.1464
  186MOL0     C24469  -1.024   1.843  -0.042  0.1630  0.5057 -0.5762
  186MOL0     N24470  -0.552   1.380   0.443  0.3088 -0.2073  0.6310
  186MOL0     N24471  -0.458   1.377   0.524  0.2865  0.2733  0.0191
  186MOL0     C24472   0.874   1.223   0.759  0.8400  0.6763 -0.5444
  186MOL0     C24473   0.982   1.227   0.851  0.7135 -0.6124  0.2933
  186MOL0     C24474   1.223   1.425   1.166 -0.2867 -0.4214 -0.3828
  186MOL0     C24475   1.329   1.341   1.216 -0.2585  0.3233  0.6788
  186MOL0     C24476   1.456   1.388   1.250  0.9015 -0.3162 -0.9332
  186MOL0     C24477   1.488   1.518   1.212 -0.2980 -0.0524  0.2822
  186MOL0     O24478   1.618   1.551   1.235 -0.2277 -0.6141  0.0059
  186MOL0     C24479   1.671   1.677   1.180  0.1205 -0.5282  0.7354
  186MOL0     C24480   1.829   1.674   1.190  0.5782  0.9639 -0.0956
  186MOL0     C24481   1.887   1.668   1.331 -0.7507 -0.7050 -0.0277
  186MOL0     C24482   2.026   1.736   1.329 -0.2141 -0.0093 -0.6978
  186MOL0     C24483   2.013   1.885   1.357 -0.4469 -0.0322  0.2131
  186MOL0     C24484   2.001   2.005   1.367 -0.7003  0.0423 -0.2243
  186MOL0     C24485   1.388   1.606   1.163  0.5145  0.2175 -0.6591
  186MOL0     C24486   1.251   1.560   1.152 -1.1242  0.2643  0.8105
  186MOL0     H24487   0.795   1.241   1.133 -2.4054 -1.3045 -0.6496
  186MOL0     H24488   0.628   1.215   0.993 -0.0799  2.6646  1.7071
  186MOL0     H24489   0.464   1.274   0.798  0.5776  1.0844 -1.8931
  186MOL0     H24490   0.499   1.098   0.815 -0.5403 -0.9610 -2.7469
  186MOL0     H24491   0.456   1.047   0.581  1.5390 -1.8415  2.8947
  186MOL0     H24492   0.458   1.220   0.548  2.7255 -1.0344  0.1052
  186MOL0     H24493   0.271   1.253   0.666  2.8031  0.8447  0.9543
  186MOL0     H24494   0.258   1.080   0.731  0.7144 -2.0567 -0.4931
  186MOL0     H24495   0.255   1.148   0.427  0.3762  0.6716  1.2456
  186MOL0     H24496   0.248   0.991   0.491  0.1199 -1.1480  0.4679
  186MOL0     H24497   0.024   1.023   0.595  1.6137 -0.2167  2.1985
  186MOL0     H24498   0.036   1.052   0.423 -1.7030 -0.7046  0.8713
  186MOL0     H24499   0.055   1.305   0.471  1.0463  2.3091  2.1659
  186MOL0     H24500   0.029   1.269   0.629  0.0187  1.4763 -0.8499
  186MOL0     H24501  -0.150   1.212   0.386 -1.4408 -1.5597  0.3797
  186MOL0     H24502  -0.216   1.163   0.545 -4.0775  1.5396 -2.7958
  186MOL0     H24503  -0.148   1.449   0.468 -1.9150  3.6020  2.0931
  186MOL0     H24504  -0.222   1.392   0.623 -1.0239 -1.3123  0.0992
  186MOL0     H24505  -0.315   1.381   0.229 -3.4362  1.5322 -3.4483
  186MOL0     H24506  -0.623   1.292   0.158  2.8323 -1.8513  4.3203
  186MOL0     H24507  -0.521   1.432   0.104 -2.5910  2.4417 -2.3498
  186MOL0     H24508  -0.639   1.594   0.174 -0.4440  0.3355  0.3684
  186MOL0     H24509  -0.747   1.511   0.277  2.4504  3.2926  0.9288
  186MOL0     H24510  -0.737   1.449  -0.031  1.2244  0.2666  0.4698
  186MOL0     H24511  -0.860   1.401   0.089 -1.6590  1.7068  0.7937
  186MOL0     H24512  -0.802   1.684  -0.014 -0.1453 -0.3967 -1.6075
  186MOL0     H24513  -0.892   1.660   0.138 -0.2969 -0.3670  0.2162
  186MOL0     H24514  -1.231   1.570  -0.084 -2.9012  0.9248 -0.0038
  186MOL0     H24515  -1.396   1.731  -0.098 -0.8289 -1.8834  2.8846
  186MOL0     H24516  -1.442   2.211  -0.312 -0.0632  1.1854  1.6476
  186MOL0     H24517  -1.608   2.381  -0.326 -2.0164 -0.3434 -2.7703
  186MOL0     H24518  -2.003   2.475  -0.185  2.8259  1.1965 -1.4869
  186MOL0     H24519  -1.974   2.322  -0.097  1.6865  1.1414  0.8801
  186MOL0     H24520  -2.058   2.193  -0.318  2.6025  0.6487  1.8221
  186MOL0     H24521  -2.044   2.347  -0.396 -2.0991  1.6621  0.7310
  186MOL0     H24522  -2.233   2.263  -0.161  0.4840 -1.1976 -0.3170
  186MOL0     H24523  -2.285   2.233  -0.324  1.3704 -0.0703 -1.8180
  186MOL0     H24524  -2.256   2.531  -0.243 -2.8491 -0.0291  0.9208
  186MOL0     H24525  -2.292   2.466  -0.398  2.3609  0.1564  0.3354
  186MOL0     H24526  -2.485   2.355  -0.327 -0.3555  1.1282 -1.2689
  186MOL0     H24527  -2.495   2.528  -0.294  0.0423  0.9895  3.3828
  186MOL0     H24528  -2.418   2.343  -0.075  2.4999  1.2507 -2.2144
  186MOL0     H24529  -2.583   2.399  -0.117  1.6324 -4.7616 -0.7152
  186MOL0     H24530  -2.472   2.536   0.070  1.7465 -2.4804  0.5849
  186MOL0     H24531  -2.328   2.542  -0.018 -0.0808  0.2639  2.2996
  186MOL0     H24532  -2.421   2.699  -0.191  0.2081 -0.8426 -0.8408
  186MOL0     H24533  -2.446   2.760  -0.027 -0.5565 -0.5607 -0.0362
  186MOL0     H24534  -1.899   2.113  -0.164  0.3259  1.9380  1.0551
  186MOL0     H24535  -1.736   1.939  -0.139 -2.4446  1.5517 -0.4767
  186MOL0     H24536  -1.095   2.045  -0.042  1.5085 -1.2124  2.9696
  186MOL0     H24537  -0.921   1.864  -0.014  0.8082 -1.7623 -1.0591
  186MOL0     H24538   0.893   1.210   0.653 -0.1120  0.9813 -0.7609
  186MOL0     H24539   1.081   1.219   0.807  1.5805  1.7074  1.6362
  186MOL0     H24540   1.307   1.235   1.211 -0.2448  0.3746 -1.9519
  186MOL0     H24541   1.529   1.316   1.285 -0.6603 -0.1548  3.2296
  186MOL0     H24542   1.632   1.753   1.247  3.7230  1.4041  0.9021
  186MOL0     H24543   1.644   1.689   1.075  1.8261  0.5655  0.3777
  186MOL0     H24544   1.851   1.574   1.151 -0.8979  1.4177 -2.2799
  186MOL0     H24545   1.864   1.740   1.110 -2.9835  3.0533 -0.1545
  186MOL0     H24546   1.891   1.563   1.361  0.4568 -1.2470 -1.9034
  186MOL0     H24547   1.811   1.721   1.388  0.2609  0.1716  0.5376
  186MOL0     H24548   2.097   1.704   1.406 -0.3323 -1.8841 -1.3109
  186MOL0     H24549   2.065   1.730   1.227 -0.6405  1.5821 -0.9836
  186MOL0     H24550   1.986   2.109   1.387 -0.8350  0.3009 -1.5624
  186MOL0     H24551   1.414   1.702   1.119  0.2660  1.4772  1.7532
  186MOL0     H24552   1.179   1.618   1.095  0.4336  0.4943 -1.0242
  187MOL0     O24553   7.462   4.115   7.861  0.0148 -0.1665 -0.5879
  187MOL0     C24554   7.502   4.056   7.963 -0.7778 -0.1761  1.2263
  187MOL0     O24555   7.429   4.005   8.059 -0.0873  0.2466 -0.5707
  187MOL0     C24556   7.296   4.023   8.051  0.1765  0.5347  0.0549
  187MOL0     C24557   7.219   3.909   8.044  0.7131 -0.0783 -1.0858
  187MOL0     C24558   7.080   3.923   8.057  0.1046  0.7940  1.3261
  187MOL0     C24559   7.006   4.035   8.086  0.0048 -0.2001 -1.1092
  187MOL0     O24560   6.869   4.029   8.099 -0.4439  0.1524 -0.3031
  187MOL0     C24561   6.791   4.127   8.162 -0.0301 -0.6863 -0.4039
  187MOL0     C24562   6.646   4.099   8.126  0.5404  0.8272  1.4359
  187MOL0     C24563   6.547   4.212   8.168 -0.5291  1.1286  0.1202
  187MOL0     C24564   6.424   4.196   8.090  0.2708 -0.1208  0.3640
  187MOL0     C24565   6.320   4.307   8.107 -0.0613 -0.3110 -0.3199
  187MOL0     C24566   6.175   4.257   8.084 -0.3008 -0.0174 -0.7778
  187MOL0     C24567   6.090   4.387   8.104  0.0882  0.3089 -0.0282
  187MOL0     C24568   5.953   4.364   8.062 -0.1665  0.1201  0.3026
  187MOL0     N24569   5.876   4.482   8.097  0.5020 -0.8339  0.4267
  187MOL0     C24570   5.912   4.596   8.152  0.3124 -0.8416  1.0856
  187MOL0     C24571   5.802   4.662   8.188  0.1296  0.5013 -0.3243
  187MOL0     C24572   5.796   4.809   8.235 -0.4871  0.1053 -0.2625
  187MOL0     C24573   5.718   4.897   8.141 -0.1888 -0.2334  0.3177
  187MOL0     C24574   5.694   5.044   8.175  0.3753 -0.1877  0.0823
  187MOL0     C24575   5.597   5.105   8.074 -0.1311 -1.0308 -0.3785
  187MOL0     O24576   5.564   5.246   8.109 -0.0680  0.8060 -0.8703
  187MOL0     C24577   5.443   5.301   8.082  0.3204  0.1858 -0.4204
  187MOL0     C24578   5.336   5.236   8.019 -0.4976 -0.0874 -0.3687
  187MOL0     C24579   5.212   5.299   7.998  0.3586 -0.1617 -0.5776
  187MOL0     C24580   5.187   5.424   8.059 -0.2201 -0.0244  0.2305
  187MOL0     C24581   5.054   5.483   8.059 -0.4388 -0.0220  0.9284
  187MOL0     O24582   4.956   5.410   7.992 -0.6589  0.1628  0.5026
  187MOL0     C24583   4.820   5.453   7.997 -0.2017  1.3389 -0.4100
  187MOL0     C24584   4.724   5.353   8.049  0.0655 -1.0101 -0.0966
  187MOL0     C24585   4.589   5.389   8.061  0.3206 -0.9208  0.0941
  187MOL0     C24586   4.538   5.510   8.009  0.0104 -0.0456  0.4458
  187MOL0     O24587   4.407   5.547   8.001 -0.1028 -0.2258  0.4441
  187MOL0     C24588   4.322   5.472   8.103 -0.0689 -0.9656  0.2772
  187MOL0     C24589   4.177   5.514   8.098  0.0246 -0.3201  0.5025
  187MOL0     C24590   4.118   5.490   7.952  0.3539 -0.2445  0.6265
  187MOL0     C24591   3.959   5.490   7.948 -0.3095 -0.5468  1.0749
  187MOL0     C24592   3.902   5.451   7.812 -0.0581 -0.7417  0.2495
  187MOL0     C24593   3.752   5.405   7.821  0.2650 -0.2386  1.2462
  187MOL0     C24594   3.645   5.510   7.851  0.3904  0.9495 -0.2347
  187MOL0     C24595   3.640   5.627   7.747 -0.2516 -0.5848  0.0078
  187MOL0    Cl24596   3.727   5.763   7.827 -0.7134  0.0998 -0.0094
  187MOL0     C24597   4.634   5.601   7.953  0.0133 -0.1730 -0.0212
  187MOL0     C24598   4.769   5.577   7.953 -0.0879 -0.1875 -0.4895
  187MOL0     O24599   5.037   5.585   8.124 -0.0096  0.3344 -0.3633
  187MOL0     C24600   5.296   5.488   8.126  0.6091  0.1474 -0.4045
  187MOL0     C24601   5.426   5.425   8.142 -0.2954  1.5954  0.1378
  187MOL0     N24602   5.692   4.573   8.162 -0.6045 -0.4126  0.2381
  187MOL0     N24603   5.740   4.474   8.100  0.0139  0.6546  0.4334
  187MOL0     C24604   7.087   4.148   8.100 -1.1815 -0.0209 -0.0379
  187MOL0     C24605   7.233   4.141   8.091 -0.2177 -0.6651  1.0013
  187MOL0     C24606   7.648   4.052   7.991 -0.4100  0.8286 -0.4958
  187MOL0     C24607   7.693   4.037   8.121  0.3054  0.3667 -0.4795
  187MOL0     C24608   7.835   4.049   8.146  0.4288 -1.2221 -0.3766
  187MOL0     C24609   7.928   4.070   8.050 -0.8879  0.7189  0.9245
  187MOL0     O24610   8.061   4.051   8.086  0.2785  0.2797 -0.4241
  187MOL0     C24611   8.164   4.101   8.009 -0.5570 -0.3289  0.4433
  187MOL0     C24612   8.283   4.110   8.111  0.9563 -0.4945  0.0170
  187MOL0     C24613   8.411   4.155   8.037 -0.5242 -0.4087  0.8983
  187MOL0     C24614   8.523   4.190   8.137 -0.3488 -0.0473  0.6972
  187MOL0     C24615   8.655   4.227   8.077  0.5288  0.0437  0.4088
  187MOL0     C24616   8.765   4.260   8.032  0.5146 -0.2050 -0.7659
  187MOL0     C24617   7.884   4.083   7.916 -0.4263  0.2375 -0.0688
  187MOL0     C24618   7.745   4.077   7.891  1.3144  0.6389 -0.4913
  187MOL0     H24619   7.270   3.813   8.034 -1.0619 -1.3338  0.9898
  187MOL0     H24620   7.027   3.829   8.047  0.3866  0.8115 -0.5952
  187MOL0     H24621   6.815   4.225   8.118  3.4256 -1.0834  0.2996
  187MOL0     H24622   6.808   4.134   8.270 -1.1546 -0.3402 -0.2411
  187MOL0     H24623   6.615   4.001   8.165 -1.2757 -0.2144 -2.1560
  187MOL0     H24624   6.640   4.093   8.016  1.8307 -0.6533  1.4073
  187MOL0     H24625   6.583   4.314   8.149  1.0232  0.4071 -1.0671
  187MOL0     H24626   6.520   4.220   8.274 -2.7711  1.2156 -0.4075
  187MOL0     H24627   6.436   4.186   7.982 -1.9069  2.1637 -0.2010
  187MOL0     H24628   6.375   4.102   8.118 -0.3794 -0.3203 -1.3328
  187MOL0     H24629   6.341   4.380   8.028  1.8286 -0.9427 -0.4456
  187MOL0     H24630   6.341   4.357   8.202  4.5951 -1.9511 -0.1938
  187MOL0     H24631   6.141   4.183   8.156 -0.1559 -1.9505 -2.5868
  187MOL0     H24632   6.173   4.211   7.985 -0.1286 -0.2111 -0.6903
  187MOL0     H24633   6.088   4.403   8.212 -0.9316 -0.0235  0.0119
  187MOL0     H24634   6.149   4.461   8.048 -0.0238  0.3878 -0.0420
  187MOL0     H24635   5.908   4.273   8.104 -0.0443 -1.2078 -2.2534
  187MOL0     H24636   5.964   4.343   7.955 -0.1403 -1.2181  0.5501
  187MOL0     H24637   6.014   4.626   8.174  0.7566 -2.9534  2.1691
  187MOL0     H24638   5.897   4.848   8.250 -0.8380  0.2911  1.8985
  187MOL0     H24639   5.755   4.823   8.335  0.4305 -0.1758  0.1642
  187MOL0     H24640   5.622   4.848   8.124 -0.1417 -0.6559  1.2110
  187MOL0     H24641   5.767   4.890   8.043  0.7349 -2.1057  0.8556
  187MOL0     H24642   5.646   5.039   8.273  0.0228  0.6889 -0.0358
  187MOL0     H24643   5.792   5.093   8.174 -0.1979  1.0605 -2.0595
  187MOL0     H24644   5.508   5.042   8.077 -0.9549  0.0527 -1.0785
  187MOL0     H24645   5.634   5.105   7.971 -0.5336  0.4519 -0.5542
  187MOL0     H24646   5.340   5.134   7.984 -1.6418 -1.0286  2.0077
  187MOL0     H24647   5.138   5.254   7.932 -1.7340 -0.0327  1.5406
  187MOL0     H24648   4.763   5.259   8.087 -2.0447 -2.1697 -0.6587
  187MOL0     H24649   4.527   5.312   8.106  3.1752 -2.3486  1.9228
  187MOL0     H24650   4.337   5.497   8.208  0.0695 -2.1029  0.5402
  187MOL0     H24651   4.326   5.365   8.080 -0.0135 -0.2536 -3.8734
  187MOL0     H24652   4.171   5.615   8.138 -0.1083  0.3450 -1.1044
  187MOL0     H24653   4.120   5.455   8.170 -0.0778  1.4337  1.9044
  187MOL0     H24654   4.146   5.388   7.923 -1.2712 -0.2575 -1.1330
  187MOL0     H24655   4.161   5.563   7.882  1.4667  0.3549  1.9124
  187MOL0     H24656   3.910   5.422   8.018  0.9493 -2.6203  0.0565
  187MOL0     H24657   3.932   5.592   7.974 -0.9194 -0.3494 -0.2479
  187MOL0     H24658   3.949   5.355   7.787 -1.5912 -0.7210 -3.3039
  187MOL0     H24659   3.920   5.527   7.735  0.3940 -0.0857  0.9877
  187MOL0     H24660   3.753   5.326   7.897  1.9372 -1.5901 -0.1006
  187MOL0     H24661   3.719   5.353   7.730  2.0526 -2.4966  1.8159
  187MOL0     H24662   3.554   5.449   7.854  0.1221  1.3125  2.9139
  187MOL0     H24663   3.646   5.553   7.952 -0.2526 -2.5428  1.4229
  187MOL0     H24664   3.541   5.667   7.725  0.9522  2.7080  0.0396
  187MOL0     H24665   3.684   5.601   7.650 -1.1123  0.3102 -0.6336
  187MOL0     H24666   4.601   5.694   7.908 -1.5634 -1.2221 -1.1276
  187MOL0     H24667   4.847   5.652   7.941 -1.7437  2.5057  3.4018
  187MOL0     H24668   5.266   5.582   8.172 -3.7716 -0.6365 -1.2653
  187MOL0     H24669   5.509   5.476   8.190 -0.1369  2.0332 -0.5835
  187MOL0     H24670   7.045   4.244   8.129  0.8667  1.4111 -1.5053
  187MOL0     H24671   7.297   4.224   8.119 -1.0537  0.0164  0.9313
  187MOL0     H24672   7.629   4.024   8.207  2.3946 -2.0299  0.8441
  187MOL0     H24673   7.864   4.039   8.250  0.4826  1.9774 -0.0001
  187MOL0     H24674   8.140   4.199   7.967 -0.0218  0.6219  2.2844
  187MOL0     H24675   8.206   4.042   7.927 -1.3848  0.8992 -0.9187
  187MOL0     H24676   8.256   4.174   8.196  0.8154 -1.3381  0.6144
  187MOL0     H24677   8.297   4.009   8.151  0.3366 -1.3164 -1.7580
  187MOL0     H24678   8.398   4.231   7.959 -2.1376 -1.8270 -0.2981
  187MOL0     H24679   8.449   4.070   7.980 -0.9162  0.5083 -0.8147
  187MOL0     H24680   8.504   4.269   8.210 -1.4868 -0.7433  1.1788
  187MOL0     H24681   8.534   4.100   8.198  0.7420  0.8056  1.8143
  187MOL0     H24682   8.858   4.300   7.998  1.0263 -0.9009 -0.2224
  187MOL0     H24683   7.952   4.072   7.832 -0.5469  0.1496 -0.1555
  187MOL0     H24684   7.704   4.079   7.790 -1.4893 -2.9610  0.3736
  188MOL0     O24685   2.633   4.065   2.519 -0.2641 -0.3530  0.5684
  188MOL0     C24686   2.593   3.956   2.557  0.8659  0.1803  0.5933
  188MOL0     O24687   2.473   3.902   2.523 -0.1501  1.0557  1.1661
  188MOL0     C24688   2.401   3.968   2.425  0.8564  0.2538  0.1606
  188MOL0     C24689   2.264   3.984   2.441 -0.6081  0.2080 -0.0461
  188MOL0     C24690   2.176   4.036   2.341 -0.3809  0.9451 -0.3119
  188MOL0     C24691   2.232   4.088   2.224  0.3438 -0.2740 -0.2402
  188MOL0     O24692   2.147   4.145   2.130  0.1884  0.4269  0.1895
  188MOL0     C24693   2.182   4.274   2.080 -1.0929 -0.2114 -0.0941
  188MOL0     C24694   2.139   4.297   1.936  0.7990  0.5393  0.1767
  188MOL0     C24695   2.250   4.265   1.836 -0.2492 -0.7007  0.1691
  188MOL0     C24696   2.291   4.121   1.832 -0.4701 -0.2858  0.8455
  188MOL0     C24697   2.183   4.047   1.747  1.4797  0.3308  0.2138
  188MOL0     C24698   2.237   3.924   1.680  0.2318  0.8045 -0.1408
  188MOL0     C24699   2.324   3.831   1.765  0.9818  1.4292 -0.6795
  188MOL0     C24700   2.347   3.694   1.691 -0.0100  0.0958 -0.5332
  188MOL0     N24701   2.445   3.612   1.758 -0.8187  1.3423 -0.8967
  188MOL0     C24702   2.472   3.489   1.735  0.6496 -0.2552 -0.1126
  188MOL0     C24703   2.582   3.457   1.803 -0.5301  0.3548  0.1835
  188MOL0     C24704   2.639   3.325   1.772 -0.8229  0.8552 -0.7916
  188MOL0     C24705   2.668   3.253   1.906 -0.3638 -0.0366  0.6715
  188MOL0     C24706   2.555   3.172   1.974  0.5166  0.1555  1.1654
  188MOL0     C24707   2.419   3.236   1.963 -0.0669 -1.0594 -0.0091
  188MOL0     O24708   2.323   3.142   2.010  0.3509 -0.1003 -0.3067
  188MOL0     C24709   2.190   3.166   1.981  0.2916  0.1321 -0.4443
  188MOL0     C24710   2.112   3.059   2.010 -0.6293  0.9184 -0.0299
  188MOL0     C24711   1.972   3.073   1.994 -0.5514 -0.0374  0.4934
  188MOL0     C24712   1.921   3.183   1.928  0.0337 -0.3198 -0.6865
  188MOL0     C24713   1.780   3.193   1.891 -0.3148 -0.5496  1.1023
  188MOL0     O24714   1.703   3.091   1.937 -0.2837  0.1966 -1.1977
  188MOL0     C24715   1.566   3.078   1.934  0.2708  0.1254  0.0591
  188MOL0     C24716   1.515   2.953   1.969  0.7152  0.1219  0.1375
  188MOL0     C24717   1.380   2.929   1.984  0.6221  0.8072 -1.0824
  188MOL0     C24718   1.278   3.029   1.968 -0.3720 -0.1527 -0.0541
  188MOL0     O24719   1.145   3.003   1.988  0.9799  0.1034 -0.7563
  188MOL0     C24720   1.066   3.006   1.865 -0.5640  0.5364 -0.1379
  188MOL0     C24721   0.941   2.921   1.883  0.6337 -0.4162  0.4511
  188MOL0     C24722   0.826   2.975   1.800 -0.3524  0.5011  0.1044
  188MOL0     C24723   0.694   2.887   1.808 -0.1899  0.4269 -0.2701
  188MOL0     C24724   0.621   2.897   1.943 -0.2502  0.8222 -0.2602
  188MOL0     C24725   0.521   3.009   1.962  1.2141 -0.0568  0.2013
  188MOL0     C24726   0.410   3.022   1.847  0.0607 -0.0611 -0.6476
  188MOL0     C24727   0.344   2.898   1.796  0.0423 -0.6399 -0.3794
  188MOL0    Cl24728   0.268   2.933   1.636 -0.3091  0.2920  0.1471
  188MOL0     C24729   1.337   3.159   1.941  0.6274 -0.8595 -0.4608
  188MOL0     C24730   1.472   3.183   1.921 -0.5172  0.0561  0.2533
  188MOL0     O24731   1.742   3.294   1.838 -0.1185 -0.2257  0.1501
  188MOL0     C24732   2.006   3.300   1.910  0.4406  1.0150  0.7321
  188MOL0     C24733   2.141   3.288   1.930 -0.1284  0.0842 -0.2090
  188MOL0     N24734   2.644   3.573   1.856 -0.1290  0.0385 -0.1595
  188MOL0     N24735   2.557   3.660   1.828  0.0777 -0.0894  0.8357
  188MOL0     C24736   2.376   4.087   2.216  0.2922 -0.8602  0.5103
  188MOL0     C24737   2.448   4.010   2.302 -0.2184 -0.5758  0.2417
  188MOL0     C24738   2.675   3.882   2.661  0.1233  0.0241  0.7487
  188MOL0     C24739   2.655   3.742   2.679 -0.7857 -0.3385 -0.7443
  188MOL0     C24740   2.729   3.678   2.771  0.1976 -0.5279 -1.0341
  188MOL0     C24741   2.828   3.736   2.849 -0.2757 -0.4339 -0.4393
  188MOL0     O24742   2.908   3.663   2.936  0.5169  0.5064  0.0426
  188MOL0     C24743   2.976   3.558   2.864 -0.6559 -0.5205 -0.3984
  188MOL0     C24744   3.112   3.531   2.927  0.7795  0.6317 -0.6494
  188MOL0     C24745   3.184   3.672   2.968 -0.1832 -0.6456  0.5803
  188MOL0     C24746   3.231   3.751   2.853 -0.2841  0.3217 -0.3267
  188MOL0     C24747   3.247   3.890   2.881  0.6262  0.1253 -0.4521
  188MOL0     C24748   3.266   4.007   2.900 -0.0156 -0.0343  0.3131
  188MOL0     C24749   2.848   3.872   2.831 -0.2652  0.1890 -0.1112
  188MOL0     C24750   2.784   3.942   2.730 -0.1234  0.4246  0.3794
  188MOL0     H24751   2.229   3.950   2.538  2.1435 -1.2178  0.5506
  188MOL0     H24752   2.071   4.020   2.365 -0.4966 -1.0418 -1.7958
  188MOL0     H24753   2.291   4.283   2.066 -1.3445 -2.1676 -5.0358
  188MOL0     H24754   2.152   4.351   2.152  0.1093 -1.0072  1.3155
  188MOL0     H24755   2.106   4.400   1.925  1.2744  0.4788 -2.4741
  188MOL0     H24756   2.052   4.236   1.910 -0.7525  0.5344  4.5807
  188MOL0     H24757   2.338   4.324   1.865 -0.3094  1.2121 -3.1279
  188MOL0     H24758   2.226   4.300   1.736 -0.5260  1.2133  0.8594
  188MOL0     H24759   2.383   4.112   1.774 -0.3123  1.7509  0.7180
  188MOL0     H24760   2.311   4.074   1.929  2.3665  0.1089  0.5169
  188MOL0     H24761   2.131   4.097   1.665  0.0891 -1.0636  0.1970
  188MOL0     H24762   2.108   4.011   1.818 -0.8111  0.9867 -1.7318
  188MOL0     H24763   2.288   3.968   1.593 -0.1496 -1.8025 -1.7965
  188MOL0     H24764   2.148   3.864   1.659  1.7953 -1.0502 -1.9423
  188MOL0     H24765   2.419   3.880   1.787  2.0774 -0.6004 -0.5805
  188MOL0     H24766   2.283   3.805   1.864  1.5689 -0.6400 -0.9282
  188MOL0     H24767   2.378   3.721   1.589  2.6741  2.4760  0.7777
  188MOL0     H24768   2.259   3.629   1.686  0.6957 -0.9039 -0.2076
  188MOL0     H24769   2.430   3.429   1.654  1.6488  0.3094 -1.0673
  188MOL0     H24770   2.741   3.339   1.735 -0.5960  0.8716 -0.1781
  188MOL0     H24771   2.578   3.262   1.707  0.6512 -1.3973 -0.1257
  188MOL0     H24772   2.715   3.321   1.978  0.1009  0.1069  0.2384
  188MOL0     H24773   2.739   3.175   1.877 -2.2037 -0.4684 -3.4594
  188MOL0     H24774   2.553   3.085   1.908 -0.6908 -0.3325  1.8011
  188MOL0     H24775   2.575   3.136   2.075 -0.8953 -0.6312  1.2044
  188MOL0     H24776   2.411   3.251   1.855  0.8433  0.9482  0.1644
  188MOL0     H24777   2.415   3.336   2.006  0.1251  0.6163 -3.5189
  188MOL0     H24778   2.155   2.966   2.047 -0.1189  1.6086  1.1534
  188MOL0     H24779   1.904   2.990   2.009  0.0830 -0.3394  1.8562
  188MOL0     H24780   1.589   2.876   1.990 -0.0407 -1.4123 -2.3156
  188MOL0     H24781   1.344   2.829   2.006  1.1402  1.4766  4.0464
  188MOL0     H24782   1.134   2.958   1.794 -0.5497  1.2471 -0.6188
  188MOL0     H24783   1.055   3.107   1.823 -0.4520 -0.4529 -2.7261
  188MOL0     H24784   0.907   2.922   1.987 -3.0811 -2.6872 -0.5414
  188MOL0     H24785   0.974   2.819   1.859  1.5359 -0.5885  2.2923
  188MOL0     H24786   0.853   2.959   1.695 -2.0865  2.7040 -0.7732
  188MOL0     H24787   0.801   3.081   1.807 -0.9416  0.3223  0.7192
  188MOL0     H24788   0.633   2.909   1.721 -1.7668  4.2309  1.5313
  188MOL0     H24789   0.746   2.791   1.800 -0.7403 -0.0841  1.7670
  188MOL0     H24790   0.697   2.909   2.022  0.8018  0.9485 -1.2633
  188MOL0     H24791   0.567   2.806   1.970  1.1942  0.2156  0.7479
  188MOL0     H24792   0.569   3.107   1.960 -0.4027  0.7649  0.0065
  188MOL0     H24793   0.475   3.001   2.061  2.0081 -1.2798  0.4948
  188MOL0     H24794   0.343   3.092   1.897  0.3140  0.4439 -0.9944
  188MOL0     H24795   0.461   3.082   1.771 -3.6686  0.5477 -2.9519
  188MOL0     H24796   0.275   2.857   1.871  1.0577 -2.8335 -0.5563
  188MOL0     H24797   0.424   2.824   1.780  0.5311 -0.2272  0.1116
  188MOL0     H24798   1.278   3.250   1.950 -1.6436 -2.1928 -1.1074
  188MOL0     H24799   1.493   3.289   1.909  0.7285  0.2937  3.6210
  188MOL0     H24800   1.973   3.395   1.868 -0.9969  0.7830  1.3048
  188MOL0     H24801   2.192   3.381   1.907 -1.4384  1.0420  0.6263
  188MOL0     H24802   2.423   4.129   2.128 -0.6471 -0.1012  0.3466
  188MOL0     H24803   2.553   3.995   2.278  0.1005 -1.3767  2.0007
  188MOL0     H24804   2.588   3.684   2.616 -0.9377  1.1175 -1.9861
  188MOL0     H24805   2.709   3.571   2.774 -2.3651 -0.1214 -1.0280
  188MOL0     H24806   2.997   3.580   2.759 -1.5261 -0.5750 -0.5961
  188MOL0     H24807   2.918   3.465   2.877 -0.0534 -0.6797  1.4605
  188MOL0     H24808   3.114   3.468   3.016 -0.1261  0.3334 -0.8233
  188MOL0     H24809   3.178   3.473   2.862  1.1772  0.4837 -0.1227
  188MOL0     H24810   3.273   3.644   3.025  2.5687  6.6386  0.9429
  188MOL0     H24811   3.125   3.739   3.031 -1.6911 -1.4499  0.0945
  188MOL0     H24812   3.329   3.708   2.831  0.0200  0.5273  0.5891
  188MOL0     H24813   3.173   3.743   2.760  0.4433 -2.2443 -0.6438
  188MOL0     H24814   3.295   4.109   2.904  1.0022 -0.1961 -1.7558
  188MOL0     H24815   2.938   3.924   2.863 -0.7602  0.2641  1.2125
  188MOL0     H24816   2.817   4.040   2.697  2.1895 -0.5819 -0.5168
  189MOL0     O24817   3.654  10.005   3.737 -0.2490  0.7451  0.2137
  189MOL0     C24818   3.693  10.016   3.622  0.4363  0.5105 -0.9537
  189MOL0     O24819   3.623  10.013   3.509 -0.3116  0.3391 -0.0131
  189MOL0     C24820   3.480  10.003   3.498 -1.1704 -0.2515 -0.6569
  189MOL0     C24821   3.400   9.949   3.595  0.4409  0.1890 -0.4357
  189MOL0     C24822   3.256   9.932   3.569 -0.0809  0.1630 -0.3459
  189MOL0     C24823   3.198   9.972   3.447  0.2620  0.3090 -0.2816
  189MOL0     O24824   3.066   9.961   3.422 -0.2174  0.0515 -0.1089
  189MOL0     C24825   3.007   9.924   3.302 -0.1999 -0.7435 -0.0583
  189MOL0     C24826   2.850   9.926   3.319 -0.0739 -0.7149 -0.6889
  189MOL0     C24827   2.812   9.823   3.418 -0.1610 -0.0914 -0.6334
  189MOL0     C24828   2.666   9.823   3.469 -0.0627  0.6168 -0.0902
  189MOL0     C24829   2.567   9.790   3.359  0.0604 -0.2030  0.1889
  189MOL0     C24830   2.421   9.781   3.410 -0.4644 -0.5847  0.4057
  189MOL0     C24831   2.324   9.799   3.299 -0.0600 -0.1706  0.4513
  189MOL0     C24832   2.185   9.822   3.352 -0.0583 -0.2025 -0.6984
  189MOL0     N24833   2.136   9.715   3.439 -0.3768 -0.6752  1.6484
  189MOL0     C24834   2.095   9.728   3.571  0.2288  0.0189  0.8135
  189MOL0     C24835   2.056   9.608   3.614 -0.0728 -0.5621  1.1309
  189MOL0     C24836   2.006   9.578   3.754 -0.8086 -0.7424  0.1422
  189MOL0     C24837   1.885   9.482   3.756 -0.5418 -0.4502  0.0050
  189MOL0     C24838   1.757   9.547   3.705  0.8349 -0.3917  0.7085
  189MOL0     C24839   1.667   9.449   3.628 -0.3233  0.1484 -0.0406
  189MOL0     O24840   1.603   9.357   3.722  0.4201  0.2931  0.4712
  189MOL0     C24841   1.503   9.391   3.807 -0.1288 -0.1797 -0.4471
  189MOL0     C24842   1.477   9.309   3.915 -0.0073  0.2284 -0.4283
  189MOL0     C24843   1.356   9.316   3.988 -0.9541  0.4188  0.9079
  189MOL0     C24844   1.272   9.422   3.968  1.0502 -0.4866 -0.4349
  189MOL0     C24845   1.139   9.444   4.036  0.8165  0.0105  0.3612
  189MOL0     O24846   1.085   9.358   4.125  0.0028 -1.1612 -0.4332
  189MOL0     C24847   0.959   9.339   4.140  0.1205  0.2663 -0.5269
  189MOL0     C24848   0.910   9.216   4.125  0.2069 -0.5422  0.3447
  189MOL0     C24849   0.781   9.168   4.158  0.0462 -0.8195  1.0145
  189MOL0     C24850   0.686   9.265   4.206  0.4188  0.2715 -0.6738
  189MOL0     O24851   0.561   9.220   4.236  0.7162 -0.3630  0.7479
  189MOL0     C24852   0.443   9.311   4.235 -0.1364  0.0981  0.1323
  189MOL0     C24853   0.418   9.366   4.379 -0.4018  0.0301 -0.4186
  189MOL0     C24854   0.383   9.255   4.475  0.6579  0.4348  0.1028
  189MOL0     C24855   0.243   9.189   4.453 -0.3752 -0.3434  0.2971
  189MOL0     C24856   0.190   9.133   4.574  0.1437  0.1900 -0.1108
  189MOL0     C24857   0.082   9.237   4.630  0.5257  0.3790 -0.0586
  189MOL0     C24858   0.013   9.167   4.756  0.0665  0.0026 -0.6550
  189MOL0     C24859  -0.096   9.066   4.718 -0.0116  0.4941 -0.4933
  189MOL0    Cl24860  -0.148   8.985   4.872  0.0879 -0.6559  0.3794
  189MOL0     C24861   0.739   9.395   4.228  0.1448 -0.2784  0.2196
  189MOL0     C24862   0.866   9.435   4.185 -0.3842 -0.1726 -0.4549
  189MOL0     O24863   1.076   9.549   4.009 -0.2890 -0.9338 -0.1861
  189MOL0     C24864   1.312   9.520   3.878  0.1206  0.5349 -0.0446
  189MOL0     C24865   1.413   9.494   3.780  0.3440  0.9224  0.7773
  189MOL0     N24866   2.086   9.523   3.513 -0.0320 -0.3570  0.4838
  189MOL0     N24867   2.139   9.585   3.412 -0.3878 -0.5340  0.1851
  189MOL0     C24868   3.285  10.029   3.357  0.0696 -0.3048  0.5181
  189MOL0     C24869   3.425  10.049   3.384  0.1911 -0.1379  0.2041
  189MOL0     C24870   3.845   9.998   3.606 -0.3087 -0.0997 -0.0448
  189MOL0     C24871   3.902  10.030   3.483  0.0415  0.2905 -0.1462
  189MOL0     C24872   4.042  10.016   3.464  0.2029 -0.2463  0.8113
  189MOL0     C24873   4.132   9.994   3.567  0.8529 -0.4877 -0.0892
  189MOL0     O24874   4.267   9.991   3.557  0.2994  0.2064  0.2288
  189MOL0     C24875   4.326   9.949   3.434  0.0522  0.2517  0.1203
  189MOL0     C24876   4.307   9.805   3.406 -0.6577  0.4193  0.7986
  189MOL0     C24877   4.351   9.706   3.512 -0.1070  0.7759  0.2593
  189MOL0     C24878   4.506   9.717   3.527 -0.2367  0.1572 -0.1596
  189MOL0     C24879   4.542   9.765   3.662  1.1049  0.0513  0.5792
  189MOL0     C24880   4.576   9.822   3.763 -0.6038  1.3910  0.1920
  189MOL0     C24881   4.073   9.974   3.687  1.0172 -0.4770 -0.7315
  189MOL0     C24882   3.935   9.989   3.716 -0.1836  0.5056 -0.4514
  189MOL0     H24883   3.445   9.905   3.683  0.7274  0.7711 -0.2861
  189MOL0     H24884   3.200   9.887   3.651  0.0896  1.7278  0.6709
  189MOL0     H24885   3.032   9.818   3.288 -0.6426 -0.8205 -0.2728
  189MOL0     H24886   3.043   9.982   3.217 -0.0110 -2.4819 -1.2198
  189MOL0     H24887   2.807   9.898   3.222 -0.1059  1.7964 -1.4540
  189MOL0     H24888   2.807  10.022   3.347 -0.2185 -1.1426  0.5900
  189MOL0     H24889   2.871   9.846   3.507  0.3313  1.1502 -1.2542
  189MOL0     H24890   2.848   9.732   3.369  2.3937  0.3194  0.3048
  189MOL0     H24891   2.651   9.744   3.544 -3.3646  0.7964 -0.4117
  189MOL0     H24892   2.655   9.923   3.510 -0.1526  1.2049 -1.4964
  189MOL0     H24893   2.598   9.696   3.313 -0.4579  0.7364 -2.2475
  189MOL0     H24894   2.579   9.871   3.286 -1.9021 -1.4399 -1.6165
  189MOL0     H24895   2.414   9.869   3.474 -1.4832  1.9863 -2.9555
  189MOL0     H24896   2.416   9.682   3.456  0.5201 -0.1846  1.4156
  189MOL0     H24897   2.351   9.883   3.235 -1.1807  0.9258  1.3536
  189MOL0     H24898   2.326   9.712   3.232  0.9735  1.1981 -1.3705
  189MOL0     H24899   2.108   9.835   3.275  1.5968  3.0847 -1.9920
  189MOL0     H24900   2.193   9.908   3.419 -0.1859 -1.7709  1.4344
  189MOL0     H24901   2.113   9.824   3.618  2.1956  1.0854 -1.8321
  189MOL0     H24902   1.997   9.666   3.818  2.4194  1.8770 -2.5777
  189MOL0     H24903   2.093   9.527   3.797 -0.2823  0.7723  0.9587
  189MOL0     H24904   1.870   9.444   3.858 -1.5389  1.1220  0.4832
  189MOL0     H24905   1.907   9.388   3.705 -2.4278 -1.9493  1.7809
  189MOL0     H24906   1.706   9.595   3.789  0.1304  1.7735 -0.8495
  189MOL0     H24907   1.794   9.621   3.633  2.4442 -1.5388  0.2717
  189MOL0     H24908   1.722   9.391   3.554 -1.4504 -1.3836  0.2938
  189MOL0     H24909   1.595   9.506   3.570 -0.7439  0.3503  0.6619
  189MOL0     H24910   1.543   9.227   3.940  0.0331  1.2985  3.8051
  189MOL0     H24911   1.338   9.237   4.060 -1.9079  1.8916  2.3347
  189MOL0     H24912   0.976   9.138   4.088 -0.8727 -1.9627  1.3396
  189MOL0     H24913   0.748   9.068   4.134  1.8878 -1.3574  0.5787
  189MOL0     H24914   0.355   9.252   4.208  1.7036 -2.3924 -0.7022
  189MOL0     H24915   0.465   9.391   4.164 -0.4141  0.9772  1.0009
  189MOL0     H24916   0.336   9.438   4.378 -3.4137 -3.1381 -1.4524
  189MOL0     H24917   0.512   9.411   4.412 -0.5673 -1.0904  1.7442
  189MOL0     H24918   0.397   9.296   4.575 -0.2153 -2.2782  1.4322
  189MOL0     H24919   0.447   9.167   4.472 -1.1815 -0.9554 -2.2170
  189MOL0     H24920   0.179   9.264   4.405 -1.2722 -1.8858 -1.0453
  189MOL0     H24921   0.261   9.120   4.369 -0.5908  0.4282 -0.3975
  189MOL0     H24922   0.266   9.120   4.651  0.0633  0.7045  0.0632
  189MOL0     H24923   0.148   9.034   4.560  0.8403 -0.1181 -0.0525
  189MOL0     H24924   0.004   9.283   4.569 -0.1259  1.7972  1.7521
  189MOL0     H24925   0.135   9.325   4.668 -0.6319 -0.7019  4.6349
  189MOL0     H24926   0.094   9.118   4.810  0.3445 -0.7595 -1.7252
  189MOL0     H24927  -0.039   9.239   4.819 -3.5875 -2.0554 -1.0225
  189MOL0     H24928  -0.053   8.997   4.645  0.0121  2.2599 -2.2331
  189MOL0     H24929  -0.186   9.105   4.671  0.8943  1.2548 -1.6312
  189MOL0     H24930   0.674   9.474   4.266 -0.9740  0.1724 -2.4085
  189MOL0     H24931   0.894   9.539   4.176  1.0682 -0.5701 -0.7157
  189MOL0     H24932   1.251   9.608   3.861 -0.3637  0.4268  1.0178
  189MOL0     H24933   1.398   9.543   3.685 -0.1961  0.3775  0.5703
  189MOL0     H24934   3.237  10.074   3.271 -0.9116  1.4647  1.9294
  189MOL0     H24935   3.485  10.097   3.307 -2.2738  0.4597 -1.4811
  189MOL0     H24936   3.833  10.061   3.406 -0.0714 -0.8094 -0.5172
  189MOL0     H24937   4.085  10.065   3.377 -1.6571  1.2606  0.6677
  189MOL0     H24938   4.431   9.976   3.451 -0.0421 -0.1715  1.4805
  189MOL0     H24939   4.291  10.015   3.354  0.3122  0.6753  0.3526
  189MOL0     H24940   4.200   9.789   3.389 -1.1107  1.8475  2.0465
  189MOL0     H24941   4.356   9.765   3.317 -0.9106 -0.5307  1.0746
  189MOL0     H24942   4.316   9.604   3.491  1.5262  0.3389 -0.4706
  189MOL0     H24943   4.303   9.733   3.607 -2.6547 -1.2669 -0.3294
  189MOL0     H24944   4.560   9.623   3.513  0.0640  0.2740  0.1992
  189MOL0     H24945   4.548   9.783   3.451  0.5508 -0.9331 -0.6894
  189MOL0     H24946   4.625   9.863   3.848  0.0458  1.9545 -0.4423
  189MOL0     H24947   4.157   9.957   3.754 -0.5290 -1.3921  1.0641
  189MOL0     H24948   3.887   9.977   3.813  0.1868 -2.5337 -0.5429
  190MOL0     O24949   7.600   8.558   8.931  0.4621 -0.0588  0.1713
  190MOL0     C24950   7.646   8.490   9.023 -0.2349 -1.7474  0.1726
  190MOL0     O24951   7.579   8.393   9.097 -0.0866 -0.1695 -0.0729
  190MOL0     C24952   7.449   8.377   9.077 -0.2797  0.4014 -0.1307
  190MOL0     C24953   7.401   8.243   9.057  0.3097  0.3667  0.0839
  190MOL0     C24954   7.262   8.227   9.028 -0.4489  0.6526  0.4910
  190MOL0     C24955   7.171   8.328   9.040 -0.6031 -0.5350  0.0642
  190MOL0     O24956   7.040   8.307   9.023 -0.2561 -0.3461 -0.2447
  190MOL0     C24957   6.996   8.206   8.933  0.1911 -0.9059 -0.2113
  190MOL0     C24958   6.854   8.223   8.889  0.7675 -0.5289  0.6108
  190MOL0     C24959   6.847   8.316   8.764  1.2994  0.1432 -0.0589
  190MOL0     C24960   6.708   8.348   8.704 -0.1229  0.5381  0.3467
  190MOL0     C24961   6.645   8.230   8.622 -0.6983  0.1841 -0.1681
  190MOL0     C24962   6.516   8.280   8.549 -0.3044  0.6183 -0.6123
  190MOL0     C24963   6.395   8.331   8.638  0.7100  0.7442 -1.0102
  190MOL0     C24964   6.259   8.335   8.557 -0.3495 -0.0988 -0.3308
  190MOL0     N24965   6.205   8.204   8.579 -0.0566  0.9737 -0.0360
  190MOL0     C24966   6.082   8.174   8.639 -0.1053 -0.0074 -0.6862
  190MOL0     C24967   6.056   8.046   8.592  0.6658  0.1019  0.5224
  190MOL0     C24968   5.942   7.954   8.627  0.5157  1.0836 -0.0102
  190MOL0     C24969   5.949   7.888   8.762 -0.0511  0.3171  0.4986
  190MOL0     C24970   6.080   7.799   8.757 -0.8475  0.1194  0.4254
  190MOL0     C24971   6.091   7.703   8.863 -0.5140  0.3672  0.5749
  190MOL0     O24972   6.096   7.770   8.986  0.1783 -0.2663 -0.3168
  190MOL0     C24973   6.231   7.789   9.035  0.0020 -0.0039 -0.3794
  190MOL0     C24974   6.292   7.686   9.099 -0.8090  0.0941 -0.8413
  190MOL0     C24975   6.424   7.700   9.146  0.4811  0.1899  0.8727
  190MOL0     C24976   6.485   7.825   9.138 -0.2773  0.2301  0.1090
  190MOL0     C24977   6.621   7.833   9.181  0.1090  0.1288 -0.4088
  190MOL0     O24978   6.656   7.960   9.234  0.0835 -0.5878 -0.5698
  190MOL0     C24979   6.779   7.987   9.276 -0.4971  0.2837 -0.8267
  190MOL0     C24980   6.872   7.878   9.326  1.0897 -0.4243  0.2283
  190MOL0     C24981   7.008   7.901   9.338  1.0826 -0.5419 -0.4020
  190MOL0     C24982   7.055   8.034   9.322 -0.3777  0.5622  0.4926
  190MOL0     O24983   7.189   8.066   9.339 -0.3911 -0.8306 -0.7371
  190MOL0     C24984   7.208   8.176   9.434  0.5258  0.3771  0.2484
  190MOL0     C24985   7.340   8.145   9.496  0.4384  0.4760 -0.0678
  190MOL0     C24986   7.454   8.172   9.394  0.8375  0.1716  0.2518
  190MOL0     C24987   7.580   8.100   9.428 -0.4181  0.4881 -0.0540
  190MOL0     C24988   7.665   8.077   9.308 -0.5944  0.1576 -0.0772
  190MOL0     C24989   7.619   7.953   9.219 -0.4075  0.6619 -0.2939
  190MOL0     C24990   7.717   7.922   9.103 -0.2772 -0.7950  0.2628
  190MOL0     C24991   7.682   7.807   9.023 -0.5330 -0.1342 -0.4019
  190MOL0    Cl24992   7.560   7.881   8.914  0.2068 -0.3952  0.2072
  190MOL0     C24993   6.961   8.138   9.294 -0.7669  0.1719  0.3054
  190MOL0     C24994   6.826   8.113   9.260 -0.9049 -0.1319 -0.2117
  190MOL0     O24995   6.698   7.741   9.163 -0.0720  0.4482  1.0017
  190MOL0     C24996   6.428   7.929   9.070  0.2211  0.6799  0.0897
  190MOL0     C24997   6.294   7.910   9.020 -0.3075 -0.5595 -0.3135
  190MOL0     N24998   6.155   8.000   8.504  0.5635  0.5643 -0.5493
  190MOL0     N24999   6.239   8.101   8.495 -0.0440  0.2274  0.4305
  190MOL0     C25000   7.219   8.457   9.077 -0.7074  0.0136 -0.5755
  190MOL0     C25001   7.351   8.478   9.083  0.3395  0.2913  0.7456
  190MOL0     C25002   7.789   8.527   9.047  0.3350  1.1491 -0.2954
  190MOL0     C25003   7.851   8.643   8.999  0.2406 -0.5467  1.4071
  190MOL0     C25004   7.990   8.658   9.015  0.2811  0.2795  0.6957
  190MOL0     C25005   8.068   8.557   9.082  1.0507 -0.1645  0.2000
  190MOL0     O25006   8.202   8.560   9.095 -0.6300 -0.2296 -0.0010
  190MOL0     C25007   8.273   8.682   9.055  0.1163 -0.1588  0.4143
  190MOL0     C25008   8.421   8.638   9.052  0.0997  0.4779  0.3572
  190MOL0     C25009   8.458   8.582   8.905  0.9940 -0.4195 -1.0620
  190MOL0     C25010   8.600   8.532   8.873 -0.5292 -0.4937 -0.7585
  190MOL0     C25011   8.697   8.640   8.858  0.1532 -0.7114 -0.4797
  190MOL0     C25012   8.791   8.716   8.853  0.1230  0.2021 -0.7415
  190MOL0     C25013   8.003   8.442   9.124  0.4003  0.4886 -0.1838
  190MOL0     C25014   7.865   8.418   9.102  0.9782 -0.6419 -0.0311
  190MOL0     H25015   7.461   8.154   9.069 -3.2718 -2.1238  1.0888
  190MOL0     H25016   7.220   8.132   8.996 -1.7914  1.6768 -1.0062
  190MOL0     H25017   7.007   8.114   8.992  1.7282  0.9464  2.6244
  190MOL0     H25018   7.053   8.208   8.840 -1.1767 -1.6416 -1.1087
  190MOL0     H25019   6.784   8.261   8.965  0.6619 -0.2677  0.3833
  190MOL0     H25020   6.811   8.127   8.860  2.4480 -1.6352  1.6454
  190MOL0     H25021   6.899   8.271   8.680 -1.5395 -1.2762 -1.2003
  190MOL0     H25022   6.885   8.415   8.792 -0.6489  0.6926  0.8495
  190MOL0     H25023   6.639   8.385   8.780  1.3388  1.8056  1.1181
  190MOL0     H25024   6.715   8.443   8.649  2.2670  1.7434  2.5299
  190MOL0     H25025   6.627   8.137   8.676  1.9707 -0.7393 -0.7163
  190MOL0     H25026   6.713   8.200   8.542 -0.9703 -1.0365  0.0467
  190MOL0     H25027   6.472   8.198   8.493 -2.7555  0.2585  1.6566
  190MOL0     H25028   6.532   8.360   8.476 -6.8291  1.4509 -1.7563
  190MOL0     H25029   6.385   8.286   8.737 -0.0896  3.1549  0.1001
  190MOL0     H25030   6.404   8.435   8.672 -1.9744  0.6664  0.1665
  190MOL0     H25031   6.266   8.364   8.452  0.5304 -2.0700 -0.8705
  190MOL0     H25032   6.194   8.408   8.606  0.4332  0.9975 -0.8894
  190MOL0     H25033   6.032   8.245   8.705  4.3328  1.2377  1.7687
  190MOL0     H25034   5.945   7.865   8.564  2.5505  0.9669  0.1750
  190MOL0     H25035   5.844   7.998   8.609  0.4901  0.3241 -1.9633
  190MOL0     H25036   5.860   7.826   8.773 -0.0539 -0.1881 -1.7725
  190MOL0     H25037   5.958   7.961   8.843 -0.3922  0.3729  0.4872
  190MOL0     H25038   6.102   7.753   8.660 -2.5242 -2.4561  1.1732
  190MOL0     H25039   6.161   7.873   8.769 -1.3830  0.6307  0.9671
  190MOL0     H25040   6.182   7.644   8.850  1.8055  3.9552 -1.2261
  190MOL0     H25041   6.004   7.637   8.857 -1.4459  1.3088  2.6154
  190MOL0     H25042   6.234   7.596   9.112 -0.0776 -0.9169 -3.7944
  190MOL0     H25043   6.471   7.611   9.187 -0.4172 -1.2221 -0.9959
  190MOL0     H25044   6.838   7.781   9.359 -0.2226 -0.1886 -0.3683
  190MOL0     H25045   7.072   7.819   9.371  3.5990  1.6782  0.6531
  190MOL0     H25046   7.137   8.168   9.517  0.7250  2.6506  0.7007
  190MOL0     H25047   7.211   8.276   9.389 -0.4117  0.6825  0.8255
  190MOL0     H25048   7.350   8.038   9.519  1.0197  0.5286 -0.0619
  190MOL0     H25049   7.339   8.196   9.593 -0.2494 -0.3135  0.3516
  190MOL0     H25050   7.462   8.280   9.379 -1.0435 -0.0411 -3.5730
  190MOL0     H25051   7.418   8.134   9.298  1.0249  0.2926  0.1335
  190MOL0     H25052   7.635   8.166   9.495  0.7903  2.8780 -3.1737
  190MOL0     H25053   7.559   8.003   9.476 -0.5400  0.9046  0.7578
  190MOL0     H25054   7.768   8.062   9.343  0.0103  0.2850 -1.7181
  190MOL0     H25055   7.664   8.166   9.244 -0.0593  0.5551  0.4509
  190MOL0     H25056   7.515   7.963   9.186 -1.4885 -1.8837  1.9327
  190MOL0     H25057   7.621   7.860   9.277  1.1415  2.4904  2.8629
  190MOL0     H25058   7.722   8.009   9.038  1.4028 -1.3814 -0.4614
  190MOL0     H25059   7.818   7.906   9.142  1.5227  2.4644 -2.5215
  190MOL0     H25060   7.637   7.723   9.078  0.3081 -0.0024  0.5183
  190MOL0     H25061   7.776   7.776   8.975 -1.5234 -1.7270 -1.4286
  190MOL0     H25062   7.000   8.237   9.274  1.1602 -1.1754 -3.8620
  190MOL0     H25063   6.771   8.193   9.211 -2.8227 -0.2033  1.6546
  190MOL0     H25064   6.480   8.023   9.062  0.4795  0.7635  2.2776
  190MOL0     H25065   6.245   7.997   8.976  1.7186 -0.3086 -2.2331
  190MOL0     H25066   7.155   8.539   9.107  0.8474  0.7570  0.8425
  190MOL0     H25067   7.382   8.579   9.107 -1.1340  0.9046  0.2010
  190MOL0     H25068   7.796   8.729   8.962  3.0085  0.8437  0.1616
  190MOL0     H25069   8.033   8.750   8.977  1.9406 -1.0213 -0.7537
  190MOL0     H25070   8.253   8.755   9.133 -0.5343 -0.6311  0.6938
  190MOL0     H25071   8.241   8.709   8.954  1.1925 -0.5510 -0.0471
  190MOL0     H25072   8.483   8.723   9.080  0.5680  0.8425 -1.6200
  190MOL0     H25073   8.430   8.553   9.120 -1.4445 -1.4881 -1.7151
  190MOL0     H25074   8.416   8.645   8.825 -1.6265 -0.4571  0.1628
  190MOL0     H25075   8.394   8.495   8.886 -1.9687  1.4633 -0.3648
  190MOL0     H25076   8.632   8.474   8.960 -0.5074  1.3891  0.5466
  190MOL0     H25077   8.606   8.477   8.778  1.3857  0.4802 -1.2551
  190MOL0     H25078   8.859   8.798   8.845 -1.6492  2.2491  2.5376
  190MOL0     H25079   8.049   8.368   9.189 -0.1576  0.9171  0.7232
  190MOL0     H25080   7.817   8.323   9.123 -0.8804  0.3751  0.4564
  191MOL0     O25081   0.921  11.146   1.146  0.0171 -0.7404  0.0906
  191MOL0     C25082   1.027  11.142   1.203  0.2836 -0.5134 -0.0292
  191MOL0     O25083   1.040  11.143   1.342  0.4002  0.6860  0.2173
  191MOL0     C25084   0.941  11.096   1.430  0.0010  0.2784  0.6411
  191MOL0     C25085   0.847  10.998   1.399  0.2035 -0.3456  0.6983
  191MOL0     C25086   0.749  10.964   1.489  0.4604 -0.1655  0.9502
  191MOL0     C25087   0.739  11.020   1.623 -0.2776 -1.0213  1.5453
  191MOL0     O25088   0.649  10.959   1.705 -0.0796  0.0859  1.0839
  191MOL0     C25089   0.646  10.989   1.841  0.5730 -0.4637 -0.4455
  191MOL0     C25090   0.509  10.986   1.892  0.3040  0.2977  0.3330
  191MOL0     C25091   0.462  10.845   1.906 -0.2829  0.3675  0.0942
  191MOL0     C25092   0.321  10.819   1.949 -0.1589 -0.5947 -0.5939
  191MOL0     C25093   0.303  10.670   1.940  1.2585 -0.3744 -0.1466
  191MOL0     C25094   0.167  10.623   1.973  0.1716 -0.3132  0.2056
  191MOL0     C25095   0.157  10.595   2.129  0.5050 -0.2097 -2.0298
  191MOL0     C25096   0.020  10.630   2.185 -0.5197 -0.3314 -0.9394
  191MOL0     N25097   0.010  10.572   2.320  0.4019  0.8902 -0.4573
  191MOL0     C25098  -0.100  10.504   2.363 -0.0143  0.8375  0.2156
  191MOL0     C25099  -0.073  10.492   2.493 -0.5827  1.1006 -0.8683
  191MOL0     C25100  -0.146  10.421   2.598  0.4374  0.7549 -0.4275
  191MOL0     C25101  -0.256  10.503   2.659 -0.1555  0.4099  0.4083
  191MOL0     C25102  -0.307  10.432   2.781  0.1545  0.0323 -0.1309
  191MOL0     C25103  -0.381  10.508   2.892  0.6693 -0.2115  0.4129
  191MOL0     O25104  -0.513  10.545   2.846 -0.3576 -0.1485 -0.6700
  191MOL0     C25105  -0.629  10.483   2.889  0.9187  0.8821  0.6002
  191MOL0     C25106  -0.745  10.549   2.838 -0.7386  0.2138  0.2626
  191MOL0     C25107  -0.876  10.494   2.871 -0.0981 -1.5713 -0.0596
  191MOL0     C25108  -0.884  10.381   2.952  0.5009 -0.1988  0.0699
  191MOL0     C25109  -1.024  10.338   2.995 -0.5368 -0.2388 -0.5156
  191MOL0     O25110  -1.051  10.221   3.055  0.1095  0.5891  0.7990
  191MOL0     C25111  -1.178  10.176   3.097  0.5324  0.8212 -0.4500
  191MOL0     C25112  -1.309  10.191   3.049 -0.4090  0.3363 -0.6062
  191MOL0     C25113  -1.424  10.135   3.101 -1.3052  0.2364 -0.3893
  191MOL0     C25114  -1.400  10.046   3.201  0.0156 -0.3560  0.0778
  191MOL0     O25115  -1.496   9.967   3.253 -0.3046  0.6614 -0.4309
  191MOL0     C25116  -1.611   9.950   3.167  0.5169 -1.2380  1.0491
  191MOL0     C25117  -1.600   9.841   3.059  0.4721 -0.0132  0.6011
  191MOL0     C25118  -1.732   9.775   3.007 -0.4292 -0.2558 -0.3939
  191MOL0     C25119  -1.832   9.887   2.964  0.4681 -0.1445 -0.6222
  191MOL0     C25120  -1.969   9.833   2.890 -0.4888 -0.8441  0.3084
  191MOL0     C25121  -2.083   9.783   2.982 -0.3557  0.9493  0.0093
  191MOL0     C25122  -2.224   9.760   2.915 -0.2177 -0.9707 -0.1227
  191MOL0     C25123  -2.279   9.881   2.850  0.3640 -0.6914 -0.0609
  191MOL0    Cl25124  -2.438   9.838   2.779  0.4513  0.1667 -0.3362
  191MOL0     C25125  -1.273  10.019   3.257 -0.1243  0.5687 -0.6492
  191MOL0     C25126  -1.159  10.092   3.211 -0.1637 -0.2376  0.6033
  191MOL0     O25127  -1.107  10.426   2.972 -0.4558 -0.1153 -0.5042
  191MOL0     C25128  -0.771  10.324   3.009  0.2270 -0.4038  0.6299
  191MOL0     C25129  -0.642  10.369   2.978 -0.0324 -1.0788 -0.1497
  191MOL0     N25130   0.025  10.569   2.528 -0.8151 -0.0682  0.3375
  191MOL0     N25131   0.083  10.618   2.424  0.2995 -0.7983 -0.6854
  191MOL0     C25132   0.829  11.127   1.653 -1.0899  0.5722 -0.3916
  191MOL0     C25133   0.930  11.157   1.560 -0.1036 -0.2217 -0.1541
  191MOL0     C25134   1.147  11.160   1.120  0.0537  0.4042  0.0598
  191MOL0     C25135   1.275  11.139   1.177  0.5019  0.5442 -0.5200
  191MOL0     C25136   1.388  11.175   1.100  0.7245  0.1329 -1.3994
  191MOL0     C25137   1.380  11.240   0.978  0.2897 -0.5775  0.9487
  191MOL0     O25138   1.494  11.272   0.908 -0.5596 -0.2745  0.0707
  191MOL0     C25139   1.484  11.357   0.797  0.1545 -0.4053  0.1227
  191MOL0     C25140   1.618  11.432   0.775  0.3380 -0.1612 -0.4255
  191MOL0     C25141   1.728  11.339   0.719 -0.3373  0.2415 -0.2984
  191MOL0     C25142   1.871  11.400   0.703 -0.3479 -0.5763  1.0251
  191MOL0     C25143   1.877  11.528   0.620 -0.8050  0.3291 -0.6748
  191MOL0     C25144   1.863  11.620   0.545 -0.0713 -1.1078 -0.4541
  191MOL0     C25145   1.254  11.254   0.922 -0.1863 -0.4608 -0.2028
  191MOL0     C25146   1.138  11.232   1.001 -0.2049  0.0665 -0.2568
  191MOL0     H25147   0.845  10.952   1.300  0.7795  1.3872 -0.1491
  191MOL0     H25148   0.681  10.881   1.473  0.6721 -0.2648  0.5683
  191MOL0     H25149   0.700  11.077   1.877  0.4034 -0.5153 -0.0643
  191MOL0     H25150   0.694  10.903   1.890 -3.2298 -0.1292  4.7475
  191MOL0     H25151   0.453  11.041   1.815  0.7502  0.2927 -0.0033
  191MOL0     H25152   0.503  11.027   1.993  2.5356  0.2553  0.5408
  191MOL0     H25153   0.528  10.788   1.972  0.7330 -0.4307 -1.5545
  191MOL0     H25154   0.476  10.793   1.811  2.1982 -0.6371  0.9290
  191MOL0     H25155   0.309  10.862   2.049  0.0102 -0.0385 -0.8082
  191MOL0     H25156   0.250  10.864   1.880  0.0149 -0.7520 -0.8793
  191MOL0     H25157   0.367  10.627   2.018  0.8058  0.1772  0.5460
  191MOL0     H25158   0.341  10.631   1.846  0.7008  0.5100 -0.7511
  191MOL0     H25159   0.152  10.536   1.908  0.4306 -1.0437  1.0971
  191MOL0     H25160   0.096  10.704   1.953  2.9067  2.6105  1.6163
  191MOL0     H25161   0.157  10.487   2.142 -2.4656  0.0326  1.8489
  191MOL0     H25162   0.233  10.644   2.190  1.8968 -0.5305 -3.4448
  191MOL0     H25163  -0.064  10.592   2.127 -2.0285  0.8277  0.4026
  191MOL0     H25164   0.017  10.738   2.202 -3.0777 -0.9097  4.0600
  191MOL0     H25165  -0.184  10.470   2.304  0.8868 -0.0422 -0.5804
  191MOL0     H25166  -0.062  10.397   2.665 -1.0121  2.1282  2.0198
  191MOL0     H25167  -0.188  10.329   2.555  1.9778  0.6202 -1.7195
  191MOL0     H25168  -0.341  10.513   2.590  0.3882 -3.7189 -1.1794
  191MOL0     H25169  -0.213  10.603   2.657  1.3143 -0.1751 -2.4033
  191MOL0     H25170  -0.380  10.355   2.756  3.1755 -2.8668 -0.6010
  191MOL0     H25171  -0.231  10.380   2.838 -1.2707 -0.4555  1.4022
  191MOL0     H25172  -0.325  10.600   2.908 -0.3906  0.2033  1.8827
  191MOL0     H25173  -0.368  10.444   2.980  2.3910  0.6538  0.8230
  191MOL0     H25174  -0.745  10.648   2.792 -1.0164 -0.4652 -1.2375
  191MOL0     H25175  -0.958  10.555   2.835 -0.2739 -0.9213  1.3692
  191MOL0     H25176  -1.328  10.258   2.965 -2.5893 -0.7276 -1.0329
  191MOL0     H25177  -1.523  10.163   3.064 -1.2805 -1.5524 -2.0078
  191MOL0     H25178  -1.664  10.038   3.129 -1.3612 -2.4542  0.7170
  191MOL0     H25179  -1.674   9.917   3.250 -2.0301 -2.0959 -1.0989
  191MOL0     H25180  -1.534   9.767   3.104 -0.5125 -0.4885  1.3054
  191MOL0     H25181  -1.564   9.889   2.967 -0.6562 -0.0173  0.1405
  191MOL0     H25182  -1.784   9.707   3.076  1.8458 -2.0495 -0.3319
  191MOL0     H25183  -1.713   9.727   2.910 -1.3623  0.3176 -0.8723
  191MOL0     H25184  -1.866   9.962   3.036  1.5510 -0.2837  0.0492
  191MOL0     H25185  -1.794   9.950   2.883 -1.1298 -1.8192 -2.8071
  191MOL0     H25186  -1.940   9.751   2.823  1.0158  0.5275 -0.7836
  191MOL0     H25187  -2.009   9.916   2.831 -2.4806 -2.3269 -0.5390
  191MOL0     H25188  -2.085   9.868   3.052 -1.7999  1.2745 -0.3989
  191MOL0     H25189  -2.054   9.690   3.031  1.2492 -1.1774 -4.4665
  191MOL0     H25190  -2.216   9.675   2.846  1.2751 -0.2427 -0.8850
  191MOL0     H25191  -2.299   9.723   2.986 -1.0638  0.0844 -0.4447
  191MOL0     H25192  -2.214   9.907   2.766  0.8190 -2.2080 -0.2049
  191MOL0     H25193  -2.288   9.957   2.928 -0.3086 -1.3370  0.5082
  191MOL0     H25194  -1.263   9.947   3.338  3.6147 -1.2490 -2.4963
  191MOL0     H25195  -1.062  10.070   3.253  0.1327  1.3546  0.8095
  191MOL0     H25196  -0.781  10.237   3.074  2.6275 -1.7593 -0.6632
  191MOL0     H25197  -0.557  10.319   3.024 -0.0545  0.7478  2.0381
  191MOL0     H25198   0.831  11.180   1.748  1.2687  1.8521 -1.0886
  191MOL0     H25199   1.001  11.237   1.582 -0.7417 -0.1927  2.0723
  191MOL0     H25200   1.271  11.087   1.272  0.3655  2.9231  0.8512
  191MOL0     H25201   1.477  11.167   1.162  0.0071 -0.4230 -0.4279
  191MOL0     H25202   1.404  11.426   0.825 -0.0489 -0.3584 -0.5543
  191MOL0     H25203   1.463  11.306   0.703  1.5008  1.1559 -1.0812
  191MOL0     H25204   1.590  11.507   0.701 -2.7253 -2.4793 -1.8421
  191MOL0     H25205   1.650  11.475   0.871 -1.0587  3.6588 -1.5013
  191MOL0     H25206   1.698  11.300   0.621 -1.0278 -1.5945  0.6047
  191MOL0     H25207   1.746  11.252   0.782 -0.5627 -1.0249 -1.9011
  191MOL0     H25208   1.907  11.412   0.806 -1.0300 -4.6699  1.9232
  191MOL0     H25209   1.931  11.329   0.645 -1.2262  0.0229 -0.6596
  191MOL0     H25210   1.862  11.704   0.478  2.4404 -0.0149  0.7531
  191MOL0     H25211   1.230  11.316   0.837  1.0729  1.0664  0.4915
  191MOL0     H25212   1.040  11.257   0.963 -0.5659 -1.2509 -0.2328
  192MOL0     O25213   1.631   1.832   3.739  0.2380 -0.0749 -0.2974
  192MOL0     C25214   1.721   1.793   3.666  0.7875  0.3128  0.1000
  192MOL0     O25215   1.704   1.722   3.557  0.1487 -0.0387  0.3626
  192MOL0     C25216   1.584   1.682   3.503 -0.6402  0.1611 -0.4389
  192MOL0     C25217   1.457   1.744   3.518 -0.3826  0.4806 -0.6489
  192MOL0     C25218   1.350   1.699   3.452  0.4075 -0.3804  0.2062
  192MOL0     C25219   1.350   1.581   3.383  0.4454 -0.6612 -0.5285
  192MOL0     O25220   1.231   1.535   3.330 -0.3946 -0.4417 -0.9833
  192MOL0     C25221   1.127   1.510   3.416 -0.3915  0.5123  0.3969
  192MOL0     C25222   1.000   1.532   3.332  0.2340  0.4703 -0.3738
  192MOL0     C25223   0.878   1.502   3.415 -0.4021  0.1135 -0.3257
  192MOL0     C25224   0.839   1.348   3.411  0.0576  0.1730 -0.3448
  192MOL0     C25225   0.698   1.320   3.483  0.2857 -0.1094  0.6154
  192MOL0     C25226   0.586   1.413   3.425 -0.0785 -0.0675  0.3531
  192MOL0     C25227   0.456   1.387   3.492  0.1953  0.6126  0.3595
  192MOL0     C25228   0.398   1.255   3.434 -0.1407  0.5077  0.4024
  192MOL0     N25229   0.268   1.262   3.375  0.7071 -0.1384  0.1804
  192MOL0     C25230   0.237   1.212   3.257 -0.7527  0.1162  0.8850
  192MOL0     C25231   0.131   1.273   3.206  0.3623  0.1285 -0.5439
  192MOL0     C25232   0.062   1.256   3.078  0.8868 -0.0810 -0.5368
  192MOL0     C25233  -0.090   1.215   3.098 -1.0274 -0.8447 -0.2005
  192MOL0     C25234  -0.175   1.250   2.975  0.1252  0.6548  0.4644
  192MOL0     C25235  -0.328   1.228   2.997 -0.5960  0.1661 -1.1791
  192MOL0     O25236  -0.379   1.329   3.084  0.6272 -0.2992  0.4443
  192MOL0     C25237  -0.521   1.337   3.099  0.2308 -1.1987  0.4926
  192MOL0     C25238  -0.580   1.461   3.127  0.4982 -0.0912  1.5278
  192MOL0     C25239  -0.711   1.480   3.145  0.3060  0.5918  0.0125
  192MOL0     C25240  -0.792   1.365   3.128  0.8951  0.6719 -0.0273
  192MOL0     C25241  -0.937   1.386   3.128  0.2231  0.0235 -0.5924
  192MOL0     O25242  -0.991   1.510   3.169  0.2546  0.0545 -0.3618
  192MOL0     C25243  -1.128   1.545   3.154 -0.3180 -0.0260  0.6015
  192MOL0     C25244  -1.158   1.672   3.199 -0.6203  0.3707 -0.2718
  192MOL0     C25245  -1.285   1.733   3.185  0.5665  0.4103 -0.2189
  192MOL0     C25246  -1.386   1.664   3.113  0.0227 -0.7350 -0.7490
  192MOL0     O25247  -1.520   1.698   3.101 -0.6531 -0.0901  0.3830
  192MOL0     C25248  -1.579   1.790   3.200 -0.6536 -0.1440  0.6448
  192MOL0     C25249  -1.726   1.787   3.176 -0.4262  0.3561 -0.3950
  192MOL0     C25250  -1.798   1.902   3.248 -0.6816 -0.9008 -0.3383
  192MOL0     C25251  -1.947   1.899   3.229 -0.1093  0.9744 -0.3458
  192MOL0     C25252  -2.025   2.012   3.290 -0.3281  1.5925 -0.6445
  192MOL0     C25253  -2.174   1.991   3.258  0.1331  0.1787  0.2001
  192MOL0     C25254  -2.229   1.864   3.331  0.4443  0.0419  0.1054
  192MOL0     C25255  -2.383   1.856   3.317 -0.1912  0.2504  0.1925
  192MOL0    Cl25256  -2.460   1.957   3.440  0.3129  0.7570  0.0775
  192MOL0     C25257  -1.355   1.534   3.064 -0.7916 -0.4432  0.1775
  192MOL0     C25258  -1.234   1.476   3.093  0.2033 -0.2215  0.3086
  192MOL0     O25259  -1.005   1.277   3.125 -0.2986 -0.2954 -0.0005
  192MOL0     C25260  -0.733   1.240   3.105 -0.1782  0.6594  0.3280
  192MOL0     C25261  -0.596   1.223   3.095 -0.3317 -0.2710  0.3074
  192MOL0     N25262   0.081   1.351   3.315  0.1215  0.1644  0.0380
  192MOL0     N25263   0.164   1.345   3.415 -0.5845 -0.4864  0.5809
  192MOL0     C25264   1.464   1.509   3.362 -0.7482  0.3888 -0.6182
  192MOL0     C25265   1.581   1.564   3.429 -0.4419 -0.2206 -0.0255
  192MOL0     C25266   1.856   1.812   3.718  0.8314  0.5441 -0.4795
  192MOL0     C25267   1.877   1.872   3.844  0.3607  0.3059  0.3627
  192MOL0     C25268   2.008   1.881   3.888  0.1640  0.7922  0.0283
  192MOL0     C25269   2.120   1.851   3.810  0.2444 -0.4781 -0.7437
  192MOL0     O25270   2.250   1.877   3.840 -0.2650  0.0521  0.2992
  192MOL0     C25271   2.280   1.904   3.976 -0.0271  0.4470  0.0096
  192MOL0     C25272   2.432   1.908   4.001  0.3889  0.1658 -0.0831
  192MOL0     C25273   2.493   1.775   4.019  0.6524  0.1817 -0.9757
  192MOL0     C25274   2.640   1.769   4.043 -0.7589  0.0244 -0.2666
  192MOL0     C25275   2.707   1.788   3.913  0.1717  0.3755 -0.9240
  192MOL0     C25276   2.764   1.802   3.804 -0.2675 -1.1621  0.4154
  192MOL0     C25277   2.101   1.787   3.687  0.2327 -0.7936  0.2608
  192MOL0     C25278   1.963   1.770   3.642  0.0778 -0.6758 -0.2339
  192MOL0     H25279   1.452   1.829   3.586 -1.0843 -0.9820  1.2314
  192MOL0     H25280   1.255   1.751   3.464  0.6348  0.1280 -0.1352
  192MOL0     H25281   1.122   1.591   3.490 -0.4953 -0.3289  1.3433
  192MOL0     H25282   1.133   1.416   3.472  2.4064  1.0087  1.0878
  192MOL0     H25283   1.001   1.473   3.240  0.3557  0.9206 -0.6642
  192MOL0     H25284   1.000   1.639   3.312  1.0802  0.2452 -1.6982
  192MOL0     H25285   0.791   1.554   3.374 -0.6469 -0.4236 -0.5036
  192MOL0     H25286   0.897   1.531   3.518  2.9602 -0.2085 -0.7685
  192MOL0     H25287   0.841   1.311   3.308  3.8174  0.8490 -0.6707
  192MOL0     H25288   0.908   1.293   3.476 -1.2463 -0.7883  0.2750
  192MOL0     H25289   0.709   1.352   3.587 -0.8495  3.1650 -0.1553
  192MOL0     H25290   0.672   1.214   3.472 -0.9407  0.2541 -0.2940
  192MOL0     H25291   0.574   1.406   3.317 -1.4575  2.7883  0.2057
  192MOL0     H25292   0.607   1.519   3.442  0.7498  0.2207 -2.0803
  192MOL0     H25293   0.460   1.383   3.601  0.8715  1.1565  0.3585
  192MOL0     H25294   0.392   1.474   3.470 -0.6140 -0.0938 -0.1552
  192MOL0     H25295   0.400   1.179   3.513  2.1312 -2.5460 -2.3005
  192MOL0     H25296   0.453   1.192   3.364 -2.4464 -1.7962  0.4944
  192MOL0     H25297   0.288   1.140   3.193 -4.1733 -1.7824  0.0335
  192MOL0     H25298   0.107   1.179   3.016 -2.4765 -1.0439 -1.9940
  192MOL0     H25299   0.059   1.346   3.016 -2.7360  1.0422  1.0320
  192MOL0     H25300  -0.143   1.264   3.180 -1.9930 -2.6240  0.2837
  192MOL0     H25301  -0.104   1.110   3.123 -1.7718 -1.2487 -2.1298
  192MOL0     H25302  -0.169   1.353   2.938  0.1667  0.3938 -0.2687
  192MOL0     H25303  -0.134   1.188   2.895  4.2085  0.5974  2.2957
  192MOL0     H25304  -0.337   1.126   3.037 -0.7626  1.7213  3.2108
  192MOL0     H25305  -0.380   1.233   2.901 -0.0754 -3.1517 -1.7556
  192MOL0     H25306  -0.519   1.551   3.126 -1.2720  1.6149 -5.3895
  192MOL0     H25307  -0.749   1.574   3.182 -0.5944 -0.4006  1.7429
  192MOL0     H25308  -1.079   1.720   3.257 -1.5920 -0.2297  1.6519
  192MOL0     H25309  -1.307   1.833   3.222  2.5463  1.2720 -1.2286
  192MOL0     H25310  -1.544   1.893   3.192  4.0554 -1.5016  0.3703
  192MOL0     H25311  -1.558   1.767   3.305 -1.1365 -0.7078  0.6250
  192MOL0     H25312  -1.759   1.692   3.221  1.8120  0.1077  0.8458
  192MOL0     H25313  -1.743   1.784   3.068 -0.5404 -2.2903 -0.3739
  192MOL0     H25314  -1.765   1.997   3.205 -0.7323  0.0788  1.6490
  192MOL0     H25315  -1.765   1.905   3.353 -2.7143 -0.1717  0.3318
  192MOL0     H25316  -1.942   1.892   3.120  1.4032  0.3844 -0.2500
  192MOL0     H25317  -1.986   1.804   3.266 -1.5763  1.7282  0.1374
  192MOL0     H25318  -1.995   2.112   3.259 -1.9158  2.7590  1.3075
  192MOL0     H25319  -2.026   2.014   3.400 -0.2999  2.1970 -0.6544
  192MOL0     H25320  -2.164   1.974   3.150  2.0433  0.0971  0.3537
  192MOL0     H25321  -2.229   2.082   3.281 -2.1015 -0.5883 -1.6938
  192MOL0     H25322  -2.183   1.771   3.295 -1.0134 -0.8678  0.4886
  192MOL0     H25323  -2.198   1.856   3.435  0.6266 -3.3740 -0.0791
  192MOL0     H25324  -2.414   1.752   3.329  1.0312 -0.3369 -1.3294
  192MOL0     H25325  -2.419   1.895   3.221  1.8947  3.9716  0.7500
  192MOL0     H25326  -1.433   1.477   3.015 -0.4086 -1.2113  0.4477
  192MOL0     H25327  -1.220   1.375   3.056  1.0697 -0.2615  0.7154
  192MOL0     H25328  -0.787   1.148   3.086  0.2217  0.4559  0.1484
  192MOL0     H25329  -0.546   1.126   3.089  0.4310  0.2021 -2.1172
  192MOL0     H25330   1.460   1.420   3.301  3.1645  0.9559 -1.9485
  192MOL0     H25331   1.670   1.501   3.421 -0.6132 -0.5638  0.7401
  192MOL0     H25332   1.794   1.918   3.895  1.5456  0.7624  1.9746
  192MOL0     H25333   2.028   1.940   3.977  2.1644 -0.0247  0.1734
  192MOL0     H25334   2.230   1.830   4.040  1.1322  0.5915  1.1202
  192MOL0     H25335   2.246   2.005   3.999  0.8999  0.7321  0.1931
  192MOL0     H25336   2.478   1.971   3.925 -0.0338  0.8426  0.2174
  192MOL0     H25337   2.452   1.964   4.093  2.5492 -0.7203  0.0418
  192MOL0     H25338   2.459   1.703   3.944  0.0952  0.5371 -1.0716
  192MOL0     H25339   2.448   1.730   4.108  0.2711 -4.3220 -3.1796
  192MOL0     H25340   2.683   1.840   4.114  3.1158 -0.5233 -1.8296
  192MOL0     H25341   2.660   1.669   4.083 -2.0325 -0.2078 -0.1522
  192MOL0     H25342   2.799   1.818   3.704 -1.5596 -0.2348  0.0804
  192MOL0     H25343   2.183   1.747   3.629 -2.4757 -3.5271 -2.0092
  192MOL0     H25344   1.945   1.717   3.549 -0.5147  0.0299 -0.5365
  193MOL0     O25345   2.344   1.256   8.668 -0.6412  0.7625  0.6055
  193MOL0     C25346   2.352   1.282   8.546  0.2497  0.5899  0.3625
  193MOL0     O25347   2.242   1.274   8.457  0.3862 -0.0415  0.1791
  193MOL0     C25348   2.120   1.223   8.472 -0.2534  0.6509 -0.9641
  193MOL0     C25349   2.048   1.214   8.597 -0.1038  0.2035 -0.2204
  193MOL0     C25350   1.927   1.147   8.601  0.0298  0.9407  0.1858
  193MOL0     C25351   1.867   1.098   8.490  0.0152 -0.9583 -0.2698
  193MOL0     O25352   1.747   1.040   8.503 -0.5469 -0.4333 -0.2263
  193MOL0     C25353   1.639   1.101   8.587  0.5846  0.0074 -0.7141
  193MOL0     C25354   1.511   1.015   8.602 -0.1549  0.4767  0.1887
  193MOL0     C25355   1.540   0.863   8.617  0.4623 -0.6954 -0.1630
  193MOL0     C25356   1.407   0.799   8.648 -0.5550  1.0863 -0.3740
  193MOL0     C25357   1.381   0.647   8.612  0.1716 -0.8901 -0.4699
  193MOL0     C25358   1.247   0.616   8.682 -0.0284  0.0506 -0.2709
  193MOL0     C25359   1.119   0.694   8.643 -0.7263 -0.0589 -0.3196
  193MOL0     C25360   1.000   0.604   8.660  0.5426  0.5503 -0.5920
  193MOL0     N25361   0.894   0.646   8.571 -0.0903 -0.3494 -0.0498
  193MOL0     C25362   0.787   0.723   8.599 -0.3028  0.4821 -0.3739
  193MOL0     C25363   0.716   0.713   8.481 -0.6308 -0.5790 -0.0410
  193MOL0     C25364   0.575   0.756   8.474 -0.3282 -0.8140  0.8091
  193MOL0     C25365   0.561   0.901   8.507  0.2974 -0.3355  0.4967
  193MOL0     C25366   0.415   0.943   8.543 -0.7272  0.0454 -0.1848
  193MOL0     C25367   0.315   0.888   8.436  1.0581 -0.1378 -0.6867
  193MOL0     O25368   0.180   0.930   8.455  1.1236 -0.6206  0.3477
  193MOL0     C25369   0.087   0.862   8.528  0.4328  0.4609 -0.3733
  193MOL0     C25370  -0.029   0.939   8.564  0.0954  0.1206 -0.8330
  193MOL0     C25371  -0.139   0.885   8.631  0.7228 -0.3012 -0.4562
  193MOL0     C25372  -0.134   0.751   8.664 -0.4392 -0.0212  0.6287
  193MOL0     C25373  -0.251   0.677   8.729  0.0344  0.1364  0.3867
  193MOL0     O25374  -0.361   0.763   8.755 -0.2051  0.0099 -0.2614
  193MOL0     C25375  -0.474   0.719   8.809  0.0892 -0.8953 -0.3577
  193MOL0     C25376  -0.556   0.806   8.886 -0.4601  0.4827  0.2506
  193MOL0     C25377  -0.687   0.773   8.929 -0.2161  0.3043 -0.2233
  193MOL0     C25378  -0.733   0.642   8.908 -0.2756  0.0157  0.5800
  193MOL0     O25379  -0.859   0.599   8.960  0.0106  0.5281 -0.1115
  193MOL0     C25380  -0.976   0.681   8.934  0.1156  0.6250  0.9096
  193MOL0     C25381  -1.083   0.579   8.968  1.1712 -0.2640  0.6138
  193MOL0     C25382  -1.215   0.627   8.896  0.2919 -0.1885  0.4412
  193MOL0     C25383  -1.343   0.556   8.940  0.7041  0.3974 -0.3939
  193MOL0     C25384  -1.456   0.573   8.834  0.7870 -0.1668 -0.6384
  193MOL0     C25385  -1.484   0.718   8.770  0.1186  0.3497 -0.3200
  193MOL0     C25386  -1.519   0.834   8.861 -0.1905  0.0422  0.5679
  193MOL0     C25387  -1.542   0.956   8.764  0.1717  0.0948  0.5332
  193MOL0    Cl25388  -1.591   1.088   8.855  0.2424 -0.3304  0.1156
  193MOL0     C25389  -0.655   0.551   8.846  0.2824  0.4450  0.2874
  193MOL0     C25390  -0.533   0.585   8.789 -0.1894  0.3017  0.2185
  193MOL0     O25391  -0.249   0.555   8.752 -0.0738 -0.1917 -0.3747
  193MOL0     C25392  -0.017   0.672   8.636 -0.5823  0.1879 -0.3186
  193MOL0     C25393   0.086   0.726   8.561  0.2206 -0.3694  0.5507
  193MOL0     N25394   0.791   0.638   8.391 -0.4933  0.1608 -0.5048
  193MOL0     N25395   0.905   0.599   8.444  0.7965  1.3404 -0.5723
  193MOL0     C25396   1.930   1.118   8.369  0.0052 -0.0159  0.6147
  193MOL0     C25397   2.052   1.185   8.354 -0.5251 -0.6491 -0.6700
  193MOL0     C25398   2.478   1.338   8.502 -0.3982 -0.0122  0.3923
  193MOL0     C25399   2.497   1.386   8.366  0.4353 -0.5950 -0.1906
  193MOL0     C25400   2.625   1.426   8.314  0.0622 -1.0968  0.6253
  193MOL0     C25401   2.739   1.423   8.401  0.6345  0.4362 -0.8145
  193MOL0     O25402   2.859   1.481   8.376  0.0476 -0.0073 -0.4508
  193MOL0     C25403   2.897   1.499   8.237  0.5274 -0.4062  0.0486
  193MOL0     C25404   3.044   1.552   8.219  0.6653  0.6693 -0.4464
  193MOL0     C25405   3.083   1.665   8.309 -0.7296 -0.6814 -0.0865
  193MOL0     C25406   3.223   1.722   8.292 -0.6554 -0.6144 -0.1048
  193MOL0     C25407   3.329   1.636   8.350 -0.0561 -0.5453  0.5307
  193MOL0     C25408   3.435   1.577   8.381 -0.5884  0.1057 -0.6927
  193MOL0     C25409   2.724   1.375   8.536 -0.3412  0.4854 -0.3213
  193MOL0     C25410   2.596   1.340   8.583 -1.0272 -0.4166  0.0776
  193MOL0     H25411   2.093   1.229   8.695  0.1645 -0.1840 -0.2813
  193MOL0     H25412   1.884   1.123   8.698  3.0904 -2.1703  0.9498
  193MOL0     H25413   1.603   1.195   8.544  2.8882  0.6439 -1.4384
  193MOL0     H25414   1.676   1.125   8.687 -2.2988  0.9622  0.2140
  193MOL0     H25415   1.453   1.041   8.513  3.8046  2.0148 -2.2232
  193MOL0     H25416   1.452   1.041   8.690 -1.1322 -1.0671  0.0453
  193MOL0     H25417   1.610   0.851   8.701  1.1065  1.1348 -0.3963
  193MOL0     H25418   1.578   0.822   8.523  3.0145  2.0345 -0.4636
  193MOL0     H25419   1.400   0.800   8.757 -1.8955 -2.3305 -0.2783
  193MOL0     H25420   1.322   0.851   8.605 -1.6023 -1.6974 -1.9814
  193MOL0     H25421   1.459   0.581   8.653  0.3849 -0.2027  0.2538
  193MOL0     H25422   1.374   0.623   8.505  2.7169  0.3556 -1.0020
  193MOL0     H25423   1.248   0.628   8.791  1.0240  1.3238 -0.3954
  193MOL0     H25424   1.244   0.508   8.663  0.7355 -0.1516  0.6887
  193MOL0     H25425   1.094   0.786   8.696 -2.4943 -0.4622 -0.3854
  193MOL0     H25426   1.133   0.724   8.539 -0.5384 -0.5070 -0.4253
  193MOL0     H25427   0.961   0.621   8.761 -0.1649  1.9495 -1.0835
  193MOL0     H25428   1.018   0.497   8.643  0.5167  0.5210 -0.4390
  193MOL0     H25429   0.758   0.748   8.700  1.3062 -1.1909  0.5834
  193MOL0     H25430   0.526   0.691   8.547  1.1554 -2.8976  0.0657
  193MOL0     H25431   0.539   0.739   8.372 -0.3887 -0.1340  0.7172
  193MOL0     H25432   0.598   0.964   8.424  0.2979 -1.1519 -0.1357
  193MOL0     H25433   0.615   0.923   8.599  1.9532  1.7716 -0.8661
  193MOL0     H25434   0.399   0.900   8.642  0.9890 -2.6047 -0.9463
  193MOL0     H25435   0.392   1.050   8.549 -1.4932  0.0046 -1.7506
  193MOL0     H25436   0.330   0.780   8.436  1.4716 -0.1263 -2.9716
  193MOL0     H25437   0.344   0.917   8.335  2.8697  0.9821  0.0811
  193MOL0     H25438  -0.039   1.044   8.541  0.7834 -0.2046 -2.8191
  193MOL0     H25439  -0.229   0.943   8.644  1.2721  0.8201 -1.4323
  193MOL0     H25440  -0.503   0.898   8.908  0.4989 -0.0659  0.3083
  193MOL0     H25441  -0.734   0.837   9.004  0.8464 -1.4648  2.0548
  193MOL0     H25442  -0.989   0.712   8.830 -1.1593  0.4753  1.0068
  193MOL0     H25443  -0.983   0.770   8.997 -0.5582 -0.2933  2.1652
  193MOL0     H25444  -1.114   0.583   9.073  0.5315 -1.6220  0.4995
  193MOL0     H25445  -1.057   0.477   8.940  0.0828 -0.6059  0.8019
  193MOL0     H25446  -1.202   0.605   8.790 -0.4496 -0.4671  0.4045
  193MOL0     H25447  -1.225   0.733   8.918  1.3459  0.5262 -2.1478
  193MOL0     H25448  -1.324   0.448   8.947 -1.4183 -0.0286 -0.2143
  193MOL0     H25449  -1.381   0.593   9.036  3.2768  0.1311  0.7971
  193MOL0     H25450  -1.546   0.530   8.879  0.8311 -0.7002 -1.0365
  193MOL0     H25451  -1.431   0.504   8.752 -3.1411 -0.8897 -1.4091
  193MOL0     H25452  -1.569   0.697   8.704  1.0656 -0.2535 -1.3749
  193MOL0     H25453  -1.392   0.752   8.721  1.8892  1.3480  3.3140
  193MOL0     H25454  -1.607   0.808   8.920 -0.2718 -2.8430 -0.6211
  193MOL0     H25455  -1.436   0.850   8.930  0.0529 -0.6250  0.4349
  193MOL0     H25456  -1.617   0.946   8.685 -2.8060 -1.1947  3.2850
  193MOL0     H25457  -1.449   0.982   8.713 -0.0585 -2.2032 -1.2295
  193MOL0     H25458  -0.690   0.450   8.830  1.9733  0.0078 -0.9606
  193MOL0     H25459  -0.484   0.507   8.731 -0.0346 -0.8741  1.8872
  193MOL0     H25460   0.000   0.570   8.670 -0.0982 -0.6211 -2.8040
  193MOL0     H25461   0.171   0.660   8.547  0.7558  0.3142  0.5702
  193MOL0     H25462   1.873   1.081   8.284 -2.0035  0.1694  1.8168
  193MOL0     H25463   2.095   1.198   8.255 -1.8304  0.0461 -1.1687
  193MOL0     H25464   2.415   1.377   8.296  1.7938 -1.2649 -1.7463
  193MOL0     H25465   2.635   1.462   8.213  1.0326 -1.0331  0.7347
  193MOL0     H25466   2.828   1.563   8.182  0.6380 -0.5378 -0.2404
  193MOL0     H25467   2.901   1.398   8.195 -0.9055 -2.5693  4.3780
  193MOL0     H25468   3.117   1.471   8.228  1.2726  0.7819 -3.3340
  193MOL0     H25469   3.053   1.585   8.115 -1.1052 -0.1585 -0.8929
  193MOL0     H25470   3.068   1.656   8.417 -0.0113 -1.0171 -0.0059
  193MOL0     H25471   3.011   1.742   8.278 -1.7225 -1.6676 -0.3114
  193MOL0     H25472   3.243   1.732   8.185 -1.5563  0.1579 -0.2117
  193MOL0     H25473   3.224   1.822   8.337 -2.5694 -0.8157  0.4397
  193MOL0     H25474   3.532   1.543   8.411 -0.5280  1.2219  0.4424
  193MOL0     H25475   2.809   1.380   8.602 -0.9061 -1.6520  0.6695
  193MOL0     H25476   2.592   1.325   8.691 -1.0950  1.0553  0.2993
  194MOL0     O25477   3.735   6.839   3.731 -0.0902 -0.1797 -0.5069
  194MOL0     C25478   3.695   6.739   3.787 -0.1526  0.7288 -0.4331
  194MOL0     O25479   3.728   6.690   3.920 -0.7298  0.1313 -0.0474
  194MOL0     C25480   3.813   6.766   3.999  0.1526 -0.9344  0.3572
  194MOL0     C25481   3.933   6.821   3.949  0.6603  0.1909  0.1230
  194MOL0     C25482   4.025   6.876   4.028  0.2544  0.1767 -0.1608
  194MOL0     C25483   4.008   6.885   4.169  0.6619 -0.2928 -0.2645
  194MOL0     O25484   4.097   6.960   4.245 -0.7235  0.1771  0.1239
  194MOL0     C25485   4.217   7.003   4.191 -0.1703  0.5008 -0.0136
  194MOL0     C25486   4.273   7.101   4.294 -1.0230  0.0239  0.5517
  194MOL0     C25487   4.177   7.222   4.319  0.3583  0.0564  0.8385
  194MOL0     C25488   4.251   7.327   4.398  1.2192  0.2120 -0.1913
  194MOL0     C25489   4.148   7.426   4.457  0.7217  0.0005  0.0272
  194MOL0     C25490   4.036   7.361   4.549  0.8946  0.9800  0.1427
  194MOL0     C25491   3.965   7.450   4.650 -0.4648  0.3338 -0.5329
  194MOL0     C25492   3.871   7.374   4.741 -0.3798  0.5532 -0.1006
  194MOL0     N25493   3.844   7.437   4.866 -1.0337 -0.4520  0.1499
  194MOL0     C25494   3.877   7.388   4.988 -1.0023  0.0672 -0.0410
  194MOL0     C25495   3.820   7.467   5.076 -0.0979 -0.3620 -0.5010
  194MOL0     C25496   3.815   7.450   5.230 -0.4354  0.4896 -1.0513
  194MOL0     C25497   3.943   7.470   5.297 -1.6566 -0.1258  1.6194
  194MOL0     C25498   3.933   7.439   5.451 -0.9329 -0.7902  1.2052
  194MOL0     C25499   4.076   7.443   5.514  0.6812  0.9981  0.2111
  194MOL0     O25500   4.137   7.323   5.468 -0.3540  0.2147 -0.1340
  194MOL0     C25501   4.257   7.288   5.522 -0.5887 -0.2400 -1.1713
  194MOL0     C25502   4.343   7.385   5.593 -0.4699  0.0279  0.3048
  194MOL0     C25503   4.459   7.337   5.657  0.2230 -0.7908  0.4672
  194MOL0     C25504   4.495   7.201   5.649  0.6507 -0.2345 -0.5277
  194MOL0     C25505   4.597   7.158   5.747 -0.1322 -0.8783  0.1474
  194MOL0     O25506   4.686   7.240   5.803 -0.3530  0.3856  0.1816
  194MOL0     C25507   4.785   7.184   5.888  1.0403 -0.3528 -0.2472
  194MOL0     C25508   4.770   7.194   6.030 -0.4000 -0.4151 -0.7904
  194MOL0     C25509   4.869   7.165   6.120  0.4588 -0.6219  0.9182
  194MOL0     C25510   4.988   7.111   6.070  0.2902 -0.0600 -0.8115
  194MOL0     O25511   5.093   7.079   6.157 -0.9499 -0.7570 -0.7439
  194MOL0     C25512   5.202   6.989   6.125 -1.1439  0.4322 -0.4818
  194MOL0     C25513   5.310   7.056   6.044  0.1063  0.1565 -0.4504
  194MOL0     C25514   5.426   6.961   6.033  0.4075 -0.3068 -0.1355
  194MOL0     C25515   5.522   6.998   6.144 -0.1983  0.5153 -1.2831
  194MOL0     C25516   5.652   6.908   6.132  0.6919  0.1230  0.7217
  194MOL0     C25517   5.646   6.792   6.234 -0.4858 -0.5825 -0.4152
  194MOL0     C25518   5.779   6.715   6.251 -0.1876 -0.2046  0.8242
  194MOL0     C25519   5.768   6.612   6.362  0.4281 -0.7370 -0.7359
  194MOL0    Cl25520   5.932   6.549   6.393 -0.1815 -0.4757  0.2239
  194MOL0     C25521   4.992   7.078   5.936  0.2821  0.6629  0.4505
  194MOL0     C25522   4.896   7.116   5.842  0.7163 -0.0570  0.1617
  194MOL0     O25523   4.583   7.040   5.771 -0.5973  0.3992  0.0877
  194MOL0     C25524   4.421   7.111   5.576  0.1399 -0.8518 -0.5115
  194MOL0     C25525   4.300   7.161   5.514 -0.3913 -0.3620  0.0687
  194MOL0     N25526   3.769   7.575   5.004  0.6266  0.8922 -0.5317
  194MOL0     N25527   3.778   7.552   4.879  1.1532  0.3326 -0.5730
  194MOL0     C25528   3.890   6.825   4.222 -0.7345 -1.0826  0.8383
  194MOL0     C25529   3.792   6.767   4.141 -0.8250 -0.0602 -0.1966
  194MOL0     C25530   3.602   6.653   3.704  0.2344  0.1226  0.3503
  194MOL0     C25531   3.508   6.570   3.767 -0.2475 -0.7199 -0.6096
  194MOL0     C25532   3.408   6.497   3.690 -0.9771  0.8597 -0.6310
  194MOL0     C25533   3.413   6.505   3.548 -0.5374  0.7448  0.7378
  194MOL0     O25534   3.330   6.433   3.456  0.1624  0.5100  0.1219
  194MOL0     C25535   3.225   6.349   3.521 -1.1908  0.5354 -0.1158
  194MOL0     C25536   3.124   6.273   3.434 -0.4882 -0.3616  0.4599
  194MOL0     C25537   3.007   6.219   3.514 -0.4825 -0.0651 -0.1759
  194MOL0     C25538   2.912   6.141   3.429  0.0140  0.8925 -0.1147
  194MOL0     C25539   2.773   6.146   3.465  0.1821 -0.5338 -0.3289
  194MOL0     C25540   2.646   6.151   3.480 -0.1042  0.4113 -0.9079
  194MOL0     C25541   3.506   6.588   3.482  0.3724  0.2555 -0.8705
  194MOL0     C25542   3.592   6.666   3.562 -0.1040  0.7696 -0.2479
  194MOL0     H25543   3.973   6.813   3.849  0.1890  1.3455 -0.1773
  194MOL0     H25544   4.118   6.903   3.980 -0.6623  0.2666 -1.9694
  194MOL0     H25545   4.203   7.063   4.101  5.9014  2.6375 -0.0373
  194MOL0     H25546   4.290   6.924   4.170  0.6782  1.3888 -0.4803
  194MOL0     H25547   4.359   7.151   4.248  0.5386 -0.6635  2.5800
  194MOL0     H25548   4.308   7.051   4.385 -1.9138 -0.5425  0.5874
  194MOL0     H25549   4.088   7.178   4.365 -0.3698  0.9056  0.2922
  194MOL0     H25550   4.162   7.270   4.222  5.3215 -0.6526 -0.5617
  194MOL0     H25551   4.301   7.273   4.480 -2.6351 -4.2555 -0.3809
  194MOL0     H25552   4.335   7.373   4.344  2.3699 -0.1335  1.2250
  194MOL0     H25553   4.101   7.476   4.372  0.7843 -0.4802 -0.2965
  194MOL0     H25554   4.196   7.506   4.513  1.1824 -1.9892  2.6873
  194MOL0     H25555   4.096   7.290   4.606  2.3875  4.9976  4.1332
  194MOL0     H25556   3.962   7.317   4.481  1.9777 -0.0742 -0.3866
  194MOL0     H25557   4.045   7.489   4.713 -0.5868 -3.7021  2.5607
  194MOL0     H25558   3.917   7.531   4.594 -0.1243 -0.0001 -1.3236
  194MOL0     H25559   3.917   7.279   4.770 -2.1391  0.3097  2.1740
  194MOL0     H25560   3.778   7.355   4.686 -0.4839 -0.7220  0.4769
  194MOL0     H25561   3.928   7.293   5.004  0.0097  0.9499  2.5223
  194MOL0     H25562   3.764   7.355   5.251 -2.7397  1.8666 -0.1656
  194MOL0     H25563   3.748   7.525   5.271  0.3174 -0.1973  1.6098
  194MOL0     H25564   3.985   7.571   5.290  2.3599 -1.6933 -0.2958
  194MOL0     H25565   4.015   7.405   5.246 -2.4733 -0.1226  0.4370
  194MOL0     H25566   3.867   7.514   5.496  0.7287  1.9599 -0.7059
  194MOL0     H25567   3.899   7.335   5.458  0.4694 -1.3956 -0.3499
  194MOL0     H25568   4.073   7.449   5.623  1.2671  0.4637  0.2560
  194MOL0     H25569   4.133   7.529   5.476 -0.4267  1.2835 -0.8781
  194MOL0     H25570   4.324   7.491   5.602 -0.6156 -0.0490  0.9483
  194MOL0     H25571   4.528   7.404   5.706  0.0696 -2.8955  3.8251
  194MOL0     H25572   4.675   7.240   6.057 -1.3005 -2.2036 -0.8033
  194MOL0     H25573   4.856   7.184   6.226 -2.9232 -0.6485  0.5884
  194MOL0     H25574   5.168   6.901   6.070 -1.5808 -1.3664  2.4500
  194MOL0     H25575   5.238   6.952   6.222 -0.2199  3.3280  0.3785
  194MOL0     H25576   5.335   7.155   6.084  1.1436 -0.1757 -0.2431
  194MOL0     H25577   5.273   7.052   5.941 -0.7855 -1.5996 -0.0986
  194MOL0     H25578   5.469   6.973   5.933 -1.7764  0.8699 -1.0024
  194MOL0     H25579   5.399   6.857   6.049 -1.3142  0.1675  0.1749
  194MOL0     H25580   5.564   7.099   6.135  2.8732 -0.2294  2.5022
  194MOL0     H25581   5.481   7.000   6.245  3.6892  0.1710  0.5018
  194MOL0     H25582   5.728   6.981   6.161 -1.2329  1.7024  2.1141
  194MOL0     H25583   5.656   6.869   6.029 -1.0128  0.2926  0.5599
  194MOL0     H25584   5.572   6.722   6.195 -2.0197 -0.1704  1.5656
  194MOL0     H25585   5.616   6.829   6.333  4.0315  2.7107  0.0464
  194MOL0     H25586   5.831   6.678   6.162 -1.0905  0.9872 -0.2563
  194MOL0     H25587   5.851   6.790   6.285  1.4472 -1.9209  1.3025
  194MOL0     H25588   5.699   6.532   6.330 -1.4591  0.2361  0.7112
  194MOL0     H25589   5.719   6.642   6.455 -1.7822 -3.0333 -1.0158
  194MOL0     H25590   5.064   7.009   5.893 -0.3006  0.7845 -0.7429
  194MOL0     H25591   4.907   7.090   5.737  0.3076 -0.4687  0.2152
  194MOL0     H25592   4.431   7.003   5.570 -0.7963 -1.0234  0.6355
  194MOL0     H25593   4.239   7.086   5.467  2.9778 -1.5208 -2.9188
  194MOL0     H25594   3.889   6.830   4.331  0.2527  1.3916  0.7999
  194MOL0     H25595   3.717   6.700   4.180 -0.6464  0.3907  0.9529
  194MOL0     H25596   3.513   6.574   3.876  0.9970 -0.0577 -0.6738
  194MOL0     H25597   3.332   6.446   3.748  0.2949 -1.2798 -0.7061
  194MOL0     H25598   3.165   6.416   3.583 -1.4461  1.2435 -1.0880
  194MOL0     H25599   3.280   6.279   3.584  0.0630  1.0544 -0.5959
  194MOL0     H25600   3.096   6.334   3.347 -0.1345  0.3268  0.8177
  194MOL0     H25601   3.180   6.186   3.398 -0.1440 -0.0421  0.2129
  194MOL0     H25602   2.952   6.299   3.563 -1.1170 -0.8729  0.4573
  194MOL0     H25603   3.047   6.152   3.591  1.2739 -0.4379 -1.3429
  194MOL0     H25604   2.908   6.179   3.326 -2.0413  2.9425  0.6247
  194MOL0     H25605   2.946   6.038   3.415  1.7621  1.7739 -3.4159
  194MOL0     H25606   2.548   6.189   3.502 -1.0475 -2.2495 -0.0743
  194MOL0     H25607   3.504   6.617   3.378 -1.7590 -2.9118 -1.8318
  194MOL0     H25608   3.677   6.723   3.524  0.5947  0.6253  1.0443
  195MOL0     O25609   1.136   4.797   0.389 -0.0890  0.4135 -0.0493
  195MOL0     C25610   1.082   4.779   0.281  0.4861  0.4909 -0.1282
  195MOL0     O25611   1.115   4.685   0.189 -0.1536 -0.2547 -0.7133
  195MOL0     C25612   1.221   4.599   0.206 -0.1399  0.9503 -1.2991
  195MOL0     C25613   1.245   4.524   0.321 -0.6937 -1.2684  0.1190
  195MOL0     C25614   1.365   4.454   0.334  0.8488 -0.6448 -0.2562
  195MOL0     C25615   1.443   4.434   0.227 -0.3319  0.8711  0.9908
  195MOL0     O25616   1.562   4.372   0.241 -0.5184  0.7048  0.2850
  195MOL0     C25617   1.653   4.355   0.134  0.7875 -0.5542  0.4786
  195MOL0     C25618   1.776   4.279   0.192 -0.3265  0.4142  1.3460
  195MOL0     C25619   1.898   4.281   0.095 -0.5664  0.0983  0.1159
  195MOL0     C25620   1.969   4.420   0.095  0.3011  0.2417  0.3856
  195MOL0     C25621   2.073   4.422  -0.015 -0.1708 -0.0216 -0.7027
  195MOL0     C25622   2.120   4.568  -0.038  0.1089 -0.5869 -0.2525
  195MOL0     C25623   2.184   4.627   0.088 -0.0906 -0.6553 -0.1450
  195MOL0     C25624   2.239   4.763   0.054 -0.2494 -0.7652 -0.1866
  195MOL0     N25625   2.134   4.860  -0.001 -1.1132  0.2602  0.0488
  195MOL0     C25626   2.027   4.908   0.066 -0.5464 -0.1491  0.1277
  195MOL0     C25627   1.954   4.977  -0.026 -0.3099  0.3522 -0.6829
  195MOL0     C25628   1.816   5.025  -0.005 -0.1639 -0.2098 -0.6999
  195MOL0     C25629   1.718   4.932  -0.085 -0.5338  1.2488 -0.2024
  195MOL0     C25630   1.590   5.004  -0.133 -0.3754  0.1041  0.2604
  195MOL0     C25631   1.509   4.926  -0.237 -0.8409  0.7544  0.8754
  195MOL0     O25632   1.442   4.838  -0.158  0.6801 -0.1697 -0.5440
  195MOL0     C25633   1.309   4.822  -0.179 -0.5693  0.1526 -0.4032
  195MOL0     C25634   1.261   4.708  -0.248 -0.6711  0.2015  0.4732
  195MOL0     C25635   1.131   4.699  -0.289  0.4702  0.2360  0.1033
  195MOL0     C25636   1.047   4.815  -0.275  0.3144 -0.1605  1.1664
  195MOL0     C25637   0.911   4.813  -0.342  0.5777  0.2355  0.5650
  195MOL0     O25638   0.816   4.872  -0.270 -0.3233 -0.0903  0.2483
  195MOL0     C25639   0.684   4.874  -0.319  0.5161 -0.3005  0.0931
  195MOL0     C25640   0.653   4.894  -0.455  0.0433 -0.3451 -0.6103
  195MOL0     C25641   0.521   4.902  -0.492 -0.3741 -0.0580  0.3627
  195MOL0     C25642   0.413   4.907  -0.396 -0.0448  0.2929  0.5875
  195MOL0     O25643   0.277   4.909  -0.437  0.2659 -0.1095  0.2753
  195MOL0     C25644   0.225   4.812  -0.530 -0.2451  0.2865 -0.4983
  195MOL0     C25645   0.070   4.810  -0.529 -0.9834 -1.0955 -0.0316
  195MOL0     C25646   0.014   4.950  -0.562  0.3906 -0.6540  0.0789
  195MOL0     C25647  -0.133   4.956  -0.506  0.0073  0.7097 -0.3048
  195MOL0     C25648  -0.214   5.061  -0.575 -0.5901 -0.1970  0.0046
  195MOL0     C25649  -0.363   5.075  -0.520  0.2371 -0.2670  0.0375
  195MOL0     C25650  -0.367   5.144  -0.380  1.1542  0.6763 -0.3033
  195MOL0     C25651  -0.287   5.276  -0.371 -0.0562 -1.1394 -0.2861
  195MOL0    Cl25652  -0.328   5.373  -0.234 -0.1917 -0.1678  0.4543
  195MOL0     C25653   0.444   4.898  -0.264  0.4544  0.7134  0.6376
  195MOL0     C25654   0.573   4.866  -0.223 -0.0597 -0.3529 -1.0882
  195MOL0     O25655   0.898   4.740  -0.437 -0.7986  0.2207  0.0174
  195MOL0     C25656   1.089   4.926  -0.202 -0.0920  0.2213  0.0124
  195MOL0     C25657   1.220   4.923  -0.146  0.1757  0.2355 -0.0965
  195MOL0     N25658   2.022   4.955  -0.149  1.1634 -0.1061  0.3335
  195MOL0     N25659   2.129   4.885  -0.134  0.4544 -0.1469 -0.3271
  195MOL0     C25660   1.405   4.494   0.105 -0.0952 -0.2392  0.6750
  195MOL0     C25661   1.301   4.581   0.097  0.5155  0.3007 -0.2353
  195MOL0     C25662   0.984   4.886   0.242 -0.7286  0.2100  0.4666
  195MOL0     C25663   0.918   4.869   0.115 -1.3676  0.0116  0.3355
  195MOL0     C25664   0.814   4.957   0.079 -0.6868 -0.4291 -0.1112
  195MOL0     C25665   0.773   5.069   0.159 -0.0797  0.5502  0.2216
  195MOL0     O25666   0.690   5.170   0.120  0.0569 -0.6176  0.5303
  195MOL0     C25667   0.619   5.176  -0.009 -0.0851 -0.7033 -0.4762
  195MOL0     C25668   0.473   5.133   0.011 -0.6817 -0.1408  0.2414
  195MOL0     C25669   0.392   5.187   0.135 -0.4707 -0.6794  1.2918
  195MOL0     C25670   0.358   5.335   0.101  0.3980 -0.3385  0.5593
  195MOL0     C25671   0.340   5.417   0.222  0.6130  0.6986 -0.3434
  195MOL0     C25672   0.296   5.458   0.333 -0.1531  0.3391  0.4526
  195MOL0     C25673   0.832   5.082   0.286  0.4779  0.3506  0.6180
  195MOL0     C25674   0.930   4.990   0.322 -1.0539 -0.4168 -0.5982
  195MOL0     H25675   1.187   4.537   0.411 -1.9388 -2.6434 -0.4384
  195MOL0     H25676   1.407   4.407   0.422  4.2184  0.0264 -1.3473
  195MOL0     H25677   1.673   4.459   0.105 -1.6615  0.0606  0.7498
  195MOL0     H25678   1.607   4.308   0.047 -0.1270  0.0954  0.5899
  195MOL0     H25679   1.754   4.174   0.215 -0.2773  0.2941  0.8587
  195MOL0     H25680   1.798   4.329   0.286 -0.2260  0.8939  1.0679
  195MOL0     H25681   1.861   4.251  -0.003  0.9545 -0.5261 -0.2865
  195MOL0     H25682   1.974   4.206   0.118 -0.1511  0.0027 -1.4919
  195MOL0     H25683   1.899   4.503   0.076  0.2248  0.3198  1.0063
  195MOL0     H25684   2.015   4.444   0.191 -2.5337 -1.5776  2.3425
  195MOL0     H25685   2.024   4.384  -0.105 -0.0775 -1.0080 -0.3473
  195MOL0     H25686   2.166   4.370   0.011 -2.1958 -2.6543  1.8558
  195MOL0     H25687   2.041   4.632  -0.079 -0.2292 -1.3378 -0.7982
  195MOL0     H25688   2.202   4.553  -0.110  2.4205  0.0544  2.0802
  195MOL0     H25689   2.111   4.633   0.169  0.8050  1.8817  0.5692
  195MOL0     H25690   2.279   4.580   0.116  0.7861  1.2011  0.1340
  195MOL0     H25691   2.314   4.731  -0.019  1.5461  1.8921  0.3275
  195MOL0     H25692   2.280   4.796   0.151  1.1088 -1.8281 -0.3627
  195MOL0     H25693   2.004   4.886   0.170 -0.6949 -0.8139 -0.0351
  195MOL0     H25694   1.794   5.132  -0.007 -2.5390 -0.4111  3.5241
  195MOL0     H25695   1.796   5.012   0.102  1.6410  2.3727  0.0385
  195MOL0     H25696   1.673   4.852  -0.025 -2.2001 -0.3840 -3.3895
  195MOL0     H25697   1.768   4.882  -0.168  2.4941  0.3901  1.9786
  195MOL0     H25698   1.514   5.023  -0.057 -1.9197  0.4827 -1.3119
  195MOL0     H25699   1.615   5.104  -0.171  0.0833  0.0752  0.4792
  195MOL0     H25700   1.578   4.869  -0.300 -0.9676  0.1104  1.2997
  195MOL0     H25701   1.438   4.981  -0.300 -0.3002  0.1903 -0.2692
  195MOL0     H25702   1.323   4.627  -0.287 -0.0971  0.6847  0.3722
  195MOL0     H25703   1.114   4.611  -0.350 -0.6343 -0.5818  1.5302
  195MOL0     H25704   0.728   4.904  -0.532  0.1917 -0.8917 -0.5419
  195MOL0     H25705   0.486   4.906  -0.595 -1.0663 -1.3036  0.5259
  195MOL0     H25706   0.253   4.710  -0.503 -1.0011  0.0645 -0.5393
  195MOL0     H25707   0.254   4.843  -0.631  0.9795  1.1077  0.0791
  195MOL0     H25708   0.043   4.779  -0.428 -0.1393 -1.3655  0.1192
  195MOL0     H25709   0.035   4.739  -0.606 -0.7319 -2.5409  1.1476
  195MOL0     H25710   0.017   4.964  -0.670  1.2432 -3.3183 -0.3174
  195MOL0     H25711   0.063   5.036  -0.515 -1.5030  0.3863  0.2484
  195MOL0     H25712  -0.168   4.854  -0.523  1.0306  0.4903 -1.1468
  195MOL0     H25713  -0.123   4.963  -0.397  2.7054  0.3705 -0.4602
  195MOL0     H25714  -0.215   5.034  -0.681  1.5417 -0.6554  0.0620
  195MOL0     H25715  -0.157   5.154  -0.574  1.7154 -1.4828 -1.6705
  195MOL0     H25716  -0.420   4.981  -0.525  1.0551 -0.8801  1.5042
  195MOL0     H25717  -0.406   5.135  -0.600  3.6201 -1.6076 -3.0939
  195MOL0     H25718  -0.474   5.161  -0.362  1.1178  0.1040  0.0393
  195MOL0     H25719  -0.340   5.076  -0.299  1.4664 -0.3983 -1.2919
  195MOL0     H25720  -0.309   5.335  -0.460 -0.0976 -1.5263 -0.5306
  195MOL0     H25721  -0.180   5.253  -0.378 -0.5330 -3.1438 -1.5923
  195MOL0     H25722   0.361   4.894  -0.195  0.7322 -0.5826  0.9221
  195MOL0     H25723   0.596   4.848  -0.118 -0.7562  2.2282 -0.3896
  195MOL0     H25724   1.027   5.014  -0.191 -0.1448  0.4797 -2.0106
  195MOL0     H25725   1.253   5.011  -0.093 -1.3356 -0.0441  1.3780
  195MOL0     H25726   1.466   4.475   0.018 -2.0645  0.5455 -0.9625
  195MOL0     H25727   1.268   4.639   0.011  1.0852 -0.0570 -0.7023
  195MOL0     H25728   0.936   4.783   0.050 -2.8761  0.2610 -0.4824
  195MOL0     H25729   0.766   4.938  -0.016 -3.1506 -0.9125  1.1425
  195MOL0     H25730   0.669   5.116  -0.086  1.6975  1.0533 -0.7764
  195MOL0     H25731   0.619   5.279  -0.045 -4.4040 -0.1364  0.5974
  195MOL0     H25732   0.426   5.149  -0.086 -0.4572 -2.8442 -0.3885
  195MOL0     H25733   0.483   5.025   0.029  1.4206  0.3368  2.4823
  195MOL0     H25734   0.447   5.178   0.230 -2.4977 -3.6539  2.3204
  195MOL0     H25735   0.299   5.133   0.118 -0.1961  0.0496 -4.2199
  195MOL0     H25736   0.442   5.380   0.048 -0.1979 -0.5198 -0.5562
  195MOL0     H25737   0.268   5.332   0.039  0.9608 -0.3299 -0.2707
  195MOL0     H25738   0.265   5.492   0.429 -0.7036 -1.0654  0.7962
  195MOL0     H25739   0.797   5.153   0.360 -0.6226 -2.1372  2.6725
  195MOL0     H25740   0.966   5.005   0.423 -3.8883  1.7902  0.2229
  196MOL0     O25741   7.531  10.352   6.877  0.0029 -0.1045  0.6476
  196MOL0     C25742   7.444  10.285   6.928  0.0789 -0.6574 -0.6983
  196MOL0     O25743   7.470  10.182   7.027  0.4292 -0.1881 -0.3804
  196MOL0     C25744   7.593  10.142   7.058  1.0128 -0.6700  0.7153
  196MOL0     C25745   7.655  10.184   7.175  0.0360 -0.7257  0.1320
  196MOL0     C25746   7.777  10.123   7.215  0.1126 -0.0498  0.4379
  196MOL0     C25747   7.842  10.032   7.126 -0.1734 -0.4821 -0.2887
  196MOL0     O25748   7.971   9.983   7.161  0.1699 -0.4595 -0.4651
  196MOL0     C25749   8.031   9.871   7.089 -0.2276  0.9222 -1.1721
  196MOL0     C25750   8.125   9.915   6.981 -1.1135  0.1048  0.1130
  196MOL0     C25751   8.246   9.994   7.039  0.8345  0.9661  0.2025
  196MOL0     C25752   8.323  10.061   6.924 -0.7723  1.1478  0.6881
  196MOL0     C25753   8.438  10.153   6.984  0.2590  0.3326 -0.2482
  196MOL0     C25754   8.507  10.219   6.869 -0.7990 -0.0400  0.1201
  196MOL0     C25755   8.614  10.319   6.921 -0.4808 -0.4122 -0.8834
  196MOL0     C25756   8.647  10.423   6.802  0.0392  0.1674 -0.5730
  196MOL0     N25757   8.702  10.541   6.861 -0.7334 -0.7167  0.4324
  196MOL0     C25758   8.629  10.643   6.902 -0.2337  0.2464  0.8161
  196MOL0     C25759   8.721  10.726   6.954 -0.1159  0.8790  0.3878
  196MOL0     C25760   8.706  10.856   7.020  0.2474 -0.4266 -0.0037
  196MOL0     C25761   8.651  10.963   6.921 -0.1417  0.4347 -0.0936
  196MOL0     C25762   8.622  11.095   6.987 -0.3355 -0.3827  0.3057
  196MOL0     C25763   8.585  11.220   6.898  0.1450 -0.2780 -0.2612
  196MOL0     O25764   8.477  11.184   6.819  0.1369 -0.1266  0.4995
  196MOL0     C25765   8.439  11.285   6.726  0.0867  0.2933 -0.6400
  196MOL0     C25766   8.317  11.349   6.753  0.4723  0.5150 -0.3032
  196MOL0     C25767   8.255  11.428   6.659  0.9906  0.2699  0.2615
  196MOL0     C25768   8.317  11.440   6.532 -0.1130  0.6294 -0.0111
  196MOL0     C25769   8.245  11.525   6.426 -0.1217 -0.1036  0.4023
  196MOL0     O25770   8.137  11.602   6.467 -0.7969 -0.0609 -0.1562
  196MOL0     C25771   8.059  11.678   6.385 -0.4358  0.4325  0.4787
  196MOL0     C25772   7.932  11.692   6.429  0.0597  0.5631  0.1162
  196MOL0     C25773   7.842  11.757   6.341  0.6226 -0.7802 -0.6318
  196MOL0     C25774   7.874  11.814   6.218  0.0688  0.1629  0.7613
  196MOL0     O25775   7.795  11.896   6.141  0.2857  0.6047 -0.3526
  196MOL0     C25776   7.657  11.853   6.138 -0.7755  0.4025 -0.2746
  196MOL0     C25777   7.572  11.984   6.118  0.7296  0.5907 -1.1957
  196MOL0     C25778   7.428  11.941   6.100  0.2402 -0.9714 -0.3901
  196MOL0     C25779   7.353  12.053   6.025  0.1445  0.3216  1.0113
  196MOL0     C25780   7.197  12.030   6.039 -0.7827  0.6000  0.4540
  196MOL0     C25781   7.152  11.895   5.981  0.5235  0.4797  0.2929
  196MOL0     C25782   7.006  11.872   6.013  0.1343  0.3608  0.1755
  196MOL0     C25783   6.936  11.792   5.891  0.7859 -0.7161  0.0270
  196MOL0    Cl25784   6.752  11.787   5.934  0.3537 -0.1602 -0.5583
  196MOL0     C25785   8.008  11.823   6.189  0.0073 -0.7162  0.6763
  196MOL0     C25786   8.104  11.758   6.278 -0.1519 -0.5521  0.3018
  196MOL0     O25787   8.284  11.519   6.312 -0.3382 -0.3934 -0.3829
  196MOL0     C25788   8.431  11.364   6.502  0.5895  0.9617 -0.0892
  196MOL0     C25789   8.490  11.282   6.600 -0.1857  0.2071  0.5919
  196MOL0     N25790   8.849  10.672   6.927 -0.0889  0.4098  0.5064
  196MOL0     N25791   8.831  10.567   6.857  0.4589  0.0040  0.1259
  196MOL0     C25792   7.780  10.003   6.999  0.0605 -0.7458  0.0128
  196MOL0     C25793   7.650  10.053   6.976 -0.0676  0.6349  0.6629
  196MOL0     C25794   7.302  10.310   6.894 -0.1136  0.1452 -0.6898
  196MOL0     C25795   7.260  10.431   6.844  0.7571  0.9279 -0.1535
  196MOL0     C25796   7.126  10.452   6.818  0.3153  0.3334 -0.5831
  196MOL0     C25797   7.023  10.361   6.855 -1.0820 -0.0421  0.1384
  196MOL0     O25798   6.893  10.380   6.843 -0.4725 -0.4854 -0.1638
  196MOL0     C25799   6.856  10.525   6.822 -0.4675  0.0795 -0.0215
  196MOL0     C25800   6.700  10.538   6.818  0.1145  0.4068  0.1601
  196MOL0     C25801   6.645  10.482   6.946 -0.5613 -0.2929 -0.6701
  196MOL0     C25802   6.494  10.522   6.967  0.0066  0.9027 -0.2394
  196MOL0     C25803   6.458  10.538   7.105  0.5770 -0.7402  0.7454
  196MOL0     C25804   6.435  10.554   7.225  0.4337 -1.0514  0.0404
  196MOL0     C25805   7.070  10.237   6.897  0.2885 -0.0570 -1.3671
  196MOL0     C25806   7.204  10.209   6.915 -0.1844  0.7269 -0.2999
  196MOL0     H25807   7.597  10.252   7.238  1.1054  0.8906 -0.5511
  196MOL0     H25808   7.811  10.141   7.316 -2.4844 -0.1623  1.3977
  196MOL0     H25809   7.946   9.811   7.054 -0.4261  1.0719 -0.9438
  196MOL0     H25810   8.076   9.810   7.168 -0.7514  2.6985  0.5560
  196MOL0     H25811   8.065   9.984   6.922 -1.6409  1.1513  1.7997
  196MOL0     H25812   8.149   9.829   6.917 -2.9644 -0.0490 -0.4404
  196MOL0     H25813   8.321   9.925   7.081 -0.7055 -1.1274 -0.3297
  196MOL0     H25814   8.205  10.063   7.113 -0.4493 -1.0993  1.5313
  196MOL0     H25815   8.358   9.987   6.852  1.2181  1.6786  1.0599
  196MOL0     H25816   8.253  10.126   6.870 -1.4629  1.1518  1.5617
  196MOL0     H25817   8.503  10.095   7.051 -0.3623 -0.2264 -0.1233
  196MOL0     H25818   8.390  10.230   7.045  1.4191  1.8271 -1.1248
  196MOL0     H25819   8.437  10.278   6.808  2.2077  1.4174 -2.1824
  196MOL0     H25820   8.557  10.151   6.799  0.7420  1.5424 -0.4050
  196MOL0     H25821   8.582  10.378   7.007 -0.1802  0.8326 -1.6043
  196MOL0     H25822   8.709  10.274   6.949  0.2665  2.8405  2.5091
  196MOL0     H25823   8.563  10.452   6.739 -0.4252 -1.9509 -0.9955
  196MOL0     H25824   8.713  10.376   6.729  0.3437 -2.9452  1.5149
  196MOL0     H25825   8.521  10.660   6.903 -0.7573 -2.5335  3.0650
  196MOL0     H25826   8.793  10.893   7.075 -1.2159  0.9098  1.5577
  196MOL0     H25827   8.615  10.853   7.081  1.3003 -0.7788  1.6066
  196MOL0     H25828   8.561  10.923   6.872 -2.0671 -0.9672  4.1469
  196MOL0     H25829   8.723  10.979   6.839  1.5313 -1.5718  0.8755
  196MOL0     H25830   8.537  11.076   7.053 -2.6584  2.4883 -1.5933
  196MOL0     H25831   8.712  11.119   7.044  0.9887 -0.5627 -1.6280
  196MOL0     H25832   8.670  11.256   6.838 -0.6304 -0.4371 -1.4947
  196MOL0     H25833   8.548  11.306   6.953 -3.4143 -1.0924 -1.1620
  196MOL0     H25834   8.278  11.337   6.854  1.0805  0.9034 -0.0159
  196MOL0     H25835   8.164  11.479   6.690  0.5318 -1.0653  1.1627
  196MOL0     H25836   7.907  11.643   6.522 -1.2291  0.8780 -0.0444
  196MOL0     H25837   7.743  11.773   6.383  1.3611  2.9874  0.0378
  196MOL0     H25838   7.618  11.798   6.225 -2.7233  0.0143 -1.3213
  196MOL0     H25839   7.647  11.787   6.051 -1.5557  0.7468 -0.4560
  196MOL0     H25840   7.603  12.029   6.024 -0.0266 -1.0605 -2.2815
  196MOL0     H25841   7.589  12.058   6.197  0.1284 -1.3299  0.8357
  196MOL0     H25842   7.377  11.912   6.192 -0.4534  0.6392 -0.2317
  196MOL0     H25843   7.423  11.849   6.040  0.3530 -2.8443  2.3018
  196MOL0     H25844   7.377  12.154   6.060  2.9875  0.4637 -1.0528
  196MOL0     H25845   7.394  12.049   5.924  3.3385  1.7239  2.1195
  196MOL0     H25846   7.147  12.116   5.992 -1.6634  1.2524  2.4586
  196MOL0     H25847   7.175  12.018   6.146  3.5083 -0.0798  1.4581
  196MOL0     H25848   7.207  11.810   6.023  0.4126  0.2961  0.0655
  196MOL0     H25849   7.172  11.892   5.874  2.5292 -2.6844  0.6292
  196MOL0     H25850   6.996  11.811   6.102 -2.4899 -4.3015 -2.9153
  196MOL0     H25851   6.955  11.969   6.016  1.8164  1.3138 -0.2964
  196MOL0     H25852   6.983  11.695   5.871  1.7322 -0.2066 -0.3284
  196MOL0     H25853   6.954  11.855   5.804  3.3159  0.2144  1.0952
  196MOL0     H25854   8.054  11.866   6.100 -0.5956 -0.1090  0.6572
  196MOL0     H25855   8.210  11.752   6.256  0.0615  0.0284  1.1430
  196MOL0     H25856   8.474  11.350   6.404 -1.9290 -3.0575 -0.8520
  196MOL0     H25857   8.571  11.211   6.587 -1.9636 -2.3659  2.4258
  196MOL0     H25858   7.826   9.947   6.918  0.0266 -2.9509  1.4179
  196MOL0     H25859   7.603  10.033   6.880  0.3051  3.0981 -0.1097
  196MOL0     H25860   7.335  10.509   6.830  2.0499  0.0765  1.7020
  196MOL0     H25861   7.102  10.551   6.781 -3.3931 -1.5027 -3.7975
  196MOL0     H25862   6.885  10.562   6.723  1.2599  2.1739  1.1847
  196MOL0     H25863   6.902  10.595   6.891  1.1657  0.8794 -1.8102
  196MOL0     H25864   6.669  10.642   6.819 -2.6568 -0.3337  1.7234
  196MOL0     H25865   6.659  10.474   6.740  0.3274  0.3371  0.1044
  196MOL0     H25866   6.704  10.523   7.028  1.7137  0.8255 -2.7566
  196MOL0     H25867   6.658  10.373   6.938 -0.1157 -0.2470 -0.5705
  196MOL0     H25868   6.460  10.607   6.906 -1.3795 -1.2376 -2.6327
  196MOL0     H25869   6.443  10.436   6.924 -1.8946  3.3591 -3.4116
  196MOL0     H25870   6.395  10.589   7.319 -0.0473 -0.5773 -0.3354
  196MOL0     H25871   7.001  10.156   6.914  0.6696 -0.3599 -1.2508
  196MOL0     H25872   7.227  10.106   6.941 -1.3294 -0.2684 -2.8916
  197MOL0     O25873  11.263  10.100   4.289 -0.7832  0.0080  0.0485
  197MOL0     C25874  11.301  10.193   4.219 -0.4496 -0.7694 -0.4141
  197MOL0     O25875  11.230  10.283   4.151  1.1505  0.0528 -0.8092
  197MOL0     C25876  11.101  10.314   4.179 -0.1761  0.2958  0.1563
  197MOL0     C25877  11.048  10.397   4.082  0.3421  0.3694 -0.2588
  197MOL0     C25878  10.926  10.461   4.100 -0.3113 -1.0714  0.3815
  197MOL0     C25879  10.842  10.412   4.192  1.0644 -0.3065 -0.0805
  197MOL0     O25880  10.717  10.464   4.210 -0.0141 -0.0034  0.2812
  197MOL0     C25881  10.642  10.394   4.112  0.0777 -0.0985 -0.1486
  197MOL0     C25882  10.502  10.450   4.134  0.1873 -0.2578 -0.1763
  197MOL0     C25883  10.391  10.369   4.065  1.8286 -0.3146 -0.2794
  197MOL0     C25884  10.249  10.404   4.088  0.9105 -0.0607  0.8540
  197MOL0     C25885  10.212  10.545   4.035 -0.3935 -0.7371 -0.0387
  197MOL0     C25886  10.065  10.578   4.031  0.6678 -0.4724  0.6351
  197MOL0     C25887  10.009  10.608   4.173  0.6762 -0.3617  0.4625
  197MOL0     C25888   9.938  10.489   4.232 -0.2343 -1.1308 -0.4029
  197MOL0     N25889   9.815  10.443   4.159 -0.2478  0.1104  0.1096
  197MOL0     C25890   9.702  10.513   4.139  0.2996  0.7165  0.3222
  197MOL0     C25891   9.611  10.429   4.081 -0.9705  0.2485 -0.5011
  197MOL0     C25892   9.470  10.464   4.055  1.1627 -0.1246 -0.0837
  197MOL0     C25893   9.402  10.520   4.182  0.3119  0.0601 -0.6063
  197MOL0     C25894   9.250  10.550   4.165  0.3580  0.1029  0.0561
  197MOL0     C25895   9.163  10.426   4.161 -0.0048  0.1820  0.9573
  197MOL0     O25896   9.192  10.318   4.253  0.0505 -0.0970  0.0828
  197MOL0     C25897   9.098  10.230   4.297 -0.1948 -1.3014  1.1199
  197MOL0     C25898   9.126  10.116   4.367 -0.8481 -0.6097  0.0971
  197MOL0     C25899   9.037  10.026   4.406 -0.2778 -0.2813  0.0040
  197MOL0     C25900   8.900  10.045   4.378 -0.6014  0.2067  0.4790
  197MOL0     C25901   8.810   9.937   4.395  0.2060 -0.8862 -0.3142
  197MOL0     O25902   8.695   9.948   4.324  0.3246 -1.0621  0.5585
  197MOL0     C25903   8.590   9.873   4.362 -0.5180  0.3869  0.6266
  197MOL0     C25904   8.486   9.944   4.422  0.3084 -0.5975 -0.9008
  197MOL0     C25905   8.371   9.880   4.467 -0.0161 -0.0323  0.7497
  197MOL0     C25906   8.366   9.738   4.463 -0.5631 -0.0619  0.8859
  197MOL0     O25907   8.257   9.661   4.480  0.2616 -0.3781 -0.3909
  197MOL0     C25908   8.139   9.716   4.545 -0.4091  0.5019  0.3241
  197MOL0     C25909   8.040   9.602   4.571  0.0281  0.3906  0.7013
  197MOL0     C25910   7.984   9.547   4.437  0.0614 -0.0990  0.1673
  197MOL0     C25911   7.852   9.465   4.461 -0.7799 -0.0415 -0.0827
  197MOL0     C25912   7.807   9.380   4.338  0.7096  0.3565 -0.0053
  197MOL0     C25913   7.750   9.451   4.218 -0.4768  0.0243 -0.0223
  197MOL0     C25914   7.590   9.453   4.226  0.1327 -0.1743 -0.1288
  197MOL0     C25915   7.514   9.561   4.146 -0.0551 -0.4804  0.6334
  197MOL0    Cl25916   7.574   9.556   3.989 -0.0344 -0.2397  0.2509
  197MOL0     C25917   8.478   9.664   4.411  0.2968  0.3277 -0.6722
  197MOL0     C25918   8.589   9.729   4.361  0.0269 -0.2264 -0.3668
  197MOL0     O25919   8.829   9.853   4.484  0.8296 -0.1581  0.9858
  197MOL0     C25920   8.861  10.173   4.325 -0.3165  0.6448  0.2204
  197MOL0     C25921   8.960  10.263   4.284  0.6240 -1.1251 -0.3159
  197MOL0     N25922   9.668  10.307   4.082  0.3862 -0.0474 -0.3559
  197MOL0     N25923   9.789  10.316   4.126  0.1225 -0.4202  0.2238
  197MOL0     C25924  10.882  10.321   4.287 -0.6852 -0.4932  0.4612
  197MOL0     C25925  11.015  10.278   4.289 -0.0372  0.0687 -0.1318
  197MOL0     C25926  11.450  10.198   4.178  0.3703  0.0528 -0.2626
  197MOL0     C25927  11.539  10.088   4.197 -0.5283 -0.1770 -0.3045
  197MOL0     C25928  11.668  10.089   4.144  0.3290 -0.3005  0.3445
  197MOL0     C25929  11.716  10.201   4.062  0.3536  1.4176  0.4499
  197MOL0     O25930  11.844  10.195   4.019 -0.7771 -0.8750  0.4840
  197MOL0     C25931  11.906  10.290   3.929 -0.4121  0.1524 -0.2021
  197MOL0     C25932  12.059  10.290   3.939 -0.2025 -0.0381 -0.6307
  197MOL0     C25933  12.105  10.138   3.933 -0.9233  0.3750  0.0484
  197MOL0     C25934  12.259  10.155   3.928 -0.1773 -0.3096  0.4289
  197MOL0     C25935  12.309  10.025   3.955  0.0272 -0.9739  0.6259
  197MOL0     C25936  12.355   9.911   3.978  0.1097  0.6481  0.3195
  197MOL0     C25937  11.626  10.306   4.045  0.1511 -1.0542 -0.2578
  197MOL0     C25938  11.496  10.299   4.097  0.2132  0.2517  0.3778
  197MOL0     H25939  11.107  10.402   3.990  0.8893  1.8957  0.1597
  197MOL0     H25940  10.886  10.545   4.045 -0.8183 -1.8007 -0.3905
  197MOL0     H25941  10.635  10.285   4.120  0.6138 -0.1971 -0.8879
  197MOL0     H25942  10.675  10.417   4.010 -1.0640  4.0894  0.2412
  197MOL0     H25943  10.490  10.554   4.099 -2.5780 -1.1952 -2.3685
  197MOL0     H25944  10.484  10.438   4.241  2.9676  1.3336  0.5791
  197MOL0     H25945  10.410  10.268   4.102  0.3799 -0.5083  0.0247
  197MOL0     H25946  10.413  10.399   3.962  0.0953  0.5157 -0.4467
  197MOL0     H25947  10.191  10.335   4.026  1.3980 -0.1052  0.4450
  197MOL0     H25948  10.226  10.385   4.193 -2.3951 -2.7405 -0.1602
  197MOL0     H25949  10.243  10.547   3.930  0.6280 -1.5660  0.2327
  197MOL0     H25950  10.275  10.617   4.087 -0.7331 -0.4392 -0.0379
  197MOL0     H25951  10.008  10.497   3.985  0.5957  0.2062 -0.4935
  197MOL0     H25952  10.049  10.668   3.971  0.9939 -0.5183  0.4786
  197MOL0     H25953  10.093  10.630   4.240  1.6216  1.3628 -1.1813
  197MOL0     H25954   9.949  10.699   4.167  0.5382 -0.4350  0.7367
  197MOL0     H25955   9.902  10.524   4.329  0.2805 -0.8292 -0.3164
  197MOL0     H25956  10.007  10.406   4.242 -0.5115 -1.4494 -1.0768
  197MOL0     H25957   9.685  10.616   4.168  0.3596  2.4484 -4.6916
  197MOL0     H25958   9.419  10.374   4.017  3.4831 -1.3745 -0.3976
  197MOL0     H25959   9.469  10.537   3.973 -1.1889  2.4789  2.0648
  197MOL0     H25960   9.439  10.622   4.193 -2.3081  1.1323 -1.0430
  197MOL0     H25961   9.422  10.459   4.271  1.0330 -0.3641 -1.0527
  197MOL0     H25962   9.228  10.608   4.256  2.9656 -0.8942  1.4557
  197MOL0     H25963   9.240  10.614   4.077 -2.0274 -2.5320 -1.7242
  197MOL0     H25964   9.166  10.390   4.058  4.1887 -1.3043  1.4389
  197MOL0     H25965   9.064  10.470   4.182  0.7011  2.0305  0.6377
  197MOL0     H25966   9.232  10.097   4.365 -0.5397  1.0091 -0.0492
  197MOL0     H25967   9.073   9.928   4.434 -1.1356 -0.2680  1.2431
  197MOL0     H25968   8.495  10.053   4.420 -0.0592 -0.4762  1.0773
  197MOL0     H25969   8.291   9.940   4.510  0.9618  0.9551  1.2593
  197MOL0     H25970   8.094   9.790   4.479 -1.6468  0.4647  1.0820
  197MOL0     H25971   8.166   9.766   4.639 -2.3407  3.0861 -0.3851
  197MOL0     H25972   7.953   9.648   4.620  1.8383  0.3107  4.3099
  197MOL0     H25973   8.071   9.532   4.649  0.0584  0.8476  1.1067
  197MOL0     H25974   8.058   9.475   4.400 -2.2196 -3.6282  1.9527
  197MOL0     H25975   7.972   9.631   4.368 -0.6945  0.6672  1.1988
  197MOL0     H25976   7.864   9.392   4.542 -4.9101 -1.0603 -0.1701
  197MOL0     H25977   7.779   9.535   4.503  1.4243  0.9388  2.4137
  197MOL0     H25978   7.734   9.305   4.370  0.8500 -0.5437 -1.6656
  197MOL0     H25979   7.889   9.319   4.301  1.1504  1.1382 -0.3410
  197MOL0     H25980   7.781   9.415   4.119 -0.9244  0.0029 -0.1561
  197MOL0     H25981   7.783   9.555   4.223 -2.9599  0.8702  0.1712
  197MOL0     H25982   7.558   9.353   4.194  1.6475 -1.4744  2.1907
  197MOL0     H25983   7.559   9.464   4.330  1.8112 -0.6508  0.4463
  197MOL0     H25984   7.523   9.661   4.188 -1.0396 -0.2404  0.3174
  197MOL0     H25985   7.408   9.533   4.150  0.7744 -4.0098  1.6485
  197MOL0     H25986   8.463   9.557   4.405 -1.1696  0.5511 -1.4618
  197MOL0     H25987   8.675   9.673   4.327  1.8016  0.2109  2.9778
  197MOL0     H25988   8.763  10.186   4.281  0.6350 -2.9382 -3.6172
  197MOL0     H25989   8.915  10.340   4.222  0.6013 -0.5854  0.3602
  197MOL0     H25990  10.816  10.278   4.361 -2.7326  0.5878 -0.6614
  197MOL0     H25991  11.037  10.217   4.376 -1.1902 -2.0826 -1.2553
  197MOL0     H25992  11.502  10.007   4.259 -2.7018  1.8321  1.2119
  197MOL0     H25993  11.736  10.006   4.153 -0.5709 -1.6403 -3.4165
  197MOL0     H25994  11.863  10.388   3.950  3.2493  1.7761  0.4519
  197MOL0     H25995  11.884  10.257   3.827  1.2691 -0.2513 -0.4609
  197MOL0     H25996  12.083  10.354   3.854 -0.7008 -0.4737 -1.1061
  197MOL0     H25997  12.092  10.335   4.033 -2.3144 -0.8812  0.5916
  197MOL0     H25998  12.060  10.101   3.840 -0.0979 -0.6917  0.0579
  197MOL0     H25999  12.083  10.072   4.017  3.4221 -0.5521  0.6740
  197MOL0     H26000  12.290  10.197   3.832 -2.3250 -1.4896 -0.8505
  197MOL0     H26001  12.290  10.210   4.017  1.0352 -2.7082  1.5995
  197MOL0     H26002  12.399   9.817   4.002  1.9526  0.8542 -1.9034
  197MOL0     H26003  11.647  10.391   3.980 -3.1167  2.6097  2.9730
  197MOL0     H26004  11.437  10.387   4.074 -2.4915 -1.1057  1.5032
  198MOL0     O26005   8.007   5.511  10.625 -0.5780 -0.2153  0.9614
  198MOL0     C26006   8.114   5.579  10.625  1.3593  1.1721  0.2125
  198MOL0     O26007   8.144   5.681  10.709 -0.4999 -0.3803  0.0731
  198MOL0     C26008   8.057   5.690  10.817 -0.9890 -0.3284 -0.7758
  198MOL0     C26009   8.075   5.592  10.916  0.5743 -0.1948 -0.5383
  198MOL0     C26010   7.982   5.582  11.021 -0.6951  0.6144 -0.2633
  198MOL0     C26011   7.871   5.664  11.019 -0.3588 -0.3863 -0.2102
  198MOL0     O26012   7.769   5.664  11.113  0.3504 -0.4597 -0.5768
  198MOL0     C26013   7.792   5.606  11.243 -0.7308  0.2804  0.2638
  198MOL0     C26014   7.680   5.663  11.332 -0.4373 -0.3990  0.3986
  198MOL0     C26015   7.547   5.628  11.271  0.0922 -0.0865 -0.4066
  198MOL0     C26016   7.430   5.685  11.351 -0.3867  0.8595  0.0982
  198MOL0     C26017   7.404   5.599  11.484 -0.0384  0.2828 -0.3589
  198MOL0     C26018   7.278   5.655  11.550 -0.0153 -1.0969  0.0100
  198MOL0     C26019   7.275   5.801  11.580 -0.4379  0.3319  0.5668
  198MOL0     C26020   7.214   5.848  11.708  0.1445  0.4370  0.0064
  198MOL0     N26021   7.084   5.802  11.755 -0.1435 -0.3943 -1.0444
  198MOL0     C26022   6.983   5.757  11.676 -0.1936  0.2992 -0.3634
  198MOL0     C26023   6.905   5.678  11.744  0.1748 -0.0887 -0.4014
  198MOL0     C26024   6.796   5.604  11.685  0.2815  0.8777 -0.0685
  198MOL0     C26025   6.673   5.626  11.777  0.1772  0.2836  0.6667
  198MOL0     C26026   6.644   5.776  11.784 -1.1712 -0.1761  0.5525
  198MOL0     C26027   6.497   5.788  11.835 -0.2559 -0.2788  0.0840
  198MOL0     O26028   6.411   5.760  11.724 -0.0664  0.6191 -0.7419
  198MOL0     C26029   6.273   5.743  11.735  0.5310  0.3364  0.0551
  198MOL0     C26030   6.195   5.785  11.851 -0.3869  0.5593  0.2292
  198MOL0     C26031   6.055   5.758  11.853 -0.5134  0.7081  0.4173
  198MOL0     C26032   5.995   5.710  11.739 -0.2372  0.8585  0.4069
  198MOL0     C26033   5.855   5.666  11.749 -0.1028  0.1160 -0.2769
  198MOL0     O26034   5.799   5.639  11.625  0.0399  0.7947  0.4343
  198MOL0     C26035   5.685   5.568  11.603  0.6370 -0.9037 -0.3839
  198MOL0     C26036   5.643   5.573  11.468  0.1322  0.1859  0.4165
  198MOL0     C26037   5.545   5.488  11.423 -0.5099  0.3687  1.1405
  198MOL0     C26038   5.494   5.395  11.516  0.0355  0.7862  0.2969
  198MOL0     O26039   5.392   5.306  11.507  0.4389 -0.4663 -0.4830
  198MOL0     C26040   5.279   5.350  11.433 -0.0639  0.2744  0.2606
  198MOL0     C26041   5.227   5.235  11.351  0.1571  0.2695  0.3462
  198MOL0     C26042   5.156   5.126  11.440 -0.0627  0.1984 -0.3009
  198MOL0     C26043   5.058   5.162  11.555  0.5455  0.3350  1.0322
  198MOL0     C26044   4.961   5.045  11.596 -0.5438 -0.2806  0.0002
  198MOL0     C26045   4.823   5.105  11.624 -0.4878  0.0566  0.2869
  198MOL0     C26046   4.741   5.145  11.499  0.1013 -0.4293 -0.5510
  198MOL0     C26047   4.632   5.242  11.537  0.1574  0.1277  1.0984
  198MOL0    Cl26048   4.522   5.257  11.406  0.3276 -0.0675  0.3298
  198MOL0     C26049   5.535   5.384  11.645  0.4197 -0.8545  0.1803
  198MOL0     C26050   5.625   5.475  11.687 -0.4189 -0.1356 -0.1095
  198MOL0     O26051   5.805   5.649  11.865  0.4537 -0.3242 -0.4324
  198MOL0     C26052   6.072   5.672  11.625  0.4452 -0.4064  0.4613
  198MOL0     C26053   6.206   5.697  11.622 -0.0063  0.4704 -0.5272
  198MOL0     N26054   6.946   5.686  11.881 -0.6786  0.4061 -0.2297
  198MOL0     N26055   7.045   5.768  11.891 -0.2690 -0.6909 -0.0082
  198MOL0     C26056   7.845   5.749  10.913 -0.2710 -0.5641 -0.3274
  198MOL0     C26057   7.944   5.765  10.818  0.3705 -0.3117  0.4516
  198MOL0     C26058   8.215   5.533  10.531 -0.3352  0.4199  0.3174
  198MOL0     C26059   8.357   5.560  10.556 -0.6849  0.3130  0.5361
  198MOL0     C26060   8.455   5.529  10.456  0.0346 -0.5793 -0.5721
  198MOL0     C26061   8.422   5.452  10.344  0.4072 -0.1699  0.1614
  198MOL0     O26062   8.513   5.408  10.250  0.3688  0.3054 -0.3981
  198MOL0     C26063   8.639   5.466  10.258 -0.4743  0.5609  0.5049
  198MOL0     C26064   8.727   5.418  10.135 -0.4409 -0.2911  0.0068
  198MOL0     C26065   8.828   5.533  10.117  0.3327  0.8162 -0.4655
  198MOL0     C26066   8.963   5.492  10.044  0.7561  0.5467 -0.5696
  198MOL0     C26067   9.051   5.612  10.035  0.1265  0.3089 -0.2961
  198MOL0     C26068   9.112   5.715  10.009  0.1110 -0.5432 -0.6333
  198MOL0     C26069   8.286   5.421  10.326 -0.3553 -0.0168  1.1719
  198MOL0     C26070   8.189   5.461  10.413 -0.5594  0.7544  0.5231
  198MOL0     H26071   8.158   5.522  10.911 -1.1311 -2.2585 -1.8435
  198MOL0     H26072   8.007   5.499  11.087  0.3913 -0.8238 -2.3695
  198MOL0     H26073   7.883   5.646  11.289 -0.9442  0.0947  0.8551
  198MOL0     H26074   7.791   5.496  11.243  1.4299  0.1641  2.5941
  198MOL0     H26075   7.693   5.770  11.348 -0.0115 -0.1267 -1.5009
  198MOL0     H26076   7.679   5.621  11.432 -5.0237 -0.9435  0.3435
  198MOL0     H26077   7.543   5.519  11.281  4.0885 -0.1651  3.8801
  198MOL0     H26078   7.553   5.656  11.166  0.9206 -0.9759 -0.6186
  198MOL0     H26079   7.461   5.788  11.374 -2.1061  1.9991 -2.2979
  198MOL0     H26080   7.341   5.687  11.287 -1.0534  0.1455  0.9846
  198MOL0     H26081   7.482   5.606  11.561 -1.5141 -0.9153  1.3145
  198MOL0     H26082   7.399   5.494  11.454  3.7039 -0.3062  0.5517
  198MOL0     H26083   7.273   5.605  11.647  2.0159 -0.2797  0.5880
  198MOL0     H26084   7.193   5.636  11.483  0.6103  2.2880 -1.9907
  198MOL0     H26085   7.377   5.837  11.596 -0.0847 -1.2737  2.2734
  198MOL0     H26086   7.232   5.856  11.496 -0.4578 -0.7775 -0.1692
  198MOL0     H26087   7.198   5.956  11.710 -3.2425  0.0914  3.6719
  198MOL0     H26088   7.294   5.835  11.782 -0.7640  1.9718  1.3272
  198MOL0     H26089   6.976   5.771  11.569  0.3013  1.5412 -0.2415
  198MOL0     H26090   6.813   5.496  11.691 -4.3344 -0.0200  0.6911
  198MOL0     H26091   6.779   5.637  11.582  0.2521  3.5071  0.7117
  198MOL0     H26092   6.698   5.581  11.874 -0.4494 -1.3213  0.1197
  198MOL0     H26093   6.582   5.585  11.734  0.0061  0.9788  0.3504
  198MOL0     H26094   6.711   5.830  11.851 -1.3449 -1.1673  1.5538
  198MOL0     H26095   6.639   5.819  11.683  0.1661  0.6914  0.8374
  198MOL0     H26096   6.480   5.893  11.861  3.5779  0.3913  0.4656
  198MOL0     H26097   6.481   5.717  11.917 -0.6053 -0.9636 -0.5614
  198MOL0     H26098   6.257   5.817  11.934  1.2902  1.7715 -1.4101
  198MOL0     H26099   5.986   5.771  11.935  0.4284 -2.5783  1.9175
  198MOL0     H26100   5.699   5.632  11.395  0.1665 -0.3647 -0.0086
  198MOL0     H26101   5.516   5.502  11.319  4.1237 -2.5742 -0.9040
  198MOL0     H26102   5.313   5.418  11.355 -0.2661 -0.7400 -0.7465
  198MOL0     H26103   5.198   5.393  11.492 -3.1603 -4.2850 -0.1129
  198MOL0     H26104   5.308   5.183  11.299  0.4323 -1.1059  2.0551
  198MOL0     H26105   5.153   5.283  11.287 -2.0732  0.8619  3.1916
  198MOL0     H26106   5.235   5.060  11.477  1.9439  1.1556 -2.5642
  198MOL0     H26107   5.115   5.059  11.364  3.1856 -0.8951 -1.2707
  198MOL0     H26108   5.126   5.196  11.633 -0.2311  0.8080  1.5104
  198MOL0     H26109   4.993   5.245  11.525  1.6962  0.5601 -1.0133
  198MOL0     H26110   5.001   4.982  11.677 -1.5736 -2.0572 -0.8187
  198MOL0     H26111   4.953   4.973  11.514  0.3376 -0.0287 -0.3235
  198MOL0     H26112   4.832   5.188  11.695  3.3532  0.9087 -0.9506
  198MOL0     H26113   4.766   5.024  11.670 -0.4064 -0.1137  0.0876
  198MOL0     H26114   4.808   5.196  11.429  1.2302 -0.2254  0.6175
  198MOL0     H26115   4.698   5.054  11.459  0.9292 -1.3599  0.5859
  198MOL0     H26116   4.689   5.331  11.564  2.0128 -1.1547  1.5990
  198MOL0     H26117   4.569   5.210  11.620 -1.4696 -0.6167 -0.3498
  198MOL0     H26118   5.490   5.325  11.725 -1.1161 -0.1159 -0.0921
  198MOL0     H26119   5.676   5.462  11.782 -2.3802  2.5041  1.4129
  198MOL0     H26120   6.027   5.629  11.536 -0.4715  1.4534 -0.0176
  198MOL0     H26121   6.257   5.657  11.535 -1.1361 -4.3693  0.7432
  198MOL0     H26122   7.756   5.810  10.907  1.3088  1.9970  0.7494
  198MOL0     H26123   7.934   5.837  10.738  0.5065 -2.8298 -1.9814
  198MOL0     H26124   8.375   5.626  10.640 -2.4953  0.4823  0.8375
  198MOL0     H26125   8.554   5.566  10.478 -1.1562  2.3704  0.3098
  198MOL0     H26126   8.680   5.453  10.358 -0.3218  3.9432  0.9789
  198MOL0     H26127   8.638   5.574  10.243  1.1537  0.4012 -1.1166
  198MOL0     H26128   8.758   5.321  10.176 -4.0080 -0.6905  2.2455
  198MOL0     H26129   8.670   5.409  10.042  3.1528  1.0564 -2.5303
  198MOL0     H26130   8.852   5.577  10.214 -0.8359 -1.2213  0.7993
  198MOL0     H26131   8.787   5.624  10.071  2.7036  0.7439 -2.9956
  198MOL0     H26132   9.015   5.417  10.104 -0.6390 -0.1638 -0.1994
  198MOL0     H26133   8.937   5.456   9.944 -0.0938  2.2397 -0.9969
  198MOL0     H26134   9.159   5.809   9.985  0.1653 -0.6729 -1.0378
  198MOL0     H26135   8.250   5.363  10.241  2.7506  0.1103 -0.3684
  198MOL0     H26136   8.085   5.437  10.396  0.1029 -2.3780  0.3520
  199MOL0     O26137   8.381  10.334   8.162 -0.1527  0.6223 -0.4481
  199MOL0     C26138   8.315  10.308   8.064  0.0327 -0.4972  0.3497
  199MOL0     O26139   8.356  10.234   7.947  0.5244  0.7947 -0.3582
  199MOL0     C26140   8.471  10.150   7.959  0.9405  0.1356  0.3856
  199MOL0     C26141   8.545  10.145   7.847 -0.5706  0.6187  0.3284
  199MOL0     C26142   8.645  10.052   7.848  0.1090  1.3338 -0.8952
  199MOL0     C26143   8.684   9.976   7.959  0.1055  0.6289 -0.1503
  199MOL0     O26144   8.786   9.877   7.969 -0.3714  0.0700 -0.8245
  199MOL0     C26145   8.880   9.863   7.855  0.7474 -0.6808 -0.2967
  199MOL0     C26146   9.002   9.941   7.887 -0.5822  0.3221 -0.8757
  199MOL0     C26147   9.088   9.868   7.996  0.0851 -0.4476 -1.0368
  199MOL0     C26148   9.220   9.938   8.018 -0.4495 -0.2058 -0.1145
  199MOL0     C26149   9.307   9.857   8.116  0.3585  0.5060  0.7842
  199MOL0     C26150   9.377   9.944   8.220  0.4856  0.0066  0.5593
  199MOL0     C26151   9.467  10.046   8.148 -0.1853  1.1614 -0.3822
  199MOL0     C26152   9.554  10.105   8.253  0.6053 -0.0331 -0.1623
  199MOL0     N26153   9.568  10.247   8.229  0.4144 -0.6683 -0.1376
  199MOL0     C26154   9.685  10.322   8.222  0.7959 -0.4178 -0.3170
  199MOL0     C26155   9.633  10.456   8.218  0.1861  0.7371 -0.2206
  199MOL0     C26156   9.713  10.576   8.195  0.0026 -1.2290 -0.3497
  199MOL0     C26157   9.815  10.575   8.080  0.7360  0.0983  0.5521
  199MOL0     C26158   9.902  10.706   8.050 -0.1635  0.7426  0.4431
  199MOL0     C26159  10.005  10.677   7.930  0.4792  0.0011  0.2913
  199MOL0     O26160  10.059  10.809   7.891 -0.3950  0.4964 -0.0029
  199MOL0     C26161  10.200  10.803   7.916 -0.0021 -0.6585  0.0926
  199MOL0     C26162  10.288  10.779   7.808 -0.9278  0.8493  0.5058
  199MOL0     C26163  10.431  10.779   7.826 -0.9635 -0.3007 -0.0768
  199MOL0     C26164  10.480  10.823   7.947 -1.0148  0.6999 -1.0750
  199MOL0     C26165  10.620  10.828   7.969  0.6285  1.0253  0.2955
  199MOL0     O26166  10.702  10.741   7.906 -0.5462 -0.3783 -0.6379
  199MOL0     C26167  10.830  10.718   7.956 -0.8039  0.2055  0.4179
  199MOL0     C26168  10.886  10.589   7.952 -0.5297 -0.4324  0.7750
  199MOL0     C26169  11.014  10.561   7.994  0.8112 -0.4110  0.3512
  199MOL0     C26170  11.100  10.666   8.016  0.4144  0.2173  0.1066
  199MOL0     O26171  11.227  10.646   8.052  0.0394 -0.3411  0.5031
  199MOL0     C26172  11.318  10.692   7.949  0.0806  0.2860 -0.5627
  199MOL0     C26173  11.445  10.617   7.978 -1.3355 -0.0449  0.3012
  199MOL0     C26174  11.437  10.460   7.976  0.5541 -0.3698  0.3378
  199MOL0     C26175  11.581  10.406   7.958  0.1941 -0.3190 -1.0915
  199MOL0     C26176  11.566  10.251   7.936  0.6206 -0.0437 -0.5147
  199MOL0     C26177  11.690  10.177   7.990  0.0800 -0.7975  0.4564
  199MOL0     C26178  11.822  10.230   7.936 -0.0855  0.2581 -0.2545
  199MOL0     C26179  11.934  10.162   8.023 -0.1823  0.6166  0.5722
  199MOL0    Cl26180  11.940  10.231   8.189 -0.0692 -0.1009 -0.1219
  199MOL0     C26181  11.055  10.795   8.016 -0.3934  0.7322 -0.3883
  199MOL0     C26182  10.918  10.820   7.988 -0.6393 -1.1241  0.7962
  199MOL0     O26183  10.652  10.916   8.044  0.3867  0.3989 -0.3713
  199MOL0     C26184  10.395  10.844   8.059 -0.6842  0.3461  0.6298
  199MOL0     C26185  10.258  10.825   8.041 -0.2092  0.9184  1.5791
  199MOL0     N26186   9.494  10.454   8.236 -0.1467 -0.3988 -0.1036
  199MOL0     N26187   9.461  10.325   8.240  0.0424 -0.1186 -0.0375
  199MOL0     C26188   8.602   9.982   8.073  0.2234  0.3822 -0.6379
  199MOL0     C26189   8.492  10.073   8.066  0.2872  0.1119  0.5235
  199MOL0     C26190   8.171  10.368   8.067 -0.1176 -0.1770 -0.8909
  199MOL0     C26191   8.116  10.421   8.183  0.1528 -0.5024 -0.0550
  199MOL0     C26192   7.984  10.477   8.177 -0.0850 -0.6198  0.0586
  199MOL0     C26193   7.909  10.485   8.059 -0.8067  0.8442  0.4571
  199MOL0     O26194   7.779  10.530   8.069 -0.1704  0.2319 -0.6925
  199MOL0     C26195   7.710  10.571   7.947 -0.4229 -0.2607  0.3964
  199MOL0     C26196   7.593  10.664   7.984 -0.3072  0.4336  0.5361
  199MOL0     C26197   7.468  10.583   8.043 -0.7631 -0.8196  0.5352
  199MOL0     C26198   7.371  10.696   8.090  0.4895  0.3351  0.3084
  199MOL0     C26199   7.255  10.640   8.157 -0.1243  0.0301  0.4825
  199MOL0     C26200   7.153  10.604   8.208  0.8324  0.3383 -1.1888
  199MOL0     C26201   7.969  10.422   7.947  0.5821 -0.9558 -0.1768
  199MOL0     C26202   8.098  10.375   7.950  0.3154  0.0093 -0.2551
  199MOL0     H26203   8.530  10.189   7.748  1.2989 -1.8012 -1.1383
  199MOL0     H26204   8.684  10.037   7.748  1.2580  0.0330 -0.2856
  199MOL0     H26205   8.838   9.912   7.766  0.9300  0.7051  0.3532
  199MOL0     H26206   8.909   9.758   7.841  2.2198 -0.5967  1.6677
  199MOL0     H26207   8.959  10.029   7.935  1.2008 -0.6662  2.9202
  199MOL0     H26208   9.060   9.970   7.798  2.1342 -1.4738  0.1691
  199MOL0     H26209   9.096   9.764   7.962  0.4162 -0.8461  0.2066
  199MOL0     H26210   9.040   9.850   8.093  1.3186 -0.1545 -0.3510
  199MOL0     H26211   9.274   9.941   7.924 -0.6587 -2.0193 -0.3331
  199MOL0     H26212   9.203  10.036   8.065  1.5080  1.1043 -1.9567
  199MOL0     H26213   9.379   9.807   8.051 -0.1750  2.1076 -1.1538
  199MOL0     H26214   9.251   9.784   8.174  0.3938 -1.0984 -1.1017
  199MOL0     H26215   9.443   9.867   8.261  0.5317 -0.8716 -1.0933
  199MOL0     H26216   9.306   9.993   8.287  2.1855  2.2192  0.8827
  199MOL0     H26217   9.529   9.992   8.077 -0.7017  2.8619 -2.2153
  199MOL0     H26218   9.417  10.123   8.088  1.6783  0.9360 -2.3457
  199MOL0     H26219   9.649  10.051   8.246 -0.0925 -1.3039 -0.1583
  199MOL0     H26220   9.509  10.091   8.352  0.2116  0.7735 -0.2200
  199MOL0     H26221   9.792  10.302   8.214  0.7610 -0.4242 -0.7965
  199MOL0     H26222   9.776  10.597   8.282 -0.7973 -0.2039  0.0030
  199MOL0     H26223   9.640  10.655   8.177 -0.6096 -1.6391  0.3023
  199MOL0     H26224   9.758  10.535   7.996  1.5188  0.6664 -0.2767
  199MOL0     H26225   9.886  10.492   8.087 -2.0404 -2.6319 -1.1860
  199MOL0     H26226   9.835  10.786   8.018 -0.8171  0.2021  0.4364
  199MOL0     H26227   9.960  10.741   8.136  0.5625  0.0542  0.2488
  199MOL0     H26228   9.952  10.643   7.841  2.8373  1.9291 -1.9973
  199MOL0     H26229  10.076  10.601   7.964  1.9400  2.0575  2.1665
  199MOL0     H26230  10.241  10.763   7.712 -1.3181 -1.1925  0.9885
  199MOL0     H26231  10.482  10.745   7.736 -0.8355 -1.3928  0.3952
  199MOL0     H26232  10.829  10.507   7.911 -1.1468  0.9539 -1.3334
  199MOL0     H26233  11.043  10.457   7.985 -3.0044 -1.4152 -2.7372
  199MOL0     H26234  11.318  10.800   7.933 -4.8865  0.4685 -0.7062
  199MOL0     H26235  11.302  10.659   7.845 -3.0230 -2.2392  0.5637
  199MOL0     H26236  11.501  10.639   8.069  1.4744  0.4671 -1.3939
  199MOL0     H26237  11.525  10.641   7.906 -0.1591  0.3051  1.6793
  199MOL0     H26238  11.388  10.428   7.883 -1.5894 -0.2298  1.3654
  199MOL0     H26239  11.379  10.418   8.058  2.7257 -1.8836  1.2009
  199MOL0     H26240  11.643  10.453   7.881  2.2647  4.1461  2.7936
  199MOL0     H26241  11.623  10.435   8.055 -0.6188 -0.2223 -0.7655
  199MOL0     H26242  11.556  10.241   7.828  1.1202  1.9499 -0.7750
  199MOL0     H26243  11.480  10.199   7.980 -1.5319  0.5562 -3.6591
  199MOL0     H26244  11.690  10.070   7.966 -1.7181 -0.8010  0.3097
  199MOL0     H26245  11.695  10.178   8.100  4.0262 -0.2902  0.3983
  199MOL0     H26246  11.832  10.199   7.831  1.2967  0.0918 -0.0888
  199MOL0     H26247  11.835  10.337   7.955  3.2612 -0.0214 -0.4245
  199MOL0     H26248  12.028  10.192   7.975 -0.5966 -0.6432 -1.1111
  199MOL0     H26249  11.937  10.053   8.021  1.9904  0.6147  1.1335
  199MOL0     H26250  11.125  10.875   8.037 -0.5944  1.2668 -1.6777
  199MOL0     H26251  10.913  10.928   7.977  2.8617 -0.9537 -0.2099
  199MOL0     H26252  10.442  10.878   8.151  3.2228 -1.5837 -0.4042
  199MOL0     H26253  10.188  10.830   8.124 -1.1167 -0.0657  0.9008
  199MOL0     H26254   8.628   9.917   8.156 -0.9487  1.7237  0.8394
  199MOL0     H26255   8.428  10.077   8.154  2.8350 -0.4920  2.5316
  199MOL0     H26256   8.172  10.424   8.275 -0.1462 -0.5944  0.1299
  199MOL0     H26257   7.946  10.518   8.270  3.5469 -0.3094  1.5828
  199MOL0     H26258   7.664  10.485   7.898  0.6230  0.4617 -2.0042
  199MOL0     H26259   7.777  10.613   7.872 -0.9332  2.3482  1.2933
  199MOL0     H26260   7.619  10.731   8.066 -2.0710  0.6158  0.9747
  199MOL0     H26261   7.557  10.729   7.904 -0.3030  1.2952  1.2258
  199MOL0     H26262   7.498  10.517   8.125  0.6528 -2.2208 -1.0192
  199MOL0     H26263   7.411  10.528   7.967 -4.2846  2.0792  0.8316
  199MOL0     H26264   7.423  10.762   8.159  4.1046 -2.9557  1.0381
  199MOL0     H26265   7.331  10.749   8.002  0.3441 -0.9802 -0.4506
  199MOL0     H26266   7.067  10.576   8.264 -0.1876  0.9326 -2.4015
  199MOL0     H26267   7.904  10.420   7.860  0.7195  0.6441 -0.3409
  199MOL0     H26268   8.132  10.325   7.861 -0.2104 -0.5195 -0.1661
  200MOL0     O26269   1.596   5.906   6.822  0.1635  0.0285  0.3139
  200MOL0     C26270   1.615   5.816   6.746 -0.9205 -0.0317 -0.7448
  200MOL0     O26271   1.723   5.814   6.659  0.2982 -0.1115 -0.2398
  200MOL0     C26272   1.851   5.848   6.703 -0.0742  0.7311  0.0170
  200MOL0     C26273   1.889   5.860   6.832 -0.2750  0.3800 -0.4377
  200MOL0     C26274   2.027   5.882   6.847 -0.7159 -0.2354 -0.6441
  200MOL0     C26275   2.113   5.920   6.745 -0.7404  0.4723  0.4914
  200MOL0     O26276   2.247   5.929   6.779  0.0762  0.0760  0.4176
  200MOL0     C26277   2.317   6.030   6.710 -0.0513 -0.2204 -0.7970
  200MOL0     C26278   2.453   6.071   6.763 -0.9997  0.0698 -0.0648
  200MOL0     C26279   2.542   5.947   6.797 -0.5638 -0.2680  0.0737
  200MOL0     C26280   2.679   5.982   6.857 -0.6958 -0.2111 -0.1660
  200MOL0     C26281   2.758   5.876   6.930 -0.2297 -0.6042 -0.0068
  200MOL0     C26282   2.767   5.744   6.856 -0.4174  0.3604  0.1800
  200MOL0     C26283   2.846   5.760   6.728 -0.2049 -0.0532 -0.3012
  200MOL0     C26284   2.988   5.800   6.757 -0.1919  0.4930  0.7589
  200MOL0     N26285   3.065   5.799   6.629 -0.3622  0.3436  0.1608
  200MOL0     C26286   3.067   5.884   6.528  0.6367  1.0152 -0.1397
  200MOL0     C26287   3.181   5.862   6.462  0.2146 -0.0910  0.7107
  200MOL0     C26288   3.232   5.939   6.341  0.4748 -0.2096 -0.3248
  200MOL0     C26289   3.129   5.903   6.234  0.0134 -0.3183 -0.9680
  200MOL0     C26290   3.134   5.992   6.114  0.0674  0.6193 -0.1449
  200MOL0     C26291   3.026   5.961   6.010 -0.3945  0.0343  0.3409
  200MOL0     O26292   2.995   5.819   5.996 -0.3380 -0.2915 -0.4565
  200MOL0     C26293   2.873   5.796   5.938  1.0250 -0.9492 -0.0938
  200MOL0     C26294   2.826   5.664   5.949 -0.1588  1.2034  0.0457
  200MOL0     C26295   2.705   5.624   5.889  0.0158 -0.5008 -0.0111
  200MOL0     C26296   2.616   5.729   5.831 -0.8298 -0.5515 -0.2152
  200MOL0     C26297   2.483   5.687   5.778  0.5456 -0.3775  0.5045
  200MOL0     O26298   2.402   5.793   5.726  0.3306 -0.1581 -0.9385
  200MOL0     C26299   2.280   5.768   5.665 -0.3152  0.0929  0.1839
  200MOL0     C26300   2.228   5.877   5.600  1.1418  0.5206  0.9921
  200MOL0     C26301   2.098   5.858   5.531  0.1820  0.2954 -0.3045
  200MOL0     C26302   2.028   5.736   5.535  0.1469  0.6474 -0.4430
  200MOL0     O26303   1.911   5.732   5.465 -0.4629  0.1477 -0.3374
  200MOL0     C26304   1.821   5.616   5.476  0.7933 -0.0994 -0.6236
  200MOL0     C26305   1.702   5.630   5.377  0.4508  0.3104  0.2467
  200MOL0     C26306   1.767   5.666   5.238  0.2544 -0.1432 -0.6143
  200MOL0     C26307   1.664   5.633   5.122 -0.2301 -0.4758 -0.4038
  200MOL0     C26308   1.693   5.669   4.973 -0.5996 -0.4318  0.2530
  200MOL0     C26309   1.733   5.810   4.946 -0.7255 -1.1556 -0.0429
  200MOL0     C26310   1.605   5.900   4.948 -0.8868 -0.0669 -0.7358
  200MOL0     C26311   1.635   6.049   4.937  0.0297 -0.4996  0.9587
  200MOL0    Cl26312   1.476   6.129   4.891 -0.2211  0.1528  0.3397
  200MOL0     C26313   2.071   5.634   5.623 -0.1610  0.7752 -0.5379
  200MOL0     C26314   2.197   5.648   5.684 -0.1871 -0.0454 -0.0960
  200MOL0     O26315   2.465   5.563   5.755 -0.6188  0.1779 -0.0270
  200MOL0     C26316   2.674   5.856   5.819  0.0861  0.2251  0.5403
  200MOL0     C26317   2.798   5.889   5.858 -0.2046 -0.4131 -0.0942
  200MOL0     N26318   3.244   5.758   6.518  0.0672 -0.0803 -1.0777
  200MOL0     N26319   3.176   5.726   6.619  0.6473  0.2791  0.1009
  200MOL0     C26320   2.062   5.909   6.618 -0.6192 -0.6347  0.4038
  200MOL0     C26321   1.928   5.882   6.598 -0.0860  0.1402 -0.7082
  200MOL0     C26322   1.509   5.727   6.727 -0.6373  0.3995  0.5524
  200MOL0     C26323   1.367   5.761   6.734 -0.9711  1.5378 -0.5941
  200MOL0     C26324   1.273   5.663   6.716 -0.0158 -0.2445  0.3197
  200MOL0     C26325   1.315   5.535   6.670  0.1646  0.1992 -0.3767
  200MOL0     O26326   1.228   5.422   6.646 -0.4216  0.6972  0.6708
  200MOL0     C26327   1.085   5.437   6.627  0.6112 -0.7220  0.4150
  200MOL0     C26328   1.025   5.308   6.682  0.0051 -0.3758  0.2755
  200MOL0     C26329   0.870   5.283   6.660  0.3105  0.1418 -0.0365
  200MOL0     C26330   0.768   5.393   6.677 -0.0126 -0.9830 -0.5377
  200MOL0     C26331   0.783   5.425   6.823 -0.2161 -0.2842 -1.1608
  200MOL0     C26332   0.802   5.454   6.941 -0.5699 -0.4177 -0.0953
  200MOL0     C26333   1.447   5.498   6.655 -0.6955 -0.3352  0.0130
  200MOL0     C26334   1.547   5.599   6.680 -0.5916  0.3367 -0.9297
  200MOL0     H26335   1.824   5.845   6.918  1.1537 -0.8999  0.4659
  200MOL0     H26336   2.074   5.884   6.944  1.2246 -2.1916 -1.4499
  200MOL0     H26337   2.250   6.117   6.706  0.6673  0.7605  3.6245
  200MOL0     H26338   2.336   5.989   6.610 -2.3762 -2.2226 -0.5042
  200MOL0     H26339   2.444   6.136   6.851  0.6970 -0.7574  0.7609
  200MOL0     H26340   2.500   6.139   6.691 -1.9099 -0.6336 -1.3722
  200MOL0     H26341   2.573   5.886   6.712 -1.2253 -4.3933  2.4611
  200MOL0     H26342   2.479   5.884   6.862 -2.7132  0.5809 -1.0788
  200MOL0     H26343   2.729   6.032   6.774 -0.4500  2.3795  1.4184
  200MOL0     H26344   2.658   6.068   6.921 -0.6828  0.0482 -0.5090
  200MOL0     H26345   2.710   5.852   7.025  1.5782 -1.3514  0.7759
  200MOL0     H26346   2.861   5.907   6.953  0.0742 -1.9313  0.5198
  200MOL0     H26347   2.664   5.711   6.842 -1.3682  2.9539  0.4568
  200MOL0     H26348   2.813   5.668   6.918  0.5171 -1.6076 -2.7040
  200MOL0     H26349   2.841   5.662   6.681 -2.6137 -0.3914  0.4909
  200MOL0     H26350   2.796   5.834   6.665 -1.7273 -1.4690 -0.8119
  200MOL0     H26351   3.032   5.723   6.821 -0.1379 -0.5521 -0.5033
  200MOL0     H26352   2.996   5.902   6.796 -1.5818  1.1281 -0.5213
  200MOL0     H26353   3.007   5.973   6.508 -1.4225  0.2419  2.0075
  200MOL0     H26354   3.334   5.904   6.319  2.1474  1.0104  4.3078
  200MOL0     H26355   3.234   6.045   6.369  0.1194  0.8194 -3.7452
  200MOL0     H26356   3.029   5.905   6.278  0.1401 -2.8466 -0.4420
  200MOL0     H26357   3.134   5.799   6.202 -1.5937 -0.9547  0.7398
  200MOL0     H26358   3.125   6.094   6.153 -0.7520  0.0717  1.1734
  200MOL0     H26359   3.230   5.976   6.064  0.5019  4.5436 -0.8506
  200MOL0     H26360   3.075   5.995   5.918 -0.7916 -0.7723 -0.1886
  200MOL0     H26361   2.938   6.022   6.032 -0.2182  1.7607 -3.0445
  200MOL0     H26362   2.884   5.591   6.005  1.0506 -0.1648 -2.8350
  200MOL0     H26363   2.674   5.521   5.901  2.5461 -1.1993  1.2647
  200MOL0     H26364   2.288   5.967   5.601  0.6284  0.8918  3.1797
  200MOL0     H26365   2.077   5.926   5.449 -0.3464  1.1155  0.4826
  200MOL0     H26366   1.793   5.605   5.581  0.6889  0.3704 -0.6009
  200MOL0     H26367   1.862   5.518   5.448  0.3453 -0.2537 -0.7457
  200MOL0     H26368   1.628   5.707   5.399  2.5868  3.1293 -1.6001
  200MOL0     H26369   1.658   5.530   5.367 -0.6982  0.9760 -1.9369
  200MOL0     H26370   1.851   5.599   5.216  1.2477  1.8715 -3.3664
  200MOL0     H26371   1.803   5.769   5.240  0.8002 -0.3373  0.4709
  200MOL0     H26372   1.672   5.524   5.131  2.5481 -0.6882 -3.6689
  200MOL0     H26373   1.561   5.664   5.145 -0.1637 -0.4281 -0.1612
  200MOL0     H26374   1.610   5.646   4.905 -0.1369 -2.3825  0.2986
  200MOL0     H26375   1.779   5.611   4.939 -0.4498 -1.2185  1.8682
  200MOL0     H26376   1.781   5.808   4.847  0.2459 -0.8763  0.4056
  200MOL0     H26377   1.811   5.846   5.014 -1.9066  2.5291 -0.4259
  200MOL0     H26378   1.535   5.875   4.867 -2.0175 -1.7524  0.6916
  200MOL0     H26379   1.557   5.892   5.046  1.8700  2.2679  0.9335
  200MOL0     H26380   1.714   6.058   4.862 -0.5577 -1.1438  0.2488
  200MOL0     H26381   1.675   6.084   5.033  1.3416  1.1950 -0.1636
  200MOL0     H26382   2.010   5.544   5.630  2.7970 -1.3437 -0.4764
  200MOL0     H26383   2.241   5.564   5.737 -1.6977 -0.9749 -0.2662
  200MOL0     H26384   2.621   5.923   5.751 -0.4109 -0.0315  0.6684
  200MOL0     H26385   2.841   5.983   5.826  2.3847 -2.1688 -2.2648
  200MOL0     H26386   2.126   5.921   6.531 -1.4482 -0.5240 -0.2023
  200MOL0     H26387   1.888   5.874   6.498 -0.1316 -1.1444 -0.6041
  200MOL0     H26388   1.333   5.860   6.764  2.3470  2.8036 -0.6240
  200MOL0     H26389   1.169   5.684   6.739  0.0892  1.5820 -0.6591
  200MOL0     H26390   1.063   5.456   6.521 -0.3898  1.0814  0.9042
  200MOL0     H26391   1.046   5.510   6.698 -2.5318 -1.0124 -0.8614
  200MOL0     H26392   1.070   5.216   6.642 -2.3638 -0.6190 -2.1658
  200MOL0     H26393   1.039   5.302   6.790 -4.7222 -4.7373  0.9963
  200MOL0     H26394   0.840   5.200   6.725 -1.5717  0.6006 -0.2707
  200MOL0     H26395   0.862   5.247   6.557 -1.5438 -1.4806  0.6219
  200MOL0     H26396   0.778   5.479   6.610  3.5624 -2.7327 -2.5438
  200MOL0     H26397   0.669   5.348   6.670  0.2320 -2.0539  1.8278
  200MOL0     H26398   0.828   5.483   7.041 -1.3517 -1.4601  0.4256
  200MOL0     H26399   1.471   5.397   6.625 -1.5603 -1.5038  2.9260
  200MOL0     H26400   1.650   5.574   6.657 -1.1810 -2.4172 -0.9053
  201MOL0     O26401   6.596   6.945   3.611 -1.2745 -0.5924  0.1054
  201MOL0     C26402   6.671   7.037   3.650  0.4833  0.1730 -0.3354
  201MOL0     O26403   6.629   7.129   3.747  0.6152 -0.1145  0.0695
  201MOL0     C26404   6.494   7.122   3.784 -0.5034 -0.9384  0.8283
  201MOL0     C26405   6.390   7.122   3.685 -0.0334  0.4125 -0.4550
  201MOL0     C26406   6.254   7.120   3.720 -0.0987  0.1930  0.7972
  201MOL0     C26407   6.206   7.132   3.852 -0.1830  0.1279 -0.1788
  201MOL0     O26408   6.070   7.147   3.869 -0.1059  0.3737  0.0420
  201MOL0     C26409   6.018   7.169   3.997  0.4928  0.2889  0.0527
  201MOL0     C26410   5.875   7.226   3.993 -0.7739  0.0971  0.8380
  201MOL0     C26411   5.772   7.144   3.906  1.1983 -0.1604 -0.9452
  201MOL0     C26412   5.625   7.198   3.904 -0.2674  0.2150 -0.1962
  201MOL0     C26413   5.531   7.168   3.783 -0.5493  0.4099 -0.7034
  201MOL0     C26414   5.386   7.180   3.836  0.6453  0.4004 -0.2045
  201MOL0     C26415   5.279   7.183   3.728 -0.0298 -0.2924  0.4658
  201MOL0     C26416   5.278   7.298   3.624 -0.4008 -0.9472 -0.6709
  201MOL0     N26417   5.291   7.439   3.669  1.7466 -0.6537 -0.2746
  201MOL0     C26418   5.209   7.488   3.771 -0.4613  0.5274 -0.3202
  201MOL0     C26419   5.263   7.605   3.808  0.5365  0.2504 -0.1546
  201MOL0     C26420   5.232   7.696   3.923  0.3583  0.3393  0.6106
  201MOL0     C26421   5.269   7.618   4.046 -0.1357  0.0436 -0.2009
  201MOL0     C26422   5.234   7.686   4.180  0.5109 -0.2233  0.2463
  201MOL0     C26423   5.318   7.813   4.206 -0.6810 -0.9383 -1.1780
  201MOL0     O26424   5.320   7.832   4.354 -0.0996 -0.4663  0.6955
  201MOL0     C26425   5.403   7.756   4.428  0.0736  0.8044  0.7585
  201MOL0     C26426   5.348   7.650   4.503  0.4617  0.5411 -0.0807
  201MOL0     C26427   5.422   7.559   4.571 -0.1424 -0.5055 -0.9087
  201MOL0     C26428   5.559   7.575   4.574 -0.2881 -0.4119 -0.0691
  201MOL0     C26429   5.645   7.478   4.647  0.1084  0.0178 -0.0592
  201MOL0     O26430   5.784   7.492   4.645  0.9925  0.3133  0.6978
  201MOL0     C26431   5.865   7.402   4.712  0.7731  0.4108 -0.0074
  201MOL0     C26432   5.972   7.350   4.642  0.5644  0.2874 -0.2488
  201MOL0     C26433   6.064   7.255   4.695 -0.7465  0.3857 -0.5397
  201MOL0     C26434   6.056   7.229   4.834  0.9706  0.1667  0.8675
  201MOL0     O26435   6.146   7.159   4.904 -0.0607  0.0114 -0.0120
  201MOL0     C26436   6.239   7.075   4.841  0.3568 -0.0703  0.3924
  201MOL0     C26437   6.374   7.156   4.832  0.0728 -0.1805  0.5438
  201MOL0     C26438   6.470   7.094   4.736 -0.1422 -0.0139  0.5183
  201MOL0     C26439   6.526   6.957   4.795 -0.2535 -0.5415 -0.0759
  201MOL0     C26440   6.637   6.902   4.707  0.1545  0.5708  0.4390
  201MOL0     C26441   6.698   6.773   4.765  0.8086 -0.1785 -0.0953
  201MOL0     C26442   6.804   6.706   4.684 -0.5922  0.0730 -1.0631
  201MOL0     C26443   6.872   6.596   4.750 -0.3340  0.4106 -0.0214
  201MOL0    Cl26444   6.954   6.666   4.883 -0.2508  0.1292  0.2244
  201MOL0     C26445   5.936   7.268   4.908 -0.3566  0.9077 -0.4606
  201MOL0     C26446   5.840   7.347   4.839  0.1368 -0.0481 -0.9436
  201MOL0     O26447   5.590   7.372   4.681 -0.1802 -0.0737 -0.0486
  201MOL0     C26448   5.625   7.670   4.504  0.2591  0.1986 -0.4400
  201MOL0     C26449   5.544   7.760   4.428  1.4811 -0.1137  0.6722
  201MOL0     N26450   5.376   7.622   3.737 -0.5098 -0.2335 -0.5891
  201MOL0     N26451   5.381   7.540   3.642  0.6652 -0.2452  0.2370
  201MOL0     C26452   6.303   7.135   3.953 -0.4726  0.8097  0.1687
  201MOL0     C26453   6.444   7.123   3.915  1.0817 -0.5105 -0.0325
  201MOL0     C26454   6.807   7.047   3.590  0.5237 -0.1297  0.1534
  201MOL0     C26455   6.856   6.935   3.519  0.3778  0.5139  0.9157
  201MOL0     C26456   6.984   6.931   3.469  0.2202 -0.3853 -0.2617
  201MOL0     C26457   7.072   7.031   3.492 -0.4143  0.2582 -0.7534
  201MOL0     O26458   7.201   7.020   3.453 -0.0711 -0.5758 -0.4304
  201MOL0     C26459   7.285   7.138   3.453 -0.4272  0.5604  0.1635
  201MOL0     C26460   7.411   7.090   3.400 -0.8962  0.4708  1.2442
  201MOL0     C26461   7.485   7.002   3.500 -0.3623  0.8315 -0.2909
  201MOL0     C26462   7.639   6.999   3.493  0.2519  0.0456 -0.0033
  201MOL0     C26463   7.675   6.952   3.359 -1.0462 -0.1844 -0.2269
  201MOL0     C26464   7.685   6.904   3.248  0.5533 -0.1587  0.1810
  201MOL0     C26465   7.027   7.147   3.564 -0.1578  0.3371 -0.6306
  201MOL0     C26466   6.895   7.151   3.613 -0.2511  0.4059 -0.2386
  201MOL0     H26467   6.436   7.114   3.587  2.6793 -0.0837  0.7675
  201MOL0     H26468   6.184   7.103   3.639  1.3420 -2.3653  0.0137
  201MOL0     H26469   6.088   7.234   4.050  0.6822 -0.4300  0.6883
  201MOL0     H26470   6.018   7.070   4.042  0.8188  0.4852  0.4814
  201MOL0     H26471   5.883   7.329   3.958 -1.6897 -0.2478 -0.4600
  201MOL0     H26472   5.834   7.233   4.094  0.5902 -1.2534  1.5325
  201MOL0     H26473   5.773   7.047   3.955 -1.5912 -0.3745 -1.1147
  201MOL0     H26474   5.793   7.138   3.799 -0.5229  1.4049 -1.4395
  201MOL0     H26475   5.578   7.156   3.993  0.5746 -2.4854 -0.9344
  201MOL0     H26476   5.635   7.307   3.907  0.0490  0.1732  0.5720
  201MOL0     H26477   5.542   7.062   3.755 -1.6876  0.2272 -0.5091
  201MOL0     H26478   5.543   7.239   3.700  1.8826 -0.8525 -1.5530
  201MOL0     H26479   5.371   7.255   3.915 -4.6250 -1.2322  0.7592
  201MOL0     H26480   5.367   7.084   3.885 -0.3026  1.5654  1.8539
  201MOL0     H26481   5.280   7.083   3.684 -1.1413 -0.6166  1.1341
  201MOL0     H26482   5.180   7.194   3.774 -0.8349  3.3763 -1.7602
  201MOL0     H26483   5.181   7.307   3.574  1.2178  1.1384 -3.7733
  201MOL0     H26484   5.358   7.280   3.552  0.4135 -3.1413  0.6596
  201MOL0     H26485   5.119   7.442   3.809 -0.5332  1.9253  1.3013
  201MOL0     H26486   5.131   7.738   3.918 -0.8948 -2.3586  1.2598
  201MOL0     H26487   5.302   7.779   3.910  1.1084 -0.5323 -1.2933
  201MOL0     H26488   5.371   7.578   4.053 -1.1428 -2.5126  1.1138
  201MOL0     H26489   5.213   7.524   4.049  0.5260 -0.3387  1.8235
  201MOL0     H26490   5.127   7.704   4.192 -0.6490 -5.5041 -0.0583
  201MOL0     H26491   5.252   7.615   4.261  2.4576 -2.6456 -2.1692
  201MOL0     H26492   5.281   7.902   4.152 -0.5562 -0.7793 -1.0012
  201MOL0     H26493   5.419   7.791   4.171 -0.6555 -2.6455 -0.1020
  201MOL0     H26494   5.242   7.630   4.502  0.9014 -2.2025 -0.6456
  201MOL0     H26495   5.384   7.468   4.617  1.8709 -0.1814  1.6538
  201MOL0     H26496   5.972   7.377   4.537 -0.7867  0.2203 -0.2914
  201MOL0     H26497   6.152   7.216   4.644  0.7411  1.2117  1.2727
  201MOL0     H26498   6.206   7.036   4.745 -0.5101  1.0655  0.2161
  201MOL0     H26499   6.244   6.982   4.899 -1.8655 -0.7506 -0.4252
  201MOL0     H26500   6.407   7.164   4.935  0.5145  1.2511  0.3184
  201MOL0     H26501   6.345   7.255   4.795 -1.3328 -0.7633  0.0311
  201MOL0     H26502   6.552   7.166   4.724  0.7106 -1.0191  0.1693
  201MOL0     H26503   6.443   7.080   4.631  0.8926  0.6227  0.1441
  201MOL0     H26504   6.553   6.958   4.902 -1.3496 -1.9290  0.2398
  201MOL0     H26505   6.448   6.881   4.798 -0.7958 -0.1474 -2.4323
  201MOL0     H26506   6.716   6.978   4.715  0.8884 -0.2407  1.2474
  201MOL0     H26507   6.603   6.883   4.605 -1.3963  1.3552  0.7811
  201MOL0     H26508   6.616   6.703   4.778 -1.4440  1.9065 -2.0921
  201MOL0     H26509   6.735   6.781   4.868 -1.1255 -1.8403  0.7851
  201MOL0     H26510   6.765   6.681   4.585  1.6658  0.7693 -2.2109
  201MOL0     H26511   6.881   6.781   4.663 -0.6740  0.8542  1.1325
  201MOL0     H26512   6.944   6.545   4.685 -0.7621 -1.6868  1.0441
  201MOL0     H26513   6.807   6.515   4.785  0.9992 -0.1506  1.2207
  201MOL0     H26514   5.924   7.246   5.014  2.9059 -1.7820 -0.4697
  201MOL0     H26515   5.753   7.386   4.892 -0.4301 -0.6311 -1.4339
  201MOL0     H26516   5.733   7.682   4.498  0.2314  0.2164 -0.9136
  201MOL0     H26517   5.592   7.839   4.371  2.3340 -1.2977 -0.3080
  201MOL0     H26518   6.274   7.142   4.057  1.2519  1.2214  0.6537
  201MOL0     H26519   6.513   7.129   3.998 -0.7624  2.1022  1.4715
  201MOL0     H26520   6.792   6.851   3.493 -1.3801  1.7224  1.1930
  201MOL0     H26521   7.017   6.833   3.437 -1.1504 -2.0675  3.0589
  201MOL0     H26522   7.299   7.191   3.547  0.5352 -2.6166  1.9759
  201MOL0     H26523   7.243   7.221   3.395 -3.7541 -1.7123 -0.9822
  201MOL0     H26524   7.395   7.042   3.303 -2.6201  2.6331  0.3780
  201MOL0     H26525   7.472   7.180   3.389 -0.1204 -0.1930 -0.0991
  201MOL0     H26526   7.454   6.898   3.492  0.0869  0.8090 -1.9176
  201MOL0     H26527   7.458   7.030   3.603 -4.0258  2.9766 -1.6382
  201MOL0     H26528   7.663   7.103   3.518 -2.1231  0.6023  0.2257
  201MOL0     H26529   7.681   6.930   3.567 -0.4155 -1.0646 -0.6257
  201MOL0     H26530   7.708   6.850   3.158  0.4472  0.9892 -0.5445
  201MOL0     H26531   7.085   7.235   3.588 -0.2580 -0.1740  1.8433
  201MOL0     H26532   6.883   7.237   3.679  0.3351  0.6029 -0.3767
  202MOL0     O26533   7.456   0.298   3.249 -0.1659 -0.6096 -0.2572
  202MOL0     C26534   7.452   0.198   3.173 -0.2129 -1.8382  0.7800
  202MOL0     O26535   7.554   0.151   3.090 -0.2955 -0.1258  0.1634
  202MOL0     C26536   7.671   0.197   3.120  0.8756 -0.6458 -0.6339
  202MOL0     C26537   7.752   0.232   3.009 -0.8007  0.0018  0.4027
  202MOL0     C26538   7.885   0.270   3.020  0.8290 -0.3586 -0.2088
  202MOL0     C26539   7.938   0.266   3.149  0.0377 -0.4278 -0.4341
  202MOL0     O26540   8.061   0.312   3.169  0.1350  0.2978  0.7823
  202MOL0     C26541   8.081   0.448   3.167 -0.0170 -0.1870 -0.6336
  202MOL0     C26542   8.199   0.496   3.247  0.4626  1.6599  1.1019
  202MOL0     C26543   8.318   0.427   3.185 -0.1930 -0.5703  0.8086
  202MOL0     C26544   8.456   0.469   3.246 -0.0933 -0.4218 -0.8644
  202MOL0     C26545   8.495   0.622   3.246 -0.4520  0.1379  0.0752
  202MOL0     C26546   8.488   0.701   3.118  0.5400 -0.0061  0.1615
  202MOL0     C26547   8.594   0.662   3.017 -0.2588  0.0599 -0.3848
  202MOL0     C26548   8.580   0.712   2.875  0.2686 -0.7722 -0.1348
  202MOL0     N26549   8.460   0.674   2.813  0.3611 -0.6608 -0.8699
  202MOL0     C26550   8.423   0.542   2.786 -1.0189 -0.5407 -0.4096
  202MOL0     C26551   8.304   0.549   2.731  1.4572 -0.2892  0.2166
  202MOL0     C26552   8.217   0.433   2.699 -0.6606  0.7647  0.2266
  202MOL0     C26553   8.198   0.337   2.823 -0.5526  1.5095 -0.4146
  202MOL0     C26554   8.316   0.233   2.851  0.8205  1.0146 -0.2004
  202MOL0     C26555   8.272   0.126   2.958 -0.1258 -0.5054  0.0040
  202MOL0     O26556   8.185   0.037   2.890  0.5365 -0.2991  0.2808
  202MOL0     C26557   8.078  -0.013   2.966  0.0566  0.4690  0.0645
  202MOL0     C26558   8.106  -0.073   3.085 -0.1741  0.8680 -0.5041
  202MOL0     C26559   8.009  -0.143   3.163  0.8092 -0.7310  0.9584
  202MOL0     C26560   7.872  -0.135   3.129  0.3060 -0.3333  0.9273
  202MOL0     C26561   7.770  -0.206   3.202  1.2950  0.2908  0.2938
  202MOL0     O26562   7.646  -0.227   3.143  0.0252 -0.6475  0.3286
  202MOL0     C26563   7.546  -0.295   3.205  0.1955  0.6783  0.3851
  202MOL0     C26564   7.476  -0.405   3.147  0.4203  0.6961 -0.7519
  202MOL0     C26565   7.371  -0.467   3.217  0.1893 -0.2042  0.0412
  202MOL0     C26566   7.327  -0.418   3.344  0.1343 -0.0350  0.8708
  202MOL0     O26567   7.228  -0.481   3.403 -0.1565 -0.1039 -0.3539
  202MOL0     C26568   7.150  -0.435   3.514 -0.7918 -0.8528  0.7761
  202MOL0     C26569   7.017  -0.488   3.490  0.3706 -0.3032  0.3038
  202MOL0     C26570   6.914  -0.453   3.597 -0.3788  0.0545 -0.0503
  202MOL0     C26571   6.783  -0.509   3.551  0.3922  0.3061 -0.2486
  202MOL0     C26572   6.661  -0.457   3.626 -0.0868 -0.2906  0.2047
  202MOL0     C26573   6.682  -0.503   3.774 -0.2421 -0.4955 -0.0776
  202MOL0     C26574   6.553  -0.499   3.850 -0.0238  0.1392  0.2554
  202MOL0     C26575   6.572  -0.568   3.981  0.6522 -0.3811 -0.6553
  202MOL0    Cl26576   6.416  -0.551   4.057 -0.1214  0.0129 -0.2295
  202MOL0     C26577   7.389  -0.310   3.397  0.6052 -0.9037 -0.6264
  202MOL0     C26578   7.509  -0.263   3.335 -1.1988 -0.1634  0.4295
  202MOL0     O26579   7.804  -0.249   3.313  0.0384  0.0562  0.9457
  202MOL0     C26580   7.845  -0.076   3.002  0.8837 -0.5144 -0.6646
  202MOL0     C26581   7.947  -0.012   2.931  0.2906 -0.0525 -0.3261
  202MOL0     N26582   8.257   0.684   2.722  0.0527 -0.0690  0.3596
  202MOL0     N26583   8.357   0.756   2.770  0.9475 -0.1894  0.1181
  202MOL0     C26584   7.867   0.231   3.261  0.1740  0.1417  0.2104
  202MOL0     C26585   7.731   0.199   3.250  0.2154 -0.4902  0.3787
  202MOL0     C26586   7.326   0.130   3.182  0.4915 -0.3417  0.5347
  202MOL0     C26587   7.323  -0.011   3.172  0.3461  0.4531  0.0301
  202MOL0     C26588   7.210  -0.086   3.198  0.8374  0.1554 -0.5079
  202MOL0     C26589   7.084  -0.017   3.222  0.0368  0.8472  0.5445
  202MOL0     O26590   6.958  -0.071   3.245  0.0160 -0.8205  0.3997
  202MOL0     C26591   6.926  -0.206   3.200  0.1352 -1.6127  0.1715
  202MOL0     C26592   6.797  -0.247   3.261 -0.2306  1.3709  0.5480
  202MOL0     C26593   6.688  -0.145   3.228 -0.3806  0.2177  0.4639
  202MOL0     C26594   6.549  -0.201   3.278  0.3000  0.3171  0.0356
  202MOL0     C26595   6.520  -0.328   3.207  0.4918 -0.9105  0.2732
  202MOL0     C26596   6.451  -0.415   3.165  0.8305  0.2815 -0.4151
  202MOL0     C26597   7.086   0.120   3.217  1.1011 -0.3857  0.5359
  202MOL0     C26598   7.204   0.198   3.209  0.0843  0.4266 -0.6779
  202MOL0     H26599   7.708   0.229   2.910  0.2272  2.6384 -0.2087
  202MOL0     H26600   7.940   0.307   2.934 -0.4548 -0.0915 -0.9508
  202MOL0     H26601   8.008   0.507   3.222  1.4132 -0.4981  1.7590
  202MOL0     H26602   8.088   0.495   3.068  1.0688  1.2390  0.0745
  202MOL0     H26603   8.186   0.460   3.349  1.5806 -1.4924  0.2246
  202MOL0     H26604   8.222   0.603   3.240  3.3395  1.1324  0.9911
  202MOL0     H26605   8.332   0.443   3.077  1.3267 -1.8239  0.7784
  202MOL0     H26606   8.315   0.319   3.202  0.7296 -0.7717 -0.1517
  202MOL0     H26607   8.448   0.445   3.352 -1.2972 -1.7217 -1.2282
  202MOL0     H26608   8.535   0.409   3.199  1.5327  1.2338 -0.3843
  202MOL0     H26609   8.594   0.616   3.293 -0.0962  1.6503 -0.4197
  202MOL0     H26610   8.432   0.680   3.314 -0.6932 -0.5970  0.4903
  202MOL0     H26611   8.497   0.806   3.144 -0.3374 -0.0851  0.8378
  202MOL0     H26612   8.388   0.693   3.075 -0.2223  1.5714  1.5309
  202MOL0     H26613   8.689   0.698   3.058 -0.0658  0.0582 -0.8253
  202MOL0     H26614   8.607   0.553   3.012  1.0921  0.1264  0.8089
  202MOL0     H26615   8.662   0.674   2.814  3.5082  3.0647  1.4289
  202MOL0     H26616   8.573   0.821   2.880  0.3874 -0.6061 -2.5597
  202MOL0     H26617   8.488   0.460   2.815  0.7897  0.9849  0.0365
  202MOL0     H26618   8.279   0.382   2.624  2.0396  0.6383  2.3839
  202MOL0     H26619   8.120   0.472   2.667 -1.3990 -0.1552  1.2707
  202MOL0     H26620   8.106   0.282   2.799 -0.7592  1.0971  1.2090
  202MOL0     H26621   8.194   0.408   2.907 -1.0890  3.7729 -2.2350
  202MOL0     H26622   8.343   0.167   2.768 -5.0795 -0.9807 -1.0121
  202MOL0     H26623   8.401   0.292   2.885  1.6962 -1.7191  2.7357
  202MOL0     H26624   8.217   0.174   3.040 -0.3518 -0.4532 -0.1765
  202MOL0     H26625   8.358   0.069   2.994 -0.2488 -0.5665  0.2024
  202MOL0     H26626   8.207  -0.082   3.123 -0.6022  3.6986  1.6678
  202MOL0     H26627   8.031  -0.202   3.252 -2.9380 -0.2263  2.3808
  202MOL0     H26628   7.509  -0.430   3.046  2.5188 -0.9308  0.2555
  202MOL0     H26629   7.315  -0.552   3.178  0.8927 -0.8832  0.4894
  202MOL0     H26630   7.149  -0.326   3.513  1.7648 -0.7336 -1.7037
  202MOL0     H26631   7.199  -0.472   3.604 -0.4778  1.2679  1.5291
  202MOL0     H26632   7.031  -0.596   3.491  1.3663 -0.1897  0.0710
  202MOL0     H26633   6.987  -0.462   3.388  2.9815  3.2881  0.2528
  202MOL0     H26634   6.900  -0.345   3.597  0.1369  0.1632 -1.9948
  202MOL0     H26635   6.948  -0.489   3.695 -1.3455 -2.2320 -0.4894
  202MOL0     H26636   6.768  -0.479   3.447  0.1950  3.2640  0.5254
  202MOL0     H26637   6.784  -0.617   3.566 -2.0186  0.5086  2.2300
  202MOL0     H26638   6.574  -0.502   3.577  0.3988 -0.0168 -0.9219
  202MOL0     H26639   6.655  -0.348   3.619 -2.0537 -0.4662 -2.2263
  202MOL0     H26640   6.747  -0.436   3.832  2.2948 -1.2216 -1.9320
  202MOL0     H26641   6.727  -0.603   3.778 -3.6938 -2.1788  2.9700
  202MOL0     H26642   6.525  -0.396   3.874 -0.2544 -0.8407  5.1552
  202MOL0     H26643   6.475  -0.567   3.816 -0.9824  1.3788 -0.0767
  202MOL0     H26644   6.647  -0.522   4.047  0.5952 -1.8773  0.4914
  202MOL0     H26645   6.597  -0.673   3.964 -2.8782 -1.1629 -1.6476
  202MOL0     H26646   7.365  -0.253   3.486  2.1098 -1.1507 -0.0449
  202MOL0     H26647   7.560  -0.181   3.385  0.9912 -0.9810 -0.3557
  202MOL0     H26648   7.745  -0.076   2.961 -0.3625 -0.8826  2.1832
  202MOL0     H26649   7.919   0.028   2.834 -0.7284  1.5327  0.5764
  202MOL0     H26650   7.911   0.237   3.360  0.7951  0.2053 -0.0612
  202MOL0     H26651   7.664   0.178   3.332 -1.6079 -1.6057 -1.3163
  202MOL0     H26652   7.418  -0.063   3.172 -0.0587 -0.3679  1.5198
  202MOL0     H26653   7.220  -0.194   3.204  2.1905  0.1420 -2.3220
  202MOL0     H26654   7.007  -0.275   3.225  2.3792  0.4154 -1.0308
  202MOL0     H26655   6.911  -0.201   3.091 -2.9398  0.3832  0.5728
  202MOL0     H26656   6.773  -0.350   3.236 -0.0636  0.4855  3.6487
  202MOL0     H26657   6.802  -0.262   3.369 -2.6636  0.9308  0.6505
  202MOL0     H26658   6.682  -0.127   3.120  1.8303 -0.8710  0.0882
  202MOL0     H26659   6.717  -0.059   3.289  0.5202 -1.8058  3.0761
  202MOL0     H26660   6.577  -0.213   3.383 -1.5401  1.2470  0.6784
  202MOL0     H26661   6.471  -0.125   3.270 -1.8034 -1.4949  1.8181
  202MOL0     H26662   6.387  -0.499   3.148  2.1612 -0.3965 -2.4432
  202MOL0     H26663   6.986   0.159   3.234  0.7717 -1.2240  0.6121
  202MOL0     H26664   7.199   0.306   3.216 -0.8241  0.3367  0.1514
  203MOL0     O26665   7.642   6.437   5.825  0.6803 -0.5108  0.0506
  203MOL0     C26666   7.680   6.551   5.870  0.2373 -0.0958  1.3791
  203MOL0     O26667   7.606   6.669   5.865 -0.4920  0.1603  0.0782
  203MOL0     C26668   7.475   6.669   5.825  0.8724  0.0527 -0.2255
  203MOL0     C26669   7.425   6.794   5.783 -0.0016  0.9583 -0.2504
  203MOL0     C26670   7.288   6.821   5.746  0.8900  0.3020  0.1626
  203MOL0     C26671   7.195   6.713   5.731 -1.3763  0.1323 -0.4669
  203MOL0     O26672   7.063   6.713   5.692  0.2019  0.3326  0.0367
  203MOL0     C26673   7.000   6.838   5.673  0.1938  0.7220 -0.5821
  203MOL0     C26674   6.860   6.814   5.626 -0.4729 -0.1036 -0.0698
  203MOL0     C26675   6.770   6.936   5.656  0.3683  0.6841 -0.3483
  203MOL0     C26676   6.635   6.888   5.707  0.4205 -0.7477  0.0479
  203MOL0     C26677   6.537   7.004   5.725 -0.2966  0.4953 -0.5330
  203MOL0     C26678   6.414   6.948   5.795  0.6701  0.4336 -0.0017
  203MOL0     C26679   6.293   7.044   5.775 -0.0698  0.5184 -0.2516
  203MOL0     C26680   6.162   6.993   5.844  0.7123  0.2196  0.0525
  203MOL0     N26681   6.051   7.078   5.789  0.6004  0.6697 -1.0622
  203MOL0     C26682   5.993   7.196   5.830 -0.6232  0.5446 -1.0212
  203MOL0     C26683   5.893   7.212   5.741  0.3045 -0.6528  0.0802
  203MOL0     C26684   5.788   7.326   5.748  0.0791 -0.1822 -0.5872
  203MOL0     C26685   5.651   7.261   5.806  0.0563 -0.0525 -0.4642
  203MOL0     C26686   5.562   7.375   5.846  0.0119 -0.8222 -0.1579
  203MOL0     C26687   5.417   7.364   5.881  0.3748 -0.2129 -0.0899
  203MOL0     O26688   5.331   7.328   5.774  0.3050 -0.2656  0.1922
  203MOL0     C26689   5.209   7.369   5.771 -0.5910 -1.0068  0.3437
  203MOL0     C26690   5.146   7.367   5.650 -0.7733 -0.0047  0.1484
  203MOL0     C26691   5.022   7.418   5.637  0.2533 -0.2517 -0.3765
  203MOL0     C26692   4.941   7.462   5.748 -0.4647  0.2866  0.5924
  203MOL0     C26693   4.806   7.526   5.728 -0.8770  0.0195 -0.1997
  203MOL0     O26694   4.736   7.521   5.843 -0.0881 -0.4818 -0.1317
  203MOL0     C26695   4.614   7.580   5.858  0.8139  1.1496  0.4287
  203MOL0     C26696   4.584   7.704   5.790 -0.6430  0.0285 -0.0176
  203MOL0     C26697   4.452   7.743   5.774 -0.1440  0.3623  0.0525
  203MOL0     C26698   4.347   7.679   5.842 -0.3007  0.0353 -1.1862
  203MOL0     O26699   4.217   7.724   5.821  0.2891  0.4019  0.5361
  203MOL0     C26700   4.111   7.653   5.891 -0.3197  0.3016  0.0016
  203MOL0     C26701   3.987   7.724   5.858  0.1035  0.6635 -0.3151
  203MOL0     C26702   3.879   7.613   5.870 -1.0452 -0.9461 -0.5854
  203MOL0     C26703   3.749   7.689   5.907  0.2063  0.0724 -1.6588
  203MOL0     C26704   3.733   7.675   6.059  0.6243  0.2199 -0.4172
  203MOL0     C26705   3.624   7.764   6.126 -1.6151  0.1902 -0.0406
  203MOL0     C26706   3.500   7.702   6.107  0.9534 -0.3969  0.0377
  203MOL0     C26707   3.389   7.800   6.154  0.0753 -0.2253  0.9263
  203MOL0    Cl26708   3.413   7.849   6.324 -0.5241 -0.0523  0.0867
  203MOL0     C26709   4.379   7.579   5.930 -0.6229  0.3185  0.3218
  203MOL0     C26710   4.512   7.528   5.936 -1.3309  0.0957  0.0409
  203MOL0     O26711   4.766   7.582   5.622 -0.2854  0.5344  0.8860
  203MOL0     C26712   5.000   7.440   5.874  0.7891 -0.2042  0.0095
  203MOL0     C26713   5.135   7.409   5.886 -1.0656  0.4910  0.3355
  203MOL0     N26714   5.902   7.122   5.641  0.2736  0.6931  0.7339
  203MOL0     N26715   5.997   7.036   5.677  0.1864 -0.9434  0.2144
  203MOL0     C26716   7.250   6.586   5.774  0.3236 -0.1516 -0.1806
  203MOL0     C26717   7.386   6.559   5.819 -0.4699  0.0398  1.1747
  203MOL0     C26718   7.827   6.555   5.902  1.2821  0.2299 -0.5575
  203MOL0     C26719   7.906   6.664   5.872  1.4931 -1.0160  0.2002
  203MOL0     C26720   8.043   6.672   5.899 -0.1066 -0.1387 -0.2283
  203MOL0     C26721   8.103   6.570   5.965 -1.2797 -0.9322 -0.7471
  203MOL0     O26722   8.222   6.598   6.032 -0.2338 -0.7012 -0.2111
  203MOL0     C26723   8.334   6.517   6.005  0.3830 -0.4065  0.3132
  203MOL0     C26724   8.461   6.605   5.972 -0.3428  0.1723  0.3665
  203MOL0     C26725   8.599   6.542   5.955 -1.1918  0.0129 -0.2665
  203MOL0     C26726   8.605   6.383   5.984  1.3298  0.4350  0.8058
  203MOL0     C26727   8.741   6.333   5.967 -0.9886  0.1252 -0.8538
  203MOL0     C26728   8.844   6.271   5.949 -0.5723  0.3690  0.3977
  203MOL0     C26729   8.030   6.450   5.989  0.3692 -0.0198 -0.7213
  203MOL0     C26730   7.894   6.438   5.950 -0.5423  0.2583  0.2238
  203MOL0     H26731   7.506   6.867   5.783  0.9877 -0.0993  0.2277
  203MOL0     H26732   7.249   6.920   5.725  1.8100  0.5258 -0.5854
  203MOL0     H26733   7.043   6.898   5.592 -1.0239  0.0381 -1.7618
  203MOL0     H26734   7.014   6.903   5.760 -0.9950  1.4440 -0.8983
  203MOL0     H26735   6.822   6.731   5.687 -0.9234  2.6578  3.7359
  203MOL0     H26736   6.858   6.792   5.519  0.0636  3.4222 -0.9076
  203MOL0     H26737   6.758   6.995   5.564 -0.9312 -0.2548 -0.8144
  203MOL0     H26738   6.804   7.000   5.738 -1.7029  2.6430 -0.9205
  203MOL0     H26739   6.592   6.814   5.640 -2.8560  0.0590  1.0856
  203MOL0     H26740   6.646   6.831   5.800  0.7649  0.5109  0.8100
  203MOL0     H26741   6.508   7.049   5.630  0.5996  0.3024 -0.9115
  203MOL0     H26742   6.588   7.069   5.797  1.3124 -1.5640  0.3093
  203MOL0     H26743   6.427   6.935   5.903 -1.4436 -0.0193  0.2334
  203MOL0     H26744   6.390   6.850   5.753  0.6047 -0.2503  1.5757
  203MOL0     H26745   6.326   7.144   5.803  0.0730  0.1025  1.1245
  203MOL0     H26746   6.280   7.039   5.666 -0.1630  1.1046 -0.2683
  203MOL0     H26747   6.162   7.004   5.953 -1.6277  0.3068  0.0762
  203MOL0     H26748   6.163   6.885   5.824 -1.8417  0.3700 -1.2628
  203MOL0     H26749   6.041   7.249   5.911  2.8380 -2.5057 -0.8256
  203MOL0     H26750   5.763   7.367   5.650 -1.0202 -0.8142 -0.5829
  203MOL0     H26751   5.826   7.407   5.811  0.4153 -0.8896  0.1482
  203MOL0     H26752   5.678   7.199   5.892  0.8281 -0.5853 -1.0645
  203MOL0     H26753   5.601   7.199   5.732 -1.4720  0.8372 -0.2064
  203MOL0     H26754   5.610   7.412   5.937  1.4887  2.2801 -2.0452
  203MOL0     H26755   5.581   7.456   5.775  0.1039 -0.8277 -0.1415
  203MOL0     H26756   5.387   7.451   5.940  0.2691 -0.8421  0.8043
  203MOL0     H26757   5.407   7.280   5.952  1.9011  1.9131  2.8629
  203MOL0     H26758   5.199   7.332   5.562 -1.1552  2.1889 -1.0282
  203MOL0     H26759   4.980   7.435   5.538  0.1227 -3.4647 -0.9600
  203MOL0     H26760   4.662   7.752   5.732  1.5390 -0.9597  1.8915
  203MOL0     H26761   4.437   7.823   5.703 -2.4226  0.5652  0.6780
  203MOL0     H26762   4.121   7.667   5.999 -1.6620 -3.0618  0.6925
  203MOL0     H26763   4.120   7.544   5.883 -0.4298  0.2564  0.4295
  203MOL0     H26764   3.989   7.755   5.753  1.0875 -1.1796 -0.8878
  203MOL0     H26765   3.975   7.806   5.929 -1.8336 -0.8126  1.1675
  203MOL0     H26766   3.905   7.543   5.949 -0.5404  1.6114  1.6341
  203MOL0     H26767   3.873   7.563   5.773  0.2639  0.5829 -1.5058
  203MOL0     H26768   3.756   7.796   5.889  3.2529  0.3484  0.4852
  203MOL0     H26769   3.663   7.641   5.859  0.5680 -2.8409  0.3377
  203MOL0     H26770   3.827   7.703   6.106  1.2542 -0.3296 -1.3323
  203MOL0     H26771   3.696   7.574   6.077 -2.3008  1.0045 -1.3483
  203MOL0     H26772   3.633   7.862   6.078 -0.0252  1.5088  2.7250
  203MOL0     H26773   3.655   7.781   6.229  0.6351 -1.6884 -0.3222
  203MOL0     H26774   3.480   7.669   6.005  2.1276 -1.5514  0.1530
  203MOL0     H26775   3.489   7.611   6.167 -0.0674  0.1264  0.6738
  203MOL0     H26776   3.294   7.746   6.152 -0.5170  0.8028  0.8570
  203MOL0     H26777   3.398   7.887   6.088  1.8491 -1.0726 -0.0319
  203MOL0     H26778   4.301   7.521   5.978 -0.4189 -1.4033 -1.2984
  203MOL0     H26779   4.548   7.451   6.004  0.0543  1.3794  0.8229
  203MOL0     H26780   4.949   7.475   5.964  2.9846  1.8618  0.5496
  203MOL0     H26781   5.179   7.402   5.985  1.1179 -0.7921 -0.6279
  203MOL0     H26782   7.187   6.498   5.773 -2.0534  1.4386 -2.2183
  203MOL0     H26783   7.416   6.465   5.865  0.0472 -0.3609  0.0395
  203MOL0     H26784   7.863   6.748   5.817 -0.7332 -3.8718 -2.8060
  203MOL0     H26785   8.113   6.755   5.886  0.0944 -0.1802  0.5205
  203MOL0     H26786   8.317   6.441   5.928 -2.9327  0.0922  0.4165
  203MOL0     H26787   8.356   6.467   6.100 -0.4483  0.6289  1.0818
  203MOL0     H26788   8.446   6.652   5.875  0.1090 -1.3161 -0.4414
  203MOL0     H26789   8.463   6.688   6.044 -0.2058  0.3443  0.1667
  203MOL0     H26790   8.679   6.601   6.001 -0.6860  2.4452 -3.7842
  203MOL0     H26791   8.627   6.550   5.849  1.8303  1.1562  0.5290
  203MOL0     H26792   8.554   6.366   6.079 -2.2720 -0.7600 -1.1877
  203MOL0     H26793   8.544   6.334   5.908  2.0688 -0.6441  0.8814
  203MOL0     H26794   8.939   6.224   5.931 -1.5988 -1.8482  0.4014
  203MOL0     H26795   8.077   6.370   6.045  0.3391  1.3478  1.3565
  203MOL0     H26796   7.849   6.341   5.970 -0.3904  0.3023  0.8092
  204MOL0     O26797   1.638  11.266   4.179  0.3468 -0.5401  0.6239
  204MOL0     C26798   1.631  11.266   4.291  0.4447 -0.6827 -0.9984
  204MOL0     O26799   1.738  11.223   4.371 -0.1736  0.5717 -0.0733
  204MOL0     C26800   1.867  11.203   4.321  0.0096  0.6171  0.2776
  204MOL0     C26801   1.905  11.277   4.208 -0.3004 -0.0024  0.0410
  204MOL0     C26802   2.028  11.258   4.137 -1.1045  0.7061 -0.7636
  204MOL0     C26803   2.114  11.155   4.184 -0.6387  0.6887 -0.1081
  204MOL0     O26804   2.230  11.112   4.122  0.0445 -0.1801  0.9638
  204MOL0     C26805   2.271  11.168   3.991 -0.2212  0.3259  0.0559
  204MOL0     C26806   2.390  11.086   3.942  0.6599 -0.0651  0.2196
  204MOL0     C26807   2.459  11.135   3.816  0.1395 -0.1111  0.9175
  204MOL0     C26808   2.600  11.055   3.805  0.1163  0.1609 -0.2930
  204MOL0     C26809   2.578  10.936   3.720  0.4043  0.5885 -0.5528
  204MOL0     C26810   2.701  10.849   3.727  0.7452 -0.5089 -0.3347
  204MOL0     C26811   2.678  10.716   3.649 -0.8997  0.8668  0.0380
  204MOL0     C26812   2.813  10.638   3.627  0.1107 -0.6877  0.3089
  204MOL0     N26813   2.800  10.504   3.561 -0.2400 -0.4998  0.3502
  204MOL0     C26814   2.691  10.417   3.585  0.0451 -0.5092  0.5078
  204MOL0     C26815   2.712  10.325   3.486 -0.4925  0.9491  1.1044
  204MOL0     C26816   2.612  10.215   3.450 -0.3039 -0.7156  0.1050
  204MOL0     C26817   2.484  10.280   3.399 -0.5026 -0.0345 -0.1143
  204MOL0     C26818   2.379  10.182   3.357 -0.3461 -0.7881 -0.2108
  204MOL0     C26819   2.262  10.259   3.306  0.1599 -0.2036  0.6702
  204MOL0     O26820   2.157  10.168   3.268  0.7577 -0.6525  0.7203
  204MOL0     C26821   2.039  10.227   3.237  0.2627 -0.9557 -0.2152
  204MOL0     C26822   1.926  10.148   3.214 -0.3228 -0.3370 -0.0249
  204MOL0     C26823   1.796  10.197   3.193  0.1576  0.3715  0.1923
  204MOL0     C26824   1.771  10.334   3.197 -0.3745 -0.8357 -0.0528
  204MOL0     C26825   1.637  10.389   3.195  0.1783 -0.3762  0.3481
  204MOL0     O26826   1.612  10.516   3.232 -0.4004  0.7397  0.1005
  204MOL0     C26827   1.481  10.562   3.227  0.2345  1.5952  0.2501
  204MOL0     C26828   1.456  10.672   3.138 -0.1060 -0.4060 -0.5604
  204MOL0     C26829   1.328  10.722   3.124 -0.5231 -0.2920 -0.9062
  204MOL0     C26830   1.221  10.673   3.210 -0.1450 -0.0996  0.9545
  204MOL0     O26831   1.096  10.732   3.187  1.7871  0.2598  0.0187
  204MOL0     C26832   0.978  10.656   3.219  1.2965 -0.4880 -0.2111
  204MOL0     C26833   0.854  10.755   3.214  0.1950 -0.4619 -0.2261
  204MOL0     C26834   0.721  10.672   3.211 -0.0924  0.0712 -0.4726
  204MOL0     C26835   0.604  10.774   3.229 -0.6137 -0.0610 -1.0723
  204MOL0     C26836   0.462  10.718   3.230 -0.3082 -0.5115 -0.4438
  204MOL0     C26837   0.371  10.835   3.267 -0.0256  0.8324  0.0571
  204MOL0     C26838   0.235  10.784   3.293 -0.0236  0.5231 -0.8690
  204MOL0     C26839   0.146  10.890   3.357  0.1215  0.5145 -0.3649
  204MOL0    Cl26840   0.006  10.815   3.443  0.2968  0.3533 -0.0450
  204MOL0     C26841   1.252  10.570   3.302 -0.9991 -0.1722 -0.1552
  204MOL0     C26842   1.379  10.512   3.307  0.1752  0.2086 -0.1120
  204MOL0     O26843   1.554  10.318   3.142  0.1789  0.5599  0.2593
  204MOL0     C26844   1.883  10.415   3.214  0.6698  0.3274  0.3255
  204MOL0     C26845   2.007  10.364   3.234  0.5938  1.0439  0.7880
  204MOL0     N26846   2.836  10.338   3.418 -1.0855  0.4169 -0.4339
  204MOL0     N26847   2.887  10.448   3.467  0.1933 -0.6307  0.2238
  204MOL0     C26848   2.073  11.075   4.301 -0.3728 -0.3040  0.0237
  204MOL0     C26849   1.955  11.098   4.373  0.0258 -1.2311  0.3176
  204MOL0     C26850   1.497  11.289   4.355  0.0457 -0.0415  0.5708
  204MOL0     C26851   1.375  11.266   4.294  0.1031 -0.5317  0.8534
  204MOL0     C26852   1.253  11.301   4.363  0.1921  0.2971  0.6266
  204MOL0     C26853   1.258  11.368   4.487  0.3598  0.1438 -0.2003
  204MOL0     O26854   1.154  11.399   4.570  0.1321  0.0119 -0.5465
  204MOL0     C26855   1.022  11.370   4.524  0.2751  0.4646 -0.5308
  204MOL0     C26856   0.981  11.223   4.559  0.7676 -0.1527  0.7994
  204MOL0     C26857   0.834  11.191   4.511 -0.0028 -1.4416  0.0040
  204MOL0     C26858   0.734  11.242   4.614  0.1421 -0.2098 -0.8718
  204MOL0     C26859   0.593  11.220   4.598  0.1780 -0.5610 -0.5370
  204MOL0     C26860   0.476  11.196   4.574 -0.2081  0.3954  0.9170
  204MOL0     C26861   1.380  11.403   4.538 -0.3381 -1.0456  0.4206
  204MOL0     C26862   1.497  11.367   4.474  0.2519  1.1727  0.5489
  204MOL0     H26863   1.848  11.357   4.163  0.4838  1.1774  1.0632
  204MOL0     H26864   2.039  11.311   4.043 -0.2296 -1.6541 -2.0934
  204MOL0     H26865   2.301  11.273   3.993 -1.3259  0.8445 -3.3681
  204MOL0     H26866   2.189  11.163   3.919  0.1868 -2.3337 -0.3176
  204MOL0     H26867   2.375  10.982   3.914  2.5358 -0.5010  0.6918
  204MOL0     H26868   2.459  11.091   4.027  1.0298 -2.8491  0.1768
  204MOL0     H26869   2.471  11.244   3.822  3.3409 -0.3743  1.1373
  204MOL0     H26870   2.395  11.118   3.729  4.2271 -2.9984 -1.8883
  204MOL0     H26871   2.666  11.130   3.760 -1.4351  2.0849  0.4929
  204MOL0     H26872   2.633  11.025   3.905 -0.6819 -1.0082 -0.3676
  204MOL0     H26873   2.551  10.970   3.619  3.1004  0.0434 -1.5536
  204MOL0     H26874   2.491  10.882   3.757 -0.0026 -0.0069 -2.2707
  204MOL0     H26875   2.723  10.825   3.832  1.8692  0.4186 -0.3401
  204MOL0     H26876   2.787  10.899   3.683 -2.7408  2.9130 -4.0379
  204MOL0     H26877   2.602  10.655   3.699 -0.8570  0.3560 -0.5149
  204MOL0     H26878   2.639  10.741   3.550 -1.1313  0.3353 -0.0033
  204MOL0     H26879   2.855  10.618   3.726 -0.9778 -0.6492  0.7938
  204MOL0     H26880   2.891  10.692   3.572 -0.8343 -0.8999 -1.2927
  204MOL0     H26881   2.605  10.447   3.644  2.0986  3.0300  2.0116
  204MOL0     H26882   2.592  10.146   3.533  0.8822  0.2262  1.2125
  204MOL0     H26883   2.654  10.162   3.364  0.6031  1.1513 -0.6720
  204MOL0     H26884   2.500  10.346   3.314  3.1798  0.2523  0.6354
  204MOL0     H26885   2.444  10.338   3.483 -2.3045 -1.2304 -0.0953
  204MOL0     H26886   2.428  10.127   3.276 -1.1057  0.1842 -1.3647
  204MOL0     H26887   2.342  10.129   3.444  0.6010 -2.7348 -0.9287
  204MOL0     H26888   2.301  10.321   3.224 -0.1773  0.1161  0.7479
  204MOL0     H26889   2.228  10.321   3.389 -1.7617 -3.8845  2.8887
  204MOL0     H26890   1.964  10.048   3.228  1.4475  0.3294  0.1859
  204MOL0     H26891   1.714  10.130   3.172  1.3486 -2.0690  2.6796
  204MOL0     H26892   1.535  10.716   3.079  0.9652 -1.8952 -0.2947
  204MOL0     H26893   1.311  10.800   3.051  3.4190  0.5967 -1.0751
  204MOL0     H26894   0.993  10.623   3.322 -2.1874 -0.1409  0.5346
  204MOL0     H26895   0.957  10.567   3.158  0.0914 -1.1019  1.0375
  204MOL0     H26896   0.853  10.806   3.117  0.5723 -1.3927 -0.7316
  204MOL0     H26897   0.858  10.831   3.293  1.9139 -0.4052 -0.3300
  204MOL0     H26898   0.693  10.604   3.292 -0.9677  1.1532  0.1781
  204MOL0     H26899   0.709  10.624   3.114  1.4950 -0.6756 -0.3184
  204MOL0     H26900   0.614  10.820   3.328  0.5693 -0.9047 -0.7752
  204MOL0     H26901   0.605  10.851   3.152  2.2610  2.0297  0.8216
  204MOL0     H26902   0.470  10.632   3.298  2.0615  1.7808  2.4703
  204MOL0     H26903   0.433  10.678   3.133 -0.7327 -2.1000  0.3111
  204MOL0     H26904   0.378  10.901   3.180 -2.4900  0.8888 -0.1578
  204MOL0     H26905   0.400  10.892   3.355  0.7836  2.4867 -1.2182
  204MOL0     H26906   0.182  10.754   3.201  1.2622 -1.4062 -1.0330
  204MOL0     H26907   0.243  10.690   3.347  2.5541  1.4111  0.4516
  204MOL0     H26908   0.115  10.974   3.294  0.9167  1.3578  0.3172
  204MOL0     H26909   0.215  10.940   3.426  0.9834  0.3973 -1.1306
  204MOL0     H26910   1.166  10.534   3.357  0.2530 -2.7813  0.2427
  204MOL0     H26911   1.404  10.439   3.383  1.1442  1.8933  1.2740
  204MOL0     H26912   1.869  10.522   3.221  1.6154  0.4866 -0.1094
  204MOL0     H26913   2.092  10.428   3.254  2.5568 -1.0397 -0.3374
  204MOL0     H26914   2.137  10.990   4.326  0.9301  0.0112 -1.9729
  204MOL0     H26915   1.919  11.052   4.464 -4.3210 -1.4237 -1.2587
  204MOL0     H26916   1.373  11.211   4.200 -1.8856  0.0170  0.5141
  204MOL0     H26917   1.164  11.272   4.308  0.8905 -2.5708  0.8697
  204MOL0     H26918   1.019  11.374   4.415 -0.9507  0.0388 -0.5208
  204MOL0     H26919   0.959  11.452   4.559 -0.4196  0.0771 -0.8706
  204MOL0     H26920   1.047  11.153   4.506  0.3535 -0.1302  0.2493
  204MOL0     H26921   0.990  11.205   4.667  0.1818  1.2217  1.0990
  204MOL0     H26922   0.814  11.089   4.476  1.0673 -0.4523 -4.1273
  204MOL0     H26923   0.826  11.239   4.413 -0.6945 -3.8508 -1.1966
  204MOL0     H26924   0.767  11.211   4.713  0.4290 -1.0773 -1.2263
  204MOL0     H26925   0.745  11.351   4.615  1.3961 -0.2830  1.8867
  204MOL0     H26926   0.375  11.169   4.552  1.2557 -2.4881 -3.5504
  204MOL0     H26927   1.393  11.471   4.621  0.2999 -2.2243  1.3076
  204MOL0     H26928   1.586  11.403   4.523 -0.6787  3.3192  0.7932
  205MOL0     O26929   6.586   2.626   9.527  0.2335  0.1120  0.8779
  205MOL0     C26930   6.588   2.705   9.428  0.3669  0.3488  0.0877
  205MOL0     O26931   6.481   2.771   9.376  0.6001 -0.4525 -0.2346
  205MOL0     C26932   6.361   2.709   9.405  0.5648  0.5111  0.6504
  205MOL0     C26933   6.302   2.598   9.326  0.0207  0.1227 -0.0751
  205MOL0     C26934   6.169   2.562   9.340  1.1364 -0.4120  0.6042
  205MOL0     C26935   6.089   2.627   9.431 -0.1670  0.1992 -0.2795
  205MOL0     O26936   5.958   2.613   9.465 -0.0001  0.4201 -0.9778
  205MOL0     C26937   5.894   2.514   9.387 -0.4327 -0.2583  0.3468
  205MOL0     C26938   5.745   2.495   9.432  0.3069  0.7110 -0.3491
  205MOL0     C26939   5.670   2.626   9.469 -0.5333  0.1040  0.2334
  205MOL0     C26940   5.536   2.605   9.525  0.1532  0.1983  0.5706
  205MOL0     C26941   5.477   2.734   9.582 -0.3112 -0.0423  0.1744
  205MOL0     C26942   5.330   2.711   9.610  0.3356 -0.7460  0.1683
  205MOL0     C26943   5.255   2.715   9.474  0.2196  0.1475 -0.7257
  205MOL0     C26944   5.102   2.740   9.496  0.0290 -0.4517  0.1114
  205MOL0     N26945   5.030   2.741   9.369  0.0843 -0.3081 -0.5623
  205MOL0     C26946   4.893   2.717   9.352  0.5475  0.0226  1.2242
  205MOL0     C26947   4.853   2.771   9.234 -0.4123 -0.4848  0.7524
  205MOL0     C26948   4.710   2.783   9.176  0.0473  0.2001  0.0379
  205MOL0     C26949   4.624   2.892   9.240 -0.6895  0.2934 -0.9275
  205MOL0     C26950   4.531   2.838   9.353 -0.0257  0.5040  0.0462
  205MOL0     C26951   4.423   2.741   9.288 -0.3960  0.6797 -0.2748
  205MOL0     O26952   4.338   2.699   9.403 -0.6288 -0.1778  0.1053
  205MOL0     C26953   4.229   2.627   9.390  0.5126 -0.6549  0.4529
  205MOL0     C26954   4.208   2.547   9.282 -0.6329 -0.0267  0.3196
  205MOL0     C26955   4.105   2.458   9.274  0.2943 -0.0839 -0.3983
  205MOL0     C26956   4.008   2.467   9.376 -0.4819 -0.3991 -0.2835
  205MOL0     C26957   3.880   2.384   9.363  0.4129 -0.3527  0.7736
  205MOL0     O26958   3.885   2.291   9.268 -0.0711 -0.3122 -0.0723
  205MOL0     C26959   3.775   2.228   9.228 -0.6342 -0.3898 -0.5989
  205MOL0     C26960   3.646   2.297   9.220 -0.9028  0.0361 -0.2297
  205MOL0     C26961   3.525   2.232   9.202 -0.6874  0.1368 -0.2964
  205MOL0     C26962   3.529   2.097   9.181  0.4566  0.1710  0.2196
  205MOL0     O26963   3.407   2.038   9.149 -0.4133  0.1213 -0.1522
  205MOL0     C26964   3.401   2.008   9.015 -0.3080 -0.0178  0.1649
  205MOL0     C26965   3.388   1.860   8.981 -0.3866 -0.2833  0.7530
  205MOL0     C26966   3.372   1.854   8.832 -0.0398  0.0958  0.0309
  205MOL0     C26967   3.513   1.876   8.765 -0.0157  0.1394  0.1064
  205MOL0     C26968   3.484   1.898   8.610 -1.0750 -0.1854 -1.0338
  205MOL0     C26969   3.615   1.867   8.527  0.2902  0.5933 -0.5992
  205MOL0     C26970   3.596   1.887   8.375  0.2870 -0.1339  0.1071
  205MOL0     C26971   3.718   1.822   8.300  0.0885  0.4288 -0.4467
  205MOL0    Cl26972   3.876   1.874   8.357  0.1070 -0.0287  1.2233
  205MOL0     C26973   3.653   2.036   9.153 -0.5968  0.0186 -0.6247
  205MOL0     C26974   3.775   2.098   9.187  1.1174  1.0623  0.9575
  205MOL0     O26975   3.794   2.403   9.446 -0.0123  0.6919  0.1623
  205MOL0     C26976   4.027   2.553   9.493 -0.5135 -0.0096  0.2977
  205MOL0     C26977   4.139   2.632   9.500  0.6093 -0.3013  0.6808
  205MOL0     N26978   4.965   2.808   9.168  0.0749  0.0833 -0.0978
  205MOL0     N26979   5.065   2.794   9.249 -0.8850  0.1302 -0.0680
  205MOL0     C26980   6.133   2.745   9.494  0.0573  0.0231  0.6286
  205MOL0     C26981   6.266   2.791   9.480  0.6365  0.0510 -0.3076
  205MOL0     C26982   6.715   2.714   9.357  0.6383 -0.5345 -0.6101
  205MOL0     C26983   6.761   2.832   9.297  0.6547  0.4712  0.2867
  205MOL0     C26984   6.884   2.838   9.233 -1.0796  0.3258 -0.2959
  205MOL0     C26985   6.962   2.716   9.224  0.0535  0.4131 -0.0380
  205MOL0     O26986   7.084   2.715   9.162 -0.2228 -0.4196 -0.2324
  205MOL0     C26987   7.084   2.797   9.042 -1.0310  0.8385 -0.3372
  205MOL0     C26988   7.227   2.799   8.984 -0.3060 -0.9773 -0.1546
  205MOL0     C26989   7.209   2.826   8.833  0.3531  0.2737  0.0873
  205MOL0     C26990   7.333   2.865   8.755  0.1333 -0.9091 -0.0789
  205MOL0     C26991   7.427   2.753   8.753  0.4485  0.8421  0.7719
  205MOL0     C26992   7.518   2.669   8.738  0.0930 -0.9895  0.4861
  205MOL0     C26993   6.920   2.602   9.285 -0.7967 -0.0402 -0.5292
  205MOL0     C26994   6.797   2.597   9.356 -1.4478  0.9358 -0.2509
  205MOL0     H26995   6.364   2.551   9.251  1.8390  2.1729  0.0408
  205MOL0     H26996   6.129   2.485   9.274 -0.6589  0.2689  0.8417
  205MOL0     H26997   5.946   2.418   9.384  0.0346 -0.0287  0.7666
  205MOL0     H26998   5.882   2.560   9.289  0.5557  0.3406  0.4908
  205MOL0     H26999   5.737   2.426   9.517  2.4186  0.9439  0.0748
  205MOL0     H27000   5.705   2.455   9.339  0.9410 -4.0193  1.1276
  205MOL0     H27001   5.669   2.687   9.379 -0.4920 -3.0055 -2.0267
  205MOL0     H27002   5.727   2.693   9.534 -0.8866  0.4848  0.1493
  205MOL0     H27003   5.470   2.561   9.450  0.2480 -1.5530  1.4503
  205MOL0     H27004   5.545   2.529   9.604 -3.1429  0.7714  1.6730
  205MOL0     H27005   5.497   2.825   9.524 -0.6391  0.6054  1.0403
  205MOL0     H27006   5.530   2.769   9.672 -1.7829  2.4368  0.1913
  205MOL0     H27007   5.301   2.798   9.670  1.5046 -1.3168  1.6221
  205MOL0     H27008   5.312   2.616   9.660 -0.9583 -0.4503  0.3055
  205MOL0     H27009   5.304   2.785   9.406 -0.5541  0.6192 -0.8210
  205MOL0     H27010   5.259   2.619   9.422 -0.7575 -1.0698  1.2958
  205MOL0     H27011   5.085   2.837   9.545  1.8467  1.9739 -3.5787
  205MOL0     H27012   5.065   2.655   9.554 -0.2406  0.2545  0.9948
  205MOL0     H27013   4.831   2.658   9.420  1.8558 -2.1488  0.6355
  205MOL0     H27014   4.672   2.682   9.194  0.0142  0.4680  1.6107
  205MOL0     H27015   4.704   2.804   9.068  0.3019 -0.3542 -0.0860
  205MOL0     H27016   4.553   2.937   9.170  1.0433  1.5774 -1.9389
  205MOL0     H27017   4.690   2.970   9.280 -0.6105 -0.0413 -0.3939
  205MOL0     H27018   4.596   2.798   9.431  1.4615  0.5998 -1.0991
  205MOL0     H27019   4.473   2.924   9.389 -5.3879 -2.3188 -0.8737
  205MOL0     H27020   4.466   2.655   9.236 -0.7468  1.2380 -1.5432
  205MOL0     H27021   4.374   2.787   9.201  1.2660 -1.7505 -2.6507
  205MOL0     H27022   4.274   2.539   9.196 -1.2502  0.3004 -0.2006
  205MOL0     H27023   4.097   2.382   9.197  0.7562  0.5895 -1.1303
  205MOL0     H27024   3.633   2.403   9.236 -0.6805  0.4792 -2.6409
  205MOL0     H27025   3.430   2.283   9.188 -1.7479 -1.3078  1.1576
  205MOL0     H27026   3.478   2.060   8.958 -0.8154  1.6792  0.9337
  205MOL0     H27027   3.310   2.062   8.984  1.2550  0.7724 -3.5967
  205MOL0     H27028   3.297   1.819   9.026  0.2058 -3.5421 -0.6994
  205MOL0     H27029   3.472   1.802   9.019  2.1967  1.3193 -2.1258
  205MOL0     H27030   3.305   1.934   8.802  0.4396 -0.0265 -1.4509
  205MOL0     H27031   3.331   1.759   8.797  3.0135 -0.5627 -2.2041
  205MOL0     H27032   3.557   1.969   8.801  1.4313 -1.1724  1.9014
  205MOL0     H27033   3.576   1.791   8.792  1.0706  0.6584 -0.7268
  205MOL0     H27034   3.453   1.999   8.584 -1.0843  0.4019  1.1289
  205MOL0     H27035   3.406   1.835   8.566 -0.7197 -0.8472 -0.7489
  205MOL0     H27036   3.668   1.774   8.550  0.5601  1.0557  0.7271
  205MOL0     H27037   3.687   1.942   8.561  2.0370 -1.2239 -0.0909
  205MOL0     H27038   3.502   1.848   8.334  1.3214  0.7770 -3.4338
  205MOL0     H27039   3.591   1.992   8.346  1.2338 -0.5714 -1.7414
  205MOL0     H27040   3.703   1.834   8.193 -0.6684 -1.9021 -0.6525
  205MOL0     H27041   3.720   1.714   8.316  1.3412  0.6295  1.0198
  205MOL0     H27042   3.653   1.932   9.121  0.2588  0.4126 -2.0102
  205MOL0     H27043   3.868   2.042   9.192  0.1344 -0.6654  0.6593
  205MOL0     H27044   3.952   2.554   9.571 -2.3072 -1.8955 -1.2694
  205MOL0     H27045   4.146   2.696   9.587 -1.4515 -0.7609  1.2318
  205MOL0     H27046   6.059   2.795   9.556 -0.7377 -1.0540  0.5653
  205MOL0     H27047   6.306   2.877   9.533 -1.6661  0.7075  0.4723
  205MOL0     H27048   6.696   2.918   9.301  1.9446  1.4936  0.0765
  205MOL0     H27049   6.910   2.934   9.190 -2.7270 -0.4984 -3.4849
  205MOL0     H27050   7.065   2.905   9.053  0.1541  1.0556 -0.2833
  205MOL0     H27051   7.008   2.751   8.978  0.1827 -4.1381  1.3536
  205MOL0     H27052   7.288   2.877   9.030  2.0876 -1.9389 -1.5118
  205MOL0     H27053   7.273   2.700   8.985 -0.4287 -1.0347  0.9295
  205MOL0     H27054   7.133   2.903   8.818  0.0074 -0.6339 -4.1471
  205MOL0     H27055   7.155   2.745   8.783  0.3888  0.8114 -0.8495
  205MOL0     H27056   7.307   2.882   8.650 -3.9101 -1.3773  0.6904
  205MOL0     H27057   7.377   2.957   8.795 -0.7461 -0.2286 -0.6350
  205MOL0     H27058   7.605   2.607   8.729 -0.3148 -1.8913  2.3216
  205MOL0     H27059   6.997   2.530   9.311 -1.2485 -0.1230  0.6188
  205MOL0     H27060   6.766   2.506   9.406 -0.3170 -0.5437 -2.1078
  206MOL0     O27061   9.405   0.668   2.786 -0.6866  0.4076 -0.0346
  206MOL0     C27062   9.301   0.619   2.748  0.2129  0.1255 -0.0655
  206MOL0     O27063   9.248   0.637   2.628  0.0777  0.6846 -0.8654
  206MOL0     C27064   9.302   0.702   2.523  0.4626  0.2108 -0.2191
  206MOL0     C27065   9.237   0.801   2.465  0.6862 -0.7617 -0.1578
  206MOL0     C27066   9.308   0.881   2.372 -0.0666 -0.1936 -0.2023
  206MOL0     C27067   9.445   0.855   2.340  0.2682  0.7787  0.2470
  206MOL0     O27068   9.512   0.925   2.248 -0.1056  0.0281  0.7145
  206MOL0     C27069   9.506   1.072   2.264 -0.2042  0.0341  0.2070
  206MOL0     C27070   9.601   1.144   2.160  0.0845  0.0646  0.3717
  206MOL0     C27071   9.512   1.192   2.036 -0.5542  0.2990  0.1233
  206MOL0     C27072   9.447   1.326   2.064  0.0243 -0.2752  0.1660
  206MOL0     C27073   9.543   1.446   2.057  0.2359 -0.1019 -0.3126
  206MOL0     C27074   9.621   1.479   1.932 -0.2606 -0.2490  0.1317
  206MOL0     C27075   9.709   1.595   1.963 -0.2489  0.4055 -0.5552
  206MOL0     C27076   9.816   1.618   1.862 -0.6806  0.4376 -0.2075
  206MOL0     N27077   9.942   1.551   1.899 -0.3325 -0.2740 -0.1695
  206MOL0     C27078  10.031   1.593   1.997  0.2598  0.3300  0.4600
  206MOL0     C27079  10.127   1.493   1.989 -0.9387  0.4513  0.1614
  206MOL0     C27080  10.257   1.479   2.061 -0.7837  0.0334 -0.3402
  206MOL0     C27081  10.275   1.357   2.154  0.3855 -0.9063 -0.0492
  206MOL0     C27082  10.418   1.349   2.204 -0.0830 -0.1498 -0.3949
  206MOL0     C27083  10.446   1.223   2.281 -0.3449  0.5502 -0.3668
  206MOL0     O27084  10.562   1.237   2.354  0.1112 -0.2114 -0.5053
  206MOL0     C27085  10.690   1.214   2.316  0.6829 -1.0506  0.8304
  206MOL0     C27086  10.722   1.141   2.201 -0.9749 -0.0889 -0.4739
  206MOL0     C27087  10.861   1.100   2.191 -0.0425 -0.5010  0.1000
  206MOL0     C27088  10.965   1.145   2.271  1.1744 -0.3729  0.5524
  206MOL0     C27089  11.102   1.110   2.253 -0.0502  0.7761  1.0583
  206MOL0     O27090  11.199   1.167   2.327 -0.4803  1.0274 -0.3878
  206MOL0     C27091  11.326   1.139   2.298 -0.8296 -0.8162 -0.8707
  206MOL0     C27092  11.416   1.247   2.288 -0.0605  0.7568  0.0509
  206MOL0     C27093  11.552   1.226   2.288 -2.1199 -0.8154  0.7597
  206MOL0     C27094  11.606   1.098   2.312  0.0404 -0.1974  0.9873
  206MOL0     O27095  11.737   1.064   2.320 -0.1781  0.4535 -0.1371
  206MOL0     C27096  11.829   1.171   2.312  0.0587 -0.4275  0.1940
  206MOL0     C27097  11.975   1.132   2.327 -0.7439 -0.0014 -0.4065
  206MOL0     C27098  12.052   1.253   2.379 -0.0809  0.8673 -0.6515
  206MOL0     C27099  12.198   1.231   2.418  0.5902  0.0388 -0.3469
  206MOL0     C27100  12.274   1.363   2.428 -0.1607 -0.1947 -0.2386
  206MOL0     C27101  12.424   1.344   2.444  0.2576  0.0367 -0.1348
  206MOL0     C27102  12.493   1.475   2.445 -0.4901 -0.1384  1.0073
  206MOL0     C27103  12.634   1.477   2.377  1.0302 -0.4565  0.5132
  206MOL0    Cl27104  12.751   1.360   2.458 -0.1043 -0.0584  0.3288
  206MOL0     C27105  11.515   0.991   2.314 -0.6445  1.0283  0.3134
  206MOL0     C27106  11.380   1.006   2.305 -0.7364 -0.5009 -0.3816
  206MOL0     O27107  11.135   1.042   2.155 -0.0630 -0.0060 -0.3412
  206MOL0     C27108  10.926   1.216   2.387  0.0491  0.2665 -0.6622
  206MOL0     C27109  10.795   1.240   2.410  0.1268 -0.1617  0.0077
  206MOL0     N27110  10.104   1.402   1.886  0.1060  0.4454 -0.7971
  206MOL0     N27111  10.002   1.448   1.833  0.3102  1.0820  0.0976
  206MOL0     C27112   9.498   0.733   2.388 -0.3964  0.1273  0.2503
  206MOL0     C27113   9.428   0.663   2.488  0.5592 -0.0995 -0.6428
  206MOL0     C27114   9.216   0.561   2.857  0.5707 -0.0778 -0.8288
  206MOL0     C27115   9.258   0.541   2.995 -0.1902 -0.3947 -0.6868
  206MOL0     C27116   9.165   0.493   3.086 -0.2510 -0.1121 -0.4113
  206MOL0     C27117   9.037   0.463   3.048  0.1673  0.9531 -0.4991
  206MOL0     O27118   8.944   0.417   3.143 -0.0144  0.6617 -0.8497
  206MOL0     C27119   8.916   0.275   3.131 -0.3008  0.0821  0.2124
  206MOL0     C27120   8.823   0.245   3.247 -0.8007 -0.7240  0.4090
  206MOL0     C27121   8.767   0.105   3.245 -0.6604  0.7883 -0.1690
  206MOL0     C27122   8.678   0.077   3.372  0.5737 -0.4827  0.2993
  206MOL0     C27123   8.574  -0.011   3.338 -0.7463  0.7326 -1.1125
  206MOL0     C27124   8.486  -0.061   3.278 -0.0118  0.6891 -0.9908
  206MOL0     C27125   8.998   0.471   2.909  0.4729 -0.1256  0.3532
  206MOL0     C27126   9.083   0.522   2.815 -0.3549 -0.9180  0.2376
  206MOL0     H27127   9.137   0.838   2.482  0.8595  0.3786 -1.4390
  206MOL0     H27128   9.253   0.960   2.324  0.2102  0.1787  0.0848
  206MOL0     H27129   9.533   1.100   2.367 -1.1516  0.1367  0.4320
  206MOL0     H27130   9.403   1.102   2.241 -0.0555 -1.7402 -3.4464
  206MOL0     H27131   9.670   1.068   2.122 -1.4699 -1.3374  0.2355
  206MOL0     H27132   9.660   1.225   2.202  1.4096  0.0079 -1.2813
  206MOL0     H27133   9.437   1.120   2.002 -1.9938  2.3516 -1.2689
  206MOL0     H27134   9.590   1.210   1.961 -0.1632  2.2568  0.9292
  206MOL0     H27135   9.375   1.335   1.982 -0.0503 -1.8035  0.0227
  206MOL0     H27136   9.401   1.331   2.164 -1.0142 -0.2149 -0.2949
  206MOL0     H27137   9.609   1.443   2.144 -1.4027  0.0414  0.9868
  206MOL0     H27138   9.480   1.533   2.077  1.8182  0.4986  2.6139
  206MOL0     H27139   9.559   1.504   1.846 -1.6356 -0.3670  1.0543
  206MOL0     H27140   9.683   1.398   1.892 -1.4601 -0.5620 -1.1755
  206MOL0     H27141   9.639   1.678   1.952 -1.3373 -0.6827 -2.4200
  206MOL0     H27142   9.747   1.584   2.065 -2.0541  0.3507  0.1407
  206MOL0     H27143   9.845   1.724   1.864 -0.5745  0.4398 -1.3127
  206MOL0     H27144   9.782   1.583   1.765 -0.3796  1.0075 -0.5190
  206MOL0     H27145  10.018   1.680   2.061  0.7170 -0.2077  1.3075
  206MOL0     H27146  10.272   1.572   2.115 -0.7073  1.0967 -2.1308
  206MOL0     H27147  10.339   1.470   1.990  1.4929  1.2121  1.9899
  206MOL0     H27148  10.259   1.262   2.101 -2.8349 -1.2636  1.3375
  206MOL0     H27149  10.219   1.354   2.248 -2.8660 -2.9614 -1.8646
  206MOL0     H27150  10.496   1.343   2.127  1.2149  2.3607  0.5890
  206MOL0     H27151  10.441   1.432   2.272  0.3361 -0.4932 -0.1117
  206MOL0     H27152  10.445   1.139   2.211 -3.4680 -1.4689  1.8160
  206MOL0     H27153  10.365   1.191   2.348 -1.5430 -0.2139 -2.0862
  206MOL0     H27154  10.643   1.111   2.132  0.8713 -0.8174 -2.3860
  206MOL0     H27155  10.874   1.028   2.110  1.4411  2.0928 -2.1134
  206MOL0     H27156  11.380   1.348   2.271  0.2397  0.4563 -2.9469
  206MOL0     H27157  11.617   1.312   2.282 -0.8604 -1.8364 -1.1760
  206MOL0     H27158  11.809   1.246   2.389  0.3532  1.0502 -1.1109
  206MOL0     H27159  11.825   1.219   2.213  3.6344 -0.1087  0.0567
  206MOL0     H27160  12.019   1.104   2.231  0.0574 -2.0283  0.4794
  206MOL0     H27161  12.008   1.046   2.387  2.0536  1.6331  0.5642
  206MOL0     H27162  11.999   1.302   2.461  2.1959 -2.2769  2.9968
  206MOL0     H27163  12.055   1.326   2.297  1.9757 -0.5216 -1.9062
  206MOL0     H27164  12.211   1.180   2.514  1.2065  3.4409  1.5278
  206MOL0     H27165  12.244   1.170   2.339  1.1308 -0.5917  0.4433
  206MOL0     H27166  12.232   1.426   2.507 -1.3944  0.1859 -1.1660
  206MOL0     H27167  12.252   1.420   2.337 -3.7587 -1.7339 -0.5455
  206MOL0     H27168  12.454   1.294   2.351  0.7299  1.4475 -0.7536
  206MOL0     H27169  12.442   1.285   2.535 -2.7530  0.7155  1.0302
  206MOL0     H27170  12.451   1.552   2.379  0.3690  0.3214  0.9757
  206MOL0     H27171  12.498   1.517   2.546  1.2985  1.8184  0.1947
  206MOL0     H27172  12.684   1.574   2.390  1.2099 -0.5435  0.4713
  206MOL0     H27173  12.621   1.453   2.271 -0.9982 -0.6823  0.7805
  206MOL0     H27174  11.563   0.894   2.316  0.5015  1.5844  0.7973
  206MOL0     H27175  11.322   0.914   2.305 -1.2269 -0.2794 -3.0992
  206MOL0     H27176  11.005   1.238   2.458  0.1011 -0.1271 -0.5939
  206MOL0     H27177  10.776   1.279   2.510  0.7546  1.5238 -0.4883
  206MOL0     H27178   9.593   0.688   2.361 -1.0762 -1.7853  0.9415
  206MOL0     H27179   9.469   0.575   2.537 -0.7657 -1.0340 -1.1672
  206MOL0     H27180   9.356   0.578   3.025 -0.3368 -0.8273  0.3716
  206MOL0     H27181   9.196   0.490   3.190  2.4271 -2.3307 -1.1482
  206MOL0     H27182   9.007   0.215   3.139  0.7636  1.7398  1.2440
  206MOL0     H27183   8.865   0.268   3.035  0.0136  3.9682 -0.3934
  206MOL0     H27184   8.877   0.260   3.341  2.3709 -3.0269 -0.9076
  206MOL0     H27185   8.744   0.321   3.246 -0.8292 -0.7617 -0.4524
  206MOL0     H27186   8.849   0.032   3.247 -1.0041  0.3805 -0.7465
  206MOL0     H27187   8.714   0.093   3.150 -2.1324 -1.3248  0.8324
  206MOL0     H27188   8.735   0.042   3.459 -0.4055  0.4133  1.3362
  206MOL0     H27189   8.636   0.173   3.402  0.7795 -0.6948  1.3287
  206MOL0     H27190   8.408  -0.112   3.225  0.1892 -0.1849 -0.4689
  206MOL0     H27191   8.901   0.437   2.876  0.8233 -3.5817  2.3781
  206MOL0     H27192   9.046   0.543   2.715 -0.6538  1.4443  0.7673
  207MOL0     O27193  10.999  10.754   1.645 -0.3709 -1.0132 -0.2973
  207MOL0     C27194  10.906  10.842   1.656 -0.1680  0.1263  0.2636
  207MOL0     O27195  10.886  10.924   1.758  0.6186 -0.3417  0.3708
  207MOL0     C27196  10.936  10.880   1.876 -0.8713 -0.2486  0.1786
  207MOL0     C27197  11.064  10.907   1.921 -0.5042 -1.2846 -0.0853
  207MOL0     C27198  11.114  10.865   2.046 -0.4668 -0.0315 -0.2535
  207MOL0     C27199  11.030  10.795   2.130  1.3729 -0.8791  0.1002
  207MOL0     O27200  11.081  10.775   2.252  0.6023  0.5463  0.1493
  207MOL0     C27201  10.997  10.819   2.365 -0.1414 -0.2103  0.3682
  207MOL0     C27202  11.067  10.940   2.420 -0.4606  0.4920 -0.2064
  207MOL0     C27203  11.215  10.906   2.467 -0.6375  0.0493 -0.1110
  207MOL0     C27204  11.264  11.021   2.556 -0.3100 -0.3803  0.1854
  207MOL0     C27205  11.402  10.988   2.613 -1.4816 -0.7494  1.0944
  207MOL0     C27206  11.397  10.951   2.760 -0.3948 -0.4128  0.1243
  207MOL0     C27207  11.325  10.823   2.797  0.5455 -0.0916 -1.3691
  207MOL0     C27208  11.371  10.793   2.942  0.3350 -0.2724  0.1671
  207MOL0     N27209  11.343  10.650   2.970 -0.1691  0.3347  0.3926
  207MOL0     C27210  11.405  10.531   2.931  0.6592  0.6525  0.3332
  207MOL0     C27211  11.335  10.436   2.996 -0.0492  0.5622  0.1532
  207MOL0     C27212  11.336  10.286   2.958 -0.7003 -0.6460 -0.2555
  207MOL0     C27213  11.248  10.213   3.058 -0.1752  0.1781  0.2969
  207MOL0     C27214  11.257  10.065   3.056 -0.0160  0.3250  0.2679
  207MOL0     C27215  11.199  10.012   2.923 -0.3986 -1.0518  0.7294
  207MOL0     O27216  11.055  10.040   2.900 -0.3232 -0.0407  0.4023
  207MOL0     C27217  10.982   9.941   2.845  1.5615  0.0940  0.1092
  207MOL0     C27218  11.026   9.824   2.784  0.0085  0.3041  0.2873
  207MOL0     C27219  10.939   9.721   2.741 -0.3324  0.8377 -0.8565
  207MOL0     C27220  10.800   9.734   2.753  0.0074 -0.2436  0.2615
  207MOL0     C27221  10.705   9.639   2.690  0.1064  0.2078  0.0713
  207MOL0     O27222  10.595   9.690   2.638  0.8500 -0.3585 -0.3942
  207MOL0     C27223  10.486   9.610   2.632 -0.7264  0.8792  1.0176
  207MOL0     C27224  10.419   9.556   2.747 -0.1060  0.5472  0.1580
  207MOL0     C27225  10.307   9.473   2.726  0.8040  0.3646 -0.7052
  207MOL0     C27226  10.244   9.458   2.598  0.5118  0.2980  0.4855
  207MOL0     O27227  10.128   9.382   2.573  0.0375  0.2096  0.7551
  207MOL0     C27228  10.050   9.332   2.682  0.3457 -0.5506 -0.5743
  207MOL0     C27229   9.939   9.250   2.616  0.7779  0.8460  0.3384
  207MOL0     C27230   9.869   9.173   2.727  0.1446  0.9330 -0.5404
  207MOL0     C27231   9.776   9.058   2.687  0.0665 -0.3351  1.0709
  207MOL0     C27232   9.652   9.100   2.628  0.2350 -0.4393 -0.1646
  207MOL0     C27233   9.568   8.977   2.602  0.3625  0.6035  0.1892
  207MOL0     C27234   9.421   9.008   2.544 -0.2005 -0.3127  0.4403
  207MOL0     C27235   9.329   8.892   2.499  0.2676  0.1528 -0.0570
  207MOL0    Cl27236   9.200   8.960   2.394 -0.3919  0.2146 -0.0784
  207MOL0     C27237  10.303   9.527   2.491  0.2254 -0.6016  0.1449
  207MOL0     C27238  10.425   9.596   2.510  0.4454 -0.0738 -0.8525
  207MOL0     O27239  10.731   9.519   2.703  0.2771  0.6130  0.1640
  207MOL0     C27240  10.756   9.851   2.814 -0.0099  0.9333  0.2483
  207MOL0     C27241  10.841   9.952   2.860 -0.8100  1.0338 -0.6513
  207MOL0     N27242  11.249  10.503   3.084 -0.0479  0.1763 -0.5559
  207MOL0     N27243  11.242  10.621   3.066 -0.3123  0.4644 -0.9064
  207MOL0     C27244  10.894  10.759   2.082 -0.4654  0.0835  0.2506
  207MOL0     C27245  10.855  10.787   1.953 -0.6910 -0.3547  0.5874
  207MOL0     C27246  10.819  10.841   1.541  0.3743  0.3402  0.4646
  207MOL0     C27247  10.684  10.833   1.563 -0.5677 -0.4650 -0.2840
  207MOL0     C27248  10.588  10.811   1.467  0.2567 -0.2365  0.6535
  207MOL0     C27249  10.636  10.794   1.332 -0.6656 -0.4192 -0.3797
  207MOL0     O27250  10.557  10.752   1.231  0.2694  0.0608 -0.5555
  207MOL0     C27251  10.459  10.849   1.190  1.0149  0.2401  1.4265
  207MOL0     C27252  10.326  10.799   1.236  0.1553  0.1692  0.7509
  207MOL0     C27253  10.206  10.848   1.151 -0.3499 -0.1056  0.2257
  207MOL0     C27254  10.076  10.772   1.202 -0.4456 -0.2901  0.2468
  207MOL0     C27255  10.057  10.786   1.349 -0.0919 -0.5013 -0.3253
  207MOL0     C27256  10.062  10.787   1.477  0.0119 -0.4249  0.4239
  207MOL0     C27257  10.773  10.804   1.304 -0.8310 -0.6006  0.6250
  207MOL0     C27258  10.869  10.828   1.407 -0.3029  0.0566  0.1586
  207MOL0     H27259  11.131  10.968   1.861  1.6367 -0.8091  2.6365
  207MOL0     H27260  11.207  10.897   2.091 -1.0515  1.3377  0.0417
  207MOL0     H27261  10.994  10.729   2.428 -0.9877 -0.0138  0.6183
  207MOL0     H27262  10.893  10.839   2.338  0.5642  3.3100 -0.2373
  207MOL0     H27263  11.010  10.967   2.510 -1.6970  2.6783 -1.5446
  207MOL0     H27264  11.062  11.031   2.358 -0.6754  0.3859 -0.3446
  207MOL0     H27265  11.282  10.893   2.381  0.2570  0.8246  0.4545
  207MOL0     H27266  11.211  10.814   2.527 -1.4130  0.7523  0.9453
  207MOL0     H27267  11.259  11.105   2.486  1.9834 -0.8512 -0.6324
  207MOL0     H27268  11.202  11.041   2.644 -0.1489 -0.9775  0.4383
  207MOL0     H27269  11.475  11.069   2.608  2.0881 -3.7647  0.6556
  207MOL0     H27270  11.453  10.906   2.561  1.1702  2.7158 -2.4027
  207MOL0     H27271  11.334  11.017   2.820  1.3872  0.1705  1.4670
  207MOL0     H27272  11.500  10.947   2.796 -0.3791  0.2343  0.1520
  207MOL0     H27273  11.216  10.833   2.792  0.5779  0.8034 -0.5225
  207MOL0     H27274  11.344  10.739   2.730  2.2734 -0.8372 -0.0014
  207MOL0     H27275  11.324  10.863   3.012  1.7806  0.1029  0.8131
  207MOL0     H27276  11.480  10.805   2.949  0.1717  2.6197 -0.8470
  207MOL0     H27277  11.487  10.512   2.862 -1.0446 -3.8348 -0.7554
  207MOL0     H27278  11.439  10.252   2.972 -0.6796 -0.8681 -0.9088
  207MOL0     H27279  11.310  10.262   2.854  1.5495 -0.1473 -0.9947
  207MOL0     H27280  11.150  10.256   3.035 -0.2471 -0.5718 -0.8526
  207MOL0     H27281  11.278  10.244   3.159 -0.6593  0.7639  0.2624
  207MOL0     H27282  11.361  10.036   3.069 -0.1518 -0.3546 -0.0922
  207MOL0     H27283  11.201  10.035   3.145  0.8210  1.5803  1.2382
  207MOL0     H27284  11.224   9.905   2.921 -1.6928 -1.3591 -0.8763
  207MOL0     H27285  11.253  10.052   2.837  0.2007 -2.2017  0.5529
  207MOL0     H27286  11.131   9.817   2.760 -0.3107  2.1996 -1.9484
  207MOL0     H27287  10.963   9.627   2.692 -0.4513 -0.3981  1.3445
  207MOL0     H27288  10.466   9.571   2.843  2.3180  1.2171 -1.0527
  207MOL0     H27289  10.274   9.418   2.814  1.3521 -0.3734 -0.9584
  207MOL0     H27290  10.009   9.414   2.741  1.5181  0.7226 -1.4914
  207MOL0     H27291  10.100   9.269   2.756 -0.2562  0.0847  0.3879
  207MOL0     H27292   9.986   9.177   2.548 -0.2344  0.5281 -0.0350
  207MOL0     H27293   9.861   9.307   2.565  2.4376  2.2472 -0.7422
  207MOL0     H27294   9.806   9.240   2.787 -0.0191 -0.4741  0.9127
  207MOL0     H27295   9.938   9.128   2.798 -0.9422 -0.0142 -0.0573
  207MOL0     H27296   9.825   8.997   2.611 -0.6290 -0.2354  0.5407
  207MOL0     H27297   9.747   9.009   2.780 -0.4736  0.9452  1.6043
  207MOL0     H27298   9.668   9.159   2.537 -2.0751 -1.5856 -1.3878
  207MOL0     H27299   9.602   9.164   2.701 -0.4231 -1.7249  0.5453
  207MOL0     H27300   9.557   8.910   2.687 -0.4922 -2.7769 -2.3553
  207MOL0     H27301   9.623   8.906   2.540 -1.6978 -1.8959  1.0766
  207MOL0     H27302   9.371   9.072   2.617  0.6664 -1.2239  1.8824
  207MOL0     H27303   9.425   9.067   2.453 -0.8547  0.5691  0.9640
  207MOL0     H27304   9.283   8.830   2.575 -0.6723  0.2956 -0.4972
  207MOL0     H27305   9.383   8.824   2.431 -3.3793 -1.1653 -1.8948
  207MOL0     H27306  10.256   9.542   2.394 -2.4404 -2.1334  1.0997
  207MOL0     H27307  10.467   9.656   2.430  1.7758  1.4577  0.8793
  207MOL0     H27308  10.650   9.866   2.830 -0.3746  0.3013 -1.3037
  207MOL0     H27309  10.808  10.039   2.916  1.3744  0.6568  1.4067
  207MOL0     H27310  10.821  10.703   2.139  0.1462 -1.8367 -0.7679
  207MOL0     H27311  10.762  10.750   1.913  0.4453 -2.6645 -0.0822
  207MOL0     H27312  10.644  10.852   1.661 -1.7313  0.2181 -0.8686
  207MOL0     H27313  10.485  10.809   1.501  0.2330 -1.5330  0.5711
  207MOL0     H27314  10.463  10.846   1.081 -2.1128 -1.5371  1.2444
  207MOL0     H27315  10.466  10.951   1.227 -1.8324 -0.0146  2.9028
  207MOL0     H27316  10.332  10.690   1.227 -1.2105  0.2260 -1.8472
  207MOL0     H27317  10.307  10.822   1.341  2.0453 -1.2534  1.4627
  207MOL0     H27318  10.212  10.819   1.046 -3.0464  0.1464 -0.0727
  207MOL0     H27319  10.201  10.956   1.136  1.5784 -0.1423 -1.0639
  207MOL0     H27320   9.988  10.812   1.150 -0.1790  0.1005  0.0951
  207MOL0     H27321  10.081  10.663   1.198 -3.2101 -0.5584  1.5242
  207MOL0     H27322  10.053  10.785   1.584  3.7153  0.0523  0.8808
  207MOL0     H27323  10.813  10.792   1.203  0.0135  0.4494  0.8129
  207MOL0     H27324  10.971  10.816   1.373 -0.5411 -2.5560  0.1823
  208MOL0     O27325   7.561   6.303   0.178  0.7935  1.0514  0.6104
  208MOL0     C27326   7.675   6.347   0.203  0.7705 -0.2024  0.1117
  208MOL0     O27327   7.698   6.470   0.261 -0.4369 -0.5867  0.6649
  208MOL0     C27328   7.589   6.533   0.329  0.0495  0.7332  0.1808
  208MOL0     C27329   7.586   6.548   0.469 -0.5605  0.0790  0.0138
  208MOL0     C27330   7.467   6.584   0.529 -0.3827  0.6900 -1.2009
  208MOL0     C27331   7.345   6.579   0.458  0.2098  0.5652 -0.5472
  208MOL0     O27332   7.223   6.568   0.517 -0.7878  0.3942 -0.2044
  208MOL0     C27333   7.195   6.615   0.648  0.3291 -0.1541  0.3943
  208MOL0     C27334   7.054   6.564   0.684  0.1505 -0.4638 -0.7920
  208MOL0     C27335   6.985   6.657   0.794 -0.0079 -0.3792  0.5021
  208MOL0     C27336   6.871   6.577   0.858  0.1645 -0.4224 -0.6425
  208MOL0     C27337   6.799   6.665   0.969 -0.1133 -0.0215 -0.0602
  208MOL0     C27338   6.670   6.727   0.912  0.0125 -0.4890 -0.6409
  208MOL0     C27339   6.574   6.758   1.017  0.4403 -0.5474  0.2149
  208MOL0     C27340   6.460   6.861   0.973  0.0097  0.2771  0.0328
  208MOL0     N27341   6.348   6.794   0.905 -0.3074 -0.6589  0.0249
  208MOL0     C27342   6.344   6.759   0.779 -0.7039 -1.0278 -0.2941
  208MOL0     C27343   6.230   6.687   0.762 -0.9183 -0.0398  0.3180
  208MOL0     C27344   6.202   6.612   0.629 -0.1033  0.2236  0.3062
  208MOL0     C27345   6.076   6.665   0.556 -0.1503  0.0076 -0.2848
  208MOL0     C27346   5.951   6.682   0.638  0.3352  0.3792 -0.3539
  208MOL0     C27347   5.826   6.684   0.552 -0.0377 -0.1713 -0.2799
  208MOL0     O27348   5.778   6.551   0.557 -0.2286  0.4952 -0.1582
  208MOL0     C27349   5.646   6.527   0.566  0.5771 -0.4037 -0.8149
  208MOL0     C27350   5.540   6.624   0.559 -0.6031  0.0047 -0.4680
  208MOL0     C27351   5.407   6.576   0.548  0.3888  0.1372  0.1222
  208MOL0     C27352   5.374   6.436   0.548  0.1390 -0.4360 -0.2132
  208MOL0     C27353   5.230   6.389   0.541  0.4816 -0.0404 -0.0959
  208MOL0     O27354   5.130   6.489   0.550  0.1855  0.6274  0.0146
  208MOL0     C27355   5.004   6.456   0.521  0.0626 -0.0424  0.0508
  208MOL0     C27356   4.964   6.474   0.391  0.3705  0.2236  0.2221
  208MOL0     C27357   4.836   6.444   0.352  0.4207 -0.7022  1.1486
  208MOL0     C27358   4.763   6.354   0.430  0.2086 -0.7049 -0.0830
  208MOL0     O27359   4.637   6.321   0.383 -0.2620  0.6646 -0.0043
  208MOL0     C27360   4.544   6.276   0.479  0.1829  0.2604 -1.0070
  208MOL0     C27361   4.425   6.224   0.399  0.2036  0.5970 -0.2552
  208MOL0     C27362   4.466   6.099   0.318 -0.4046  0.9514  0.6658
  208MOL0     C27363   4.374   6.086   0.196  0.5340  1.1179  0.4599
  208MOL0     C27364   4.404   5.951   0.115  0.3959  0.0063 -0.3170
  208MOL0     C27365   4.330   5.939  -0.019 -0.1918  0.0840 -0.0926
  208MOL0     C27366   4.182   5.968  -0.007 -0.0488 -0.2260  0.1377
  208MOL0     C27367   4.113   5.880   0.094 -0.0036 -0.5179  0.3421
  208MOL0    Cl27368   3.948   5.883   0.058 -0.3032 -0.1438  0.3082
  208MOL0     C27369   4.807   6.327   0.557  0.2410  0.4329 -0.1297
  208MOL0     C27370   4.925   6.385   0.607  0.4177 -0.2728 -0.1795
  208MOL0     O27371   5.214   6.275   0.522  0.4777  0.8841 -0.1960
  208MOL0     C27372   5.483   6.351   0.577  0.2012  0.1009 -0.1077
  208MOL0     C27373   5.612   6.396   0.583  0.7585  0.0914 -0.5052
  208MOL0     N27374   6.173   6.677   0.885  0.3170  0.7806 -0.4010
  208MOL0     N27375   6.247   6.725   0.973 -0.3210  0.5375 -0.6399
  208MOL0     C27376   7.346   6.569   0.322 -1.0797  0.2143  0.6293
  208MOL0     C27377   7.471   6.561   0.259 -0.0839  0.6600  0.0662
  208MOL0     C27378   7.782   6.272   0.144  0.5576  0.9458 -0.5984
  208MOL0     C27379   7.881   6.358   0.088  0.0035 -0.0393 -0.2270
  208MOL0     C27380   7.996   6.296   0.021 -0.8251 -0.2785 -0.0280
  208MOL0     C27381   8.013   6.160   0.026  0.9797 -0.8833 -0.0841
  208MOL0     O27382   8.125   6.115  -0.041 -0.0918 -0.2256  0.0291
  208MOL0     C27383   8.155   5.977  -0.033  0.8731 -0.1980 -0.3365
  208MOL0     C27384   8.302   5.964  -0.087  0.3092 -0.7092 -0.5544
  208MOL0     C27385   8.336   5.839  -0.168  0.5793 -0.1661  0.6893
  208MOL0     C27386   8.336   5.717  -0.079 -0.1405  0.6338  0.2303
  208MOL0     C27387   8.357   5.587  -0.150 -0.0720 -0.5036  0.4031
  208MOL0     C27388   8.353   5.480  -0.219 -0.1356  0.6460 -1.2120
  208MOL0     C27389   7.916   6.077   0.084 -0.7304 -0.4779  0.1476
  208MOL0     C27390   7.796   6.132   0.140 -1.1025  0.6763 -0.6038
  208MOL0     H27391   7.677   6.515   0.517  0.9490  0.6727 -2.2530
  208MOL0     H27392   7.468   6.602   0.636  0.3416  1.2610 -1.2967
  208MOL0     H27393   7.191   6.725   0.644  2.8935 -0.0228 -1.7633
  208MOL0     H27394   7.270   6.575   0.716 -0.4027 -1.5920  0.3929
  208MOL0     H27395   7.065   6.460   0.717 -2.4884 -0.3776  0.6124
  208MOL0     H27396   6.994   6.562   0.593 -1.2386  4.4984 -0.2576
  208MOL0     H27397   6.959   6.756   0.757  0.2712 -0.9611 -1.3474
  208MOL0     H27398   7.071   6.662   0.861 -0.9873 -1.1926  1.8832
  208MOL0     H27399   6.809   6.558   0.770  1.2163  0.3215 -1.5608
  208MOL0     H27400   6.898   6.491   0.920  1.6383  0.7593  0.4114
  208MOL0     H27401   6.868   6.741   1.006  0.5475 -0.3642 -0.5821
  208MOL0     H27402   6.766   6.606   1.055 -2.5532  1.3507  0.0638
  208MOL0     H27403   6.617   6.667   0.837 -0.0777 -0.1076 -0.8858
  208MOL0     H27404   6.699   6.818   0.859  2.3273 -0.7920 -0.0073
  208MOL0     H27405   6.523   6.667   1.049  0.3436 -0.1645  1.1730
  208MOL0     H27406   6.630   6.798   1.102 -1.6753 -2.6308  2.7722
  208MOL0     H27407   6.503   6.940   0.912  0.6714  1.3305  1.8038
  208MOL0     H27408   6.417   6.921   1.053 -2.4671  1.1095 -1.7820
  208MOL0     H27409   6.427   6.761   0.709  0.4248  0.7089  0.9976
  208MOL0     H27410   6.178   6.509   0.658  0.4394 -0.2327 -0.8061
  208MOL0     H27411   6.294   6.618   0.571  0.0907  1.3599  0.7176
  208MOL0     H27412   6.042   6.596   0.478  0.0118 -2.1160  1.4074
  208MOL0     H27413   6.102   6.765   0.520 -1.0650  0.3652  0.0404
  208MOL0     H27414   5.946   6.595   0.704 -0.3052 -2.4938 -3.8711
  208MOL0     H27415   5.958   6.780   0.688  1.1359 -0.6748  1.7196
  208MOL0     H27416   5.854   6.714   0.451  3.3977 -0.7253  0.3917
  208MOL0     H27417   5.755   6.757   0.592  2.5035  1.2078  2.1005
  208MOL0     H27418   5.565   6.729   0.574  4.4543 -1.3760  3.1388
  208MOL0     H27419   5.336   6.657   0.535  0.9055  0.5366 -0.2392
  208MOL0     H27420   5.037   6.524   0.327 -0.2172  2.3836  1.1499
  208MOL0     H27421   4.800   6.469   0.253 -0.8518  1.0521  1.9994
  208MOL0     H27422   4.517   6.363   0.539 -0.6257 -0.1881 -0.6966
  208MOL0     H27423   4.585   6.195   0.541 -0.4819  1.8291  1.6505
  208MOL0     H27424   4.392   6.300   0.327 -0.4862 -0.9277 -1.6406
  208MOL0     H27425   4.347   6.206   0.473 -0.6300  1.1921 -0.9701
  208MOL0     H27426   4.462   6.002   0.368 -2.5657 -0.8571 -2.6884
  208MOL0     H27427   4.567   6.123   0.284 -0.3681  1.3088  1.0262
  208MOL0     H27428   4.271   6.072   0.230  0.5187 -3.0848 -0.6833
  208MOL0     H27429   4.386   6.171   0.129 -1.8556  2.6373  1.7998
  208MOL0     H27430   4.369   5.872   0.181 -1.0976 -0.4137 -1.5625
  208MOL0     H27431   4.513   5.945   0.112  0.5017  0.5252  1.2571
  208MOL0     H27432   4.347   5.838  -0.059  1.0719 -0.4737  1.7162
  208MOL0     H27433   4.377   6.015  -0.082 -1.4345 -0.0939 -1.2873
  208MOL0     H27434   4.168   6.074   0.015 -2.3711  0.2838 -3.0108
  208MOL0     H27435   4.142   5.936  -0.103  2.2146  0.9948 -1.3234
  208MOL0     H27436   4.127   5.929   0.191  0.4283  0.8362 -0.3814
  208MOL0     H27437   4.141   5.774   0.096 -0.4436 -0.7081 -1.4034
  208MOL0     H27438   4.758   6.252   0.619  2.0011 -0.5812  0.1163
  208MOL0     H27439   4.987   6.369   0.695  0.0270  0.2069  0.1887
  208MOL0     H27440   5.480   6.244   0.597 -1.0744  0.3527  1.1649
  208MOL0     H27441   5.693   6.327   0.604 -0.0317 -1.0061 -0.9734
  208MOL0     H27442   7.255   6.560   0.264 -2.2186 -2.2053  2.6191
  208MOL0     H27443   7.475   6.552   0.151  1.8096  0.6194  0.0941
  208MOL0     H27444   7.866   6.464   0.076 -0.9076 -0.2240 -0.8336
  208MOL0     H27445   8.067   6.369  -0.015 -1.1417  0.8875  1.5793
  208MOL0     H27446   8.091   5.914  -0.095  1.8845 -0.2408 -1.3798
  208MOL0     H27447   8.142   5.927   0.063  2.1760 -2.7424 -1.4035
  208MOL0     H27448   8.334   6.053  -0.143  3.0066 -1.4174 -0.2989
  208MOL0     H27449   8.371   5.974  -0.003  2.1807  1.2293 -2.1805
  208MOL0     H27450   8.432   5.852  -0.217 -1.0223  1.2765 -2.3735
  208MOL0     H27451   8.253   5.831  -0.239  0.4827  2.2869  0.4406
  208MOL0     H27452   8.398   5.726   0.011 -1.4018 -1.0491  1.3408
  208MOL0     H27453   8.240   5.712  -0.027  0.1381 -0.6932  0.6559
  208MOL0     H27454   8.353   5.382  -0.263 -1.7118 -0.0956  0.3024
  208MOL0     H27455   7.910   5.969   0.086  0.4388 -0.5505  1.5965
  208MOL0     H27456   7.720   6.066   0.180  0.8460 -0.8656  0.7913
  209MOL0     O27457   6.007   6.063   5.083 -0.2196  0.2586  0.5722
  209MOL0     C27458   5.953   6.004   5.172  0.0857 -0.3221 -0.1996
  209MOL0     O27459   6.015   5.921   5.262 -0.2298 -0.2850 -0.1275
  209MOL0     C27460   6.144   5.886   5.242  0.8031  0.0249 -1.0095
  209MOL0     C27461   6.175   5.759   5.292 -0.9204 -0.0588 -0.5526
  209MOL0     C27462   6.300   5.705   5.295 -0.4646  0.2264  0.3575
  209MOL0     C27463   6.404   5.780   5.238  0.1361 -0.7387  0.2324
  209MOL0     O27464   6.527   5.716   5.216  0.4048 -0.4162 -0.0513
  209MOL0     C27465   6.632   5.762   5.303  0.4082  0.7657  0.2935
  209MOL0     C27466   6.759   5.669   5.302  0.4748 -0.2073  0.9478
  209MOL0     C27467   6.884   5.724   5.364  0.3957  0.2972 -0.1497
  209MOL0     C27468   6.995   5.608   5.347  0.8303  0.1525  0.7575
  209MOL0     C27469   7.139   5.647   5.366  0.0953  0.0309  0.1624
  209MOL0     C27470   7.168   5.662   5.513  0.5459 -0.7209  0.7731
  209MOL0     C27471   7.320   5.681   5.525  0.4738 -0.7789 -0.4579
  209MOL0     C27472   7.354   5.705   5.671 -0.1459 -0.1057 -0.1181
  209MOL0     N27473   7.490   5.735   5.701 -0.5210 -0.2244  0.3099
  209MOL0     C27474   7.590   5.759   5.610 -0.3960  0.1321  0.5716
  209MOL0     C27475   7.697   5.787   5.692 -0.1247 -0.5039 -0.3549
  209MOL0     C27476   7.823   5.852   5.638  0.5535  0.5267  0.2172
  209MOL0     C27477   7.928   5.760   5.694 -0.3218  1.1965  0.0002
  209MOL0     C27478   8.026   5.721   5.583 -0.6950  0.1253 -0.4232
  209MOL0     C27479   7.963   5.602   5.499 -0.0826 -0.5033  0.0494
  209MOL0     O27480   8.033   5.591   5.378 -0.1091  0.0952  0.1577
  209MOL0     C27481   7.994   5.490   5.294 -0.1654 -0.0516 -0.3834
  209MOL0     C27482   8.070   5.473   5.182  0.1976 -0.3718  0.7616
  209MOL0     C27483   8.032   5.385   5.080 -0.2694 -0.1633  0.7028
  209MOL0     C27484   7.917   5.300   5.099  0.0805 -0.7408 -0.1942
  209MOL0     C27485   7.860   5.213   4.993  0.8015 -0.6934 -0.0105
  209MOL0     O27486   7.912   5.229   4.871 -0.2570  0.2861  0.2894
  209MOL0     C27487   7.855   5.163   4.761  0.4906  0.3122 -0.2684
  209MOL0     C27488   7.897   5.205   4.633 -0.3690 -0.0476  0.1120
  209MOL0     C27489   7.854   5.142   4.515  0.6626  0.7068  0.0784
  209MOL0     C27490   7.776   5.014   4.517  0.1489 -0.4652  0.2003
  209MOL0     O27491   7.744   4.959   4.394  0.1398  0.1541 -0.1252
  209MOL0     C27492   7.633   4.870   4.393  0.0486  0.9033  0.1062
  209MOL0     C27493   7.604   4.826   4.243  0.0410  0.9312 -0.9676
  209MOL0     C27494   7.727   4.798   4.156  0.6482 -0.4927 -1.1228
  209MOL0     C27495   7.755   4.656   4.122 -0.5413  0.6136  0.5738
  209MOL0     C27496   7.785   4.629   3.974 -0.5065  0.0582 -0.1318
  209MOL0     C27497   7.902   4.723   3.926 -0.6980  0.0615 -0.9110
  209MOL0     C27498   7.906   4.718   3.772  0.4555  0.0180  0.7490
  209MOL0     C27499   8.022   4.782   3.696  0.1583 -0.5176  0.4234
  209MOL0    Cl27500   8.065   4.944   3.757 -0.0752  0.5243  0.1342
  209MOL0     C27501   7.723   4.971   4.647  0.2819  0.2534 -0.1496
  209MOL0     C27502   7.766   5.047   4.761 -0.1778 -0.1742  0.1602
  209MOL0     O27503   7.779   5.129   5.029  0.4863 -0.1335 -0.4798
  209MOL0     C27504   7.836   5.320   5.208 -0.0611 -0.6208 -0.0845
  209MOL0     C27505   7.884   5.412   5.305  0.3718 -0.2233 -0.5369
  209MOL0     N27506   7.657   5.782   5.828 -0.2961 -0.0036  0.2518
  209MOL0     N27507   7.540   5.731   5.827 -0.2441  0.3677  0.4316
  209MOL0     C27508   6.375   5.906   5.180 -0.7026 -0.4289 -0.6469
  209MOL0     C27509   6.251   5.959   5.193  0.4165  0.5205  0.2968
  209MOL0     C27510   5.812   6.030   5.204 -0.0491 -0.2268 -0.3023
  209MOL0     C27511   5.749   6.141   5.143 -0.3747 -0.0395  0.4267
  209MOL0     C27512   5.610   6.165   5.138  0.5092 -0.3721 -0.3734
  209MOL0     C27513   5.534   6.090   5.220 -0.0320 -0.0795 -0.4158
  209MOL0     O27514   5.400   6.108   5.223  0.1205 -0.0530  0.3140
  209MOL0     C27515   5.344   6.243   5.245 -0.4370  0.6065  0.3240
  209MOL0     C27516   5.262   6.289   5.121  0.1762  0.5648 -0.2579
  209MOL0     C27517   5.203   6.427   5.144  0.3968  0.7139  0.4191
  209MOL0     C27518   5.186   6.499   5.012 -0.0774 -1.1433 -0.1442
  209MOL0     C27519   5.321   6.557   4.984  0.2671  0.1748  0.1922
  209MOL0     C27520   5.434   6.577   4.954  0.1403 -1.2706 -0.9026
  209MOL0     C27521   5.589   5.981   5.287  1.1693  0.4246 -0.3834
  209MOL0     C27522   5.726   5.955   5.278 -0.6509  0.6445 -0.2922
  209MOL0     H27523   6.091   5.699   5.326 -1.0077  1.1813  1.5945
  209MOL0     H27524   6.319   5.603   5.325  1.6837  0.4825  0.0716
  209MOL0     H27525   6.589   5.774   5.403 -3.4950  2.0376 -1.3361
  209MOL0     H27526   6.667   5.856   5.260  2.1527  0.1973  0.4223
  209MOL0     H27527   6.781   5.643   5.198 -2.6425  0.1508  0.0793
  209MOL0     H27528   6.729   5.573   5.345 -1.0551 -1.6499 -2.9286
  209MOL0     H27529   6.875   5.764   5.466  1.4183  0.7955 -0.2444
  209MOL0     H27530   6.914   5.813   5.309 -1.0131  2.5391  2.4734
  209MOL0     H27531   6.955   5.528   5.410 -2.1709  2.6627  2.2825
  209MOL0     H27532   6.996   5.574   5.243 -1.5635  0.0534  0.7313
  209MOL0     H27533   7.150   5.742   5.314  0.8081  0.0250  0.2930
  209MOL0     H27534   7.210   5.573   5.326  1.9075  0.5545  2.2179
  209MOL0     H27535   7.136   5.573   5.568 -2.5905  0.2633  0.7180
  209MOL0     H27536   7.113   5.746   5.556  0.0652  1.0501 -2.9417
  209MOL0     H27537   7.365   5.592   5.480 -1.3180 -1.3820 -1.1223
  209MOL0     H27538   7.353   5.774   5.476  3.0675  0.3874  3.0882
  209MOL0     H27539   7.327   5.618   5.731  0.9971  0.6801  1.6078
  209MOL0     H27540   7.298   5.793   5.703  0.3947 -0.1454  0.9795
  209MOL0     H27541   7.586   5.776   5.503  1.4041  1.8404  0.7220
  209MOL0     H27542   7.841   5.957   5.664 -0.4739  0.9588 -0.7311
  209MOL0     H27543   7.819   5.844   5.529  1.6161  0.3522  0.1853
  209MOL0     H27544   7.892   5.675   5.751  3.4790  0.7841  2.1224
  209MOL0     H27545   7.979   5.818   5.772 -1.2783 -0.4254  1.8985
  209MOL0     H27546   8.044   5.805   5.516 -3.4868  0.0877 -1.3575
  209MOL0     H27547   8.122   5.681   5.617 -0.8075 -2.9947 -3.2593
  209MOL0     H27548   7.863   5.636   5.470  1.3716  3.0562 -1.2893
  209MOL0     H27549   7.951   5.512   5.561 -2.4439 -0.4484 -0.2228
  209MOL0     H27550   8.154   5.542   5.177 -0.6904  0.6640 -1.2846
  209MOL0     H27551   8.098   5.390   4.993 -1.8976 -0.7816 -0.6372
  209MOL0     H27552   7.971   5.285   4.628  0.0019 -0.1178  2.9416
  209MOL0     H27553   7.887   5.180   4.419 -1.4835  3.0482  0.1670
  209MOL0     H27554   7.542   4.917   4.433 -3.1333 -3.6892 -0.9941
  209MOL0     H27555   7.643   4.781   4.455  1.7642  0.1462 -1.1791
  209MOL0     H27556   7.545   4.904   4.194 -1.4468  1.0918  0.9492
  209MOL0     H27557   7.542   4.736   4.252  1.7172 -0.0321  2.1769
  209MOL0     H27558   7.821   4.850   4.176  0.0909 -0.1752  0.8086
  209MOL0     H27559   7.718   4.857   4.064  1.8481  2.0779  0.2944
  209MOL0     H27560   7.847   4.634   4.177  1.0573 -0.5330 -2.3316
  209MOL0     H27561   7.686   4.584   4.168  1.5785 -1.7763  0.2146
  209MOL0     H27562   7.698   4.647   3.910  0.7116  1.6860 -1.4629
  209MOL0     H27563   7.813   4.523   3.969 -2.3677 -0.7970  3.7357
  209MOL0     H27564   7.993   4.679   3.968 -1.3600 -1.7577 -1.3296
  209MOL0     H27565   7.894   4.831   3.946  1.7320  0.1163  0.2560
  209MOL0     H27566   7.920   4.613   3.746  2.1841  0.9132 -2.4698
  209MOL0     H27567   7.807   4.745   3.735  0.4500 -0.6877  0.2332
  209MOL0     H27568   8.008   4.789   3.588  2.2724 -1.5579  0.0305
  209MOL0     H27569   8.109   4.716   3.700 -0.5368 -1.3956  2.3689
  209MOL0     H27570   7.673   4.875   4.649  0.5741  0.0516  3.3781
  209MOL0     H27571   7.743   4.989   4.850  2.5374  0.0829  1.1311
  209MOL0     H27572   7.745   5.264   5.227 -0.0781 -0.9427 -1.0645
  209MOL0     H27573   7.809   5.432   5.380 -0.2477 -0.6317 -1.0359
  209MOL0     H27574   6.457   5.959   5.132 -0.6146 -1.0237 -1.1718
  209MOL0     H27575   6.235   6.058   5.152 -1.2986  0.1731  0.0589
  209MOL0     H27576   5.798   6.218   5.084 -2.8050  1.1416 -0.1902
  209MOL0     H27577   5.571   6.248   5.082 -1.6009  0.9340  2.7430
  209MOL0     H27578   5.425   6.315   5.265  1.5736 -1.2037 -0.8862
  209MOL0     H27579   5.288   6.254   5.339  1.3371 -0.6695  1.6123
  209MOL0     H27580   5.325   6.285   5.031 -1.4335  0.4819 -1.4430
  209MOL0     H27581   5.187   6.210   5.112 -1.2647  1.3813  3.0202
  209MOL0     H27582   5.282   6.482   5.197  0.7026  1.3447 -0.6735
  209MOL0     H27583   5.102   6.421   5.184 -0.4782  2.1269 -1.4485
  209MOL0     H27584   5.146   6.435   4.933 -0.3234  0.6938 -1.5887
  209MOL0     H27585   5.116   6.582   5.027 -0.9283 -1.3798 -2.4355
  209MOL0     H27586   5.539   6.588   4.937 -0.2801  0.6063 -2.8152
  209MOL0     H27587   5.539   5.898   5.337  1.7753  0.7784  0.8477
  209MOL0     H27588   5.759   5.879   5.349 -1.2671  0.6716  0.0344
  210MOL0     O27589   8.925  11.263   2.935  0.2299 -0.6744  0.0105
  210MOL0     C27590   9.014  11.248   3.019  0.1309 -0.9114  0.7764
  210MOL0     O27591   9.030  11.149   3.115  1.1681 -0.3429 -0.0146
  210MOL0     C27592   8.942  11.043   3.106  0.1363  0.1342 -0.0116
  210MOL0     C27593   8.972  10.944   3.006 -0.2339  0.1271  0.2107
  210MOL0     C27594   8.897  10.839   2.995 -0.3114  0.5728  0.1545
  210MOL0     C27595   8.790  10.815   3.084 -0.5217  0.6544 -0.0856
  210MOL0     O27596   8.730  10.699   3.069  0.0417 -0.7475  0.0412
  210MOL0     C27597   8.610  10.686   3.154 -0.4965  0.0867  0.4650
  210MOL0     C27598   8.558  10.547   3.117  0.0304  0.0439  0.4422
  210MOL0     C27599   8.449  10.517   3.215  0.2917  0.5910  0.3990
  210MOL0     C27600   8.396  10.374   3.193 -0.0516  0.3146 -0.4227
  210MOL0     C27601   8.285  10.348   3.288 -0.3190  0.1889  0.3676
  210MOL0     C27602   8.284  10.196   3.310  0.2008  0.5049 -0.6256
  210MOL0     C27603   8.211  10.146   3.433 -0.0512 -0.5496  0.2392
  210MOL0     C27604   8.067  10.195   3.443  0.1071  0.6724  0.7190
  210MOL0     N27605   7.981  10.083   3.511 -0.7867  0.3117  0.2502
  210MOL0     C27606   7.850  10.061   3.484  0.0023  0.2196 -0.2345
  210MOL0     C27607   7.815   9.952   3.569  0.0147  0.1887  0.4751
  210MOL0     C27608   7.695   9.872   3.572  0.1585 -0.2436 -0.5198
  210MOL0     C27609   7.636   9.834   3.434  0.1603  0.1916  0.7041
  210MOL0     C27610   7.554   9.699   3.444 -0.0496  0.4078 -0.0197
  210MOL0     C27611   7.428   9.718   3.518  0.6677 -0.2749 -0.8314
  210MOL0     O27612   7.359   9.817   3.445  0.6197 -0.3229 -0.5432
  210MOL0     C27613   7.247   9.881   3.487  0.0119  0.6342 -0.0690
  210MOL0     C27614   7.173   9.834   3.599  0.0675 -0.9731 -0.3629
  210MOL0     C27615   7.050   9.887   3.646  0.4357 -0.6747  0.8650
  210MOL0     C27616   7.000  10.001   3.577 -0.2899  0.1298 -0.2812
  210MOL0     C27617   6.871  10.061   3.613  0.2826 -0.4923  0.4150
  210MOL0     O27618   6.835  10.175   3.553  0.0262 -0.4530  0.0243
  210MOL0     C27619   6.722  10.249   3.585  0.1217  0.3758  0.6382
  210MOL0     C27620   6.614  10.205   3.662  0.0358 -1.0256  0.3438
  210MOL0     C27621   6.495  10.291   3.688 -0.2539  0.4980  0.9648
  210MOL0     C27622   6.486  10.420   3.632  0.6438  1.1035 -0.3590
  210MOL0     O27623   6.392  10.514   3.656 -0.9712 -0.2546 -0.2735
  210MOL0     C27624   6.297  10.489   3.763 -0.0511  0.5266  1.1851
  210MOL0     C27625   6.212  10.611   3.756  0.2407 -0.1994 -0.2221
  210MOL0     C27626   6.121  10.612   3.883  0.9334  0.3276  0.0746
  210MOL0     C27627   6.011  10.718   3.873 -0.7971  0.4448 -0.8841
  210MOL0     C27628   5.908  10.700   3.979  0.3726  0.0064  1.5509
  210MOL0     C27629   5.799  10.802   3.952 -0.1586  0.1337  0.2607
  210MOL0     C27630   5.707  10.816   4.068 -0.6396 -0.4092  0.3757
  210MOL0     C27631   5.614  10.939   4.056 -0.5166 -1.0962 -0.8065
  210MOL0    Cl27632   5.456  10.890   4.126  0.1847  0.1429  0.0957
  210MOL0     C27633   6.599  10.464   3.569 -0.2492  0.2921 -0.7552
  210MOL0     C27634   6.713  10.388   3.546 -0.5636  0.4827 -0.0385
  210MOL0     O27635   6.811  10.005   3.701  0.3633 -0.4497  0.3226
  210MOL0     C27636   7.076  10.049   3.463  0.4598  1.0586  0.6868
  210MOL0     C27637   7.206   9.991   3.425 -0.8101 -0.9093  0.0272
  210MOL0     N27638   7.933   9.920   3.644  0.4434 -0.1756  0.3531
  210MOL0     N27639   8.022   9.997   3.611  0.1705 -0.2499  1.2398
  210MOL0     C27640   8.761  10.916   3.186  1.1011 -0.0687  0.5076
  210MOL0     C27641   8.841  11.031   3.200 -0.6737 -0.5318  0.4734
  210MOL0     C27642   9.137  11.344   3.005 -0.1732  0.7158  0.3812
  210MOL0     C27643   9.252  11.329   3.084  0.3304 -0.4369 -0.7373
  210MOL0     C27644   9.342  11.425   3.078 -0.6769 -0.4472 -0.9342
  210MOL0     C27645   9.338  11.525   2.985  0.4324  0.1695  1.0050
  210MOL0     O27646   9.434  11.626   2.973 -0.1063  0.4087  0.1566
  210MOL0     C27647   9.528  11.631   3.074  0.3069  0.3182  0.1602
  210MOL0     C27648   9.624  11.753   3.054  0.4725  0.7061 -0.4303
  210MOL0     C27649   9.671  11.789   2.913 -0.0831  0.3419 -0.2909
  210MOL0     C27650   9.763  11.906   2.909  0.3107 -0.1059  0.1442
  210MOL0     C27651   9.873  11.885   3.000  0.0855 -0.4151  0.6811
  210MOL0     C27652   9.971  11.868   3.062  0.2161 -0.4983 -0.1910
  210MOL0     C27653   9.228  11.525   2.897 -0.1745 -0.0466 -1.1401
  210MOL0     C27654   9.125  11.438   2.909 -0.9511  0.1646 -1.7344
  210MOL0     H27655   9.057  10.963   2.942 -0.8349  1.5801 -0.1826
  210MOL0     H27656   8.926  10.757   2.930  2.3214  1.3057  0.2683
  210MOL0     H27657   8.538  10.763   3.127 -0.8496 -1.3276 -3.2603
  210MOL0     H27658   8.639  10.686   3.259 -1.5455  3.0735  0.8313
  210MOL0     H27659   8.637  10.471   3.109 -0.7189 -0.6270 -0.9095
  210MOL0     H27660   8.511  10.553   3.018 -1.8028  2.6353  1.3664
  210MOL0     H27661   8.362  10.577   3.190 -0.3102 -0.5097 -0.1782
  210MOL0     H27662   8.482  10.528   3.319  0.1024 -0.2913  0.5552
  210MOL0     H27663   8.361  10.354   3.091 -0.4213 -0.1059 -0.2169
  210MOL0     H27664   8.488  10.319   3.211  1.1057  2.7186  1.6262
  210MOL0     H27665   8.194  10.389   3.243  0.1279  0.2082 -0.5237
  210MOL0     H27666   8.302  10.402   3.382 -1.1079  1.3540 -0.1381
  210MOL0     H27667   8.385  10.159   3.325  0.3936  0.8994 -0.9362
  210MOL0     H27668   8.252  10.140   3.222 -0.3601 -1.7913  0.9464
  210MOL0     H27669   8.203  10.037   3.433 -1.8276 -0.4457  0.2855
  210MOL0     H27670   8.270  10.162   3.525  3.2919 -1.2435 -1.6159
  210MOL0     H27671   8.029  10.200   3.340 -1.4598 -2.1047  1.0632
  210MOL0     H27672   8.060  10.291   3.495  0.7633 -0.2329  2.5388
  210MOL0     H27673   7.795  10.108   3.404  2.9991  2.7755 -0.9919
  210MOL0     H27674   7.633   9.946   3.625  0.0243 -2.2833  2.3967
  210MOL0     H27675   7.709   9.791   3.644 -0.4508  0.9859  1.0539
  210MOL0     H27676   7.727   9.826   3.374  1.1106 -1.2592  2.2222
  210MOL0     H27677   7.578   9.915   3.391  0.9810  1.1914  1.4348
  210MOL0     H27678   7.530   9.657   3.346 -2.2286  0.0869  0.5879
  210MOL0     H27679   7.611   9.626   3.502  0.3205 -0.9205 -1.9842
  210MOL0     H27680   7.449   9.750   3.620 -0.1267 -2.8087  0.2018
  210MOL0     H27681   7.359   9.633   3.519 -0.8142  0.8115  2.3980
  210MOL0     H27682   7.205   9.739   3.640 -0.7122 -0.7447  0.8177
  210MOL0     H27683   6.996   9.852   3.734  0.6622 -3.1418  0.0920
  210MOL0     H27684   6.609  10.102   3.695  0.7279 -1.3556 -0.5210
  210MOL0     H27685   6.410  10.251   3.743  0.0531 -0.5510  0.6943
  210MOL0     H27686   6.347  10.478   3.860  3.2769 -0.9581 -0.5580
  210MOL0     H27687   6.240  10.402   3.729  0.9643  0.9000 -1.7684
  210MOL0     H27688   6.152  10.605   3.665 -0.3075 -1.3573  0.2002
  210MOL0     H27689   6.259  10.710   3.746 -3.8397  2.4624  3.1307
  210MOL0     H27690   6.180  10.629   3.974 -1.3203  0.9039  1.5351
  210MOL0     H27691   6.072  10.514   3.881  2.2791 -0.3707 -2.1137
  210MOL0     H27692   6.053  10.819   3.882  0.5380 -0.2223  1.1406
  210MOL0     H27693   5.961  10.713   3.776 -1.2450 -0.4862 -0.6132
  210MOL0     H27694   5.954  10.714   4.077 -0.0710  2.9791  1.3979
  210MOL0     H27695   5.854  10.605   3.977 -0.3629  0.4298  0.5539
  210MOL0     H27696   5.745  10.772   3.861 -2.6455 -1.3712  2.0888
  210MOL0     H27697   5.840  10.903   3.942  1.4693 -0.0309  3.7951
  210MOL0     H27698   5.646  10.728   4.088 -0.9213  0.1591  2.2044
  210MOL0     H27699   5.788  10.821   4.141  0.8292  2.2063 -1.2398
  210MOL0     H27700   5.602  10.970   3.952  1.5006 -0.7583 -0.9769
  210MOL0     H27701   5.664  11.024   4.105 -0.5619 -0.4295 -1.8846
  210MOL0     H27702   6.595  10.570   3.542  1.4842  1.2080  2.1321
  210MOL0     H27703   6.796  10.436   3.496  0.1429  0.0624  0.6916
  210MOL0     H27704   7.062  10.140   3.404 -0.9134 -2.4909 -5.3725
  210MOL0     H27705   7.262  10.027   3.339 -1.1759 -0.7992 -0.1652
  210MOL0     H27706   8.676  10.911   3.254  1.2931  2.4351  1.0284
  210MOL0     H27707   8.823  11.107   3.275  1.2506  1.0846 -0.6096
  210MOL0     H27708   9.269  11.249   3.156  2.9940 -1.2846 -2.1529
  210MOL0     H27709   9.426  11.419   3.146 -0.7052 -1.4466 -0.9789
  210MOL0     H27710   9.594  11.544   3.074 -0.8196 -0.5870 -1.5975
  210MOL0     H27711   9.478  11.637   3.171 -0.8955 -0.8454 -0.3564
  210MOL0     H27712   9.576  11.844   3.091  1.6783  0.4272  1.9563
  210MOL0     H27713   9.709  11.725   3.117 -0.9841 -0.4904  1.0858
  210MOL0     H27714   9.578  11.817   2.862 -2.1506 -3.2872  1.0744
  210MOL0     H27715   9.700  11.706   2.849 -1.3199 -2.4418  2.4576
  210MOL0     H27716   9.807  11.913   2.809  1.7202  1.5454  0.8236
  210MOL0     H27717   9.713  11.999   2.936  3.3300  1.0364  2.3002
  210MOL0     H27718  10.058  11.865   3.124  0.8694  0.5723 -1.0250
  210MOL0     H27719   9.228  11.609   2.828  0.5211  1.1874  0.2964
  210MOL0     H27720   9.031  11.457   2.858 -0.6074  1.9069 -1.7766
  211MOL0     O27721   4.772  10.529   8.478 -0.0078  0.9445 -0.4977
  211MOL0     C27722   4.791  10.467   8.582 -1.2998  1.1503  0.3611
  211MOL0     O27723   4.707  10.464   8.681 -0.4041 -0.1636  0.1391
  211MOL0     C27724   4.580  10.504   8.658  0.1157  0.8158  0.2794
  211MOL0     C27725   4.502  10.424   8.572  0.8892 -0.3239 -0.0926
  211MOL0     C27726   4.361  10.443   8.563  0.7314  0.5122 -0.2109
  211MOL0     C27727   4.300  10.537   8.644  0.6718 -0.3855 -0.2314
  211MOL0     O27728   4.159  10.550   8.645  0.1558 -0.0179 -0.0417
  211MOL0     C27729   4.103  10.611   8.526  1.0119 -0.1570  0.1538
  211MOL0     C27730   3.952  10.614   8.542  0.1772  0.4789 -0.0411
  211MOL0     C27731   3.898  10.465   8.542  0.5442  1.0036 -0.4739
  211MOL0     C27732   3.745  10.481   8.545  0.1873  0.2613 -0.2014
  211MOL0     C27733   3.661  10.351   8.570  0.3037 -0.5611  1.0193
  211MOL0     C27734   3.512  10.355   8.615 -0.3059 -0.4627 -0.9880
  211MOL0     C27735   3.470  10.473   8.696  0.1720  0.7218 -0.7173
  211MOL0     C27736   3.325  10.455   8.743  0.4967 -0.3775  0.8858
  211MOL0     N27737   3.220  10.436   8.644 -0.3933 -0.2441 -0.0230
  211MOL0     C27738   3.161  10.537   8.580  0.7179  0.6852 -0.5472
  211MOL0     C27739   3.081  10.465   8.504 -0.5677 -0.4983  0.5247
  211MOL0     C27740   3.005  10.529   8.389  0.3959 -0.5123  0.3556
  211MOL0     C27741   3.069  10.497   8.252 -0.4243 -0.6884  1.1596
  211MOL0     C27742   3.007  10.377   8.179 -0.7716 -0.2006 -0.1904
  211MOL0     C27743   2.861  10.394   8.134 -0.3632 -0.6872  0.3515
  211MOL0     O27744   2.832  10.519   8.066 -0.5896  0.2887  0.1750
  211MOL0     C27745   2.697  10.553   8.058 -0.6463  0.1659  0.6827
  211MOL0     C27746   2.675  10.672   8.000 -0.7266 -0.3667  0.0308
  211MOL0     C27747   2.548  10.717   7.986 -0.8114 -0.7958 -0.2507
  211MOL0     C27748   2.437  10.645   8.031  1.0331 -0.5522  0.4707
  211MOL0     C27749   2.302  10.700   8.008  0.3481  0.0684 -0.1807
  211MOL0     O27750   2.293  10.824   7.967  0.2041  0.2572 -0.1474
  211MOL0     C27751   2.177  10.902   7.993 -0.1832 -0.2167  0.3780
  211MOL0     C27752   2.091  10.890   8.099 -0.0303  0.3166  1.2068
  211MOL0     C27753   1.975  10.972   8.104  0.4229  1.2548  0.5871
  211MOL0     C27754   1.944  11.059   8.000  0.1257 -0.5140  0.4762
  211MOL0     O27755   1.826  11.129   8.015  0.1826  0.0364 -0.8072
  211MOL0     C27756   1.804  11.239   7.914 -0.5051 -0.5624 -0.7562
  211MOL0     C27757   1.682  11.319   7.952  1.4045  0.1444 -0.0872
  211MOL0     C27758   1.708  11.426   8.057  0.4288  0.0328  0.1196
  211MOL0     C27759   1.576  11.469   8.122  0.2031  0.2589 -0.6807
  211MOL0     C27760   1.591  11.587   8.221  0.4485 -0.9254 -0.8637
  211MOL0     C27761   1.469  11.689   8.223 -0.4157 -0.4474  0.8748
  211MOL0     C27762   1.339  11.626   8.279 -0.4499  0.3907 -0.0050
  211MOL0     C27763   1.217  11.599   8.178  0.5823 -0.5002 -0.4431
  211MOL0    Cl27764   1.157  11.747   8.126  0.8637  0.1937 -0.0115
  211MOL0     C27765   2.031  11.072   7.892 -1.2965 -0.1055 -0.6772
  211MOL0     C27766   2.147  10.993   7.887 -0.3683 -0.3919  0.1571
  211MOL0     O27767   2.208  10.637   8.053 -0.4164 -0.2280  0.2811
  211MOL0     C27768   2.457  10.523   8.088  1.2210 -0.0080  0.7380
  211MOL0     C27769   2.582  10.470   8.102 -0.9101 -0.6626 -0.0537
  211MOL0     N27770   3.089  10.331   8.524  0.6514  0.2988  0.3677
  211MOL0     N27771   3.184  10.312   8.606  0.0974  0.4514 -0.1222
  211MOL0     C27772   4.375  10.620   8.725 -0.6286 -0.7629  0.3191
  211MOL0     C27773   4.509  10.601   8.737 -0.2626  0.4596  0.2233
  211MOL0     C27774   4.931  10.416   8.598  0.4682  0.5198  0.3401
  211MOL0     C27775   4.954  10.360   8.720 -0.0340  0.6411 -0.4186
  211MOL0     C27776   5.079  10.309   8.743 -0.2037 -0.9682  0.1490
  211MOL0     C27777   5.182  10.305   8.658 -1.0953 -0.9090  0.4747
  211MOL0     O27778   5.313  10.270   8.692 -0.0865 -0.3614  0.4197
  211MOL0     C27779   5.434  10.297   8.606  1.0213 -0.1302  0.4718
  211MOL0     C27780   5.561  10.275   8.668 -0.0491  0.4369 -0.2651
  211MOL0     C27781   5.605  10.376   8.782  0.5940 -0.9619 -0.1108
  211MOL0     C27782   5.712  10.330   8.873 -0.0135 -0.5820 -0.0059
  211MOL0     C27783   5.666  10.218   8.957  0.5697  0.8264 -0.0968
  211MOL0     C27784   5.633  10.142   9.041 -1.0383  0.2321  0.6389
  211MOL0     C27785   5.151  10.360   8.529 -0.4305 -0.4273  0.2247
  211MOL0     C27786   5.032  10.419   8.503  0.5065  1.1274  0.0170
  211MOL0     H27787   4.538  10.342   8.512  2.6772  0.1417  0.2977
  211MOL0     H27788   4.300  10.382   8.497  1.8058  1.3886 -2.0984
  211MOL0     H27789   4.116  10.557   8.431 -2.7618  1.9385 -1.8047
  211MOL0     H27790   4.140  10.713   8.520 -2.6497  1.8010  4.4639
  211MOL0     H27791   3.921  10.672   8.454  0.6238  2.8403  1.2731
  211MOL0     H27792   3.924  10.668   8.633  0.1583  0.0270  0.2241
  211MOL0     H27793   3.943  10.401   8.619  0.8675  3.2877  1.3626
  211MOL0     H27794   3.919  10.415   8.448 -4.3472 -1.3294 -0.6071
  211MOL0     H27795   3.726  10.547   8.630  0.8159 -1.3441  1.2373
  211MOL0     H27796   3.717  10.525   8.449  1.0242 -0.5043 -0.8163
  211MOL0     H27797   3.720  10.294   8.643  1.0047  1.6764  2.3042
  211MOL0     H27798   3.665  10.302   8.473 -1.9602  1.2919 -0.0877
  211MOL0     H27799   3.495  10.265   8.674  0.5280  0.9075  1.4947
  211MOL0     H27800   3.455  10.352   8.522  1.2372  0.5138 -2.0045
  211MOL0     H27801   3.519  10.477   8.793 -2.4355  0.0589  0.7262
  211MOL0     H27802   3.476  10.573   8.651  0.2853  1.3699  0.6985
  211MOL0     H27803   3.292  10.534   8.811  1.2603 -0.7658  1.7280
  211MOL0     H27804   3.332  10.366   8.808  2.3803 -0.5172  0.5373
  211MOL0     H27805   3.173  10.645   8.572  1.1064  0.5635 -2.0058
  211MOL0     H27806   3.003  10.638   8.395 -2.7211 -0.3328 -1.6925
  211MOL0     H27807   2.902  10.492   8.390 -0.6839  0.7713 -6.6970
  211MOL0     H27808   3.175  10.477   8.271 -0.6705 -2.2960  0.9551
  211MOL0     H27809   3.058  10.584   8.186 -1.8988 -0.3782  1.7782
  211MOL0     H27810   3.056  10.357   8.084 -0.3799 -1.7815  0.3019
  211MOL0     H27811   3.015  10.294   8.250 -2.1941 -0.2878 -0.0921
  211MOL0     H27812   2.804  10.378   8.226 -1.8576 -0.1714 -0.4700
  211MOL0     H27813   2.836  10.307   8.072 -0.5526 -0.3692 -0.0196
  211MOL0     H27814   2.751  10.738   7.960 -1.5276  0.1445 -0.6836
  211MOL0     H27815   2.531  10.812   7.938 -0.6035 -0.7918 -0.3215
  211MOL0     H27816   2.103  10.817   8.178 -3.0199 -2.8278 -0.9831
  211MOL0     H27817   1.901  10.963   8.183  0.7618  1.3247  0.9157
  211MOL0     H27818   1.783  11.199   7.814  0.0618  1.3048 -1.6771
  211MOL0     H27819   1.891  11.305   7.901 -0.4915 -0.8173 -2.0471
  211MOL0     H27820   1.600  11.253   7.983  1.9562  0.2862  1.8050
  211MOL0     H27821   1.639  11.360   7.860 -2.7494 -3.7536 -0.2427
  211MOL0     H27822   1.765  11.507   8.010 -1.5470  2.1361  1.1581
  211MOL0     H27823   1.774  11.381   8.132  0.9009 -1.0555 -0.9106
  211MOL0     H27824   1.493  11.482   8.052 -1.9805 -0.4041  1.6495
  211MOL0     H27825   1.533  11.393   8.187 -2.0403  1.1145 -1.0948
  211MOL0     H27826   1.670  11.655   8.188  0.2571  0.1044  0.7334
  211MOL0     H27827   1.607  11.549   8.322 -3.0472  1.2079  0.6788
  211MOL0     H27828   1.456  11.725   8.120  0.5291 -0.3421  0.7876
  211MOL0     H27829   1.489  11.777   8.285 -1.9230  0.9285 -0.4763
  211MOL0     H27830   1.371  11.538   8.336 -1.3511 -1.0101 -1.5590
  211MOL0     H27831   1.308  11.689   8.363  1.3611 -1.2237  2.0151
  211MOL0     H27832   1.133  11.548   8.226 -1.5640 -0.0685 -3.4307
  211MOL0     H27833   1.248  11.533   8.097 -1.3240 -2.7529  0.5368
  211MOL0     H27834   2.010  11.145   7.814  2.1480 -0.2868 -1.9517
  211MOL0     H27835   2.216  11.003   7.803 -1.0310 -0.5747 -0.4215
  211MOL0     H27836   2.370  10.469   8.126  0.7266  0.7060  0.6513
  211MOL0     H27837   2.598  10.367   8.134  1.6645  0.3562  2.3038
  211MOL0     H27838   4.328  10.696   8.786  1.7991  1.4013 -0.3465
  211MOL0     H27839   4.547  10.656   8.822 -2.6095  2.7290 -0.0770
  211MOL0     H27840   4.874  10.358   8.793  0.1761  1.3523 -0.1600
  211MOL0     H27841   5.101  10.253   8.834  1.2895 -3.7306 -1.7550
  211MOL0     H27842   5.426  10.404   8.582  0.7351 -0.3649 -0.5188
  211MOL0     H27843   5.431  10.252   8.506 -2.2551  1.4918 -0.3113
  211MOL0     H27844   5.564  10.177   8.716 -1.5458  1.3189  1.8151
  211MOL0     H27845   5.640  10.281   8.593 -0.8544  0.2373 -1.1400
  211MOL0     H27846   5.518  10.401   8.844 -0.0945 -2.4472 -0.4286
  211MOL0     H27847   5.640  10.470   8.738  1.0826 -0.9591  0.2803
  211MOL0     H27848   5.801  10.302   8.815  1.3236  0.5829  1.3638
  211MOL0     H27849   5.749  10.406   8.942  1.0035 -0.8022 -0.2825
  211MOL0     H27850   5.599  10.076   9.119  2.2791 -1.0945  1.1363
  211MOL0     H27851   5.227  10.364   8.452 -0.5897  4.6135  0.0435
  211MOL0     H27852   5.006  10.456   8.404 -0.4551 -1.2888 -0.6856
  212MOL0     O27853   8.270   6.224   6.331  0.3948 -0.6181  0.2810
  212MOL0     C27854   8.322   6.130   6.258 -0.0228  1.0011 -0.3923
  212MOL0     O27855   8.256   6.054   6.170  0.5629 -0.9775  0.6826
  212MOL0     C27856   8.121   6.032   6.174  0.4118  0.1955  1.0306
  212MOL0     C27857   8.049   6.029   6.287 -0.5592  0.3420  0.0340
  212MOL0     C27858   7.911   5.987   6.277 -0.3368 -0.8718  0.4998
  212MOL0     C27859   7.840   5.961   6.161 -0.8784  0.0785  0.6532
  212MOL0     O27860   7.708   5.919   6.163 -0.0069 -0.2086 -0.2621
  212MOL0     C27861   7.613   5.998   6.090  0.6868 -0.5273 -0.5349
  212MOL0     C27862   7.534   6.099   6.178  0.4905 -0.0678  0.5615
  212MOL0     C27863   7.437   6.179   6.083  0.2920  0.6137 -0.0984
  212MOL0     C27864   7.340   6.076   6.005 -0.1350 -0.5318  0.1592
  212MOL0     C27865   7.202   6.136   6.014  0.5510 -0.5352 -0.3360
  212MOL0     C27866   7.086   6.050   5.972  0.7001 -0.9383  0.4599
  212MOL0     C27867   6.950   6.119   5.965 -0.3299 -0.7981  0.0179
  212MOL0     C27868   6.840   6.027   5.912  0.1264 -0.3252 -0.3642
  212MOL0     N27869   6.718   6.101   5.895 -0.1993 -0.0981  0.6883
  212MOL0     C27870   6.672   6.180   5.793 -0.0517  0.0388 -0.0856
  212MOL0     C27871   6.538   6.205   5.823 -0.5160  0.5591 -0.5557
  212MOL0     C27872   6.457   6.310   5.750 -0.8579  0.0878  0.0898
  212MOL0     C27873   6.389   6.399   5.851  0.3142  0.4549  0.1977
  212MOL0     C27874   6.316   6.510   5.776 -0.5078 -0.8159 -0.7033
  212MOL0     C27875   6.164   6.505   5.785  0.2264  0.6972  0.1898
  212MOL0     O27876   6.121   6.594   5.694  0.3764  0.0003 -0.0151
  212MOL0     C27877   5.989   6.638   5.697  0.1685 -0.1406  0.0204
  212MOL0     C27878   5.895   6.607   5.804 -0.4127 -1.2419  0.9090
  212MOL0     C27879   5.763   6.651   5.795  0.3091 -0.8981 -0.1056
  212MOL0     C27880   5.711   6.727   5.684 -0.7861 -0.3941 -0.8983
  212MOL0     C27881   5.570   6.773   5.697  0.4533 -0.5981  0.8875
  212MOL0     O27882   5.515   6.799   5.572  0.0834 -0.3107 -0.8532
  212MOL0     C27883   5.394   6.855   5.563 -0.3804 -0.3241 -0.4404
  212MOL0     C27884   5.359   6.975   5.627 -0.2867 -0.1791  0.5598
  212MOL0     C27885   5.239   7.030   5.607  0.3927  0.2889  0.5925
  212MOL0     C27886   5.159   6.984   5.508 -0.1187  0.4367 -0.2078
  212MOL0     O27887   5.041   7.055   5.493 -0.3675 -0.4049  0.2769
  212MOL0     C27888   4.991   7.065   5.362 -0.8287  0.6602 -0.7173
  212MOL0     C27889   4.855   7.142   5.366 -0.0304 -0.3783 -0.2537
  212MOL0     C27890   4.835   7.220   5.238 -0.8370  0.1633 -0.2964
  212MOL0     C27891   4.698   7.304   5.253 -0.4369 -0.0090  0.6237
  212MOL0     C27892   4.633   7.380   5.130  0.3521  0.0504 -0.1795
  212MOL0     C27893   4.494   7.439   5.175  0.0751 -0.2500  0.2889
  212MOL0     C27894   4.429   7.531   5.062  0.1118 -0.5524  0.4663
  212MOL0     C27895   4.294   7.590   5.109 -0.9300 -0.0960  0.9402
  212MOL0    Cl27896   4.157   7.569   4.991  0.0818  0.0436  0.0170
  212MOL0     C27897   5.188   6.868   5.433  0.7217  0.3749  0.1146
  212MOL0     C27898   5.307   6.798   5.470 -0.4587 -0.2288 -0.2051
  212MOL0     O27899   5.506   6.769   5.800 -0.2234  0.2151 -0.3769
  212MOL0     C27900   5.802   6.758   5.584  0.8762  0.2432  0.0592
  212MOL0     C27901   5.939   6.721   5.602 -1.2364 -1.0465 -0.4374
  212MOL0     N27902   6.498   6.123   5.918 -0.0905  0.3119 -0.6010
  212MOL0     N27903   6.608   6.068   5.968 -0.2379 -0.0821 -0.0186
  212MOL0     C27904   7.916   5.981   6.040 -0.0729  0.1076  0.1476
  212MOL0     C27905   8.056   6.009   6.048  0.1761  0.5110 -0.1880
  212MOL0     C27906   8.468   6.101   6.268  0.7790  0.4186  0.2635
  212MOL0     C27907   8.529   6.033   6.168  0.6001 -0.2462  0.4772
  212MOL0     C27908   8.671   6.007   6.193  0.2492  0.3549 -0.1297
  212MOL0     C27909   8.747   6.055   6.311  0.5482  0.0191 -0.4832
  212MOL0     O27910   8.881   6.034   6.339  0.5914 -0.4155 -0.1200
  212MOL0     C27911   8.963   6.097   6.243 -0.5431  0.2606  0.4573
  212MOL0     C27912   9.106   6.088   6.305 -0.3171 -0.3821 -0.9821
  212MOL0     C27913   9.146   5.948   6.354 -0.6000  0.1103 -0.6898
  212MOL0     C27914   9.300   5.940   6.387 -0.9440 -0.0802  0.1766
  212MOL0     C27915   9.390   5.978   6.276 -0.0644  0.9108 -0.1335
  212MOL0     C27916   9.455   6.011   6.178  0.1772  0.2840 -0.7487
  212MOL0     C27917   8.669   6.122   6.403  0.7920 -0.2590  0.0084
  212MOL0     C27918   8.532   6.143   6.388 -0.4722 -0.3644  0.0941
  212MOL0     H27919   8.092   6.031   6.386 -0.6134  3.1984  0.0785
  212MOL0     H27920   7.860   5.977   6.373 -2.5562 -0.4459 -0.5557
  212MOL0     H27921   7.547   5.925   6.041  1.2285 -1.4100  0.0298
  212MOL0     H27922   7.649   6.054   6.003  1.4448  0.8359  0.6279
  212MOL0     H27923   7.607   6.173   6.212  0.4841  2.1255 -3.4896
  212MOL0     H27924   7.482   6.049   6.260  1.4261 -1.0600  0.5711
  212MOL0     H27925   7.483   6.240   6.005 -0.0018 -1.2795 -1.8426
  212MOL0     H27926   7.392   6.244   6.157  2.7500  1.6672  0.5644
  212MOL0     H27927   7.364   6.068   5.899  0.3853 -1.5632  0.3395
  212MOL0     H27928   7.345   5.978   6.053  0.7621 -0.9596 -0.7705
  212MOL0     H27929   7.206   6.230   5.958  1.1173 -1.1010 -1.2772
  212MOL0     H27930   7.177   6.168   6.116  0.2850  1.1279 -0.8967
  212MOL0     H27931   7.072   5.964   6.038 -1.4938  1.4503  3.3830
  212MOL0     H27932   7.103   6.021   5.868 -3.5879  0.4253 -0.7935
  212MOL0     H27933   6.927   6.149   6.068 -0.0331  0.4865 -0.2708
  212MOL0     H27934   6.949   6.211   5.905 -0.9104 -0.6990  0.1734
  212MOL0     H27935   6.822   5.951   5.988  1.9908  0.7198  1.1975
  212MOL0     H27936   6.867   5.995   5.811 -1.5603  0.1749 -1.0228
  212MOL0     H27937   6.737   6.214   5.714 -1.4647  1.9358 -0.5007
  212MOL0     H27938   6.383   6.266   5.683 -0.4349 -0.1262 -0.2435
  212MOL0     H27939   6.525   6.374   5.692  1.3889 -1.3996  0.9338
  212MOL0     H27940   6.468   6.446   5.909 -1.4102  1.3615  1.9079
  212MOL0     H27941   6.319   6.341   5.911  1.7948  3.7055  5.7235
  212MOL0     H27942   6.343   6.605   5.824  0.4956 -1.5419  0.2161
  212MOL0     H27943   6.348   6.511   5.672  2.9911 -1.6027  0.2164
  212MOL0     H27944   6.130   6.535   5.885  0.1712 -0.0144  0.3927
  212MOL0     H27945   6.119   6.408   5.763  0.5715  0.1984  1.5791
  212MOL0     H27946   5.926   6.553   5.893 -0.0589 -0.3624  1.3289
  212MOL0     H27947   5.719   6.654   5.894 -0.5274 -1.4708 -0.4490
  212MOL0     H27948   5.433   7.035   5.679 -3.1952  5.3463 -0.8435
  212MOL0     H27949   5.219   7.121   5.663  1.1940  0.6847  0.2559
  212MOL0     H27950   4.984   6.966   5.317 -0.0042 -0.9243  2.3765
  212MOL0     H27951   5.072   7.112   5.306 -2.3866  1.5544 -2.3201
  212MOL0     H27952   4.844   7.204   5.455 -2.7421 -0.6138 -0.3370
  212MOL0     H27953   4.774   7.069   5.374 -0.0178 -0.3609  0.0369
  212MOL0     H27954   4.818   7.153   5.154 -0.8048  1.5727 -1.4611
  212MOL0     H27955   4.923   7.280   5.215 -1.1417 -0.5422 -3.6806
  212MOL0     H27956   4.616   7.236   5.277 -0.6808 -0.4780 -1.3511
  212MOL0     H27957   4.702   7.381   5.331 -1.8197  0.8212 -0.0748
  212MOL0     H27958   4.622   7.313   5.044  0.1041  2.5226 -2.1770
  212MOL0     H27959   4.712   7.453   5.109  1.1264 -0.3479  1.2208
  212MOL0     H27960   4.505   7.498   5.267  1.7465  1.5040 -0.9381
  212MOL0     H27961   4.434   7.349   5.192 -0.6053 -0.2780 -1.9110
  212MOL0     H27962   4.505   7.605   5.035  0.7255 -1.1261  0.5732
  212MOL0     H27963   4.419   7.479   4.966  0.9960  2.2996 -1.2993
  212MOL0     H27964   4.306   7.696   5.136  1.8287 -0.8906  3.2890
  212MOL0     H27965   4.280   7.556   5.212 -2.1041  1.2390  1.2494
  212MOL0     H27966   5.107   6.822   5.379  0.9881  0.4722 -0.3718
  212MOL0     H27967   5.330   6.698   5.433  2.4696 -1.0819  3.4258
  212MOL0     H27968   5.784   6.830   5.505  1.1149  0.8221  0.5198
  212MOL0     H27969   6.012   6.739   5.524 -0.7216 -1.3087 -0.0159
  212MOL0     H27970   7.853   5.970   5.953 -1.8584  2.3132  1.0563
  212MOL0     H27971   8.109   6.014   5.953 -1.4417 -2.7315 -1.4067
  212MOL0     H27972   8.479   5.992   6.081  0.4039  0.5688  0.1971
  212MOL0     H27973   8.728   5.954   6.117  1.8286  0.8172  0.6974
  212MOL0     H27974   8.942   6.203   6.223 -0.9239  0.3346  1.2089
  212MOL0     H27975   8.960   6.031   6.156  3.0959 -0.0207  0.3902
  212MOL0     H27976   9.172   6.122   6.225  0.1493 -2.2398 -1.4461
  212MOL0     H27977   9.115   6.162   6.385 -1.8137  1.6780 -2.6245
  212MOL0     H27978   9.129   5.880   6.271  0.3303 -1.6166  0.4579
  212MOL0     H27979   9.092   5.907   6.440  0.4412  0.3505  0.1054
  212MOL0     H27980   9.315   6.006   6.473  1.9418 -0.3370 -0.0546
  212MOL0     H27981   9.326   5.842   6.429 -0.7277 -0.2863 -0.4247
  212MOL0     H27982   9.514   6.057   6.102 -0.0239 -3.5886 -3.5753
  212MOL0     H27983   8.715   6.142   6.499 -1.6597  1.1863  0.9637
  212MOL0     H27984   8.475   6.206   6.456 -0.4728  1.8827 -1.8662
  213MOL0     O27985   1.481   7.565   5.551  0.7078  0.3282  1.0321
  213MOL0     C27986   1.525   7.649   5.480 -0.7468 -0.2001  0.2839
  213MOL0     O27987   1.463   7.755   5.421  0.3666  0.0596 -0.3298
  213MOL0     C27988   1.332   7.784   5.437  0.6584 -0.4513 -0.3389
  213MOL0     C27989   1.215   7.693   5.445  0.2727 -0.0825  0.1324
  213MOL0     C27990   1.089   7.743   5.476 -0.6927 -0.6172  0.3294
  213MOL0     C27991   1.064   7.885   5.482 -0.4690  0.8779  0.1220
  213MOL0     O27992   0.941   7.946   5.512 -0.0724  0.3723 -0.3371
  213MOL0     C27993   0.830   7.870   5.534  1.0987 -0.2234 -0.0026
  213MOL0     C27994   0.713   7.966   5.515  0.4473 -0.1913 -0.6672
  213MOL0     C27995   0.587   7.883   5.517  0.5454  0.1544 -1.0534
  213MOL0     C27996   0.473   7.952   5.588 -0.2695 -0.0785  0.6185
  213MOL0     C27997   0.358   7.860   5.594  0.9169 -0.0959  0.1458
  213MOL0     C27998   0.356   7.769   5.716 -0.2584  0.2019  0.8119
  213MOL0     C27999   0.235   7.670   5.701 -0.7527 -1.2490  0.0305
  213MOL0     C28000   0.269   7.540   5.776 -0.5328 -0.9280 -0.0893
  213MOL0     N28001   0.280   7.561   5.924 -0.3072 -0.7726  0.6516
  213MOL0     C28002   0.186   7.599   6.013 -0.3277  0.3461  0.1024
  213MOL0     C28003   0.248   7.610   6.130 -0.6308  0.1103 -0.3595
  213MOL0     C28004   0.182   7.637   6.258 -0.4754 -0.2707  0.3519
  213MOL0     C28005   0.215   7.779   6.320 -0.1512  0.3341 -0.4435
  213MOL0     C28006   0.347   7.777   6.398 -0.2896  0.2180 -0.2181
  213MOL0     C28007   0.358   7.673   6.514 -0.2366 -0.5789 -0.5539
  213MOL0     O28008   0.475   7.675   6.596  0.5315 -0.0113  0.1345
  213MOL0     C28009   0.590   7.618   6.546 -0.2765  0.8172  0.7795
  213MOL0     C28010   0.604   7.564   6.410 -0.8099 -0.6678  0.3396
  213MOL0     C28011   0.729   7.522   6.368  0.3220  0.1123  1.1952
  213MOL0     C28012   0.838   7.514   6.455 -0.7497 -0.5247  0.1491
  213MOL0     C28013   0.967   7.453   6.414  0.6503 -0.5344  0.1113
  213MOL0     O28014   1.057   7.440   6.518  0.7299  0.1099  0.1911
  213MOL0     C28015   1.180   7.385   6.495  1.4544  0.1189  0.1380
  213MOL0     C28016   1.224   7.298   6.595 -1.1474 -0.6915 -0.2679
  213MOL0     C28017   1.352   7.242   6.582  0.5547 -0.3532 -0.3416
  213MOL0     C28018   1.438   7.270   6.478  0.5045  0.3223  0.3588
  213MOL0     O28019   1.561   7.213   6.469  0.0435  0.5539  0.3827
  213MOL0     C28020   1.603   7.114   6.567  0.3265  0.2160  0.5618
  213MOL0     C28021   1.729   7.063   6.508  0.6448  0.3748 -0.0500
  213MOL0     C28022   1.788   6.964   6.615  0.4257 -0.4506 -0.1232
  213MOL0     C28023   1.931   6.908   6.589  0.7701  0.0421  0.3319
  213MOL0     C28024   1.987   6.926   6.447 -0.5992 -0.0840 -0.3413
  213MOL0     C28025   2.074   7.045   6.423  0.4120  0.6266  0.1552
  213MOL0     C28026   2.216   7.034   6.483  0.3659  0.4628  0.3439
  213MOL0     C28027   2.318   6.961   6.400 -0.4811 -0.2636  0.6754
  213MOL0    Cl28028   2.284   6.785   6.326  0.1880  0.4850  0.3226
  213MOL0     C28029   1.393   7.366   6.381  0.1054  0.4164  0.1350
  213MOL0     C28030   1.267   7.432   6.392 -0.3921  0.3324 -0.2953
  213MOL0     O28031   0.971   7.405   6.294 -0.0699  0.0534 -0.1153
  213MOL0     C28032   0.822   7.570   6.584  0.4637 -0.7688 -0.5683
  213MOL0     C28033   0.699   7.615   6.628 -0.2491 -0.1282  0.0420
  213MOL0     N28034   0.382   7.592   6.112  0.1722 -0.2390  0.3683
  213MOL0     N28035   0.402   7.578   5.991 -0.9174 -0.0093  1.2878
  213MOL0     C28036   1.169   7.963   5.460 -0.4186  0.6411 -0.1403
  213MOL0     C28037   1.299   7.919   5.441 -0.0705 -0.1130 -0.8882
  213MOL0     C28038   1.670   7.630   5.458  0.3899 -0.1078  1.2852
  213MOL0     C28039   1.757   7.552   5.543  0.2640 -0.6133  0.3726
  213MOL0     C28040   1.890   7.555   5.528 -1.0430  0.3938 -0.3030
  213MOL0     C28041   1.957   7.624   5.422  0.2975 -0.1352  0.8962
  213MOL0     O28042   2.096   7.643   5.412 -0.9215  0.6103 -0.3048
  213MOL0     C28043   2.141   7.749   5.337 -0.0977  0.5543 -0.0841
  213MOL0     C28044   2.295   7.762   5.346  0.2243 -0.3841  0.0676
  213MOL0     C28045   2.362   7.666   5.247 -0.1241  1.4868 -0.4387
  213MOL0     C28046   2.518   7.690   5.226  0.2026 -0.0028 -0.2528
  213MOL0     C28047   2.545   7.827   5.183  0.4406 -0.6706 -0.6452
  213MOL0     C28048   2.583   7.941   5.160  1.1018 -0.5582  0.5021
  213MOL0     C28049   1.872   7.683   5.324 -0.0580 -0.9233  0.0895
  213MOL0     C28050   1.735   7.682   5.344  0.6494 -0.1420  0.6205
  213MOL0     H28051   1.217   7.588   5.417  3.7085 -0.2049  0.4506
  213MOL0     H28052   1.015   7.665   5.490 -0.3482 -1.1751 -0.8532
  213MOL0     H28053   0.839   7.827   5.634  4.1304 -1.4956 -0.7079
  213MOL0     H28054   0.825   7.787   5.462 -0.5539 -1.1241  1.0658
  213MOL0     H28055   0.723   8.020   5.421  1.0890 -0.3999 -0.7226
  213MOL0     H28056   0.714   8.041   5.594  0.2984  3.2833 -3.7092
  213MOL0     H28057   0.613   7.784   5.555 -1.8671 -0.6911 -1.4096
  213MOL0     H28058   0.561   7.859   5.413 -0.5826 -3.0874 -0.1636
  213MOL0     H28059   0.515   7.980   5.685  0.5680  0.8730  0.0046
  213MOL0     H28060   0.438   8.041   5.534 -2.5375  1.3113  4.0422
  213MOL0     H28061   0.363   7.801   5.502  0.3985 -2.6162  1.6402
  213MOL0     H28062   0.266   7.920   5.588 -0.3869 -2.0987 -1.8267
  213MOL0     H28063   0.333   7.835   5.801  4.2874  0.7433  1.8903
  213MOL0     H28064   0.447   7.710   5.728 -0.7515 -0.5755  0.7630
  213MOL0     H28065   0.151   7.726   5.743  0.2342  0.8752 -0.7261
  213MOL0     H28066   0.215   7.653   5.595  2.1874 -4.2230 -0.2053
  213MOL0     H28067   0.370   7.507   5.750 -0.4308 -0.7293  0.0526
  213MOL0     H28068   0.205   7.454   5.754  0.6279 -2.6996  2.7589
  213MOL0     H28069   0.080   7.621   6.002  0.0171  1.5231 -1.1024
  213MOL0     H28070   0.202   7.553   6.325  2.6253 -2.6936 -3.2046
  213MOL0     H28071   0.074   7.642   6.248 -0.6903 -3.0006  0.7167
  213MOL0     H28072   0.128   7.815   6.375  1.6498  2.5971  1.1613
  213MOL0     H28073   0.235   7.849   6.238 -1.5145  2.0589  0.6143
  213MOL0     H28074   0.422   7.740   6.328 -0.4032  0.8069 -0.6569
  213MOL0     H28075   0.373   7.877   6.433 -0.8115  0.2015  0.2413
  213MOL0     H28076   0.344   7.575   6.468  0.1038 -0.3617 -1.1307
  213MOL0     H28077   0.279   7.694   6.587  1.1086  0.6047  0.6103
  213MOL0     H28078   0.529   7.570   6.332  0.0193  0.4854 -0.3873
  213MOL0     H28079   0.732   7.498   6.262 -0.6834 -0.1390  1.2084
  213MOL0     H28080   1.156   7.261   6.671  0.5150 -2.9064  0.2440
  213MOL0     H28081   1.381   7.172   6.660  0.9574 -1.1165 -1.1497
  213MOL0     H28082   1.533   7.031   6.576  1.8593 -1.1576  0.4369
  213MOL0     H28083   1.629   7.166   6.660  1.0424  1.1442 -0.1332
  213MOL0     H28084   1.792   7.149   6.483 -1.2303  1.9107  0.3628
  213MOL0     H28085   1.701   7.018   6.412  0.2692 -0.2642  0.3503
  213MOL0     H28086   1.723   6.876   6.610  1.5960 -1.3209 -0.6859
  213MOL0     H28087   1.780   7.005   6.716 -0.6392  0.2287 -0.4739
  213MOL0     H28088   2.003   6.942   6.664  2.7685 -2.5007 -0.2757
  213MOL0     H28089   1.932   6.804   6.621 -0.8737 -0.3670 -0.8139
  213MOL0     H28090   1.899   6.942   6.384 -0.2638  3.0647 -0.1897
  213MOL0     H28091   2.048   6.842   6.414  0.1190 -0.3887  1.6580
  213MOL0     H28092   2.015   7.132   6.450 -2.0484 -0.0759 -2.4799
  213MOL0     H28093   2.080   7.054   6.314 -1.0529 -1.0626 -0.1082
  213MOL0     H28094   2.247   7.139   6.485 -1.6554  1.3253 -3.4049
  213MOL0     H28095   2.212   6.984   6.580  1.8675 -2.8780 -1.1512
  213MOL0     H28096   2.414   6.960   6.451 -0.0417 -1.5287 -0.1309
  213MOL0     H28097   2.345   7.022   6.313  1.4704 -0.0227  1.4106
  213MOL0     H28098   1.442   7.398   6.290 -2.0615  0.5913 -1.0304
  213MOL0     H28099   1.246   7.493   6.305 -0.9333  0.2647 -0.2132
  213MOL0     H28100   0.901   7.583   6.656 -3.5917  1.2147  4.0600
  213MOL0     H28101   0.696   7.652   6.730  2.0429  1.0757 -0.2524
  213MOL0     H28102   1.150   8.069   5.473 -0.1569  0.4347  2.5753
  213MOL0     H28103   1.374   7.995   5.423  0.0310  0.4287  1.4025
  213MOL0     H28104   1.712   7.508   5.631  1.1188 -1.5213  0.3786
  213MOL0     H28105   1.954   7.519   5.608  1.0260  1.3865 -1.4023
  213MOL0     H28106   2.090   7.838   5.376 -1.3604  0.2233 -0.9472
  213MOL0     H28107   2.115   7.730   5.233 -2.6195  0.1649  0.5433
  213MOL0     H28108   2.310   7.867   5.317  3.6929 -0.5922  0.6492
  213MOL0     H28109   2.335   7.747   5.447  2.7125 -2.2077 -1.0928
  213MOL0     H28110   2.315   7.657   5.149  3.1605 -1.1206 -2.0078
  213MOL0     H28111   2.355   7.565   5.289  1.8303  1.7505  0.6786
  213MOL0     H28112   2.571   7.661   5.317 -0.9797  0.2976  0.5687
  213MOL0     H28113   2.566   7.626   5.152  0.8873 -0.7071  0.7734
  213MOL0     H28114   2.599   8.046   5.142 -0.2356 -0.4626 -0.2940
  213MOL0     H28115   1.910   7.732   5.235  1.7350 -0.0626  1.2849
  213MOL0     H28116   1.685   7.752   5.278  0.0850 -2.3653 -1.4284
  214MOL0     O28117   1.766   2.193   3.639  0.0256 -0.7258  0.2809
  214MOL0     C28118   1.833   2.290   3.610 -0.2705  0.0658  0.2735
  214MOL0     O28119   1.785   2.396   3.532  0.1486 -0.4155  0.5016
  214MOL0     C28120   1.657   2.384   3.481 -0.6990 -0.4866 -0.4781
  214MOL0     C28121   1.612   2.299   3.383  0.3591  0.5768 -0.4865
  214MOL0     C28122   1.478   2.289   3.346  0.2067 -0.1273  0.8755
  214MOL0     C28123   1.380   2.382   3.395 -0.1714 -0.3183 -0.6026
  214MOL0     O28124   1.249   2.404   3.353  0.3255  0.5929 -0.5330
  214MOL0     C28125   1.211   2.338   3.228  0.0290  0.0396  0.0033
  214MOL0     C28126   1.070   2.384   3.185  0.6253 -0.9090  0.8081
  214MOL0     C28127   0.955   2.314   3.238 -0.2561  0.6219  0.1599
  214MOL0     C28128   0.829   2.362   3.186  1.1445 -0.5149 -0.2297
  214MOL0     C28129   0.712   2.278   3.249  0.8002 -1.0426 -1.3523
  214MOL0     C28130   0.694   2.304   3.407  0.1244  0.2401 -0.3961
  214MOL0     C28131   0.587   2.215   3.473  0.6871 -0.1571 -0.1418
  214MOL0     C28132   0.458   2.250   3.410 -0.2451 -0.4133  0.9437
  214MOL0     N28133   0.426   2.396   3.406  0.7464 -0.7189 -0.0139
  214MOL0     C28134   0.401   2.461   3.288 -0.0972 -0.1598  0.8611
  214MOL0     C28135   0.354   2.576   3.326  1.2846 -0.0819 -0.2827
  214MOL0     C28136   0.309   2.681   3.237  0.1188 -0.8478  0.0322
  214MOL0     C28137   0.179   2.641   3.182 -0.5907  0.8449  0.0855
  214MOL0     C28138   0.166   2.690   3.031  0.1737 -0.2554 -0.0882
  214MOL0     C28139   0.038   2.658   2.951  0.5531  0.2709 -0.0843
  214MOL0     O28140  -0.066   2.702   3.034  0.4766 -0.6750  0.5602
  214MOL0     C28141  -0.190   2.642   3.030  0.2799  0.2795 -0.4413
  214MOL0     C28142  -0.241   2.584   2.913  0.0022  0.9177  0.4485
  214MOL0     C28143  -0.374   2.530   2.902  0.3859  0.7616  0.0544
  214MOL0     C28144  -0.454   2.524   3.014 -0.9714  0.2971  0.4694
  214MOL0     C28145  -0.591   2.457   3.013 -0.0392  1.0181  0.4653
  214MOL0     O28146  -0.647   2.412   3.130  0.4916 -1.3211  0.0974
  214MOL0     C28147  -0.777   2.382   3.119  0.1469 -0.3902 -1.2083
  214MOL0     C28148  -0.830   2.278   3.047 -0.4014  0.7927  0.4487
  214MOL0     C28149  -0.965   2.249   3.032 -0.4780  0.3709  0.3510
  214MOL0     C28150  -1.057   2.340   3.085  0.3346  0.3276  0.3322
  214MOL0     O28151  -1.190   2.325   3.083  0.1432  0.0284 -0.7870
  214MOL0     C28152  -1.243   2.227   3.001 -0.3941 -0.5364  0.4635
  214MOL0     C28153  -1.391   2.266   2.982  0.5445 -0.2879 -0.2210
  214MOL0     C28154  -1.484   2.199   3.092 -0.2425  0.3643  0.4574
  214MOL0     C28155  -1.604   2.286   3.118  0.0761 -0.6501  0.0477
  214MOL0     C28156  -1.673   2.317   2.981  0.4572 -0.6013 -0.4285
  214MOL0     C28157  -1.812   2.372   3.011  0.2036 -1.2997 -0.7083
  214MOL0     C28158  -1.917   2.268   3.005  0.3806  0.0942  0.1639
  214MOL0     C28159  -2.035   2.318   3.082 -0.0656  0.2122  0.7711
  214MOL0    Cl28160  -2.110   2.457   2.998  0.1392 -0.5932  0.4153
  214MOL0     C28161  -1.009   2.448   3.162  1.0860 -0.6975  0.1564
  214MOL0     C28162  -0.871   2.469   3.177 -1.0980  0.3085  0.7225
  214MOL0     O28163  -0.641   2.448   2.897  0.1383  0.0932 -0.3921
  214MOL0     C28164  -0.402   2.575   3.140 -0.6304  0.7832  0.7419
  214MOL0     C28165  -0.276   2.639   3.143  0.1457 -0.7952 -0.1297
  214MOL0     N28166   0.370   2.589   3.465 -0.6567  0.2367  0.6364
  214MOL0     N28167   0.417   2.480   3.512 -0.2367  0.1557 -0.5085
  214MOL0     C28168   1.426   2.462   3.503 -0.1383  0.3715  0.4153
  214MOL0     C28169   1.559   2.458   3.549  0.3776 -0.3235 -0.1885
  214MOL0     C28170   1.975   2.296   3.651 -1.5355 -0.5905  0.6917
  214MOL0     C28171   2.039   2.197   3.723  0.1595  1.0731 -0.0143
  214MOL0     C28172   2.173   2.201   3.764 -0.7970  0.0894  0.6998
  214MOL0     C28173   2.254   2.316   3.729 -0.8460 -0.0361  0.7906
  214MOL0     O28174   2.376   2.318   3.783 -0.0972  0.1331  0.4850
  214MOL0     C28175   2.463   2.426   3.762  0.9182 -0.1973  0.4251
  214MOL0     C28176   2.610   2.381   3.755 -0.4559 -0.4558 -0.1436
  214MOL0     C28177   2.660   2.307   3.880  0.3244 -0.6705  0.7687
  214MOL0     C28178   2.797   2.241   3.842  0.7865 -0.0871 -0.0883
  214MOL0     C28179   2.844   2.171   3.959  0.2008 -0.8493  1.5444
  214MOL0     C28180   2.878   2.103   4.047 -0.0411  0.5015  0.4701
  214MOL0     C28181   2.191   2.429   3.675 -0.5261 -0.4168 -0.3623
  214MOL0     C28182   2.060   2.414   3.628 -0.5547 -0.5058  0.3096
  214MOL0     H28183   1.688   2.234   3.341  0.0520 -2.3533  3.0314
  214MOL0     H28184   1.456   2.209   3.277 -0.3462 -0.1020  1.0161
  214MOL0     H28185   1.218   2.231   3.249 -3.6792 -0.4903 -0.8665
  214MOL0     H28186   1.278   2.366   3.146  3.0944 -0.3393  2.1775
  214MOL0     H28187   1.060   2.371   3.077  1.5974  1.5120  0.3527
  214MOL0     H28188   1.041   2.485   3.214 -0.3085 -0.9533  0.0802
  214MOL0     H28189   0.965   2.323   3.346  2.2610  1.3308 -0.0565
  214MOL0     H28190   0.958   2.208   3.209  1.8967  0.7352 -0.2248
  214MOL0     H28191   0.818   2.470   3.199  2.5830 -0.3279 -0.4006
  214MOL0     H28192   0.823   2.341   3.079  2.1762  1.1020 -0.6426
  214MOL0     H28193   0.731   2.172   3.228  1.4315 -1.1527 -0.3190
  214MOL0     H28194   0.630   2.313   3.186  2.2036 -0.2590 -2.8061
  214MOL0     H28195   0.679   2.412   3.415  2.3242  0.6781 -1.3311
  214MOL0     H28196   0.787   2.274   3.457 -1.7635 -1.8507  2.0939
  214MOL0     H28197   0.609   2.109   3.454 -0.8530 -0.6427  0.6343
  214MOL0     H28198   0.587   2.233   3.581  0.5419 -2.5508  0.3129
  214MOL0     H28199   0.383   2.197   3.469 -0.8967  1.3069  1.7563
  214MOL0     H28200   0.456   2.209   3.309  0.9312 -2.3115  1.6573
  214MOL0     H28201   0.385   2.419   3.190  2.3740  1.7126 -0.4739
  214MOL0     H28202   0.387   2.693   3.162 -0.9960  0.0768 -1.0273
  214MOL0     H28203   0.286   2.776   3.287  0.9938 -1.3233  1.4116
  214MOL0     H28204   0.101   2.686   3.245 -2.4396 -1.8866 -0.0439
  214MOL0     H28205   0.164   2.532   3.174  1.8969  0.4911 -0.4260
  214MOL0     H28206   0.166   2.799   3.034 -3.6562 -0.1456  1.3997
  214MOL0     H28207   0.251   2.652   2.974  2.0624 -1.5184  3.3099
  214MOL0     H28208   0.043   2.549   2.948 -1.7648  0.1357 -1.3461
  214MOL0     H28209   0.035   2.702   2.851 -0.1158  1.1876  0.3286
  214MOL0     H28210  -0.181   2.586   2.822 -2.5631  3.6006 -1.3659
  214MOL0     H28211  -0.412   2.494   2.807 -0.7624  1.1927  0.3335
  214MOL0     H28212  -0.773   2.187   3.033 -2.6822 -0.5323 -1.0025
  214MOL0     H28213  -1.000   2.153   2.997  2.0978 -0.3535 -0.4580
  214MOL0     H28214  -1.229   2.128   3.046 -1.6053 -1.7638 -1.6538
  214MOL0     H28215  -1.191   2.228   2.904 -2.7547  1.9569 -0.9095
  214MOL0     H28216  -1.430   2.220   2.890 -0.5650 -1.8377  0.9743
  214MOL0     H28217  -1.400   2.375   2.986  1.1676 -0.2749  1.8706
  214MOL0     H28218  -1.423   2.189   3.183  2.3860  1.3918 -1.0543
  214MOL0     H28219  -1.516   2.099   3.063  1.0284  0.0400  0.0836
  214MOL0     H28220  -1.675   2.246   3.192 -0.3334 -0.2895 -0.1488
  214MOL0     H28221  -1.575   2.380   3.166  0.9118 -0.0573 -1.5412
  214MOL0     H28222  -1.681   2.226   2.920 -2.8450  0.1042 -1.2212
  214MOL0     H28223  -1.613   2.382   2.916 -1.1699 -0.1476 -1.5413
  214MOL0     H28224  -1.839   2.460   2.952  0.1948 -2.4717 -2.5434
  214MOL0     H28225  -1.815   2.405   3.115 -2.6609 -0.1218 -1.0946
  214MOL0     H28226  -1.952   2.247   2.904 -1.4155  3.0883  0.0575
  214MOL0     H28227  -1.875   2.177   3.051 -1.4652 -0.7830  0.2019
  214MOL0     H28228  -2.007   2.340   3.185  0.8104 -0.8836  0.7799
  214MOL0     H28229  -2.111   2.240   3.074 -1.8145  1.6785  2.1329
  214MOL0     H28230  -1.084   2.519   3.196  0.8298 -1.8964  2.2261
  214MOL0     H28231  -0.842   2.554   3.239 -2.2712  2.4416 -1.4534
  214MOL0     H28232  -0.449   2.556   3.236 -0.5085  2.5906  1.1978
  214MOL0     H28233  -0.243   2.675   3.240  0.8109 -1.3662 -0.1339
  214MOL0     H28234   1.353   2.523   3.556 -0.2070 -1.3837  2.4676
  214MOL0     H28235   1.592   2.519   3.633  3.0328 -1.7108 -0.1230
  214MOL0     H28236   1.983   2.113   3.763  3.6953 -1.7051 -0.3663
  214MOL0     H28237   2.214   2.129   3.834  0.8360 -1.0458 -1.3052
  214MOL0     H28238   2.453   2.499   3.844 -0.5232 -1.4490  1.4259
  214MOL0     H28239   2.440   2.466   3.663  0.5861  1.1022  0.9964
  214MOL0     H28240   2.622   2.299   3.684  0.8527 -0.6014  0.2271
  214MOL0     H28241   2.672   2.467   3.726  3.5016 -3.0604 -0.0994
  214MOL0     H28242   2.585   2.238   3.920 -2.2463  3.0321  2.8723
  214MOL0     H28243   2.665   2.378   3.962 -2.5461  2.5554 -1.5803
  214MOL0     H28244   2.774   2.159   3.774 -1.1030 -0.6306  1.1113
  214MOL0     H28245   2.865   2.314   3.799 -1.0884  0.6969 -1.9112
  214MOL0     H28246   2.914   2.050   4.133  0.7383 -0.8041 -0.6099
  214MOL0     H28247   2.248   2.520   3.656  0.9521 -1.3438 -0.4537
  214MOL0     H28248   2.016   2.503   3.585  2.2922  0.4837 -0.7798
  215MOL0     O28249   8.827   5.059   6.125 -0.6415  0.1843 -0.6242
  215MOL0     C28250   8.853   5.175   6.100 -0.7475 -0.4159 -0.5367
  215MOL0     O28251   8.776   5.281   6.105 -0.2783  0.7266 -0.6140
  215MOL0     C28252   8.662   5.260   6.170  1.7069  0.9639  0.6346
  215MOL0     C28253   8.546   5.234   6.094  0.1918 -0.3202  0.7830
  215MOL0     C28254   8.424   5.245   6.156 -0.0608  0.1063 -0.4837
  215MOL0     C28255   8.416   5.289   6.290 -0.5977  0.6381  0.4731
  215MOL0     O28256   8.291   5.279   6.343 -0.1499 -0.6660  0.0546
  215MOL0     C28257   8.258   5.340   6.461  0.3196 -0.1231 -0.9983
  215MOL0     C28258   8.109   5.364   6.466  0.2949  0.2504 -0.1572
  215MOL0     C28259   8.068   5.455   6.586 -0.6620 -0.1304 -0.5207
  215MOL0     C28260   7.926   5.524   6.566 -1.3127  0.9632  0.2122
  215MOL0     C28261   7.933   5.670   6.527 -0.4390 -1.1364  0.4386
  215MOL0     C28262   7.791   5.717   6.544  0.7569  0.2684 -0.7663
  215MOL0     C28263   7.711   5.680   6.418  0.0175 -0.3695 -0.5176
  215MOL0     C28264   7.571   5.735   6.410 -0.5512 -0.6194 -0.6005
  215MOL0     N28265   7.495   5.681   6.519 -0.0051  0.6697  0.0513
  215MOL0     C28266   7.472   5.752   6.625 -0.2655  0.2428 -0.4229
  215MOL0     C28267   7.395   5.667   6.692 -0.0543  0.1063 -0.0568
  215MOL0     C28268   7.336   5.696   6.826  0.3301  0.8245 -0.2545
  215MOL0     C28269   7.453   5.702   6.931 -1.0781 -0.4840 -0.4417
  215MOL0     C28270   7.410   5.703   7.076  0.3429 -0.6066 -0.0844
  215MOL0     C28271   7.286   5.782   7.117 -0.1212  0.0935 -0.8265
  215MOL0     O28272   7.316   5.921   7.090  0.5824  0.2274  0.4015
  215MOL0     C28273   7.213   6.020   7.109 -0.8768 -0.4185 -0.0878
  215MOL0     C28274   7.074   5.994   7.099  0.3634  0.5335  0.0203
  215MOL0     C28275   6.975   6.087   7.128  0.1909  0.4132 -0.0564
  215MOL0     C28276   7.006   6.214   7.160  1.0446 -0.0030 -0.1796
  215MOL0     C28277   6.910   6.326   7.175 -0.6850  0.8235  0.3487
  215MOL0     O28278   6.782   6.312   7.111 -0.5386  0.0777 -0.4201
  215MOL0     C28279   6.713   6.434   7.097 -0.1483 -0.6798  0.1649
  215MOL0     C28280   6.771   6.542   7.030  0.6987 -0.5052  0.0186
  215MOL0     C28281   6.696   6.658   7.003 -0.1366  0.6565 -0.1899
  215MOL0     C28282   6.566   6.668   7.051  0.4969  0.0918  0.7810
  215MOL0     O28283   6.505   6.786   7.024 -0.7566  0.2756  0.6179
  215MOL0     C28284   6.367   6.799   7.073  0.3153 -0.7720  0.4481
  215MOL0     C28285   6.307   6.941   7.034  0.6955 -0.2641 -0.5935
  215MOL0     C28286   6.186   6.974   7.120 -0.1509  0.3205  0.0810
  215MOL0     C28287   6.084   7.062   7.047 -0.5963  0.3648  0.2333
  215MOL0     C28288   5.964   7.092   7.138 -0.4303  0.2457 -0.2189
  215MOL0     C28289   5.833   7.122   7.057  0.2313 -0.4989  0.7037
  215MOL0     C28290   5.700   7.112   7.131 -0.3704  0.6907 -0.5140
  215MOL0     C28291   5.590   7.158   7.059  0.7896 -0.0861 -0.1553
  215MOL0    Cl28292   5.585   7.329   7.015  0.5215  0.1019  0.3595
  215MOL0     C28293   6.518   6.562   7.122  0.6908  0.7024 -0.8632
  215MOL0     C28294   6.588   6.444   7.142 -1.0061  0.0804 -0.9761
  215MOL0     O28295   6.943   6.407   7.264  0.5457 -0.0938 -0.0167
  215MOL0     C28296   7.146   6.241   7.176 -0.9177 -0.1951 -0.2416
  215MOL0     C28297   7.249   6.147   7.160 -0.3458  0.6496  0.0153
  215MOL0     N28298   7.382   5.540   6.640  0.9672 -0.5076  0.0103
  215MOL0     N28299   7.439   5.556   6.531 -0.2667 -0.4922  0.7327
  215MOL0     C28300   8.526   5.307   6.363 -0.0409  0.3748  0.9408
  215MOL0     C28301   8.654   5.291   6.305  0.0839 -0.3068  0.4589
  215MOL0     C28302   8.981   5.199   6.029  0.1064 -0.7889 -0.0461
  215MOL0     C28303   9.038   5.333   6.022 -0.9619  0.1150  0.1456
  215MOL0     C28304   9.158   5.352   5.951  0.7688  0.3180  0.2035
  215MOL0     C28305   9.227   5.244   5.889  0.0244 -1.0505 -0.1711
  215MOL0     O28306   9.347   5.250   5.821  0.1926 -0.9007 -0.6551
  215MOL0     C28307   9.394   5.382   5.783  0.6069 -0.1994 -0.0563
  215MOL0     C28308   9.486   5.458   5.881 -0.2689 -0.5151 -0.2683
  215MOL0     C28309   9.537   5.589   5.823  0.7288 -0.2340 -0.4766
  215MOL0     C28310   9.434   5.696   5.857  0.3611  0.7935 -0.6355
  215MOL0     C28311   9.494   5.819   5.807 -0.3056  0.0598 -0.2713
  215MOL0     C28312   9.555   5.914   5.763  0.3204 -0.3083 -0.5242
  215MOL0     C28313   9.173   5.117   5.907  0.5125  0.2081  0.0930
  215MOL0     C28314   9.053   5.092   5.970 -0.0782 -0.4918  0.0293
  215MOL0     H28315   8.555   5.194   5.994 -1.6831  1.5004 -0.2008
  215MOL0     H28316   8.335   5.201   6.111  0.3208 -0.3255 -0.8283
  215MOL0     H28317   8.309   5.435   6.478  2.1359 -1.0823 -0.8736
  215MOL0     H28318   8.273   5.270   6.543 -2.0245  1.1384  0.6323
  215MOL0     H28319   8.075   5.261   6.482  2.0621 -0.9299 -3.0751
  215MOL0     H28320   8.073   5.399   6.369 -0.4410 -1.8019 -0.6877
  215MOL0     H28321   8.141   5.537   6.579  0.1282 -0.8524 -1.0477
  215MOL0     H28322   8.067   5.397   6.678 -1.4547 -3.4019 -2.4182
  215MOL0     H28323   7.848   5.473   6.507 -3.7176  4.3034  0.2303
  215MOL0     H28324   7.879   5.515   6.664 -2.7926  2.9308 -0.2534
  215MOL0     H28325   7.956   5.682   6.421 -0.4369  0.1044  0.5640
  215MOL0     H28326   8.003   5.727   6.590  0.0783  0.2045 -1.2972
  215MOL0     H28327   7.783   5.825   6.557 -0.6248  0.2300 -1.2163
  215MOL0     H28328   7.754   5.674   6.637  4.3082 -1.3085  0.0957
  215MOL0     H28329   7.760   5.719   6.328 -1.4613 -1.0755 -1.6607
  215MOL0     H28330   7.707   5.571   6.413  0.5907 -0.3534 -1.9299
  215MOL0     H28331   7.535   5.704   6.312  2.7740  0.0608 -2.1907
  215MOL0     H28332   7.572   5.844   6.412 -1.8998 -0.5960  0.0344
  215MOL0     H28333   7.501   5.853   6.654  1.2474  0.0171 -1.0582
  215MOL0     H28334   7.274   5.614   6.864  1.5795  0.0428  0.1575
  215MOL0     H28335   7.280   5.790   6.831 -0.6086  0.2323  0.8083
  215MOL0     H28336   7.508   5.793   6.908  0.8446 -0.7263  2.6063
  215MOL0     H28337   7.502   5.605   6.915 -3.2513 -1.3986 -2.2461
  215MOL0     H28338   7.384   5.600   7.102  0.8574 -0.8321 -0.4583
  215MOL0     H28339   7.492   5.750   7.132 -1.1091  1.5902  0.3421
  215MOL0     H28340   7.253   5.770   7.220  0.9986  1.2335 -0.3070
  215MOL0     H28341   7.200   5.747   7.059 -1.0821  1.3515 -0.1900
  215MOL0     H28342   7.040   5.900   7.057 -0.1479  1.8628 -2.7253
  215MOL0     H28343   6.870   6.061   7.115  0.7888 -1.5982 -1.2154
  215MOL0     H28344   6.869   6.529   6.987 -0.0217 -1.5855 -1.3948
  215MOL0     H28345   6.739   6.743   6.949 -3.2553  1.3988 -1.8017
  215MOL0     H28346   6.367   6.790   7.182  0.1181 -0.1308  0.5060
  215MOL0     H28347   6.312   6.717   7.027  1.4251 -1.4026  0.1967
  215MOL0     H28348   6.291   6.956   6.927  0.8429  0.5742 -0.5044
  215MOL0     H28349   6.385   7.014   7.059 -0.1724  0.0953  1.2613
  215MOL0     H28350   6.213   7.029   7.210 -1.3692  0.9246  0.0981
  215MOL0     H28351   6.135   6.883   7.153  0.7638 -0.1404  0.2532
  215MOL0     H28352   6.126   7.153   7.005  0.5443  0.1956  0.9545
  215MOL0     H28353   6.056   7.005   6.958 -0.0086  1.4334 -0.6496
  215MOL0     H28354   5.982   7.183   7.197  1.6107 -1.5314  2.1438
  215MOL0     H28355   5.954   7.016   7.216 -0.0588  1.3431  0.9545
  215MOL0     H28356   5.832   7.054   6.972 -0.7114  1.8559 -1.2635
  215MOL0     H28357   5.841   7.227   7.027  2.0987 -0.4615  1.1891
  215MOL0     H28358   5.686   7.004   7.141  0.0889  0.7259  0.6947
  215MOL0     H28359   5.706   7.155   7.231 -0.7816  2.6014 -1.2794
  215MOL0     H28360   5.502   7.131   7.117  1.6228  0.2234  1.3045
  215MOL0     H28361   5.568   7.102   6.968 -1.6719 -1.0937  0.9779
  215MOL0     H28362   6.416   6.569   7.159  1.3055  0.6304  0.9347
  215MOL0     H28363   6.547   6.364   7.203  0.2992 -2.2081 -2.9643
  215MOL0     H28364   7.163   6.339   7.219 -0.8232  0.1436 -1.0248
  215MOL0     H28365   7.355   6.168   7.168 -0.4615  2.0926 -1.7056
  215MOL0     H28366   8.514   5.339   6.466 -1.9486  1.3031  0.4640
  215MOL0     H28367   8.745   5.314   6.360  0.4148  0.9738 -0.5776
  215MOL0     H28368   8.992   5.414   6.077  0.5323 -2.0854  5.2693
  215MOL0     H28369   9.204   5.450   5.953 -0.1208  0.7543 -0.3387
  215MOL0     H28370   9.311   5.452   5.767 -0.1819 -1.2189 -0.5885
  215MOL0     H28371   9.445   5.367   5.687  2.5751  5.1110 -0.1788
  215MOL0     H28372   9.441   5.479   5.978  0.7234 -0.1679  0.1328
  215MOL0     H28373   9.582   5.408   5.897  0.5893  0.8858 -0.8740
  215MOL0     H28374   9.555   5.570   5.717  1.9172  1.1891 -0.5640
  215MOL0     H28375   9.636   5.612   5.864 -0.6723  1.7903  2.0851
  215MOL0     H28376   9.336   5.673   5.813  0.8648 -2.4215 -0.3033
  215MOL0     H28377   9.421   5.709   5.964  1.3723  1.0272 -0.5311
  215MOL0     H28378   9.624   5.987   5.723  0.5827 -0.1264  0.2474
  215MOL0     H28379   9.218   5.032   5.855 -0.5384 -0.0369 -0.4391
  215MOL0     H28380   9.016   4.990   5.975 -2.0563  0.1944  0.2695
  216MOL0     O28381   9.246  10.686   2.080  0.1555 -0.2325 -0.4902
  216MOL0     C28382   9.301  10.687   2.188  0.5562  0.1273 -0.0202
  216MOL0     O28383   9.251  10.625   2.302 -0.3403 -0.3034 -0.1604
  216MOL0     C28384   9.128  10.557   2.303  0.4493  0.1530  0.1958
  216MOL0     C28385   9.059  10.547   2.427  0.2936  0.2525  0.3437
  216MOL0     C28386   8.937  10.483   2.439  0.3198 -0.1536 -0.3704
  216MOL0     C28387   8.879  10.426   2.324  0.9878  0.5966 -0.3212
  216MOL0     O28388   8.763  10.354   2.328  0.2515  0.2698 -0.5216
  216MOL0     C28389   8.718  10.298   2.453  0.1857  0.1027  0.1871
  216MOL0     C28390   8.585  10.227   2.431 -0.2603 -0.3386  0.3493
  216MOL0     C28391   8.467  10.329   2.421 -0.5418 -0.6893 -0.0861
  216MOL0     C28392   8.322  10.281   2.414  0.5757  0.3111  0.0762
  216MOL0     C28393   8.297  10.174   2.297 -0.6674 -0.3560  0.2264
  216MOL0     C28394   8.358  10.208   2.158  0.1418  0.4656  0.6765
  216MOL0     C28395   8.333  10.113   2.050  1.2988  0.3210  0.4797
  216MOL0     C28396   8.385  10.157   1.907 -0.4563  0.5598  0.2937
  216MOL0     N28397   8.526  10.182   1.912 -0.3786  0.2383  0.5933
  216MOL0     C28398   8.627  10.088   1.919  1.1435 -0.4986 -0.3184
  216MOL0     C28399   8.742  10.153   1.918  0.2139  0.1063 -0.5676
  216MOL0     C28400   8.880  10.104   1.898 -0.5046 -0.1369 -0.7862
  216MOL0     C28401   8.954  10.081   2.033 -0.4307  0.3827 -0.5867
  216MOL0     C28402   8.900   9.982   2.129 -0.8889 -0.1582  0.0956
  216MOL0     C28403   8.813  10.045   2.232  0.1280  0.4362  0.0309
  216MOL0     O28404   8.777   9.947   2.334 -0.0644 -0.3596 -1.1116
  216MOL0     C28405   8.661   9.866   2.316 -0.7452 -0.0084  0.1193
  216MOL0     C28406   8.590   9.837   2.195 -0.1874 -0.1008 -0.0521
  216MOL0     C28407   8.504   9.733   2.185  0.0696 -0.0515  0.4455
  216MOL0     C28408   8.463   9.675   2.306  0.0628  0.1406  0.1026
  216MOL0     C28409   8.359   9.559   2.300  0.0089 -0.1356 -0.1048
  216MOL0     O28410   8.353   9.478   2.404 -0.1384 -0.1571 -0.3023
  216MOL0     C28411   8.272   9.366   2.417 -0.0208  0.3635  0.0801
  216MOL0     C28412   8.157   9.336   2.347  0.6074 -1.1272 -0.6309
  216MOL0     C28413   8.083   9.224   2.376  0.4850  0.2296 -0.3102
  216MOL0     C28414   8.117   9.136   2.477  0.1144  0.6879  0.5898
  216MOL0     O28415   8.028   9.044   2.512 -0.0232 -0.5292  0.3264
  216MOL0     C28416   8.001   9.031   2.651  0.3461  0.2658 -0.6275
  216MOL0     C28417   7.911   8.906   2.676  0.1859 -0.3485 -0.0968
  216MOL0     C28418   7.777   8.934   2.740  0.8360 -0.0886 -0.1910
  216MOL0     C28419   7.686   8.811   2.715  0.0688 -0.5166 -0.2264
  216MOL0     C28420   7.578   8.847   2.616  0.9380  0.1545  0.1205
  216MOL0     C28421   7.628   8.835   2.467  0.4006  0.1219  0.8592
  216MOL0     C28422   7.524   8.899   2.369 -1.0421  0.0470  0.4111
  216MOL0     C28423   7.593   8.908   2.235  0.1722  0.0671  0.9995
  216MOL0    Cl28424   7.486   8.959   2.101 -0.2311  0.2111 -0.2171
  216MOL0     C28425   8.233   9.165   2.549  0.7262  0.3596  1.5322
  216MOL0     C28426   8.317   9.276   2.516 -0.2167  0.0203 -0.8315
  216MOL0     O28427   8.303   9.548   2.193 -0.8649 -0.2761  0.3982
  216MOL0     C28428   8.517   9.708   2.437 -0.0063 -0.8478  0.2919
  216MOL0     C28429   8.620   9.798   2.433  0.5438 -0.9352 -0.1747
  216MOL0     N28430   8.711  10.284   1.907  0.3852 -0.8510 -0.0841
  216MOL0     N28431   8.584  10.300   1.903  0.9445  0.1392  0.1068
  216MOL0     C28432   8.925  10.452   2.197 -0.3816 -0.1318  0.8939
  216MOL0     C28433   9.054  10.517   2.190 -0.4995  0.6901  0.7057
  216MOL0     C28434   9.417  10.762   2.199  0.4617  0.5676 -0.6565
  216MOL0     C28435   9.487  10.817   2.090 -0.6620  0.9685 -0.2133
  216MOL0     C28436   9.607  10.898   2.102 -0.3365  0.0784  0.5807
  216MOL0     C28437   9.668  10.908   2.226 -0.8381  0.5261 -0.1126
  216MOL0     O28438   9.783  10.979   2.242  0.0432  0.7912  0.6081
  216MOL0     C28439   9.881  10.940   2.340 -0.1499  0.3792  0.5654
  216MOL0     C28440   9.991  10.851   2.275  0.0214 -0.5339  0.0191
  216MOL0     C28441  10.092  10.794   2.382 -1.6303 -0.5682  0.5226
  216MOL0     C28442  10.174  10.904   2.458  0.9835  0.3814 -0.0567
  216MOL0     C28443  10.242  11.003   2.375  0.1701  0.2005  0.3330
  216MOL0     C28444  10.296  11.095   2.321  0.5422 -0.0911 -0.3051
  216MOL0     C28445   9.602  10.843   2.333 -0.7471 -0.4527  0.0901
  216MOL0     C28446   9.478  10.779   2.326  0.4421 -0.3712 -0.6328
  216MOL0     H28447   9.111  10.585   2.514 -0.2211  0.2162  0.6723
  216MOL0     H28448   8.904  10.455   2.539  0.1422 -0.2052 -0.4443
  216MOL0     H28449   8.709  10.373   2.532  1.7672 -1.9795  2.4986
  216MOL0     H28450   8.791  10.225   2.490 -0.8356 -0.5512  0.9491
  216MOL0     H28451   8.571  10.164   2.520 -1.0641 -1.4323 -0.5257
  216MOL0     H28452   8.592  10.163   2.342 -4.3236  0.3079 -0.5958
  216MOL0     H28453   8.473  10.396   2.334 -1.6667 -0.8969 -0.3480
  216MOL0     H28454   8.481  10.392   2.509  2.0754 -0.0087 -0.9017
  216MOL0     H28455   8.286  10.247   2.512 -0.5496 -3.1989 -1.3897
  216MOL0     H28456   8.258  10.368   2.396 -1.9526 -0.3110  4.4637
  216MOL0     H28457   8.189  10.160   2.282 -0.5513  0.4789 -1.6014
  216MOL0     H28458   8.329  10.077   2.336 -0.2114  0.4736  2.0123
  216MOL0     H28459   8.466  10.214   2.169  0.3837  3.1539 -1.8051
  216MOL0     H28460   8.325  10.308   2.128  0.4857  0.3352 -0.1665
  216MOL0     H28461   8.378  10.016   2.076 -2.0872 -1.3863  0.6011
  216MOL0     H28462   8.225  10.095   2.050  1.5534 -1.5064  1.8423
  216MOL0     H28463   8.332  10.250   1.887  1.6109  2.3619  2.6740
  216MOL0     H28464   8.352  10.083   1.832  1.7334  2.4237 -2.6983
  216MOL0     H28465   8.617   9.981   1.901 -2.7444 -0.8504  2.5476
  216MOL0     H28466   8.947  10.173   1.846  1.0882 -1.7317 -0.9393
  216MOL0     H28467   8.874  10.015   1.834  2.0604 -2.8584  2.4064
  216MOL0     H28468   8.946  10.177   2.086  1.4197 -1.4091  3.3781
  216MOL0     H28469   9.056  10.061   1.999 -0.5450  2.0300 -2.0272
  216MOL0     H28470   8.846   9.907   2.071 -0.2375 -0.6006  0.0581
  216MOL0     H28471   8.978   9.939   2.192 -0.9414 -1.4924 -0.7034
  216MOL0     H28472   8.720  10.084   2.190 -0.9606 -1.6741  0.3596
  216MOL0     H28473   8.856  10.133   2.282 -0.7046  0.0478  1.4904
  216MOL0     H28474   8.623   9.885   2.103  2.5022  0.8608  1.2893
  216MOL0     H28475   8.468   9.701   2.088  0.0727  2.8268 -0.5811
  216MOL0     H28476   8.124   9.410   2.275 -2.1173 -1.5637  0.0526
  216MOL0     H28477   7.995   9.211   2.313  1.6826  0.4265 -2.1194
  216MOL0     H28478   7.945   9.120   2.681  1.4298  0.6336  0.4155
  216MOL0     H28479   8.089   9.031   2.716 -0.3244 -0.3499  0.3043
  216MOL0     H28480   7.966   8.846   2.750  0.0567  0.2886  0.5207
  216MOL0     H28481   7.904   8.846   2.585  1.4391 -0.1933 -0.3110
  216MOL0     H28482   7.728   9.021   2.695 -3.6647 -3.6211 -3.0768
  216MOL0     H28483   7.791   8.944   2.848  1.1227 -0.1650 -0.2209
  216MOL0     H28484   7.736   8.716   2.695  1.7026  0.2613 -0.0493
  216MOL0     H28485   7.635   8.794   2.810 -0.5266  1.8506 -0.0505
  216MOL0     H28486   7.555   8.953   2.631  2.1846  0.4230  0.2092
  216MOL0     H28487   7.486   8.793   2.640  0.4724  1.6494  1.9673
  216MOL0     H28488   7.641   8.732   2.432  3.7833  1.5968 -3.0345
  216MOL0     H28489   7.727   8.881   2.458 -0.3135  1.4157 -0.9682
  216MOL0     H28490   7.440   8.829   2.358 -0.5875 -0.3569 -0.7656
  216MOL0     H28491   7.478   8.992   2.401  0.3037  0.6446  0.6740
  216MOL0     H28492   7.635   8.813   2.197 -0.4095  0.5270 -0.9066
  216MOL0     H28493   7.668   8.988   2.233 -0.0270  0.2514 -0.3832
  216MOL0     H28494   8.273   9.102   2.628  0.2500 -1.9313  0.0154
  216MOL0     H28495   8.415   9.298   2.559 -0.8231  2.4160 -0.5257
  216MOL0     H28496   8.500   9.652   2.528 -0.8010 -3.1710 -1.1807
  216MOL0     H28497   8.663   9.818   2.531 -1.9418  0.5005  0.7298
  216MOL0     H28498   8.866  10.426   2.109 -0.3318  5.0042 -0.9782
  216MOL0     H28499   9.083  10.528   2.086  1.6109  0.0798  1.1792
  216MOL0     H28500   9.449  10.783   1.994  2.8828 -3.9720 -0.2656
  216MOL0     H28501   9.662  10.916   2.010  0.1209 -0.6674  0.6998
  216MOL0     H28502   9.851  10.874   2.422 -1.6859  0.6997  0.2938
  216MOL0     H28503   9.922  11.030   2.388 -1.9593 -0.9096  5.0727
  216MOL0     H28504   9.941  10.772   2.219 -1.0032  1.6351 -2.3414
  216MOL0     H28505  10.047  10.912   2.204 -1.1574  0.9866  0.3444
  216MOL0     H28506  10.175  10.743   2.333  2.3089  3.9701  1.6798
  216MOL0     H28507  10.041  10.719   2.443  1.9307 -1.4654  2.6943
  216MOL0     H28508  10.115  10.960   2.531  4.1983  0.0141  3.1362
  216MOL0     H28509  10.258  10.860   2.513  1.6267 -0.6966 -1.8320
  216MOL0     H28510  10.341  11.170   2.258 -2.6913  1.3265 -1.1477
  216MOL0     H28511   9.642  10.845   2.433 -1.5849  1.6035  0.4509
  216MOL0     H28512   9.426  10.751   2.417  2.0002 -0.1222  0.3781
  217MOL0     O28513   7.276   0.363   7.314  0.4403  0.0284 -0.0743
  217MOL0     C28514   7.305   0.413   7.427 -0.1535 -1.0822  0.4403
  217MOL0     O28515   7.226   0.485   7.511  0.3199  0.7062 -0.4726
  217MOL0     C28516   7.089   0.500   7.484 -0.3228  0.0589  0.5408
  217MOL0     C28517   7.006   0.395   7.469 -0.3410  0.1592  0.1443
  217MOL0     C28518   6.870   0.410   7.452  1.4112 -0.4659  0.2327
  217MOL0     C28519   6.815   0.540   7.468 -0.5061  0.5307 -0.5759
  217MOL0     O28520   6.677   0.535   7.460  0.3120  0.5855  0.2876
  217MOL0     C28521   6.601   0.652   7.489  1.8253 -0.0823 -0.2583
  217MOL0     C28522   6.455   0.603   7.458  0.6266  0.3132 -0.6554
  217MOL0     C28523   6.394   0.530   7.567 -0.1043 -0.0111  0.0947
  217MOL0     C28524   6.261   0.472   7.516 -0.5249 -0.3175  0.1440
  217MOL0     C28525   6.152   0.587   7.509  0.0808 -1.0028  0.1206
  217MOL0     C28526   6.115   0.648   7.371  0.4542 -0.2404  0.0082
  217MOL0     C28527   6.046   0.790   7.362  1.1207  0.2302 -0.3516
  217MOL0     C28528   5.949   0.831   7.472 -0.0911  0.6976 -0.5064
  217MOL0     N28529   5.802   0.806   7.442  0.6524 -0.7657  1.1823
  217MOL0     C28530   5.740   0.830   7.316 -0.3021  0.2904 -0.1366
  217MOL0     C28531   5.607   0.813   7.339  0.3292 -0.1267  0.2481
  217MOL0     C28532   5.488   0.834   7.249 -0.3639 -0.8515 -0.3158
  217MOL0     C28533   5.447   0.978   7.269 -0.0061  0.1533  0.7790
  217MOL0     C28534   5.327   0.998   7.369 -0.8694  0.3733 -0.1672
  217MOL0     C28535   5.199   0.997   7.305 -0.4187 -0.3400 -0.6314
  217MOL0     O28536   5.092   1.000   7.403  0.0368  0.3515  0.2118
  217MOL0     C28537   4.968   0.957   7.369 -0.1690 -0.0222 -0.4741
  217MOL0     C28538   4.919   0.961   7.237  0.3758 -0.2327 -0.9406
  217MOL0     C28539   4.792   0.917   7.210  0.4600 -0.6026  0.0237
  217MOL0     C28540   4.709   0.869   7.311  1.0681 -0.0840 -0.2404
  217MOL0     C28541   4.567   0.824   7.283  0.0311 -0.1017  0.1445
  217MOL0     O28542   4.552   0.783   7.158  0.6372  0.5091 -0.0004
  217MOL0     C28543   4.425   0.772   7.110  0.4001 -0.1632 -0.0185
  217MOL0     C28544   4.400   0.681   7.014  0.4193  0.0671  0.3882
  217MOL0     C28545   4.288   0.678   6.936 -0.2714  0.6636  0.9301
  217MOL0     C28546   4.182   0.765   6.953  0.7181 -0.5678  0.2707
  217MOL0     O28547   4.058   0.752   6.892 -0.7415  0.8100  1.1598
  217MOL0     C28548   3.968   0.671   6.968  0.2466 -0.8540 -0.4456
  217MOL0     C28549   3.821   0.676   6.904 -0.8422  0.1039  0.1480
  217MOL0     C28550   3.722   0.604   7.003 -0.5350 -0.1729 -0.4492
  217MOL0     C28551   3.575   0.633   6.972 -0.2184 -0.6960  0.1308
  217MOL0     C28552   3.489   0.566   7.073  0.2558  0.0065 -0.1165
  217MOL0     C28553   3.344   0.551   7.025 -0.6495  0.3715 -0.8891
  217MOL0     C28554   3.263   0.672   7.011 -1.5007  0.2884 -0.2268
  217MOL0     C28555   3.145   0.664   6.920  0.5875 -0.3198  0.7487
  217MOL0    Cl28556   3.155   0.580   6.765 -0.3015 -0.1368 -0.3942
  217MOL0     C28557   4.200   0.866   7.049 -0.1375 -0.0441  0.0954
  217MOL0     C28558   4.326   0.880   7.118 -0.6173  0.5376  0.4829
  217MOL0     O28559   4.476   0.833   7.364 -0.0759  0.4816  0.9628
  217MOL0     C28560   4.754   0.862   7.441  0.9631  0.0682 -0.1039
  217MOL0     C28561   4.887   0.901   7.471 -0.6058  0.2827  0.4637
  217MOL0     N28562   5.592   0.768   7.472 -0.0580 -0.2863  0.4964
  217MOL0     N28563   5.704   0.754   7.528 -0.3120 -0.1853  0.8735
  217MOL0     C28564   6.898   0.652   7.472  0.3848  0.0955 -0.4756
  217MOL0     C28565   7.039   0.630   7.476  0.0712 -0.2411 -0.1143
  217MOL0     C28566   7.452   0.403   7.469  0.3562 -0.4437 -0.1268
  217MOL0     C28567   7.502   0.464   7.584 -0.8864  0.4322 -0.0602
  217MOL0     C28568   7.640   0.447   7.613 -0.1855  0.1419 -0.4457
  217MOL0     C28569   7.729   0.385   7.525  0.6366  0.5699  0.0421
  217MOL0     O28570   7.857   0.376   7.542  0.0874  0.6644  0.3330
  217MOL0     C28571   7.936   0.481   7.479 -0.2697  1.0892 -0.9056
  217MOL0     C28572   8.062   0.442   7.419  0.4529 -0.2213 -0.3736
  217MOL0     C28573   8.030   0.371   7.284 -0.3210  0.2432 -0.8946
  217MOL0     C28574   8.148   0.373   7.189  0.6094  0.3506 -0.5544
  217MOL0     C28575   8.259   0.288   7.223  0.3849  0.0096 -0.8979
  217MOL0     C28576   8.359   0.229   7.257 -0.2068  0.1246  0.3710
  217MOL0     C28577   7.680   0.323   7.415  0.5150 -0.6723  0.0183
  217MOL0     C28578   7.543   0.336   7.369 -0.5000  0.2313 -0.1872
  217MOL0     H28579   7.038   0.294   7.445  1.3609  1.2962 -3.1054
  217MOL0     H28580   6.802   0.327   7.434 -0.2978  0.8788  0.2632
  217MOL0     H28581   6.633   0.734   7.425  2.1848 -1.5694 -2.0667
  217MOL0     H28582   6.602   0.684   7.594 -2.5374 -0.4192  0.0725
  217MOL0     H28583   6.455   0.552   7.361  1.9991  3.5570 -2.5490
  217MOL0     H28584   6.395   0.692   7.437 -1.4119 -1.2620 -1.8896
  217MOL0     H28585   6.381   0.604   7.646 -1.5526 -0.7620  0.5952
  217MOL0     H28586   6.456   0.446   7.601 -0.8598  0.1392  1.9528
  217MOL0     H28587   6.280   0.419   7.422  3.3653  1.0303 -0.0129
  217MOL0     H28588   6.221   0.396   7.583  1.2570 -0.0118  1.6239
  217MOL0     H28589   6.178   0.665   7.581  2.2518 -0.7520 -0.8235
  217MOL0     H28590   6.062   0.547   7.555 -0.6302  0.3973  0.0112
  217MOL0     H28591   6.060   0.569   7.318  2.4912 -2.5835  1.1721
  217MOL0     H28592   6.211   0.658   7.320 -0.3971  0.8915 -1.4519
  217MOL0     H28593   6.129   0.862   7.371 -1.7885  3.8825 -0.4613
  217MOL0     H28594   6.007   0.811   7.263 -2.4447  1.7827  1.2289
  217MOL0     H28595   5.954   0.940   7.484  0.1134  0.5060  1.6445
  217MOL0     H28596   5.972   0.801   7.575 -0.5729  5.2346  1.1809
  217MOL0     H28597   5.793   0.865   7.228  1.3306 -1.5745  0.0275
  217MOL0     H28598   5.415   0.757   7.272  0.7568 -1.5973  0.8767
  217MOL0     H28599   5.527   0.818   7.148 -1.8288 -0.5302 -0.9539
  217MOL0     H28600   5.408   1.011   7.172 -0.7463 -0.6966  0.7775
  217MOL0     H28601   5.526   1.051   7.290  0.3312 -0.1645  0.6120
  217MOL0     H28602   5.333   0.918   7.443  0.1323 -0.4585 -1.1193
  217MOL0     H28603   5.341   1.095   7.419 -0.1361  0.6932 -0.9604
  217MOL0     H28604   5.183   0.909   7.243 -0.4023 -2.0590  1.6776
  217MOL0     H28605   5.193   1.092   7.250  0.9467 -0.9868 -1.9567
  217MOL0     H28606   4.982   1.002   7.158 -0.4846  1.3003 -0.8560
  217MOL0     H28607   4.759   0.926   7.107 -1.1070  1.5069  0.6237
  217MOL0     H28608   4.479   0.609   6.997  0.2878  0.1845 -0.7621
  217MOL0     H28609   4.276   0.598   6.863 -0.7172  3.4320 -2.2926
  217MOL0     H28610   3.960   0.712   7.069 -2.1430 -2.5043  0.1052
  217MOL0     H28611   3.994   0.565   6.975 -0.9406 -1.1529 -0.3269
  217MOL0     H28612   3.824   0.617   6.812 -2.6086 -1.7921  1.2117
  217MOL0     H28613   3.797   0.780   6.885  3.6394  1.5317  1.0103
  217MOL0     H28614   3.747   0.643   7.102  0.1730 -1.0081 -0.2836
  217MOL0     H28615   3.743   0.497   7.012  2.9892  0.5478  1.6931
  217MOL0     H28616   3.566   0.742   6.966  2.7440 -0.4228 -1.8512
  217MOL0     H28617   3.551   0.596   6.872 -0.0981  3.1088 -1.4828
  217MOL0     H28618   3.484   0.624   7.166 -2.9728 -2.5380  1.4863
  217MOL0     H28619   3.521   0.467   7.106 -0.0671  0.4909  1.7759
  217MOL0     H28620   3.298   0.494   7.106 -1.4106 -3.5034 -3.7738
  217MOL0     H28621   3.343   0.491   6.934  5.3567 -1.8543  0.0222
  217MOL0     H28622   3.221   0.702   7.107  0.6178  3.9626 -0.2580
  217MOL0     H28623   3.327   0.755   6.980 -2.2248  1.5154  1.4141
  217MOL0     H28624   3.101   0.764   6.922  2.7251  0.7276 -0.7191
  217MOL0     H28625   3.076   0.595   6.970  2.3359 -3.7850 -1.2560
  217MOL0     H28626   4.129   0.946   7.063 -0.1782 -0.1447  0.4746
  217MOL0     H28627   4.363   0.970   7.165  1.6876  0.7479 -1.5246
  217MOL0     H28628   4.693   0.830   7.525  0.2152 -1.0043 -1.0422
  217MOL0     H28629   4.933   0.892   7.569  0.7764  0.9564 -0.1055
  217MOL0     H28630   6.849   0.749   7.459 -2.3133 -1.0997  0.0524
  217MOL0     H28631   7.107   0.714   7.480 -0.1792 -0.0832  1.3118
  217MOL0     H28632   7.436   0.534   7.633 -1.1069  0.3999 -0.3106
  217MOL0     H28633   7.677   0.505   7.696 -1.0756  0.0681  0.0176
  217MOL0     H28634   7.961   0.555   7.555 -5.5250  0.1811  2.2339
  217MOL0     H28635   7.872   0.527   7.403  2.1755  1.6484 -2.7148
  217MOL0     H28636   8.117   0.531   7.389  2.0044 -0.2363  2.1340
  217MOL0     H28637   8.113   0.371   7.484 -1.1453 -0.1076  1.0739
  217MOL0     H28638   7.955   0.419   7.220 -2.9724 -1.7843  0.5313
  217MOL0     H28639   8.009   0.265   7.300  1.1126  0.0387 -0.2369
  217MOL0     H28640   8.110   0.344   7.091  1.5354  0.0759 -0.8461
  217MOL0     H28641   8.181   0.477   7.199 -0.3183  0.4217  3.3392
  217MOL0     H28642   8.452   0.189   7.291 -0.4171 -2.7623 -2.0454
  217MOL0     H28643   7.744   0.276   7.341  2.9188 -0.8856  2.1081
  217MOL0     H28644   7.508   0.286   7.280 -1.3820  1.7319 -0.7213
  218MOL0     O28645   3.588   4.645  10.307  0.4756  0.5202 -0.3351
  218MOL0     C28646   3.604   4.558  10.396 -0.3972  0.6534  0.2740
  218MOL0     O28647   3.521   4.461  10.422  0.0720 -0.1062  0.4776
  218MOL0     C28648   3.397   4.453  10.379 -0.2956 -0.2900 -0.6702
  218MOL0     C28649   3.326   4.333  10.392 -0.0348  0.2175  1.1373
  218MOL0     C28650   3.190   4.313  10.353  0.6279 -0.4031 -0.1942
  218MOL0     C28651   3.118   4.432  10.339  0.5128  1.2033  0.6245
  218MOL0     O28652   2.975   4.423  10.344 -0.2384 -0.1076  0.2986
  218MOL0     C28653   2.895   4.521  10.269 -0.0616 -0.3362  0.4474
  218MOL0     C28654   2.759   4.449  10.235  0.7673  0.0987  0.0085
  218MOL0     C28655   2.632   4.540  10.237  0.1545 -1.1761  0.0526
  218MOL0     C28656   2.511   4.452  10.192 -0.8450  0.3039 -0.0026
  218MOL0     C28657   2.369   4.496  10.252 -0.2037  0.4529 -0.5597
  218MOL0     C28658   2.335   4.641  10.222 -0.0264 -0.4781  0.2411
  218MOL0     C28659   2.183   4.655  10.208  0.0143 -0.1135 -0.7939
  218MOL0     C28660   2.130   4.799  10.208  0.6066  0.2960  0.6750
  218MOL0     N28661   1.990   4.806  10.201 -0.3616 -0.4872  0.1378
  218MOL0     C28662   1.905   4.764  10.306 -0.5479  0.4699  0.1536
  218MOL0     C28663   1.785   4.797  10.262  0.5846 -0.6731  0.4782
  218MOL0     C28664   1.645   4.770  10.326 -0.4025  0.8962  0.3972
  218MOL0     C28665   1.656   4.628  10.389  0.4170 -1.2811  0.5429
  218MOL0     C28666   1.555   4.615  10.501  0.2621 -0.1831 -0.7797
  218MOL0     C28667   1.584   4.484  10.568  0.2999  0.7858  0.5645
  218MOL0     O28668   1.484   4.467  10.675 -0.1884 -0.1996 -0.3428
  218MOL0     C28669   1.360   4.451  10.636  0.3855  0.8637  0.3724
  218MOL0     C28670   1.271   4.468  10.741  0.0411  1.1463 -0.0666
  218MOL0     C28671   1.131   4.457  10.728 -0.5448 -0.5075 -0.0535
  218MOL0     C28672   1.074   4.435  10.601  0.6396 -0.2132  0.3417
  218MOL0     C28673   0.919   4.416  10.586 -0.9824  0.7651 -0.3768
  218MOL0     O28674   0.834   4.409  10.697 -0.2211  0.2358  0.0284
  218MOL0     C28675   0.696   4.420  10.680 -0.7198 -0.3619  0.2915
  218MOL0     C28676   0.633   4.323  10.607  0.4744  0.9246 -0.3281
  218MOL0     C28677   0.494   4.309  10.602 -0.2414  1.3110 -0.8659
  218MOL0     C28678   0.413   4.406  10.667 -0.2470  0.6059  0.2070
  218MOL0     O28679   0.280   4.404  10.653 -0.8656 -0.1639  0.3152
  218MOL0     C28680   0.215   4.283  10.623  0.3592 -0.3503 -0.3892
  218MOL0     C28681   0.061   4.311  10.623  0.7551  0.5608 -0.0028
  218MOL0     C28682   0.010   4.382  10.748  0.4775  0.3397  0.0933
  218MOL0     C28683  -0.143   4.410  10.751  0.1012  0.8527  0.6927
  218MOL0     C28684  -0.179   4.472  10.887  0.0315 -0.0274  0.3165
  218MOL0     C28685  -0.335   4.478  10.901  0.5130 -0.0173 -0.1386
  218MOL0     C28686  -0.372   4.562  11.016 -0.7434 -1.1323  0.5736
  218MOL0     C28687  -0.528   4.587  11.002  0.4424  0.1860  0.7687
  218MOL0    Cl28688  -0.639   4.453  11.052 -0.5679 -0.1885  0.0842
  218MOL0     C28689   0.479   4.509  10.735  1.1897  1.0331 -0.4549
  218MOL0     C28690   0.622   4.521  10.746  0.2194  0.3020 -0.2001
  218MOL0     O28691   0.875   4.409  10.469  0.1037 -0.0696 -0.1857
  218MOL0     C28692   1.162   4.413  10.492 -0.6200  1.1323 -0.0044
  218MOL0     C28693   1.301   4.424  10.508 -0.0523  0.1354 -0.1402
  218MOL0     N28694   1.799   4.868  10.143  0.3376 -0.1232 -0.5554
  218MOL0     N28695   1.918   4.877  10.115 -0.4635 -0.9288 -0.5021
  218MOL0     C28696   3.180   4.558  10.329 -0.0627 -0.8975  0.4742
  218MOL0     C28697   3.319   4.566  10.341 -1.2316  0.8904  0.4757
  218MOL0     C28698   3.739   4.544  10.456 -0.4066 -0.1656  0.1092
  218MOL0     C28699   3.774   4.468  10.565  1.1001 -0.1741 -0.2841
  218MOL0     C28700   3.907   4.462  10.616  1.0805 -0.5431 -0.2193
  218MOL0     C28701   4.010   4.537  10.559 -0.6475  0.0733  0.3376
  218MOL0     O28702   4.133   4.549  10.627 -0.2084  0.0139  1.5033
  218MOL0     C28703   4.251   4.606  10.562  0.7937 -0.1315  0.2719
  218MOL0     C28704   4.263   4.748  10.617 -0.0558 -0.2937  0.7522
  218MOL0     C28705   4.406   4.797  10.591 -0.4628 -0.4383 -0.4028
  218MOL0     C28706   4.421   4.927  10.671  0.6864  0.6507  0.3820
  218MOL0     C28707   4.556   4.985  10.665  0.2458 -0.2312 -0.7827
  218MOL0     C28708   4.667   5.032  10.656  0.2711 -0.4935  0.3667
  218MOL0     C28709   3.974   4.622  10.451 -0.3326  0.6424 -0.3953
  218MOL0     C28710   3.843   4.624  10.400 -0.3512  1.5790 -0.3035
  218MOL0     H28711   3.384   4.246  10.422  0.6958  0.5287  0.6414
  218MOL0     H28712   3.121   4.229  10.357 -2.5906  1.9940 -1.0763
  218MOL0     H28713   2.937   4.531  10.168  0.7726 -0.3253  0.7924
  218MOL0     H28714   2.899   4.613  10.329  1.2395  0.7356 -1.1833
  218MOL0     H28715   2.759   4.374  10.315  2.0790  0.4880  0.3919
  218MOL0     H28716   2.759   4.391  10.142  0.9294  0.0026  0.0674
  218MOL0     H28717   2.646   4.625  10.169 -0.2624 -1.3324 -0.2395
  218MOL0     H28718   2.615   4.588  10.334 -1.8410 -1.7042  0.0086
  218MOL0     H28719   2.505   4.458  10.082 -0.7159 -1.8889 -0.1626
  218MOL0     H28720   2.536   4.347  10.211  0.4316 -0.1171 -3.2406
  218MOL0     H28721   2.376   4.483  10.361  2.5710  0.9634 -0.5906
  218MOL0     H28722   2.297   4.426  10.210 -0.4689  0.5796 -0.3235
  218MOL0     H28723   2.378   4.663  10.124 -1.6265 -3.5737 -1.3015
  218MOL0     H28724   2.373   4.706  10.302  2.6149 -0.2401 -1.0929
  218MOL0     H28725   2.152   4.608  10.114 -2.1531  0.9374 -0.6591
  218MOL0     H28726   2.134   4.603  10.290 -2.6899  2.0794 -0.8660
  218MOL0     H28727   2.164   4.842  10.113 -2.5514 -0.5235 -0.9612
  218MOL0     H28728   2.185   4.844  10.291  1.1626 -3.6252  2.6657
  218MOL0     H28729   1.927   4.724  10.405 -3.8138 -0.6822  0.5328
  218MOL0     H28730   1.556   4.770  10.262 -1.7489 -1.6189  2.0978
  218MOL0     H28731   1.623   4.849  10.398 -2.1624  1.3579 -0.5805
  218MOL0     H28732   1.747   4.637  10.448  0.7338  1.1234 -0.2197
  218MOL0     H28733   1.653   4.544  10.318 -0.7736 -1.1064  0.3675
  218MOL0     H28734   1.564   4.694  10.576 -1.5121  1.3784 -2.1074
  218MOL0     H28735   1.453   4.624  10.462 -0.7603 -1.5373  1.3589
  218MOL0     H28736   1.681   4.475  10.618 -0.4338 -0.3966  1.8567
  218MOL0     H28737   1.576   4.408  10.490 -4.8202 -0.7245  2.1255
  218MOL0     H28738   1.296   4.471  10.846  0.0096 -0.0561 -0.0061
  218MOL0     H28739   1.066   4.485  10.811  0.4102  1.2997  0.1471
  218MOL0     H28740   0.696   4.250  10.557 -1.7052 -2.5559  1.5468
  218MOL0     H28741   0.454   4.234  10.535 -0.6498  0.5016  0.2442
  218MOL0     H28742   0.229   4.220  10.712  0.0184  2.2685  1.6542
  218MOL0     H28743   0.242   4.243  10.525 -0.5866 -3.0698  0.3645
  218MOL0     H28744   0.010   4.214  10.613 -0.7551  1.2123  0.9620
  218MOL0     H28745   0.029   4.371  10.537 -2.3789  0.1076  0.6956
  218MOL0     H28746   0.058   4.477  10.770 -1.6228  1.1241  1.6514
  218MOL0     H28747   0.040   4.326  10.837  2.5584  0.0652 -0.7249
  218MOL0     H28748  -0.183   4.470  10.669 -0.6746  1.0710  1.2188
  218MOL0     H28749  -0.193   4.314  10.735  2.1578 -0.6276  2.6064
  218MOL0     H28750  -0.134   4.572  10.882  0.0625 -0.0676 -0.3217
  218MOL0     H28751  -0.128   4.409  10.959 -0.9853 -2.6445 -1.1101
  218MOL0     H28752  -0.365   4.376  10.924 -1.6321 -0.0285 -2.5611
  218MOL0     H28753  -0.379   4.509  10.806  0.1539 -0.9327 -0.2760
  218MOL0     H28754  -0.344   4.510  11.108  2.0117 -2.1241 -0.7074
  218MOL0     H28755  -0.324   4.660  11.019  2.8804 -2.7621  2.8854
  218MOL0     H28756  -0.560   4.627  10.905  2.4785 -0.3106 -0.1598
  218MOL0     H28757  -0.556   4.662  11.077 -1.6104 -0.3227  0.5744
  218MOL0     H28758   0.415   4.589  10.770  2.0243  1.5830 -0.1505
  218MOL0     H28759   0.669   4.604  10.799 -1.0970 -1.0565  3.4103
  218MOL0     H28760   1.113   4.390  10.398 -1.1066 -2.2474  0.9307
  218MOL0     H28761   1.373   4.409  10.428  1.0989  2.0882  0.4722
  218MOL0     H28762   3.136   4.652  10.297 -0.5551 -0.9092  1.1108
  218MOL0     H28763   3.369   4.661  10.330 -0.2057  0.2089 -1.2603
  218MOL0     H28764   3.687   4.423  10.612 -1.1736  3.4582 -0.6485
  218MOL0     H28765   3.932   4.393  10.696  1.5994 -2.3526 -1.8776
  218MOL0     H28766   4.248   4.610  10.453  0.2234  1.0033  0.3063
  218MOL0     H28767   4.337   4.545  10.589 -0.2165  0.1381  4.9867
  218MOL0     H28768   4.196   4.812  10.559  1.3195 -0.9799 -1.7658
  218MOL0     H28769   4.238   4.754  10.723  1.4776  1.6748  1.0601
  218MOL0     H28770   4.428   4.820  10.486 -1.8344 -1.8934 -1.0538
  218MOL0     H28771   4.479   4.723  10.626 -0.0586  0.4713  0.7118
  218MOL0     H28772   4.349   4.989  10.618  1.1983  0.0136 -1.1488
  218MOL0     H28773   4.387   4.911  10.774 -1.2044 -0.3784 -0.3514
  218MOL0     H28774   4.766   5.074  10.652 -0.5929  1.6104 -0.3438
  218MOL0     H28775   4.046   4.688  10.402  0.0407  2.3055  2.1863
  218MOL0     H28776   3.821   4.691  10.317 -0.0322  1.1890 -0.7083
  219MOL0     O28777   7.684  10.118   7.605  0.2269  0.0164 -0.0903
  219MOL0     C28778   7.687  10.129   7.732 -0.7057  1.2028  0.5467
  219MOL0     O28779   7.788  10.107   7.814  0.0727  0.5978  0.2972
  219MOL0     C28780   7.920  10.090   7.771 -0.0155  0.2668 -0.2898
  219MOL0     C28781   8.008  10.033   7.863  1.4096 -0.2447 -0.9910
  219MOL0     C28782   8.141  10.005   7.836  0.1352 -0.1094  0.5158
  219MOL0     C28783   8.189  10.044   7.717  0.6412  0.2095  1.5393
  219MOL0     O28784   8.314  10.004   7.679  0.4524 -0.5462  0.0466
  219MOL0     C28785   8.358   9.865   7.712  0.3696 -0.6222  0.0559
  219MOL0     C28786   8.449   9.827   7.601  0.3009 -0.5599 -0.2193
  219MOL0     C28787   8.470   9.678   7.612  0.6015 -0.3347 -0.3078
  219MOL0     C28788   8.544   9.606   7.498 -0.1702 -0.5080  0.5605
  219MOL0     C28789   8.681   9.666   7.474  0.6279 -0.4759  0.0146
  219MOL0     C28790   8.783   9.589   7.391 -0.5746  0.7195  0.4683
  219MOL0     C28791   8.925   9.626   7.431  0.2007  0.0156 -0.0132
  219MOL0     C28792   8.958   9.768   7.388 -0.0149 -0.1665 -0.3712
  219MOL0     N28793   9.109   9.793   7.396  0.2310  0.1044  1.2514
  219MOL0     C28794   9.161   9.924   7.368 -0.4087  0.2015  0.2315
  219MOL0     C28795   9.302   9.901   7.355 -0.1728  0.0549 -0.3473
  219MOL0     C28796   9.405  10.014   7.327  0.6813 -0.4508 -0.8739
  219MOL0     C28797   9.403  10.052   7.178  0.5131 -0.7106 -0.3884
  219MOL0     C28798   9.480  10.182   7.159  0.5087 -0.2184  0.1883
  219MOL0     C28799   9.626  10.155   7.125 -0.1295 -1.5061  0.6852
  219MOL0     O28800   9.698  10.104   7.239  0.0092 -0.5846 -0.2203
  219MOL0     C28801   9.839  10.110   7.249 -0.2727 -0.8590  0.2495
  219MOL0     C28802   9.921  10.181   7.164 -0.1607  0.5009  0.3620
  219MOL0     C28803  10.060  10.177   7.173  0.1595  0.6114  0.7367
  219MOL0     C28804  10.131  10.112   7.269  0.0568  0.8401 -0.0388
  219MOL0     C28805  10.276  10.128   7.275  0.3199  0.7316  0.4353
  219MOL0     O28806  10.329  10.178   7.168 -0.3314  0.0624  0.3237
  219MOL0     C28807  10.461  10.222   7.171 -0.3399  0.8132  0.0925
  219MOL0     C28808  10.541  10.262   7.282  0.3909  0.4600  0.2869
  219MOL0     C28809  10.672  10.302   7.261 -0.0229  1.1063 -0.2066
  219MOL0     C28810  10.739  10.293   7.144  0.0186 -0.7118  0.5591
  219MOL0     O28811  10.876  10.321   7.126  0.5985 -0.2636  0.3545
  219MOL0     C28812  10.961  10.294   7.237  0.2773  0.7183 -0.1567
  219MOL0     C28813  11.095  10.238   7.184  0.0037 -0.6438  0.5158
  219MOL0     C28814  11.219  10.210   7.281  0.2025  0.3213  0.1466
  219MOL0     C28815  11.345  10.166   7.202  0.3965 -0.5177 -1.2451
  219MOL0     C28816  11.454  10.111   7.293 -0.2145  0.0236  0.5608
  219MOL0     C28817  11.491  10.209   7.415  0.1054 -0.6359  0.3363
  219MOL0     C28818  11.588  10.158   7.521  0.1471 -0.0091  0.0424
  219MOL0     C28819  11.562  10.009   7.568 -0.8952  0.4674  0.3638
  219MOL0    Cl28820  11.420  10.000   7.674  0.5332  0.1222 -0.2837
  219MOL0     C28821  10.662  10.254   7.028 -1.2059 -0.0325 -0.1550
  219MOL0     C28822  10.529  10.219   7.048  0.6863 -0.4559  0.8077
  219MOL0     O28823  10.338  10.079   7.367 -0.5064  0.0448 -0.0290
  219MOL0     C28824  10.049  10.039   7.367  0.5595  0.8519  0.2191
  219MOL0     C28825   9.902  10.058   7.360 -0.0646  0.0517 -0.9807
  219MOL0     N28826   9.321   9.768   7.369  0.7482  0.6182  0.2274
  219MOL0     N28827   9.209   9.710   7.407 -0.5669  0.4764  1.0366
  219MOL0     C28828   8.111  10.102   7.615 -0.2842 -0.5781  0.2299
  219MOL0     C28829   7.975  10.111   7.640 -0.3044 -1.0618 -0.4697
  219MOL0     C28830   7.559  10.169   7.791  0.4624 -0.9865  0.3949
  219MOL0     C28831   7.452  10.203   7.714  0.7060 -0.3536  0.3260
  219MOL0     C28832   7.327  10.246   7.762 -0.2925  0.4008 -0.4468
  219MOL0     C28833   7.311  10.258   7.898 -0.7161  0.9085 -0.0543
  219MOL0     O28834   7.199  10.303   7.970 -0.1161  0.3569  0.8864
  219MOL0     C28835   7.118  10.385   7.889 -0.3396 -0.1767  0.1901
  219MOL0     C28836   6.988  10.393   7.958 -0.3023 -0.2413  0.1028
  219MOL0     C28837   6.879  10.472   7.882 -0.7623 -0.5809 -0.6022
  219MOL0     C28838   6.879  10.629   7.899  1.0111  0.2362  0.1133
  219MOL0     C28839   6.993  10.689   7.838 -1.1577 -0.3128 -0.2075
  219MOL0     C28840   7.094  10.743   7.798 -1.1620  0.2010  1.1329
  219MOL0     C28841   7.424  10.235   7.977  0.8139  0.5472  0.2202
  219MOL0     C28842   7.548  10.199   7.922 -1.7257  0.6064  0.4246
  219MOL0     H28843   7.971  10.013   7.963 -4.0348  0.2086 -2.6074
  219MOL0     H28844   8.194   9.950   7.912  0.5145 -1.0868 -0.4240
  219MOL0     H28845   8.278   9.791   7.723  3.0074 -3.3649  3.1261
  219MOL0     H28846   8.403   9.869   7.812 -2.2464  0.9227  1.2694
  219MOL0     H28847   8.539   9.889   7.612 -0.3205  0.3601 -0.1969
  219MOL0     H28848   8.411   9.857   7.503  1.4811  1.5597 -0.1047
  219MOL0     H28849   8.375   9.626   7.627 -0.3509  2.0504  2.9490
  219MOL0     H28850   8.523   9.656   7.705  1.1895 -0.5866 -0.6960
  219MOL0     H28851   8.552   9.497   7.511  0.2384 -0.6857 -0.9975
  219MOL0     H28852   8.486   9.604   7.406  0.9028 -2.7166 -0.1546
  219MOL0     H28853   8.716   9.673   7.577 -3.7192  3.9661  1.6085
  219MOL0     H28854   8.663   9.769   7.440 -0.9248 -1.5866 -2.9536
  219MOL0     H28855   8.768   9.593   7.283  1.3959 -2.2528 -0.0373
  219MOL0     H28856   8.776   9.483   7.418  4.9446  0.2292  1.0406
  219MOL0     H28857   8.947   9.602   7.536  0.0987  1.8449  0.4489
  219MOL0     H28858   8.993   9.569   7.366 -1.6832 -1.9184 -0.4158
  219MOL0     H28859   8.890   9.831   7.445  0.8302  0.8811 -0.4985
  219MOL0     H28860   8.923   9.787   7.286 -1.1534  1.2741  0.2572
  219MOL0     H28861   9.104  10.017   7.364 -0.9479 -0.0948  0.8367
  219MOL0     H28862   9.504   9.983   7.363  1.2692  3.3016  1.2220
  219MOL0     H28863   9.376  10.097   7.392  1.5794  0.0145 -1.0603
  219MOL0     H28864   9.304  10.047   7.133  0.3945 -0.1414 -0.1894
  219MOL0     H28865   9.453   9.970   7.126  2.9891  0.2602  0.3129
  219MOL0     H28866   9.444  10.250   7.082  2.5415 -0.0289 -0.6698
  219MOL0     H28867   9.471  10.233   7.256  0.6125 -0.8201  0.5170
  219MOL0     H28868   9.664  10.251   7.087 -2.8434 -0.3771  0.6065
  219MOL0     H28869   9.629  10.088   7.039 -0.6399  0.7305 -1.1846
  219MOL0     H28870   9.877  10.231   7.078 -2.0753 -0.2060  0.8694
  219MOL0     H28871  10.107  10.238   7.097  1.6391 -1.5448 -0.1714
  219MOL0     H28872  10.498  10.253   7.382  0.3050  0.5259  0.2563
  219MOL0     H28873  10.725  10.341   7.347  0.5117 -0.4760  0.2163
  219MOL0     H28874  10.923  10.222   7.311  1.1909  1.9586  1.6003
  219MOL0     H28875  10.994  10.385   7.287 -0.6840  0.0012  1.9260
  219MOL0     H28876  11.131  10.312   7.112 -2.1632 -0.8771 -0.9177
  219MOL0     H28877  11.082  10.141   7.137  0.8921 -1.0633  1.1210
  219MOL0     H28878  11.192  10.128   7.347  1.3343  0.4691  0.8138
  219MOL0     H28879  11.250  10.301   7.333 -0.9041  1.3621 -0.9455
  219MOL0     H28880  11.308  10.087   7.136 -0.1965 -1.7493  0.4738
  219MOL0     H28881  11.379  10.247   7.137 -0.9770 -0.6403 -2.1623
  219MOL0     H28882  11.540  10.089   7.228 -0.1099 -0.7133  0.9417
  219MOL0     H28883  11.424  10.013   7.330 -0.6913 -1.0648 -2.3920
  219MOL0     H28884  11.407  10.241   7.477 -0.6636  0.9646 -1.4374
  219MOL0     H28885  11.523  10.304   7.370 -0.9937  0.7080  2.2441
  219MOL0     H28886  11.689  10.169   7.480  0.9526  2.4151  2.4086
  219MOL0     H28887  11.578  10.221   7.610 -0.9364  3.4300 -2.2876
  219MOL0     H28888  11.646   9.964   7.621  0.3845  2.9591  0.6217
  219MOL0     H28889  11.552   9.944   7.480  0.5997  2.2253 -1.2143
  219MOL0     H28890  10.717  10.261   6.935  0.0017  1.8414  0.6491
  219MOL0     H28891  10.475  10.210   6.954 -0.6695 -2.7242  1.7144
  219MOL0     H28892  10.078   9.979   7.453  1.1185  0.3645 -0.2985
  219MOL0     H28893   9.854  10.000   7.438 -1.9332  1.3339 -1.1040
  219MOL0     H28894   8.156  10.120   7.518 -3.2932 -0.0346 -1.1768
  219MOL0     H28895   7.910  10.137   7.558  0.5405  1.9701 -0.3000
  219MOL0     H28896   7.460  10.176   7.609  2.2900  2.5551 -0.3906
  219MOL0     H28897   7.250  10.253   7.686  0.4919  2.3961 -1.1238
  219MOL0     H28898   7.108  10.343   7.788  2.5160  2.7426 -1.5133
  219MOL0     H28899   7.163  10.485   7.891  1.7267 -1.0789  1.2879
  219MOL0     H28900   6.930  10.302   7.979 -2.6838  1.0079 -0.6446
  219MOL0     H28901   7.003  10.443   8.054  0.7725 -3.5658  1.8518
  219MOL0     H28902   6.781  10.440   7.918 -2.7829  3.5984 -1.8107
  219MOL0     H28903   6.880  10.451   7.775  0.8472  2.0287 -1.1926
  219MOL0     H28904   6.793  10.683   7.860 -0.1208 -0.7957  1.0561
  219MOL0     H28905   6.888  10.661   8.003  1.0837 -2.5596  1.0746
  219MOL0     H28906   7.188  10.787   7.772 -0.4397 -1.1742  1.3158
  219MOL0     H28907   7.415  10.257   8.083  3.1140  1.2924  0.3258
  219MOL0     H28908   7.631  10.204   7.992  0.1695  1.2927 -1.7337
  220MOL0     O28909   0.291  10.645   4.213  0.2120  0.3368  0.0525
  220MOL0     C28910   0.337  10.687   4.107 -0.6151 -0.4180 -0.1181
  220MOL0     O28911   0.269  10.758   4.016 -0.3820 -0.6548  0.6436
  220MOL0     C28912   0.137  10.780   4.015  0.0963 -0.4793 -0.4540
  220MOL0     C28913   0.042  10.701   4.089 -0.3768  0.8960 -0.1817
  220MOL0     C28914  -0.092  10.721   4.073  0.0089  1.3622  0.7362
  220MOL0     C28915  -0.137  10.810   3.980 -0.4430 -0.0969 -0.4804
  220MOL0     O28916  -0.264  10.824   3.959  0.9185 -0.3284  0.6798
  220MOL0     C28917  -0.335  10.851   4.078  0.5578 -0.5429 -0.5606
  220MOL0     C28918  -0.440  10.952   4.047 -0.7609 -0.3929  0.2591
  220MOL0     C28919  -0.547  10.974   4.148 -0.8000  0.1158 -0.9281
  220MOL0     C28920  -0.641  11.092   4.111 -0.3372  0.2441  0.1830
  220MOL0     C28921  -0.750  11.130   4.203  0.3678 -0.0033 -0.6789
  220MOL0     C28922  -0.738  11.181   4.345  0.0804  0.1583  0.9210
  220MOL0     C28923  -0.851  11.270   4.380  0.1782 -0.1854 -1.3594
  220MOL0     C28924  -0.849  11.411   4.303 -0.5496  0.2508  0.3430
  220MOL0     N28925  -0.963  11.487   4.328  0.1499 -0.4402  0.2769
  220MOL0     C28926  -0.989  11.552   4.448 -0.3493 -0.2388 -0.4193
  220MOL0     C28927  -1.113  11.598   4.438 -0.4096 -0.5514  0.4874
  220MOL0     C28928  -1.186  11.684   4.543  0.4389  0.5106  0.5121
  220MOL0     C28929  -1.281  11.579   4.616 -0.5959 -0.0008  0.9966
  220MOL0     C28930  -1.361  11.642   4.740 -0.1665 -0.3333  0.1975
  220MOL0     C28931  -1.465  11.740   4.699 -0.0494 -0.6986  0.0786
  220MOL0     O28932  -1.541  11.793   4.817 -0.0897  0.1518  0.6522
  220MOL0     C28933  -1.621  11.710   4.892 -0.8023 -0.7119 -0.3453
  220MOL0     C28934  -1.592  11.671   5.019  0.2036  1.0924  0.0811
  220MOL0     C28935  -1.677  11.578   5.076 -0.3677  0.2003  0.6781
  220MOL0     C28936  -1.784  11.519   5.004  0.6253  0.2170 -0.0608
  220MOL0     C28937  -1.863  11.396   5.041 -0.7056  0.1259 -0.8706
  220MOL0     O28938  -1.924  11.322   4.942  0.2769  0.9825  0.5169
  220MOL0     C28939  -2.039  11.250   4.963  0.2415  0.2571  0.1191
  220MOL0     C28940  -2.134  11.277   5.068 -0.1441 -0.4307  0.7857
  220MOL0     C28941  -2.254  11.204   5.079 -0.4836  0.4745  0.2336
  220MOL0     C28942  -2.296  11.121   4.980  0.0359  0.3171 -0.1425
  220MOL0     O28943  -2.416  11.054   4.990 -0.2017  1.0883  0.5751
  220MOL0     C28944  -2.469  10.992   4.868  0.6747 -0.4764  0.3609
  220MOL0     C28945  -2.614  10.972   4.872  0.6302  0.4970 -0.5089
  220MOL0     C28946  -2.661  10.902   4.744  0.2352 -0.6055 -0.8561
  220MOL0     C28947  -2.809  10.862   4.739  1.1365  0.4064  0.0561
  220MOL0     C28948  -2.848  10.785   4.614 -0.2521 -0.0088 -0.0572
  220MOL0     C28949  -2.984  10.720   4.626  0.1149  0.7015  0.4933
  220MOL0     C28950  -3.004  10.622   4.516  0.1101 -0.2171 -0.2199
  220MOL0     C28951  -3.141  10.555   4.514  0.9779  0.3168 -0.2767
  220MOL0    Cl28952  -3.264  10.679   4.458  0.0550 -0.0153 -0.2036
  220MOL0     C28953  -2.208  11.097   4.877  0.0259 -0.2169 -0.5707
  220MOL0     C28954  -2.084  11.156   4.871  0.5597 -0.6284 -0.3271
  220MOL0     O28955  -1.872  11.376   5.160 -0.0346  0.7202  0.2049
  220MOL0     C28956  -1.818  11.572   4.880 -1.6737 -0.2902  0.6869
  220MOL0     C28957  -1.738  11.676   4.834  0.1354  0.5466  0.4638
  220MOL0     N28958  -1.162  11.563   4.318  0.6207 -0.4500  0.7180
  220MOL0     N28959  -1.070  11.497   4.246  0.0491  0.0164  0.6164
  220MOL0     C28960  -0.046  10.879   3.900  0.5113 -0.8804 -0.0623
  220MOL0     C28961   0.092  10.870   3.916  0.1441 -1.5473  0.4369
  220MOL0     C28962   0.480  10.671   4.088  0.3640 -0.7447  0.3655
  220MOL0     C28963   0.568  10.609   4.178 -0.0575  0.3170 -0.3285
  220MOL0     C28964   0.706  10.601   4.160  0.0814 -0.3442 -1.0997
  220MOL0     C28965   0.759  10.651   4.045 -0.3937 -0.0713  0.2694
  220MOL0     O28966   0.890  10.618   4.030  0.5944  0.3689  0.2023
  220MOL0     C28967   0.955  10.646   3.908  0.7476 -0.8665  0.9085
  220MOL0     C28968   1.095  10.589   3.916  0.3934  0.6789 -0.5356
  220MOL0     C28969   1.097  10.434   3.902  0.2704 -0.3321 -0.0889
  220MOL0     C28970   1.221  10.383   3.831  0.3667  0.6918  0.4087
  220MOL0     C28971   1.212  10.241   3.809  1.0035 -0.1690 -0.0700
  220MOL0     C28972   1.219  10.130   3.766  0.3099  0.4261 -0.1920
  220MOL0     C28973   0.679  10.713   3.951  0.0990 -0.7017 -0.2068
  220MOL0     C28974   0.540  10.727   3.973  0.1939  0.6505 -0.4294
  220MOL0     H28975   0.070  10.617   4.153 -0.9461  1.5032  0.8876
  220MOL0     H28976  -0.169  10.669   4.129  1.4026 -1.5587  0.1072
  220MOL0     H28977  -0.274  10.889   4.160  0.4480 -0.1118 -0.6773
  220MOL0     H28978  -0.383  10.758   4.111 -0.1595  0.3710  1.0778
  220MOL0     H28979  -0.495  10.927   3.955 -0.6547  0.8303 -0.1488
  220MOL0     H28980  -0.382  11.042   4.029 -2.6083  0.2681 -3.3516
  220MOL0     H28981  -0.501  10.993   4.245 -2.6028 -0.9897  0.2102
  220MOL0     H28982  -0.611  10.886   4.162  1.7714 -1.3783  4.2302
  220MOL0     H28983  -0.575  11.180   4.104  1.8835 -1.3711 -0.1947
  220MOL0     H28984  -0.683  11.072   4.013  1.9289  1.1532 -1.0562
  220MOL0     H28985  -0.820  11.045   4.198  0.0670  0.2673 -1.2303
  220MOL0     H28986  -0.793  11.206   4.138  0.9953  1.2827  0.3818
  220MOL0     H28987  -0.654  11.249   4.332 -0.2882  0.1862 -1.6699
  220MOL0     H28988  -0.717  11.099   4.415 -0.4484 -0.7612  0.0322
  220MOL0     H28989  -0.945  11.216   4.364 -0.4986  0.0625  1.2745
  220MOL0     H28990  -0.843  11.282   4.488 -2.2043  0.6558 -1.2127
  220MOL0     H28991  -0.839  11.391   4.196 -0.2542 -2.9888  0.8776
  220MOL0     H28992  -0.759  11.467   4.328  1.6216 -2.1042 -1.6735
  220MOL0     H28993  -0.920  11.554   4.533  0.3953  1.3460 -1.0121
  220MOL0     H28994  -1.242  11.770   4.504 -1.2371 -1.2847 -1.2616
  220MOL0     H28995  -1.110  11.721   4.613  2.1493 -0.6852 -0.6353
  220MOL0     H28996  -1.221  11.499   4.660  1.2226  0.0181 -1.2806
  220MOL0     H28997  -1.350  11.538   4.542 -0.0016 -2.7323  1.8608
  220MOL0     H28998  -1.415  11.566   4.797 -2.0138  2.0659  1.8668
  220MOL0     H28999  -1.287  11.679   4.811 -0.9486 -1.0532  1.4294
  220MOL0     H29000  -1.536  11.696   4.628 -1.8117  3.7980 -1.2880
  220MOL0     H29001  -1.420  11.827   4.650 -3.8171  0.2395 -2.1325
  220MOL0     H29002  -1.497  11.703   5.062  0.5910 -0.1132  0.1852
  220MOL0     H29003  -1.655  11.535   5.173  0.4691  1.1561  0.9279
  220MOL0     H29004  -2.109  11.357   5.137 -2.0282 -1.7935  3.1857
  220MOL0     H29005  -2.314  11.220   5.168 -1.2045 -4.0915  0.8220
  220MOL0     H29006  -2.420  10.897   4.844  1.1962 -0.2909  0.6671
  220MOL0     H29007  -2.457  11.059   4.783  3.1119 -0.8649  0.3162
  220MOL0     H29008  -2.675  11.063   4.872 -1.4464 -0.7607  1.8302
  220MOL0     H29009  -2.642  10.902   4.951 -1.8579  3.5503  1.5531
  220MOL0     H29010  -2.600  10.815   4.716 -0.6051 -1.0021 -1.4857
  220MOL0     H29011  -2.639  10.976   4.666 -1.6943  1.4389  0.4262
  220MOL0     H29012  -2.817  10.800   4.829  2.9479  1.5196  1.0614
  220MOL0     H29013  -2.872  10.950   4.754  2.6599  2.1214 -2.6879
  220MOL0     H29014  -2.768  10.716   4.584 -1.4561 -2.2213  1.5635
  220MOL0     H29015  -2.861  10.863   4.538  0.5602 -0.0901 -0.2890
  220MOL0     H29016  -3.071  10.783   4.646 -0.4617 -0.4484  1.8088
  220MOL0     H29017  -2.982  10.666   4.721  0.1436 -2.9006 -1.3758
  220MOL0     H29018  -2.972  10.663   4.420  1.2175 -1.7687 -0.5455
  220MOL0     H29019  -2.935  10.542   4.545  0.0665 -0.6220 -1.2093
  220MOL0     H29020  -3.177  10.514   4.609 -0.5880 -3.0763 -2.1484
  220MOL0     H29021  -3.142  10.470   4.445  1.2010  0.0411  0.0576
  220MOL0     H29022  -2.234  11.015   4.812 -0.9473 -0.0541 -0.4089
  220MOL0     H29023  -2.014  11.135   4.792  2.2060 -3.2051  1.6511
  220MOL0     H29024  -1.900  11.527   4.825 -2.5494 -0.0760  1.7684
  220MOL0     H29025  -1.769  11.727   4.743 -1.2399 -2.4963 -0.9259
  220MOL0     H29026  -0.079  10.943   3.819 -1.2252 -1.2763  0.2985
  220MOL0     H29027   0.161  10.913   3.844  1.4510 -2.1067  1.3131
  220MOL0     H29028   0.524  10.579   4.272  0.1649 -1.5350 -0.7830
  220MOL0     H29029   0.764  10.553   4.238 -2.3814 -2.4561 -0.4415
  220MOL0     H29030   0.956  10.751   3.877 -0.4200 -1.2326 -0.4773
  220MOL0     H29031   0.902  10.589   3.831  1.0406 -2.1702  1.6451
  220MOL0     H29032   1.157  10.631   3.836  0.5227 -0.8047 -1.2469
  220MOL0     H29033   1.129  10.627   4.013 -1.7767  0.1094  0.5202
  220MOL0     H29034   1.007  10.400   3.850 -1.9382 -1.2498  3.9364
  220MOL0     H29035   1.087  10.389   4.001 -2.6469 -0.7443 -0.4697
  220MOL0     H29036   1.238  10.438   3.738  1.9019  0.1846  0.3657
  220MOL0     H29037   1.309  10.403   3.893  0.3464  0.7762  0.4099
  220MOL0     H29038   1.224  10.027   3.741 -2.0266 -0.3563  2.1051
  220MOL0     H29039   0.721  10.750   3.858  0.1549  0.4358  0.2548
  220MOL0     H29040   0.488  10.786   3.899 -0.9435  2.5785  1.7635
  221MOL0     O29041  10.848   8.493   6.720  0.5111  0.6748  0.2503
  221MOL0     C29042  10.809   8.441   6.820 -0.4346 -0.8736 -0.0800
  221MOL0     O29043  10.878   8.359   6.901 -0.8376  0.2124  0.1550
  221MOL0     C29044  11.013   8.347   6.876  0.0844  0.2004  0.6592
  221MOL0     C29045  11.063   8.293   6.754 -0.0971 -0.0390 -0.2201
  221MOL0     C29046  11.201   8.264   6.739  0.3172  0.1042 -0.1414
  221MOL0     C29047  11.294   8.282   6.840 -0.4796  0.4715 -0.4627
  221MOL0     O29048  11.426   8.249   6.829 -0.2323  0.2795 -0.2405
  221MOL0     C29049  11.487   8.212   6.705 -0.1755  0.0489 -0.3958
  221MOL0     C29050  11.609   8.138   6.751  0.2215 -0.1781  0.1098
  221MOL0     C29051  11.713   8.126   6.633  0.1026 -1.0102 -0.5349
  221MOL0     C29052  11.828   8.035   6.672  0.1970 -0.1260 -0.0440
  221MOL0     C29053  11.949   8.028   6.574  0.1766 -0.8513 -0.0221
  221MOL0     C29054  12.087   7.988   6.636 -0.6085  0.5105 -0.0490
  221MOL0     C29055  12.197   7.999   6.534 -0.2067 -0.5689  0.0340
  221MOL0     C29056  12.331   7.930   6.582  0.8893 -0.8504 -0.1754
  221MOL0     N29057  12.447   7.942   6.494 -0.0015  0.2523  0.2598
  221MOL0     C29058  12.512   7.831   6.444 -0.6543  0.4703 -0.0168
  221MOL0     C29059  12.580   7.875   6.332  0.2387 -0.1772 -0.4448
  221MOL0     C29060  12.679   7.780   6.252  0.0572  0.1283  0.6486
  221MOL0     C29061  12.812   7.748   6.324  0.9835 -0.2270 -0.3806
  221MOL0     C29062  12.887   7.876   6.367 -0.1304 -0.0634  0.8322
  221MOL0     C29063  13.039   7.859   6.379  0.9224  0.1498  0.1388
  221MOL0     O29064  13.056   7.752   6.470 -0.5813  1.1408 -0.3710
  221MOL0     C29065  13.174   7.683   6.454  0.8308 -0.9801  0.4498
  221MOL0     C29066  13.178   7.586   6.358  0.7713  0.2019  0.4914
  221MOL0     C29067  13.296   7.521   6.321 -0.0203 -0.2756 -0.4956
  221MOL0     C29068  13.411   7.557   6.386 -0.2456 -0.5608  0.0733
  221MOL0     C29069  13.538   7.474   6.362  0.1846  1.1664 -0.2030
  221MOL0     O29070  13.649   7.528   6.401 -0.4637  0.5208  0.3971
  221MOL0     C29071  13.770   7.465   6.373  0.9233 -0.6578 -0.5321
  221MOL0     C29072  13.817   7.345   6.436  1.0167  1.0597 -0.0963
  221MOL0     C29073  13.935   7.294   6.401  0.1466  0.0146  0.0110
  221MOL0     C29074  14.026   7.350   6.315  0.4128 -0.6451 -0.4760
  221MOL0     O29075  14.142   7.283   6.280 -0.2727 -0.4925  0.2012
  221MOL0     C29076  14.233   7.332   6.179  0.9175 -0.3043  0.1003
  221MOL0     C29077  14.333   7.426   6.241  0.3031 -0.2887 -0.2292
  221MOL0     C29078  14.466   7.448   6.168  0.0579 -0.0847  0.1911
  221MOL0     C29079  14.553   7.332   6.151 -0.8144  0.7044  0.1526
  221MOL0     C29080  14.659   7.351   6.037 -0.2044 -0.1784  0.3374
  221MOL0     C29081  14.761   7.239   6.024  0.4990 -0.2039  0.1447
  221MOL0     C29082  14.847   7.251   5.893  1.0360 -0.3139 -0.6588
  221MOL0     C29083  14.956   7.363   5.886 -0.3112 -0.3817 -0.2052
  221MOL0    Cl29084  15.097   7.278   5.968  0.1862  0.2753  0.3066
  221MOL0     C29085  13.980   7.472   6.254  0.7491  0.0165  1.2341
  221MOL0     C29086  13.855   7.533   6.282  0.1793  0.0170 -0.1076
  221MOL0     O29087  13.526   7.369   6.308 -0.4938  0.2932  0.4591
  221MOL0     C29088  13.411   7.664   6.479 -0.1706 -0.1939  0.8100
  221MOL0     C29089  13.293   7.727   6.512 -0.3898 -0.2594  0.3963
  221MOL0     N29090  12.561   8.006   6.327  0.5410 -0.6376 -0.1913
  221MOL0     N29091  12.477   8.045   6.414 -0.6168  0.1433  0.2424
  221MOL0     C29092  11.246   8.327   6.961  0.2374 -0.4563 -0.3510
  221MOL0     C29093  11.111   8.357   6.982 -0.6508 -0.1848  1.1653
  221MOL0     C29094  10.665   8.458   6.846 -0.0272 -0.1320 -0.0801
  221MOL0     C29095  10.602   8.369   6.939  0.1763 -1.7360  0.0365
  221MOL0     C29096  10.464   8.378   6.971 -0.0824 -0.0426  0.8093
  221MOL0     C29097  10.388   8.480   6.920 -0.2072 -0.0463  0.0507
  221MOL0     O29098  10.249   8.474   6.943 -0.0279  0.2702  0.1909
  221MOL0     C29099  10.173   8.544   6.836 -0.9041 -0.3568 -0.5098
  221MOL0     C29100  10.096   8.436   6.754  0.0196 -0.0781  0.9858
  221MOL0     C29101  10.006   8.489   6.640  0.1445 -0.0437 -0.7383
  221MOL0     C29102   9.976   8.392   6.535  1.4404  0.2390 -0.0870
  221MOL0     C29103   9.892   8.286   6.590 -1.1546  1.2644 -1.0021
  221MOL0     C29104   9.824   8.210   6.658  0.6906  0.4146 -0.0270
  221MOL0     C29105  10.455   8.578   6.841 -0.2454  0.7394  0.9959
  221MOL0     C29106  10.582   8.558   6.791  0.0745 -0.0923  0.1633
  221MOL0     H29107  11.003   8.272   6.666 -0.0073 -0.6921 -0.1337
  221MOL0     H29108  11.225   8.221   6.643  0.8071  0.2719 -0.0959
  221MOL0     H29109  11.522   8.302   6.653 -1.5159 -0.1966 -1.7802
  221MOL0     H29110  11.419   8.153   6.643  2.2280 -0.1917 -2.9512
  221MOL0     H29111  11.571   8.039   6.777 -0.5654  0.2879  0.8349
  221MOL0     H29112  11.652   8.182   6.842 -2.4354 -2.2300  2.5637
  221MOL0     H29113  11.741   8.229   6.610 -2.0396 -0.1673  0.3122
  221MOL0     H29114  11.660   8.085   6.546  1.4264 -0.7429 -1.4928
  221MOL0     H29115  11.872   8.072   6.766  0.5444 -1.4069  0.3290
  221MOL0     H29116  11.781   7.938   6.691 -0.4497  0.2370  0.2223
  221MOL0     H29117  11.971   8.122   6.523  3.0623 -1.9844 -1.0367
  221MOL0     H29118  11.918   7.948   6.506  0.6393 -1.0391 -0.0153
  221MOL0     H29119  12.073   7.886   6.673 -0.6126  0.6144  0.2425
  221MOL0     H29120  12.099   8.063   6.715  1.5629  0.9674 -0.7463
  221MOL0     H29121  12.164   7.943   6.446  1.8185  1.7585 -2.4009
  221MOL0     H29122  12.220   8.103   6.507  1.4673 -1.1767 -1.0648
  221MOL0     H29123  12.311   7.833   6.628 -2.2545  0.3544  1.2587
  221MOL0     H29124  12.365   7.992   6.666 -0.2946  1.3106 -1.1948
  221MOL0     H29125  12.509   7.736   6.497  0.7797  0.9956  1.0817
  221MOL0     H29126  12.694   7.815   6.150  0.5160 -2.3775 -0.2153
  221MOL0     H29127  12.640   7.680   6.229  3.5096 -1.5345  1.3572
  221MOL0     H29128  12.888   7.690   6.270  1.3749 -1.1908  1.1300
  221MOL0     H29129  12.772   7.697   6.412  0.1237 -0.6896 -1.0251
  221MOL0     H29130  12.879   7.953   6.289  2.2918  0.5643  1.1331
  221MOL0     H29131  12.841   7.925   6.454  3.4828  1.8415  1.8833
  221MOL0     H29132  13.076   7.952   6.423  2.1759 -0.5987  0.7292
  221MOL0     H29133  13.087   7.848   6.281  1.2986  5.2846 -0.4874
  221MOL0     H29134  13.090   7.552   6.305  2.6688 -0.9037 -2.2112
  221MOL0     H29135  13.300   7.439   6.250 -1.7941 -0.7763 -0.0690
  221MOL0     H29136  13.771   7.298   6.522 -0.1037  0.4560 -1.0039
  221MOL0     H29137  13.959   7.201   6.453 -1.0588  0.5597  1.6226
  221MOL0     H29138  14.179   7.374   6.094 -1.1868 -1.7420  0.6324
  221MOL0     H29139  14.280   7.236   6.155  0.1573 -0.2319 -1.8597
  221MOL0     H29140  14.363   7.386   6.338 -0.1275  0.4341  0.2080
  221MOL0     H29141  14.288   7.525   6.251 -1.2706 -0.7109 -2.4205
  221MOL0     H29142  14.518   7.535   6.211  0.2592 -1.1167  2.1878
  221MOL0     H29143  14.437   7.468   6.065 -0.4476  0.0719  0.3623
  221MOL0     H29144  14.613   7.318   6.242  1.6550 -1.8885 -1.7311
  221MOL0     H29145  14.499   7.237   6.141  1.5851 -0.8820  1.3821
  221MOL0     H29146  14.718   7.433   6.078  0.2027 -1.2778  2.0175
  221MOL0     H29147  14.616   7.360   5.936  2.1779 -0.7777 -0.8093
  221MOL0     H29148  14.703   7.147   6.014  0.8683 -0.8394  3.0898
  221MOL0     H29149  14.825   7.234   6.113  1.4559  0.5414 -0.4782
  221MOL0     H29150  14.891   7.153   5.874 -3.6830 -3.8075  3.4999
  221MOL0     H29151  14.775   7.273   5.813  0.1979  0.0781  0.1756
  221MOL0     H29152  14.916   7.449   5.942  0.2356  1.7594 -2.8992
  221MOL0     H29153  14.974   7.393   5.783 -1.9144  1.5670  0.0227
  221MOL0     H29154  14.044   7.521   6.181  2.2277 -0.6666  2.0229
  221MOL0     H29155  13.819   7.628   6.245  0.0446  0.5365  1.2884
  221MOL0     H29156  13.490   7.693   6.547  2.2169 -0.7124 -1.5826
  221MOL0     H29157  13.293   7.799   6.592 -1.2093 -0.4163  0.5439
  221MOL0     H29158  11.312   8.342   7.046 -0.3536 -0.9100  0.1929
  221MOL0     H29159  11.088   8.399   7.079  0.0799  1.0610  0.8175
  221MOL0     H29160  10.654   8.278   6.968  0.6020 -1.7157 -0.6533
  221MOL0     H29161  10.424   8.302   7.037 -4.2583  0.6237 -0.6567
  221MOL0     H29162  10.226   8.614   6.771 -3.0892  1.7078 -0.1991
  221MOL0     H29163  10.098   8.605   6.888  0.2647  1.9163 -1.3262
  221MOL0     H29164  10.180   8.384   6.707 -1.7676  0.2037 -2.8842
  221MOL0     H29165  10.033   8.367   6.811 -2.1053  1.4346  0.5857
  221MOL0     H29166  10.067   8.565   6.591  0.9203 -1.5884 -2.2711
  221MOL0     H29167   9.911   8.537   6.666 -0.6035 -1.2196 -1.2154
  221MOL0     H29168   9.920   8.444   6.455 -1.3923 -0.2469  1.4438
  221MOL0     H29169  10.062   8.349   6.484  2.9378  0.9174  1.7439
  221MOL0     H29170   9.770   8.136   6.713  0.3861 -0.7387 -1.7985
  221MOL0     H29171  10.400   8.667   6.812 -3.7435 -0.8861  2.0722
  221MOL0     H29172  10.629   8.630   6.724 -0.7410  0.4166  0.1297
  222MOL0     O29173   9.711   5.931   3.141 -0.4066 -0.6637  0.0587
  222MOL0     C29174   9.662   5.854   3.225 -1.1134 -0.7861  0.5042
  222MOL0     O29175   9.716   5.827   3.350  0.2288  0.0997 -0.7053
  222MOL0     C29176   9.829   5.896   3.398 -0.1086  0.3605 -0.4301
  222MOL0     C29177   9.948   5.924   3.324 -0.3604 -0.0954 -0.1853
  222MOL0     C29178  10.062   5.977   3.390  0.4042 -0.5041  0.2699
  222MOL0     C29179  10.053   5.994   3.528  0.7101 -0.8274 -0.1769
  222MOL0     O29180  10.158   6.052   3.594  1.3035 -0.1865  0.2504
  222MOL0     C29181  10.265   5.966   3.627 -0.0766 -0.5516  0.0479
  222MOL0     C29182  10.378   6.044   3.700 -0.1593  1.1926 -0.1859
  222MOL0     C29183  10.494   6.078   3.611 -0.4279  0.3966 -0.1966
  222MOL0     C29184  10.449   6.130   3.474  0.0299  0.0098  0.6822
  222MOL0     C29185  10.556   6.191   3.389  0.6873 -0.1805 -0.3317
  222MOL0     C29186  10.501   6.243   3.260 -0.1108 -0.4603  0.4215
  222MOL0     C29187  10.611   6.292   3.163  0.4802  0.9547  0.2664
  222MOL0     C29188  10.670   6.432   3.220  0.0655 -0.1585 -0.6540
  222MOL0     N29189  10.768   6.496   3.125 -1.0701  0.8326 -0.4322
  222MOL0     C29190  10.831   6.430   3.013  0.8923  0.1402  0.0269
  222MOL0     C29191  10.889   6.532   2.942 -0.8743 -1.1506 -0.5275
  222MOL0     C29192  10.962   6.535   2.807  0.5526  0.3698 -0.1985
  222MOL0     C29193  11.058   6.414   2.789  0.1332 -0.6940 -0.2147
  222MOL0     C29194  11.159   6.433   2.677 -0.8631 -1.3033 -0.7063
  222MOL0     C29195  11.247   6.325   2.634 -0.7765  0.2877  0.7520
  222MOL0     O29196  11.302   6.347   2.499  0.7169 -0.0083  0.4990
  222MOL0     C29197  11.420   6.283   2.483 -0.7242  0.4081  0.2207
  222MOL0     C29198  11.544   6.354   2.491  0.0462 -0.5244 -0.7541
  222MOL0     C29199  11.670   6.303   2.466  0.6379 -0.0982  0.0445
  222MOL0     C29200  11.675   6.168   2.412 -0.2580  0.2038 -0.7183
  222MOL0     C29201  11.806   6.117   2.381 -0.1150  0.9246 -0.0946
  222MOL0     O29202  11.913   6.192   2.402 -0.4354 -0.8549  0.1846
  222MOL0     C29203  12.036   6.154   2.349  0.3317 -0.1698  0.2562
  222MOL0     C29204  12.154   6.161   2.424  0.0164 -0.2773  0.9500
  222MOL0     C29205  12.285   6.131   2.379 -0.3832  0.7090  0.8327
  222MOL0     C29206  12.304   6.102   2.239  0.2782 -0.3956 -0.5727
  222MOL0     O29207  12.423   6.080   2.190 -0.4348 -0.4754 -0.4187
  222MOL0     C29208  12.476   6.190   2.107 -0.1387 -0.7286 -0.1233
  222MOL0     C29209  12.626   6.159   2.101 -0.1620 -0.1781  0.1477
  222MOL0     C29210  12.710   6.192   2.229  0.1005  0.1345  0.3086
  222MOL0     C29211  12.717   6.337   2.274  0.2084  0.2155  0.6022
  222MOL0     C29212  12.805   6.417   2.172  0.3519  0.6876  0.7683
  222MOL0     C29213  12.722   6.543   2.136  0.0128  0.4289 -0.2196
  222MOL0     C29214  12.765   6.607   2.009 -0.8436 -0.4148  0.1634
  222MOL0     C29215  12.749   6.507   1.894  0.0820  0.2361 -0.6160
  222MOL0    Cl29216  12.751   6.584   1.730  0.4480 -0.1781 -0.7197
  222MOL0     C29217  12.188   6.126   2.157 -0.2056 -0.3662 -0.3306
  222MOL0     C29218  12.058   6.143   2.208 -0.0052 -0.7373  0.0442
  222MOL0     O29219  11.806   6.002   2.336  0.0996  0.1162  0.1347
  222MOL0     C29220  11.559   6.092   2.407 -1.0383 -0.7915  0.2863
  222MOL0     C29221  11.433   6.145   2.436 -0.1158 -0.5024  0.6084
  222MOL0     N29222  10.877   6.654   3.016 -0.4874  0.3631  0.4043
  222MOL0     N29223  10.806   6.625   3.126  0.3384 -0.8995  0.1475
  222MOL0     C29224   9.934   5.959   3.604  0.1158 -0.0006 -0.1556
  222MOL0     C29225   9.825   5.913   3.535 -0.1266  0.2953  0.5221
  222MOL0     C29226   9.541   5.797   3.196  0.8795  0.9906  0.3682
  222MOL0     C29227   9.493   5.692   3.275  0.2775  0.8508 -0.4523
  222MOL0     C29228   9.383   5.612   3.247 -0.6071 -0.1643  0.3065
  222MOL0     C29229   9.309   5.650   3.134  0.5065  0.2986  0.1537
  222MOL0     O29230   9.192   5.586   3.103  0.8012 -0.0667 -0.4164
  222MOL0     C29231   9.157   5.453   3.155 -0.2601  0.2116 -0.8056
  222MOL0     C29232   9.072   5.399   3.039  0.2615  0.5123 -0.0844
  222MOL0     C29233   8.924   5.419   3.079 -0.3480 -0.4139 -0.1516
  222MOL0     C29234   8.835   5.445   2.955 -0.2041 -0.4552 -0.0958
  222MOL0     C29235   8.699   5.398   2.981 -0.7646  0.0908  0.8293
  222MOL0     C29236   8.594   5.356   3.016 -0.5803 -0.3437  1.0091
  222MOL0     C29237   9.350   5.761   3.055  0.4869  0.2378  0.6941
  222MOL0     C29238   9.460   5.834   3.086  0.0036  0.1597  0.1522
  222MOL0     H29239   9.953   5.890   3.220  0.5315 -0.2977 -0.0863
  222MOL0     H29240  10.156   5.988   3.338  0.9330  1.0355  1.4972
  222MOL0     H29241  10.308   5.911   3.542  1.5363 -1.4589  1.3859
  222MOL0     H29242  10.231   5.887   3.694  2.0123 -1.7815 -0.2224
  222MOL0     H29243  10.404   5.984   3.788 -2.7681  0.4931  0.1842
  222MOL0     H29244  10.341   6.140   3.737 -2.6878 -0.9529  3.5946
  222MOL0     H29245  10.549   5.985   3.596 -0.4025  0.0242  1.8910
  222MOL0     H29246  10.557   6.154   3.658 -1.0581 -0.7416  2.7511
  222MOL0     H29247  10.392   6.055   3.419  0.7788 -0.2231  0.2134
  222MOL0     H29248  10.378   6.212   3.486 -3.3327 -1.9436 -3.1584
  222MOL0     H29249  10.626   6.107   3.375 -1.1774 -1.5158 -2.2123
  222MOL0     H29250  10.616   6.264   3.443  1.7067 -2.6058  2.0536
  222MOL0     H29251  10.438   6.329   3.289 -0.4161 -1.5425  3.3263
  222MOL0     H29252  10.437   6.172   3.206 -0.3006  1.2605 -1.7763
  222MOL0     H29253  10.685   6.211   3.156 -0.6185 -0.1806  1.1999
  222MOL0     H29254  10.574   6.304   3.061  0.1205  1.7384  0.4867
  222MOL0     H29255  10.698   6.418   3.324 -3.7854 -0.3178  0.5197
  222MOL0     H29256  10.585   6.500   3.228  0.4085  0.2792 -0.7083
  222MOL0     H29257  10.826   6.327   2.979  1.0605 -0.1801  0.9441
  222MOL0     H29258  11.025   6.624   2.799  2.2108 -0.9447 -3.8921
  222MOL0     H29259  10.891   6.540   2.723 -1.9002 -2.8876  1.4315
  222MOL0     H29260  11.003   6.321   2.777 -2.3388  0.5058  1.0673
  222MOL0     H29261  11.122   6.399   2.876 -1.5448 -2.8276  0.7266
  222MOL0     H29262  11.105   6.472   2.590 -3.0511  1.3947  1.6761
  222MOL0     H29263  11.218   6.517   2.713 -2.4341  0.7608 -2.6681
  222MOL0     H29264  11.180   6.239   2.634 -0.4175 -0.0685  3.3500
  222MOL0     H29265  11.328   6.310   2.707 -1.0870 -0.7994  0.8927
  222MOL0     H29266  11.534   6.458   2.519  1.2859 -0.8986  1.2534
  222MOL0     H29267  11.759   6.362   2.487 -0.5121  2.0446 -0.7796
  222MOL0     H29268  12.129   6.191   2.525 -0.8344  0.7806  0.4438
  222MOL0     H29269  12.367   6.135   2.450 -1.0400 -2.2048  1.8830
  222MOL0     H29270  12.470   6.291   2.149  2.2520 -1.1884  1.5994
  222MOL0     H29271  12.432   6.186   2.007  0.7948 -0.8863 -0.5438
  222MOL0     H29272  12.662   6.222   2.019 -1.2066 -0.2654 -0.4000
  222MOL0     H29273  12.641   6.054   2.073  0.0153  0.0131 -0.5027
  222MOL0     H29274  12.806   6.144   2.210 -0.0216  0.6111 -1.7225
  222MOL0     H29275  12.669   6.123   2.304 -1.2364 -3.7968 -3.6460
  222MOL0     H29276  12.618   6.372   2.304 -0.9840 -0.4948 -2.2219
  222MOL0     H29277  12.782   6.327   2.362  1.7137  2.4564 -0.1501
  222MOL0     H29278  12.837   6.361   2.083  1.4484  3.0269 -0.3887
  222MOL0     H29279  12.900   6.444   2.218  1.9956 -1.5971 -1.0715
  222MOL0     H29280  12.726   6.623   2.211 -1.4358 -0.1927  0.5510
  222MOL0     H29281  12.614   6.522   2.138 -0.0276  0.4900 -1.1322
  222MOL0     H29282  12.691   6.685   1.990  1.7567  1.8663 -1.2793
  222MOL0     H29283  12.872   6.633   2.005 -0.4302 -1.9891  0.1887
  222MOL0     H29284  12.657   6.449   1.907  0.8339 -1.2626 -1.7549
  222MOL0     H29285  12.831   6.435   1.892  1.2200  1.4977 -2.6762
  222MOL0     H29286  12.199   6.129   2.049  0.8217 -3.3058 -0.3931
  222MOL0     H29287  11.970   6.159   2.147 -0.7139  2.9942  1.7349
  222MOL0     H29288  11.564   5.990   2.369  0.8567 -0.8469  0.5855
  222MOL0     H29289  11.338   6.092   2.438  0.4805 -1.5898  2.3140
  222MOL0     H29290   9.942   5.974   3.711  3.1850  0.8015 -0.4046
  222MOL0     H29291   9.742   5.874   3.593 -1.5465  3.0641  0.5322
  222MOL0     H29292   9.545   5.662   3.365 -0.5379  1.2373  0.1664
  222MOL0     H29293   9.358   5.520   3.300 -1.4499 -1.5909 -2.3272
  222MOL0     H29294   9.105   5.451   3.251 -0.4026 -1.2437 -0.8931
  222MOL0     H29295   9.243   5.386   3.163 -0.4620 -0.6877 -4.4132
  222MOL0     H29296   9.109   5.449   2.949 -0.7166  0.4747 -0.5137
  222MOL0     H29297   9.093   5.292   3.036 -1.0603  0.1608  1.6657
  222MOL0     H29298   8.923   5.508   3.142  0.7698 -0.6130  0.1840
  222MOL0     H29299   8.886   5.335   3.138  1.0601 -0.9728 -0.0005
  222MOL0     H29300   8.854   5.551   2.936  6.0138 -1.0481  0.6756
  222MOL0     H29301   8.870   5.390   2.867  0.4999  1.2837 -0.9502
  222MOL0     H29302   8.495   5.332   3.049 -1.1002  0.5198  0.1300
  222MOL0     H29303   9.286   5.799   2.975 -0.1250  1.1953  1.6152
  222MOL0     H29304   9.494   5.916   3.023  1.3109 -1.7688 -1.8180
  223MOL0     O29305  11.328   4.635   7.662  0.9372 -0.0087  0.4900
  223MOL0     C29306  11.454   4.657   7.659 -0.8851 -0.1918 -0.8198
  223MOL0     O29307  11.520   4.751   7.743  0.1234 -0.1562  0.6244
  223MOL0     C29308  11.448   4.835   7.825  0.0156 -0.6615 -0.2325
  223MOL0     C29309  11.323   4.895   7.797 -0.0500 -0.1109  0.6228
  223MOL0     C29310  11.260   4.980   7.879 -0.3363 -0.9732  0.1615
  223MOL0     C29311  11.316   5.011   8.002 -0.3432  0.6801  0.7814
  223MOL0     O29312  11.246   5.095   8.089  0.4955  0.1197  0.3126
  223MOL0     C29313  11.333   5.181   8.173 -0.1127  0.3004 -0.2150
  223MOL0     C29314  11.258   5.307   8.226  0.7535  0.6230  0.7751
  223MOL0     C29315  11.111   5.271   8.246 -0.4512 -0.2871 -0.5535
  223MOL0     C29316  11.050   5.389   8.324  0.8036  0.5568 -0.7116
  223MOL0     C29317  10.895   5.392   8.330 -0.4291 -0.7660  0.5335
  223MOL0     C29318  10.841   5.522   8.402  0.2526 -0.0389 -0.5318
  223MOL0     C29319  10.707   5.571   8.335  0.7972  0.3935  0.1057
  223MOL0     C29320  10.593   5.476   8.380  0.2469 -0.2189 -0.1090
  223MOL0     N29321  10.466   5.531   8.345  0.8053  0.2775 -0.1844
  223MOL0     C29322  10.406   5.505   8.222  0.7883  0.4188 -0.6188
  223MOL0     C29323  10.327   5.605   8.199 -0.4749  0.4549 -0.7646
  223MOL0     C29324  10.277   5.639   8.063 -0.6767 -0.6893  0.6110
  223MOL0     C29325  10.122   5.680   8.058 -0.0854  1.2227  0.7352
  223MOL0     C29326  10.079   5.808   8.152 -0.4358  0.6097 -0.1377
  223MOL0     C29327   9.933   5.804   8.165  0.0074  0.3672  1.3352
  223MOL0     O29328   9.863   5.876   8.066  0.0028  0.2780  0.1031
  223MOL0     C29329   9.728   5.916   8.090 -0.4632 -0.2313 -0.0149
  223MOL0     C29330   9.651   5.901   8.204  0.0482 -0.5733 -0.5236
  223MOL0     C29331   9.517   5.930   8.207 -0.8829  0.4322  0.2999
  223MOL0     C29332   9.453   5.996   8.102 -0.9000 -0.3060 -0.5494
  223MOL0     C29333   9.312   6.024   8.112 -0.3924  0.0352  0.3304
  223MOL0     O29334   9.237   5.962   8.220 -0.3552  0.4473  0.1573
  223MOL0     C29335   9.098   5.979   8.208  0.1438 -0.1818 -0.8128
  223MOL0     C29336   9.013   5.872   8.215 -0.1406 -0.4849 -0.2837
  223MOL0     C29337   8.874   5.886   8.224 -0.1024 -0.4891  0.2808
  223MOL0     C29338   8.822   6.018   8.210 -0.6941  0.2199  0.1474
  223MOL0     O29339   8.690   6.037   8.197  0.3626 -0.1221  0.1777
  223MOL0     C29340   8.601   5.931   8.179  0.3974  1.2769 -0.7967
  223MOL0     C29341   8.451   5.980   8.180 -0.6589 -0.2772 -1.0689
  223MOL0     C29342   8.356   5.877   8.117 -0.2337  0.2084 -0.4832
  223MOL0     C29343   8.200   5.901   8.124  0.2949 -0.8378  0.0928
  223MOL0     C29344   8.151   5.922   8.260  0.1923  0.0309  0.3397
  223MOL0     C29345   7.992   5.931   8.243 -0.4704 -0.5316 -0.2693
  223MOL0     C29346   7.933   5.965   8.384 -0.5580  0.9943  0.3891
  223MOL0     C29347   7.796   5.894   8.398  0.1902  0.3083  0.3895
  223MOL0    Cl29348   7.702   5.952   8.265 -0.2601  0.2289  0.6444
  223MOL0     C29349   8.908   6.121   8.210  0.3640 -0.3133  0.0854
  223MOL0     C29350   9.046   6.104   8.221 -0.1798 -0.5215 -1.0008
  223MOL0     O29351   9.256   6.085   8.020 -0.3074 -1.0138  0.0623
  223MOL0     C29352   9.532   6.027   7.985 -0.9617 -0.7308 -0.5690
  223MOL0     C29353   9.662   5.989   7.986 -0.7827 -0.4414 -0.2031
  223MOL0     N29354  10.338   5.691   8.310  0.0651 -0.1130  0.0422
  223MOL0     N29355  10.421   5.643   8.390  0.0423  0.2539  0.3189
  223MOL0     C29356  11.437   4.945   8.041 -0.5728 -0.4178 -0.2001
  223MOL0     C29357  11.498   4.858   7.951 -0.5615  0.4038 -0.0279
  223MOL0     C29358  11.528   4.570   7.559 -0.3816  0.5159  0.4020
  223MOL0     C29359  11.452   4.483   7.481 -0.4094  0.7291 -0.2457
  223MOL0     C29360  11.516   4.411   7.375  0.8112 -0.4263 -0.5927
  223MOL0     C29361  11.644   4.443   7.333 -0.1798  0.3604 -0.2482
  223MOL0     O29362  11.711   4.373   7.234  0.0944  0.8871 -0.1579
  223MOL0     C29363  11.648   4.276   7.153  0.9642 -0.3831  0.6559
  223MOL0     C29364  11.695   4.277   7.003 -0.1379  0.5719 -0.0310
  223MOL0     C29365  11.819   4.197   7.001  0.0768  0.0808 -0.2785
  223MOL0     C29366  11.880   4.205   6.862 -0.2655 -0.1921  0.0707
  223MOL0     C29367  11.994   4.114   6.848 -0.0164  0.2511  1.0096
  223MOL0     C29368  12.091   4.040   6.834 -0.4284 -0.3369  0.8732
  223MOL0     C29369  11.721   4.536   7.415  0.4082  0.1124 -0.1549
  223MOL0     C29370  11.666   4.588   7.536  0.2145 -1.7857 -0.0726
  223MOL0     H29371  11.290   4.877   7.695  1.9028 -3.5810  0.4544
  223MOL0     H29372  11.159   5.010   7.853 -0.0327 -0.3766 -0.3511
  223MOL0     H29373  11.427   5.213   8.129  0.1830 -1.0939 -0.6544
  223MOL0     H29374  11.352   5.115   8.258 -1.4498 -0.9444 -0.8306
  223MOL0     H29375  11.256   5.387   8.152  1.5362 -0.1445 -0.0934
  223MOL0     H29376  11.301   5.356   8.314  1.9826  2.0620 -0.5721
  223MOL0     H29377  11.110   5.173   8.296 -1.0645 -0.2956 -0.5756
  223MOL0     H29378  11.051   5.255   8.156 -2.6150  0.8213  0.6211
  223MOL0     H29379  11.093   5.389   8.425 -0.9098  1.8287  0.0621
  223MOL0     H29380  11.093   5.484   8.290  0.9418  1.5356  1.9619
  223MOL0     H29381  10.853   5.311   8.391 -2.7557  0.3336  0.4944
  223MOL0     H29382  10.855   5.378   8.229  2.4466 -1.4144 -0.6063
  223MOL0     H29383  10.917   5.599   8.393  1.9682 -1.3998  1.4968
  223MOL0     H29384  10.821   5.508   8.509 -1.5429 -4.1617 -1.1767
  223MOL0     H29385  10.678   5.666   8.381  1.6363  0.0146  1.4867
  223MOL0     H29386  10.714   5.574   8.226  1.4989 -3.5438 -0.1121
  223MOL0     H29387  10.603   5.474   8.489  1.7545 -0.7842 -0.2267
  223MOL0     H29388  10.606   5.372   8.348  1.1031 -0.0835 -0.2474
  223MOL0     H29389  10.444   5.433   8.150  1.8755  1.6459 -1.3174
  223MOL0     H29390  10.299   5.558   7.992 -0.0953 -0.6335  0.7321
  223MOL0     H29391  10.344   5.716   8.024  1.0438 -1.9261  1.0400
  223MOL0     H29392  10.066   5.592   8.089  0.2896  1.6164  2.6598
  223MOL0     H29393  10.080   5.709   7.962  0.0803  0.0953  0.3085
  223MOL0     H29394  10.112   5.792   8.255 -1.8557  1.2891  0.4531
  223MOL0     H29395  10.122   5.900   8.111  1.1798 -0.2246 -0.3827
  223MOL0     H29396   9.913   5.842   8.266  0.6657  0.0914  1.5711
  223MOL0     H29397   9.902   5.700   8.155 -0.1212  0.6458 -2.0766
  223MOL0     H29398   9.708   5.860   8.288  1.4093  0.1218 -1.0698
  223MOL0     H29399   9.467   5.904   8.299  2.4963 -0.4835  2.0754
  223MOL0     H29400   9.056   5.773   8.216  1.3993  0.1153  2.2912
  223MOL0     H29401   8.814   5.796   8.233 -1.5965  0.3759 -0.5997
  223MOL0     H29402   8.606   5.857   8.260 -0.5366  0.6007 -1.3356
  223MOL0     H29403   8.630   5.875   8.089  1.7745 -1.6957  1.3153
  223MOL0     H29404   8.454   6.073   8.123  0.2292  3.0958  3.8730
  223MOL0     H29405   8.426   6.018   8.279  2.3024  0.7203 -0.6042
  223MOL0     H29406   8.380   5.779   8.160  1.8213  2.1433  3.1868
  223MOL0     H29407   8.379   5.874   8.010  2.1784 -1.6638 -0.0019
  223MOL0     H29408   8.176   5.989   8.064 -0.2401  0.5062  2.1951
  223MOL0     H29409   8.140   5.817   8.088  0.9832 -1.1482 -0.3513
  223MOL0     H29410   8.192   6.015   8.300  2.2029 -0.4088 -0.5426
  223MOL0     H29411   8.185   5.838   8.322  0.1545  0.5701  1.1202
  223MOL0     H29412   7.960   5.830   8.215  0.5669 -0.6454 -1.1358
  223MOL0     H29413   7.972   6.002   8.162  0.6280  1.5411  1.1760
  223MOL0     H29414   8.008   5.943   8.461 -0.4294 -0.6229 -0.1546
  223MOL0     H29415   7.910   6.072   8.380 -3.6029  0.4530  0.9134
  223MOL0     H29416   7.742   5.937   8.483 -1.0420 -0.0732 -0.1754
  223MOL0     H29417   7.803   5.785   8.389 -0.2846  0.4073 -1.5346
  223MOL0     H29418   8.867   6.222   8.214  2.9941  0.8626 -0.0591
  223MOL0     H29419   9.112   6.190   8.233  0.6406 -1.2209 -0.3505
  223MOL0     H29420   9.493   6.081   7.899 -0.1088  2.1399  0.7519
  223MOL0     H29421   9.723   6.033   7.908  0.8215 -0.6773  0.8626
  223MOL0     H29422  11.493   4.965   8.132  3.0077 -1.2300 -2.0566
  223MOL0     H29423  11.599   4.830   7.981 -0.2567  1.9255  0.4403
  223MOL0     H29424  11.350   4.466   7.512  0.1680  0.1388  1.4664
  223MOL0     H29425  11.467   4.319   7.345 -0.8449 -0.5519  2.2185
  223MOL0     H29426  11.542   4.303   7.152  1.4692  1.8871  0.8987
  223MOL0     H29427  11.659   4.181   7.205 -0.0855  0.0583  1.7410
  223MOL0     H29428  11.619   4.228   6.941  3.1015 -1.6379 -2.5579
  223MOL0     H29429  11.699   4.380   6.968 -1.9997  0.4298 -0.8010
  223MOL0     H29430  11.790   4.094   7.025 -2.9298  1.0127  0.4905
  223MOL0     H29431  11.890   4.225   7.078  2.9460 -1.9463 -2.0021
  223MOL0     H29432  11.800   4.187   6.790  0.4774 -2.8026 -0.1993
  223MOL0     H29433  11.914   4.308   6.852 -0.2863 -0.1802  0.1202
  223MOL0     H29434  12.177   3.983   6.806 -1.3709 -1.2740 -0.2487
  223MOL0     H29435  11.829   4.551   7.408  0.2701  1.9467  1.0771
  223MOL0     H29436  11.732   4.645   7.599 -2.2908  0.5474  0.6541
  224MOL0     O29437   4.414   4.697  10.952 -1.1088  0.4688 -0.4584
  224MOL0     C29438   4.460   4.581  10.962  0.1675 -0.1445  0.2667
  224MOL0     O29439   4.387   4.469  10.990  0.3062 -0.3485  1.2058
  224MOL0     C29440   4.254   4.459  10.983  0.2233  0.0026 -0.1673
  224MOL0     C29441   4.172   4.539  11.064  0.8302 -0.3074  0.3474
  224MOL0     C29442   4.041   4.500  11.074  0.5422 -0.5070 -0.0976
  224MOL0     C29443   3.986   4.397  11.006 -0.2631 -0.0635 -0.6454
  224MOL0     O29444   3.853   4.376  11.031 -0.2592 -0.1154 -0.5170
  224MOL0     C29445   3.785   4.291  10.953 -0.1250 -0.9564  0.3113
  224MOL0     C29446   3.628   4.291  10.975 -0.1439  1.0488 -0.0761
  224MOL0     C29447   3.554   4.195  10.885  0.5055 -0.4797 -0.0608
  224MOL0     C29448   3.401   4.172  10.909 -0.2837 -0.0416 -0.4832
  224MOL0     C29449   3.346   4.058  10.827  0.4453 -0.1969  0.1663
  224MOL0     C29450   3.194   4.079  10.809 -0.2233 -0.5201  0.0111
  224MOL0     C29451   3.171   4.176  10.686  0.2089  0.6592  0.3479
  224MOL0     C29452   3.045   4.269  10.695  1.2095 -0.0636 -0.2383
  224MOL0     N29453   2.925   4.193  10.692  0.4930 -0.1843  0.4222
  224MOL0     C29454   2.846   4.174  10.579  0.0207  0.4042 -0.8020
  224MOL0     C29455   2.737   4.109  10.632  0.6049  0.0155 -0.1204
  224MOL0     C29456   2.617   4.047  10.566  0.8623 -0.1731  0.2322
  224MOL0     C29457   2.667   3.926  10.476  0.3090 -1.1393  0.0263
  224MOL0     C29458   2.563   3.815  10.457 -0.3310  0.1800 -0.3067
  224MOL0     C29459   2.428   3.865  10.403 -0.4353  0.3182  0.6793
  224MOL0     O29460   2.353   3.944  10.494 -0.3877  0.4807 -1.5654
  224MOL0     C29461   2.277   4.042  10.439  0.3175  0.3845  0.4069
  224MOL0     C29462   2.218   4.050  10.305  0.3014  0.0146  0.0177
  224MOL0     C29463   2.130   4.143  10.265  0.3116 -0.8137  0.1656
  224MOL0     C29464   2.107   4.256  10.346  0.1480  0.3452 -0.4170
  224MOL0     C29465   2.015   4.360  10.298  0.4532 -0.5019 -0.1837
  224MOL0     O29466   1.998   4.363  10.168  0.4831 -0.0714  0.2348
  224MOL0     C29467   1.872   4.416  10.130 -0.9026  0.1774 -1.0745
  224MOL0     C29468   1.872   4.526  10.045 -1.7716 -0.5391  0.3034
  224MOL0     C29469   1.758   4.572   9.978 -0.5303  0.5390 -0.5706
  224MOL0     C29470   1.636   4.514  10.019 -0.0138 -0.2062 -0.1020
  224MOL0     O29471   1.528   4.572   9.954  0.3892 -0.3072 -0.9804
  224MOL0     C29472   1.397   4.526   9.999  0.0628 -0.0375 -0.0171
  224MOL0     C29473   1.281   4.615   9.959  0.7813 -0.0050  0.0680
  224MOL0     C29474   1.146   4.602  10.038 -0.3707  0.0689 -1.1532
  224MOL0     C29475   1.065   4.474  10.022 -0.6511 -0.4940  0.7484
  224MOL0     C29476   1.131   4.345  10.067 -0.3565 -0.5963  0.0842
  224MOL0     C29477   1.037   4.241  10.117  0.3800  1.0565 -0.0826
  224MOL0     C29478   1.125   4.131  10.172  0.5018  0.0015 -0.1852
  224MOL0     C29479   1.030   4.019  10.223 -0.7371  0.9403  0.3658
  224MOL0    Cl29480   0.891   3.985  10.106 -0.1357 -0.0115 -0.5129
  224MOL0     C29481   1.627   4.402  10.097 -0.5872  0.9536  0.6751
  224MOL0     C29482   1.744   4.356  10.162  0.1675 -0.1195 -0.0147
  224MOL0     O29483   1.952   4.429  10.378 -0.2145 -0.0160  0.0961
  224MOL0     C29484   2.169   4.253  10.472 -0.1333 -0.2538 -1.2818
  224MOL0     C29485   2.241   4.143  10.520  0.8685 -0.0856  0.9869
  224MOL0     N29486   2.743   4.118  10.769  0.2019 -0.0605 -0.3654
  224MOL0     N29487   2.859   4.164  10.806 -0.7232 -0.8926  0.2153
  224MOL0     C29488   4.074   4.317  10.924  0.7799  0.2395  1.0409
  224MOL0     C29489   4.202   4.351  10.907 -0.4738 -0.5894 -0.0183
  224MOL0     C29490   4.608   4.567  10.933  0.5240 -0.0545  0.4029
  224MOL0     C29491   4.670   4.444  10.953  0.0607 -0.7680  0.0509
  224MOL0     C29492   4.813   4.438  10.932 -0.0566 -0.0427 -0.0814
  224MOL0     C29493   4.885   4.552  10.887 -0.8594  0.0656 -0.9809
  224MOL0     O29494   5.010   4.540  10.833 -0.3441 -0.3290  0.4088
  224MOL0     C29495   5.107   4.610  10.907  0.2875  0.3144 -0.6003
  224MOL0     C29496   5.175   4.525  11.006  0.6836  0.5218  0.0975
  224MOL0     C29497   5.232   4.396  10.951 -0.5055  0.3273  0.0759
  224MOL0     C29498   5.341   4.322  11.025 -0.3560 -0.6688  0.1344
  224MOL0     C29499   5.455   4.416  11.041 -0.4782 -0.8852  0.6349
  224MOL0     C29500   5.550   4.496  11.056 -0.5296 -1.0145  0.4138
  224MOL0     C29501   4.816   4.673  10.866 -0.3907 -0.0325 -0.3486
  224MOL0     C29502   4.678   4.675  10.885  0.3394  0.1843 -0.4999
  224MOL0     H29503   4.216   4.629  11.106 -0.6772  1.0975 -0.9678
  224MOL0     H29504   3.974   4.558  11.136 -1.7101 -3.9217  0.9936
  224MOL0     H29505   3.819   4.195  10.993 -1.0931 -2.1186 -1.5543
  224MOL0     H29506   3.800   4.304  10.846  0.4902 -1.4297  0.3343
  224MOL0     H29507   3.588   4.391  10.955 -0.7892  0.9456  0.6696
  224MOL0     H29508   3.624   4.271  11.082  4.6088  1.8817  0.4783
  224MOL0     H29509   3.611   4.102  10.891  1.9278  0.2176 -1.6638
  224MOL0     H29510   3.559   4.234  10.782  1.6641 -1.8670 -0.5706
  224MOL0     H29511   3.395   4.144  11.015  3.5800 -2.4503 -0.6928
  224MOL0     H29512   3.344   4.264  10.897 -2.5988 -1.2689  0.2843
  224MOL0     H29513   3.364   3.965  10.880  1.1459  0.8439  1.8198
  224MOL0     H29514   3.392   4.047  10.728 -2.1445 -1.2243 -1.0069
  224MOL0     H29515   3.139   4.097  10.902 -1.4433 -1.3003 -0.5382
  224MOL0     H29516   3.153   3.986  10.768 -1.3002  0.1810 -0.5503
  224MOL0     H29517   3.258   4.234  10.656  1.0779  0.0623  1.6202
  224MOL0     H29518   3.151   4.115  10.598 -0.8522  3.2051 -1.2845
  224MOL0     H29519   3.049   4.351  10.623  0.7921  1.0208  0.9295
  224MOL0     H29520   3.051   4.316  10.793  2.6005  0.3980 -0.5300
  224MOL0     H29521   2.876   4.196  10.477  0.1178  0.9169 -0.6669
  224MOL0     H29522   2.560   4.115  10.502  2.2413 -1.3519 -2.4161
  224MOL0     H29523   2.552   4.007  10.645 -0.6745 -0.1977 -1.0099
  224MOL0     H29524   2.756   3.882  10.523 -0.8305  0.3662  4.0917
  224MOL0     H29525   2.697   3.965  10.379 -2.5754  1.3960  0.0035
  224MOL0     H29526   2.616   3.737  10.402  4.4665  1.4123  2.0180
  224MOL0     H29527   2.544   3.773  10.556 -0.9511  3.1519  0.9767
  224MOL0     H29528   2.376   3.774  10.372  0.0178 -0.2370  1.4811
  224MOL0     H29529   2.443   3.926  10.314 -1.7156  0.1084  0.3114
  224MOL0     H29530   2.239   3.975  10.229  1.6354  0.7412 -0.3800
  224MOL0     H29531   2.090   4.126  10.166  3.1058 -3.0505 -0.7336
  224MOL0     H29532   1.969   4.562  10.014 -2.3307 -1.0020 -2.2049
  224MOL0     H29533   1.754   4.651   9.904 -3.4477  3.5234  2.4250
  224MOL0     H29534   1.397   4.514  10.107 -2.3284 -1.3683 -0.0966
  224MOL0     H29535   1.389   4.426   9.956  1.0789 -0.6314  1.1216
  224MOL0     H29536   1.263   4.590   9.854 -2.3786  1.2316  0.1858
  224MOL0     H29537   1.307   4.721   9.955 -3.8766  1.3296 -0.4144
  224MOL0     H29538   1.087   4.685   9.999  3.5124  2.8058 -1.8432
  224MOL0     H29539   1.171   4.620  10.143 -1.7561  0.7320 -0.9133
  224MOL0     H29540   0.966   4.489  10.065 -0.4783 -1.1941  1.4154
  224MOL0     H29541   1.043   4.462   9.916  0.2842  0.9377  0.3664
  224MOL0     H29542   1.189   4.394  10.145 -2.3700  4.5443 -1.2340
  224MOL0     H29543   1.193   4.308   9.985 -2.0912 -0.2798 -1.4402
  224MOL0     H29544   0.974   4.202  10.037  0.3980  0.6367  0.1081
  224MOL0     H29545   0.979   4.285  10.199  1.2032 -0.5248  1.3948
  224MOL0     H29546   1.192   4.097  10.093  1.1631  0.2178  0.2736
  224MOL0     H29547   1.186   4.170  10.253 -0.2324 -0.3530  0.5557
  224MOL0     H29548   0.992   4.045  10.322 -1.3659 -1.1024  0.6988
  224MOL0     H29549   1.092   3.929  10.228 -1.9600 -0.1869 -2.5939
  224MOL0     H29550   1.540   4.344  10.122  0.0021  0.9379  2.8845
  224MOL0     H29551   1.759   4.274  10.232  3.3605  1.5283  1.4572
  224MOL0     H29552   2.159   4.330  10.547  0.5264 -0.7111 -0.7188
  224MOL0     H29553   2.282   4.138  10.620  0.9096 -1.1407  0.9299
  224MOL0     H29554   4.037   4.231  10.869 -2.9112  0.5967  2.6284
  224MOL0     H29555   4.272   4.288  10.852  1.2573  3.5045 -3.0239
  224MOL0     H29556   4.611   4.358  10.981 -2.3069 -0.1540 -2.5662
  224MOL0     H29557   4.873   4.347  10.931  1.3757  0.7977  2.1672
  224MOL0     H29558   5.068   4.703  10.947 -1.7721 -0.5480 -0.4661
  224MOL0     H29559   5.187   4.645  10.842  0.2410  1.7077  0.0641
  224MOL0     H29560   5.245   4.586  11.064 -1.5005  0.2628  3.3042
  224MOL0     H29561   5.097   4.500  11.079 -1.3085  2.4784 -1.2496
  224MOL0     H29562   5.268   4.424  10.852  0.1503 -0.1057  0.1898
  224MOL0     H29563   5.151   4.323  10.939 -0.0698  0.0307 -1.1425
  224MOL0     H29564   5.308   4.285  11.123  2.4105 -0.7865  1.1095
  224MOL0     H29565   5.366   4.234  10.966 -1.3775 -1.1447  0.3919
  224MOL0     H29566   5.638   4.550  11.084 -0.2880 -1.7044  1.0503
  224MOL0     H29567   4.872   4.756  10.823  3.3626 -0.8704  2.3975
  224MOL0     H29568   4.619   4.763  10.863 -0.5539 -0.2883 -0.0707
  225MOL0     O29569   5.629   7.006   1.876 -0.5422  0.1747  0.0490
  225MOL0     C29570   5.631   7.116   1.819  0.0931  0.3635  0.4490
  225MOL0     O29571   5.711   7.222   1.852  0.1041  0.2892 -0.0688
  225MOL0     C29572   5.845   7.194   1.872  0.2290  0.3035 -0.1056
  225MOL0     C29573   5.920   7.305   1.929  0.4647 -0.7258  0.1225
  225MOL0     C29574   6.048   7.281   1.973 -0.5983  0.8130 -0.7936
  225MOL0     C29575   6.108   7.161   1.951 -0.0201 -0.7325 -0.1322
  225MOL0     O29576   6.233   7.151   2.011  0.8431 -0.0738 -0.2319
  225MOL0     C29577   6.361   7.202   1.947  0.0343 -0.6537 -0.4659
  225MOL0     C29578   6.458   7.093   1.969 -0.0857  1.6177 -0.0635
  225MOL0     C29579   6.599   7.112   1.924  0.4690 -0.3840 -0.5471
  225MOL0     C29580   6.681   6.980   1.952  0.4200  0.3586 -0.2496
  225MOL0     C29581   6.827   6.964   1.881  0.3794 -0.0073 -0.5863
  225MOL0     C29582   6.811   6.944   1.734  0.8017 -0.1485  0.2432
  225MOL0     C29583   6.887   6.823   1.680  1.2584  0.2644  0.1388
  225MOL0     C29584   6.890   6.815   1.530 -1.0989  0.2687 -0.1508
  225MOL0     N29585   6.966   6.693   1.475 -0.4463  0.2439 -0.3758
  225MOL0     C29586   6.963   6.651   1.348  0.7164  0.2658  0.9549
  225MOL0     C29587   7.056   6.562   1.323 -1.2719  0.6242 -0.5739
  225MOL0     C29588   7.065   6.471   1.199  0.2197 -0.8637 -0.7442
  225MOL0     C29589   7.209   6.472   1.157  0.7648  0.0555 -0.3955
  225MOL0     C29590   7.228   6.415   1.022 -0.8749  0.3794  0.3532
  225MOL0     C29591   7.371   6.424   0.968  0.1786 -0.7821 -1.3029
  225MOL0     O29592   7.469   6.375   1.062 -0.0919 -0.0032  0.4872
  225MOL0     C29593   7.597   6.430   1.059  0.1183  0.4516 -0.5605
  225MOL0     C29594   7.645   6.527   0.965  0.6279  0.9296 -0.1395
  225MOL0     C29595   7.775   6.561   0.951  0.4308 -0.0661 -0.3378
  225MOL0     C29596   7.869   6.500   1.041  0.3732 -0.9865  0.4919
  225MOL0     C29597   8.020   6.519   1.039 -0.0742 -0.5244  0.7207
  225MOL0     O29598   8.059   6.607   0.939 -0.3477 -0.4178 -0.2569
  225MOL0     C29599   8.193   6.634   0.947  0.0518  0.7309 -0.1134
  225MOL0     C29600   8.269   6.610   0.828  0.8589 -0.5821 -0.3405
  225MOL0     C29601   8.407   6.637   0.818  0.9550  0.0245  0.6208
  225MOL0     C29602   8.467   6.690   0.928 -0.8266  0.2180 -0.2778
  225MOL0     O29603   8.599   6.725   0.908  0.0570  0.7966  0.1875
  225MOL0     C29604   8.691   6.630   0.963 -0.6997  0.5734 -0.5800
  225MOL0     C29605   8.830   6.647   0.908 -0.1129  0.4106  0.7842
  225MOL0     C29606   8.916   6.527   0.940 -1.1066 -0.4857 -0.4122
  225MOL0     C29607   9.049   6.536   0.864  0.5364  0.5308  0.1972
  225MOL0     C29608   9.167   6.435   0.919  0.5741 -1.0570  0.8922
  225MOL0     C29609   9.301   6.501   0.888 -0.1407 -0.5052  0.0604
  225MOL0     C29610   9.399   6.385   0.851 -0.2652 -1.6300 -0.2251
  225MOL0     C29611   9.549   6.445   0.851  0.5239  0.8179 -0.3212
  225MOL0    Cl29612   9.584   6.586   0.754  0.2026 -0.2010  0.2817
  225MOL0     C29613   8.397   6.719   1.046  0.0513 -1.1079  1.2193
  225MOL0     C29614   8.256   6.706   1.053  0.0813  0.8616 -0.3004
  225MOL0     O29615   8.093   6.463   1.113 -0.0714 -0.1719 -0.0307
  225MOL0     C29616   7.818   6.418   1.149 -0.1353 -0.8239  0.1449
  225MOL0     C29617   7.689   6.375   1.152 -0.4229  0.3777 -0.4189
  225MOL0     N29618   7.119   6.544   1.450  0.5865  0.1139 -0.0914
  225MOL0     N29619   7.068   6.634   1.533 -0.9191 -0.7412  0.2552
  225MOL0     C29620   6.041   7.055   1.900  0.4460 -0.3276 -0.0730
  225MOL0     C29621   5.912   7.069   1.862  0.9515  0.5377  0.5153
  225MOL0     C29622   5.537   7.134   1.703  0.2740 -0.7622 -0.6063
  225MOL0     C29623   5.461   7.030   1.654  0.1401 -0.2719 -0.0801
  225MOL0     C29624   5.379   7.059   1.545  0.0420 -0.2024 -0.0907
  225MOL0     C29625   5.372   7.185   1.491 -0.1529  0.1569 -0.8496
  225MOL0     O29626   5.290   7.208   1.383 -0.5568  0.3415 -1.0063
  225MOL0     C29627   5.174   7.275   1.419  1.2308 -0.4076  0.3548
  225MOL0     C29628   5.058   7.205   1.340 -0.1419  0.5346  0.0675
  225MOL0     C29629   4.949   7.301   1.280 -0.2335 -0.2742  0.0705
  225MOL0     C29630   4.849   7.354   1.384 -1.0813  0.0395 -0.5120
  225MOL0     C29631   4.890   7.469   1.478 -0.5838 -0.0591  0.4930
  225MOL0     C29632   4.939   7.563   1.529  0.1746  0.2180 -0.5256
  225MOL0     C29633   5.463   7.287   1.530  0.4220 -0.5809  1.0900
  225MOL0     C29634   5.548   7.263   1.636 -0.1888  0.5344 -0.1936
  225MOL0     H29635   5.870   7.401   1.936 -3.5467 -2.7154  2.1682
  225MOL0     H29636   6.113   7.355   2.017 -0.4522 -0.0331  0.4744
  225MOL0     H29637   6.393   7.290   2.003 -0.6996 -1.2692  0.9805
  225MOL0     H29638   6.341   7.231   1.844  0.6349 -1.3707 -0.7957
  225MOL0     H29639   6.415   7.008   1.916 -0.1599  1.9822 -0.5858
  225MOL0     H29640   6.467   7.082   2.078 -2.4399  3.6702  0.4261
  225MOL0     H29641   6.647   7.197   1.973 -0.7329  0.4751 -0.8172
  225MOL0     H29642   6.602   7.130   1.816 -1.3371  2.0853 -0.2829
  225MOL0     H29643   6.703   6.971   2.059  1.3051  0.0630 -0.4474
  225MOL0     H29644   6.623   6.889   1.933  1.4931 -0.0851 -1.5316
  225MOL0     H29645   6.872   6.879   1.935 -0.2062  1.9439  3.3248
  225MOL0     H29646   6.885   7.054   1.901 -0.9969  0.0651  4.3808
  225MOL0     H29647   6.832   7.040   1.685 -0.5356 -0.6824 -1.4585
  225MOL0     H29648   6.707   6.922   1.708  0.6326  0.7642  0.1147
  225MOL0     H29649   6.985   6.820   1.728  2.5612  3.7017 -1.9031
  225MOL0     H29650   6.830   6.734   1.707 -0.8072  1.9448  1.6540
  225MOL0     H29651   6.941   6.903   1.491  0.0120  0.0777  0.7809
  225MOL0     H29652   6.790   6.827   1.488 -0.2353  1.3102 -2.0029
  225MOL0     H29653   6.892   6.689   1.274 -0.1198 -1.0111  1.0667
  225MOL0     H29654   6.994   6.491   1.118 -1.4152 -2.8111  0.0883
  225MOL0     H29655   7.045   6.372   1.241  1.2303  0.1465  2.3776
  225MOL0     H29656   7.260   6.409   1.231  1.5643 -1.8593 -2.4762
  225MOL0     H29657   7.255   6.571   1.158  1.7240 -0.2949  2.7326
  225MOL0     H29658   7.218   6.306   1.026  1.5696 -0.0655 -2.3385
  225MOL0     H29659   7.155   6.446   0.947  0.0047 -1.4709 -1.3368
  225MOL0     H29660   7.373   6.533   0.960  1.1527 -0.7424 -0.6996
  225MOL0     H29661   7.380   6.376   0.870  1.5957 -2.4377 -0.4278
  225MOL0     H29662   7.582   6.555   0.881  1.4058 -2.6751 -2.1755
  225MOL0     H29663   7.811   6.613   0.862  1.1020  1.7623  0.9480
  225MOL0     H29664   8.229   6.546   0.750 -4.0568  2.2937 -0.6235
  225MOL0     H29665   8.468   6.609   0.733  2.4115  2.9979  0.5552
  225MOL0     H29666   8.647   6.532   0.943 -2.5566  1.0502  0.9090
  225MOL0     H29667   8.701   6.654   1.069  1.7845  0.7665 -0.8045
  225MOL0     H29668   8.877   6.736   0.951  1.2979  0.2997 -0.4437
  225MOL0     H29669   8.821   6.662   0.800 -0.6558 -0.4316  0.7028
  225MOL0     H29670   8.860   6.437   0.913 -0.4929 -0.5453 -1.5425
  225MOL0     H29671   8.935   6.514   1.047 -1.5701 -2.1743 -0.5061
  225MOL0     H29672   9.042   6.523   0.755  1.2581 -2.6733  0.4191
  225MOL0     H29673   9.087   6.636   0.884  2.1448  0.3297 -1.5615
  225MOL0     H29674   9.153   6.343   0.862 -0.7875  2.3185 -5.0787
  225MOL0     H29675   9.156   6.430   1.028 -5.5581  1.2676  0.7451
  225MOL0     H29676   9.326   6.556   0.980 -0.3978 -2.6779  1.5074
  225MOL0     H29677   9.296   6.567   0.801 -0.8090  0.6969  0.9808
  225MOL0     H29678   9.398   6.307   0.928  0.5035  0.7869  2.4217
  225MOL0     H29679   9.357   6.361   0.753 -0.4366  1.0156 -0.8714
  225MOL0     H29680   9.627   6.371   0.834  3.0129  2.9580  0.9723
  225MOL0     H29681   9.554   6.479   0.955  1.4969 -0.3002  0.0211
  225MOL0     H29682   8.438   6.760   1.138 -1.0758 -0.5747  1.5089
  225MOL0     H29683   8.216   6.724   1.152 -0.9964 -3.1950  0.1826
  225MOL0     H29684   7.885   6.380   1.225  1.5394 -1.6859 -1.6631
  225MOL0     H29685   7.662   6.299   1.225 -0.5131  1.0655  0.2639
  225MOL0     H29686   6.095   6.963   1.884  0.0409 -0.8483  1.3534
  225MOL0     H29687   5.865   6.975   1.834  0.7737 -0.7176  4.3931
  225MOL0     H29688   5.454   6.934   1.704 -0.0769 -0.9812 -1.4333
  225MOL0     H29689   5.307   6.985   1.514  2.2719 -2.2140 -0.7099
  225MOL0     H29690   5.180   7.381   1.394  0.2687 -0.2658  0.6554
  225MOL0     H29691   5.137   7.266   1.522 -0.8679 -1.6115 -0.4370
  225MOL0     H29692   5.098   7.145   1.258 -1.2120  0.8622 -0.7145
  225MOL0     H29693   5.017   7.132   1.411  1.1964 -1.1007 -0.7525
  225MOL0     H29694   4.890   7.240   1.211  1.0895 -1.5561  0.0168
  225MOL0     H29695   4.990   7.394   1.240  0.4971  0.0922  1.5955
  225MOL0     H29696   4.754   7.375   1.334 -1.0513 -3.2963 -2.1965
  225MOL0     H29697   4.832   7.274   1.457  1.8276  1.9360  2.5643
  225MOL0     H29698   4.990   7.648   1.568 -1.4637  0.5870  0.9167
  225MOL0     H29699   5.465   7.388   1.490 -0.1599 -0.7392  0.6540
  225MOL0     H29700   5.609   7.345   1.672 -2.1713  1.5030  1.1403
  226MOL0     O29701   2.068   1.656   6.380 -0.2470  0.3713  0.1926
  226MOL0     C29702   2.112   1.670   6.488 -0.5864 -0.7662  0.3933
  226MOL0     O29703   2.069   1.607   6.603  0.2135 -0.4364  0.2405
  226MOL0     C29704   1.964   1.523   6.587  1.4207  0.2985  0.4285
  226MOL0     C29705   1.822   1.558   6.572 -0.3144 -0.0083  0.5735
  226MOL0     C29706   1.725   1.465   6.546 -0.4093  0.1446 -0.0581
  226MOL0     C29707   1.763   1.330   6.549 -0.5473  0.6888 -0.2042
  226MOL0     O29708   1.663   1.236   6.550  0.1963  0.2656 -0.3038
  226MOL0     C29709   1.605   1.213   6.421  0.7071  0.0892  0.2069
  226MOL0     C29710   1.466   1.269   6.416  0.4490 -0.0533  0.4719
  226MOL0     C29711   1.398   1.202   6.291 -0.0560 -0.3966  0.3918
  226MOL0     C29712   1.479   1.234   6.164 -0.0099 -0.7199  0.1989
  226MOL0     C29713   1.374   1.266   6.050  0.2151 -1.1774  0.0092
  226MOL0     C29714   1.269   1.166   6.012  0.3773  0.0270 -0.8151
  226MOL0     C29715   1.350   1.038   5.978  0.1293 -0.1040  0.2177
  226MOL0     C29716   1.259   0.920   5.928 -0.2640  0.3250 -0.1858
  226MOL0     N29717   1.346   0.805   5.920 -0.0304  0.2591 -0.6670
  226MOL0     C29718   1.304   0.673   5.932 -0.0251 -0.6271  0.3263
  226MOL0     C29719   1.415   0.592   5.925 -0.1522 -0.3508 -0.0255
  226MOL0     C29720   1.408   0.436   5.921 -0.0699 -0.7500 -0.0721
  226MOL0     C29721   1.524   0.351   5.876 -0.1486 -0.4624  0.1385
  226MOL0     C29722   1.578   0.391   5.741  0.2511 -0.8596  0.1597
  226MOL0     C29723   1.667   0.289   5.679  0.2814  0.8586 -0.1263
  226MOL0     O29724   1.603   0.159   5.671  0.3893  0.9735 -0.6167
  226MOL0     C29725   1.490   0.142   5.592 -0.2650  0.0680  0.0871
  226MOL0     C29726   1.450   0.233   5.495 -0.3652 -0.0601  0.2362
  226MOL0     C29727   1.329   0.217   5.428  0.2154  0.6925  0.3328
  226MOL0     C29728   1.260   0.086   5.432 -0.4993 -0.1317  0.9626
  226MOL0     C29729   1.132   0.065   5.352 -1.1432 -0.8339  0.1090
  226MOL0     O29730   1.064   0.174   5.304  1.3338  0.0953 -0.0008
  226MOL0     C29731   0.947   0.161   5.242  0.0972 -0.1928  0.0537
  226MOL0     C29732   0.896   0.056   5.167  1.1091  1.3823 -0.0086
  226MOL0     C29733   0.774   0.056   5.093 -0.3401 -0.4126 -0.0701
  226MOL0     C29734   0.694   0.167   5.116 -0.5178 -0.6855  0.3534
  226MOL0     O29735   0.559   0.172   5.073 -0.4480 -0.1824  0.5842
  226MOL0     C29736   0.516   0.061   4.983  0.2981  0.3982  0.9129
  226MOL0     C29737   0.387   0.093   4.901 -0.2909  0.0875 -0.2633
  226MOL0     C29738   0.273   0.148   4.985  0.2538  0.7058  0.0991
  226MOL0     C29739   0.144   0.143   4.905  0.3738 -0.2232  0.0718
  226MOL0     C29740   0.030   0.220   4.985  0.0287 -0.6024 -0.8448
  226MOL0     C29741  -0.081   0.259   4.893 -1.2981  0.1829  0.2817
  226MOL0     C29742  -0.184   0.343   4.956  0.3253 -0.7192 -0.2844
  226MOL0     C29743  -0.303   0.378   4.871  0.3890 -1.0880  0.5971
  226MOL0    Cl29744  -0.433   0.448   4.976  0.4739  0.5520 -0.1440
  226MOL0     C29745   0.735   0.271   5.197 -0.5150  0.7615  0.5213
  226MOL0     C29746   0.863   0.276   5.242  0.7927  0.2855 -0.2173
  226MOL0     O29747   1.096  -0.047   5.332 -0.3316  0.4767  0.0746
  226MOL0     C29748   1.311  -0.014   5.513 -0.2844  0.0424 -1.0964
  226MOL0     C29749   1.428   0.012   5.590 -0.1089 -0.1518 -0.2626
  226MOL0     N29750   1.522   0.676   5.896  0.4476 -0.1679 -0.3642
  226MOL0     N29751   1.481   0.797   5.889 -0.1218 -0.4885  0.6889
  226MOL0     C29752   1.893   1.292   6.576  0.3015  0.1065  0.1061
  226MOL0     C29753   1.995   1.389   6.594 -0.3063  0.1368 -0.9758
  226MOL0     C29754   2.203   1.787   6.506 -0.3315 -0.0542 -0.7169
  226MOL0     C29755   2.236   1.835   6.631 -0.6221  0.4053  0.3806
  226MOL0     C29756   2.325   1.939   6.657 -0.7832  0.5832  0.5834
  226MOL0     C29757   2.384   2.008   6.553 -0.4992 -0.2946  0.0712
  226MOL0     O29758   2.483   2.105   6.584 -0.6670  0.0849 -0.2575
  226MOL0     C29759   2.524   2.199   6.484 -0.1939 -0.4837 -0.2069
  226MOL0     C29760   2.607   2.304   6.546  0.2680  0.4226 -0.1452
  226MOL0     C29761   2.719   2.244   6.628  0.6685  0.1650  0.0758
  226MOL0     C29762   2.835   2.349   6.653 -0.5040 -0.0534 -0.6329
  226MOL0     C29763   2.938   2.270   6.715  0.5696 -0.7323 -0.5750
  226MOL0     C29764   3.012   2.202   6.778 -0.2560 -0.8119  0.3241
  226MOL0     C29765   2.349   1.970   6.422 -0.6753 -1.0081 -0.5263
  226MOL0     C29766   2.254   1.862   6.399 -0.7719  0.0223 -0.8952
  226MOL0     H29767   1.800   1.664   6.560  3.1078  0.5593 -2.1906
  226MOL0     H29768   1.624   1.502   6.533  0.6122  2.8823 -0.9419
  226MOL0     H29769   1.597   1.104   6.412 -2.0032  0.3686 -3.9220
  226MOL0     H29770   1.677   1.251   6.348  0.4358  0.6085  0.2075
  226MOL0     H29771   1.470   1.377   6.404  1.1573 -0.1897 -0.6621
  226MOL0     H29772   1.427   1.239   6.514  1.5452 -1.1425  0.6088
  226MOL0     H29773   1.293   1.232   6.282  1.1715  4.7240 -0.2618
  226MOL0     H29774   1.402   1.094   6.306  1.6936 -0.3238  0.6333
  226MOL0     H29775   1.541   1.322   6.185  0.2158 -1.0213  0.8122
  226MOL0     H29776   1.548   1.155   6.132 -1.2744 -0.8081 -2.6303
  226MOL0     H29777   1.433   1.288   5.960  1.2209 -0.0138  0.9185
  226MOL0     H29778   1.330   1.364   6.065  2.2937 -0.1728 -0.0617
  226MOL0     H29779   1.217   1.202   5.923  1.0972 -2.7444 -2.4662
  226MOL0     H29780   1.206   1.146   6.099  0.0689 -4.3550 -1.8231
  226MOL0     H29781   1.426   1.058   5.902 -0.3555 -0.6046 -0.4078
  226MOL0     H29782   1.388   1.011   6.077 -1.8838  2.1528  1.7173
  226MOL0     H29783   1.206   0.950   5.837 -0.9996  3.7201  1.1959
  226MOL0     H29784   1.184   0.890   6.002 -1.1824 -3.0016 -2.2262
  226MOL0     H29785   1.201   0.640   5.949 -0.2620 -1.7856 -2.7197
  226MOL0     H29786   1.314   0.407   5.875 -2.0138  1.1315  2.4414
  226MOL0     H29787   1.398   0.411   6.027 -0.2530 -2.1147 -0.3890
  226MOL0     H29788   1.486   0.250   5.865  0.3893 -0.3653 -3.9567
  226MOL0     H29789   1.608   0.355   5.947  0.8658 -0.9251 -1.0103
  226MOL0     H29790   1.495   0.413   5.673  0.5428 -0.9420 -0.2282
  226MOL0     H29791   1.631   0.486   5.752 -2.5479  0.7600  0.7234
  226MOL0     H29792   1.761   0.278   5.734  1.1674 -2.1891 -2.0269
  226MOL0     H29793   1.693   0.317   5.576 -1.2117  0.8849 -0.5118
  226MOL0     H29794   1.516   0.314   5.467  1.2653 -2.1080 -2.3419
  226MOL0     H29795   1.288   0.303   5.375  0.2447  1.1696  1.0781
  226MOL0     H29796   0.962  -0.024   5.136 -0.1279  0.2809  0.0920
  226MOL0     H29797   0.751  -0.018   5.016  1.5835 -1.7700  0.5755
  226MOL0     H29798   0.508  -0.035   5.035 -2.2319  1.2872  2.3211
  226MOL0     H29799   0.584   0.042   4.899  0.2649 -1.2644  1.2367
  226MOL0     H29800   0.352   0.010   4.838 -1.6834 -0.3926  1.0612
  226MOL0     H29801   0.431   0.167   4.834  1.0395  1.2191  1.8022
  226MOL0     H29802   0.298   0.247   5.022 -0.2305  0.2643  1.6679
  226MOL0     H29803   0.274   0.086   5.075  0.4326  1.1432  0.4030
  226MOL0     H29804   0.162   0.188   4.806 -2.7592 -2.7897 -1.8960
  226MOL0     H29805   0.104   0.043   4.886  0.2378 -0.2295  0.3971
  226MOL0     H29806   0.070   0.313   5.025  0.5041  0.4373 -3.5459
  226MOL0     H29807  -0.009   0.159   5.067  2.1493 -0.3780  0.3968
  226MOL0     H29808  -0.130   0.170   4.854  0.6618 -0.6254 -0.5000
  226MOL0     H29809  -0.041   0.317   4.809 -0.7243  0.6813  0.8838
  226MOL0     H29810  -0.231   0.304   5.047 -0.7921 -0.5561 -0.7696
  226MOL0     H29811  -0.140   0.436   4.993 -1.2773 -0.6587  1.6423
  226MOL0     H29812  -0.353   0.298   4.816 -0.5585 -0.8810  1.1338
  226MOL0     H29813  -0.274   0.457   4.801 -1.6213  0.7888  1.7422
  226MOL0     H29814   0.665   0.353   5.212 -0.2992  1.2338 -0.8947
  226MOL0     H29815   0.904   0.369   5.280  0.4224  0.6679 -0.7447
  226MOL0     H29816   1.260  -0.108   5.532  0.3973 -0.0842  0.2067
  226MOL0     H29817   1.467  -0.050   5.671 -2.0763  0.5386  1.2997
  226MOL0     H29818   1.905   1.185   6.591  2.2157  0.5725  2.4702
  226MOL0     H29819   2.095   1.358   6.621  0.1776 -0.2096 -3.0058
  226MOL0     H29820   2.192   1.782   6.715  0.1609 -0.0392  0.5189
  226MOL0     H29821   2.349   1.973   6.757  1.7890 -0.9594  0.5811
  226MOL0     H29822   2.450   2.237   6.413 -1.0778  1.6577  1.7527
  226MOL0     H29823   2.588   2.136   6.421 -1.7061 -0.5391 -1.7581
  226MOL0     H29824   2.649   2.366   6.465  0.2146  0.4647 -0.1413
  226MOL0     H29825   2.550   2.370   6.613 -0.3922 -0.5331  0.2515
  226MOL0     H29826   2.762   2.154   6.583 -0.4990 -0.1131 -0.5120
  226MOL0     H29827   2.670   2.226   6.723 -2.5801  1.7315 -1.1616
  226MOL0     H29828   2.858   2.395   6.557  2.7421  2.3840  1.1390
  226MOL0     H29829   2.801   2.429   6.719 -1.2892 -0.8396 -0.0526
  226MOL0     H29830   3.086   2.142   6.829  1.9612  1.2326 -0.3242
  226MOL0     H29831   2.375   2.036   6.339 -0.1717 -1.5351 -0.7972
  226MOL0     H29832   2.216   1.860   6.297 -2.9225  2.1356 -0.2341
  227MOL0     O29833   5.164   2.854   7.997 -0.2946  0.7500 -0.0338
  227MOL0     C29834   5.084   2.780   7.935  1.1722 -1.5556 -0.5998
  227MOL0     O29835   5.125   2.678   7.852  0.0078  0.1650 -0.2259
  227MOL0     C29836   5.261   2.654   7.838 -0.1021  0.6517  0.0881
  227MOL0     C29837   5.319   2.564   7.929 -1.3562  0.1149 -0.5052
  227MOL0     C29838   5.455   2.539   7.923 -0.1616  0.8441  0.8584
  227MOL0     C29839   5.547   2.596   7.832 -0.5190 -1.4434 -0.1324
  227MOL0     O29840   5.683   2.564   7.834 -0.0704  0.0835 -0.4565
  227MOL0     C29841   5.789   2.643   7.783 -0.9281 -0.6180 -0.2175
  227MOL0     C29842   5.900   2.671   7.882 -0.2556 -0.6268 -0.6255
  227MOL0     C29843   5.862   2.771   8.006 -0.1407 -0.5564 -0.9273
  227MOL0     C29844   5.750   2.731   8.121 -0.1383 -0.3183  0.6338
  227MOL0     C29845   5.652   2.845   8.166  0.3654  0.6343  0.3388
  227MOL0     C29846   5.518   2.802   8.228 -0.4794  0.4776 -0.3012
  227MOL0     C29847   5.448   2.933   8.269 -0.4617  0.0246  0.1848
  227MOL0     C29848   5.304   2.915   8.320 -0.0090  0.0788 -0.1101
  227MOL0     N29849   5.220   3.032   8.339 -0.6097  0.3821 -0.1103
  227MOL0     C29850   5.243   3.141   8.420 -0.0488 -0.6953  0.7083
  227MOL0     C29851   5.127   3.208   8.413 -0.3291  0.2180 -0.4882
  227MOL0     C29852   5.115   3.348   8.483  0.0658  0.3561  0.6943
  227MOL0     C29853   5.003   3.335   8.589  0.2704  0.7990 -0.0388
  227MOL0     C29854   4.859   3.355   8.541  0.0928  0.5502 -0.7481
  227MOL0     C29855   4.757   3.349   8.661 -0.4010  0.3406 -0.9732
  227MOL0     O29856   4.732   3.215   8.696 -0.0479  0.1941  0.5434
  227MOL0     C29857   4.613   3.163   8.738 -0.7238 -0.1874 -0.5274
  227MOL0     C29858   4.621   3.023   8.777  0.3761  0.5914  0.2534
  227MOL0     C29859   4.517   2.964   8.840  0.2631  0.4421  0.6516
  227MOL0     C29860   4.391   3.032   8.858  0.6799  0.2142 -0.1869
  227MOL0     C29861   4.282   2.965   8.934 -0.4577  0.1001 -0.6726
  227MOL0     O29862   4.163   3.029   8.956  0.3093  0.4452 -0.0986
  227MOL0     C29863   4.054   2.957   9.003 -0.0229 -0.3487 -0.3303
  227MOL0     C29864   3.930   2.964   8.941 -0.6913 -0.5295  0.3325
  227MOL0     C29865   3.819   2.904   8.998  0.3973 -0.6272 -0.5382
  227MOL0     C29866   3.826   2.836   9.121 -0.2207 -1.1552  0.4738
  227MOL0     O29867   3.707   2.787   9.156 -0.0405 -0.2813  0.2123
  227MOL0     C29868   3.689   2.743   9.284 -0.2932  0.7216 -0.2620
  227MOL0     C29869   3.550   2.679   9.298 -0.3758  0.8422  0.4010
  227MOL0     C29870   3.514   2.619   9.435 -0.3710  0.3696 -0.2727
  227MOL0     C29871   3.368   2.557   9.429 -0.3285 -0.8468  0.1902
  227MOL0     C29872   3.321   2.485   9.557  0.3902  0.0608  0.6511
  227MOL0     C29873   3.244   2.360   9.523  0.0313  0.4281 -0.0523
  227MOL0     C29874   3.198   2.292   9.650  0.1534 -0.2562 -0.1800
  227MOL0     C29875   3.061   2.226   9.644  0.3660  0.0493  0.1670
  227MOL0    Cl29876   2.922   2.348   9.647 -0.1680 -0.0384  0.2161
  227MOL0     C29877   3.944   2.835   9.185 -0.3314  0.3524  0.5443
  227MOL0     C29878   4.055   2.902   9.131 -0.1865  0.7325 -0.3221
  227MOL0     O29879   4.306   2.851   8.980  0.4228 -0.3677  0.2042
  227MOL0     C29880   4.385   3.174   8.826  0.5504 -0.2345  0.3251
  227MOL0     C29881   4.490   3.232   8.756  0.6966 -0.4077 -0.6611
  227MOL0     N29882   5.039   3.148   8.333 -0.0822  0.4506 -1.0170
  227MOL0     N29883   5.099   3.044   8.288  0.0202 -0.5736 -0.1934
  227MOL0     C29884   5.490   2.692   7.744  0.0477  0.4259  0.0634
  227MOL0     C29885   5.343   2.716   7.739 -0.6474  0.1668  0.1162
  227MOL0     C29886   4.935   2.813   7.935  0.1849 -0.3640  0.0407
  227MOL0     C29887   4.832   2.721   7.891 -0.9951 -0.3974 -0.6596
  227MOL0     C29888   4.701   2.746   7.920 -0.1952  0.5414  0.8521
  227MOL0     C29889   4.669   2.873   7.975  0.5212  1.2705  0.6639
  227MOL0     O29890   4.547   2.930   7.976  0.4376 -0.3934 -0.3420
  227MOL0     C29891   4.472   2.952   7.853 -0.5186  0.2030  1.0213
  227MOL0     C29892   4.516   3.095   7.793 -0.9419 -0.3167  0.7041
  227MOL0     C29893   4.631   3.082   7.684  0.5155  0.0938  0.0480
  227MOL0     C29894   4.666   3.217   7.623 -0.3104  0.2155  0.2412
  227MOL0     C29895   4.781   3.194   7.533 -0.8836 -0.1615  0.3491
  227MOL0     C29896   4.862   3.195   7.449 -0.4165  0.0911  0.3156
  227MOL0     C29897   4.763   2.947   8.036  0.7791 -0.7129  0.4316
  227MOL0     C29898   4.897   2.923   8.014 -0.3785 -0.0681  0.3942
  227MOL0     H29899   5.253   2.518   8.001 -0.2885  1.0102  1.1160
  227MOL0     H29900   5.503   2.477   7.998  1.3490  1.0941  0.1509
  227MOL0     H29901   5.758   2.741   7.747  0.4642 -0.4969 -1.1598
  227MOL0     H29902   5.844   2.591   7.704 -0.0439  0.5012 -0.3665
  227MOL0     H29903   5.987   2.696   7.822 -1.2161 -0.8732 -2.1700
  227MOL0     H29904   5.932   2.578   7.931 -1.3457  0.6064  2.7530
  227MOL0     H29905   5.825   2.865   7.963  0.7017 -0.0904 -0.6528
  227MOL0     H29906   5.957   2.802   8.048 -0.9166  2.2196 -1.0331
  227MOL0     H29907   5.689   2.647   8.086 -0.6112 -0.1284  0.9986
  227MOL0     H29908   5.809   2.700   8.208  0.6704  0.4230  0.3574
  227MOL0     H29909   5.633   2.905   8.077 -2.1100 -0.4497  0.0411
  227MOL0     H29910   5.708   2.905   8.238  1.1427  1.9189 -1.2822
  227MOL0     H29911   5.530   2.733   8.312 -0.0874 -0.0687 -0.7943
  227MOL0     H29912   5.445   2.757   8.160  0.6475  0.5474 -1.6214
  227MOL0     H29913   5.503   2.956   8.361 -2.5461 -2.8550  2.3516
  227MOL0     H29914   5.456   3.011   8.193 -1.1012  1.3461  1.4499
  227MOL0     H29915   5.300   2.873   8.421  1.4772 -1.1063 -0.5088
  227MOL0     H29916   5.250   2.841   8.260  0.6142 -0.1325 -0.4293
  227MOL0     H29917   5.341   3.163   8.462  0.7723  0.4354 -1.6309
  227MOL0     H29918   5.073   3.426   8.419  2.0832  0.4854 -0.5302
  227MOL0     H29919   5.211   3.386   8.518  0.8580  1.3726 -2.2946
  227MOL0     H29920   5.017   3.412   8.666 -2.1527 -0.4785  1.8094
  227MOL0     H29921   5.011   3.234   8.630  0.1725  1.0973  0.7376
  227MOL0     H29922   4.852   3.460   8.510 -2.3213  0.9516  0.9150
  227MOL0     H29923   4.830   3.286   8.461  0.7539  2.4099 -2.6744
  227MOL0     H29924   4.662   3.390   8.625 -1.0019 -0.5165 -0.3987
  227MOL0     H29925   4.796   3.399   8.750 -1.8711 -2.5143  1.4570
  227MOL0     H29926   4.710   2.963   8.763 -1.4834 -2.7261  1.4396
  227MOL0     H29927   4.525   2.859   8.862 -0.5274  0.4609  1.0839
  227MOL0     H29928   3.923   3.020   8.848  0.0848  2.3432  1.8879
  227MOL0     H29929   3.726   2.919   8.944  0.1702  1.5872  0.3612
  227MOL0     H29930   3.707   2.819   9.361 -0.1289  2.1971 -1.7019
  227MOL0     H29931   3.759   2.662   9.309 -1.7492 -1.1134 -1.8045
  227MOL0     H29932   3.558   2.596   9.228 -2.7842  0.0696  0.9573
  227MOL0     H29933   3.481   2.754   9.258  0.2791  0.6357 -1.1960
  227MOL0     H29934   3.528   2.700   9.508  1.3545 -0.9458  0.9348
  227MOL0     H29935   3.578   2.535   9.463 -1.1543 -0.8430 -1.9845
  227MOL0     H29936   3.304   2.645   9.415  0.5140 -0.2974 -0.2610
  227MOL0     H29937   3.359   2.489   9.343  2.3004 -0.7722 -0.2209
  227MOL0     H29938   3.255   2.547   9.619 -2.0434 -1.3520 -0.4005
  227MOL0     H29939   3.405   2.448   9.617 -0.3613  1.6819  2.8659
  227MOL0     H29940   3.307   2.292   9.465 -1.8747 -2.7972  1.4084
  227MOL0     H29941   3.155   2.382   9.464 -0.3339 -2.4835 -0.7195
  227MOL0     H29942   3.275   2.220   9.678  2.6753  3.2303  2.6104
  227MOL0     H29943   3.204   2.359   9.736 -1.6603  1.4582 -1.3058
  227MOL0     H29944   3.047   2.152   9.723  0.1778  1.0014  1.0451
  227MOL0     H29945   3.071   2.165   9.554  0.6911  1.2301 -0.6204
  227MOL0     H29946   3.946   2.802   9.288 -0.9369  0.3689  0.5657
  227MOL0     H29947   4.144   2.912   9.193 -0.0236 -2.4302  0.1242
  227MOL0     H29948   4.312   3.251   8.850  0.5832 -0.3838  0.9238
  227MOL0     H29949   4.480   3.339   8.740 -2.5184 -0.7331 -1.4662
  227MOL0     H29950   5.559   2.747   7.681  1.0567  2.2973  2.6314
  227MOL0     H29951   5.303   2.787   7.667 -1.2266 -0.1678  0.1008
  227MOL0     H29952   4.850   2.625   7.844 -0.3712 -0.5886 -0.0516
  227MOL0     H29953   4.611   2.695   7.888  0.8932 -1.2824  0.6014
  227MOL0     H29954   4.365   2.965   7.871 -0.5280  0.5267  0.7428
  227MOL0     H29955   4.493   2.867   7.788  0.6196  1.7514 -0.7406
  227MOL0     H29956   4.427   3.138   7.747 -0.2078  2.8776  1.9611
  227MOL0     H29957   4.544   3.152   7.883 -0.6782  0.4084  0.1771
  227MOL0     H29958   4.596   3.024   7.599  0.8801 -0.1986  0.0922
  227MOL0     H29959   4.718   3.024   7.718 -0.1212 -1.1775 -0.4446
  227MOL0     H29960   4.578   3.238   7.562  0.1192 -3.1456 -1.7529
  227MOL0     H29961   4.688   3.289   7.703  1.7394  1.1287 -1.0471
  227MOL0     H29962   4.925   3.193   7.362 -2.1519  1.5998 -1.0428
  227MOL0     H29963   4.727   3.033   8.092  0.4190 -0.2490 -0.4951
  227MOL0     H29964   4.971   2.990   8.055 -1.0412  2.2350 -1.9012
  228MOL0     O29965   6.221   8.392   7.720 -0.2992  0.1382  0.0577
  228MOL0     C29966   6.222   8.353   7.830  0.4975  0.5373 -0.3959
  228MOL0     O29967   6.109   8.333   7.912  0.0387 -0.2174 -0.2181
  228MOL0     C29968   5.985   8.389   7.881  0.1403 -1.1245  0.4742
  228MOL0     C29969   5.973   8.504   7.801 -0.9653  1.0068  0.1326
  228MOL0     C29970   5.852   8.561   7.774  0.0421 -0.0296 -0.1366
  228MOL0     C29971   5.737   8.493   7.828 -0.2157  0.5583 -0.3558
  228MOL0     O29972   5.619   8.546   7.798  0.0969  0.4971  0.8514
  228MOL0     C29973   5.513   8.533   7.898 -0.0678 -0.1344  0.5149
  228MOL0     C29974   5.393   8.602   7.827  0.8898 -0.0058 -0.4333
  228MOL0     C29975   5.334   8.520   7.718 -0.4500 -0.4847 -0.8539
  228MOL0     C29976   5.195   8.585   7.664  0.2591  0.2271  0.1528
  228MOL0     C29977   5.114   8.477   7.585  0.1906  0.4455 -0.0135
  228MOL0     C29978   5.072   8.344   7.657 -0.2011  0.5227 -1.4834
  228MOL0     C29979   4.958   8.268   7.592 -0.3446  0.3818 -0.2428
  228MOL0     C29980   5.005   8.156   7.493  0.0381  0.4457  0.5736
  228MOL0     N29981   4.894   8.133   7.393  0.1803 -0.7523  0.1579
  228MOL0     C29982   4.763   8.093   7.414 -1.5643 -0.0215  0.0672
  228MOL0     C29983   4.712   8.073   7.284 -1.4511 -0.4839 -0.0215
  228MOL0     C29984   4.575   8.027   7.268 -0.3502 -0.4266 -0.0937
  228MOL0     C29985   4.511   8.085   7.145  0.2107 -0.3931 -0.3814
  228MOL0     C29986   4.377   8.023   7.097  0.8044  0.5803 -1.0012
  228MOL0     C29987   4.272   8.078   7.204 -0.0722 -0.0693  0.1209
  228MOL0     O29988   4.149   8.010   7.163 -0.0941  0.1043  0.5155
  228MOL0     C29989   4.043   8.089   7.125  0.7033  0.5729 -0.1268
  228MOL0     C29990   3.957   8.035   7.021 -0.2076  0.2110  0.6367
  228MOL0     C29991   3.845   8.117   6.972  0.1213  0.3973 -0.3367
  228MOL0     C29992   3.805   8.239   7.037  0.4765 -0.5688  0.4939
  228MOL0     C29993   3.692   8.319   6.988  0.6070  0.5750 -0.3280
  228MOL0     O29994   3.662   8.432   7.075  0.1709  0.7512  0.3922
  228MOL0     C29995   3.565   8.526   7.043  0.3774 -1.5525  0.2629
  228MOL0     C29996   3.534   8.560   6.905  0.6357 -0.0021 -0.3802
  228MOL0     C29997   3.438   8.663   6.880 -0.8434 -0.3726  0.8411
  228MOL0     C29998   3.366   8.732   6.978 -0.6716 -0.0141 -0.6450
  228MOL0     O29999   3.262   8.824   6.967 -0.1940 -0.0439  0.1996
  228MOL0     C30000   3.242   8.904   6.854 -0.4160  0.5578  0.0741
  228MOL0     C30001   3.113   8.990   6.873 -0.1744 -0.1280  0.1491
  228MOL0     C30002   2.986   8.911   6.893  0.9673  0.4720  0.7744
  228MOL0     C30003   2.968   8.884   7.045 -0.1661  0.0008  0.4822
  228MOL0     C30004   2.923   9.018   7.107  0.1136  0.2883  0.0131
  228MOL0     C30005   2.882   8.987   7.251 -1.2269 -0.2257 -0.2747
  228MOL0     C30006   2.825   9.122   7.309  0.0297  0.2584 -0.5286
  228MOL0     C30007   2.771   9.103   7.449 -0.5124 -0.0626  0.5354
  228MOL0    Cl30008   2.687   9.250   7.494  0.4201 -0.6114  0.1518
  228MOL0     C30009   3.392   8.694   7.109 -0.1527 -0.7433 -0.1435
  228MOL0     C30010   3.487   8.594   7.142 -0.1385 -0.1981  0.5689
  228MOL0     O30011   3.623   8.280   6.891  1.2948  0.6158 -0.7395
  228MOL0     C30012   3.890   8.294   7.134 -0.5242 -0.2733  0.6355
  228MOL0     C30013   4.014   8.224   7.165  0.9354 -0.2198 -1.0028
  228MOL0     N30014   4.811   8.105   7.191 -0.3199 -0.3548  0.1999
  228MOL0     N30015   4.914   8.153   7.258 -0.2680  0.4409  0.2215
  228MOL0     C30016   5.740   8.376   7.912 -0.5357  0.3943  0.3249
  228MOL0     C30017   5.870   8.331   7.934  1.0881 -0.1401  0.1442
  228MOL0     C30018   6.358   8.324   7.893 -0.4510  0.3148  0.0176
  228MOL0     C30019   6.469   8.295   7.812  0.9174  0.3068 -0.4570
  228MOL0     C30020   6.596   8.274   7.868  0.0672 -0.2349 -0.5838
  228MOL0     C30021   6.615   8.270   8.009 -0.6327 -0.1768  0.3678
  228MOL0     O30022   6.738   8.233   8.063 -0.0183  0.1641 -0.4283
  228MOL0     C30023   6.747   8.143   8.168 -0.8165 -0.5607 -0.3166
  228MOL0     C30024   6.821   8.020   8.119 -0.2791  0.0110 -0.3597
  228MOL0     C30025   6.862   7.935   8.245 -0.4252 -0.1617  0.5495
  228MOL0     C30026   6.761   7.842   8.302  0.1256  0.4575 -0.4101
  228MOL0     C30027   6.707   7.761   8.198 -0.2300 -0.2672  0.0352
  228MOL0     C30028   6.653   7.685   8.117 -0.6761  0.0588 -0.5297
  228MOL0     C30029   6.503   8.297   8.092 -0.3002 -0.1469 -0.0529
  228MOL0     C30030   6.376   8.323   8.032 -1.0861 -0.5431 -0.3215
  228MOL0     H30031   6.056   8.564   7.765 -0.1484 -0.3928 -0.3757
  228MOL0     H30032   5.828   8.651   7.718  0.1347  0.6670  0.9133
  228MOL0     H30033   5.537   8.570   7.998 -0.4201  1.2216  0.1137
  228MOL0     H30034   5.481   8.428   7.898 -0.3539 -0.0500  1.5333
  228MOL0     H30035   5.427   8.696   7.784  0.1477  0.0970 -0.8224
  228MOL0     H30036   5.306   8.624   7.890 -1.0557 -3.6591 -1.5708
  228MOL0     H30037   5.287   8.431   7.761 -4.2987  1.8155  0.1580
  228MOL0     H30038   5.400   8.510   7.631 -1.1482  2.0373 -1.7825
  228MOL0     H30039   5.138   8.628   7.747  2.0664  1.4946  0.8052
  228MOL0     H30040   5.212   8.669   7.595  1.8769  1.7354  2.2618
  228MOL0     H30041   5.162   8.442   7.494 -1.0192  1.9779 -1.2850
  228MOL0     H30042   5.029   8.538   7.552  0.8750  1.9023  0.7847
  228MOL0     H30043   5.040   8.382   7.755  2.1415  0.5490 -0.6571
  228MOL0     H30044   5.154   8.272   7.666  0.5557  1.5072 -0.0879
  228MOL0     H30045   4.907   8.224   7.677 -1.2155  0.0771 -0.9149
  228MOL0     H30046   4.907   8.341   7.529  3.5623  0.9691 -3.1271
  228MOL0     H30047   5.010   8.068   7.558  3.2702 -0.4749 -0.7276
  228MOL0     H30048   5.103   8.178   7.451  0.7128  2.1016  2.8128
  228MOL0     H30049   4.700   8.071   7.500  0.1242 -0.5001  1.2284
  228MOL0     H30050   4.527   8.055   7.362  2.6633  1.6568  0.9801
  228MOL0     H30051   4.595   7.920   7.259  0.5407 -0.2293 -0.5326
  228MOL0     H30052   4.577   8.064   7.060  0.8037  3.2492 -0.9835
  228MOL0     H30053   4.496   8.193   7.157 -3.7748 -0.6606 -1.6291
  228MOL0     H30054   4.361   8.068   6.999 -1.5934  1.4566 -0.2869
  228MOL0     H30055   4.389   7.915   7.082  0.0430  0.8715 -4.2302
  228MOL0     H30056   4.275   8.186   7.193 -0.6621 -0.0948 -0.3092
  228MOL0     H30057   4.299   8.051   7.307 -0.8594 -4.9600 -0.6881
  228MOL0     H30058   3.981   7.932   7.000  0.7630  0.2641  1.3941
  228MOL0     H30059   3.783   8.071   6.896 -2.7573 -1.8883  3.0270
  228MOL0     H30060   3.587   8.522   6.818  1.0064 -0.8351  0.1988
  228MOL0     H30061   3.406   8.686   6.779 -0.7264  0.2164  0.9394
  228MOL0     H30062   3.236   8.843   6.763 -1.6842 -0.1231  0.5848
  228MOL0     H30063   3.331   8.966   6.845  1.3698 -1.9024 -0.1603
  228MOL0     H30064   3.109   9.052   6.783 -0.7843  2.5954  1.9578
  228MOL0     H30065   3.121   9.057   6.959  1.9728 -1.3339  0.9773
  228MOL0     H30066   2.992   8.822   6.828  1.2863  1.8178 -1.1344
  228MOL0     H30067   2.907   8.973   6.848  0.5019 -1.0820 -0.6778
  228MOL0     H30068   2.899   8.803   7.072 -0.9104  1.3347  2.9091
  228MOL0     H30069   3.064   8.857   7.090 -0.7846  0.1922  1.9828
  228MOL0     H30070   2.834   9.049   7.052 -0.4754 -2.1150 -0.5006
  228MOL0     H30071   3.000   9.095   7.118 -1.3819  2.2714 -2.5096
  228MOL0     H30072   2.976   8.966   7.302 -0.2395  0.9906 -1.5168
  228MOL0     H30073   2.809   8.905   7.255 -1.9661  0.3842 -0.7881
  228MOL0     H30074   2.904   9.198   7.315 -0.5590  0.9073 -0.7995
  228MOL0     H30075   2.741   9.165   7.253 -0.7572  0.7027  0.9573
  228MOL0     H30076   2.853   9.078   7.517  1.5607 -0.1972 -1.8915
  228MOL0     H30077   2.697   9.022   7.444  1.1064 -1.7600  2.1216
  228MOL0     H30078   3.332   8.736   7.188 -0.9404 -0.1214 -1.0592
  228MOL0     H30079   3.484   8.577   7.249 -2.0283  1.9217  0.9134
  228MOL0     H30080   3.857   8.387   7.179 -0.6669  1.6466 -3.0593
  228MOL0     H30081   4.082   8.273   7.234 -1.4697  1.9073  0.0187
  228MOL0     H30082   5.656   8.319   7.949 -0.9328 -0.7760 -2.1587
  228MOL0     H30083   5.888   8.231   7.973  0.6326 -0.6217 -0.8440
  228MOL0     H30084   6.448   8.308   7.707 -3.7071  0.2453  0.2559
  228MOL0     H30085   6.683   8.253   7.807  1.0000  0.1287  0.5846
  228MOL0     H30086   6.648   8.120   8.210 -0.3757 -1.0101  0.5080
  228MOL0     H30087   6.801   8.189   8.251 -1.0036  0.1629 -0.5887
  228MOL0     H30088   6.758   7.965   8.048 -1.8015  0.6817  0.4085
  228MOL0     H30089   6.916   8.050   8.074  0.8060 -1.0529  1.1227
  228MOL0     H30090   6.883   8.007   8.324 -1.1731  1.7040 -0.8840
  228MOL0     H30091   6.944   7.866   8.227 -1.6952 -2.6256  3.2560
  228MOL0     H30092   6.803   7.771   8.373 -1.0739 -1.5924 -1.6682
  228MOL0     H30093   6.683   7.900   8.353  1.2142  0.1470  1.7088
  228MOL0     H30094   6.611   7.621   8.041 -0.2587 -2.6602  1.3963
  228MOL0     H30095   6.510   8.293   8.200 -1.7141  1.5794  0.1679
  228MOL0     H30096   6.290   8.343   8.096 -1.3009  1.1580 -1.0952
  229MOL0     O30097   5.640   6.979   0.669 -0.7534  0.0234 -0.5093
  229MOL0     C30098   5.689   6.951   0.785  0.5899  0.2167  0.1899
  229MOL0     O30099   5.614   6.896   0.881 -0.7863 -0.1808 -0.1005
  229MOL0     C30100   5.486   6.844   0.860  0.2416 -0.0890  0.8055
  229MOL0     C30101   5.388   6.930   0.825  0.7340 -0.9923 -0.2302
  229MOL0     C30102   5.253   6.887   0.794 -0.1032 -0.8590 -0.1669
  229MOL0     C30103   5.226   6.750   0.813  0.3905 -0.9031 -0.0027
  229MOL0     O30104   5.097   6.709   0.801  0.2950 -0.7277 -0.3742
  229MOL0     C30105   4.999   6.776   0.720 -0.0600  0.4991 -0.0216
  229MOL0     C30106   4.859   6.713   0.746  0.1631 -0.4414  0.3681
  229MOL0     C30107   4.769   6.727   0.623  1.4260 -0.4391  0.2289
  229MOL0     C30108   4.618   6.713   0.646  0.3504 -0.2868 -0.6767
  229MOL0     C30109   4.523   6.750   0.524 -0.7269 -0.2593 -0.5859
  229MOL0     C30110   4.366   6.750   0.559 -0.0126 -0.1140 -0.2809
  229MOL0     C30111   4.298   6.850   0.472  0.3875 -0.1505  0.0218
  229MOL0     C30112   4.293   6.805   0.328  0.8403 -0.0241 -0.1558
  229MOL0     N30113   4.224   6.670   0.311 -0.0467 -0.5997 -0.8403
  229MOL0     C30114   4.093   6.660   0.305  0.0695  0.0583  0.3757
  229MOL0     C30115   4.067   6.534   0.283  0.0111  0.4608 -1.1494
  229MOL0     C30116   3.927   6.455   0.268  0.0436  0.1897 -0.7770
  229MOL0     C30117   3.905   6.350   0.377  0.1929  0.6128 -0.4849
  229MOL0     C30118   3.781   6.270   0.352  0.4705  0.0441 -0.1562
  229MOL0     C30119   3.770   6.139   0.435  0.5872  0.0587 -0.5661
  229MOL0     O30120   3.772   6.029   0.347  0.2028 -0.7507  1.0583
  229MOL0     C30121   3.649   5.969   0.316 -0.1877 -1.2444 -0.0379
  229MOL0     C30122   3.640   5.838   0.271 -0.3682  0.3252 -0.1001
  229MOL0     C30123   3.521   5.776   0.230 -0.3729 -0.2303 -0.8128
  229MOL0     C30124   3.397   5.838   0.257 -0.8024  0.7956 -0.4319
  229MOL0     C30125   3.273   5.752   0.255 -0.5953  0.0214  0.4293
  229MOL0     O30126   3.296   5.615   0.238 -0.0287 -0.4232  0.0207
  229MOL0     C30127   3.208   5.512   0.225  0.2667  0.4333  0.3522
  229MOL0     C30128   3.086   5.517   0.154  0.3694 -0.1959  0.2606
  229MOL0     C30129   2.995   5.408   0.144 -0.1707 -0.2966 -0.4265
  229MOL0     C30130   3.029   5.286   0.214 -0.2368 -0.0685  0.5857
  229MOL0     O30131   2.950   5.176   0.199  0.5327 -0.0815  0.5454
  229MOL0     C30132   2.983   5.101   0.079  0.3853 -1.1494 -0.4962
  229MOL0     C30133   2.851   5.057   0.023 -0.0659  0.3638  0.1015
  229MOL0     C30134   2.766   4.981   0.122  0.6908 -0.0521 -0.5007
  229MOL0     C30135   2.636   4.929   0.057  0.0870  0.3254 -0.0147
  229MOL0     C30136   2.521   5.038   0.052  0.1089  0.4853 -0.7952
  229MOL0     C30137   2.449   5.068   0.187  1.0403  0.3437  0.2161
  229MOL0     C30138   2.322   5.155   0.184 -0.7099  1.0833  0.8019
  229MOL0     C30139   2.283   5.203   0.316 -0.2150  0.5796  0.2260
  229MOL0    Cl30140   2.206   5.064   0.388 -0.1195 -0.1617 -0.3241
  229MOL0     C30141   3.162   5.273   0.258 -0.0704  0.1886  1.2930
  229MOL0     C30142   3.246   5.386   0.275  0.3981 -0.2378 -0.5092
  229MOL0     O30143   3.162   5.800   0.252  0.3555  0.3357  0.2898
  229MOL0     C30144   3.407   5.978   0.303  0.1632  0.0342 -0.1788
  229MOL0     C30145   3.530   6.041   0.319 -1.2221  0.3331  0.6831
  229MOL0     N30146   4.187   6.460   0.288  0.8895 -0.6726  0.0484
  229MOL0     N30147   4.279   6.546   0.298  0.5146  0.4847  0.7439
  229MOL0     C30148   5.315   6.668   0.864  0.2386 -0.2888 -0.1859
  229MOL0     C30149   5.448   6.715   0.876  0.7710  0.0231  0.4781
  229MOL0     C30150   5.833   6.993   0.813  0.1335  0.3036 -0.7888
  229MOL0     C30151   5.906   7.069   0.722 -0.4644 -0.3021  0.2060
  229MOL0     C30152   6.033   7.109   0.745  0.0080 -0.2178  0.9809
  229MOL0     C30153   6.093   7.084   0.865 -0.2392  0.8138  0.0536
  229MOL0     O30154   6.221   7.124   0.887 -0.1994  0.0376 -0.2798
  229MOL0     C30155   6.239   7.245   0.967  0.0605  0.4464  0.3354
  229MOL0     C30156   6.386   7.261   0.984 -0.8446 -0.2075  0.1453
  229MOL0     C30157   6.452   7.330   0.861  0.5525  0.1717  0.0680
  229MOL0     C30158   6.599   7.307   0.843  0.0475 -0.4152 -0.2637
  229MOL0     C30159   6.672   7.400   0.925 -0.2353  0.1402  0.7091
  229MOL0     C30160   6.731   7.474   1.003  0.0261  0.7115 -0.3270
  229MOL0     C30161   6.026   7.003   0.952  0.2914 -0.6464 -0.0740
  229MOL0     C30162   5.895   6.959   0.931 -0.4168  0.5685 -0.4071
  229MOL0     H30163   5.409   7.037   0.818 -0.2283 -0.7144  0.8351
  229MOL0     H30164   5.193   6.959   0.740 -1.7864 -1.1959  1.1728
  229MOL0     H30165   5.032   6.747   0.620 -2.7556 -3.2619 -0.0526
  229MOL0     H30166   5.002   6.885   0.730  1.9397  0.9295 -3.5202
  229MOL0     H30167   4.817   6.761   0.835  0.8009  1.0475 -0.0852
  229MOL0     H30168   4.883   6.608   0.762  0.8315 -0.4271 -0.4747
  229MOL0     H30169   4.792   6.650   0.549  0.3245 -1.4849  0.9542
  229MOL0     H30170   4.774   6.827   0.577  0.0935 -1.9607 -3.6392
  229MOL0     H30171   4.593   6.609   0.671  2.2788 -0.8731 -1.0600
  229MOL0     H30172   4.593   6.784   0.725  0.7330 -0.8794 -0.0071
  229MOL0     H30173   4.556   6.686   0.442  1.8296  0.4114 -0.1391
  229MOL0     H30174   4.556   6.854   0.512 -0.6388  0.1026  2.1680
  229MOL0     H30175   4.350   6.781   0.662 -0.4451  0.3653 -0.4896
  229MOL0     H30176   4.327   6.648   0.548  0.7648 -0.4973  0.3867
  229MOL0     H30177   4.195   6.835   0.507 -1.9724  3.2470 -4.4638
  229MOL0     H30178   4.326   6.955   0.481 -1.5165  0.4288 -0.2686
  229MOL0     H30179   4.397   6.808   0.296  0.6536 -0.3046 -0.7996
  229MOL0     H30180   4.229   6.873   0.270 -1.4885 -1.6363  0.3789
  229MOL0     H30181   4.028   6.747   0.297  1.6203  1.3772  1.4966
  229MOL0     H30182   3.936   6.417   0.166  0.1934  2.6389 -1.7601
  229MOL0     H30183   3.843   6.524   0.281 -0.8071 -0.7499 -1.1718
  229MOL0     H30184   3.899   6.394   0.477  0.3807 -2.9356  1.2324
  229MOL0     H30185   3.990   6.281   0.375 -0.0124  0.3607 -0.4760
  229MOL0     H30186   3.687   6.326   0.353 -1.4269 -2.8302 -1.7118
  229MOL0     H30187   3.777   6.252   0.244 -0.0676 -0.6794 -0.0217
  229MOL0     H30188   3.677   6.139   0.492  2.8073 -0.7694  3.4730
  229MOL0     H30189   3.854   6.126   0.504 -0.6330 -3.5441  0.4339
  229MOL0     H30190   3.735   5.789   0.255 -1.8951 -3.3192  1.0579
  229MOL0     H30191   3.539   5.678   0.187 -0.0395 -1.7175  2.4409
  229MOL0     H30192   3.064   5.602   0.090 -1.5058 -0.3904  0.6063
  229MOL0     H30193   2.905   5.409   0.083 -1.7334  3.9981  1.5518
  229MOL0     H30194   3.041   5.017   0.118 -0.3098 -0.9496  1.0643
  229MOL0     H30195   3.039   5.157   0.004 -0.8208 -0.3915 -0.8731
  229MOL0     H30196   2.869   5.007  -0.073 -0.4320  2.5278 -1.1635
  229MOL0     H30197   2.787   5.141  -0.003 -0.6099 -0.2952 -0.7503
  229MOL0     H30198   2.741   5.050   0.204  1.7304 -1.3764  0.9873
  229MOL0     H30199   2.833   4.901   0.155  2.0343  0.9621 -0.6683
  229MOL0     H30200   2.652   4.892  -0.045 -1.4245  1.2814 -0.6316
  229MOL0     H30201   2.601   4.844   0.116  1.5182 -0.5776 -0.4345
  229MOL0     H30202   2.441   5.002  -0.013  0.4622  0.1040 -1.0244
  229MOL0     H30203   2.559   5.131   0.009  0.8917 -0.3361 -1.9564
  229MOL0     H30204   2.521   5.091   0.266  0.9015  0.5108  0.2946
  229MOL0     H30205   2.414   4.965   0.206  3.6850 -1.3929 -3.2027
  229MOL0     H30206   2.340   5.245   0.125 -5.0143  1.4380 -0.3018
  229MOL0     H30207   2.239   5.108   0.130  1.2784  1.7839 -3.2227
  229MOL0     H30208   2.209   5.281   0.300 -1.1520 -0.1843  0.7544
  229MOL0     H30209   2.372   5.239   0.369 -1.8775  1.4844  2.5972
  229MOL0     H30210   3.212   5.178   0.277 -0.8906 -0.3291  0.9123
  229MOL0     H30211   3.345   5.363   0.313  0.0197 -1.9024 -0.4410
  229MOL0     H30212   3.318   6.036   0.322  2.1454  2.4319  2.5886
  229MOL0     H30213   3.535   6.149   0.334  2.7721  0.6754 -1.8149
  229MOL0     H30214   5.299   6.563   0.889  0.6775 -1.2572 -3.5735
  229MOL0     H30215   5.520   6.640   0.909 -0.5532 -2.0578 -1.0739
  229MOL0     H30216   5.854   7.098   0.631 -0.1647  0.5394  0.2993
  229MOL0     H30217   6.091   7.174   0.680 -0.8143  0.3629  0.8064
  229MOL0     H30218   6.183   7.237   1.060  0.3787  0.0525  0.4963
  229MOL0     H30219   6.191   7.325   0.909  0.2334  0.1431 -0.2378
  229MOL0     H30220   6.412   7.326   1.069 -1.9048  0.0089  0.3185
  229MOL0     H30221   6.441   7.168   1.001 -0.9699  0.0157  1.9291
  229MOL0     H30222   6.444   7.439   0.865 -0.2422  0.4425 -4.0315
  229MOL0     H30223   6.406   7.298   0.767  0.3812 -1.1384  0.5909
  229MOL0     H30224   6.626   7.208   0.881  1.2407 -0.1747 -0.4327
  229MOL0     H30225   6.620   7.318   0.736  1.4783  0.5949  0.0956
  229MOL0     H30226   6.761   7.542   1.081  1.0168 -0.5686  0.4476
  229MOL0     H30227   6.065   6.980   1.051  1.0904  1.1054  0.0600
  229MOL0     H30228   5.841   6.897   1.002 -1.0724 -1.0663 -2.2324
  230MOL0     O30229  11.293   4.515   7.072 -0.0904 -0.6676 -0.8659
  230MOL0     C30230  11.190   4.582   7.054 -0.4202  0.4049  0.1244
  230MOL0     O30231  11.139   4.605   6.927 -0.1210 -0.5134  0.0143
  230MOL0     C30232  11.202   4.550   6.816 -0.5336 -0.3941 -0.2782
  230MOL0     C30233  11.323   4.615   6.766  0.2862  0.2650  0.6731
  230MOL0     C30234  11.386   4.566   6.651 -0.3690 -0.1856 -0.0604
  230MOL0     C30235  11.333   4.446   6.596 -0.4307 -0.3590  0.0345
  230MOL0     O30236  11.392   4.380   6.492  0.1397 -0.5743 -0.2530
  230MOL0     C30237  11.392   4.455   6.371 -0.1279 -0.6692  1.0798
  230MOL0     C30238  11.271   4.451   6.281  0.8368 -0.3019 -0.0037
  230MOL0     C30239  11.242   4.305   6.225 -0.4887  0.0741 -0.5875
  230MOL0     C30240  11.115   4.298   6.136  0.2786  0.0431  0.6354
  230MOL0     C30241  11.089   4.154   6.087 -0.7270 -1.4545 -0.2827
  230MOL0     C30242  11.001   4.158   5.957  0.1640  0.9146  0.3447
  230MOL0     C30243  10.855   4.192   6.007 -0.5579 -0.4098 -0.8914
  230MOL0     C30244  10.759   4.177   5.898  0.0179 -0.0412  0.3007
  230MOL0     N30245  10.620   4.218   5.927 -0.9801  0.2680 -0.1153
  230MOL0     C30246  10.518   4.157   5.867  0.6613  1.0508 -0.2549
  230MOL0     C30247  10.407   4.220   5.909 -0.2647 -0.3465  0.4359
  230MOL0     C30248  10.268   4.187   5.874 -0.0160 -0.0704  0.5413
  230MOL0     C30249  10.173   4.281   5.956  0.4546 -0.3356  0.1580
  230MOL0     C30250  10.041   4.297   5.881  0.5332 -0.0437 -1.1243
  230MOL0     C30251   9.958   4.396   5.955 -0.7184 -0.3345 -0.4173
  230MOL0     O30252   9.827   4.369   5.925  0.6078 -0.3563 -0.0970
  230MOL0     C30253   9.729   4.442   6.003 -0.2997 -0.2889 -0.1112
  230MOL0     C30254   9.616   4.370   6.044 -0.4116 -0.7055 -0.7987
  230MOL0     C30255   9.515   4.422   6.123 -0.3436 -0.9698 -0.2985
  230MOL0     C30256   9.515   4.562   6.153  1.0010  0.0157  0.3668
  230MOL0     C30257   9.400   4.635   6.211  0.0877 -0.1518 -0.0026
  230MOL0     O30258   9.428   4.767   6.236 -0.0643  1.4585  1.1531
  230MOL0     C30259   9.343   4.829   6.327 -0.9062  1.0939 -0.2744
  230MOL0     C30260   9.257   4.916   6.276 -0.4722  1.0370 -0.5240
  230MOL0     C30261   9.148   4.956   6.345  0.5699 -0.3477  0.1418
  230MOL0     C30262   9.130   4.932   6.477  0.2511  0.2545  0.2926
  230MOL0     O30263   9.030   4.994   6.547  0.6644 -0.5794 -0.4112
  230MOL0     C30264   8.894   4.980   6.511  0.3076 -0.1474 -0.8902
  230MOL0     C30265   8.795   5.005   6.628  0.3625 -0.0810 -0.2715
  230MOL0     C30266   8.640   4.986   6.606  0.0814 -0.2013 -1.0617
  230MOL0     C30267   8.536   5.004   6.723 -0.4756  0.0420 -0.2597
  230MOL0     C30268   8.397   4.972   6.675 -0.2849  0.5486 -0.3998
  230MOL0     C30269   8.294   4.980   6.781 -0.3181  1.0053 -0.2341
  230MOL0     C30270   8.290   5.092   6.873  0.2068  0.0915 -0.1927
  230MOL0     C30271   8.257   5.056   7.017 -0.6495  0.4702 -0.2440
  230MOL0    Cl30272   8.393   4.993   7.119 -0.0244  0.2915  0.2248
  230MOL0     C30273   9.221   4.849   6.535 -0.4997  1.1464 -0.2203
  230MOL0     C30274   9.333   4.792   6.463 -0.1465 -0.2067 -0.4837
  230MOL0     O30275   9.291   4.578   6.233  0.1909 -0.2779  0.3995
  230MOL0     C30276   9.626   4.638   6.106  0.4504  0.7529 -0.4774
  230MOL0     C30277   9.733   4.578   6.034  1.0236  0.2338 -0.0857
  230MOL0     N30278  10.450   4.328   5.986  0.0705 -0.1540  0.3622
  230MOL0     N30279  10.577   4.327   5.997 -0.2090  0.0239  0.5018
  230MOL0     C30280  11.222   4.379   6.646  0.1897 -0.4712  0.8026
  230MOL0     C30281  11.152   4.437   6.754  0.2599  0.2823 -0.6903
  230MOL0     C30282  11.111   4.614   7.163  0.8826  0.3161 -0.7507
  230MOL0     C30283  11.158   4.604   7.293 -0.1906 -1.0134 -0.7982
  230MOL0     C30284  11.095   4.645   7.409 -0.6157 -0.7531  0.8301
  230MOL0     C30285  10.959   4.688   7.394 -0.0516 -0.7274  0.2136
  230MOL0     O30286  10.884   4.739   7.496  1.1207  0.0248 -0.3910
  230MOL0     C30287  10.934   4.738   7.626  0.2667  0.4499 -0.0306
  230MOL0     C30288  10.879   4.863   7.698 -0.1950  0.7366 -0.0852
  230MOL0     C30289  10.752   4.825   7.772 -0.0579  0.4069  0.0967
  230MOL0     C30290  10.666   4.955   7.791  0.2081 -0.6952 -1.0060
  230MOL0     C30291  10.540   4.918   7.852  0.1344  0.2992  0.2901
  230MOL0     C30292  10.424   4.897   7.901  0.4227  0.3952  0.1917
  230MOL0     C30293  10.907   4.706   7.277  0.4680 -0.1210  0.1737
  230MOL0     C30294  10.978   4.669   7.154 -0.1101 -0.0569  0.2328
  230MOL0     H30295  11.368   4.707   6.801  1.3590  0.4828 -1.1658
  230MOL0     H30296  11.480   4.598   6.607 -0.9735  1.0587 -0.4749
  230MOL0     H30297  11.470   4.411   6.308  0.8843  2.4005  0.0049
  230MOL0     H30298  11.420   4.560   6.383 -1.6820  0.3686 -2.6387
  230MOL0     H30299  11.270   4.529   6.205  0.6405 -1.1520 -0.8860
  230MOL0     H30300  11.184   4.474   6.343  1.7127  0.4208  1.0043
  230MOL0     H30301  11.210   4.245   6.310 -1.7768  1.8905  0.2707
  230MOL0     H30302  11.331   4.255   6.187 -0.3371 -0.6152  0.6268
  230MOL0     H30303  11.026   4.342   6.183  0.2179  1.3711 -0.6412
  230MOL0     H30304  11.122   4.374   6.058  2.2502 -0.6225  0.0967
  230MOL0     H30305  11.021   4.099   6.152 -2.1069  1.2670  0.7495
  230MOL0     H30306  11.187   4.109   6.068 -0.1434 -0.0902 -0.6803
  230MOL0     H30307  11.002   4.060   5.908 -0.7332  0.4364  1.2470
  230MOL0     H30308  11.039   4.237   5.891 -0.6278  0.7559 -0.3159
  230MOL0     H30309  10.819   4.145   6.099 -2.0192  3.5365  0.7423
  230MOL0     H30310  10.859   4.300   6.025 -1.3352 -0.3806 -0.8634
  230MOL0     H30311  10.769   4.075   5.859 -1.5204 -0.3261  0.6099
  230MOL0     H30312  10.797   4.245   5.821 -0.2109  0.5426  0.6964
  230MOL0     H30313  10.525   4.066   5.808  1.3295  1.2429 -0.4854
  230MOL0     H30314  10.242   4.082   5.886  1.6885 -0.8226 -1.6138
  230MOL0     H30315  10.254   4.205   5.767 -0.9643 -2.8172  0.1408
  230MOL0     H30316  10.219   4.379   5.967  1.5078 -0.7913 -0.0887
  230MOL0     H30317  10.152   4.227   6.049  0.9309 -1.1800 -0.2100
  230MOL0     H30318  10.054   4.327   5.777 -1.6849  0.6700 -1.2473
  230MOL0     H30319   9.989   4.201   5.880 -1.2009  0.8711 -1.6402
  230MOL0     H30320   9.998   4.494   5.930 -0.9566  0.4939  2.2024
  230MOL0     H30321   9.973   4.379   6.062 -2.2678  2.4445  0.3389
  230MOL0     H30322   9.613   4.268   6.007 -0.2609 -0.8167 -0.5076
  230MOL0     H30323   9.434   4.358   6.158 -1.2110  0.5264  0.5221
  230MOL0     H30324   9.259   4.949   6.173 -3.0591 -0.4456 -1.1373
  230MOL0     H30325   9.069   5.023   6.314 -2.4536 -1.9653  3.6418
  230MOL0     H30326   8.881   4.884   6.459  0.1648  0.5437 -2.1810
  230MOL0     H30327   8.881   5.050   6.428 -2.9697  0.3850 -0.0764
  230MOL0     H30328   8.806   5.109   6.662 -0.5926  0.3582 -1.2509
  230MOL0     H30329   8.827   4.937   6.707 -2.1015  1.7996  2.5603
  230MOL0     H30330   8.632   4.879   6.582  0.5090 -0.8297  1.3609
  230MOL0     H30331   8.605   5.048   6.523 -1.4862  1.8261  1.0094
  230MOL0     H30332   8.562   4.934   6.803 -0.6233  0.1302 -0.1337
  230MOL0     H30333   8.551   5.105   6.762 -3.3252 -0.7736  3.5526
  230MOL0     H30334   8.391   4.872   6.632  0.9102  0.1855  0.2384
  230MOL0     H30335   8.360   5.042   6.599  3.2888 -0.7233 -3.6334
  230MOL0     H30336   8.312   4.891   6.842  0.4661 -0.7351 -2.8013
  230MOL0     H30337   8.198   4.959   6.733  1.3655  2.1359 -4.6308
  230MOL0     H30338   8.380   5.153   6.887  0.7836 -1.1239  1.6998
  230MOL0     H30339   8.212   5.160   6.837 -0.9936  0.0799  2.1876
  230MOL0     H30340   8.178   4.981   7.012  0.2504 -0.4613 -0.8132
  230MOL0     H30341   8.209   5.140   7.068 -1.9922 -0.3477 -0.1102
  230MOL0     H30342   9.204   4.840   6.642 -1.6949  1.7608 -0.3510
  230MOL0     H30343   9.412   4.730   6.505  3.0770  4.8494  1.7564
  230MOL0     H30344   9.631   4.746   6.112 -1.1479  0.9671 -1.9746
  230MOL0     H30345   9.815   4.640   5.998  0.8212  0.9274  0.6075
  230MOL0     H30346  11.186   4.284   6.608  0.2585  0.2593 -1.2181
  230MOL0     H30347  11.075   4.376   6.800 -0.5854  2.7523  1.4060
  230MOL0     H30348  11.260   4.565   7.297  0.6147  0.4932 -3.7029
  230MOL0     H30349  11.141   4.621   7.505 -1.4319 -1.3492  1.0836
  230MOL0     H30350  11.042   4.749   7.624  0.6260 -2.3097 -0.5707
  230MOL0     H30351  10.921   4.638   7.669  3.6546 -0.2579 -0.3765
  230MOL0     H30352  10.951   4.890   7.776  0.9244 -0.4989 -0.6597
  230MOL0     H30353  10.863   4.947   7.629 -0.1327  0.8386  0.0243
  230MOL0     H30354  10.778   4.778   7.868 -1.9846  0.9050  0.9183
  230MOL0     H30355  10.691   4.752   7.719 -0.3610 -0.6346  1.7873
  230MOL0     H30356  10.714   5.033   7.850 -1.4825 -1.9369  2.2512
  230MOL0     H30357  10.653   4.999   7.692  1.8971  0.8866 -0.5889
  230MOL0     H30358  10.330   4.865   7.940  1.1449 -0.6283  1.1488
  230MOL0     H30359  10.814   4.762   7.264 -0.5021 -1.5434  0.7492
  230MOL0     H30360  10.940   4.691   7.055  2.0128 -0.5613 -0.7491
  231MOL0     O30361   3.631   4.352   3.381  0.0893  0.0271  0.0787
  231MOL0     C30362   3.666   4.275   3.296  0.5323  0.4259 -0.5119
  231MOL0     O30363   3.583   4.212   3.203  0.3279  0.0902 -0.1935
  231MOL0     C30364   3.457   4.250   3.185 -0.2132  0.4540 -1.5767
  231MOL0     C30365   3.425   4.377   3.141  0.0846  0.0141 -0.1562
  231MOL0     C30366   3.294   4.413   3.129 -0.6558 -0.5749 -0.3634
  231MOL0     C30367   3.195   4.327   3.159 -0.3675  0.2838 -0.5851
  231MOL0     O30368   3.067   4.363   3.138  0.2832  0.2289 -0.3118
  231MOL0     C30369   3.003   4.298   3.029 -0.0832 -0.0214  0.8882
  231MOL0     C30370   2.869   4.361   2.988  0.5503 -1.1088  0.2227
  231MOL0     C30371   2.784   4.273   2.891  0.0061 -0.0694 -0.6024
  231MOL0     C30372   2.643   4.337   2.871 -0.4802  0.0345 -0.3261
  231MOL0     C30373   2.570   4.275   2.747  0.0621  0.1540 -0.1967
  231MOL0     C30374   2.457   4.366   2.706  0.1589 -0.1791  0.8501
  231MOL0     C30375   2.364   4.311   2.599 -0.0832 -0.0247  0.2890
  231MOL0     C30376   2.281   4.416   2.523  0.3557  0.1980  0.1753
  231MOL0     N30377   2.179   4.476   2.614  0.3717 -0.0573 -0.3845
  231MOL0     C30378   2.045   4.442   2.631 -0.6582  0.7049  0.1977
  231MOL0     C30379   1.990   4.530   2.714 -0.1576 -0.1500  0.7205
  231MOL0     C30380   1.839   4.533   2.728  0.2526  0.7710  0.0995
  231MOL0     C30381   1.798   4.639   2.827 -0.4914  0.1001 -0.5905
  231MOL0     C30382   1.644   4.624   2.830 -0.1443  1.0723 -0.1437
  231MOL0     C30383   1.575   4.757   2.877  0.5804 -0.1098  0.0145
  231MOL0     O30384   1.518   4.740   3.007  0.0100 -0.1547  0.6007
  231MOL0     C30385   1.426   4.839   3.041 -0.3164  0.2538 -0.4503
  231MOL0     C30386   1.416   4.966   2.990  0.0343  0.0621 -0.0662
  231MOL0     C30387   1.305   5.048   3.024 -0.3087  0.4517  0.8835
  231MOL0     C30388   1.214   5.000   3.126 -0.1005  0.1376  1.0265
  231MOL0     C30389   1.101   5.089   3.171 -1.1106 -0.1522 -0.1768
  231MOL0     O30390   1.011   5.023   3.251  0.2855 -0.5201 -0.1911
  231MOL0     C30391   0.886   5.078   3.266  0.1386 -0.3270 -0.0115
  231MOL0     C30392   0.847   5.213   3.258 -0.9269 -0.3909 -0.4113
  231MOL0     C30393   0.724   5.250   3.290  0.3108  0.1176 -0.0950
  231MOL0     C30394   0.629   5.162   3.340 -0.6899  0.2721 -0.1373
  231MOL0     O30395   0.505   5.192   3.394 -0.3055  0.0883 -0.6387
  231MOL0     C30396   0.473   5.331   3.422 -0.0665 -0.0696  0.0255
  231MOL0     C30397   0.342   5.349   3.503  0.1848 -0.2667 -0.7762
  231MOL0     C30398   0.282   5.487   3.506 -0.3072 -0.4414 -0.4432
  231MOL0     C30399   0.173   5.499   3.614  0.6062  0.3931 -0.1893
  231MOL0     C30400   0.092   5.630   3.613 -0.2342  0.9419 -0.0599
  231MOL0     C30401   0.011   5.625   3.747  0.6018  1.0530 -0.0260
  231MOL0     C30402  -0.070   5.746   3.772 -0.1486 -0.4109 -0.2998
  231MOL0     C30403  -0.185   5.769   3.665 -0.8886 -0.9998 -0.9132
  231MOL0    Cl30404  -0.275   5.618   3.652  0.3962 -0.7527 -0.1898
  231MOL0     C30405   0.662   5.033   3.341 -0.1183  0.6376 -0.2077
  231MOL0     C30406   0.790   4.987   3.308 -0.2627  0.1926  0.2784
  231MOL0     O30407   1.095   5.204   3.134  0.3176 -0.5689 -0.0419
  231MOL0     C30408   1.234   4.871   3.185 -0.6079 -0.3601  0.0054
  231MOL0     C30409   1.335   4.791   3.140  0.0114  0.2198 -0.7592
  231MOL0     N30410   2.092   4.607   2.758 -0.5584 -0.4016 -0.3500
  231MOL0     N30411   2.192   4.592   2.680 -0.0726 -0.4488  0.4240
  231MOL0     C30412   3.223   4.200   3.204 -0.2401  0.2479  0.3972
  231MOL0     C30413   3.355   4.161   3.231  0.6130 -0.4548  0.4121
  231MOL0     C30414   3.811   4.234   3.302 -0.1979 -0.2435  0.4184
  231MOL0     C30415   3.840   4.134   3.212  0.2751  0.5865 -0.5187
  231MOL0     C30416   3.979   4.095   3.199 -0.4705 -0.0092  0.5972
  231MOL0     C30417   4.077   4.168   3.260  0.3993  0.3089 -1.2785
  231MOL0     O30418   4.205   4.139   3.212  0.2460 -0.6245 -0.6954
  231MOL0     C30419   4.317   4.179   3.301  0.0829  0.0122 -0.2861
  231MOL0     C30420   4.436   4.092   3.253  0.9000  0.7054 -0.0846
  231MOL0     C30421   4.553   4.106   3.339 -0.1886  0.4896 -0.4097
  231MOL0     C30422   4.671   4.010   3.309 -0.2072  0.9251 -0.0304
  231MOL0     C30423   4.804   4.064   3.346  0.3829  0.3606  0.2153
  231MOL0     C30424   4.907   4.108   3.393  0.0720 -0.3687  0.2827
  231MOL0     C30425   4.044   4.270   3.355 -0.5084 -0.3467  0.3534
  231MOL0     C30426   3.912   4.304   3.374  0.7157 -0.3241  0.4458
  231MOL0     H30427   3.499   4.450   3.107 -0.4711 -0.1095 -1.6914
  231MOL0     H30428   3.262   4.507   3.086 -1.7358 -1.9859 -2.8057
  231MOL0     H30429   2.978   4.197   3.061  0.1868 -0.7560 -1.0883
  231MOL0     H30430   3.067   4.309   2.941  0.9975 -0.8939  1.5425
  231MOL0     H30431   2.892   4.457   2.940  5.0656 -1.4976  1.1667
  231MOL0     H30432   2.821   4.393   3.081  0.6547  1.0758 -0.4240
  231MOL0     H30433   2.760   4.179   2.941 -0.2172  0.6003  0.5963
  231MOL0     H30434   2.832   4.257   2.794  0.0567  0.5005 -0.6732
  231MOL0     H30435   2.585   4.326   2.962 -1.3389  0.1274 -0.8525
  231MOL0     H30436   2.655   4.444   2.853  3.4337  0.1939  2.0929
  231MOL0     H30437   2.522   4.184   2.785  0.7379  0.4560  1.4506
  231MOL0     H30438   2.632   4.267   2.657  1.0113 -0.8818  0.5158
  231MOL0     H30439   2.495   4.462   2.670 -0.4844 -0.2589 -0.1064
  231MOL0     H30440   2.405   4.399   2.796  0.9231  0.7612  0.9537
  231MOL0     H30441   2.406   4.255   2.515 -3.1835  0.9391 -2.0978
  231MOL0     H30442   2.293   4.244   2.648 -0.0316 -0.3263 -0.0422
  231MOL0     H30443   2.235   4.387   2.428  1.6248 -0.3564 -0.3020
  231MOL0     H30444   2.345   4.497   2.487 -2.4699  3.1308  1.2895
  231MOL0     H30445   1.988   4.364   2.581  1.9447 -1.5990  0.5434
  231MOL0     H30446   1.804   4.433   2.754  0.8429  0.0536 -1.7133
  231MOL0     H30447   1.796   4.563   2.632 -0.9809 -1.3792 -0.0815
  231MOL0     H30448   1.832   4.736   2.791 -1.6102  0.3644 -0.9642
  231MOL0     H30449   1.843   4.633   2.927  0.8655 -1.7406 -1.2544
  231MOL0     H30450   1.605   4.593   2.733 -0.1601 -1.9840  0.7379
  231MOL0     H30451   1.612   4.544   2.898  0.2666  2.1886  1.4182
  231MOL0     H30452   1.500   4.775   2.799 -1.0806 -2.5541  0.9108
  231MOL0     H30453   1.642   4.843   2.878  2.5536 -1.5629  0.5720
  231MOL0     H30454   1.480   5.004   2.911 -0.1548  2.4052  0.8210
  231MOL0     H30455   1.300   5.150   2.987 -1.8859  0.6528  1.5874
  231MOL0     H30456   0.919   5.293   3.242 -3.7306  2.9572  2.2668
  231MOL0     H30457   0.704   5.357   3.280  0.7508  0.3014  0.9299
  231MOL0     H30458   0.464   5.390   3.331  0.1224  3.9213  2.3765
  231MOL0     H30459   0.547   5.379   3.487 -0.2597 -2.6287  2.3542
  231MOL0     H30460   0.366   5.329   3.608 -0.3485 -1.4780 -0.8736
  231MOL0     H30461   0.261   5.282   3.473 -1.3462  1.1825 -0.0911
  231MOL0     H30462   0.245   5.500   3.403  2.7931  1.1958 -1.4675
  231MOL0     H30463   0.363   5.560   3.516 -1.0936  0.2794  0.8180
  231MOL0     H30464   0.104   5.414   3.609  2.3237 -1.1937  1.4288
  231MOL0     H30465   0.222   5.469   3.707  2.8329 -4.2698 -2.4775
  231MOL0     H30466   0.033   5.634   3.521  0.6727  2.1591 -0.6113
  231MOL0     H30467   0.167   5.709   3.604  1.9431 -1.1745 -1.8561
  231MOL0     H30468   0.085   5.619   3.827  0.8030 -0.2698 -0.2862
  231MOL0     H30469  -0.050   5.535   3.754  3.1153 -0.7496 -0.0400
  231MOL0     H30470  -0.124   5.734   3.866 -2.5523  0.3946 -1.4973
  231MOL0     H30471  -0.015   5.838   3.789 -2.5242  0.9275  0.6440
  231MOL0     H30472  -0.142   5.810   3.573 -0.1883 -0.8928 -0.5476
  231MOL0     H30473  -0.246   5.852   3.700 -2.1674 -1.2704 -2.3676
  231MOL0     H30474   0.586   4.963   3.375  0.0670 -0.4247 -1.8505
  231MOL0     H30475   0.817   4.882   3.315 -0.7387  0.0338 -0.2084
  231MOL0     H30476   1.188   4.828   3.273  0.4321  0.8744  1.2010
  231MOL0     H30477   1.349   4.691   3.180  4.1066  0.3189 -1.4363
  231MOL0     H30478   3.136   4.137   3.220 -3.0603  2.9543 -2.7098
  231MOL0     H30479   3.381   4.079   3.296 -1.1826  0.0243  1.8034
  231MOL0     H30480   3.774   4.086   3.140  1.3551 -0.6014 -0.7360
  231MOL0     H30481   4.005   4.024   3.122 -0.1224  1.5805 -0.8170
  231MOL0     H30482   4.292   4.151   3.404 -1.8729  0.1999 -0.6766
  231MOL0     H30483   4.345   4.284   3.285 -0.2174  0.0268 -0.7326
  231MOL0     H30484   4.395   3.991   3.243 -0.6057  1.2347  0.4867
  231MOL0     H30485   4.457   4.130   3.152 -2.1006  2.5724 -0.1425
  231MOL0     H30486   4.525   4.086   3.443 -1.7520  0.8524 -0.7460
  231MOL0     H30487   4.588   4.210   3.341  2.2410 -0.2095 -1.7424
  231MOL0     H30488   4.642   3.919   3.361  0.3445  0.7919  0.0489
  231MOL0     H30489   4.681   3.987   3.203 -1.6256  0.8387 -0.1688
  231MOL0     H30490   5.001   4.137   3.436  0.8349 -0.4514 -1.2496
  231MOL0     H30491   4.116   4.337   3.402 -1.0803 -0.0198  0.7801
  231MOL0     H30492   3.879   4.388   3.434 -0.7855  0.6023 -1.5522
  232MOL0     O30493   2.506   2.778   1.074 -0.6447 -0.6525 -0.4346
  232MOL0     C30494   2.587   2.790   1.163  0.7547  0.0313 -0.4674
  232MOL0     O30495   2.548   2.782   1.286  0.6430  0.2007 -0.0556
  232MOL0     C30496   2.425   2.722   1.302  0.6226  0.1452  0.0407
  232MOL0     C30497   2.412   2.588   1.360  0.4449 -0.1722 -0.1446
  232MOL0     C30498   2.295   2.517   1.363  0.2659 -0.4468 -0.6713
  232MOL0     C30499   2.167   2.583   1.332  0.5496 -0.8176  0.1150
  232MOL0     O30500   2.046   2.516   1.342 -0.3704 -0.4224 -1.6715
  232MOL0     C30501   1.935   2.566   1.270  0.6517 -0.4941 -0.6590
  232MOL0     C30502   1.820   2.468   1.274  0.2400 -0.0936 -0.4145
  232MOL0     C30503   1.692   2.526   1.212 -0.3379 -0.2593  0.2418
  232MOL0     C30504   1.563   2.444   1.243 -0.7212  0.1289  0.5544
  232MOL0     C30505   1.441   2.505   1.188  0.0721 -0.7349  0.3083
  232MOL0     C30506   1.426   2.517   1.035  0.2234  0.5251  0.0955
  232MOL0     C30507   1.287   2.539   0.986  1.1082  0.9917 -0.3181
  232MOL0     C30508   1.206   2.405   0.993 -0.1154 -0.3657 -0.6858
  232MOL0     N30509   1.084   2.429   0.917 -0.9100 -0.0770 -0.1655
  232MOL0     C30510   0.974   2.500   0.962 -1.2683 -0.7751 -0.0364
  232MOL0     C30511   0.881   2.478   0.869 -0.9462  0.2347  0.1498
  232MOL0     C30512   0.749   2.540   0.846 -0.1681 -0.2273  0.0681
  232MOL0     C30513   0.675   2.571   0.974  0.1474 -0.1426  0.6091
  232MOL0     C30514   0.615   2.455   1.053  0.7470  0.3206 -0.3235
  232MOL0     C30515   0.481   2.419   0.996  0.7702 -0.1441  0.4640
  232MOL0     O30516   0.381   2.524   0.996  0.0802 -0.1277  0.0355
  232MOL0     C30517   0.275   2.488   0.917 -0.0517 -0.5895  0.6113
  232MOL0     C30518   0.268   2.531   0.778  1.1183 -0.8525  0.2514
  232MOL0     C30519   0.151   2.496   0.706 -0.6566  0.3911  0.2293
  232MOL0     C30520   0.051   2.415   0.759 -0.0599 -0.3448  0.0003
  232MOL0     C30521  -0.064   2.373   0.684  0.2948 -0.0014  0.4922
  232MOL0     O30522  -0.111   2.255   0.725  0.0020 -0.4692  0.2379
  232MOL0     C30523  -0.240   2.208   0.683 -0.2562 -0.1864 -0.1086
  232MOL0     C30524  -0.254   2.070   0.697  0.5141  0.3040 -0.4623
  232MOL0     C30525  -0.378   2.006   0.677 -0.7257 -0.2762 -0.0657
  232MOL0     C30526  -0.488   2.087   0.632  0.0165 -1.2995 -0.5150
  232MOL0     O30527  -0.615   2.037   0.595 -0.8230 -0.5365  0.3234
  232MOL0     C30528  -0.649   1.905   0.647  0.1842 -0.0323 -0.0081
  232MOL0     C30529  -0.803   1.875   0.648 -0.3855 -0.2458 -0.5260
  232MOL0     C30530  -0.822   1.729   0.688 -0.5726 -0.4281  0.0720
  232MOL0     C30531  -0.974   1.681   0.683 -0.3749  0.5233  0.3273
  232MOL0     C30532  -1.059   1.742   0.793 -0.3217  0.0243 -0.2994
  232MOL0     C30533  -1.195   1.677   0.796  0.2437 -0.8956  0.4433
  232MOL0     C30534  -1.290   1.714   0.683  0.2975  0.4960  1.1914
  232MOL0     C30535  -1.378   1.833   0.716  0.0917  0.0635 -0.4210
  232MOL0    Cl30536  -1.472   1.891   0.578 -0.1882  0.2545 -0.2931
  232MOL0     C30537  -0.480   2.227   0.615  0.0192 -0.9787  0.2740
  232MOL0     C30538  -0.354   2.288   0.640 -0.2550  0.0116  0.0888
  232MOL0     O30539  -0.129   2.450   0.616  0.2389 -0.7835 -0.1187
  232MOL0     C30540   0.070   2.383   0.893 -0.1581 -0.1706  0.6026
  232MOL0     C30541   0.176   2.414   0.972 -0.7592 -0.0183  0.2094
  232MOL0     N30542   0.941   2.397   0.772  0.4197 -0.0067  0.3082
  232MOL0     N30543   1.065   2.380   0.795  0.2047 -0.3422  0.3175
  232MOL0     C30544   2.183   2.720   1.291  0.0606  0.2454 -0.1513
  232MOL0     C30545   2.304   2.790   1.282  0.8858 -0.2061  0.2726
  232MOL0     C30546   2.723   2.823   1.147 -0.4813 -0.5958  0.3085
  232MOL0     C30547   2.804   2.879   1.242 -0.0310  0.1953 -0.0840
  232MOL0     C30548   2.934   2.913   1.216  0.2261 -0.9120  0.1047
  232MOL0     C30549   2.995   2.864   1.107 -0.9759 -0.0569  0.3234
  232MOL0     O30550   3.132   2.885   1.101  0.1111 -0.2966 -0.1229
  232MOL0     C30551   3.208   2.843   0.987 -0.7913 -0.3032 -0.4697
  232MOL0     C30552   3.244   2.700   0.998 -0.2536  0.9239 -0.1587
  232MOL0     C30553   3.364   2.672   1.096 -0.6823 -1.1079 -0.2846
  232MOL0     C30554   3.365   2.517   1.128 -0.0885  0.7700 -0.1556
  232MOL0     C30555   3.488   2.469   1.197  0.3486  0.4583  0.6878
  232MOL0     C30556   3.588   2.429   1.254  0.8071 -0.5942  0.0733
  232MOL0     C30557   2.923   2.803   1.002  0.1130 -1.3441 -0.6526
  232MOL0     C30558   2.787   2.786   1.026 -0.0314  0.0259  0.7336
  232MOL0     H30559   2.504   2.532   1.369 -0.9932 -3.1428 -2.3452
  232MOL0     H30560   2.293   2.409   1.377  1.3343 -0.2719  1.1771
  232MOL0     H30561   1.959   2.599   1.168  1.7965  0.5627 -0.0708
  232MOL0     H30562   1.911   2.646   1.341  3.1584 -3.6562  4.3389
  232MOL0     H30563   1.800   2.459   1.382 -1.2366  3.4884 -0.2493
  232MOL0     H30564   1.847   2.372   1.230  2.2563 -0.3876  1.3164
  232MOL0     H30565   1.693   2.530   1.103 -3.6489 -1.0610  0.0990
  232MOL0     H30566   1.670   2.623   1.259  0.1935 -0.5863  1.1981
  232MOL0     H30567   1.578   2.342   1.205  0.7877  1.4528 -2.7927
  232MOL0     H30568   1.554   2.435   1.351  0.2373 -3.8460  0.4800
  232MOL0     H30569   1.427   2.601   1.238  0.2841 -0.1941 -0.6551
  232MOL0     H30570   1.362   2.436   1.219 -1.6222  1.4448  1.1229
  232MOL0     H30571   1.477   2.439   0.978 -2.4329  0.3912 -2.3674
  232MOL0     H30572   1.496   2.598   1.013  2.4227 -1.5300 -1.0108
  232MOL0     H30573   1.240   2.616   1.047  1.4345  1.5874 -0.8093
  232MOL0     H30574   1.297   2.575   0.884 -3.0419  0.8107 -0.9672
  232MOL0     H30575   1.167   2.389   1.094 -0.3042 -0.4407 -0.7702
  232MOL0     H30576   1.263   2.326   0.942  3.7195  0.6473  1.6386
  232MOL0     H30577   0.970   2.567   1.047 -0.6362 -1.4701  0.5627
  232MOL0     H30578   0.685   2.485   0.777  0.1625  0.6683 -0.9750
  232MOL0     H30579   0.780   2.624   0.784 -1.5378  1.8985  2.1043
  232MOL0     H30580   0.601   2.648   0.955  0.8255  1.2016  3.0215
  232MOL0     H30581   0.743   2.616   1.047  0.7388  1.1828 -0.7266
  232MOL0     H30582   0.674   2.364   1.039  1.8722  0.3828  3.1187
  232MOL0     H30583   0.598   2.480   1.158  1.8239 -2.6651  0.6436
  232MOL0     H30584   0.431   2.338   1.050 -2.8700 -1.3901 -4.1291
  232MOL0     H30585   0.492   2.389   0.891 -0.5244  1.1823 -0.0878
  232MOL0     H30586   0.340   2.606   0.747 -0.2520  1.2303  1.8526
  232MOL0     H30587   0.137   2.544   0.609 -2.6703  2.0990  1.2973
  232MOL0     H30588  -0.170   2.004   0.714  2.7984  3.7331  3.2560
  232MOL0     H30589  -0.392   1.901   0.703  2.4345 -0.4896  1.2798
  232MOL0     H30590  -0.611   1.905   0.749  1.1708  1.6982 -0.3268
  232MOL0     H30591  -0.596   1.829   0.589  1.5365  0.7281  0.1884
  232MOL0     H30592  -0.855   1.901   0.555 -2.2215  3.0711  1.2401
  232MOL0     H30593  -0.847   1.932   0.730  2.8890  1.1600  0.4460
  232MOL0     H30594  -0.777   1.711   0.786 -0.1963 -1.8144 -0.3336
  232MOL0     H30595  -0.761   1.683   0.610 -0.2428  1.0243 -0.5658
  232MOL0     H30596  -1.015   1.716   0.588  0.4614 -0.3486 -0.3780
  232MOL0     H30597  -0.980   1.572   0.695 -0.5340  0.8189  3.7776
  232MOL0     H30598  -1.062   1.852   0.789 -0.6820 -0.0271 -2.2348
  232MOL0     H30599  -1.003   1.723   0.886 -1.9657  0.2032  0.7606
  232MOL0     H30600  -1.246   1.690   0.892 -2.8811 -1.5697 -0.9945
  232MOL0     H30601  -1.183   1.569   0.795 -1.4430 -1.1177  1.2092
  232MOL0     H30602  -1.237   1.736   0.590  0.5421 -1.5381  0.8181
  232MOL0     H30603  -1.364   1.637   0.661  0.4229  0.7534 -0.2103
  232MOL0     H30604  -1.314   1.917   0.746 -2.9404  2.9258 -1.3881
  232MOL0     H30605  -1.451   1.812   0.795  0.9545 -1.6059 -0.0413
  232MOL0     H30606  -0.560   2.284   0.568  1.4677  1.4160  0.5445
  232MOL0     H30607  -0.346   2.395   0.630  1.4983 -0.1146 -0.2997
  232MOL0     H30608  -0.003   2.318   0.939 -0.9662 -0.7011 -1.2953
  232MOL0     H30609   0.183   2.383   1.076 -0.4499  1.4069  0.6441
  232MOL0     H30610   2.094   2.771   1.258 -1.3479 -1.4844  0.8161
  232MOL0     H30611   2.309   2.889   1.238 -2.2540 -0.9236 -2.0783
  232MOL0     H30612   2.753   2.915   1.330  0.7838  1.2610 -0.0194
  232MOL0     H30613   2.993   2.978   1.280  0.6341  0.8711 -1.9483
  232MOL0     H30614   3.304   2.895   0.974  0.1119 -1.9439 -0.6296
  232MOL0     H30615   3.154   2.854   0.892 -0.7620 -2.4237 -0.7923
  232MOL0     H30616   3.158   2.642   1.034  0.9020 -0.4341  0.4861
  232MOL0     H30617   3.257   2.663   0.896 -0.5776 -1.5713  0.6374
  232MOL0     H30618   3.349   2.721   1.193  0.1776  0.4892 -0.9219
  232MOL0     H30619   3.460   2.704   1.054 -0.3242 -0.3812  1.0277
  232MOL0     H30620   3.275   2.496   1.187 -0.9885  1.9687 -1.0722
  232MOL0     H30621   3.372   2.462   1.034 -0.5481 -3.1004  1.8421
  232MOL0     H30622   3.670   2.391   1.312  2.1914  1.8777 -0.1098
  232MOL0     H30623   2.970   2.766   0.912 -0.7657  0.2995 -1.8546
  232MOL0     H30624   2.737   2.723   0.953 -3.4578 -0.3053  3.1240
  233MOL0     O30625   8.466  11.326   3.745 -0.2903  0.2244 -0.9624
  233MOL0     C30626   8.536  11.427   3.726  0.6032 -0.6072  0.5524
  233MOL0     O30627   8.491  11.539   3.666 -0.5178 -0.0131 -0.3314
  233MOL0     C30628   8.353  11.554   3.655 -0.0186  0.2034 -0.3671
  233MOL0     C30629   8.272  11.570   3.768 -0.8590  0.1513  0.1142
  233MOL0     C30630   8.134  11.580   3.753  0.6598  0.7523  0.2589
  233MOL0     C30631   8.077  11.586   3.627  0.2780 -0.5920 -0.1033
  233MOL0     O30632   7.939  11.607   3.616  0.1910  0.5479  0.2247
  233MOL0     C30633   7.867  11.483   3.632 -0.8339  0.0792 -0.2867
  233MOL0     C30634   7.715  11.509   3.623 -0.5980 -0.6666 -0.7208
  233MOL0     C30635   7.645  11.369   3.612  0.2670 -0.2893 -0.4006
  233MOL0     C30636   7.501  11.383   3.573 -0.8760 -0.0171 -0.0025
  233MOL0     C30637   7.415  11.451   3.677  0.5203  0.7981 -0.2049
  233MOL0     C30638   7.270  11.456   3.625 -0.1513  0.3468  0.0984
  233MOL0     C30639   7.239  11.572   3.523  0.2007  0.9628 -0.4582
  233MOL0     C30640   7.230  11.712   3.586 -0.0387 -0.8733 -0.3571
  233MOL0     N30641   7.201  11.807   3.475 -0.0893  0.6506  1.0183
  233MOL0     C30642   7.304  11.859   3.404 -0.0710 -0.6593  0.3199
  233MOL0     C30643   7.250  11.950   3.327  0.8848  0.3260  0.1421
  233MOL0     C30644   7.322  12.052   3.243 -0.2676  0.1512  0.0249
  233MOL0     C30645   7.298  12.026   3.093 -0.1768 -0.2505  0.5836
  233MOL0     C30646   7.376  11.898   3.053 -0.5680  0.2065 -0.2292
  233MOL0     C30647   7.401  11.900   2.897 -0.1099 -0.5981 -0.2849
  233MOL0     O30648   7.456  12.023   2.837 -0.5910  0.2514  0.8977
  233MOL0     C30649   7.589  12.046   2.862 -0.1525  0.4417  0.1154
  233MOL0     C30650   7.628  12.178   2.844  0.6781 -0.7787  1.0168
  233MOL0     C30651   7.755  12.212   2.871 -0.3514 -0.3499 -0.3881
  233MOL0     C30652   7.852  12.122   2.918  0.8443  0.5027 -0.1058
  233MOL0     C30653   7.989  12.176   2.964 -0.2632  0.1349 -0.5400
  233MOL0     O30654   8.019  12.307   2.937 -1.0280  0.6319  0.2996
  233MOL0     C30655   8.145  12.346   2.977  0.4435  0.5356 -0.1413
  233MOL0     C30656   8.224  12.411   2.884  0.1432 -0.5145 -0.6455
  233MOL0     C30657   8.359  12.442   2.912 -0.1320 -1.1519 -0.1740
  233MOL0     C30658   8.414  12.436   3.040  0.3534  0.5803  0.4417
  233MOL0     O30659   8.533  12.477   3.079  0.1938 -0.2649  0.0511
  233MOL0     C30660   8.617  12.521   2.979 -0.0711  0.7886  0.0199
  233MOL0     C30661   8.769  12.529   3.037 -0.4721  0.3767 -0.8594
  233MOL0     C30662   8.828  12.386   3.035 -1.1818  0.0445  0.4525
  233MOL0     C30663   8.976  12.379   3.071  0.0461 -0.1611 -0.0979
  233MOL0     C30664   9.013  12.223   3.084  0.1717 -1.7862  0.0660
  233MOL0     C30665   9.156  12.208   3.133  0.2816 -0.0002  0.8138
  233MOL0     C30666   9.263  12.244   3.035 -1.0274  0.2678  0.2112
  233MOL0     C30667   9.406  12.221   3.092 -1.2497  0.1624  0.2459
  233MOL0    Cl30668   9.448  12.364   3.197 -0.2963  0.5650  0.1879
  233MOL0     C30669   8.333  12.377   3.138 -0.2396 -0.0302 -0.1685
  233MOL0     C30670   8.205  12.324   3.102 -0.2298 -0.4165  0.4833
  233MOL0     O30671   8.071  12.098   3.011  0.4940  0.3057  0.0282
  233MOL0     C30672   7.818  11.984   2.924 -0.1582  0.5448  0.4211
  233MOL0     C30673   7.680  11.948   2.907  0.2587 -0.1435 -0.7085
  233MOL0     N30674   7.113  11.945   3.336 -0.3411  0.4497 -0.2405
  233MOL0     N30675   7.084  11.859   3.427  0.0380  0.1563  0.0167
  233MOL0     C30676   8.161  11.573   3.514 -0.4579 -0.1795  0.1149
  233MOL0     C30677   8.300  11.561   3.530  0.0391  0.4329  0.4907
  233MOL0     C30678   8.679  11.428   3.751 -0.1542 -0.4585  0.3638
  233MOL0     C30679   8.758  11.541   3.697  0.2203 -0.6242  0.5593
  233MOL0     C30680   8.896  11.548   3.717  0.0437 -0.7146  0.3807
  233MOL0     C30681   8.955  11.451   3.801 -0.5633  0.1287  0.7130
  233MOL0     O30682   9.093  11.460   3.832  0.9406  0.2914 -0.0198
  233MOL0     C30683   9.128  11.578   3.908 -0.4913  0.2103  0.7096
  233MOL0     C30684   9.115  11.557   4.065 -0.3395 -0.7975 -0.0480
  233MOL0     C30685   9.252  11.512   4.130  1.2895 -0.4771  0.8627
  233MOL0     C30686   9.287  11.375   4.067 -0.0661 -0.8864 -0.3959
  233MOL0     C30687   9.412  11.386   3.980  1.0016 -0.2652  0.1601
  233MOL0     C30688   9.517  11.383   3.923  0.0898 -0.4337  1.3073
  233MOL0     C30689   8.882  11.343   3.844 -0.0727  0.6042  0.1929
  233MOL0     C30690   8.742  11.322   3.820 -0.5952  0.5820 -0.3871
  233MOL0     H30691   8.316  11.577   3.867 -3.1295 -0.6112  1.2284
  233MOL0     H30692   8.077  11.600   3.843  0.3437 -0.4708  0.3544
  233MOL0     H30693   7.882  11.441   3.732 -2.3674  1.1845  0.4397
  233MOL0     H30694   7.898  11.414   3.553  1.7264 -1.6761  2.0356
  233MOL0     H30695   7.694  11.577   3.539  1.1007  2.0380  0.9094
  233MOL0     H30696   7.685  11.559   3.716  0.3852 -1.2011 -0.1124
  233MOL0     H30697   7.651  11.304   3.700 -0.4416 -1.1205 -0.9511
  233MOL0     H30698   7.701  11.316   3.535 -1.8618 -0.8497 -1.6544
  233MOL0     H30699   7.487  11.423   3.473 -0.8827  0.4869  0.1950
  233MOL0     H30700   7.462  11.281   3.567  0.2630 -0.4707  0.0895
  233MOL0     H30701   7.451  11.551   3.704 -0.1324  0.8257  0.6193
  233MOL0     H30702   7.413  11.391   3.768 -0.7176  0.3770 -0.5005
  233MOL0     H30703   7.203  11.463   3.712 -3.4797 -2.3887 -2.0099
  233MOL0     H30704   7.239  11.364   3.574  1.4313 -0.0034 -0.2793
  233MOL0     H30705   7.310  11.549   3.443  0.3468 -0.5974  0.0708
  233MOL0     H30706   7.145  11.546   3.473  0.8278 -0.6803 -0.8528
  233MOL0     H30707   7.323  11.745   3.633  0.0921 -0.5332 -0.8471
  233MOL0     H30708   7.156  11.712   3.667  1.3878  1.3626  1.0444
  233MOL0     H30709   7.409  11.848   3.430  0.1924  3.2571  1.5446
  233MOL0     H30710   7.431  12.045   3.259 -0.0107  0.0935 -1.6018
  233MOL0     H30711   7.281  12.150   3.267  1.3766  0.3679  2.2048
  233MOL0     H30712   7.344  12.107   3.036  3.8355 -1.2537  2.0212
  233MOL0     H30713   7.191  12.012   3.076 -0.8018  0.2729  3.6192
  233MOL0     H30714   7.468  11.889   3.111  1.0626 -1.5347 -2.9068
  233MOL0     H30715   7.321  11.811   3.089  0.4725 -0.0171  0.8931
  233MOL0     H30716   7.299  11.888   2.859 -1.7318  1.0426  3.1372
  233MOL0     H30717   7.457  11.809   2.869 -1.9100 -1.7491 -0.2909
  233MOL0     H30718   7.554  12.253   2.820  0.0658 -1.3029  1.2555
  233MOL0     H30719   7.768  12.319   2.856  4.1098 -0.3541  1.6293
  233MOL0     H30720   8.169  12.427   2.792  0.0413 -3.2279 -1.1255
  233MOL0     H30721   8.417  12.475   2.826  0.0684 -0.2016  0.3160
  233MOL0     H30722   8.585  12.619   2.943 -2.1941 -0.4290 -1.6225
  233MOL0     H30723   8.626  12.449   2.898  1.7786  1.2652 -0.2490
  233MOL0     H30724   8.767  12.580   3.134 -2.5239  2.8936 -2.0977
  233MOL0     H30725   8.837  12.585   2.972 -0.7149 -0.3996 -1.8044
  233MOL0     H30726   8.815  12.346   2.934  0.5522  0.4419  0.0392
  233MOL0     H30727   8.780  12.315   3.103 -0.4002  0.5676  1.5717
  233MOL0     H30728   9.040  12.429   2.998  0.4790  1.0124  1.0389
  233MOL0     H30729   9.005  12.436   3.160  1.0382 -1.8445  0.7136
  233MOL0     H30730   8.990  12.172   2.990 -0.0224  0.9188 -1.4621
  233MOL0     H30731   8.949  12.187   3.165 -0.3565  1.3981  1.2254
  233MOL0     H30732   9.173  12.105   3.164  2.3532  0.2466  0.6485
  233MOL0     H30733   9.171  12.274   3.218  2.8245  1.2198 -0.4360
  233MOL0     H30734   9.251  12.172   2.953 -1.1007 -0.6355  0.9952
  233MOL0     H30735   9.257  12.350   3.008  3.1545  0.7322  0.4853
  233MOL0     H30736   9.478  12.214   3.010  1.8229  1.3692  2.6755
  233MOL0     H30737   9.406  12.122   3.137  2.1300 -0.1516 -0.2198
  233MOL0     H30738   8.375  12.360   3.237  0.3695  2.3348  0.0311
  233MOL0     H30739   8.160  12.262   3.179  2.0645 -2.1288  0.5443
  233MOL0     H30740   7.896  11.909   2.931  2.0107  2.6224 -0.0051
  233MOL0     H30741   7.660  11.844   2.929  2.5778 -0.1733  1.8011
  233MOL0     H30742   8.112  11.588   3.418 -2.2762 -0.4117  0.9503
  233MOL0     H30743   8.354  11.557   3.436 -2.7731  0.8972 -1.2755
  233MOL0     H30744   8.719  11.629   3.646  2.2104 -0.0653 -0.0952
  233MOL0     H30745   8.949  11.624   3.661 -1.3662 -0.0324 -0.0935
  233MOL0     H30746   9.057  11.657   3.882 -0.4428  0.7985  2.2425
  233MOL0     H30747   9.234  11.592   3.888 -0.5880  1.0230  0.7451
  233MOL0     H30748   9.072  11.650   4.103 -1.1118 -0.4271 -1.7298
  233MOL0     H30749   9.046  11.476   4.088 -2.1229  0.0068 -2.1434
  233MOL0     H30750   9.236  11.499   4.237  0.7004 -0.5438  0.7713
  233MOL0     H30751   9.331  11.588   4.126  1.1714 -0.3889  0.0190
  233MOL0     H30752   9.301  11.308   4.152 -1.0035  1.0555  1.3744
  233MOL0     H30753   9.207  11.343   4.000 -3.1380 -0.7121  2.8697
  233MOL0     H30754   9.607  11.386   3.865 -2.7197 -1.0149 -3.5705
  233MOL0     H30755   8.928  11.270   3.909  0.3405  2.0266  1.5396
  233MOL0     H30756   8.694  11.231   3.853 -0.1039  0.1356 -0.8803
  234MOL0     O30757   3.683  10.216   7.615  0.1532 -0.2583  0.4224
  234MOL0     C30758   3.742  10.267   7.710 -0.0809 -0.0675  0.5247
  234MOL0     O30759   3.688  10.357   7.804  0.2110  0.1152  0.8526
  234MOL0     C30760   3.570  10.435   7.789  0.1427  1.0894  0.1653
  234MOL0     C30761   3.442  10.373   7.773  0.1112 -0.3162  0.3877
  234MOL0     C30762   3.327  10.448   7.756  0.5268  0.0642 -0.0301
  234MOL0     C30763   3.324  10.588   7.750 -0.5801  1.2208 -0.6842
  234MOL0     O30764   3.209  10.652   7.707  0.5648 -0.6370  0.2593
  234MOL0     C30765   3.081  10.587   7.663  0.9828 -0.1911  0.2428
  234MOL0     C30766   2.998  10.543   7.781  0.4464 -0.2909  0.4929
  234MOL0     C30767   2.924  10.408   7.759  0.4757 -0.8949  0.5232
  234MOL0     C30768   2.810  10.417   7.661 -0.5024  0.1937 -0.1997
  234MOL0     C30769   2.738  10.283   7.645  0.3788  0.7858  0.2344
  234MOL0     C30770   2.634  10.273   7.761  0.3078 -0.1008 -0.4027
  234MOL0     C30771   2.558  10.141   7.736 -0.3258  0.3040  0.2673
  234MOL0     C30772   2.449  10.111   7.832 -0.6356 -0.0555  0.2639
  234MOL0     N30773   2.482  10.108   7.975 -0.9443  0.2341 -0.2561
  234MOL0     C30774   2.564  10.028   8.043  0.9002  0.8892 -0.4386
  234MOL0     C30775   2.563  10.070   8.169 -0.7006 -1.3686  0.2710
  234MOL0     C30776   2.646  10.026   8.288  0.2752 -0.2844 -0.8010
  234MOL0     C30777   2.799  10.058   8.278  0.7484  0.5892 -0.1266
  234MOL0     C30778   2.890   9.949   8.336 -0.0424  0.7124 -1.0256
  234MOL0     C30779   3.039   9.987   8.336  1.2961 -0.5580  0.1398
  234MOL0     O30780   3.115   9.875   8.368 -0.0812 -0.1583  0.7758
  234MOL0     C30781   3.254   9.896   8.382  0.1792  0.2679 -0.1445
  234MOL0     C30782   3.330   9.792   8.348 -1.6384  0.9017 -0.2214
  234MOL0     C30783   3.462   9.802   8.375 -0.3478  0.3624 -0.0479
  234MOL0     C30784   3.531   9.915   8.421  0.6406 -0.5657 -0.6658
  234MOL0     C30785   3.676   9.910   8.434  0.4880 -0.8526 -0.4996
  234MOL0     O30786   3.725   9.940   8.557  0.0719 -0.3711  0.0416
  234MOL0     C30787   3.857   9.963   8.571  0.6830  0.9037  0.1371
  234MOL0     C30788   3.907  10.084   8.529 -0.2320  0.4737  0.1419
  234MOL0     C30789   4.044  10.115   8.561 -0.2473  0.6108  0.4442
  234MOL0     C30790   4.130  10.026   8.614  0.2172  0.0825  0.2964
  234MOL0     O30791   4.258  10.076   8.624 -0.5452  0.1561  0.1068
  234MOL0     C30792   4.346   9.995   8.703  0.6652 -0.1705 -0.0564
  234MOL0     C30793   4.474  10.070   8.721  0.2548  0.0937  0.1753
  234MOL0     C30794   4.571   9.991   8.796 -1.1290  0.5212 -0.6642
  234MOL0     C30795   4.696  10.077   8.837  0.9191 -0.5966 -0.2781
  234MOL0     C30796   4.797   9.991   8.920 -0.5282 -0.1981 -0.3674
  234MOL0     C30797   4.920  10.067   8.967 -0.2080 -0.2071  0.3144
  234MOL0     C30798   4.999   9.993   9.080 -0.2941 -0.2699 -0.1892
  234MOL0     C30799   5.032   9.842   9.074  0.4015  0.5223  0.1728
  234MOL0    Cl30800   5.134   9.786   9.216 -0.0104  0.6571 -0.1146
  234MOL0     C30801   4.078   9.899   8.656 -0.4306 -0.5236  0.4126
  234MOL0     C30802   3.942   9.866   8.636 -0.1899 -0.3876  0.7503
  234MOL0     O30803   3.744   9.865   8.342  0.4374  0.4273 -1.1294
  234MOL0     C30804   3.454  10.021   8.458  0.6025  0.5678  1.1429
  234MOL0     C30805   3.313  10.010   8.438  0.3448 -0.6272  0.2838
  234MOL0     N30806   2.456  10.156   8.192  0.6029  0.5814  0.4365
  234MOL0     N30807   2.415  10.179   8.071  0.4204  0.7383  0.0453
  234MOL0     C30808   3.451  10.653   7.768  0.3417 -0.4056  0.7796
  234MOL0     C30809   3.569  10.572   7.792  0.2230 -0.9697  0.0866
  234MOL0     C30810   3.888  10.238   7.726 -0.0509  0.5648 -0.2881
  234MOL0     C30811   3.943  10.231   7.857  0.0403 -0.7684  0.0631
  234MOL0     C30812   4.074  10.186   7.884 -0.2048  0.2638  0.7171
  234MOL0     C30813   4.157  10.159   7.775  0.4964  0.3924 -0.0998
  234MOL0     O30814   4.288  10.114   7.784 -0.1805  0.7175 -0.3959
  234MOL0     C30815   4.337  10.047   7.910  0.5785  0.4878 -0.0666
  234MOL0     C30816   4.431  10.152   7.962  0.1779 -0.2579 -0.1466
  234MOL0     C30817   4.490  10.100   8.100 -0.2086 -0.3503  0.1805
  234MOL0     C30818   4.545  10.220   8.177  0.0605  0.2292  0.7349
  234MOL0     C30819   4.687  10.217   8.212  0.2710 -0.1739  0.0469
  234MOL0     C30820   4.803  10.213   8.241 -0.0329 -0.6568 -0.5725
  234MOL0     C30821   4.107  10.163   7.646 -0.0486 -0.0678  0.1478
  234MOL0     C30822   3.973  10.204   7.617  0.1556 -0.2169  0.8582
  234MOL0     H30823   3.428  10.266   7.766 -2.2482 -0.1430  1.4510
  234MOL0     H30824   3.226  10.408   7.753 -0.1015  1.6069 -0.3864
  234MOL0     H30825   3.100  10.501   7.598 -0.7256  1.9494 -3.4470
  234MOL0     H30826   3.017  10.647   7.598  0.3478 -2.4368 -1.3094
  234MOL0     H30827   2.935  10.629   7.808  1.8781  0.3075  2.1485
  234MOL0     H30828   3.059  10.538   7.872 -0.0897 -2.5163  0.7872
  234MOL0     H30829   2.874  10.385   7.854 -4.2900  1.7080 -1.0438
  234MOL0     H30830   2.983  10.320   7.730 -2.5794 -2.4666 -1.3971
  234MOL0     H30831   2.750  10.504   7.690 -2.9166 -1.1155 -1.0594
  234MOL0     H30832   2.857  10.438   7.565 -1.6100 -0.3092 -0.8594
  234MOL0     H30833   2.809  10.201   7.661 -1.7294 -0.7870  2.1154
  234MOL0     H30834   2.693  10.276   7.546  0.8933  0.3792  0.0263
  234MOL0     H30835   2.557  10.348   7.777 -2.5368 -2.5508 -1.6482
  234MOL0     H30836   2.690  10.255   7.853  1.1701 -1.7100 -1.1856
  234MOL0     H30837   2.539  10.144   7.628  0.7645 -2.4702 -0.0815
  234MOL0     H30838   2.632  10.063   7.758  1.2497  1.7185  0.2083
  234MOL0     H30839   2.414  10.015   7.791  0.0171  0.5760 -1.9149
  234MOL0     H30840   2.369  10.183   7.811  0.8044  1.2400 -0.9851
  234MOL0     H30841   2.650   9.975   8.003  0.0200  0.6362 -2.0724
  234MOL0     H30842   2.641   9.917   8.296 -1.2444 -0.2320 -0.8012
  234MOL0     H30843   2.605  10.070   8.379  0.7231 -1.2045 -0.1344
  234MOL0     H30844   2.812  10.149   8.339 -0.4994  0.3110  0.5938
  234MOL0     H30845   2.817  10.075   8.172 -1.2579 -0.6791 -0.7133
  234MOL0     H30846   2.854   9.949   8.439 -0.5864  2.5377 -1.1822
  234MOL0     H30847   2.870   9.858   8.277  1.5575  0.1414 -0.7252
  234MOL0     H30848   3.059  10.074   8.398  0.6438  1.9631 -2.9458
  234MOL0     H30849   3.059  10.013   8.231  0.0616  0.1062  0.0572
  234MOL0     H30850   3.290   9.698   8.311  0.2236 -0.2915  0.6284
  234MOL0     H30851   3.521   9.712   8.359  0.0854  0.7423 -0.5965
  234MOL0     H30852   3.835  10.150   8.481 -1.7898 -1.5666 -0.5072
  234MOL0     H30853   4.091  10.211   8.538  0.6897 -0.1646 -1.0257
  234MOL0     H30854   4.369   9.897   8.660  0.6901  0.6505 -2.0389
  234MOL0     H30855   4.294   9.981   8.798 -1.3191  3.8524 -0.3125
  234MOL0     H30856   4.457  10.169   8.766  2.9905  0.1932  1.2017
  234MOL0     H30857   4.516  10.093   8.623 -2.9793  1.8152 -0.9304
  234MOL0     H30858   4.608   9.907   8.737 -1.6204 -0.1633 -0.0225
  234MOL0     H30859   4.520   9.952   8.884  0.6846  1.1458  0.7279
  234MOL0     H30860   4.753  10.108   8.749 -1.6407 -0.6318 -2.0721
  234MOL0     H30861   4.658  10.164   8.891 -1.2055 -1.2955 -0.5557
  234MOL0     H30862   4.833   9.908   8.859 -0.7802  1.0098 -2.2442
  234MOL0     H30863   4.747   9.950   9.009  0.0779  1.7727  0.9611
  234MOL0     H30864   4.884  10.167   8.995 -0.0388 -0.5737  1.9299
  234MOL0     H30865   4.988  10.062   8.882  0.6044 -2.1809  1.0323
  234MOL0     H30866   5.093  10.049   9.081  0.7033 -1.8203 -1.3583
  234MOL0     H30867   4.950  10.007   9.177  1.6633 -2.0242  1.1340
  234MOL0     H30868   5.100   9.826   8.990 -1.3370 -2.0417 -0.8842
  234MOL0     H30869   4.938   9.790   9.056  1.6691 -1.1710 -1.8599
  234MOL0     H30870   4.142   9.834   8.714  0.9785  1.1366  0.8016
  234MOL0     H30871   3.896   9.770   8.658  0.9321 -0.9166  0.8265
  234MOL0     H30872   3.502  10.112   8.493 -0.5845  2.6552 -2.2618
  234MOL0     H30873   3.259  10.094   8.480  1.2855 -0.1822  0.6343
  234MOL0     H30874   3.450  10.761   7.766 -0.4057 -0.3953 -2.4647
  234MOL0     H30875   3.668  10.615   7.797  0.9068 -1.4226 -4.8747
  234MOL0     H30876   3.893  10.275   7.943  0.6608 -0.3509  0.2192
  234MOL0     H30877   4.105  10.175   7.988 -1.4501  1.5173  1.2505
  234MOL0     H30878   4.398   9.960   7.884  1.4008  2.1080 -4.4461
  234MOL0     H30879   4.251  10.026   7.974  1.7887 -0.2513  1.3673
  234MOL0     H30880   4.509  10.170   7.887 -1.7106 -1.1793 -2.4658
  234MOL0     H30881   4.371  10.241   7.981  2.0171  1.1907 -0.7606
  234MOL0     H30882   4.572  10.034   8.071 -1.0513 -1.0099 -0.7592
  234MOL0     H30883   4.428  10.043   8.169  3.0267 -0.6109  3.1556
  234MOL0     H30884   4.522  10.314   8.126 -1.9854 -0.1136  0.9288
  234MOL0     H30885   4.480  10.223   8.265  1.8261 -3.3887  2.3706
  234MOL0     H30886   4.909  10.205   8.255  0.6593  0.5052 -4.2029
  234MOL0     H30887   4.186  10.131   7.578  1.1437 -2.1811  2.3464
  234MOL0     H30888   3.941  10.218   7.514  2.2485  5.3617  0.6351
  235MOL0     O30889   7.259   4.050   8.905  0.2006 -0.4705  0.6911
  235MOL0     C30890   7.298   3.939   8.856 -0.6131  0.1126  0.2780
  235MOL0     O30891   7.223   3.821   8.849  0.3642  0.9823  0.6476
  235MOL0     C30892   7.094   3.828   8.908 -0.6342 -0.1598 -0.2255
  235MOL0     C30893   7.049   3.735   9.004 -0.1624  0.5128  0.5878
  235MOL0     C30894   6.911   3.732   9.025 -0.2007  0.2212 -0.8462
  235MOL0     C30895   6.826   3.824   8.975  0.8959 -0.2327 -0.2815
  235MOL0     O30896   6.691   3.817   9.006 -0.4866 -0.8057  0.8160
  235MOL0     C30897   6.636   3.683   8.988  0.1460  0.8065 -0.4746
  235MOL0     C30898   6.492   3.712   8.954 -0.3300 -0.2591 -0.6729
  235MOL0     C30899   6.415   3.584   8.935  0.2455 -0.0458  0.2801
  235MOL0     C30900   6.267   3.622   8.897 -0.7296  0.1091  1.2599
  235MOL0     C30901   6.175   3.499   8.912  0.0882 -0.5067 -0.1648
  235MOL0     C30902   6.032   3.534   8.842 -1.3998 -0.0008  0.0260
  235MOL0     C30903   5.932   3.419   8.826 -0.7149  0.0121  0.3375
  235MOL0     C30904   5.802   3.497   8.764 -0.9935 -0.7116 -0.5765
  235MOL0     N30905   5.693   3.405   8.735 -0.4290  0.5854  0.9647
  235MOL0     C30906   5.706   3.271   8.756  0.6007 -0.3162  0.1628
  235MOL0     C30907   5.605   3.220   8.693  0.2256  0.6027 -0.1925
  235MOL0     C30908   5.572   3.075   8.685 -0.4324 -0.4254  0.2225
  235MOL0     C30909   5.429   3.057   8.732 -0.1606 -0.4525  0.1138
  235MOL0     C30910   5.420   3.063   8.885  0.1305 -0.0340 -1.1865
  235MOL0     C30911   5.276   3.046   8.929 -0.3524 -0.1476 -0.0221
  235MOL0     O30912   5.218   3.176   8.903 -0.1307  1.2870 -0.0381
  235MOL0     C30913   5.093   3.202   8.959  0.4522  0.2227  0.4462
  235MOL0     C30914   5.006   3.101   9.002 -0.2827  0.5914  0.2037
  235MOL0     C30915   4.891   3.137   9.062  0.9534 -0.3719 -0.3886
  235MOL0     C30916   4.849   3.272   9.072  0.0814 -1.0186 -0.2732
  235MOL0     C30917   4.718   3.306   9.133  0.4655  0.0234  0.0056
  235MOL0     O30918   4.643   3.407   9.086  0.1079  0.7161  0.4299
  235MOL0     C30919   4.502   3.410   9.101  0.0699 -1.0184 -0.1177
  235MOL0     C30920   4.423   3.307   9.141  0.5905  0.9693  0.3267
  235MOL0     C30921   4.283   3.324   9.144  0.4756  0.6632 -0.0979
  235MOL0     C30922   4.221   3.435   9.120 -0.3012 -0.7314  0.0165
  235MOL0     O30923   4.086   3.442   9.131  0.5370 -1.0013  0.4073
  235MOL0     C30924   4.019   3.559   9.078  0.2389  0.5742  0.1763
  235MOL0     C30925   3.871   3.556   9.078  0.6856  0.2333 -1.1788
  235MOL0     C30926   3.791   3.452   9.007 -0.3675  0.6465  0.5697
  235MOL0     C30927   3.812   3.299   9.037  0.5120 -0.7206 -0.3781
  235MOL0     C30928   3.779   3.269   9.184  0.0929 -0.0551  0.6657
  235MOL0     C30929   3.631   3.271   9.230  0.3256  0.0662 -0.3934
  235MOL0     C30930   3.604   3.249   9.374 -0.3010 -0.4214 -0.7476
  235MOL0     C30931   3.615   3.101   9.404 -0.0316 -0.3555  0.8008
  235MOL0    Cl30932   3.631   3.050   9.581  0.4366 -0.0949 -0.2545
  235MOL0     C30933   4.306   3.544   9.070  1.0832 -0.5952 -0.4079
  235MOL0     C30934   4.441   3.525   9.050  0.0192  0.9088 -0.1777
  235MOL0     O30935   4.694   3.230   9.222 -0.1700 -0.5606 -0.5061
  235MOL0     C30936   4.929   3.374   9.028  0.1713  1.1731 -0.7293
  235MOL0     C30937   5.058   3.342   8.960  0.9825  0.1105  0.4306
  235MOL0     N30938   5.528   3.318   8.625 -0.1708 -0.1522 -0.4714
  235MOL0     N30939   5.585   3.431   8.651 -0.2403 -0.9456  0.1696
  235MOL0     C30940   6.873   3.925   8.893  0.6454  1.0446 -0.4873
  235MOL0     C30941   7.009   3.920   8.852 -0.1529 -0.2002 -0.5258
  235MOL0     C30942   7.428   3.937   8.791 -0.8457 -0.3890  0.3910
  235MOL0     C30943   7.483   3.824   8.753 -0.1458  0.2734  0.8187
  235MOL0     C30944   7.616   3.819   8.713  0.9485 -0.0190 -0.0476
  235MOL0     C30945   7.691   3.936   8.691  0.4432  0.0056  0.7299
  235MOL0     O30946   7.824   3.927   8.655  0.0069  0.1477  0.1727
  235MOL0     C30947   7.857   4.024   8.552 -0.9271  0.7328  0.6214
  235MOL0     C30948   8.001   4.006   8.496 -0.3167  0.1457  1.1718
  235MOL0     C30949   8.105   4.017   8.604  0.0587 -1.1555  0.5704
  235MOL0     C30950   8.240   4.032   8.541 -0.1900 -0.1970  0.2383
  235MOL0     C30951   8.339   4.049   8.644  0.8431  0.4127  0.4468
  235MOL0     C30952   8.409   4.065   8.741  0.2489  0.3011 -0.2020
  235MOL0     C30953   7.625   4.061   8.718  0.0117 -0.1394 -0.5408
  235MOL0     C30954   7.500   4.057   8.771  0.4446 -0.3270  0.1073
  235MOL0     H30955   7.113   3.656   9.042  3.2442  2.2235 -1.0812
  235MOL0     H30956   6.867   3.676   9.107  0.5913  0.0499 -0.5271
  235MOL0     H30957   6.672   3.622   9.071  0.0239 -1.5170 -2.0338
  235MOL0     H30958   6.683   3.632   8.902 -1.8815  0.2426 -1.3011
  235MOL0     H30959   6.486   3.779   8.867  0.4477 -1.6267 -1.8274
  235MOL0     H30960   6.462   3.772   9.040  0.3652 -0.3357 -0.3670
  235MOL0     H30961   6.410   3.524   9.026 -1.6303  0.7357  0.7499
  235MOL0     H30962   6.463   3.522   8.859 -0.2957 -1.1446  0.8144
  235MOL0     H30963   6.221   3.703   8.955 -1.7431  2.5375 -2.6004
  235MOL0     H30964   6.276   3.662   8.796  2.5650 -0.5554  1.2035
  235MOL0     H30965   6.162   3.488   9.020 -0.9336  1.0048 -0.1165
  235MOL0     H30966   6.230   3.423   8.855  2.6245  2.4306 -1.9532
  235MOL0     H30967   6.040   3.575   8.741 -1.6110 -0.0272 -0.0023
  235MOL0     H30968   5.985   3.604   8.912 -0.9116  2.5868 -2.0751
  235MOL0     H30969   5.972   3.350   8.751  3.0308  1.9113  0.3088
  235MOL0     H30970   5.918   3.359   8.917  1.4678 -1.4265 -0.1856
  235MOL0     H30971   5.837   3.547   8.673 -1.0138 -1.7203 -1.1582
  235MOL0     H30972   5.771   3.570   8.839 -0.0529 -0.9242  0.0323
  235MOL0     H30973   5.786   3.214   8.804  0.3262 -0.2240  0.7387
  235MOL0     H30974   5.643   3.015   8.744 -1.4914 -0.7189  1.2453
  235MOL0     H30975   5.577   3.043   8.581  4.0852  0.9861 -0.1939
  235MOL0     H30976   5.401   2.962   8.687  0.4991  0.5450 -2.5753
  235MOL0     H30977   5.365   3.136   8.691  2.8205  2.3762  0.5067
  235MOL0     H30978   5.480   2.978   8.919  0.6000 -0.0916 -2.1215
  235MOL0     H30979   5.446   3.159   8.932 -3.3208  0.3353  0.2669
  235MOL0     H30980   5.264   3.033   9.037 -0.9841  2.2411  0.2541
  235MOL0     H30981   5.216   2.965   8.885 -1.1914 -0.3660  1.4679
  235MOL0     H30982   5.032   2.997   9.018  1.1224  1.4362  5.0361
  235MOL0     H30983   4.823   3.061   9.100 -1.5908  2.2466  0.7729
  235MOL0     H30984   4.454   3.209   9.178 -2.1948  0.0767  0.5295
  235MOL0     H30985   4.224   3.241   9.182 -0.0891  1.0246 -0.1766
  235MOL0     H30986   4.039   3.593   8.976 -0.3505  0.0844 -0.1101
  235MOL0     H30987   4.037   3.648   9.139 -2.4019  0.1467  1.7394
  235MOL0     H30988   3.831   3.651   9.043 -0.9468  1.3323  3.0059
  235MOL0     H30989   3.843   3.551   9.184  0.7230 -0.6006 -1.2024
  235MOL0     H30990   3.810   3.472   8.902 -0.2039  2.4896  0.9277
  235MOL0     H30991   3.683   3.471   9.017 -0.5594 -0.6059  1.1337
  235MOL0     H30992   3.752   3.245   8.963  0.2957 -2.7949  1.2193
  235MOL0     H30993   3.917   3.273   9.019  1.0263 -0.0853  1.4512
  235MOL0     H30994   3.837   3.333   9.251  0.3839  0.7180 -0.2927
  235MOL0     H30995   3.809   3.165   9.197 -2.2655 -1.3160 -2.7088
  235MOL0     H30996   3.580   3.188   9.182 -4.4355  2.8065 -0.7172
  235MOL0     H30997   3.597   3.369   9.194  2.9602  1.1003 -0.3420
  235MOL0     H30998   3.672   3.305   9.440  0.2076 -1.3313 -0.4811
  235MOL0     H30999   3.504   3.285   9.397  0.1979 -0.9932  3.0409
  235MOL0     H31000   3.717   3.079   9.371  0.0647  0.6427  0.4014
  235MOL0     H31001   3.538   3.033   9.367  0.5362 -1.7546  2.0927
  235MOL0     H31002   4.267   3.643   9.052  0.6495 -0.7236 -0.1837
  235MOL0     H31003   4.493   3.613   9.015 -3.6297  2.5938 -1.9153
  235MOL0     H31004   4.890   3.474   9.041 -3.8533 -0.5098  2.5892
  235MOL0     H31005   5.122   3.419   8.919 -0.5681  1.9917  1.4260
  235MOL0     H31006   6.800   3.990   8.847 -2.4254 -2.1914 -0.5915
  235MOL0     H31007   7.044   3.995   8.781 -1.4262  0.2752 -0.6821
  235MOL0     H31008   7.424   3.733   8.761 -1.7584  1.0070 -1.6086
  235MOL0     H31009   7.650   3.716   8.711 -2.4745 -1.3915  2.7087
  235MOL0     H31010   7.862   4.125   8.594  2.2370  0.8366  0.1758
  235MOL0     H31011   7.777   4.008   8.479  0.1999 -2.3578 -0.0911
  235MOL0     H31012   8.020   3.913   8.443  2.8908  1.5032 -0.3503
  235MOL0     H31013   8.017   4.087   8.424  0.4668 -1.5802 -0.7033
  235MOL0     H31014   8.106   3.921   8.657 -0.5040 -0.4358  1.9540
  235MOL0     H31015   8.094   4.107   8.665  0.7184  0.2906 -1.3533
  235MOL0     H31016   8.270   3.942   8.487 -0.6359  0.6087 -1.4451
  235MOL0     H31017   8.246   4.110   8.464 -0.9385  1.0595  1.4142
  235MOL0     H31018   8.476   4.071   8.825  0.0992  2.9780 -0.1913
  235MOL0     H31019   7.683   4.152   8.710  1.7955 -1.3580 -2.4664
  235MOL0     H31020   7.455   4.144   8.817  1.5570  0.7940 -0.8546
  236MOL0     O31021  10.064   7.859   2.235 -0.2761  0.3381  0.4067
  236MOL0     C31022  10.116   7.802   2.135 -0.1575 -0.4193 -0.1940
  236MOL0     O31023  10.068   7.688   2.077 -0.3206  0.5454  0.3773
  236MOL0     C31024   9.957   7.624   2.126 -0.1987  0.1685  0.3516
  236MOL0     C31025   9.843   7.696   2.132 -0.1095 -0.8633 -0.3543
  236MOL0     C31026   9.724   7.631   2.174 -1.2986  0.0505 -0.8153
  236MOL0     C31027   9.724   7.492   2.208  1.0536 -0.0288  0.6476
  236MOL0     O31028   9.617   7.419   2.249 -0.3388  0.2402  0.3866
  236MOL0     C31029   9.505   7.492   2.304 -0.9019 -0.7120 -0.9067
  236MOL0     C31030   9.381   7.410   2.342 -0.0460 -0.4757  0.0515
  236MOL0     C31031   9.271   7.489   2.407  0.6213  0.3338 -0.0284
  236MOL0     C31032   9.140   7.420   2.402  0.0581  1.2383  0.1963
  236MOL0     C31033   9.024   7.478   2.478 -0.4712  0.6846 -0.0835
  236MOL0     C31034   8.895   7.393   2.478 -0.9181 -0.4423  0.1487
  236MOL0     C31035   8.851   7.358   2.338  0.9463  0.1229 -0.8709
  236MOL0     C31036   8.693   7.346   2.338  0.5223  0.5564  0.4711
  236MOL0     N31037   8.634   7.253   2.234 -0.5604 -0.0572 -0.4349
  236MOL0     C31038   8.675   7.122   2.224  0.1465  0.4980  0.9819
  236MOL0     C31039   8.607   7.081   2.110 -0.4430  0.0062 -0.8228
  236MOL0     C31040   8.618   6.940   2.048 -0.1137 -1.0611 -0.4043
  236MOL0     C31041   8.707   6.948   1.930 -1.6528 -0.0347 -0.4001
  236MOL0     C31042   8.758   6.822   1.865 -0.6102  0.2927 -0.7767
  236MOL0     C31043   8.888   6.782   1.931 -0.1845 -0.4043  0.4386
  236MOL0     O31044   8.953   6.702   1.831 -0.3357 -0.4394  0.8828
  236MOL0     C31045   9.077   6.643   1.854 -0.0075 -0.6776 -0.8052
  236MOL0     C31046   9.116   6.551   1.759 -0.8249  0.0788 -0.7392
  236MOL0     C31047   9.233   6.473   1.767 -0.1921  0.3606  0.2349
  236MOL0     C31048   9.322   6.499   1.874  0.6107 -0.3608 -0.4631
  236MOL0     C31049   9.460   6.434   1.884  0.5318  0.0526  0.1643
  236MOL0     O31050   9.516   6.453   2.000 -0.0370  0.3165  0.3146
  236MOL0     C31051   9.626   6.378   2.018 -0.3926  0.8405  0.6183
  236MOL0     C31052   9.747   6.441   2.052  0.2460 -0.1196  0.7165
  236MOL0     C31053   9.861   6.369   2.070  0.7638  0.0703  0.3821
  236MOL0     C31054   9.852   6.228   2.082  0.4912 -0.3298 -0.4448
  236MOL0     O31055   9.967   6.154   2.103 -0.1659 -0.4925  0.3460
  236MOL0     C31056   9.991   6.028   2.049  0.7914 -0.1049 -0.5840
  236MOL0     C31057   9.993   6.025   1.904 -0.4317  0.2232  0.2666
  236MOL0     C31058  10.123   5.958   1.857 -0.1732  1.1977  0.6473
  236MOL0     C31059  10.249   6.052   1.865 -0.1901 -0.5356 -0.0159
  236MOL0     C31060  10.341   6.045   1.747 -0.3120 -0.0895  0.4509
  236MOL0     C31061  10.408   5.906   1.741  0.0958 -0.1301 -0.9626
  236MOL0     C31062  10.561   5.907   1.712 -0.6492 -0.6001  0.3945
  236MOL0     C31063  10.625   5.775   1.738 -1.0691 -0.2424  0.0231
  236MOL0    Cl31064  10.799   5.802   1.695 -0.2929 -0.1832 -0.2320
  236MOL0     C31065   9.738   6.163   2.039 -0.6906 -0.0170  0.0521
  236MOL0     C31066   9.619   6.230   2.017  0.8736  0.1195 -0.3617
  236MOL0     O31067   9.515   6.393   1.786  0.1976 -0.0557  1.1658
  236MOL0     C31068   9.280   6.585   1.980 -0.1523  0.0811  0.4329
  236MOL0     C31069   9.157   6.652   1.969  0.4546  0.2638  0.3427
  236MOL0     N31070   8.525   7.182   2.059 -0.4805  0.8084 -0.2138
  236MOL0     N31071   8.549   7.281   2.133  0.2810 -1.2179  0.6323
  236MOL0     C31072   9.837   7.422   2.184  0.1379  0.7626 -0.0578
  236MOL0     C31073   9.958   7.488   2.163 -0.1042  0.2084  0.0186
  236MOL0     C31074  10.232   7.869   2.075 -0.4131 -0.0431  0.4557
  236MOL0     C31075  10.265   8.001   2.086  0.0517  0.5135 -0.0356
  236MOL0     C31076  10.389   8.045   2.025  0.7169 -1.0265  0.0574
  236MOL0     C31077  10.484   7.958   1.960 -0.5818 -0.4819 -0.4055
  236MOL0     O31078  10.595   8.011   1.906  0.0626 -0.2647 -0.2878
  236MOL0     C31079  10.716   7.958   1.960 -0.2521 -0.4700  0.6685
  236MOL0     C31080  10.780   8.043   2.074  0.6003 -0.6662  0.6127
  236MOL0     C31081  10.891   8.143   2.025 -0.0124 -0.2360  0.7195
  236MOL0     C31082  10.862   8.294   2.061 -0.1830  0.6841 -0.4044
  236MOL0     C31083  10.935   8.384   1.973 -0.3441 -0.8313 -0.4068
  236MOL0     C31084  10.991   8.466   1.903 -0.1887 -0.6884  0.1729
  236MOL0     C31085  10.437   7.827   1.942 -0.4570 -0.3527  1.0541
  236MOL0     C31086  10.320   7.782   2.005  0.1444 -0.1818 -0.6243
  236MOL0     H31087   9.834   7.804   2.124 -1.5749 -1.0669 -2.0161
  236MOL0     H31088   9.637   7.694   2.192 -0.5864  0.1289  3.2469
  236MOL0     H31089   9.470   7.569   2.234  1.0368  0.1528 -1.0148
  236MOL0     H31090   9.562   7.539   2.385  2.2569 -2.2503 -2.0615
  236MOL0     H31091   9.417   7.330   2.408 -0.6611 -0.5856  0.2603
  236MOL0     H31092   9.344   7.361   2.252  0.7032 -0.8965 -0.0377
  236MOL0     H31093   9.250   7.584   2.356 -0.1081  0.0239 -0.3222
  236MOL0     H31094   9.292   7.500   2.513 -3.8949  2.3689  0.8636
  236MOL0     H31095   9.099   7.403   2.302  0.3309 -1.8452  0.5261
  236MOL0     H31096   9.164   7.317   2.427 -0.6190  0.7970 -0.9187
  236MOL0     H31097   9.008   7.576   2.434  0.0748  1.5201  1.5051
  236MOL0     H31098   9.046   7.499   2.583 -0.0886  0.1879 -0.0565
  236MOL0     H31099   8.820   7.456   2.528  1.2594  1.4050  1.3144
  236MOL0     H31100   8.897   7.292   2.519  0.2006 -0.2849  0.5285
  236MOL0     H31101   8.875   7.434   2.264 -0.0783  3.3134  1.8063
  236MOL0     H31102   8.899   7.264   2.307 -1.7463 -1.8745  0.5436
  236MOL0     H31103   8.658   7.448   2.318  3.7471  2.5741  3.8247
  236MOL0     H31104   8.654   7.332   2.439  0.9158 -1.9071  0.3361
  236MOL0     H31105   8.731   7.064   2.297 -1.2274 -2.6202 -0.2576
  236MOL0     H31106   8.519   6.897   2.028  0.2666 -3.8120  2.7537
  236MOL0     H31107   8.657   6.863   2.115 -0.8416  0.5927  2.0971
  236MOL0     H31108   8.787   7.021   1.939 -0.9493 -0.6332 -1.5579
  236MOL0     H31109   8.648   7.002   1.856  0.6287 -1.3740 -3.4242
  236MOL0     H31110   8.681   6.745   1.872 -1.9746  1.6667  0.1045
  236MOL0     H31111   8.769   6.846   1.759 -1.4302 -0.4552 -1.0466
  236MOL0     H31112   8.863   6.720   2.018 -1.2532 -1.5617 -0.6472
  236MOL0     H31113   8.956   6.859   1.970  1.1554 -1.9343  1.2466
  236MOL0     H31114   9.052   6.561   1.672 -2.9972 -0.8282  0.6950
  236MOL0     H31115   9.248   6.401   1.688 -0.4909 -0.9653  1.3488
  236MOL0     H31116   9.740   6.549   2.047  0.0745 -0.1202  0.9034
  236MOL0     H31117   9.961   6.413   2.072 -0.3359  2.8102  2.3814
  236MOL0     H31118   9.920   5.953   2.084  1.5883 -1.3415 -1.5520
  236MOL0     H31119  10.089   5.991   2.081  1.0285 -0.8702 -2.1294
  236MOL0     H31120   9.979   6.124   1.860 -2.1158  0.7201  1.8004
  236MOL0     H31121   9.913   5.962   1.863  0.8395 -0.4770 -1.2267
  236MOL0     H31122  10.110   5.913   1.759  2.1962 -1.1558  1.2723
  236MOL0     H31123  10.149   5.869   1.915 -0.7107  0.8992  0.4363
  236MOL0     H31124  10.227   6.158   1.875  4.6909  0.5917  1.3785
  236MOL0     H31125  10.296   6.049   1.964 -1.0778  2.3971  0.5813
  236MOL0     H31126  10.416   6.124   1.757  1.2174 -1.1665 -1.6410
  236MOL0     H31127  10.286   6.067   1.655 -0.3387  1.1682  0.7461
  236MOL0     H31128  10.347   5.841   1.677 -1.3433  0.2888 -0.0592
  236MOL0     H31129  10.404   5.857   1.839  0.1531  0.4694 -0.6605
  236MOL0     H31130  10.583   5.917   1.605  1.3044 -3.8284  0.3716
  236MOL0     H31131  10.604   5.989   1.771 -0.4614 -0.6750  0.3633
  236MOL0     H31132  10.596   5.700   1.664  2.4782  0.1486 -1.9932
  236MOL0     H31133  10.610   5.742   1.841  3.8777 -2.2207  0.3737
  236MOL0     H31134   9.736   6.055   2.027  3.1490 -0.4508  1.7529
  236MOL0     H31135   9.519   6.193   1.997  0.8748  1.3041 -2.9442
  236MOL0     H31136   9.336   6.578   2.073 -0.5608 -0.1008  0.6675
  236MOL0     H31137   9.126   6.712   2.054 -0.3130 -2.2426  1.9334
  236MOL0     H31138   9.836   7.316   2.207 -0.2396  1.0161  1.1791
  236MOL0     H31139  10.052   7.435   2.151  0.8580  0.5138  4.4269
  236MOL0     H31140  10.205   8.072   2.142  0.0296 -0.4535  1.2093
  236MOL0     H31141  10.417   8.149   2.033  2.4947 -1.4830  0.2982
  236MOL0     H31142  10.785   7.942   1.876 -2.7795 -4.9271 -0.9371
  236MOL0     H31143  10.693   7.857   1.996 -1.6734 -0.1791  0.6079
  236MOL0     H31144  10.706   8.094   2.136  1.8201  2.5497 -0.3865
  236MOL0     H31145  10.834   7.975   2.141  0.7479 -0.2253  0.9412
  236MOL0     H31146  10.904   8.145   1.917 -0.1953 -0.0653  0.6993
  236MOL0     H31147  10.991   8.108   2.051 -0.3428 -1.4340  0.4300
  236MOL0     H31148  10.758   8.322   2.040 -0.0238  1.1630 -0.5489
  236MOL0     H31149  10.886   8.302   2.168 -1.8771 -2.5851  0.3649
  236MOL0     H31150  11.027   8.545   1.840 -2.5813 -1.3830 -2.2461
  236MOL0     H31151  10.501   7.752   1.895  0.3434  0.4808  0.7798
  236MOL0     H31152  10.295   7.677   2.006  1.2362 -0.4621  1.0827
  237MOL0     O31153   1.653   9.339   2.619 -0.5532 -0.1941  0.8407
  237MOL0     C31154   1.701   9.444   2.586  0.4359  0.0669 -0.0423
  237MOL0     O31155   1.628   9.552   2.550 -0.1975 -0.1334  0.4242
  237MOL0     C31156   1.488   9.560   2.527 -0.8806  0.4051 -0.5069
  237MOL0     C31157   1.439   9.687   2.520 -0.4671 -0.6611  0.2713
  237MOL0     C31158   1.306   9.721   2.508  0.3667  0.8300 -0.1406
  237MOL0     C31159   1.212   9.612   2.490 -0.9893 -0.7121  1.0834
  237MOL0     O31160   1.076   9.646   2.484 -0.9543  0.1525  0.5974
  237MOL0     C31161   1.015   9.683   2.608  0.2963  0.0718  0.8087
  237MOL0     C31162   0.867   9.665   2.595  0.1516  0.0771  0.0711
  237MOL0     C31163   0.818   9.546   2.687 -0.0787  0.2744 -0.6522
  237MOL0     C31164   0.882   9.409   2.669  0.1552  0.3582  0.4532
  237MOL0     C31165   0.827   9.293   2.757 -0.3863  0.0342  0.0332
  237MOL0     C31166   0.820   9.334   2.908  0.1976 -0.8947  0.6545
  237MOL0     C31167   0.789   9.206   2.990 -0.3620  0.3636  0.3965
  237MOL0     C31168   0.741   9.251   3.129 -0.4176  0.5237  0.2284
  237MOL0     N31169   0.711   9.144   3.222 -0.3039  0.0008  0.1317
  237MOL0     C31170   0.639   9.030   3.202 -0.5732  0.7309  0.1675
  237MOL0     C31171   0.614   8.973   3.326 -0.1698 -0.5832  0.3326
  237MOL0     C31172   0.553   8.846   3.361  0.6953  0.6238 -0.0979
  237MOL0     C31173   0.660   8.744   3.378  0.2975 -0.2585 -0.8015
  237MOL0     C31174   0.597   8.606   3.372 -1.2235 -0.5973 -0.3501
  237MOL0     C31175   0.699   8.503   3.418 -1.0080 -0.0320  1.3671
  237MOL0     O31176   0.689   8.372   3.351  0.2467 -0.0864  0.8040
  237MOL0     C31177   0.588   8.280   3.402 -0.9382 -0.3780  0.4590
  237MOL0     C31178   0.577   8.151   3.348  1.2607  0.1736 -0.2882
  237MOL0     C31179   0.483   8.057   3.386  0.7908  0.3022 -0.0723
  237MOL0     C31180   0.392   8.076   3.486  0.3515  0.1098 -0.1594
  237MOL0     C31181   0.288   7.983   3.526  0.0286  0.9212 -0.5832
  237MOL0     O31182   0.261   7.867   3.461  0.0208 -0.0428  0.3138
  237MOL0     C31183   0.161   7.792   3.517 -0.2221 -0.5706 -0.5625
  237MOL0     C31184   0.031   7.817   3.467  0.6310  0.5645 -0.3504
  237MOL0     C31185  -0.077   7.745   3.523 -0.0136 -0.0287 -0.0959
  237MOL0     C31186  -0.056   7.662   3.641 -0.2332 -0.3067  0.2878
  237MOL0     O31187  -0.157   7.596   3.704 -0.2130 -0.2185  0.2718
  237MOL0     C31188  -0.287   7.631   3.666  0.8249 -1.0014  0.8328
  237MOL0     C31189  -0.388   7.545   3.738 -0.1113 -0.1673 -0.1915
  237MOL0     C31190  -0.537   7.588   3.714 -0.5127  0.3522  0.0846
  237MOL0     C31191  -0.630   7.508   3.800  0.8764 -0.3808  0.1989
  237MOL0     C31192  -0.781   7.551   3.790  0.7019 -0.2862 -1.0632
  237MOL0     C31193  -0.880   7.434   3.821 -0.0943  0.0644 -0.2864
  237MOL0     C31194  -1.031   7.481   3.842  0.1638 -0.3285  0.4929
  237MOL0     C31195  -1.125   7.358   3.824  0.0068  0.4467 -0.7946
  237MOL0    Cl31196  -1.299   7.374   3.847  0.4357  0.0541 -0.1664
  237MOL0     C31197   0.074   7.642   3.687 -0.2407 -1.0339 -0.3108
  237MOL0     C31198   0.177   7.713   3.629  0.2540 -0.5546  0.2730
  237MOL0     O31199   0.234   8.015   3.635  0.4037 -0.3935 -0.0772
  237MOL0     C31200   0.401   8.204   3.546  0.9394  0.2583 -0.0251
  237MOL0     C31201   0.491   8.305   3.504  0.0576  0.6059  0.0730
  237MOL0     N31202   0.672   9.060   3.422  0.1893 -0.7633 -0.2887
  237MOL0     N31203   0.728   9.162   3.360 -0.2137  0.1672 -0.4681
  237MOL0     C31204   1.263   9.481   2.497  0.0720 -0.0787  0.4193
  237MOL0     C31205   1.404   9.453   2.515  0.2707 -0.7751  0.2618
  237MOL0     C31206   1.847   9.468   2.615 -0.6711 -0.3524 -0.0660
  237MOL0     C31207   1.906   9.578   2.545  0.8481  0.3979 -0.1386
  237MOL0     C31208   2.037   9.618   2.566 -0.0936  0.5602  0.2841
  237MOL0     C31209   2.122   9.542   2.645 -0.0340 -0.6034 -0.0927
  237MOL0     O31210   2.253   9.566   2.670 -0.6741  0.0535  0.3267
  237MOL0     C31211   2.315   9.677   2.603  0.7314  0.1720 -0.7312
  237MOL0     C31212   2.445   9.726   2.672 -0.2071  0.6057  0.7085
  237MOL0     C31213   2.547   9.617   2.700 -0.0223  0.7753 -0.1699
  237MOL0     C31214   2.686   9.666   2.742 -0.7646  0.1357 -0.2530
  237MOL0     C31215   2.693   9.746   2.869  0.1757  0.6978 -0.2183
  237MOL0     C31216   2.680   9.811   2.969  0.6596 -0.2793 -0.0983
  237MOL0     C31217   2.066   9.428   2.713 -1.1135  0.1201  0.1439
  237MOL0     C31218   1.936   9.389   2.701 -0.6749  0.5459  0.1222
  237MOL0     H31219   1.503   9.774   2.535 -0.2918 -0.7973  0.3210
  237MOL0     H31220   1.281   9.827   2.500 -1.1359  0.3618 -2.9043
  237MOL0     H31221   1.030   9.791   2.618 -1.2352  0.2756  1.0756
  237MOL0     H31222   1.045   9.626   2.696 -1.8225 -0.1943  1.4109
  237MOL0     H31223   0.848   9.639   2.490  2.0850 -1.1252 -0.0189
  237MOL0     H31224   0.806   9.749   2.631  1.1122  1.0780 -0.5955
  237MOL0     H31225   0.712   9.522   2.673  0.3975 -3.6853  1.1826
  237MOL0     H31226   0.843   9.590   2.784  3.0774 -0.8706 -0.8346
  237MOL0     H31227   0.865   9.381   2.564  1.0281 -0.0691  0.4226
  237MOL0     H31228   0.988   9.403   2.694  0.9239 -0.8988 -2.6605
  237MOL0     H31229   0.893   9.208   2.739 -2.3447 -1.2702 -1.4238
  237MOL0     H31230   0.728   9.264   2.721  0.3825 -0.1653 -2.0225
  237MOL0     H31231   0.741   9.409   2.917 -2.0683 -2.6819 -2.5878
  237MOL0     H31232   0.912   9.376   2.950  1.3508 -0.5797 -2.0002
  237MOL0     H31233   0.704   9.149   2.952  0.5417  0.7218 -2.4273
  237MOL0     H31234   0.873   9.137   2.998 -2.3003 -1.9794  1.9623
  237MOL0     H31235   0.658   9.320   3.114  2.4363  4.8144  1.9842
  237MOL0     H31236   0.816   9.321   3.167  0.6501  1.7463 -3.6254
  237MOL0     H31237   0.605   8.982   3.110  0.7336  0.6351 -0.2894
  237MOL0     H31238   0.489   8.817   3.278 -0.0522  0.4088  0.5372
  237MOL0     H31239   0.499   8.856   3.456  1.0283 -0.2397  0.1908
  237MOL0     H31240   0.719   8.766   3.467  0.6719  2.1950 -1.6002
  237MOL0     H31241   0.723   8.750   3.290 -0.1216  1.9346 -1.0182
  237MOL0     H31242   0.505   8.602   3.431  0.5698  0.6212  2.7520
  237MOL0     H31243   0.576   8.573   3.270  0.1986 -2.4656 -0.0751
  237MOL0     H31244   0.704   8.504   3.527  2.0501  2.4083  1.3438
  237MOL0     H31245   0.799   8.533   3.386 -0.7463  0.9930  3.0373
  237MOL0     H31246   0.657   8.121   3.282  0.2053 -2.5545 -0.4556
  237MOL0     H31247   0.486   7.961   3.335  1.3022  0.2770  0.0091
  237MOL0     H31248   0.017   7.878   3.379  0.6508  0.5442 -0.3678
  237MOL0     H31249  -0.177   7.760   3.485  0.9117  0.0458 -2.6771
  237MOL0     H31250  -0.289   7.608   3.559  0.3211  0.1825  0.5714
  237MOL0     H31251  -0.300   7.739   3.678  3.6717 -0.3238 -1.1826
  237MOL0     H31252  -0.371   7.559   3.845 -0.1483 -1.2431 -0.0328
  237MOL0     H31253  -0.371   7.440   3.711  2.4329  0.8778 -3.2151
  237MOL0     H31254  -0.561   7.570   3.608 -2.3322  0.6950  0.4139
  237MOL0     H31255  -0.545   7.695   3.730 -0.3132  0.1031  1.9856
  237MOL0     H31256  -0.617   7.400   3.799  1.0283 -0.4241  2.2854
  237MOL0     H31257  -0.612   7.531   3.905 -2.5317 -3.0203  1.5519
  237MOL0     H31258  -0.817   7.575   3.690  0.4917  1.6917 -0.5518
  237MOL0     H31259  -0.803   7.643   3.846  1.1083 -0.0249 -1.3280
  237MOL0     H31260  -0.836   7.384   3.909 -1.4111 -0.7129 -0.0378
  237MOL0     H31261  -0.885   7.367   3.734 -0.8217  0.5370 -0.6061
  237MOL0     H31262  -1.043   7.521   3.944  0.4175  0.6592  0.1488
  237MOL0     H31263  -1.058   7.554   3.764 -0.5543 -1.9679 -0.8419
  237MOL0     H31264  -1.089   7.286   3.897 -0.4033  0.1638 -0.8684
  237MOL0     H31265  -1.116   7.302   3.730 -0.6238  0.7085 -1.0171
  237MOL0     H31266   0.094   7.597   3.783 -0.7190  0.8462  0.7204
  237MOL0     H31267   0.278   7.696   3.665 -0.3332  1.3363  3.2445
  237MOL0     H31268   0.328   8.232   3.622 -0.4310 -0.6206 -0.9848
  237MOL0     H31269   0.504   8.400   3.555  0.5851 -1.4331  4.1279
  237MOL0     H31270   1.192   9.399   2.496 -0.5804  0.4654 -0.6886
  237MOL0     H31271   1.444   9.353   2.515 -1.2740 -1.4681  2.2966
  237MOL0     H31272   1.847   9.644   2.483 -0.6135 -2.2118 -1.7309
  237MOL0     H31273   2.074   9.708   2.518  1.0385 -0.0857 -0.0859
  237MOL0     H31274   2.260   9.771   2.595 -0.7353 -0.6707 -0.8492
  237MOL0     H31275   2.340   9.638   2.504 -3.6917 -2.6827 -1.0245
  237MOL0     H31276   2.497   9.796   2.606  0.4041 -0.2469  0.2677
  237MOL0     H31277   2.440   9.778   2.768  3.4494  2.2016  0.2157
  237MOL0     H31278   2.560   9.561   2.607  0.9973 -0.7730  0.8600
  237MOL0     H31279   2.508   9.540   2.767  1.1141  1.2904  1.1290
  237MOL0     H31280   2.740   9.571   2.753  0.7843  0.9635 -0.4603
  237MOL0     H31281   2.744   9.717   2.665  1.5106 -0.0977  1.1796
  237MOL0     H31282   2.662   9.881   3.048 -3.3106 -0.2640 -0.7660
  237MOL0     H31283   2.126   9.369   2.781 -1.7962  1.5629  2.0861
  237MOL0     H31284   1.895   9.298   2.744 -1.4199  0.7215 -0.1967
  238MOL0     O31285  10.649   2.907  10.245 -0.2351  0.8219  0.8269
  238MOL0     C31286  10.653   3.003  10.170 -0.1809 -0.0270  0.3828
  238MOL0     O31287  10.542   3.060  10.101  0.0189  0.7662 -0.2563
  238MOL0     C31288  10.417   2.991  10.110 -0.4497  0.4180  0.6872
  238MOL0     C31289  10.381   2.899  10.005 -0.0001 -0.1056 -0.8081
  238MOL0     C31290  10.252   2.842   9.996  0.3336 -1.0639 -0.3784
  238MOL0     C31291  10.160   2.868  10.098  0.7318  0.0866 -0.0918
  238MOL0     O31292  10.035   2.804  10.080  0.0707 -0.5257 -0.0864
  238MOL0     C31293   9.943   2.827  10.181 -0.5966 -0.0882  0.5372
  238MOL0     C31294   9.801   2.762  10.144  0.0105  0.3853 -0.5359
  238MOL0     C31295   9.684   2.824  10.213  0.4584 -0.4346  0.2900
  238MOL0     C31296   9.548   2.762  10.178  0.2701 -0.9147 -0.7489
  238MOL0     C31297   9.425   2.854  10.197  0.1741  0.9806 -1.3270
  238MOL0     C31298   9.416   2.893  10.353  0.2146  0.2043 -0.4795
  238MOL0     C31299   9.290   2.935  10.420  0.0519 -0.2198 -0.3308
  238MOL0     C31300   9.188   2.823  10.453 -0.0854 -0.9268  0.1653
  238MOL0     N31301   9.061   2.883  10.471 -0.5707 -0.1498  0.1486
  238MOL0     C31302   9.024   2.988  10.551 -0.3390  0.4177  0.4854
  238MOL0     C31303   8.891   3.001  10.532 -0.6175  0.3521  0.4306
  238MOL0     C31304   8.806   3.095  10.619  0.2214  0.6845  0.7503
  238MOL0     C31305   8.665   3.040  10.614 -0.5631  0.3684  0.0390
  238MOL0     C31306   8.569   3.128  10.693 -0.2642 -0.0664 -0.3953
  238MOL0     C31307   8.491   3.032  10.787  0.2660 -0.2871  0.1176
  238MOL0     O31308   8.384   3.092  10.867 -0.2614  0.5964 -0.3372
  238MOL0     C31309   8.268   3.132  10.805 -0.2393  0.2833  0.4638
  238MOL0     C31310   8.227   3.097  10.674 -0.2461  0.0456 -0.0190
  238MOL0     C31311   8.109   3.145  10.628  0.7004  0.3537 -0.2227
  238MOL0     C31312   8.023   3.214  10.704  1.5680  0.1506  0.4992
  238MOL0     C31313   7.891   3.261  10.656 -0.5222 -0.4435  0.7182
  238MOL0     O31314   7.815   3.337  10.751  0.0773  0.0069  1.5617
  238MOL0     C31315   7.694   3.373  10.709  0.5413  0.4263  0.0745
  238MOL0     C31316   7.648   3.506  10.702 -1.0348 -0.1790 -0.0139
  238MOL0     C31317   7.513   3.541  10.682 -0.2837 -0.4945  0.1710
  238MOL0     C31318   7.417   3.439  10.677 -0.6880  0.3189 -0.3120
  238MOL0     O31319   7.279   3.452  10.663 -0.0526 -0.4731  0.5848
  238MOL0     C31320   7.218   3.577  10.657  0.0262  0.1997  0.5862
  238MOL0     C31321   7.074   3.552  10.609  1.1105 -0.1873 -0.1732
  238MOL0     C31322   6.975   3.513  10.726 -0.4631 -0.1519 -0.3456
  238MOL0     C31323   6.834   3.493  10.672  0.1209  0.6879 -0.3809
  238MOL0     C31324   6.744   3.471  10.786  1.0174 -0.7638 -0.4049
  238MOL0     C31325   6.603   3.422  10.732 -0.1485  0.1942  0.5283
  238MOL0     C31326   6.494   3.460  10.839 -0.7459  0.6232 -0.0250
  238MOL0     C31327   6.353   3.436  10.785  0.5729 -0.8627  1.2862
  238MOL0    Cl31328   6.253   3.524  10.898 -0.0641 -0.2773 -0.1879
  238MOL0     C31329   7.460   3.300  10.693 -0.8800  0.4142 -0.5180
  238MOL0     C31330   7.593   3.268  10.711 -0.4573 -0.7769  0.2396
  238MOL0     O31331   7.862   3.232  10.536  0.5941 -0.4363 -0.3293
  238MOL0     C31332   8.061   3.250  10.828 -0.0577 -0.3771 -0.8878
  238MOL0     C31333   8.191   3.214  10.885  1.1615  0.3313  0.4974
  238MOL0     N31334   8.851   2.915  10.433 -0.7563  0.7209 -0.3429
  238MOL0     N31335   8.952   2.840  10.406  0.4148 -0.0624  0.5333
  238MOL0     C31336  10.191   2.965  10.195 -0.4552 -0.6758 -0.3089
  238MOL0     C31337  10.318   3.026  10.199 -0.5985  0.6240  0.8171
  238MOL0     C31338  10.781   3.060  10.141  0.4029 -0.2535 -0.0897
  238MOL0     C31339  10.908   3.011  10.202 -0.2580 -0.3488  0.9512
  238MOL0     C31340  11.031   3.070  10.181  0.0369 -0.1475  0.0624
  238MOL0     C31341  11.033   3.189  10.105 -0.5124 -0.1733  0.1479
  238MOL0     O31342  11.149   3.256  10.077  0.4976  0.2387  0.3970
  238MOL0     C31343  11.278   3.212  10.134 -0.6359  0.7567 -0.0018
  238MOL0     C31344  11.380   3.324  10.126 -0.1486 -0.8679  0.7391
  238MOL0     C31345  11.509   3.261  10.153 -0.6129 -0.7360  1.2070
  238MOL0     C31346  11.620   3.370  10.155 -0.3636  0.2103  0.5084
  238MOL0     C31347  11.754   3.299  10.150  0.1637  0.0376 -0.2486
  238MOL0     C31348  11.865   3.251  10.174  0.7678  0.2202 -0.4843
  238MOL0     C31349  10.915   3.243  10.053  0.2383 -0.4204 -0.6923
  238MOL0     C31350  10.790   3.185  10.079  1.1435  0.3448  0.3002
  238MOL0     H31351  10.456   2.883   9.928  1.1945  2.1182 -0.1783
  238MOL0     H31352  10.234   2.767   9.920  2.1713 -2.6095  0.6193
  238MOL0     H31353   9.926   2.935  10.193  0.2555  0.2986 -1.3624
  238MOL0     H31354   9.976   2.792  10.279 -2.8625 -0.7530  1.1207
  238MOL0     H31355   9.806   2.655  10.166 -1.9793 -0.0057 -1.7408
  238MOL0     H31356   9.792   2.761  10.035  1.1473 -0.7480 -0.6460
  238MOL0     H31357   9.666   2.930  10.191 -2.8858 -0.6126  1.6130
  238MOL0     H31358   9.713   2.810  10.317 -0.1876 -2.7710  0.2154
  238MOL0     H31359   9.548   2.754  10.069  0.8655  2.1599 -1.0828
  238MOL0     H31360   9.543   2.671  10.237  2.7648 -0.8134 -0.2675
  238MOL0     H31361   9.335   2.798  10.171  1.7377 -1.7370 -1.2040
  238MOL0     H31362   9.429   2.944  10.134 -2.7396  1.9553 -0.3209
  238MOL0     H31363   9.490   2.972  10.367  0.6741  0.3931 -3.4520
  238MOL0     H31364   9.449   2.806  10.412  1.8849  1.9907  1.3849
  238MOL0     H31365   9.316   2.984  10.515  2.8013 -1.3239 -0.4183
  238MOL0     H31366   9.240   3.001  10.349 -0.3482  0.7398  0.8010
  238MOL0     H31367   9.226   2.768  10.539  0.4137  0.4303  0.8406
  238MOL0     H31368   9.190   2.757  10.366  0.5585  0.6484 -1.0745
  238MOL0     H31369   9.081   3.039  10.628  0.8523 -1.4032  0.8633
  238MOL0     H31370   8.809   3.197  10.581 -0.1390  0.4164 -0.0113
  238MOL0     H31371   8.847   3.098  10.721  0.1901 -1.7370  0.8856
  238MOL0     H31372   8.672   2.938  10.655 -2.9932  0.7861  1.7449
  238MOL0     H31373   8.626   3.031  10.512  0.8374 -0.0787 -0.4666
  238MOL0     H31374   8.617   3.214  10.741 -0.6369  1.4516 -2.5523
  238MOL0     H31375   8.506   3.180  10.620 -2.3413 -0.0573  1.3361
  238MOL0     H31376   8.559   2.995  10.864 -1.2408 -0.6233  1.3526
  238MOL0     H31377   8.457   2.946  10.729  0.2489  0.1295 -0.5022
  238MOL0     H31378   8.273   3.028  10.604 -1.4955  0.5141 -1.3502
  238MOL0     H31379   8.088   3.132  10.522 -0.0878  1.0045 -0.1477
  238MOL0     H31380   7.728   3.579  10.712  0.0404 -0.9937 -2.0621
  238MOL0     H31381   7.481   3.644  10.676 -0.4719 -0.4852  1.1915
  238MOL0     H31382   7.254   3.641  10.576 -1.3379 -0.9541 -0.9982
  238MOL0     H31383   7.223   3.630  10.753 -2.1734  0.1186  0.8003
  238MOL0     H31384   7.063   3.483  10.524  0.3479 -0.6465  0.2870
  238MOL0     H31385   7.036   3.649  10.577  1.2078 -0.8921 -2.5991
  238MOL0     H31386   6.979   3.585  10.809  1.7332  0.6821 -1.1058
  238MOL0     H31387   7.013   3.420  10.769  2.3968  0.8402 -0.5299
  238MOL0     H31388   6.811   3.581  10.612  5.5213  1.2450 -2.2007
  238MOL0     H31389   6.834   3.411  10.599  0.1885 -2.4812  2.8891
  238MOL0     H31390   6.736   3.559  10.850 -0.5053 -2.9448  2.6091
  238MOL0     H31391   6.793   3.393  10.845  1.7391 -1.0720 -1.3816
  238MOL0     H31392   6.613   3.313  10.723  3.4348  0.0831  3.3712
  238MOL0     H31393   6.587   3.471  10.636 -0.5189  0.1169  0.5481
  238MOL0     H31394   6.510   3.408  10.933  2.2003 -3.3687 -2.4060
  238MOL0     H31395   6.521   3.565  10.855  2.8203 -0.6251  3.5702
  238MOL0     H31396   6.323   3.331  10.794  3.2009 -1.7933  0.1062
  238MOL0     H31397   6.343   3.476  10.684  3.2749  4.3667  2.7265
  238MOL0     H31398   7.379   3.227  10.688 -1.5902  1.2362 -1.7161
  238MOL0     H31399   7.633   3.169  10.731 -0.6223 -1.1278 -1.1046
  238MOL0     H31400   7.992   3.299  10.897 -0.1139 -1.1735 -0.3703
  238MOL0     H31401   8.196   3.255  10.985 -4.1080 -1.2322  1.7168
  238MOL0     H31402  10.121   2.994  10.272  0.7975  0.6155  0.4019
  238MOL0     H31403  10.343   3.096  10.278  3.9746  1.4467 -1.0552
  238MOL0     H31404  10.901   2.918  10.257  3.4975 -0.6805  1.1360
  238MOL0     H31405  11.116   3.020  10.228  0.8885  2.0831  1.0149
  238MOL0     H31406  11.304   3.122  10.077 -0.8293 -1.9823  3.8246
  238MOL0     H31407  11.282   3.167  10.234 -1.4073 -1.0626 -0.7372
  238MOL0     H31408  11.375   3.386  10.037  1.9451  1.1107  1.8859
  238MOL0     H31409  11.353   3.393  10.207  2.4914  2.4529 -0.9648
  238MOL0     H31410  11.519   3.199  10.064  1.5802  0.2129  0.7323
  238MOL0     H31411  11.522   3.193  10.238 -1.4867 -0.6487  1.4246
  238MOL0     H31412  11.613   3.436  10.068 -1.0805 -0.7383 -0.1669
  238MOL0     H31413  11.603   3.425  10.248 -1.0073  3.4299 -1.3775
  238MOL0     H31414  11.965   3.211  10.179  0.4089 -0.5487  3.3447
  238MOL0     H31415  10.913   3.339  10.003 -3.5879  2.1476  3.6448
  238MOL0     H31416  10.702   3.241  10.051 -1.5247 -3.0261  1.2531
  239MOL0     O31417   9.280   6.123   1.664  0.2128  0.3239 -0.5660
  239MOL0     C31418   9.310   6.076   1.553  0.4428  0.1777 -0.1774
  239MOL0     O31419   9.228   6.008   1.460  0.3950 -0.8268  0.5624
  239MOL0     C31420   9.085   5.989   1.476  0.8364  0.2181 -0.2058
  239MOL0     C31421   9.010   5.930   1.374 -0.0555  0.0755  0.6324
  239MOL0     C31422   8.880   5.895   1.376 -0.6387 -0.3426 -0.2171
  239MOL0     C31423   8.807   5.928   1.489  0.5654 -0.5272 -0.1566
  239MOL0     O31424   8.667   5.909   1.505 -0.0984 -0.7465  0.4065
  239MOL0     C31425   8.596   5.845   1.390  0.0166  0.8244  0.1207
  239MOL0     C31426   8.452   5.821   1.430 -0.4960  0.2978 -0.3497
  239MOL0     C31427   8.342   5.772   1.328 -0.0938  0.2948 -1.1743
  239MOL0     C31428   8.210   5.756   1.390 -0.2457 -0.3212 -0.5697
  239MOL0     C31429   8.100   5.780   1.288  0.1008 -0.3165 -0.8384
  239MOL0     C31430   8.086   5.690   1.169 -0.6184 -0.1602  0.2053
  239MOL0     C31431   7.957   5.711   1.077 -0.2998 -0.4731  0.5448
  239MOL0     C31432   7.830   5.674   1.156 -0.2933  0.1365 -0.0583
  239MOL0     N31433   7.835   5.528   1.198 -0.3494 -0.7038  0.0769
  239MOL0     C31434   7.844   5.420   1.114  0.1343 -0.5808 -0.1298
  239MOL0     C31435   7.858   5.316   1.200 -0.6694  0.4518 -0.1418
  239MOL0     C31436   7.884   5.169   1.156  0.8531 -0.6561  0.0536
  239MOL0     C31437   7.784   5.080   1.236  0.0743 -0.4767 -0.1848
  239MOL0     C31438   7.783   4.952   1.148 -0.0257 -0.8451 -0.9339
  239MOL0     C31439   7.679   4.853   1.210  1.2563  0.6056  0.6739
  239MOL0     O31440   7.552   4.915   1.213  0.1286  1.6288  0.1638
  239MOL0     C31441   7.445   4.858   1.279  0.6029  0.6933 -0.5907
  239MOL0     C31442   7.465   4.741   1.360 -0.4890 -0.1030 -0.0405
  239MOL0     C31443   7.361   4.696   1.439 -0.5722  0.0192  0.5942
  239MOL0     C31444   7.239   4.761   1.447  0.5005  0.2457 -0.4614
  239MOL0     C31445   7.119   4.717   1.532  0.5012  0.4322  0.5639
  239MOL0     O31446   6.988   4.759   1.502  0.2092 -0.0851  0.9943
  239MOL0     C31447   6.895   4.681   1.558  0.1864  0.2676 -0.4575
  239MOL0     C31448   6.801   4.745   1.646 -0.0583  0.6682  0.1203
  239MOL0     C31449   6.699   4.672   1.708  0.1630  0.0186  0.3233
  239MOL0     C31450   6.677   4.540   1.669  1.0530  0.1718  0.8640
  239MOL0     O31451   6.569   4.465   1.718  0.1800  0.6989 -0.0152
  239MOL0     C31452   6.519   4.480   1.850 -0.1207 -0.6636 -0.1637
  239MOL0     C31453   6.407   4.385   1.866 -0.3607 -0.3265  0.1644
  239MOL0     C31454   6.273   4.426   1.798 -0.1102  0.1954 -0.4869
  239MOL0     C31455   6.170   4.316   1.818 -0.1277  0.1898 -0.1105
  239MOL0     C31456   6.034   4.362   1.771  1.0185  0.2104  0.3311
  239MOL0     C31457   5.934   4.254   1.818 -0.3317 -1.0385  0.7106
  239MOL0     C31458   5.801   4.284   1.734  0.3907  0.0582 -0.7408
  239MOL0     C31459   5.736   4.420   1.751 -0.3421 -0.1277 -0.0021
  239MOL0    Cl31460   5.593   4.412   1.641  0.1155 -0.2021  0.0296
  239MOL0     C31461   6.756   4.482   1.561 -0.3005  0.6203  0.1945
  239MOL0     C31462   6.868   4.552   1.511  0.2862 -0.0133  0.4201
  239MOL0     O31463   7.150   4.627   1.617  0.1480  0.0685 -0.2626
  239MOL0     C31464   7.221   4.879   1.374  0.2746  0.0961 -0.5322
  239MOL0     C31465   7.319   4.924   1.282 -0.0833 -0.2038  1.0368
  239MOL0     N31466   7.856   5.364   1.328 -0.0420  0.4654 -0.3837
  239MOL0     N31467   7.844   5.493   1.329 -0.4206  0.4094 -0.5450
  239MOL0     C31468   8.872   5.996   1.588 -0.1804  0.5231  0.0672
  239MOL0     C31469   9.016   6.019   1.593 -0.2071 -0.0708 -1.1206
  239MOL0     C31470   9.455   6.069   1.528  0.6515  0.9886 -0.0854
  239MOL0     C31471   9.553   6.108   1.624  0.3117 -0.6922 -0.2737
  239MOL0     C31472   9.697   6.093   1.603  0.9932 -0.5432 -0.5247
  239MOL0     C31473   9.742   6.048   1.480  0.8521 -0.7885 -0.4377
  239MOL0     O31474   9.874   6.035   1.460 -0.9468  0.1081  0.3046
  239MOL0     C31475   9.916   5.932   1.365  0.2384 -0.7534  0.5498
  239MOL0     C31476  10.070   5.933   1.337  0.2170 -0.2702 -0.0838
  239MOL0     C31477  10.115   6.030   1.237 -1.5884 -0.1453  0.0334
  239MOL0     C31478  10.258   6.012   1.183 -0.2858  0.5394 -0.7691
  239MOL0     C31479  10.341   6.040   1.297 -0.0134 -0.1745  0.4617
  239MOL0     C31480  10.411   6.055   1.389 -0.0818 -0.0778 -0.0070
  239MOL0     C31481   9.644   6.007   1.383 -0.1605  0.0536 -0.0856
  239MOL0     C31482   9.507   6.015   1.412 -0.7773  1.0114 -0.2574
  239MOL0     H31483   9.065   5.908   1.283 -0.9186 -1.1902  0.4022
  239MOL0     H31484   8.855   5.827   1.295  0.2493 -1.1449  0.1590
  239MOL0     H31485   8.655   5.762   1.351  0.8351  1.2602  0.3959
  239MOL0     H31486   8.571   5.903   1.300 -0.6507 -1.1109 -0.9989
  239MOL0     H31487   8.423   5.917   1.474  3.0734  1.2097  0.3391
  239MOL0     H31488   8.444   5.754   1.517  1.6206  0.6050  0.1333
  239MOL0     H31489   8.374   5.675   1.288  2.2430  0.5707 -0.1304
  239MOL0     H31490   8.334   5.841   1.244  0.7656 -1.2084 -2.5554
  239MOL0     H31491   8.194   5.660   1.440  2.2114 -0.8914 -0.7313
  239MOL0     H31492   8.204   5.839   1.461  0.3188  0.3618 -1.2979
  239MOL0     H31493   8.114   5.881   1.249  1.1187 -0.9853 -2.2805
  239MOL0     H31494   8.005   5.795   1.340 -0.5419 -1.2163 -1.7235
  239MOL0     H31495   8.092   5.585   1.200  3.0648 -1.2932 -3.4033
  239MOL0     H31496   8.168   5.697   1.096 -2.3438  0.4999 -1.7884
  239MOL0     H31497   7.949   5.817   1.050  0.1977 -1.0287 -1.9857
  239MOL0     H31498   7.962   5.649   0.987  2.0926  2.9688 -1.9844
  239MOL0     H31499   7.749   5.687   1.083  0.1007  0.8304 -0.3798
  239MOL0     H31500   7.820   5.749   1.235 -2.5589  1.2192 -1.2610
  239MOL0     H31501   7.856   5.433   1.007 -2.6185 -1.1867 -0.5963
  239MOL0     H31502   7.985   5.147   1.193  2.1587  3.1243 -0.8125
  239MOL0     H31503   7.885   5.146   1.049  0.9387  1.8288 -0.5489
  239MOL0     H31504   7.687   5.130   1.232 -0.6960 -1.8295  0.5978
  239MOL0     H31505   7.821   5.066   1.338  0.6363 -0.0278 -0.3230
  239MOL0     H31506   7.770   4.978   1.043  2.1065 -1.9624 -1.5367
  239MOL0     H31507   7.881   4.905   1.152 -0.0998 -1.3683 -3.8216
  239MOL0     H31508   7.709   4.821   1.310 -0.2976  1.4621  1.4555
  239MOL0     H31509   7.670   4.764   1.147  0.2216  1.2271 -0.0878
  239MOL0     H31510   7.550   4.675   1.368 -0.4576 -0.0457  0.0870
  239MOL0     H31511   7.391   4.608   1.494  1.0184 -0.4520 -0.9486
  239MOL0     H31512   6.815   4.851   1.663 -4.3602  1.1579  1.9760
  239MOL0     H31513   6.645   4.721   1.788 -0.0114 -1.7974  1.3788
  239MOL0     H31514   6.461   4.572   1.859 -0.4904 -0.9936  0.9196
  239MOL0     H31515   6.594   4.462   1.928  0.7885 -2.3938 -1.3531
  239MOL0     H31516   6.405   4.377   1.975  1.2987 -3.0872  0.0894
  239MOL0     H31517   6.436   4.282   1.844  0.6664 -0.6497  2.6874
  239MOL0     H31518   6.285   4.431   1.689  0.5893  1.8425 -0.3602
  239MOL0     H31519   6.247   4.519   1.849  1.1690 -0.6500  1.8256
  239MOL0     H31520   6.204   4.222   1.775  0.2985  1.0951 -1.8335
  239MOL0     H31521   6.169   4.295   1.925 -1.3354  1.4938  0.1581
  239MOL0     H31522   6.038   4.374   1.663  3.4301  2.3504  0.5528
  239MOL0     H31523   6.001   4.453   1.824 -1.0754 -1.2297  1.6670
  239MOL0     H31524   5.924   4.272   1.925 -0.3923  0.8992  0.4273
  239MOL0     H31525   5.975   4.154   1.802  3.2286  0.5332 -1.3061
  239MOL0     H31526   5.837   4.270   1.632  2.7761 -0.7132  0.1443
  239MOL0     H31527   5.726   4.206   1.753  3.5729 -2.8741  0.9771
  239MOL0     H31528   5.802   4.502   1.720  1.5056 -1.5430  0.0151
  239MOL0     H31529   5.710   4.430   1.856 -0.5282  1.5913 -0.1821
  239MOL0     H31530   6.725   4.387   1.518  1.2065  0.4974 -0.6658
  239MOL0     H31531   6.934   4.498   1.445 -1.8000 -2.4188  0.1645
  239MOL0     H31532   7.133   4.938   1.396 -0.9152 -2.0321  0.6858
  239MOL0     H31533   7.310   5.006   1.212 -0.6437 -0.5726  0.6609
  239MOL0     H31534   8.821   6.015   1.682  2.2661  0.4639  1.4972
  239MOL0     H31535   9.054   6.088   1.667 -2.3284  2.0877 -1.9042
  239MOL0     H31536   9.509   6.160   1.708  0.4763  2.7495 -2.1289
  239MOL0     H31537   9.768   6.129   1.677  1.9540  0.3004 -1.8064
  239MOL0     H31538   9.870   5.941   1.266 -2.2624 -0.3511  1.6791
  239MOL0     H31539   9.875   5.840   1.407 -3.9470  1.2071  1.2288
  239MOL0     H31540  10.123   5.950   1.431  0.3011  1.4009 -0.4090
  239MOL0     H31541  10.109   5.836   1.304 -1.2175 -1.4253  1.4203
  239MOL0     H31542  10.110   6.126   1.289 -0.4947 -1.8569  3.6292
  239MOL0     H31543  10.045   6.029   1.154 -3.1723  0.6074  1.3008
  239MOL0     H31544  10.282   5.908   1.158  1.3773  0.8592 -0.6397
  239MOL0     H31545  10.278   6.071   1.093 -3.1051  0.9637 -1.1845
  239MOL0     H31546  10.490   6.064   1.461 -0.6996  0.3283  0.6286
  239MOL0     H31547   9.673   5.981   1.281  0.2382  3.8254 -1.0981
  239MOL0     H31548   9.437   5.979   1.337 -0.7502 -0.5564  0.4217
  240MOL0     O31549   2.904   8.509   1.902  0.7274 -0.7172 -0.9351
  240MOL0     C31550   2.909   8.458   2.017 -0.2064 -0.4405 -0.2137
  240MOL0     O31551   3.026   8.470   2.088 -0.0922  0.7049 -0.9083
  240MOL0     C31552   3.109   8.568   2.050 -0.1766  0.5954  0.8917
  240MOL0     C31553   3.076   8.701   2.046  0.3148 -0.6110  0.0845
  240MOL0     C31554   3.148   8.805   1.987  0.2820  0.0444  0.5240
  240MOL0     C31555   3.268   8.776   1.930  0.1334 -0.1406  0.5836
  240MOL0     O31556   3.325   8.880   1.859 -0.5706  0.2793  0.2946
  240MOL0     C31557   3.417   8.959   1.937 -0.7285 -0.0996  0.0898
  240MOL0     C31558   3.356   9.043   2.049 -0.5583 -0.3677  0.4177
  240MOL0     C31559   3.465   9.143   2.099  0.3009 -0.4208  0.1800
  240MOL0     C31560   3.420   9.220   2.228  0.3208  0.2042 -0.0610
  240MOL0     C31561   3.550   9.260   2.298  0.4092  0.1746  0.3921
  240MOL0     C31562   3.636   9.374   2.246  0.4848 -0.0239  0.9337
  240MOL0     C31563   3.781   9.358   2.282  0.4661 -0.7772  0.5757
  240MOL0     C31564   3.864   9.490   2.253 -0.8695 -0.1314  0.3168
  240MOL0     N31565   4.006   9.466   2.275  0.3559 -0.0946  0.2966
  240MOL0     C31566   4.095   9.419   2.187  0.2472  1.1052  0.6507
  240MOL0     C31567   4.214   9.414   2.244 -0.2781 -0.1136 -0.1981
  240MOL0     C31568   4.342   9.385   2.169  0.0257 -0.4733  0.1030
  240MOL0     C31569   4.389   9.247   2.200  0.4321  0.2770 -1.0295
  240MOL0     C31570   4.463   9.251   2.337 -0.1391  0.8660 -0.4428
  240MOL0     C31571   4.601   9.317   2.327 -0.3969  0.5758 -0.2977
  240MOL0     O31572   4.699   9.239   2.249 -0.1943 -0.7692  0.3682
  240MOL0     C31573   4.821   9.293   2.218  0.5929  0.6367  0.0875
  240MOL0     C31574   4.906   9.213   2.136 -0.1251 -0.8163 -0.6923
  240MOL0     C31575   5.044   9.237   2.135 -0.8116 -0.1825  0.3973
  240MOL0     C31576   5.091   9.362   2.181 -0.3723  0.1405  0.4389
  240MOL0     C31577   5.232   9.410   2.142 -0.1877  0.7711 -0.7827
  240MOL0     O31578   5.270   9.539   2.155  0.0548 -0.2588 -0.7435
  240MOL0     C31579   5.396   9.578   2.101  0.0962  0.7013  0.0055
  240MOL0     C31580   5.415   9.641   1.980  0.6233 -0.1947 -1.0150
  240MOL0     C31581   5.541   9.687   1.940  0.1597  0.6047  0.3180
  240MOL0     C31582   5.646   9.665   2.026  0.0326  0.5339 -0.1731
  240MOL0     O31583   5.771   9.696   1.981 -0.4256  0.8620  0.3839
  240MOL0     C31584   5.874   9.724   2.076  0.3080  0.7154  0.5768
  240MOL0     C31585   6.000   9.758   1.997 -0.2345  0.3094 -0.0128
  240MOL0     C31586   5.987   9.892   1.925 -0.1686 -0.5613 -0.2881
  240MOL0     C31587   6.120   9.944   1.866 -0.5928 -0.5720 -0.4792
  240MOL0     C31588   6.095  10.090   1.824 -0.1906  0.7471  0.0023
  240MOL0     C31589   6.065  10.097   1.676  0.8096 -0.0730  0.7798
  240MOL0     C31590   5.967  10.206   1.654  0.0539  0.7108  0.0090
  240MOL0     C31591   5.822  10.159   1.653 -0.3489 -0.5286  0.2459
  240MOL0    Cl31592   5.724  10.291   1.568 -0.2774 -0.0797 -0.2159
  240MOL0     C31593   5.631   9.597   2.146  0.0057  0.5341 -0.5410
  240MOL0     C31594   5.506   9.559   2.187  0.1218 -0.4820  0.4948
  240MOL0     O31595   5.311   9.325   2.099  0.9507  0.0658  0.0884
  240MOL0     C31596   5.004   9.447   2.255  0.3198 -0.1490 -0.2326
  240MOL0     C31597   4.870   9.407   2.281 -0.0914  0.4940 -0.2883
  240MOL0     N31598   4.192   9.463   2.378  0.6500 -0.6433  0.7949
  240MOL0     N31599   4.067   9.504   2.393 -0.2799 -0.1358 -0.1911
  240MOL0     C31600   3.317   8.645   1.924 -0.3937 -0.5740 -0.3295
  240MOL0     C31601   3.236   8.547   1.990  0.4229 -0.1821 -0.0557
  240MOL0     C31602   2.794   8.386   2.078 -0.3928  0.0276  0.2766
  240MOL0     C31603   2.807   8.299   2.185  0.8910  0.9060  0.5456
  240MOL0     C31604   2.696   8.228   2.241 -0.3738 -0.4754  0.7945
  240MOL0     C31605   2.569   8.249   2.180 -0.3195 -0.1539  0.3411
  240MOL0     O31606   2.451   8.187   2.220 -0.1003  0.4593 -0.5470
  240MOL0     C31607   2.452   8.076   2.314  0.0816  0.3073 -0.6502
  240MOL0     C31608   2.317   8.015   2.343 -1.1940  0.4114  0.4604
  240MOL0     C31609   2.221   8.118   2.403  0.1155 -0.3149 -0.1573
  240MOL0     C31610   2.086   8.056   2.412 -0.9213 -0.7352  0.3419
  240MOL0     C31611   2.007   8.166   2.467  0.3710  0.5292 -0.0955
  240MOL0     C31612   1.938   8.259   2.512 -1.0274 -0.2530  0.1177
  240MOL0     C31613   2.555   8.333   2.069  0.0683 -0.4548  0.3223
  240MOL0     C31614   2.668   8.402   2.020  0.3689 -0.3555  0.1863
  240MOL0     H31615   2.978   8.737   2.075 -0.9132 -0.3497 -3.8577
  240MOL0     H31616   3.094   8.899   1.979 -2.5984 -1.5071  0.1344
  240MOL0     H31617   3.474   9.019   1.866  2.0676 -3.9536 -1.2302
  240MOL0     H31618   3.500   8.902   1.980 -1.4886 -0.6476  0.8634
  240MOL0     H31619   3.312   8.986   2.132  1.5845 -4.1013 -0.7564
  240MOL0     H31620   3.276   9.101   2.004  1.0287  0.6186 -1.2664
  240MOL0     H31621   3.501   9.203   2.015  2.2476 -0.1395  1.1602
  240MOL0     H31622   3.551   9.079   2.121  1.2873 -0.1900 -2.6266
  240MOL0     H31623   3.364   9.311   2.204  3.2909  3.0657  2.7846
  240MOL0     H31624   3.354   9.169   2.298 -0.6004  2.1049  0.5331
  240MOL0     H31625   3.616   9.173   2.302 -0.4002 -0.4129  2.1040
  240MOL0     H31626   3.528   9.279   2.403  2.5620 -2.0819  1.3392
  240MOL0     H31627   3.592   9.472   2.268 -1.6444 -0.5417 -0.6528
  240MOL0     H31628   3.637   9.376   2.137 -1.6377 -0.9683  0.8427
  240MOL0     H31629   3.781   9.338   2.390  1.5790  0.3347  0.8021
  240MOL0     H31630   3.838   9.279   2.233  4.1538  2.4133 -0.7286
  240MOL0     H31631   3.838   9.574   2.318  3.7222  3.4741 -1.9031
  240MOL0     H31632   3.838   9.525   2.152 -1.8549  1.0044  0.9407
  240MOL0     H31633   4.072   9.397   2.084 -0.0653  2.3182  0.4517
  240MOL0     H31634   4.416   9.464   2.188 -0.0219 -0.2547 -0.5825
  240MOL0     H31635   4.323   9.389   2.061 -0.5910  1.2144  0.2386
  240MOL0     H31636   4.460   9.221   2.122  1.1022  3.1246 -1.4739
  240MOL0     H31637   4.309   9.173   2.200  0.4964  0.1981 -0.5244
  240MOL0     H31638   4.408   9.304   2.416  0.5693 -1.8658  2.0692
  240MOL0     H31639   4.488   9.149   2.369  2.9002  1.9296  0.9678
  240MOL0     H31640   4.637   9.331   2.430  0.1153  0.5297 -0.4644
  240MOL0     H31641   4.593   9.415   2.280  1.0090  1.1718  0.6306
  240MOL0     H31642   4.866   9.124   2.089 -0.8724  0.6759 -3.0591
  240MOL0     H31643   5.114   9.176   2.079  1.0312  2.4457 -0.3119
  240MOL0     H31644   5.324   9.642   1.920 -1.1144 -0.1267  1.4697
  240MOL0     H31645   5.550   9.726   1.839 -1.7007 -2.4155 -1.1296
  240MOL0     H31646   5.901   9.642   2.143  0.6953  0.7777  0.5044
  240MOL0     H31647   5.842   9.807   2.139 -0.7828 -0.5096  1.6736
  240MOL0     H31648   6.020   9.676   1.928 -1.9426  0.0936 -0.2998
  240MOL0     H31649   6.072   9.763   2.079 -1.1169  1.1145  0.7343
  240MOL0     H31650   5.956   9.963   2.002  1.0882  0.8846 -1.0471
  240MOL0     H31651   5.903   9.897   1.855 -0.0633  0.5669 -0.3487
  240MOL0     H31652   6.202   9.948   1.939 -0.3720 -0.0501 -0.7534
  240MOL0     H31653   6.158   9.889   1.780 -0.7166  0.8395 -1.4661
  240MOL0     H31654   6.186  10.141   1.857  0.1504 -1.1745  2.2447
  240MOL0     H31655   6.012  10.131   1.882 -1.4314 -0.1857 -1.0707
  240MOL0     H31656   6.029  10.005   1.630 -3.3578  1.6931  0.0658
  240MOL0     H31657   6.153  10.125   1.618  0.8814 -1.5485  0.1176
  240MOL0     H31658   5.973  10.289   1.725 -3.8035  1.6418 -0.5445
  240MOL0     H31659   5.985  10.242   1.552  0.3939 -0.9046 -0.5346
  240MOL0     H31660   5.786  10.143   1.755 -0.8003 -0.7550  0.0544
  240MOL0     H31661   5.806  10.065   1.599 -4.2058  0.3073 -0.3764
  240MOL0     H31662   5.707   9.569   2.218 -0.8391 -1.0350 -0.2158
  240MOL0     H31663   5.483   9.519   2.286  0.0830  1.7470  1.4502
  240MOL0     H31664   5.041   9.540   2.298 -0.7805  0.0755  0.2609
  240MOL0     H31665   4.813   9.459   2.357 -0.7376 -1.2498  0.4691
  240MOL0     H31666   3.407   8.618   1.869 -0.3341 -0.0120 -0.5138
  240MOL0     H31667   3.250   8.441   1.976 -1.6067 -0.8794  2.3945
  240MOL0     H31668   2.902   8.292   2.237  0.5761  0.9059  1.1217
  240MOL0     H31669   2.697   8.160   2.326 -2.3334  0.4637  1.6239
  240MOL0     H31670   2.486   8.120   2.408 -0.3625  0.3785 -0.5191
  240MOL0     H31671   2.519   7.995   2.283 -0.9623 -0.4495 -0.9971
  240MOL0     H31672   2.272   7.986   2.248 -0.3721  2.5178 -0.6387
  240MOL0     H31673   2.332   7.929   2.408  2.2866 -1.4207 -2.4411
  240MOL0     H31674   2.211   8.204   2.336  2.4168 -0.0712 -0.2764
  240MOL0     H31675   2.259   8.162   2.495 -1.6257  1.2678 -0.1356
  240MOL0     H31676   2.044   8.024   2.316 -2.3661  0.3833  0.5715
  240MOL0     H31677   2.081   7.967   2.475 -0.9505 -1.3853 -0.5690
  240MOL0     H31678   1.867   8.329   2.552  0.1493  1.4698 -0.6733
  240MOL0     H31679   2.461   8.358   2.020  0.7390  0.2963 -0.6526
  240MOL0     H31680   2.651   8.465   1.934 -3.3597  0.8102  1.5981
  241MOL0     O31681   5.450  11.164   3.134 -0.5878  0.5252  0.6308
  241MOL0     C31682   5.515  11.149   3.032 -0.7896 -0.4398  0.3541
  241MOL0     O31683   5.517  11.044   2.950  0.0406 -0.2064 -0.5793
  241MOL0     C31684   5.430  10.939   2.968 -0.6041  0.7699  0.1452
  241MOL0     C31685   5.366  10.888   2.852  0.3514  0.8287  0.5406
  241MOL0     C31686   5.292  10.775   2.859 -0.6546 -0.1516  1.2471
  241MOL0     C31687   5.273  10.701   2.981  0.3291  0.2471 -0.0663
  241MOL0     O31688   5.182  10.594   2.969 -0.9066 -0.0633  0.3912
  241MOL0     C31689   5.193  10.487   3.063 -0.5167 -0.2996 -0.5051
  241MOL0     C31690   5.152  10.357   2.995 -0.2423  0.2430  0.1822
  241MOL0     C31691   4.994  10.337   2.991 -0.2121  0.0051 -0.5956
  241MOL0     C31692   4.960  10.197   2.932  0.6501 -0.7306  0.8116
  241MOL0     C31693   4.814  10.201   2.878 -0.4603 -0.1484  0.0609
  241MOL0     C31694   4.778  10.079   2.787 -0.0620 -0.3797  1.0795
  241MOL0     C31695   4.634  10.069   2.785 -0.1211 -0.4165  0.8059
  241MOL0     C31696   4.596   9.969   2.678 -0.0972 -0.3294 -0.2802
  241MOL0     N31697   4.449   9.924   2.676  0.6095 -0.1181  0.1793
  241MOL0     C31698   4.359   9.947   2.566  1.1906  0.2265  0.1434
  241MOL0     C31699   4.245   9.893   2.600  0.6517  1.3603 -0.6872
  241MOL0     C31700   4.099   9.891   2.540  0.3968 -0.1469 -0.1973
  241MOL0     C31701   4.035  10.028   2.512 -0.8775  0.3116  0.2421
  241MOL0     C31702   4.023  10.110   2.650 -1.0362 -0.2376  0.2897
  241MOL0     C31703   3.954  10.243   2.604  0.2143 -0.4897  0.7072
  241MOL0     O31704   4.035  10.320   2.511 -0.3594 -0.5018 -0.3669
  241MOL0     C31705   4.145  10.378   2.561  0.0936  1.0314  0.5382
  241MOL0     C31706   4.167  10.436   2.693  0.0367  0.3449 -0.1730
  241MOL0     C31707   4.286  10.501   2.731 -0.8678  0.0174 -0.4877
  241MOL0     C31708   4.387  10.501   2.640 -0.8597 -0.0389  0.4617
  241MOL0     C31709   4.521  10.560   2.680 -0.6047 -1.1643  0.3631
  241MOL0     O31710   4.625  10.497   2.615  0.1172  0.1073 -0.3442
  241MOL0     C31711   4.741  10.569   2.613 -0.2805  0.3642  0.3769
  241MOL0     C31712   4.779  10.644   2.508  0.4744  0.2469  0.0929
  241MOL0     C31713   4.885  10.732   2.502  0.7916  0.3102 -0.5394
  241MOL0     C31714   4.957  10.750   2.617 -0.2267  0.3325  0.0056
  241MOL0     O31715   5.065  10.837   2.624  0.2299  0.1738  0.3725
  241MOL0     C31716   5.054  10.949   2.532  0.6796 -0.0192 -0.1244
  241MOL0     C31717   5.141  11.062   2.559  0.4535 -0.3532  0.4929
  241MOL0     C31718   5.096  11.140   2.684 -0.0477  0.0526  0.5026
  241MOL0     C31719   5.198  11.247   2.707 -1.0273  0.1514  0.6075
  241MOL0     C31720   5.174  11.312   2.846  0.4019 -0.1238 -0.2517
  241MOL0     C31721   5.279  11.415   2.869 -0.0855 -1.1834  0.2922
  241MOL0     C31722   5.270  11.538   2.773  0.4191 -0.7021  0.5404
  241MOL0     C31723   5.133  11.614   2.785  0.2709  0.3390 -0.4738
  241MOL0    Cl31724   5.131  11.722   2.926 -0.3254  0.3701  0.1304
  241MOL0     C31725   4.918  10.689   2.729 -0.5548  0.1487  0.1921
  241MOL0     C31726   4.813  10.586   2.729 -0.5926 -0.0420 -0.5161
  241MOL0     O31727   4.529  10.654   2.751 -0.2390 -0.3187  0.2212
  241MOL0     C31728   4.367  10.457   2.510  0.1253 -0.1333  0.0514
  241MOL0     C31729   4.251  10.384   2.473  0.4412 -0.1165  0.5062
  241MOL0     N31730   4.268   9.848   2.733  0.3680 -0.2359 -0.3595
  241MOL0     N31731   4.381   9.875   2.787 -0.4001 -0.1485 -0.8144
  241MOL0     C31732   5.337  10.751   3.091 -0.5891 -0.4133  0.8262
  241MOL0     C31733   5.416  10.872   3.085  0.0852  0.4882 -0.2688
  241MOL0     C31734   5.595  11.264   2.996 -0.3943  0.6800  0.7461
  241MOL0     C31735   5.576  11.386   3.057 -0.1808 -0.1330 -0.3252
  241MOL0     C31736   5.651  11.499   3.026 -0.7621 -0.5128  0.0884
  241MOL0     C31737   5.752  11.499   2.929 -0.5812 -0.4493  0.0211
  241MOL0     O31738   5.824  11.614   2.897  0.3835 -0.3767  0.5000
  241MOL0     C31739   5.783  11.749   2.930 -1.0337  0.9240 -0.1252
  241MOL0     C31740   5.850  11.851   2.842  1.1059  0.7250 -0.1711
  241MOL0     C31741   5.853  11.820   2.698  0.5103  0.7501  0.0591
  241MOL0     C31742   5.929  11.919   2.613 -0.8477  0.5195  0.5241
  241MOL0     C31743   5.964  11.869   2.480  0.1139 -0.5241  0.4222
  241MOL0     C31744   5.975  11.827   2.364  0.5979 -0.0515  0.6874
  241MOL0     C31745   5.777  11.372   2.876  0.5034 -0.2507  0.4441
  241MOL0     C31746   5.707  11.255   2.907 -0.1877  0.0037  0.4537
  241MOL0     H31747   5.393  10.952   2.769  1.1506  1.7516  1.4742
  241MOL0     H31748   5.247  10.739   2.767  3.0975  0.0696 -0.9010
  241MOL0     H31749   5.131  10.496   3.152 -0.9306 -1.9002 -0.6098
  241MOL0     H31750   5.298  10.466   3.088  0.0917 -0.0351 -2.5796
  241MOL0     H31751   5.174  10.265   3.051 -2.4697 -2.2027 -2.5898
  241MOL0     H31752   5.196  10.343   2.896 -2.2315 -0.2406 -0.6904
  241MOL0     H31753   4.958  10.420   2.929  1.2714  0.6073 -0.6795
  241MOL0     H31754   4.951  10.347   3.091  0.2051 -1.4074 -0.2483
  241MOL0     H31755   5.011  10.174   2.837 -0.4932 -1.5298  0.3604
  241MOL0     H31756   4.978  10.117   3.005  1.8417 -0.5818  0.7072
  241MOL0     H31757   4.798  10.293   2.820 -2.9823 -0.1817  0.6295
  241MOL0     H31758   4.751  10.194   2.967 -1.2225 -2.6210 -0.6063
  241MOL0     H31759   4.813   9.992   2.844  2.3028  0.1539  0.5627
  241MOL0     H31760   4.823  10.072   2.687 -0.1291 -0.4121  1.0515
  241MOL0     H31761   4.596  10.037   2.882 -1.8748  1.1748  0.7052
  241MOL0     H31762   4.585  10.165   2.773  2.4379  0.7647 -1.2365
  241MOL0     H31763   4.649   9.873   2.684 -3.2515 -2.1946 -0.3177
  241MOL0     H31764   4.613  10.015   2.580  2.6688 -0.1843  0.1695
  241MOL0     H31765   4.368   9.981   2.463 -2.2876 -1.0781 -0.7289
  241MOL0     H31766   4.036   9.836   2.611 -1.1318  0.7447 -0.7924
  241MOL0     H31767   4.095   9.841   2.444  1.1705 -0.6341  0.0227
  241MOL0     H31768   3.939   9.999   2.468  0.0722 -1.8016 -0.5482
  241MOL0     H31769   4.099  10.080   2.441  1.9223 -3.1596 -0.0295
  241MOL0     H31770   3.961  10.058   2.724  2.5557 -0.8444  3.1812
  241MOL0     H31771   4.127  10.125   2.681 -1.0690 -1.7400  1.1922
  241MOL0     H31772   3.931  10.308   2.688  4.1171  1.3316  0.5892
  241MOL0     H31773   3.856  10.220   2.560 -0.6348  1.0562  1.7295
  241MOL0     H31774   4.084  10.450   2.761  0.0182 -2.1647  0.4413
  241MOL0     H31775   4.303  10.547   2.828 -0.7373  0.6698 -0.8171
  241MOL0     H31776   4.706  10.636   2.429 -1.7259  2.8457  1.6642
  241MOL0     H31777   4.919  10.774   2.408  1.0204  2.3406  0.4131
  241MOL0     H31778   4.951  10.985   2.536 -0.0204 -1.9496  2.3327
  241MOL0     H31779   5.074  10.915   2.430  2.3917 -1.8780  0.7650
  241MOL0     H31780   5.131  11.131   2.475 -0.1562 -1.5497 -0.4360
  241MOL0     H31781   5.245  11.027   2.563  0.6463  0.1812  4.0717
  241MOL0     H31782   5.089  11.069   2.767  3.1353  0.4767  1.2623
  241MOL0     H31783   4.998  11.186   2.666 -0.8773 -0.8192  2.5579
  241MOL0     H31784   5.296  11.198   2.703 -0.6645  0.9012 -0.0319
  241MOL0     H31785   5.188  11.318   2.624 -0.1155 -1.8323 -1.3011
  241MOL0     H31786   5.190  11.236   2.922  0.7033 -0.3597 -0.5480
  241MOL0     H31787   5.068  11.341   2.849  0.4645  0.0229  0.6784
  241MOL0     H31788   5.379  11.377   2.849  0.4509  0.8222 -1.1557
  241MOL0     H31789   5.280  11.457   2.970  1.4730 -1.6489  0.4930
  241MOL0     H31790   5.349  11.607   2.805  1.9563 -1.5568 -1.1978
  241MOL0     H31791   5.285  11.503   2.670 -0.1525 -2.0632  0.8917
  241MOL0     H31792   5.051  11.541   2.786 -0.7883  1.4893 -0.7659
  241MOL0     H31793   5.121  11.670   2.693 -3.1395  0.1299 -0.3012
  241MOL0     H31794   4.948  10.717   2.830 -1.3917  1.7984  0.0224
  241MOL0     H31795   4.802  10.534   2.824 -0.3159  0.0791 -0.4154
  241MOL0     H31796   4.441  10.473   2.433 -2.7179  0.9352 -2.6487
  241MOL0     H31797   4.238  10.351   2.370 -1.6763 -0.2224  0.7589
  241MOL0     H31798   5.323  10.705   3.188  0.0005 -1.7194  0.3058
  241MOL0     H31799   5.436  10.929   3.175 -0.6528 -1.3336  1.1153
  241MOL0     H31800   5.497  11.389   3.131  0.7115 -2.9321  0.8828
  241MOL0     H31801   5.633  11.595   3.073  1.8121 -0.0253  0.1994
  241MOL0     H31802   5.809  11.766   3.035  3.6617 -0.9822 -0.7429
  241MOL0     H31803   5.678  11.770   2.906 -0.8269  0.1205 -1.8832
  241MOL0     H31804   5.790  11.942   2.844 -2.8806 -1.6249  1.9431
  241MOL0     H31805   5.947  11.879   2.884 -0.8485  2.5221  3.6620
  241MOL0     H31806   5.752  11.821   2.657  1.3735  4.9981 -2.7179
  241MOL0     H31807   5.897  11.721   2.681  2.4763  1.4647  0.6145
  241MOL0     H31808   5.871  12.011   2.617 -0.2496  0.9332  4.6198
  241MOL0     H31809   6.023  11.937   2.667  1.6389  1.0012 -3.5213
  241MOL0     H31810   5.943  11.793   2.268 -1.4508 -1.2295  1.7077
  241MOL0     H31811   5.864  11.348   2.816 -0.5883  0.2742 -1.4178
  241MOL0     H31812   5.732  11.154   2.876  2.0966 -0.9972  4.7337
  242MOL0     O31813   3.743  11.102   8.589 -0.6670  1.1513 -0.8966
  242MOL0     C31814   3.724  11.052   8.701  0.0667  0.2801 -0.0712
  242MOL0     O31815   3.811  11.025   8.796  0.1179  1.0534 -0.6203
  242MOL0     C31816   3.930  11.100   8.800  0.1492 -0.2956 -0.5177
  242MOL0     C31817   4.029  11.098   8.703 -0.1213 -0.3206  0.4560
  242MOL0     C31818   4.149  11.172   8.717  0.4981 -0.0097 -0.7907
  242MOL0     C31819   4.171  11.243   8.835 -0.0553  0.9942  0.3225
  242MOL0     O31820   4.297  11.295   8.870  0.0266 -0.2947 -0.8828
  242MOL0     C31821   4.395  11.324   8.773  0.1172 -0.3705 -0.9641
  242MOL0     C31822   4.520  11.296   8.850 -0.3406 -0.3099 -0.5335
  242MOL0     C31823   4.632  11.294   8.755  0.0589  0.0969  0.4424
  242MOL0     C31824   4.767  11.279   8.824 -0.7295 -0.1467 -0.4147
  242MOL0     C31825   4.855  11.244   8.705  0.2503  0.4662  0.7336
  242MOL0     C31826   5.002  11.238   8.742  1.0992 -0.1171  0.3682
  242MOL0     C31827   5.086  11.150   8.650 -0.3868 -0.1820 -0.4784
  242MOL0     C31828   5.182  11.235   8.554  0.1595 -0.4368 -0.3022
  242MOL0     N31829   5.265  11.337   8.620  0.0074 -0.0111 -0.0347
  242MOL0     C31830   5.305  11.452   8.564  0.0063 -0.1047  0.2913
  242MOL0     C31831   5.398  11.510   8.644  0.2872  0.1361  0.1703
  242MOL0     C31832   5.461  11.639   8.635  0.5177 -0.4092  0.4610
  242MOL0     C31833   5.474  11.695   8.492  1.3509 -0.1798 -0.6750
  242MOL0     C31834   5.570  11.598   8.414 -0.1514 -0.3937 -0.7163
  242MOL0     C31835   5.578  11.640   8.266 -0.5245 -0.9276  0.3231
  242MOL0     O31836   5.657  11.553   8.191 -0.0029  0.1329 -0.2428
  242MOL0     C31837   5.790  11.549   8.191  0.9519 -0.1212  0.1152
  242MOL0     C31838   5.869  11.628   8.270 -0.9349 -0.3450 -0.0332
  242MOL0     C31839   6.006  11.632   8.260  0.0778  0.4368 -0.0735
  242MOL0     C31840   6.071  11.546   8.163 -0.1352 -0.0009  0.0468
  242MOL0     C31841   6.209  11.583   8.134  0.0627 -0.0919  1.0125
  242MOL0     O31842   6.255  11.525   8.021 -0.3162 -0.9818 -0.7492
  242MOL0     C31843   6.384  11.543   7.970  0.5555  0.9914  0.4313
  242MOL0     C31844   6.425  11.673   7.937  0.7388  0.7478  0.0152
  242MOL0     C31845   6.550  11.686   7.869  0.5441 -0.5303  1.1789
  242MOL0     C31846   6.625  11.576   7.828 -0.6639 -0.4169  0.2442
  242MOL0     O31847   6.740  11.596   7.752  0.4320  0.9924 -0.4948
  242MOL0     C31848   6.845  11.647   7.833  0.1502 -0.8608  0.4170
  242MOL0     C31849   6.933  11.543   7.898  0.4421  0.0151 -0.0550
  242MOL0     C31850   6.976  11.426   7.806  0.3034  0.3229 -0.4647
  242MOL0     C31851   7.038  11.459   7.670 -0.6262 -0.2536 -0.4878
  242MOL0     C31852   7.169  11.549   7.685 -0.6289  0.8002 -0.2450
  242MOL0     C31853   7.276  11.482   7.775 -0.5876 -0.5622  0.4884
  242MOL0     C31854   7.338  11.355   7.710 -0.1776 -0.3635  0.3749
  242MOL0     C31855   7.489  11.366   7.709 -0.1154 -0.5920 -0.7188
  242MOL0    Cl31856   7.575  11.238   7.607  0.1983 -0.3772  0.4514
  242MOL0     C31857   6.580  11.452   7.867 -0.1010  0.0751 -0.9482
  242MOL0     C31858   6.460  11.432   7.929  0.8042  0.1618  0.1511
  242MOL0     O31859   6.267  11.668   8.199 -0.0218 -0.1067  0.1974
  242MOL0     C31860   5.999  11.456   8.096  0.3373 -0.8209  0.0307
  242MOL0     C31861   5.861  11.462   8.107 -0.4115 -0.1172 -0.5138
  242MOL0     N31862   5.410  11.421   8.751  0.1080 -0.2791 -0.1551
  242MOL0     N31863   5.319  11.331   8.740  0.3214  0.7475 -0.1040
  242MOL0     C31864   4.072  11.244   8.930  0.1295  0.4095 -0.2861
  242MOL0     C31865   3.948  11.191   8.906  0.3577  0.3351  0.3750
  242MOL0     C31866   3.589  10.987   8.730 -0.8915  0.3492 -1.2352
  242MOL0     C31867   3.544  10.946   8.856  0.0310 -0.0169 -0.2415
  242MOL0     C31868   3.421  10.896   8.881 -0.7256 -0.5242 -0.2279
  242MOL0     C31869   3.335  10.862   8.773  0.4021 -0.1121 -0.6901
  242MOL0     O31870   3.215  10.807   8.783 -0.0324  0.2146  0.5041
  242MOL0     C31871   3.154  10.796   8.913 -0.0296 -0.3338  0.7366
  242MOL0     C31872   3.001  10.777   8.904 -0.7946  1.5434 -0.5034
  242MOL0     C31873   2.956  10.648   8.819  0.5971  0.2540 -0.8552
  242MOL0     C31874   2.812  10.607   8.868 -0.3709  0.7350  0.2625
  242MOL0     C31875   2.712  10.697   8.821  0.1502  0.0544  0.0857
  242MOL0     C31876   2.626  10.773   8.785 -0.7207  0.3396  0.2521
  242MOL0     C31877   3.379  10.907   8.642 -0.2666 -0.9412 -0.2952
  242MOL0     C31878   3.502  10.972   8.619 -0.0180  0.1948 -0.1583
  242MOL0     H31879   4.010  11.050   8.608 -1.1828  2.1176 -0.6189
  242MOL0     H31880   4.224  11.166   8.638 -0.7621 -1.6806 -1.9239
  242MOL0     H31881   4.386  11.431   8.753 -3.4827 -0.4099 -0.2865
  242MOL0     H31882   4.388  11.247   8.695 -1.9188 -2.1038  0.7802
  242MOL0     H31883   4.517  11.206   8.911 -0.3832  0.7409  1.0773
  242MOL0     H31884   4.540  11.379   8.919  0.1973  0.6260 -1.7719
  242MOL0     H31885   4.633  11.386   8.697  3.1668  0.5294  1.0190
  242MOL0     H31886   4.624  11.208   8.688  1.6563  0.7702 -0.6889
  242MOL0     H31887   4.803  11.376   8.861  1.1403 -0.6038 -0.9453
  242MOL0     H31888   4.783  11.199   8.897  0.5648  0.2167 -0.2882
  242MOL0     H31889   4.838  11.314   8.623  0.1840 -1.2070 -0.7438
  242MOL0     H31890   4.816  11.148   8.669  0.7178  1.0928 -1.5445
  242MOL0     H31891   5.007  11.196   8.843 -0.7308 -0.8002  0.2101
  242MOL0     H31892   5.038  11.341   8.744  0.2946  0.2827 -2.3336
  242MOL0     H31893   5.158  11.089   8.705 -0.7550  0.9174  1.3081
  242MOL0     H31894   5.016  11.093   8.589 -1.2719 -0.7757  1.0207
  242MOL0     H31895   5.118  11.280   8.477  1.3085  0.6314 -0.6695
  242MOL0     H31896   5.255  11.176   8.498  2.8901  0.8743  1.6887
  242MOL0     H31897   5.259  11.485   8.471 -0.6680  0.4275  0.7993
  242MOL0     H31898   5.562  11.628   8.676  1.1556  1.2800 -0.5346
  242MOL0     H31899   5.400  11.705   8.698 -1.6904  0.2739 -2.1948
  242MOL0     H31900   5.508  11.799   8.501 -2.9035  1.3147  0.4292
  242MOL0     H31901   5.376  11.697   8.444  0.9714 -0.4392  0.0720
  242MOL0     H31902   5.670  11.603   8.459  0.4213  0.5528 -2.0184
  242MOL0     H31903   5.522  11.501   8.401 -2.1635  0.4315  0.2682
  242MOL0     H31904   5.607  11.743   8.242 -2.7141  0.3325  2.6526
  242MOL0     H31905   5.475  11.638   8.231 -1.1301  0.3073  1.9146
  242MOL0     H31906   5.818  11.693   8.341 -1.0469  1.4410 -1.6485
  242MOL0     H31907   6.054  11.700   8.330 -1.3835 -1.1311  2.6569
  242MOL0     H31908   6.359  11.757   7.953  1.1300  1.1918 -0.6567
  242MOL0     H31909   6.579  11.788   7.843 -1.3690  0.2802  2.0361
  242MOL0     H31910   6.805  11.715   7.909  0.8735 -1.5930  1.4855
  242MOL0     H31911   6.902  11.718   7.772 -0.3639  2.1744  3.1917
  242MOL0     H31912   6.869  11.515   7.982 -0.4169  1.4229 -0.2015
  242MOL0     H31913   7.032  11.585   7.920  0.6809 -0.6623  0.1755
  242MOL0     H31914   6.898  11.352   7.790  1.6490 -0.9708 -1.3298
  242MOL0     H31915   7.043  11.357   7.858  0.4234 -0.3237 -1.4553
  242MOL0     H31916   7.066  11.357   7.642 -0.1272 -0.8523  1.9373
  242MOL0     H31917   6.960  11.493   7.601 -1.2937 -2.0535 -0.6696
  242MOL0     H31918   7.145  11.643   7.737 -1.8513 -1.9078  4.6660
  242MOL0     H31919   7.207  11.575   7.585  1.7736 -0.7246  0.1998
  242MOL0     H31920   7.241  11.456   7.875  1.6455 -0.0780  1.4757
  242MOL0     H31921   7.365  11.546   7.786  2.3833 -3.1908 -4.5799
  242MOL0     H31922   7.308  11.262   7.759 -0.8897 -0.5917 -0.4698
  242MOL0     H31923   7.314  11.342   7.604  1.7377 -0.8019 -0.0433
  242MOL0     H31924   7.527  11.370   7.811 -0.4939  0.3786 -0.6104
  242MOL0     H31925   7.514  11.459   7.658 -2.0352  0.0557 -0.5867
  242MOL0     H31926   6.646  11.371   7.838 -4.4022 -3.3095 -2.4154
  242MOL0     H31927   6.415  11.335   7.944 -3.9657  2.1087  0.2644
  242MOL0     H31928   6.053  11.391   8.027 -1.7369 -1.9947 -0.5597
  242MOL0     H31929   5.802  11.392   8.048 -0.9059 -1.9076  1.9413
  242MOL0     H31930   4.097  11.294   9.023  2.8509  0.0662 -0.7399
  242MOL0     H31931   3.869  11.204   8.979 -0.5721 -1.1825 -0.2952
  242MOL0     H31932   3.610  10.966   8.940 -1.1771  0.4182  0.6237
  242MOL0     H31933   3.394  10.882   8.985 -1.6092  0.2056 -0.3464
  242MOL0     H31934   3.177  10.892   8.959 -2.5612  1.7814 -1.9984
  242MOL0     H31935   3.211  10.713   8.956  0.1533 -1.1478 -0.9800
  242MOL0     H31936   2.968  10.778   9.008  1.6800  1.8233  0.3263
  242MOL0     H31937   2.965  10.871   8.862 -1.1253  2.8127  2.3910
  242MOL0     H31938   3.020  10.563   8.843  2.2716  1.6335 -0.1789
  242MOL0     H31939   2.961  10.672   8.712 -1.3428  1.5595 -0.6935
  242MOL0     H31940   2.795  10.507   8.827 -0.2928  1.5045 -1.7936
  242MOL0     H31941   2.805  10.606   8.977 -0.8806  0.5136  0.2314
  242MOL0     H31942   2.566  10.847   8.736 -0.0449 -0.9841 -2.8129
  242MOL0     H31943   3.312  10.909   8.557  1.5558  2.9089 -1.8951
  242MOL0     H31944   3.527  10.996   8.516 -1.2857 -0.4060 -0.6242
  243MOL0     O31945  10.799   4.174   4.133 -0.5287 -0.1011  0.0104
  243MOL0     C31946  10.862   4.075   4.172 -0.0694  0.1612  0.5284
  243MOL0     O31947  10.824   3.946   4.152 -0.0423 -0.5945  0.2485
  243MOL0     C31948  10.695   3.931   4.117  0.8567  0.2377  0.7590
  243MOL0     C31949  10.668   3.911   3.982 -0.2821  1.5720 -0.0201
  243MOL0     C31950  10.545   3.893   3.934  0.7772  0.4878  0.2891
  243MOL0     C31951  10.441   3.877   4.032  0.1814 -0.1450  1.0348
  243MOL0     O31952  10.314   3.845   3.985 -0.4993 -0.3151  0.0778
  243MOL0     C31953  10.220   3.828   4.087  1.1065 -0.0461  0.8627
  243MOL0     C31954  10.071   3.813   4.032 -0.6042 -1.0935 -0.0482
  243MOL0     C31955   9.969   3.751   4.126 -1.5513  0.5206 -0.5180
  243MOL0     C31956   9.837   3.735   4.054  0.0815  0.0617  0.1766
  243MOL0     C31957   9.725   3.688   4.147  0.0244 -0.6507  0.3318
  243MOL0     C31958   9.702   3.794   4.262 -0.8936  0.0223  0.1300
  243MOL0     C31959   9.591   3.751   4.357  0.7587 -0.0023 -0.1408
  243MOL0     C31960   9.595   3.849   4.472  0.6274  0.9316  0.1503
  243MOL0     N31961   9.469   3.842   4.545  0.7600 -0.0133  0.0427
  243MOL0     C31962   9.349   3.897   4.495 -0.2090 -0.7367 -0.0356
  243MOL0     C31963   9.283   3.933   4.605  0.2046  1.3118 -0.8382
  243MOL0     C31964   9.149   3.999   4.613 -0.5655 -1.2509 -0.6026
  243MOL0     C31965   9.031   3.900   4.612 -0.4107  0.0973 -0.5483
  243MOL0     C31966   9.024   3.797   4.506 -0.7700  0.0066 -0.0172
  243MOL0     C31967   8.881   3.759   4.486 -0.5925  0.4393 -0.4145
  243MOL0     O31968   8.807   3.737   4.611  0.1290  0.2014  0.5982
  243MOL0     C31969   8.697   3.666   4.594 -0.1122  0.2765  0.1131
  243MOL0     C31970   8.679   3.561   4.672  1.2045  0.7935  0.1209
  243MOL0     C31971   8.570   3.477   4.652  0.1095 -0.9025 -0.3354
  243MOL0     C31972   8.475   3.496   4.556  0.1589  0.0593 -0.2251
  243MOL0     C31973   8.359   3.404   4.550  0.9887  0.2053  0.0552
  243MOL0     O31974   8.271   3.439   4.444 -0.4383 -0.6176 -0.5928
  243MOL0     C31975   8.140   3.397   4.439  0.2241 -0.2466  0.2677
  243MOL0     C31976   8.105   3.263   4.436  0.4553 -0.1778  0.3029
  243MOL0     C31977   7.970   3.221   4.418  0.3794  0.5916  0.2499
  243MOL0     C31978   7.870   3.316   4.400 -0.4362 -1.2673  0.7529
  243MOL0     O31979   7.744   3.298   4.355 -0.6588  0.2691  0.5277
  243MOL0     C31980   7.674   3.173   4.397  0.3678  0.1958  0.1518
  243MOL0     C31981   7.526   3.204   4.376 -0.1193  0.0156 -0.4253
  243MOL0     C31982   7.442   3.101   4.453  0.5586 -0.6682 -0.1032
  243MOL0     C31983   7.290   3.118   4.432  0.7328 -0.5343 -0.5324
  243MOL0     C31984   7.212   3.020   4.524 -0.1569  0.4575  1.2042
  243MOL0     C31985   7.250   3.012   4.666  0.5034  0.7473 -0.3334
  243MOL0     C31986   7.208   3.140   4.736  1.0506  0.1662  0.6317
  243MOL0     C31987   7.089   3.122   4.821 -0.0311  0.4989  0.2883
  243MOL0    Cl31988   6.940   3.074   4.728 -0.0332  0.3458 -0.7538
  243MOL0     C31989   7.904   3.455   4.408  0.2403  0.0046 -0.0975
  243MOL0     C31990   8.039   3.496   4.423 -0.0534 -0.3787  0.5066
  243MOL0     O31991   8.336   3.312   4.631  0.2446 -0.1879  0.2368
  243MOL0     C31992   8.489   3.605   4.482 -0.4351 -0.0334 -0.3145
  243MOL0     C31993   8.595   3.691   4.500  0.3237 -0.0080 -0.2274
  243MOL0     N31994   9.350   3.879   4.725 -0.0847 -1.2047 -0.6211
  243MOL0     N31995   9.461   3.824   4.677  0.9714  0.5952 -0.5499
  243MOL0     C31996  10.467   3.905   4.172 -0.5858  0.5515  0.8588
  243MOL0     C31997  10.596   3.936   4.204 -1.1465  0.9087 -0.0255
  243MOL0     C31998  10.995   4.089   4.244 -0.5459 -1.2263 -0.0077
  243MOL0     C31999  11.060   4.002   4.331  0.4942 -1.2943 -0.8241
  243MOL0     C32000  11.180   4.037   4.395  0.3003  0.8457  0.2074
  243MOL0     C32001  11.239   4.159   4.363 -1.6601 -0.7454 -0.0053
  243MOL0     O32002  11.368   4.194   4.404 -0.0858  0.1905  0.2513
  243MOL0     C32003  11.453   4.100   4.483 -0.4707 -0.2161  1.6103
  243MOL0     C32004  11.579   4.174   4.519 -0.7609  0.3295  0.0117
  243MOL0     C32005  11.683   4.091   4.578 -0.1844  0.3532  0.0567
  243MOL0     C32006  11.691   4.108   4.729 -1.0498 -1.2112  0.6602
  243MOL0     C32007  11.577   4.037   4.787 -0.6901 -1.1289  0.0667
  243MOL0     C32008  11.490   3.959   4.826  0.1245  0.1755  0.2649
  243MOL0     C32009  11.183   4.248   4.273 -0.1574 -0.0895  0.4684
  243MOL0     C32010  11.055   4.217   4.222  0.5534 -0.2734 -0.4273
  243MOL0     H32011  10.757   3.926   3.922 -0.7043 -2.6336 -2.0126
  243MOL0     H32012  10.511   3.900   3.831 -0.5357  3.7494  0.8149
  243MOL0     H32013  10.212   3.924   4.140  1.3339  0.1191  0.5943
  243MOL0     H32014  10.240   3.746   4.156 -0.4531 -1.6282 -0.4783
  243MOL0     H32015  10.081   3.740   3.950 -1.1022 -1.4895  0.2347
  243MOL0     H32016  10.024   3.904   3.995 -0.5232 -0.6439  0.9435
  243MOL0     H32017   9.954   3.810   4.217 -2.7865  0.0008 -0.3639
  243MOL0     H32018  10.006   3.654   4.158 -1.2550  1.6199  2.8309
  243MOL0     H32019   9.810   3.834   4.015  1.7069  0.4319 -0.1048
  243MOL0     H32020   9.854   3.655   3.981 -3.5966 -2.8078  2.1003
  243MOL0     H32021   9.753   3.592   4.192 -1.5149 -1.5688 -0.5792
  243MOL0     H32022   9.623   3.696   4.108 -0.1348  2.3462  1.0832
  243MOL0     H32023   9.682   3.894   4.222 -2.2304 -0.0985  0.4286
  243MOL0     H32024   9.794   3.806   4.320 -1.1774  0.1653  0.5553
  243MOL0     H32025   9.493   3.747   4.307  0.3319 -1.3084  0.7268
  243MOL0     H32026   9.593   3.651   4.401 -1.8330 -0.4068 -0.7649
  243MOL0     H32027   9.603   3.951   4.432 -2.7157  0.6341 -1.6300
  243MOL0     H32028   9.686   3.820   4.525  1.8738  1.7315 -1.4664
  243MOL0     H32029   9.328   3.915   4.391  0.2533  0.0316 -0.0007
  243MOL0     H32030   9.131   4.075   4.537  1.0267  1.1922  1.3236
  243MOL0     H32031   9.152   4.055   4.707 -0.1678  0.1013 -1.4111
  243MOL0     H32032   8.947   3.967   4.594  0.5746  1.5082 -0.0673
  243MOL0     H32033   9.014   3.857   4.711  1.7084 -0.1932 -0.2490
  243MOL0     H32034   9.060   3.835   4.410 -1.6558 -2.7420 -1.5717
  243MOL0     H32035   9.068   3.701   4.535 -0.5731  0.0121 -0.2942
  243MOL0     H32036   8.873   3.679   4.413 -0.3038  0.6016 -0.6268
  243MOL0     H32037   8.846   3.851   4.438  3.5982  2.5028  0.0329
  243MOL0     H32038   8.746   3.532   4.752  0.6988 -0.4339  0.1177
  243MOL0     H32039   8.558   3.395   4.723 -1.3964 -1.3356 -1.0661
  243MOL0     H32040   8.187   3.192   4.441  1.6115  0.9261 -1.4754
  243MOL0     H32041   7.958   3.115   4.397  0.5504  0.6317 -0.0554
  243MOL0     H32042   7.691   3.168   4.505 -1.5660  1.1109  0.5462
  243MOL0     H32043   7.706   3.084   4.342 -1.2396 -0.1921 -0.2002
  243MOL0     H32044   7.513   3.191   4.268  1.0419 -3.6230 -0.2832
  243MOL0     H32045   7.504   3.306   4.408  0.0633  0.1623 -0.7516
  243MOL0     H32046   7.468   3.123   4.557 -0.3526  1.0739 -0.2145
  243MOL0     H32047   7.468   2.996   4.435  4.6874  0.1025  0.3878
  243MOL0     H32048   7.261   3.217   4.468  0.9366 -1.5782  2.8638
  243MOL0     H32049   7.267   3.097   4.327 -1.1393  0.9603 -0.4654
  243MOL0     H32050   7.231   2.920   4.485  4.8606  1.4723  0.4690
  243MOL0     H32051   7.104   3.041   4.528 -0.1032  0.6517  1.9200
  243MOL0     H32052   7.354   2.981   4.684  0.4578  0.5584 -0.3903
  243MOL0     H32053   7.191   2.930   4.708  1.5802  0.6281  1.0134
  243MOL0     H32054   7.295   3.185   4.784  1.6190  1.6612 -1.6037
  243MOL0     H32055   7.169   3.211   4.662 -2.2782 -2.8616 -0.8434
  243MOL0     H32056   7.064   3.211   4.879 -2.1344 -0.8143  1.5201
  243MOL0     H32057   7.122   3.043   4.889 -2.2116 -2.3008 -1.6488
  243MOL0     H32058   7.814   3.515   4.397 -1.4183 -2.7885 -3.6618
  243MOL0     H32059   8.058   3.602   4.416 -2.9393  0.1943  0.2459
  243MOL0     H32060   8.424   3.642   4.403  0.6950  2.0863 -0.3279
  243MOL0     H32061   8.606   3.773   4.429  0.0718  1.3853  1.2749
  243MOL0     H32062  10.384   3.903   4.241 -2.0041 -5.9254 -0.3288
  243MOL0     H32063  10.613   3.974   4.304  1.2626  3.5820 -1.3165
  243MOL0     H32064  11.024   3.900   4.348  0.4651 -0.9503  1.5542
  243MOL0     H32065  11.237   3.956   4.441 -1.5374 -0.6278 -0.0023
  243MOL0     H32066  11.474   4.019   4.412  0.4997  1.3543  0.0379
  243MOL0     H32067  11.401   4.076   4.577 -1.3496  1.0722  1.4780
  243MOL0     H32068  11.619   4.232   4.435 -1.2089  1.8655  0.8087
  243MOL0     H32069  11.554   4.255   4.589  0.1771 -0.0927  0.8565
  243MOL0     H32070  11.777   4.123   4.532  0.4008  1.2486  1.7863
  243MOL0     H32071  11.671   3.985   4.554 -1.2553  0.7197 -1.1376
  243MOL0     H32072  11.792   4.073   4.754 -0.0770 -1.0603 -2.5885
  243MOL0     H32073  11.680   4.212   4.758 -0.4106 -0.5424 -1.3286
  243MOL0     H32074  11.410   3.896   4.859 -0.2917  0.0268 -0.9763
  243MOL0     H32075  11.232   4.335   4.229  1.3242 -0.9444  0.3664
  243MOL0     H32076  11.011   4.281   4.146 -1.8683 -3.1178 -1.5794
  244MOL0     O32077   5.897   1.497   2.793  0.5677 -0.0519  0.1714
  244MOL0     C32078   5.958   1.537   2.698 -0.2615  0.6149  0.2498
  244MOL0     O32079   5.930   1.512   2.570 -0.6490 -0.0372  0.2271
  244MOL0     C32080   5.805   1.468   2.544  0.8390  0.9553 -0.3235
  244MOL0     C32081   5.700   1.559   2.546 -0.7335 -0.4831  0.2963
  244MOL0     C32082   5.575   1.517   2.503  0.0443 -0.5145 -0.0418
  244MOL0     C32083   5.540   1.394   2.468 -0.1718 -0.3679  0.1823
  244MOL0     O32084   5.411   1.345   2.446  0.1501 -0.6348 -0.4092
  244MOL0     C32085   5.310   1.446   2.437  0.2812  1.2610 -0.7868
  244MOL0     C32086   5.199   1.367   2.361  0.0614  0.0610  1.4726
  244MOL0     C32087   5.104   1.459   2.275 -0.7841  0.7731  0.1643
  244MOL0     C32088   4.989   1.492   2.376 -0.7252  0.3165  0.6224
  244MOL0     C32089   4.878   1.565   2.304  0.2672 -0.3349 -0.3537
  244MOL0     C32090   4.802   1.638   2.418  0.5681 -0.0839 -0.5995
  244MOL0     C32091   4.688   1.712   2.360 -0.2885  1.2652 -0.3813
  244MOL0     C32092   4.709   1.852   2.306  0.5590  0.5042 -0.0590
  244MOL0     N32093   4.588   1.925   2.299  0.1954 -0.3529  0.2474
  244MOL0     C32094   4.482   1.911   2.207 -0.4425  0.4384 -0.3399
  244MOL0     C32095   4.391   1.996   2.251  0.1509 -0.3706 -0.1837
  244MOL0     C32096   4.265   2.045   2.171 -0.5014 -0.2216  0.3514
  244MOL0     C32097   4.137   1.989   2.234  0.3052 -0.0964 -0.1724
  244MOL0     C32098   4.113   1.839   2.260 -0.1603  0.3544  0.4281
  244MOL0     C32099   4.081   1.759   2.125 -0.1164 -0.9206 -0.2697
  244MOL0     O32100   4.024   1.626   2.138  0.4758  0.0452 -0.7849
  244MOL0     C32101   3.905   1.605   2.204  0.7468  0.0355  0.2026
  244MOL0     C32102   3.890   1.493   2.277  0.1265  0.1932 -0.1546
  244MOL0     C32103   3.780   1.475   2.362  0.2970 -0.2233  0.3966
  244MOL0     C32104   3.662   1.555   2.338 -0.3514  0.1541 -0.0931
  244MOL0     C32105   3.537   1.525   2.409  0.6721 -0.7055  0.0101
  244MOL0     O32106   3.424   1.574   2.351  0.2563 -0.2490 -0.4088
  244MOL0     C32107   3.297   1.549   2.400 -1.3262 -0.3192  0.6366
  244MOL0     C32108   3.264   1.525   2.535 -0.1217  0.1933 -0.9754
  244MOL0     C32109   3.131   1.514   2.572  0.4026  0.0776 -0.8087
  244MOL0     C32110   3.030   1.541   2.475  1.0799  0.2764  0.3685
  244MOL0     O32111   2.891   1.525   2.487 -0.4847  0.2376 -0.3609
  244MOL0     C32112   2.845   1.476   2.617  0.1474  0.7918 -0.4029
  244MOL0     C32113   2.695   1.451   2.599  0.0725 -0.0384 -0.2838
  244MOL0     C32114   2.616   1.582   2.564  0.0238 -0.2727  1.3694
  244MOL0     C32115   2.463   1.559   2.568  0.3097 -0.0533 -1.2622
  244MOL0     C32116   2.387   1.685   2.578  0.1058 -1.0718 -1.3030
  244MOL0     C32117   2.239   1.667   2.576  0.7862 -0.1632  1.1381
  244MOL0     C32118   2.163   1.751   2.681  0.2069 -0.4359  0.6602
  244MOL0     C32119   2.025   1.784   2.625  0.3590  0.4482 -0.1268
  244MOL0    Cl32120   1.907   1.832   2.752  0.1292  0.1290 -0.1851
  244MOL0     C32121   3.070   1.570   2.350  0.4353 -0.4741 -0.2081
  244MOL0     C32122   3.202   1.574   2.299  0.4916  0.5428 -0.2614
  244MOL0     O32123   3.543   1.452   2.506 -0.3708  0.1845  0.0517
  244MOL0     C32124   3.673   1.669   2.259 -0.9834  0.1051 -0.0850
  244MOL0     C32125   3.797   1.696   2.200  0.6048 -0.5202 -0.3824
  244MOL0     N32126   4.446   2.067   2.360  0.4175  0.7981 -0.1073
  244MOL0     N32127   4.561   2.014   2.393 -0.0595  0.9667  0.5699
  244MOL0     C32128   5.648   1.300   2.467 -0.0938 -0.2763 -0.9347
  244MOL0     C32129   5.781   1.338   2.506  0.2008 -0.4083 -0.0482
  244MOL0     C32130   6.075   1.624   2.730  0.1648 -0.6975 -0.6078
  244MOL0     C32131   6.078   1.751   2.670 -0.0925  0.4748  0.3230
  244MOL0     C32132   6.178   1.846   2.708 -0.0089  0.7105  0.5328
  244MOL0     C32133   6.269   1.819   2.802  0.2243 -0.4429  0.3056
  244MOL0     O32134   6.365   1.908   2.842 -0.5815  1.3477 -0.1453
  244MOL0     C32135   6.363   2.039   2.795 -0.3966 -0.2807 -0.3679
  244MOL0     C32136   6.475   2.113   2.844  0.1486 -0.1239 -0.7473
  244MOL0     C32137   6.499   2.235   2.757  0.6769 -0.3849 -0.4839
  244MOL0     C32138   6.614   2.322   2.799 -0.5303  0.2976  0.8007
  244MOL0     C32139   6.589   2.381   2.932  0.1091  0.2571  0.3054
  244MOL0     C32140   6.566   2.439   3.038  0.1124 -0.6192  0.2904
  244MOL0     C32141   6.259   1.700   2.874  0.0414 -0.0217  0.5471
  244MOL0     C32142   6.170   1.604   2.838  0.1692  0.0070 -0.8626
  244MOL0     H32143   5.739   1.653   2.581  1.4903 -0.7358 -1.3014
  244MOL0     H32144   5.505   1.600   2.502 -0.6189 -1.0683 -0.7027
  244MOL0     H32145   5.352   1.534   2.388  3.8487  0.7085  0.9208
  244MOL0     H32146   5.284   1.493   2.533 -1.5765  0.1818 -0.7165
  244MOL0     H32147   5.140   1.305   2.429 -1.6226 -2.4138 -1.9091
  244MOL0     H32148   5.255   1.307   2.289 -2.4634  0.6093 -1.1299
  244MOL0     H32149   5.071   1.404   2.186  0.3745  0.1028  0.1337
  244MOL0     H32150   5.162   1.548   2.249  2.8779  0.4847  5.7535
  244MOL0     H32151   4.947   1.401   2.420 -0.1693  0.2905  1.1210
  244MOL0     H32152   5.037   1.552   2.454 -2.9646  2.8275  0.2325
  244MOL0     H32153   4.820   1.494   2.245  0.0724 -0.0633 -0.4913
  244MOL0     H32154   4.916   1.644   2.238  0.6043  2.6604  3.0529
  244MOL0     H32155   4.862   1.714   2.469 -3.5547  2.6401  0.6421
  244MOL0     H32156   4.762   1.570   2.494 -2.1470 -0.0068 -1.8422
  244MOL0     H32157   4.635   1.639   2.298  0.5457  0.9146 -0.6989
  244MOL0     H32158   4.611   1.714   2.437  1.2046 -0.4981  1.2603
  244MOL0     H32159   4.756   1.847   2.208 -1.5436 -1.2338 -1.0496
  244MOL0     H32160   4.769   1.897   2.386  2.0376  0.7001 -1.2321
  244MOL0     H32161   4.488   1.869   2.107  1.9528 -1.7297  0.6179
  244MOL0     H32162   4.286   2.015   2.068 -0.1728  2.3393 -0.3790
  244MOL0     H32163   4.263   2.154   2.163  0.6416 -0.1422  0.8449
  244MOL0     H32164   4.052   2.033   2.182 -0.3986 -1.0763  0.1202
  244MOL0     H32165   4.138   2.032   2.335 -2.4164  0.2756 -0.2156
  244MOL0     H32166   4.196   1.796   2.316  0.5873 -1.3486 -1.8402
  244MOL0     H32167   4.021   1.814   2.314  0.9314  1.2379  2.8313
  244MOL0     H32168   4.178   1.744   2.076  1.0477 -0.6808  1.8291
  244MOL0     H32169   4.021   1.817   2.054 -0.5727 -1.3608 -0.2472
  244MOL0     H32170   3.973   1.424   2.290 -0.2856 -0.0473  1.3389
  244MOL0     H32171   3.774   1.395   2.436 -0.0260 -0.7865 -0.2208
  244MOL0     H32172   3.338   1.498   2.609 -0.3005  3.5617  0.6149
  244MOL0     H32173   3.115   1.466   2.668  0.1514  0.9201 -0.4189
  244MOL0     H32174   2.868   1.521   2.714 -0.3224 -1.3234  0.7485
  244MOL0     H32175   2.885   1.374   2.622  0.1560  0.8307  0.3430
  244MOL0     H32176   2.663   1.407   2.695 -0.7858 -0.0804 -0.5754
  244MOL0     H32177   2.679   1.378   2.519  0.7389 -1.6878  1.0217
  244MOL0     H32178   2.652   1.604   2.463  0.8500 -0.4544  1.6129
  244MOL0     H32179   2.637   1.672   2.623 -1.0962  0.2573  0.9781
  244MOL0     H32180   2.428   1.521   2.472 -1.2878  1.2411 -1.2449
  244MOL0     H32181   2.428   1.497   2.651 -2.1635  0.6329 -1.6916
  244MOL0     H32182   2.412   1.755   2.498 -0.8374  1.6283  0.6147
  244MOL0     H32183   2.428   1.721   2.672  1.2881  3.2543 -3.2424
  244MOL0     H32184   2.205   1.564   2.592 -0.5981  0.3632  1.7461
  244MOL0     H32185   2.201   1.704   2.480  2.0828  3.2364  1.7972
  244MOL0     H32186   2.146   1.681   2.763  0.9722 -0.0008  1.1985
  244MOL0     H32187   2.217   1.842   2.709  0.0800 -0.6930  1.7624
  244MOL0     H32188   1.981   1.701   2.568 -1.2260 -0.7087  2.5732
  244MOL0     H32189   2.037   1.864   2.551  0.3439  0.6789  0.1182
  244MOL0     H32190   2.995   1.563   2.272 -0.0021  0.6101  0.1019
  244MOL0     H32191   3.235   1.600   2.199  1.3483 -0.3584 -0.2293
  244MOL0     H32192   3.588   1.735   2.249 -0.6242  1.5738  4.3040
  244MOL0     H32193   3.797   1.787   2.140 -3.9475  0.1892  0.2959
  244MOL0     H32194   5.625   1.197   2.442  1.7347 -0.6910 -1.0260
  244MOL0     H32195   5.863   1.267   2.515 -1.2028 -1.8464  2.8986
  244MOL0     H32196   6.005   1.768   2.591 -3.6821 -0.4684  3.1774
  244MOL0     H32197   6.185   1.941   2.657  2.5278 -0.3874 -1.4149
  244MOL0     H32198   6.275   2.091   2.834 -1.8439  0.2230 -3.9447
  244MOL0     H32199   6.368   2.031   2.686  0.8694  0.2852 -0.3720
  244MOL0     H32200   6.458   2.138   2.949  1.2197 -2.3125  0.0275
  244MOL0     H32201   6.571   2.061   2.835  0.8225  0.9753 -0.0769
  244MOL0     H32202   6.412   2.302   2.759 -0.5575 -1.9651  0.9948
  244MOL0     H32203   6.520   2.199   2.656 -0.7494  2.6693 -2.0162
  244MOL0     H32204   6.702   2.258   2.793  0.2027  1.4167 -1.5881
  244MOL0     H32205   6.645   2.400   2.729  1.9349 -1.5625 -0.3344
  244MOL0     H32206   6.535   2.492   3.126 -2.4269 -2.7144  0.7842
  244MOL0     H32207   6.321   1.676   2.961 -1.7749 -1.2050  1.5620
  244MOL0     H32208   6.164   1.516   2.900 -1.0436  1.2681  0.9098
  245MOL0     O32209   7.359   0.285   5.912  0.8145  0.3623 -0.4516
  245MOL0     C32210   7.416   0.238   6.013  0.0143  0.1579 -0.3422
  245MOL0     O32211   7.358   0.212   6.133 -0.7760 -0.5317  0.0938
  245MOL0     C32212   7.222   0.216   6.157  0.5257  0.2571  0.6932
  245MOL0     C32213   7.129   0.188   6.053 -0.1443 -0.5543  0.2309
  245MOL0     C32214   6.997   0.174   6.079  0.1381  0.1728  0.2653
  245MOL0     C32215   6.941   0.189   6.208  0.5868 -1.2213  0.1164
  245MOL0     O32216   6.802   0.195   6.205  0.0331 -0.5257  0.3185
  245MOL0     C32217   6.740   0.229   6.332 -0.2672 -0.0857  0.5461
  245MOL0     C32218   6.587   0.255   6.323  0.4607  0.9044  0.5095
  245MOL0     C32219   6.520   0.122   6.288  0.3015  0.3582 -1.0718
  245MOL0     C32220   6.373   0.138   6.299 -0.0336 -0.1501  0.8687
  245MOL0     C32221   6.314   0.191   6.427  0.2164  0.8259  0.1570
  245MOL0     C32222   6.343   0.086   6.533 -0.2146 -0.3644 -0.4979
  245MOL0     C32223   6.240   0.096   6.651  0.7976 -1.3510  0.9607
  245MOL0     C32224   6.246  -0.038   6.726  0.1106 -0.3745 -0.4801
  245MOL0     N32225   6.140  -0.040   6.835  1.2059  0.2241 -0.2708
  245MOL0     C32226   6.001  -0.045   6.796  0.7263  0.3450  0.4056
  245MOL0     C32227   5.939  -0.062   6.917 -1.0652  0.5798 -0.0555
  245MOL0     C32228   5.792  -0.067   6.949  0.1862  0.3980 -0.6001
  245MOL0     C32229   5.747   0.050   7.039 -0.7305 -0.0818 -0.2775
  245MOL0     C32230   5.616   0.001   7.107  0.1186  0.1159  0.4392
  245MOL0     C32231   5.493   0.062   7.051  0.0293 -0.4381 -0.2634
  245MOL0     O32232   5.391   0.069   7.155  0.1075 -0.4191  0.0339
  245MOL0     C32233   5.264   0.090   7.116  0.1715  0.5355 -0.5714
  245MOL0     C32234   5.172   0.101   7.223 -0.3783  0.5052  0.0712
  245MOL0     C32235   5.036   0.116   7.199 -0.4075  0.0879  0.3461
  245MOL0     C32236   4.990   0.145   7.070 -0.6510  0.9157  0.2100
  245MOL0     C32237   4.854   0.172   7.032 -0.0367  0.4692 -0.5015
  245MOL0     O32238   4.761   0.142   7.126  0.2627  0.2449 -0.2103
  245MOL0     C32239   4.629   0.168   7.099  0.4038  0.2636 -0.0506
  245MOL0     C32240   4.537   0.060   7.113  0.2185  0.2709 -0.1455
  245MOL0     C32241   4.406   0.071   7.071  0.4633  0.0351  0.1853
  245MOL0     C32242   4.366   0.180   7.004  0.2312 -0.2052 -0.2284
  245MOL0     O32243   4.242   0.170   6.949 -0.4075 -0.4012 -0.3233
  245MOL0     C32244   4.173   0.295   6.921  0.0332 -0.8662 -0.3467
  245MOL0     C32245   4.057   0.284   6.831  0.3726  0.0349 -0.0410
  245MOL0     C32246   3.951   0.175   6.863 -0.5287 -0.3102 -0.1707
  245MOL0     C32247   3.828   0.174   6.768  0.4230  0.0035  0.6753
  245MOL0     C32248   3.689   0.131   6.829  0.1017  0.0644  0.1824
  245MOL0     C32249   3.650   0.209   6.958  0.0928  0.8453  0.2729
  245MOL0     C32250   3.503   0.172   6.986 -0.2761  0.6688  0.0703
  245MOL0     C32251   3.482   0.054   7.080  0.2680  0.2818  0.3751
  245MOL0    Cl32252   3.459  -0.093   6.973  0.0069 -0.1075  0.2447
  245MOL0     C32253   4.449   0.289   6.995  0.1711 -0.1679 -0.0492
  245MOL0     C32254   4.585   0.287   7.040 -0.0220 -0.8300 -0.4333
  245MOL0     O32255   4.822   0.204   6.920 -0.6042  0.8210 -0.1625
  245MOL0     C32256   5.079   0.127   6.966 -0.9105 -0.2272 -1.0559
  245MOL0     C32257   5.212   0.107   6.982 -0.5061  0.5708 -0.5837
  245MOL0     N32258   6.033  -0.077   7.020  0.3408  0.2606  0.4582
  245MOL0     N32259   6.151  -0.065   6.968 -0.9890  0.0832  0.2657
  245MOL0     C32260   7.030   0.218   6.311  1.0718 -0.1066  0.5931
  245MOL0     C32261   7.170   0.226   6.290 -0.8305 -0.1745  0.0138
  245MOL0     C32262   7.566   0.205   5.998  0.7126  0.1825  0.7389
  245MOL0     C32263   7.634   0.217   5.879  0.8182  0.6659 -0.4896
  245MOL0     C32264   7.775   0.195   5.872  0.6547  0.0709 -0.8271
  245MOL0     C32265   7.845   0.149   5.988  0.1600 -0.4106 -0.1276
  245MOL0     O32266   7.974   0.106   5.969 -0.5270 -0.9018  0.3869
  245MOL0     C32267   8.049   0.018   6.059  0.6926  0.4126  0.9465
  245MOL0     C32268   8.098  -0.083   5.965  0.0775  0.3143  0.5493
  245MOL0     C32269   7.981  -0.173   5.921 -0.4171  0.1798  0.0253
  245MOL0     C32270   8.026  -0.266   5.798  0.8215  0.6631 -0.2064
  245MOL0     C32271   7.908  -0.345   5.759 -0.7176  0.3810  0.1366
  245MOL0     C32272   7.817  -0.410   5.710 -0.5496 -0.6483  0.1197
  245MOL0     C32273   7.783   0.143   6.113  0.3106  0.1233 -0.2717
  245MOL0     C32274   7.642   0.168   6.119 -0.0162  0.2451  0.3245
  245MOL0     H32275   7.156   0.160   5.952  2.1999 -0.7446  0.8666
  245MOL0     H32276   6.931   0.149   5.998  0.3405  0.5306 -0.0124
  245MOL0     H32277   6.776   0.325   6.369 -0.7637  0.7244 -1.0111
  245MOL0     H32278   6.765   0.151   6.405  0.6768  1.0051  1.4223
  245MOL0     H32279   6.563   0.331   6.247 -1.6186  1.8124  1.9756
  245MOL0     H32280   6.555   0.301   6.417 -3.1829 -0.0010 -0.1233
  245MOL0     H32281   6.562   0.039   6.346 -0.7805 -0.2235 -1.0962
  245MOL0     H32282   6.531   0.099   6.181 -0.9801 -3.5795 -0.5349
  245MOL0     H32283   6.350   0.211   6.221 -0.9886 -1.5555 -0.2168
  245MOL0     H32284   6.340   0.038   6.268  0.9952  0.3111 -2.1207
  245MOL0     H32285   6.206   0.211   6.426 -0.0152  0.6052  3.9413
  245MOL0     H32286   6.359   0.283   6.466  0.8898  0.8505 -0.6601
  245MOL0     H32287   6.443   0.095   6.578  0.1789  0.0775 -1.4252
  245MOL0     H32288   6.328  -0.013   6.489 -0.3990  0.0771 -1.4625
  245MOL0     H32289   6.256   0.178   6.721 -0.4106  0.3075 -0.6074
  245MOL0     H32290   6.140   0.099   6.608  0.9642 -0.1770  0.6232
  245MOL0     H32291   6.348  -0.054   6.762  0.0389 -0.7860 -0.4624
  245MOL0     H32292   6.215  -0.113   6.653 -2.1264 -0.7057  0.7302
  245MOL0     H32293   5.957  -0.034   6.697 -1.6697 -3.0729  0.9128
  245MOL0     H32294   5.787  -0.156   7.012 -1.1136  1.9187  1.5935
  245MOL0     H32295   5.722  -0.070   6.865 -2.3475  0.1145  1.4107
  245MOL0     H32296   5.731   0.150   6.998  0.6795 -0.3248 -1.5459
  245MOL0     H32297   5.824   0.066   7.115 -1.9256  4.0900  0.2867
  245MOL0     H32298   5.608  -0.108   7.108  2.2940 -0.0900  1.0872
  245MOL0     H32299   5.625   0.022   7.214 -0.7241 -0.8384  0.7090
  245MOL0     H32300   5.461   0.013   6.959 -1.2244 -2.1756  1.0214
  245MOL0     H32301   5.514   0.168   7.032 -0.5260  0.0035  1.3945
  245MOL0     H32302   5.202   0.076   7.325  0.0804  0.0359 -0.1738
  245MOL0     H32303   4.975   0.130   7.287  0.7781 -0.2569  1.2585
  245MOL0     H32304   4.568  -0.031   7.163 -2.8739 -1.9298 -1.9083
  245MOL0     H32305   4.333  -0.008   7.087  1.0048 -0.3204  0.9609
  245MOL0     H32306   4.237   0.369   6.872 -0.1564 -0.0276  0.6559
  245MOL0     H32307   4.142   0.331   7.019 -0.1477  0.3562 -0.8336
  245MOL0     H32308   4.087   0.272   6.727 -1.7295 -0.5890 -0.6272
  245MOL0     H32309   3.998   0.376   6.823 -1.1169 -0.8530  0.3015
  245MOL0     H32310   3.920   0.184   6.968 -0.1754 -0.2989 -0.0645
  245MOL0     H32311   3.990   0.073   6.857 -4.4733 -1.9255 -1.7385
  245MOL0     H32312   3.822   0.276   6.728  1.1530  0.1382  0.9063
  245MOL0     H32313   3.850   0.112   6.680  0.5247 -0.6885  1.1856
  245MOL0     H32314   3.690   0.024   6.850 -0.3071 -1.1361 -4.7763
  245MOL0     H32315   3.624   0.146   6.743  2.0414 -1.0093 -1.5578
  245MOL0     H32316   3.649   0.315   6.932  0.3589  0.9330  0.6154
  245MOL0     H32317   3.722   0.201   7.040  2.5837  1.1594 -1.7806
  245MOL0     H32318   3.453   0.254   7.039 -0.5358  0.2491  0.4733
  245MOL0     H32319   3.465   0.142   6.888  2.0659  0.3102 -0.7945
  245MOL0     H32320   3.395   0.062   7.146  1.4872  2.2000  1.8324
  245MOL0     H32321   3.571   0.039   7.141  1.1758  0.9744 -0.7452
  245MOL0     H32322   4.422   0.383   6.948 -1.3104  0.6075  2.2073
  245MOL0     H32323   4.644   0.373   7.009 -2.2841  0.0635 -2.5597
  245MOL0     H32324   5.050   0.124   6.862  0.3343 -0.8765 -1.4124
  245MOL0     H32325   5.276   0.092   6.895  0.4815  2.7202 -0.2798
  245MOL0     H32326   7.001   0.224   6.415  0.8370 -3.2277  0.8183
  245MOL0     H32327   7.237   0.241   6.374  1.8890 -0.2635 -2.0195
  245MOL0     H32328   7.578   0.255   5.795 -1.3960  0.7974  0.9508
  245MOL0     H32329   7.826   0.195   5.776  1.8562  0.2459 -0.2039
  245MOL0     H32330   7.993  -0.036   6.136  1.4150 -1.6809  0.0723
  245MOL0     H32331   8.130   0.066   6.114 -0.2950 -0.6471  3.4529
  245MOL0     H32332   8.142  -0.040   5.874  2.0712 -0.5149  1.0665
  245MOL0     H32333   8.174  -0.142   6.016  1.1790  2.1153  1.0948
  245MOL0     H32334   7.900  -0.112   5.879 -0.5105 -1.7425 -2.8449
  245MOL0     H32335   7.949  -0.228   6.010  0.0427 -1.3936 -0.7627
  245MOL0     H32336   8.077  -0.207   5.721 -1.6161  0.4556 -2.0961
  245MOL0     H32337   8.103  -0.335   5.835 -1.3457 -2.2188 -0.7281
  245MOL0     H32338   7.727  -0.464   5.685 -0.7466 -2.3256  3.8949
  245MOL0     H32339   7.814   0.106   6.210 -3.2283  0.1065  1.0126
  245MOL0     H32340   7.576   0.151   6.203 -0.6290 -0.7553 -0.3368
  246MOL0     O32341   0.950   0.086   0.229 -0.1487 -0.2373 -0.7899
  246MOL0     C32342   0.916  -0.017   0.166 -0.4155 -0.1905 -0.3973
  246MOL0     O32343   0.994  -0.092   0.080 -0.2215 -0.2707 -0.1066
  246MOL0     C32344   1.109  -0.025   0.044 -0.0435 -0.4678 -0.3698
  246MOL0     C32345   1.238  -0.063   0.102  0.4381  0.6756  0.2010
  246MOL0     C32346   1.351   0.008   0.072  0.2658 -0.4522  0.0020
  246MOL0     C32347   1.348   0.107  -0.026 -0.5477 -0.5231  0.1035
  246MOL0     O32348   1.468   0.169  -0.056 -0.4996  0.3941  0.0525
  246MOL0     C32349   1.549   0.104  -0.148 -1.1547 -1.6176  0.4050
  246MOL0     C32350   1.648   0.013  -0.077 -0.3512  0.2972 -0.5258
  246MOL0     C32351   1.777   0.019  -0.160 -0.3450 -0.9728  0.5373
  246MOL0     C32352   1.890  -0.072  -0.111 -0.8911  0.2085  0.5344
  246MOL0     C32353   2.013  -0.075  -0.197 -0.4003  0.0438  0.5848
  246MOL0     C32354   2.137  -0.113  -0.116  0.4686  0.0987 -0.4011
  246MOL0     C32355   2.262  -0.160  -0.206  0.3450  0.1828 -0.3374
  246MOL0     C32356   2.372  -0.229  -0.121  0.7897  0.3500  0.6002
  246MOL0     N32357   2.338  -0.371  -0.105  0.1148  0.3002 -0.6905
  246MOL0     C32358   2.327  -0.441   0.011 -0.6899  0.2242  1.0466
  246MOL0     C32359   2.299  -0.570  -0.030 -0.1409  0.0336  0.3756
  246MOL0     C32360   2.282  -0.685   0.051  0.2313 -1.3786  0.5588
  246MOL0     C32361   2.135  -0.726   0.070  0.7606  0.0402  0.0211
  246MOL0     C32362   2.064  -0.631   0.171 -0.4428  0.9726 -0.5279
  246MOL0     C32363   1.918  -0.668   0.190 -0.3151  0.0979  0.6178
  246MOL0     O32364   1.891  -0.744   0.316 -0.2619 -0.6397  0.5417
  246MOL0     C32365   1.760  -0.744   0.370  0.7313  0.6711 -0.0536
  246MOL0     C32366   1.731  -0.809   0.493  0.5975  0.2604  0.0253
  246MOL0     C32367   1.601  -0.805   0.558  0.8314  0.3640 -0.4927
  246MOL0     C32368   1.502  -0.713   0.505  0.0491  0.7470 -0.5078
  246MOL0     C32369   1.382  -0.694   0.588  0.7402  0.3091  1.1274
  246MOL0     O32370   1.290  -0.598   0.546  0.2086  0.1708 -1.1100
  246MOL0     C32371   1.168  -0.594   0.602  0.1742 -0.3813  0.1365
  246MOL0     C32372   1.055  -0.617   0.519  0.8333 -0.7825  0.0405
  246MOL0     C32373   0.917  -0.617   0.570 -0.0742  0.7426 -0.5228
  246MOL0     C32374   0.897  -0.573   0.701  0.2042  1.6322 -0.1178
  246MOL0     O32375   0.775  -0.593   0.752  0.4303  0.3492 -0.2212
  246MOL0     C32376   0.713  -0.490   0.825  0.3209 -0.5141  1.1114
  246MOL0     C32377   0.638  -0.576   0.928  0.0477 -0.2439 -0.1346
  246MOL0     C32378   0.548  -0.491   1.011  0.1688 -0.3163 -1.3053
  246MOL0     C32379   0.494  -0.564   1.143  0.5940 -0.0747  0.5303
  246MOL0     C32380   0.401  -0.464   1.219 -0.8928 -0.3703 -0.1195
  246MOL0     C32381   0.346  -0.530   1.347 -0.1021  1.1215 -0.1150
  246MOL0     C32382   0.289  -0.441   1.443 -0.0375 -0.8560 -0.4985
  246MOL0     C32383   0.271  -0.495   1.593 -0.3983 -0.1544 -0.3097
  246MOL0    Cl32384   0.184  -0.654   1.619 -0.3070  0.3758  0.5978
  246MOL0     C32385   1.011  -0.529   0.772  0.6729  0.4253 -0.5193
  246MOL0     C32386   1.143  -0.546   0.734 -0.9422  0.2827 -0.0356
  246MOL0     O32387   1.353  -0.778   0.673  0.5651 -0.2528  0.5061
  246MOL0     C32388   1.533  -0.649   0.385 -0.2091 -0.1528  1.2901
  246MOL0     C32389   1.655  -0.673   0.314 -0.8649  0.5092  0.1462
  246MOL0     N32390   2.297  -0.571  -0.168 -0.1131  0.2394 -0.3879
  246MOL0     N32391   2.324  -0.457  -0.211 -0.8879 -0.8162  0.3951
  246MOL0     C32392   1.232   0.140  -0.094 -0.1328  0.3619 -0.8221
  246MOL0     C32393   1.114   0.077  -0.054  0.0722 -0.1272  0.7751
  246MOL0     C32394   0.793  -0.077   0.218  0.0624  0.1944  0.3399
  246MOL0     C32395   0.771  -0.216   0.220 -0.1521 -0.0964 -0.5139
  246MOL0     C32396   0.643  -0.263   0.255 -0.4994 -0.4274 -0.3530
  246MOL0     C32397   0.539  -0.176   0.280 -0.0623 -0.0659  0.5773
  246MOL0     O32398   0.425  -0.249   0.297 -0.1165 -0.4047 -0.6776
  246MOL0     C32399   0.297  -0.186   0.280 -0.5966  0.1257 -0.1570
  246MOL0     C32400   0.199  -0.301   0.262  0.0234 -0.5322  0.1652
  246MOL0     C32401   0.190  -0.380   0.394 -0.0842  0.7767  0.2268
  246MOL0     C32402   0.109  -0.307   0.505  0.4533  0.3001  0.4147
  246MOL0     C32403  -0.020  -0.261   0.461 -0.2147  0.0409 -0.3620
  246MOL0     C32404  -0.128  -0.213   0.436 -0.3254 -0.7974  0.0201
  246MOL0     C32405   0.561  -0.040   0.269  0.9673 -0.1889 -1.2121
  246MOL0     C32406   0.687   0.015   0.240  0.1780 -0.6723  0.2770
  246MOL0     H32407   1.233  -0.144   0.175  0.0934 -0.3679 -0.9396
  246MOL0     H32408   1.448  -0.011   0.119  0.7760  3.7844  1.0938
  246MOL0     H32409   1.609   0.184  -0.194 -0.4005 -2.1186  0.4947
  246MOL0     H32410   1.501   0.046  -0.227  0.8011 -2.8123  0.0291
  246MOL0     H32411   1.616  -0.091  -0.068 -1.2821  0.5904 -0.3604
  246MOL0     H32412   1.661   0.061   0.021  0.9939  0.2219 -0.6511
  246MOL0     H32413   1.817   0.121  -0.165  1.3555 -1.6555 -1.5225
  246MOL0     H32414   1.756  -0.006  -0.264 -0.5661 -1.1475  0.6235
  246MOL0     H32415   1.910  -0.036  -0.010 -1.3505  0.1194  0.6615
  246MOL0     H32416   1.866  -0.179  -0.107  4.1238 -1.1781 -0.3887
  246MOL0     H32417   2.031   0.026  -0.233  0.8546 -1.2752 -2.9153
  246MOL0     H32418   2.001  -0.141  -0.283  0.6923 -1.2445  1.3824
  246MOL0     H32419   2.101  -0.194  -0.052 -0.6397  1.6981  1.0792
  246MOL0     H32420   2.154  -0.019  -0.063 -5.4063  1.0316  0.5190
  246MOL0     H32421   2.223  -0.225  -0.286  0.0615  0.7753 -0.6876
  246MOL0     H32422   2.301  -0.072  -0.258 -0.9489  1.1501  0.2765
  246MOL0     H32423   2.390  -0.167  -0.033  1.1021  1.5620 -0.2938
  246MOL0     H32424   2.468  -0.233  -0.173  0.2650 -2.7470 -0.3195
  246MOL0     H32425   2.351  -0.410   0.112 -0.1995 -1.1329  1.3697
  246MOL0     H32426   2.333  -0.664   0.146  2.1701  0.3531 -0.7818
  246MOL0     H32427   2.336  -0.772   0.013  2.4454  0.0678  0.2504
  246MOL0     H32428   2.138  -0.824   0.118  1.3597  0.1175  0.1393
  246MOL0     H32429   2.082  -0.726  -0.026  2.5314  1.3178 -1.0152
  246MOL0     H32430   2.123  -0.631   0.263 -2.3905 -0.5059  0.8154
  246MOL0     H32431   2.067  -0.529   0.132  3.3505  1.0228 -0.4779
  246MOL0     H32432   1.877  -0.731   0.111 -1.3086 -2.0515  2.7009
  246MOL0     H32433   1.861  -0.576   0.201 -0.0493  0.6351 -1.9494
  246MOL0     H32434   1.800  -0.881   0.536  0.1177 -0.0532  0.2805
  246MOL0     H32435   1.577  -0.858   0.650 -2.8899 -1.0991 -2.1064
  246MOL0     H32436   1.075  -0.655   0.420  0.1322  0.6122 -0.6580
  246MOL0     H32437   0.841  -0.642   0.497  0.7408 -0.4926 -0.9843
  246MOL0     H32438   0.637  -0.447   0.759  0.4667 -0.2762  1.0973
  246MOL0     H32439   0.781  -0.410   0.854  1.8652 -0.1525 -2.8984
  246MOL0     H32440   0.717  -0.622   0.989  1.3957  1.1906 -0.7336
  246MOL0     H32441   0.583  -0.654   0.875 -2.7283  1.6380 -0.2097
  246MOL0     H32442   0.465  -0.444   0.959 -2.2198 -0.3381  2.1789
  246MOL0     H32443   0.609  -0.410   1.053  0.1181 -0.5356 -0.8073
  246MOL0     H32444   0.444  -0.654   1.106 -0.3569  0.7946 -0.3781
  246MOL0     H32445   0.582  -0.598   1.198  0.0104 -1.5210  0.6005
  246MOL0     H32446   0.326  -0.413   1.158  0.0889  1.1215 -0.1319
  246MOL0     H32447   0.469  -0.384   1.251  0.3186 -0.8661 -1.3135
  246MOL0     H32448   0.427  -0.593   1.386  0.3422  1.4440 -0.5042
  246MOL0     H32449   0.266  -0.599   1.318 -0.6986  1.6978  0.1644
  246MOL0     H32450   0.357  -0.356   1.442  2.6301 -2.8440  0.2848
  246MOL0     H32451   0.190  -0.406   1.411  1.5926  1.8836 -3.0175
  246MOL0     H32452   0.213  -0.415   1.640 -2.1401 -2.7030  2.1815
  246MOL0     H32453   0.374  -0.507   1.629  0.4750 -1.1153 -2.9186
  246MOL0     H32454   1.001  -0.492   0.874  0.1589 -0.7506 -0.1239
  246MOL0     H32455   1.216  -0.492   0.793  0.3495  0.2112 -1.4927
  246MOL0     H32456   1.449  -0.592   0.347 -2.1785 -2.5573  1.7870
  246MOL0     H32457   1.651  -0.637   0.212 -2.4635  2.4056  0.8058
  246MOL0     H32458   1.234   0.217  -0.170  1.0216 -1.0433 -2.2897
  246MOL0     H32459   1.025   0.106  -0.108  0.8090  0.8026  0.0256
  246MOL0     H32460   0.843  -0.294   0.196 -2.6366 -1.6247 -3.8009
  246MOL0     H32461   0.616  -0.364   0.281 -4.0779  0.7724  1.1904
  246MOL0     H32462   0.295  -0.121   0.192  4.5373 -0.4057 -0.9736
  246MOL0     H32463   0.268  -0.117   0.360 -1.1506  0.4407 -0.6091
  246MOL0     H32464   0.100  -0.269   0.228  1.0855  2.5267 -0.3853
  246MOL0     H32465   0.239  -0.369   0.186  1.6300 -1.2758  1.6247
  246MOL0     H32466   0.290  -0.394   0.436 -0.4144  1.5753  1.3088
  246MOL0     H32467   0.149  -0.481   0.378  2.5485 -0.2344 -0.6788
  246MOL0     H32468   0.088  -0.378   0.586 -2.2823  2.0257  1.3897
  246MOL0     H32469   0.162  -0.218   0.541  1.0717  0.7784 -1.5551
  246MOL0     H32470  -0.224  -0.174   0.409 -0.9252 -0.3977  2.4701
  246MOL0     H32471   0.471   0.020   0.274  0.5414 -0.9175  1.3306
  246MOL0     H32472   0.692   0.123   0.231 -4.1409 -0.2932  0.2189
  247MOL0     O32473   3.716   1.215   4.270  0.0766 -0.5487 -0.3450
  247MOL0     C32474   3.688   1.096   4.295 -0.4600  0.1833 -0.1619
  247MOL0     O32475   3.767   1.005   4.353  0.3789  0.2787  0.0945
  247MOL0     C32476   3.896   1.038   4.384  0.3661  0.2233 -0.0033
  247MOL0     C32477   3.937   1.160   4.447  0.1852 -1.2871 -0.5505
  247MOL0     C32478   4.072   1.186   4.473 -0.1599  0.6560  0.1886
  247MOL0     C32479   4.167   1.080   4.453 -0.3743 -0.8632 -0.6444
  247MOL0     O32480   4.301   1.094   4.488 -0.3256 -0.1933 -0.3152
  247MOL0     C32481   4.344   1.236   4.512 -1.0960  0.0527  0.2881
  247MOL0     C32482   4.497   1.224   4.512  0.2380  0.0890 -0.0983
  247MOL0     C32483   4.576   1.352   4.516  0.0456 -0.7165 -0.9207
  247MOL0     C32484   4.724   1.336   4.517  0.0709 -0.0929 -0.3890
  247MOL0     C32485   4.789   1.476   4.547 -0.4025 -0.1531  0.9859
  247MOL0     C32486   4.939   1.459   4.530 -0.1328  0.0037  0.1155
  247MOL0     C32487   4.999   1.463   4.389 -0.5198 -0.1928  0.2961
  247MOL0     C32488   4.982   1.597   4.322  0.4315  0.1425  0.0674
  247MOL0     N32489   5.063   1.705   4.373  0.0368 -0.2371 -0.4949
  247MOL0     C32490   5.062   1.780   4.489  0.2921  0.3690  0.5289
  247MOL0     C32491   5.133   1.891   4.470  0.2332 -0.6346  0.5450
  247MOL0     C32492   5.157   2.010   4.564  0.3495  0.5199  0.5165
  247MOL0     C32493   5.051   2.109   4.570 -0.4199 -0.5735  0.3930
  247MOL0     C32494   5.053   2.222   4.458 -0.3242  0.1918  0.3785
  247MOL0     C32495   5.020   2.173   4.320 -0.5102 -0.2299 -1.0676
  247MOL0     O32496   4.885   2.146   4.328  0.2485 -0.1633  0.4379
  247MOL0     C32497   4.824   2.038   4.289  0.1428  1.2919 -0.1180
  247MOL0     C32498   4.861   1.954   4.192 -1.0176  0.3123  1.0064
  247MOL0     C32499   4.789   1.845   4.147  0.8185  1.2784 -0.3751
  247MOL0     C32500   4.667   1.807   4.206  0.4867 -0.2902  0.8542
  247MOL0     C32501   4.583   1.697   4.159  0.9094 -0.0352  0.1797
  247MOL0     O32502   4.505   1.636   4.249  0.1911 -0.2150 -0.1558
  247MOL0     C32503   4.425   1.535   4.205 -0.7596 -0.3137  0.3485
  247MOL0     C32504   4.481   1.411   4.165  0.5039 -0.0647  0.1128
  247MOL0     C32505   4.405   1.312   4.097 -1.1019 -0.0487 -0.2590
  247MOL0     C32506   4.265   1.330   4.087 -1.5084  0.0520 -0.3219
  247MOL0     O32507   4.203   1.235   4.013 -0.0416 -0.3711 -0.2246
  247MOL0     C32508   4.090   1.182   4.085 -0.7112 -0.5604 -0.2938
  247MOL0     C32509   4.040   1.058   4.016 -0.8391 -0.1613 -0.3013
  247MOL0     C32510   3.965   1.077   3.895  1.0853 -0.4726  0.1070
  247MOL0     C32511   3.810   1.103   3.920  0.2569  0.2922  1.2432
  247MOL0     C32512   3.746   0.965   3.915  0.5547 -0.0896 -0.8669
  247MOL0     C32513   3.587   0.969   3.924 -0.1272  0.4608 -0.0062
  247MOL0     C32514   3.521   0.848   3.850 -0.1701  0.1301  0.1665
  247MOL0     C32515   3.382   0.853   3.880  0.1535  0.1155 -0.2846
  247MOL0    Cl32516   3.295   0.718   3.814 -0.3263 -0.4272 -0.1071
  247MOL0     C32517   4.213   1.450   4.130  0.0937  0.0301  0.4031
  247MOL0     C32518   4.290   1.557   4.181 -0.2676 -0.7668 -0.3873
  247MOL0     O32519   4.592   1.667   4.045 -0.6661 -1.2570  0.4876
  247MOL0     C32520   4.620   1.891   4.309 -1.5090 -1.3712  0.6582
  247MOL0     C32521   4.699   2.003   4.350 -0.6871 -0.9373  0.2693
  247MOL0     N32522   5.181   1.886   4.342 -0.8199  0.2432 -0.7500
  247MOL0     N32523   5.156   1.768   4.293  0.4679 -0.1200  0.1286
  247MOL0     C32524   4.119   0.964   4.400 -0.3298  0.4959  0.7882
  247MOL0     C32525   3.989   0.936   4.365  0.1922 -0.4317  0.4830
  247MOL0     C32526   3.546   1.051   4.281 -0.4472 -0.4125  0.6952
  247MOL0     C32527   3.492   0.918   4.279 -0.3673 -0.6351  0.5565
  247MOL0     C32528   3.365   0.891   4.262 -0.2553  0.1333  0.1885
  247MOL0     C32529   3.271   0.992   4.233 -0.6133 -0.2666 -0.8850
  247MOL0     O32530   3.140   0.943   4.210 -0.4194  0.3904  0.3502
  247MOL0     C32531   3.045   1.039   4.177 -0.3936  0.6841  0.2606
  247MOL0     C32532   3.045   1.064   4.024  0.7153  0.2239 -0.1482
  247MOL0     C32533   3.020   0.928   3.955 -0.1138 -0.2017 -0.0984
  247MOL0     C32534   2.996   0.943   3.800  0.1028  0.5652  0.0201
  247MOL0     C32535   2.925   0.823   3.757  0.0776 -0.9888 -0.0953
  247MOL0     C32536   2.862   0.724   3.739 -0.3011 -0.1162  0.3657
  247MOL0     C32537   3.319   1.124   4.222 -0.3404 -0.3800 -0.7584
  247MOL0     C32538   3.455   1.153   4.252  0.4931 -0.5544 -0.2799
  247MOL0     H32539   3.868   1.243   4.461  0.0725 -1.2326 -1.3499
  247MOL0     H32540   4.087   1.284   4.517 -4.7769  1.1254  1.2172
  247MOL0     H32541   4.314   1.294   4.599 -3.5713 -1.1793  0.3309
  247MOL0     H32542   4.316   1.294   4.423 -0.4461 -1.6692 -1.0898
  247MOL0     H32543   4.541   1.154   4.440 -0.1666 -2.3646  1.8846
  247MOL0     H32544   4.519   1.164   4.601 -0.3217 -2.0160 -1.3184
  247MOL0     H32545   4.549   1.405   4.607  2.0560 -0.2712 -0.5192
  247MOL0     H32546   4.565   1.424   4.435  0.5161  1.2935  0.7250
  247MOL0     H32547   4.742   1.259   4.592 -0.5002  0.4590  0.3339
  247MOL0     H32548   4.763   1.306   4.420  2.3581  2.6914 -0.4580
  247MOL0     H32549   4.763   1.498   4.651 -2.7908 -0.6134  0.5536
  247MOL0     H32550   4.760   1.557   4.480  0.3701 -0.3381  0.4153
  247MOL0     H32551   4.963   1.368   4.586  1.7713  2.1351  3.0721
  247MOL0     H32552   4.995   1.530   4.591 -1.2467  1.4973 -0.5460
  247MOL0     H32553   5.105   1.446   4.414  0.3443  4.3548  0.5909
  247MOL0     H32554   4.959   1.387   4.321 -0.4920 -0.5612  0.6864
  247MOL0     H32555   4.877   1.628   4.315  1.2015  2.5676 -2.0299
  247MOL0     H32556   5.015   1.581   4.219 -1.3354 -1.1654 -0.3531
  247MOL0     H32557   5.015   1.766   4.586  1.9803  5.0503  2.2943
  247MOL0     H32558   5.249   2.060   4.532 -0.2561  0.1938 -1.9094
  247MOL0     H32559   5.185   1.983   4.667  1.7064 -1.0569 -0.2215
  247MOL0     H32560   5.074   2.165   4.661  2.5391  2.9691 -2.2273
  247MOL0     H32561   4.960   2.049   4.577 -1.0981  0.3771 -0.0178
  247MOL0     H32562   4.983   2.302   4.486  0.0022  0.2109  1.1880
  247MOL0     H32563   5.151   2.271   4.462 -0.4077  0.4108 -0.2452
  247MOL0     H32564   5.082   2.087   4.294  1.2341  0.8167 -0.5522
  247MOL0     H32565   5.032   2.254   4.247 -2.9965  2.2331  1.0397
  247MOL0     H32566   4.950   1.979   4.135  0.6927 -1.9060  2.5295
  247MOL0     H32567   4.822   1.796   4.056 -2.7927  0.1260 -1.2012
  247MOL0     H32568   4.589   1.405   4.165  0.7943  2.9307 -2.2441
  247MOL0     H32569   4.442   1.227   4.041  2.0835  0.2221  1.2163
  247MOL0     H32570   4.000   1.244   4.080 -1.4204 -1.6200 -0.9760
  247MOL0     H32571   4.118   1.158   4.188 -0.5822  1.3151  0.1431
  247MOL0     H32572   3.986   1.000   4.091  1.0391 -0.5928  0.7587
  247MOL0     H32573   4.123   0.990   3.996 -0.9085 -0.2576 -0.2622
  247MOL0     H32574   3.990   0.995   3.826 -0.2179 -0.4021 -0.4849
  247MOL0     H32575   3.995   1.173   3.851 -3.2857  0.3243 -1.6669
  247MOL0     H32576   3.786   1.148   4.017 -6.2910  0.5248 -0.0077
  247MOL0     H32577   3.784   1.174   3.841 -2.8530 -0.8575  1.1093
  247MOL0     H32578   3.775   0.904   4.001 -0.2712 -0.0243 -0.5312
  247MOL0     H32579   3.782   0.917   3.823  1.6688  0.0745 -0.5231
  247MOL0     H32580   3.549   1.048   3.859 -2.7284 -2.2419 -2.0740
  247MOL0     H32581   3.563   0.997   4.027  3.0156  0.9583  0.7062
  247MOL0     H32582   3.558   0.852   3.747 -2.8802 -1.1959 -0.9465
  247MOL0     H32583   3.560   0.758   3.900 -2.7387 -0.4342  1.3291
  247MOL0     H32584   3.331   0.929   3.820 -1.6384 -0.0804  0.9069
  247MOL0     H32585   3.365   0.861   3.988 -0.5672  5.2962 -0.4995
  247MOL0     H32586   4.109   1.474   4.107 -0.5897 -3.2419 -0.5282
  247MOL0     H32587   4.243   1.651   4.207 -0.9628 -0.3550 -2.8635
  247MOL0     H32588   4.522   1.866   4.347 -2.8523  2.0785 -0.2098
  247MOL0     H32589   4.668   2.059   4.437 -1.0886 -3.0878  1.5983
  247MOL0     H32590   4.205   0.897   4.390  1.4234  2.6299  0.7617
  247MOL0     H32591   3.960   0.842   4.319 -4.1957  0.8195  0.2344
  247MOL0     H32592   3.563   0.838   4.297  2.0439  1.5601  1.5142
  247MOL0     H32593   3.337   0.786   4.254 -0.8364  0.4481 -3.6550
  247MOL0     H32594   3.057   1.127   4.240  1.0292  0.2649  0.6079
  247MOL0     H32595   2.946   1.000   4.203  0.6389 -0.7554  2.3806
  247MOL0     H32596   2.956   1.128   4.014 -0.4882 -0.6490  3.4265
  247MOL0     H32597   3.126   1.123   3.979 -1.1456  0.9272 -2.9026
  247MOL0     H32598   2.930   0.888   4.003 -0.5604  1.2326  0.3221
  247MOL0     H32599   3.104   0.859   3.969  0.7767  1.2906  2.7168
  247MOL0     H32600   2.936   1.032   3.775 -1.6655 -0.6515 -0.2620
  247MOL0     H32601   3.090   0.947   3.744  0.0458 -1.8452 -0.3336
  247MOL0     H32602   2.789   0.647   3.729 -3.5174  2.9785 -2.4723
  247MOL0     H32603   3.243   1.199   4.205 -1.6436 -0.3142  3.9006
  247MOL0     H32604   3.497   1.253   4.256 -1.8410  0.5371 -1.2687
  248MOL0     O32605   4.733   6.818   2.734  0.0481  0.6662 -0.6061
  248MOL0     C32606   4.734   6.698   2.780  0.3538  0.8802 -0.4463
  248MOL0     O32607   4.773   6.657   2.909  0.5247  0.5737 -0.4547
  248MOL0     C32608   4.726   6.745   2.999  0.9123  0.5120  0.4184
  248MOL0     C32609   4.802   6.867   3.027  0.1694 -0.1613  0.0672
  248MOL0     C32610   4.758   6.965   3.118 -1.2736  1.7391  0.0718
  248MOL0     C32611   4.644   6.945   3.192  0.1157  0.1994  0.3315
  248MOL0     O32612   4.598   7.034   3.281  0.1178 -0.9341  0.4889
  248MOL0     C32613   4.488   7.002   3.371 -0.0926 -0.8788 -0.4470
  248MOL0     C32614   4.465   7.127   3.447 -0.4473 -0.0791 -0.2637
  248MOL0     C32615   4.378   7.231   3.382  0.2324  0.6693  0.2508
  248MOL0     C32616   4.393   7.360   3.456 -0.1835 -0.8333  0.4484
  248MOL0     C32617   4.324   7.480   3.398  0.2224 -0.1670 -0.9114
  248MOL0     C32618   4.175   7.472   3.444  0.2540 -0.0651 -0.5131
  248MOL0     C32619   4.100   7.586   3.385  0.5094 -0.0902 -0.5327
  248MOL0     C32620   3.947   7.561   3.407 -0.0089 -0.2431  0.3826
  248MOL0     N32621   3.865   7.670   3.353 -1.2222  0.1424  0.2150
  248MOL0     C32622   3.866   7.801   3.407  0.5409  0.2195  0.6039
  248MOL0     C32623   3.798   7.877   3.321  0.0137 -0.5063  0.8378
  248MOL0     C32624   3.765   8.016   3.332  0.5974  0.5066  0.5448
  248MOL0     C32625   3.717   8.058   3.469 -0.2003  0.3362  0.3956
  248MOL0     C32626   3.558   8.081   3.477 -0.1614  0.6009  0.1664
  248MOL0     C32627   3.488   7.946   3.473  0.0047  0.0190  0.2949
  248MOL0     O32628   3.354   7.964   3.438  0.4648 -0.3589 -0.2433
  248MOL0     C32629   3.263   7.892   3.507  0.0825 -0.2385  0.1297
  248MOL0     C32630   3.203   7.781   3.449 -0.5956  0.0935  0.0267
  248MOL0     C32631   3.092   7.734   3.509 -0.7856  0.7103 -0.1466
  248MOL0     C32632   3.044   7.781   3.630 -0.3006  0.3782  0.1782
  248MOL0     C32633   2.909   7.731   3.681 -0.0511 -1.1215  0.2273
  248MOL0     O32634   2.850   7.628   3.615  0.0969  0.1988  0.1572
  248MOL0     C32635   2.728   7.594   3.660  0.4260 -0.4515  0.2403
  248MOL0     C32636   2.709   7.476   3.739 -0.3948 -0.0733  0.8198
  248MOL0     C32637   2.588   7.443   3.781 -0.5316 -0.3620 -1.4005
  248MOL0     C32638   2.481   7.542   3.776  0.3650 -0.5867 -0.4825
  248MOL0     O32639   2.361   7.509   3.830 -0.4096  0.0014 -0.0392
  248MOL0     C32640   2.320   7.369   3.848  0.2040 -0.4128  0.5479
  248MOL0     C32641   2.187   7.382   3.932  0.5938 -0.1427  0.9960
  248MOL0     C32642   2.082   7.473   3.865  0.6229 -0.3758 -1.3121
  248MOL0     C32643   1.940   7.466   3.918  0.9461  0.0444 -1.2884
  248MOL0     C32644   1.915   7.512   4.059  0.1527 -0.2003  0.0816
  248MOL0     C32645   1.764   7.543   4.080  0.4716 -0.5226 -0.1750
  248MOL0     C32646   1.696   7.639   3.984 -1.2061  1.2327 -0.1957
  248MOL0     C32647   1.545   7.663   4.009  0.5876 -0.5316 -0.1270
  248MOL0    Cl32648   1.541   7.759   4.152  0.5993  0.1857  0.4623
  248MOL0     C32649   2.493   7.658   3.697 -0.0542  0.0882 -0.2134
  248MOL0     C32650   2.618   7.673   3.635  0.7183  0.0189 -0.2023
  248MOL0     O32651   2.871   7.792   3.778  0.4722 -0.1020 -0.5321
  248MOL0     C32652   3.113   7.886   3.695 -0.8144 -0.2485  0.3717
  248MOL0     C32653   3.225   7.937   3.634 -0.2765  0.1137 -0.3101
  248MOL0     N32654   3.780   7.803   3.205 -0.2986 -0.2523  1.0099
  248MOL0     N32655   3.845   7.689   3.223  0.2764  0.7780  0.9080
  248MOL0     C32656   4.579   6.816   3.174 -0.1155  0.5334  0.5732
  248MOL0     C32657   4.621   6.714   3.083 -0.2137 -0.7230  0.2313
  248MOL0     C32658   4.707   6.585   2.680  0.3824 -0.8191 -0.8183
  248MOL0     C32659   4.708   6.447   2.719 -0.1013  0.1502 -0.4636
  248MOL0     C32660   4.665   6.340   2.630  0.9283  0.1988  0.4290
  248MOL0     C32661   4.614   6.375   2.500  0.3272  0.6666 -0.0647
  248MOL0     O32662   4.581   6.276   2.415  0.4939  0.2628 -0.1013
  248MOL0     C32663   4.461   6.297   2.336  0.0909  0.1469  0.2190
  248MOL0     C32664   4.416   6.179   2.255  0.3619 -0.0331  0.0762
  248MOL0     C32665   4.431   6.036   2.323 -0.1271  0.3701 -0.6638
  248MOL0     C32666   4.325   6.011   2.436 -1.3807 -0.1426  0.0900
  248MOL0     C32667   4.348   5.880   2.493  0.3677 -0.3969  0.2574
  248MOL0     C32668   4.348   5.767   2.540 -1.1248  0.1090  0.0796
  248MOL0     C32669   4.625   6.505   2.462  0.1554  0.4519  0.3808
  248MOL0     C32670   4.661   6.614   2.546 -0.9471  0.1697  0.1501
  248MOL0     H32671   4.880   6.892   2.957 -2.0630  3.3120 -1.4508
  248MOL0     H32672   4.821   7.053   3.128  0.3582  0.9403 -2.1858
  248MOL0     H32673   4.506   6.917   3.438  0.1666  0.7990  1.7352
  248MOL0     H32674   4.392   6.991   3.319 -0.2320  1.2703 -0.7148
  248MOL0     H32675   4.564   7.170   3.463 -0.4472 -0.1173 -0.1600
  248MOL0     H32676   4.420   7.102   3.544  1.6546 -0.1070  0.7598
  248MOL0     H32677   4.278   7.191   3.361  0.0513  1.1230  0.2548
  248MOL0     H32678   4.427   7.247   3.285 -0.2052 -3.6855 -0.9372
  248MOL0     H32679   4.352   7.340   3.556  2.7190  0.6483  2.0732
  248MOL0     H32680   4.498   7.391   3.464 -0.4494  0.6213 -1.0861
  248MOL0     H32681   4.333   7.501   3.291 -2.6344  2.0910 -0.8329
  248MOL0     H32682   4.369   7.573   3.435  2.7073 -0.8746 -1.9337
  248MOL0     H32683   4.169   7.479   3.553  1.3742  0.7431 -0.4858
  248MOL0     H32684   4.139   7.376   3.407  0.1203  0.1511 -0.9434
  248MOL0     H32685   4.129   7.678   3.435 -0.9456 -0.2872  0.7442
  248MOL0     H32686   4.122   7.603   3.279  2.2136  1.9475  0.0909
  248MOL0     H32687   3.936   7.565   3.515 -2.0106  0.4535  0.2014
  248MOL0     H32688   3.921   7.460   3.375  0.1120 -0.1745  0.0585
  248MOL0     H32689   3.904   7.834   3.504 -1.6689  2.3184  0.8482
  248MOL0     H32690   3.691   8.037   3.254  0.5665 -0.2149  0.3786
  248MOL0     H32691   3.861   8.062   3.307 -0.2952  3.1082  1.5675
  248MOL0     H32692   3.753   8.161   3.475 -1.5171  0.9150 -0.8944
  248MOL0     H32693   3.762   7.998   3.548  0.0425  1.7549  1.3683
  248MOL0     H32694   3.529   8.132   3.569  0.1503  0.5512  0.2934
  248MOL0     H32695   3.527   8.145   3.394 -0.8214  0.5536  0.3692
  248MOL0     H32696   3.498   7.891   3.567  0.7350 -2.5778 -1.2099
  248MOL0     H32697   3.527   7.880   3.395 -0.5562 -1.2916  1.0721
  248MOL0     H32698   3.238   7.747   3.352  3.0274  1.6843  0.6122
  248MOL0     H32699   3.042   7.655   3.453 -2.0745  0.2833  1.5468
  248MOL0     H32700   2.794   7.415   3.768  0.4888  0.5209 -0.4136
  248MOL0     H32701   2.569   7.347   3.829 -1.7755  0.2988 -0.5015
  248MOL0     H32702   2.387   7.293   3.890  0.5602 -1.3535 -1.5701
  248MOL0     H32703   2.293   7.336   3.747  1.7134  4.4089 -1.7180
  248MOL0     H32704   2.214   7.422   4.030 -0.2838  0.2092  1.1029
  248MOL0     H32705   2.147   7.281   3.947  5.1437 -2.3461 -0.0597
  248MOL0     H32706   2.077   7.486   3.757 -1.1697  3.8558 -0.9334
  248MOL0     H32707   2.110   7.578   3.883  0.6223 -0.7774  1.4840
  248MOL0     H32708   1.888   7.536   3.853  2.4018  0.8457 -1.6362
  248MOL0     H32709   1.901   7.364   3.905  0.2247  0.0791  0.4286
  248MOL0     H32710   1.976   7.602   4.074  0.5426 -0.2102 -1.3149
  248MOL0     H32711   1.942   7.437   4.134  1.2975  0.6731  0.5776
  248MOL0     H32712   1.762   7.589   4.180  2.8462  2.0169 -1.1772
  248MOL0     H32713   1.707   7.450   4.093 -0.3093 -0.0044  0.1891
  248MOL0     H32714   1.747   7.734   3.965  1.1889  0.5817  2.2554
  248MOL0     H32715   1.703   7.597   3.883  1.3046  0.3329  0.2917
  248MOL0     H32716   1.483   7.573   4.024 -0.0876  0.0275  0.5334
  248MOL0     H32717   1.502   7.719   3.926 -0.6224 -0.9317  0.2049
  248MOL0     H32718   2.406   7.723   3.692 -0.0975  0.1653  1.2407
  248MOL0     H32719   2.625   7.769   3.584  0.3836  1.4318  2.2483
  248MOL0     H32720   3.081   7.933   3.787 -1.7249 -0.1789  0.0380
  248MOL0     H32721   3.281   8.025   3.666  3.2513 -1.3486 -1.9447
  248MOL0     H32722   4.497   6.793   3.241 -0.8994 -3.8850 -1.5291
  248MOL0     H32723   4.568   6.620   3.080 -0.1784 -0.8115 -3.7729
  248MOL0     H32724   4.743   6.413   2.816 -3.1490 -1.8158  0.0996
  248MOL0     H32725   4.674   6.234   2.651  2.6932 -0.5752 -3.5190
  248MOL0     H32726   4.471   6.381   2.267  1.1154  0.3643  0.6126
  248MOL0     H32727   4.377   6.320   2.402 -0.7126 -0.7927 -0.4411
  248MOL0     H32728   4.316   6.197   2.214 -0.9342 -0.4948  2.8339
  248MOL0     H32729   4.481   6.175   2.167  0.2422  0.4370 -0.0354
  248MOL0     H32730   4.534   6.022   2.355  0.2874 -2.2299 -2.7604
  248MOL0     H32731   4.414   5.953   2.253 -0.7131 -1.4576  1.5244
  248MOL0     H32732   4.335   6.096   2.504 -0.3248  1.0557 -1.4746
  248MOL0     H32733   4.224   6.024   2.396 -1.9027 -1.3791  0.9694
  248MOL0     H32734   4.330   5.671   2.584 -2.3306  0.6883  0.9148
  248MOL0     H32735   4.597   6.521   2.358  0.9858 -2.7456 -0.4354
  248MOL0     H32736   4.662   6.710   2.494 -1.4877 -0.0279 -0.2338
  249MOL0     O32737  10.371  10.381  10.043  0.1693  0.4775  0.2530
  249MOL0     C32738  10.398  10.502  10.030 -0.1835 -0.4654 -0.0572
  249MOL0     O32739  10.309  10.593   9.979 -0.4007 -0.1092  0.1176
  249MOL0     C32740  10.191  10.556   9.931  0.4863  0.5864  0.1383
  249MOL0     C32741  10.158  10.633   9.818 -0.8876  0.2222 -0.1669
  249MOL0     C32742  10.021  10.622   9.770  0.1306 -0.6083  0.1760
  249MOL0     C32743   9.926  10.543   9.834  0.2435 -0.0358  0.8186
  249MOL0     O32744   9.795  10.545   9.795 -0.1469  0.2078 -0.1572
  249MOL0     C32745   9.767  10.545   9.655 -0.2560  0.3036  0.3611
  249MOL0     C32746   9.637  10.458   9.628 -0.4207  0.9780  0.6964
  249MOL0     C32747   9.525  10.522   9.716 -0.0982  0.3985  0.9815
  249MOL0     C32748   9.397  10.445   9.708 -0.1733  0.2029 -0.2937
  249MOL0     C32749   9.275  10.531   9.758 -0.2774 -0.4858 -0.0354
  249MOL0     C32750   9.152  10.438   9.770  0.3544  0.1976 -0.0189
  249MOL0     C32751   9.025  10.514   9.808  0.3696  0.5475 -0.1303
  249MOL0     C32752   8.914  10.418   9.788  1.1699 -0.1717  0.0447
  249MOL0     N32753   8.780  10.473   9.765  0.1821 -0.2222 -1.2471
  249MOL0     C32754   8.712  10.541   9.865 -1.1153 -0.5409 -0.0136
  249MOL0     C32755   8.594  10.577   9.816 -0.5173  0.4922  0.2352
  249MOL0     C32756   8.483  10.657   9.874 -0.5906 -1.0507 -0.2249
  249MOL0     C32757   8.369  10.568   9.912  0.5421 -0.8183  0.5946
  249MOL0     C32758   8.244  10.638   9.895  1.4861 -0.2458  0.5958
  249MOL0     C32759   8.113  10.547   9.926  0.0425 -0.3526 -0.4192
  249MOL0     O32760   8.138  10.474  10.054  0.8688 -0.3770 -0.2310
  249MOL0     C32761   8.030  10.378  10.066  0.5200 -0.8272  0.2079
  249MOL0     C32762   7.899  10.393  10.005 -0.5703  0.2298  0.8887
  249MOL0     C32763   7.795  10.299  10.013 -0.3693 -0.9548  0.1626
  249MOL0     C32764   7.801  10.194  10.100  0.0786 -0.0538  0.1222
  249MOL0     C32765   7.690  10.091  10.108  1.2859 -0.0932  0.5945
  249MOL0     O32766   7.719   9.984  10.186  0.2559  0.3395  0.5254
  249MOL0     C32767   7.615   9.890  10.166 -1.3761  0.2657  0.7353
  249MOL0     C32768   7.631   9.775  10.077 -0.7606 -0.4553 -0.3854
  249MOL0     C32769   7.519   9.695  10.064 -0.0069 -0.1472  0.7984
  249MOL0     C32770   7.399   9.707  10.137  0.0109  0.2941 -0.3936
  249MOL0     O32771   7.301   9.607  10.115 -0.4217 -0.2697  0.0662
  249MOL0     C32772   7.183   9.653  10.047  0.0847 -0.9314  0.2166
  249MOL0     C32773   7.129   9.526   9.980  0.5347  0.3864 -0.0441
  249MOL0     C32774   7.001   9.541   9.904 -0.3376 -0.0043 -0.8503
  249MOL0     C32775   6.948   9.402   9.854  0.2930  1.7264  0.1178
  249MOL0     C32776   6.877   9.417   9.721 -1.0380 -0.2698  0.4272
  249MOL0     C32777   6.730   9.460   9.747 -0.5878  0.2397  0.2773
  249MOL0     C32778   6.647   9.482   9.614 -0.2081  0.4157 -0.1879
  249MOL0     C32779   6.704   9.580   9.520  0.6681  0.6962 -0.0508
  249MOL0    Cl32780   6.727   9.736   9.602  0.1266 -0.2614 -0.1457
  249MOL0     C32781   7.397   9.805  10.238 -0.2077 -0.3003  0.2778
  249MOL0     C32782   7.504   9.891  10.250 -0.3620  0.3282  0.4100
  249MOL0     O32783   7.581  10.116  10.051 -0.8336  0.2525  0.0840
  249MOL0     C32784   7.932  10.176  10.161 -0.2029 -0.4096 -0.6943
  249MOL0     C32785   8.040  10.270  10.152  0.9700  0.7342  0.8160
  249MOL0     N32786   8.590  10.518   9.685  0.0353  0.1546  0.1345
  249MOL0     N32787   8.695  10.443   9.665  0.9888  0.4475  0.2223
  249MOL0     C32788   9.968  10.465   9.933 -1.2098 -0.2373  0.0665
  249MOL0     C32789  10.094  10.474   9.994  0.7194 -0.3143 -0.5114
  249MOL0     C32790  10.534  10.540  10.052 -0.7074 -0.1906  0.5024
  249MOL0     C32791  10.579  10.671  10.051  0.5125 -0.0083  0.6708
  249MOL0     C32792  10.705  10.708  10.078 -0.5326 -0.3372 -0.3325
  249MOL0     C32793  10.808  10.616  10.108  0.3008 -0.0191 -0.1959
  249MOL0     O32794  10.934  10.674  10.147  0.3467  0.1975 -0.4172
  249MOL0     C32795  11.027  10.590  10.208 -1.0444  0.3810  0.1102
  249MOL0     C32796  11.169  10.645  10.229 -1.1008 -0.0088 -0.0763
  249MOL0     C32797  11.284  10.546  10.234  0.1103  0.0757 -0.2277
  249MOL0     C32798  11.414  10.628  10.236 -0.7548 -0.3718 -0.0796
  249MOL0     C32799  11.446  10.674  10.097  0.0343 -0.2805 -0.6251
  249MOL0     C32800  11.485  10.728   9.995  0.1316  0.0392  0.8049
  249MOL0     C32801  10.772  10.481  10.113  0.2257 -0.6914  0.6589
  249MOL0     C32802  10.638  10.451  10.076 -0.3430  0.7384 -0.3687
  249MOL0     H32803  10.225  10.704   9.772  0.4333 -0.6448  0.3635
  249MOL0     H32804   9.989  10.686   9.688  1.7860 -2.6776 -2.2295
  249MOL0     H32805   9.849  10.493   9.604 -0.1970  1.6208 -0.9277
  249MOL0     H32806   9.763  10.648   9.618  1.2703  0.8785  1.6365
  249MOL0     H32807   9.664  10.354   9.648 -0.1300  0.7541 -0.7573
  249MOL0     H32808   9.621  10.465   9.520  0.5963 -2.3296  0.2275
  249MOL0     H32809   9.502  10.614   9.662 -0.1837 -0.5211 -0.6237
  249MOL0     H32810   9.551  10.539   9.820  0.4817  1.6794  0.6489
  249MOL0     H32811   9.390  10.400   9.608  3.8038 -0.5524 -0.3893
  249MOL0     H32812   9.416  10.371   9.786  0.8452  1.3638  0.5999
  249MOL0     H32813   9.266  10.614   9.687  0.4194  0.5805  1.0819
  249MOL0     H32814   9.294  10.584   9.852 -0.9883  0.9275 -0.6661
  249MOL0     H32815   9.175  10.369   9.852 -1.0268 -1.0573 -0.6428
  249MOL0     H32816   9.142  10.385   9.675 -2.2089 -3.6602  2.1207
  249MOL0     H32817   9.019  10.548   9.912  1.6646 -2.3339  1.0031
  249MOL0     H32818   9.019  10.600   9.740  3.9452  1.6644  0.7613
  249MOL0     H32819   8.900  10.369   9.885 -1.5061 -1.5584 -0.9258
  249MOL0     H32820   8.938  10.342   9.713  0.4050 -0.0012 -0.3821
  249MOL0     H32821   8.756  10.568   9.961  1.0722 -0.4118 -0.9869
  249MOL0     H32822   8.450  10.735   9.804 -3.2291  0.3226  2.2823
  249MOL0     H32823   8.519  10.724   9.953  1.2576 -1.3549 -0.7732
  249MOL0     H32824   8.377  10.525  10.012 -0.2006 -2.5318 -0.0402
  249MOL0     H32825   8.370  10.485   9.840  3.6446  1.7956 -2.8232
  249MOL0     H32826   8.233  10.707   9.980  1.6335 -0.6552  0.9496
  249MOL0     H32827   8.233  10.679   9.794  0.2588 -1.1939  0.3177
  249MOL0     H32828   8.103  10.481   9.839 -3.5667  0.9319 -1.1902
  249MOL0     H32829   8.022  10.608   9.929 -0.9446 -1.6492 -1.9358
  249MOL0     H32830   7.865  10.475   9.942 -2.1385  0.0960  1.5319
  249MOL0     H32831   7.708  10.336   9.960  1.4239  1.7281 -1.1312
  249MOL0     H32832   7.724   9.752  10.027  0.1629  0.3612  0.8855
  249MOL0     H32833   7.513   9.608   9.999 -0.0262 -2.4139  3.6546
  249MOL0     H32834   7.215   9.706   9.957  2.4180 -3.4955 -0.6180
  249MOL0     H32835   7.114   9.701  10.117  2.0923 -0.4071  1.9097
  249MOL0     H32836   7.112   9.455  10.061  1.2074  0.0370 -0.1997
  249MOL0     H32837   7.199   9.474   9.913 -0.3762 -0.7130 -0.1690
  249MOL0     H32838   7.012   9.616   9.824 -1.0563  1.3517  0.2778
  249MOL0     H32839   6.929   9.592   9.969  0.9092 -0.3032  0.8284
  249MOL0     H32840   7.042   9.352   9.828 -1.0574  0.1313 -1.9435
  249MOL0     H32841   6.892   9.339   9.924  1.4427  0.7312  0.1796
  249MOL0     H32842   6.870   9.319   9.673  0.7983  1.2262 -3.3250
  249MOL0     H32843   6.934   9.481   9.652 -0.2953 -0.9699  0.3696
  249MOL0     H32844   6.724   9.544   9.817 -3.1176 -0.9609  1.6104
  249MOL0     H32845   6.682   9.382   9.805  3.1670 -0.7871  2.3554
  249MOL0     H32846   6.639   9.386   9.562 -0.4558 -0.7830  1.9262
  249MOL0     H32847   6.546   9.509   9.647 -0.6592 -0.8557 -0.4544
  249MOL0     H32848   6.650   9.580   9.425 -1.3484 -2.6444  0.9214
  249MOL0     H32849   6.800   9.543   9.484 -0.5723 -0.8817 -1.9631
  249MOL0     H32850   7.314   9.805  10.308  1.7163 -0.2355  2.6588
  249MOL0     H32851   7.481   9.971  10.320 -1.4012 -1.0081  1.6698
  249MOL0     H32852   7.954  10.087  10.218 -0.1471 -0.0749 -0.1859
  249MOL0     H32853   8.128  10.242  10.210  2.3650  1.3395 -0.9144
  249MOL0     H32854   9.889  10.402   9.972 -1.5667  0.7695  1.0256
  249MOL0     H32855  10.103  10.410  10.081 -0.1795 -0.7837 -0.7466
  249MOL0     H32856  10.501  10.746  10.038  0.6039 -0.2193 -1.2516
  249MOL0     H32857  10.735  10.812  10.090  1.5378 -0.8793 -0.5613
  249MOL0     H32858  11.048  10.496  10.156  2.6041  1.5825 -0.9362
  249MOL0     H32859  10.993  10.570  10.310  3.8691 -0.2070  1.9410
  249MOL0     H32860  11.179  10.725  10.155 -0.7261  2.7026  2.6903
  249MOL0     H32861  11.180  10.693  10.326  2.8785 -0.1743 -0.2832
  249MOL0     H32862  11.275  10.481  10.147 -2.0204  1.4465 -1.1411
  249MOL0     H32863  11.281  10.480  10.320 -3.5225 -2.1803 -1.8267
  249MOL0     H32864  11.418  10.712  10.306 -2.2281  0.7420 -1.2391
  249MOL0     H32865  11.502  10.568  10.259  1.3565  2.2728 -0.7600
  249MOL0     H32866  11.492  10.788   9.906 -0.2246 -0.0538  0.7138
  249MOL0     H32867  10.846  10.401  10.113  1.4491  0.3805  1.9367
  249MOL0     H32868  10.620  10.344  10.072  2.3468  0.2366 -0.8303
  250MOL0     O32869   0.089   8.365  10.157 -0.6131  0.0715  0.3450
  250MOL0     C32870   0.176   8.361  10.240  1.0567  1.3321 -0.8840
  250MOL0     O32871   0.159   8.385  10.370 -0.0479 -0.2002  0.9948
  250MOL0     C32872   0.027   8.412  10.417 -0.0096  0.8349  0.0342
  250MOL0     C32873  -0.048   8.512  10.355  0.3054 -0.2131  0.1819
  250MOL0     C32874  -0.185   8.531  10.403 -0.2851 -0.0655 -0.0737
  250MOL0     C32875  -0.248   8.440  10.490  0.4684 -0.6269 -0.5884
  250MOL0     O32876  -0.384   8.457  10.500  0.4262 -0.3804 -0.2620
  250MOL0     C32877  -0.470   8.370  10.581 -0.0999  0.8878 -1.3487
  250MOL0     C32878  -0.607   8.421  10.605 -0.5759  1.6111 -0.4344
  250MOL0     C32879  -0.621   8.565  10.660  0.8579 -0.2672 -0.1064
  250MOL0     C32880  -0.770   8.602  10.661 -0.3639  0.2647 -0.9535
  250MOL0     C32881  -0.811   8.740  10.708 -0.4171  0.0087 -0.0743
  250MOL0     C32882  -0.791   8.853  10.601 -0.0877  1.1598 -0.5714
  250MOL0     C32883  -0.654   8.919  10.607 -0.3514  0.4162  0.0299
  250MOL0     C32884  -0.650   9.046  10.523 -0.3280  0.2924 -0.3458
  250MOL0     N32885  -0.536   9.138  10.568  0.5528  0.1518  0.0827
  250MOL0     C32886  -0.420   9.163  10.498 -0.0710  0.7590 -0.4944
  250MOL0     C32887  -0.339   9.222  10.595  0.5352 -0.1313  0.4801
  250MOL0     C32888  -0.211   9.289  10.550 -0.1008 -0.0054  0.3630
  250MOL0     C32889  -0.244   9.427  10.478 -0.3107  0.2421  0.6344
  250MOL0     C32890  -0.309   9.541  10.563 -0.4037  1.7769 -0.7845
  250MOL0     C32891  -0.468   9.533  10.558  1.0573  0.3192 -0.5693
  250MOL0     O32892  -0.541   9.638  10.630 -0.0348 -0.3867 -0.9280
  250MOL0     C32893  -0.676   9.619  10.606 -0.1764 -0.7767 -0.1460
  250MOL0     C32894  -0.769   9.537  10.668  0.5306 -0.3607  1.3436
  250MOL0     C32895  -0.899   9.529  10.627  0.1086  0.0162 -0.2609
  250MOL0     C32896  -0.945   9.611  10.524  0.5053  0.1940  0.8950
  250MOL0     C32897  -1.093   9.607  10.488  0.1402 -0.0858  0.2068
  250MOL0     O32898  -1.162   9.506  10.539  0.2143 -0.3474  0.6315
  250MOL0     C32899  -1.298   9.532  10.553  0.5132  0.1686  0.6735
  250MOL0     C32900  -1.376   9.424  10.602 -0.4152 -0.4485 -0.0547
  250MOL0     C32901  -1.510   9.440  10.625 -0.0127  0.4200 -0.5986
  250MOL0     C32902  -1.576   9.559  10.611  0.5698  0.1772  0.7746
  250MOL0     O32903  -1.713   9.544  10.600  0.6193 -0.5777 -0.1886
  250MOL0     C32904  -1.792   9.647  10.646 -0.8423  0.5725  0.5682
  250MOL0     C32905  -1.940   9.604  10.655 -0.4996  0.0857 -0.0769
  250MOL0     C32906  -1.972   9.539  10.789 -0.0208  0.0535  0.6403
  250MOL0     C32907  -2.118   9.490  10.816 -0.4015  0.0022 -0.3867
  250MOL0     C32908  -2.220   9.598  10.857 -1.1731  0.0355 -0.3808
  250MOL0     C32909  -2.359   9.539  10.839  0.6194  0.6197 -0.3289
  250MOL0     C32910  -2.465   9.649  10.856  0.0375  0.2561  0.1992
  250MOL0     C32911  -2.613   9.609  10.844 -0.2041 -0.1210  0.6584
  250MOL0    Cl32912  -2.676   9.502  10.976 -0.1822 -0.1951  0.0889
  250MOL0     C32913  -1.497   9.674  10.586  0.7528 -0.0631 -0.5533
  250MOL0     C32914  -1.358   9.664  10.570 -0.1040  0.3562 -0.0438
  250MOL0     O32915  -1.133   9.681  10.391  0.5507  0.0638 -0.5385
  250MOL0     C32916  -0.855   9.691  10.452 -0.2574  0.0396 -0.4800
  250MOL0     C32917  -0.723   9.680  10.486 -0.0824  0.2263 -0.7011
  250MOL0     N32918  -0.409   9.243  10.710 -0.2844  0.1618 -0.2885
  250MOL0     N32919  -0.518   9.185  10.689  1.6040  1.1156  0.0034
  250MOL0     C32920  -0.173   8.335  10.536  0.3270  1.1362 -0.4156
  250MOL0     C32921  -0.035   8.327  10.503  0.3569 -0.2400 -0.1620
  250MOL0     C32922   0.304   8.298  10.200  0.5198  0.7953 -0.7795
  250MOL0     C32923   0.423   8.305  10.287  0.8668 -0.8723  0.3020
  250MOL0     C32924   0.545   8.244  10.262  1.0564  0.7068  1.0148
  250MOL0     C32925   0.552   8.164  10.146  0.5639  0.0527 -1.1297
  250MOL0     O32926   0.676   8.109  10.114  0.0556 -0.1066  0.1270
  250MOL0     C32927   0.696   8.041  10.000 -0.9347  0.4212  0.1775
  250MOL0     C32928   0.836   8.011   9.992 -0.1906 -0.5785  1.5256
  250MOL0     C32929   0.880   7.891  10.067 -0.5451  0.0529 -0.0064
  250MOL0     C32930   1.025   7.850  10.030  0.0247  0.1663 -0.0784
  250MOL0     C32931   1.044   7.825   9.891  0.3747  0.3212  1.0957
  250MOL0     C32932   1.079   7.781   9.787  0.2740  1.6615  0.2942
  250MOL0     C32933   0.436   8.158  10.062 -1.0874  0.2112 -0.5877
  250MOL0     C32934   0.312   8.218  10.090  0.3718  0.1446  0.4298
  250MOL0     H32935   0.003   8.572  10.280  1.9565 -1.6953  0.0461
  250MOL0     H32936  -0.246   8.611  10.362 -2.7367 -2.1827 -0.8115
  250MOL0     H32937  -0.426   8.362  10.681 -2.7688 -0.9681 -0.2096
  250MOL0     H32938  -0.460   8.267  10.545  0.3279 -1.1498  3.8236
  250MOL0     H32939  -0.666   8.346  10.659 -0.2714  1.7941  0.1565
  250MOL0     H32940  -0.648   8.422  10.504  0.2662  0.6898 -0.7989
  250MOL0     H32941  -0.565   8.630  10.592  1.4463  1.5700  2.0027
  250MOL0     H32942  -0.566   8.567  10.755  4.6460 -0.4304 -2.0724
  250MOL0     H32943  -0.813   8.587  10.562 -1.6003 -0.5397 -0.3165
  250MOL0     H32944  -0.822   8.540  10.735 -2.1745 -0.6625 -2.8921
  250MOL0     H32945  -0.762   8.757  10.804 -0.0127 -0.1719 -0.2450
  250MOL0     H32946  -0.918   8.724  10.727  0.1551 -3.1645  1.0350
  250MOL0     H32947  -0.865   8.931  10.621 -0.5307  0.7919 -0.7458
  250MOL0     H32948  -0.818   8.806  10.506 -0.2788 -4.3256  1.8132
  250MOL0     H32949  -0.629   8.941  10.711  3.4085 -1.7313 -0.2494
  250MOL0     H32950  -0.583   8.842  10.574 -1.0594  0.1355 -0.8935
  250MOL0     H32951  -0.749   9.094  10.528 -1.9414 -2.1974 -3.7840
  250MOL0     H32952  -0.637   9.007  10.422 -0.0656 -2.8133  0.7776
  250MOL0     H32953  -0.386   9.133  10.399  2.1528  1.0365  0.1396
  250MOL0     H32954  -0.170   9.224  10.472 -0.5632 -0.9876  0.9176
  250MOL0     H32955  -0.140   9.299  10.633 -0.0120 -0.1629  0.3060
  250MOL0     H32956  -0.308   9.405  10.392 -0.6635 -0.9728  1.1770
  250MOL0     H32957  -0.157   9.469  10.427 -0.8056  2.7805  1.7637
  250MOL0     H32958  -0.284   9.517  10.667 -1.2086  1.2138 -0.7058
  250MOL0     H32959  -0.282   9.637  10.518 -1.9117  2.2096 -0.8206
  250MOL0     H32960  -0.506   9.433  10.580  0.3721 -0.4772 -4.4927
  250MOL0     H32961  -0.501   9.541  10.453 -0.8615 -0.0534 -0.0341
  250MOL0     H32962  -0.736   9.475  10.751  1.2129 -4.6175 -1.7348
  250MOL0     H32963  -0.967   9.466  10.684 -1.5937  2.1823  0.2014
  250MOL0     H32964  -1.334   9.324  10.613  1.8289  0.3124 -1.1327
  250MOL0     H32965  -1.560   9.345  10.644  3.6182 -1.3717  1.0930
  250MOL0     H32966  -1.783   9.733  10.579 -1.2225  1.3699  1.5140
  250MOL0     H32967  -1.772   9.684  10.747 -4.4048 -0.6969  1.9098
  250MOL0     H32968  -1.964   9.543  10.567  3.2946  0.7432 -1.7658
  250MOL0     H32969  -1.996   9.698  10.657  0.0158  0.4172 -0.8793
  250MOL0     H32970  -1.952   9.611  10.869  0.4420 -1.4098  1.8948
  250MOL0     H32971  -1.917   9.445  10.797  0.7753  0.5492  1.2238
  250MOL0     H32972  -2.152   9.436  10.728  0.4331 -0.7472 -0.2603
  250MOL0     H32973  -2.126   9.418  10.898 -0.1723 -2.3886 -2.3679
  250MOL0     H32974  -2.213   9.676  10.781  0.7041 -0.2126 -0.5262
  250MOL0     H32975  -2.193   9.643  10.953  0.8167  1.5927 -1.5734
  250MOL0     H32976  -2.387   9.459  10.908 -0.1122  0.1939 -1.1035
  250MOL0     H32977  -2.365   9.495  10.739 -0.7970 -0.5589  0.2355
  250MOL0     H32978  -2.451   9.693  10.956  2.3034  1.1890 -0.4764
  250MOL0     H32979  -2.450   9.725  10.780  1.1747 -0.4819 -0.3339
  250MOL0     H32980  -2.631   9.559  10.748  5.9146 -0.8953 -0.4716
  250MOL0     H32981  -2.682   9.694  10.848 -0.8861 -0.5549 -0.9436
  250MOL0     H32982  -1.540   9.774  10.586 -0.4613 -0.5585  0.6981
  250MOL0     H32983  -1.301   9.756  10.567  0.2287  0.1298 -1.0837
  250MOL0     H32984  -0.889   9.749  10.366 -2.9674  0.0712  0.5223
  250MOL0     H32985  -0.653   9.738  10.426 -1.2296 -0.9469 -3.3415
  250MOL0     H32986  -0.200   8.254  10.604 -0.5400  1.5263 -0.2846
  250MOL0     H32987   0.035   8.251  10.538  0.8928 -0.7381 -2.2053
  250MOL0     H32988   0.419   8.366  10.377  1.9013 -0.8919  0.3655
  250MOL0     H32989   0.628   8.253  10.332  1.7720 -3.8332  1.0655
  250MOL0     H32990   0.669   8.110   9.920 -1.7810 -1.4147 -1.1936
  250MOL0     H32991   0.624   7.958   9.993 -1.2718  0.3669  3.0039
  250MOL0     H32992   0.852   8.008   9.884 -0.5332  0.6040  1.4253
  250MOL0     H32993   0.901   8.088  10.034 -2.2577  1.9919  0.3113
  250MOL0     H32994   0.805   7.812  10.065  0.4053 -1.0375  2.9427
  250MOL0     H32995   0.885   7.916  10.173  3.0179 -0.9050  0.1853
  250MOL0     H32996   1.096   7.930  10.051  1.4211 -1.7561  3.3774
  250MOL0     H32997   1.067   7.771  10.093  0.4357  0.8030  0.4615
  250MOL0     H32998   1.110   7.735   9.696  0.8118 -1.6980  2.0411
  250MOL0     H32999   0.433   8.096   9.973 -0.6072 -1.0905  0.2742
  250MOL0     H33000   0.227   8.197  10.026 -1.4932  1.4099  2.3347
  251MOL0     O33001  10.258   0.560   9.906 -0.1421 -0.4405  0.0060
  251MOL0     C33002  10.166   0.481   9.878  0.4993  0.1449 -0.7971
  251MOL0     O33003  10.184   0.348   9.847  0.8320 -0.0841  0.2484
  251MOL0     C33004  10.311   0.299   9.838 -0.8130 -0.6377 -0.5002
  251MOL0     C33005  10.344   0.179   9.904 -0.4428  0.0651 -0.1272
  251MOL0     C33006  10.476   0.134   9.900 -1.2594 -0.1630  0.3129
  251MOL0     C33007  10.566   0.189   9.804 -0.1803  0.1013  0.1262
  251MOL0     O33008  10.705   0.153   9.801  0.2626  0.3529 -0.3100
  251MOL0     C33009  10.753   0.101   9.927 -0.8909 -0.1492 -0.7979
  251MOL0     C33010  10.885   0.029   9.912  0.1478 -0.4238 -0.7079
  251MOL0     C33011  10.924  -0.076  10.026 -0.5950  0.6857  0.0497
  251MOL0     C33012  11.039  -0.162   9.977  0.8127 -0.0567 -0.0255
  251MOL0     C33013  11.177  -0.103   9.979 -0.0036  0.3392  0.0353
  251MOL0     C33014  11.274  -0.214  10.018  0.3021  0.1879 -0.2455
  251MOL0     C33015  11.418  -0.155  10.021 -0.6761  0.3251  1.0954
  251MOL0     C33016  11.519  -0.271  10.029  0.8046 -0.8005 -0.6027
  251MOL0     N33017  11.642  -0.246   9.946 -0.0163  0.6265 -0.8394
  251MOL0     C33018  11.737  -0.139   9.958  0.3643  0.0978  0.8084
  251MOL0     C33019  11.828  -0.171   9.864  0.3843  0.2209 -0.2122
  251MOL0     C33020  11.934  -0.076   9.810 -0.1599 -0.3603  0.6018
  251MOL0     C33021  12.042  -0.066   9.917  0.0217  0.1807  0.4996
  251MOL0     C33022  12.131   0.071   9.900 -0.0170 -0.3653  0.5496
  251MOL0     C33023  12.200   0.081   9.765 -0.4865  0.6744  0.3702
  251MOL0     O33024  12.251   0.209   9.772 -0.4010  0.0107 -0.3901
  251MOL0     C33025  12.327   0.262   9.668 -0.9092 -0.0043 -0.4597
  251MOL0     C33026  12.362   0.398   9.670 -0.2934 -0.4738  0.1262
  251MOL0     C33027  12.430   0.459   9.563 -0.9733 -1.3247 -0.1090
  251MOL0     C33028  12.474   0.389   9.456  0.1687 -0.2056  1.0639
  251MOL0     C33029  12.549   0.449   9.347 -0.8998 -0.1683  0.2552
  251MOL0     O33030  12.604   0.363   9.258  0.2978 -0.0085 -0.4755
  251MOL0     C33031  12.709   0.418   9.193  0.4049  0.6753  0.9863
  251MOL0     C33032  12.679   0.468   9.073 -0.2406  0.3266  0.2689
  251MOL0     C33033  12.773   0.518   8.985  0.0795  0.5611  0.1226
  251MOL0     C33034  12.906   0.509   9.030 -0.3355 -0.9770 -0.0985
  251MOL0     O33035  13.000   0.550   8.931  0.1025  0.1078 -0.6707
  251MOL0     C33036  13.128   0.592   8.978  0.2891 -0.0002 -0.4266
  251MOL0     C33037  13.177   0.726   8.903  0.2636  0.3899 -0.2738
  251MOL0     C33038  13.187   0.703   8.760 -0.5820 -0.3309 -0.1199
  251MOL0     C33039  13.295   0.612   8.709  0.7278 -0.1218 -0.0084
  251MOL0     C33040  13.268   0.565   8.562 -0.5033 -0.5215  0.3763
  251MOL0     C33041  13.204   0.670   8.470 -0.5394 -0.6408 -0.6160
  251MOL0     C33042  13.187   0.617   8.339  0.4804  0.0539  0.4876
  251MOL0     C33043  13.118   0.730   8.258  0.5438 -0.1672 -0.1550
  251MOL0    Cl33044  13.035   0.663   8.113 -0.1521  0.4114 -0.0226
  251MOL0     C33045  12.943   0.464   9.157  0.2884  0.3380 -0.6013
  251MOL0     C33046  12.841   0.428   9.247  0.4650 -1.0047  0.6021
  251MOL0     O33047  12.590   0.568   9.365  0.1310  0.2862 -0.0367
  251MOL0     C33048  12.440   0.254   9.450  0.4298 -0.1832 -0.5301
  251MOL0     C33049  12.372   0.185   9.550 -0.3760  0.0542 -0.5670
  251MOL0     N33050  11.796  -0.297   9.812  0.1841  0.4703  0.7495
  251MOL0     N33051  11.681  -0.338   9.855  0.5973 -0.2016  0.8722
  251MOL0     C33052  10.522   0.294   9.719 -0.3964  0.1503 -0.3260
  251MOL0     C33053  10.401   0.359   9.745 -0.0967 -0.0616  0.5234
  251MOL0     C33054  10.022   0.523   9.880  0.0115 -0.8182  1.1774
  251MOL0     C33055   9.908   0.443   9.853  0.0217 -0.5538 -0.7628
  251MOL0     C33056   9.778   0.498   9.865  1.9848 -0.2549  0.2309
  251MOL0     C33057   9.753   0.632   9.900  0.0185  0.6174 -0.2528
  251MOL0     O33058   9.621   0.672   9.913  0.1611 -0.2243  0.5417
  251MOL0     C33059   9.574   0.806   9.893  0.2941 -0.2149  0.1616
  251MOL0     C33060   9.562   0.839   9.735 -0.4926 -0.4855  0.5536
  251MOL0     C33061   9.550   0.984   9.701  0.0272 -0.7322 -0.3288
  251MOL0     C33062   9.544   1.006   9.554 -1.0053 -0.3490  0.3242
  251MOL0     C33063   9.405   0.982   9.506  0.3358  1.1913  0.1678
  251MOL0     C33064   9.288   0.963   9.474  0.0898  0.5387 -0.2364
  251MOL0     C33065   9.868   0.714   9.920  0.7293  0.5027 -0.5219
  251MOL0     C33066   9.991   0.660   9.904  0.4343 -0.3286  0.0680
  251MOL0     H33067  10.281   0.122   9.971  0.5017  0.0292  0.7563
  251MOL0     H33068  10.491   0.045   9.960  0.8632 -0.7336 -0.9605
  251MOL0     H33069  10.679   0.027   9.961 -0.3553 -0.4047 -0.1521
  251MOL0     H33070  10.764   0.182   9.999  2.4779  1.4826 -2.9311
  251MOL0     H33071  10.965   0.102   9.897 -1.2980  0.8802 -2.6369
  251MOL0     H33072  10.870  -0.033   9.823  1.3071 -1.2132 -0.3818
  251MOL0     H33073  10.837  -0.140  10.042  1.6210 -2.4643  0.3077
  251MOL0     H33074  10.934  -0.015  10.116 -1.2214  2.4665 -1.0107
  251MOL0     H33075  11.035  -0.256  10.032  1.8717 -0.5093 -0.6912
  251MOL0     H33076  11.032  -0.199   9.874  2.7586 -2.1491  0.5232
  251MOL0     H33077  11.186  -0.037  10.066  3.0379 -0.4217  0.4281
  251MOL0     H33078  11.199  -0.040   9.892 -2.4503  1.1345 -0.0708
  251MOL0     H33079  11.270  -0.281   9.932 -0.4387 -2.2904  1.6040
  251MOL0     H33080  11.245  -0.265  10.110 -1.7955  0.3621 -0.7567
  251MOL0     H33081  11.438  -0.098   9.929 -0.5403 -0.4509  0.6337
  251MOL0     H33082  11.435  -0.080  10.098 -0.9869  0.3774  1.1141
  251MOL0     H33083  11.470  -0.365  10.001  1.3629 -1.2236 -0.1875
  251MOL0     H33084  11.570  -0.274  10.126  1.7049 -1.8482 -1.0917
  251MOL0     H33085  11.733  -0.048  10.017  0.9890  0.1832  0.7253
  251MOL0     H33086  11.887   0.023   9.803 -0.0073 -0.2258  1.3340
  251MOL0     H33087  11.971  -0.109   9.713 -2.4045 -2.8351  0.4958
  251MOL0     H33088  12.095  -0.161   9.921 -1.8330 -0.8714  1.3155
  251MOL0     H33089  11.991  -0.064  10.014 -1.6649  1.2122 -0.3680
  251MOL0     H33090  12.072   0.162   9.917  3.5519  2.1829  0.3317
  251MOL0     H33091  12.198   0.082   9.986 -1.7026 -0.2241  1.9098
  251MOL0     H33092  12.127   0.067   9.684 -2.6885 -3.6227  2.7224
  251MOL0     H33093  12.284   0.012   9.754 -0.5326  0.4315  1.4156
  251MOL0     H33094  12.322   0.449   9.758 -4.6287 -0.3199 -1.7151
  251MOL0     H33095  12.442   0.567   9.564 -1.8504 -1.2132 -0.7489
  251MOL0     H33096  12.573   0.474   9.048 -0.4971 -0.9292  1.0004
  251MOL0     H33097  12.755   0.549   8.883  0.0279  4.1349  1.0850
  251MOL0     H33098  13.199   0.509   8.969  0.7741  0.0448  2.1569
  251MOL0     H33099  13.122   0.622   9.083 -1.0882 -1.0624 -0.1729
  251MOL0     H33100  13.273   0.748   8.950  0.1558 -1.7272  1.0561
  251MOL0     H33101  13.111   0.804   8.943  0.3370 -0.1270  0.8875
  251MOL0     H33102  13.211   0.793   8.703 -0.0573  0.5161  1.3832
  251MOL0     H33103  13.089   0.667   8.729 -1.4814 -0.0088  2.1178
  251MOL0     H33104  13.386   0.672   8.698  0.2325  0.8603  1.0737
  251MOL0     H33105  13.310   0.534   8.784 -2.8927  0.9963  2.1656
  251MOL0     H33106  13.201   0.478   8.560 -3.2936  1.4680 -2.0022
  251MOL0     H33107  13.367   0.546   8.522 -0.6963  0.6551 -0.7377
  251MOL0     H33108  13.268   0.758   8.478  0.7706 -1.6802  4.7693
  251MOL0     H33109  13.103   0.684   8.511  0.8001 -0.8120  3.1965
  251MOL0     H33110  13.287   0.591   8.303  0.3784 -0.0584  0.2778
  251MOL0     H33111  13.138   0.520   8.344  0.5132  0.0704  1.1488
  251MOL0     H33112  13.189   0.809   8.233  1.2828 -1.0046 -0.7860
  251MOL0     H33113  13.037   0.776   8.315  1.1482  2.2550 -1.1384
  251MOL0     H33114  13.046   0.468   9.191  0.4607  2.3470 -1.2389
  251MOL0     H33115  12.852   0.387   9.347  0.2887  0.3231  1.1822
  251MOL0     H33116  12.473   0.208   9.357  1.0893  2.0705 -1.4864
  251MOL0     H33117  12.343   0.081   9.543 -0.7063  0.1548 -0.7331
  251MOL0     H33118  10.586   0.333   9.641  0.1725 -0.3957 -0.1338
  251MOL0     H33119  10.369   0.447   9.691 -3.2024  0.4175  2.8164
  251MOL0     H33120   9.916   0.337   9.833  1.9515 -0.8115  1.0307
  251MOL0     H33121   9.691   0.433   9.859  0.7371  1.2900  0.9663
  251MOL0     H33122   9.635   0.880   9.947 -0.3241  0.4391 -0.0246
  251MOL0     H33123   9.476   0.803   9.940  0.0119 -1.7616 -0.4651
  251MOL0     H33124   9.655   0.793   9.699  0.4567  0.8569  1.2269
  251MOL0     H33125   9.475   0.788   9.691 -1.5679 -0.1170  2.1557
  251MOL0     H33126   9.635   1.035   9.748  1.3406 -1.2829 -2.0235
  251MOL0     H33127   9.460   1.023   9.750  1.9260 -0.4696  3.2805
  251MOL0     H33128   9.560   1.109   9.521 -2.8328 -0.3964 -0.8400
  251MOL0     H33129   9.620   0.944   9.505  1.1919  3.0492 -0.9038
  251MOL0     H33130   9.186   0.951   9.444 -0.1689  1.2859  0.3050
  251MOL0     H33131   9.851   0.819   9.939  1.1670  0.7061 -1.2259
  251MOL0     H33132  10.075   0.729   9.913  0.0834  0.1691 -0.3871
  252MOL0     O33133  10.782   6.346   8.766 -0.6042  0.2789  0.7921
  252MOL0     C33134  10.727   6.438   8.703 -0.0145 -1.3998  0.0476
  252MOL0     O33135  10.796   6.553   8.678 -0.6858 -0.0871  0.0782
  252MOL0     C33136  10.933   6.558   8.698 -0.6278  0.3701  0.0439
  252MOL0     C33137  10.997   6.530   8.826  0.0293 -0.5047  0.5506
  252MOL0     C33138  11.135   6.531   8.841 -0.2287  1.0053 -0.0230
  252MOL0     C33139  11.218   6.571   8.742 -0.6002  0.8507  0.0912
  252MOL0     O33140  11.355   6.580   8.748  0.2919 -0.1180  0.6974
  252MOL0     C33141  11.397   6.700   8.821 -0.1866  0.2956  0.3984
  252MOL0     C33142  11.551   6.719   8.862  0.0906  0.4655  0.1951
  252MOL0     C33143  11.583   6.591   8.939 -0.1224 -0.1340  0.7185
  252MOL0     C33144  11.730   6.578   8.970 -0.4242 -0.0668  0.0725
  252MOL0     C33145  11.782   6.650   9.093 -0.3082 -0.0521 -0.5499
  252MOL0     C33146  11.939   6.642   9.102  0.0174 -0.2573  0.5159
  252MOL0     C33147  11.999   6.498   9.115 -0.6919  0.0643  0.5382
  252MOL0     C33148  12.153   6.499   9.087 -0.4453  0.8609 -1.0177
  252MOL0     N33149  12.231   6.566   9.195  0.3057 -0.6050  0.0262
  252MOL0     C33150  12.259   6.700   9.179  0.4158 -0.2245 -0.3472
  252MOL0     C33151  12.303   6.736   9.305 -0.3195 -0.5474  0.4546
  252MOL0     C33152  12.335   6.880   9.332 -0.1336  0.7701 -0.3769
  252MOL0     C33153  12.473   6.888   9.410  1.1167 -0.1246  0.8125
  252MOL0     C33154  12.556   7.004   9.371 -0.5386  0.2426  0.2828
  252MOL0     C33155  12.696   7.022   9.436 -0.1347  0.0789  0.7881
  252MOL0     O33156  12.678   7.079   9.562  0.4057  0.5782  0.2067
  252MOL0     C33157  12.786   7.154   9.608  0.3775 -0.7950 -0.4959
  252MOL0     C33158  12.768   7.257   9.706 -0.3621  0.1379 -0.3790
  252MOL0     C33159  12.864   7.353   9.742 -0.5336 -0.0725  0.2843
  252MOL0     C33160  12.999   7.333   9.692 -0.3433  0.2735 -0.8952
  252MOL0     C33161  13.117   7.413   9.712  1.4725 -0.1376  0.7809
  252MOL0     O33162  13.232   7.354   9.713 -0.1870  0.1082 -0.1134
  252MOL0     C33163  13.351   7.420   9.720 -0.3124  0.2030 -1.0430
  252MOL0     C33164  13.458   7.343   9.765 -0.0853  0.7394 -0.0239
  252MOL0     C33165  13.589   7.384   9.754 -0.0340  1.2230 -1.0210
  252MOL0     C33166  13.617   7.517   9.720 -0.1112  0.0536 -0.0919
  252MOL0     O33167  13.745   7.573   9.713 -0.0218  0.1968 -0.3133
  252MOL0     C33168  13.837   7.512   9.617  0.9270 -0.3242 -0.4541
  252MOL0     C33169  13.971   7.586   9.612 -0.1478 -0.0834 -0.5464
  252MOL0     C33170  14.053   7.524   9.498  0.1805 -0.1843  0.2074
  252MOL0     C33171  14.189   7.597   9.488  0.0024  0.6643  0.0703
  252MOL0     C33172  14.273   7.534   9.388  0.3365  0.2976  0.6513
  252MOL0     C33173  14.406   7.598   9.372 -0.0785 -0.3110 -0.8961
  252MOL0     C33174  14.495   7.529   9.275  1.0798 -1.0843  0.5930
  252MOL0     C33175  14.608   7.627   9.249  0.2759  0.5812  1.2349
  252MOL0    Cl33176  14.717   7.549   9.127 -0.2916  0.3027  0.1375
  252MOL0     C33177  13.515   7.596   9.681  0.5488 -0.2423 -1.0589
  252MOL0     C33178  13.384   7.549   9.678 -0.4973 -0.2368  0.9312
  252MOL0     O33179  13.096   7.529   9.743 -0.2045  0.6125  0.0757
  252MOL0     C33180  13.013   7.227   9.606 -0.3180  1.1057  0.5287
  252MOL0     C33181  12.916   7.133   9.567 -0.5362  0.2864 -1.0994
  252MOL0     N33182  12.300   6.629   9.386 -0.5169 -0.2243 -0.0859
  252MOL0     N33183  12.258   6.525   9.320  0.7029  0.3805 -0.0877
  252MOL0     C33184  11.166   6.594   8.617 -0.6699 -0.3295  0.3046
  252MOL0     C33185  11.026   6.596   8.596  0.0270 -0.2632 -0.0712
  252MOL0     C33186  10.599   6.419   8.627 -0.7985 -0.0055  0.1769
  252MOL0     C33187  10.531   6.525   8.570  0.5485 -1.3892  0.3341
  252MOL0     C33188  10.421   6.506   8.487 -1.1547 -0.1340  0.2122
  252MOL0     C33189  10.370   6.381   8.467  0.1808 -0.0835 -0.4067
  252MOL0     O33190  10.263   6.370   8.385  0.1073 -0.1694  0.5867
  252MOL0     C33191  10.191   6.259   8.361 -0.2010  0.7487  0.9842
  252MOL0     C33192  10.091   6.218   8.475 -0.6767 -0.0613 -0.5449
  252MOL0     C33193  10.038   6.074   8.446 -0.7282  0.6615  0.1880
  252MOL0     C33194   9.921   6.056   8.551 -0.7114 -0.1347  0.2969
  252MOL0     C33195   9.796   6.085   8.485  0.0815 -0.5901  0.0840
  252MOL0     C33196   9.689   6.129   8.463 -0.0027 -0.3509  0.2688
  252MOL0     C33197  10.435   6.271   8.522  0.1659  0.6175  0.5790
  252MOL0     C33198  10.553   6.293   8.602  0.2580 -0.4556  0.2464
  252MOL0     H33199  10.935   6.489   8.905  1.1356 -3.8549 -0.1708
  252MOL0     H33200  11.176   6.508   8.939 -2.3627 -1.4371  0.4128
  252MOL0     H33201  11.337   6.719   8.911  0.0390  1.7590  0.2541
  252MOL0     H33202  11.364   6.785   8.760  0.0379 -0.2221 -0.4717
  252MOL0     H33203  11.557   6.806   8.928 -1.2765 -0.8206  2.1197
  252MOL0     H33204  11.616   6.735   8.775 -0.5440 -0.1393 -0.4068
  252MOL0     H33205  11.556   6.501   8.884 -0.0332 -0.6992  1.5908
  252MOL0     H33206  11.522   6.588   9.030  0.6509  0.2978  1.2644
  252MOL0     H33207  11.743   6.471   8.985  4.1250 -0.0269 -1.9702
  252MOL0     H33208  11.787   6.591   8.877 -1.0433 -0.3738 -0.3596
  252MOL0     H33209  11.749   6.618   9.193  2.6677  0.0664  0.5991
  252MOL0     H33210  11.761   6.756   9.082 -0.8229  0.1842  2.0074
  252MOL0     H33211  11.970   6.712   9.181 -1.2936  4.1215 -2.4952
  252MOL0     H33212  11.985   6.674   9.008  0.8157 -1.8261  0.3235
  252MOL0     H33213  11.986   6.469   9.220 -0.0258  1.2697  0.9678
  252MOL0     H33214  11.948   6.428   9.048 -1.1642 -1.0070  1.9603
  252MOL0     H33215  12.168   6.555   8.994  0.2987  1.3658 -0.6057
  252MOL0     H33216  12.182   6.395   9.076  3.7831  1.7685 -0.1408
  252MOL0     H33217  12.246   6.770   9.097 -0.7278  0.9402  0.7832
  252MOL0     H33218  12.249   6.924   9.383 -1.2379 -2.1313  0.4312
  252MOL0     H33219  12.349   6.934   9.238  0.4848  2.9149  0.8565
  252MOL0     H33220  12.530   6.796   9.396 -0.5263 -0.9222 -1.2893
  252MOL0     H33221  12.430   6.899   9.510 -4.4864  1.0704 -1.3448
  252MOL0     H33222  12.586   6.997   9.266 -0.1139 -0.4704  0.4409
  252MOL0     H33223  12.497   7.096   9.376  0.0498  0.5974  0.8933
  252MOL0     H33224  12.758   7.083   9.369  2.1001 -1.2448  1.5478
  252MOL0     H33225  12.748   6.927   9.445  2.6874  1.0753 -2.6161
  252MOL0     H33226  12.670   7.272   9.750 -1.4648  0.2952 -2.7244
  252MOL0     H33227  12.834   7.437   9.804 -1.3647 -0.6942  0.7494
  252MOL0     H33228  13.439   7.240   9.793 -1.5246  0.6319 -1.2433
  252MOL0     H33229  13.667   7.316   9.787 -0.5116  0.5504 -1.2435
  252MOL0     H33230  13.792   7.513   9.517  0.0637  3.1063 -0.1658
  252MOL0     H33231  13.835   7.407   9.646 -1.2323  0.4570  2.6856
  252MOL0     H33232  14.015   7.580   9.712 -0.9484  3.4454  0.1582
  252MOL0     H33233  13.953   7.692   9.592 -4.6048  0.9937  5.8351
  252MOL0     H33234  14.001   7.540   9.404  2.4063  1.2310 -0.8729
  252MOL0     H33235  14.072   7.416   9.494 -1.4427 -0.4686 -0.8868
  252MOL0     H33236  14.170   7.703   9.468 -2.3433  0.3583  0.3267
  252MOL0     H33237  14.244   7.591   9.582 -0.8515 -1.5810  0.4901
  252MOL0     H33238  14.213   7.540   9.297 -2.2893  3.7438  2.3600
  252MOL0     H33239  14.275   7.428   9.413 -0.8642  0.2812  0.7108
  252MOL0     H33240  14.450   7.596   9.472 -2.6890  0.3227  0.3512
  252MOL0     H33241  14.384   7.704   9.354 -0.3713 -0.2336 -0.1404
  252MOL0     H33242  14.528   7.428   9.302  1.1175 -1.4975 -0.9013
  252MOL0     H33243  14.437   7.524   9.182 -0.0430 -0.1554  1.2077
  252MOL0     H33244  14.661   7.662   9.338  1.0187 -0.1654  1.1009
  252MOL0     H33245  14.565   7.716   9.203 -1.5487 -1.4246 -1.2416
  252MOL0     H33246  13.521   7.701   9.653 -3.7235  0.2275 -0.9215
  252MOL0     H33247  13.306   7.613   9.637  1.6971  2.4999  0.6891
  252MOL0     H33248  13.104   7.221   9.546 -0.3402 -0.7577  0.6402
  252MOL0     H33249  12.937   7.054   9.496 -0.4299 -0.4844 -0.2178
  252MOL0     H33250  11.227   6.627   8.533 -3.3145  3.5309 -0.3445
  252MOL0     H33251  10.984   6.647   8.510  3.0676  0.8638 -1.0074
  252MOL0     H33252  10.570   6.625   8.587 -0.0491 -1.2776  1.1018
  252MOL0     H33253  10.370   6.594   8.448  3.4568  2.0599 -1.6474
  252MOL0     H33254  10.256   6.174   8.340 -0.5291 -0.2258  3.5948
  252MOL0     H33255  10.140   6.275   8.265  1.4105 -1.3585 -0.3234
  252MOL0     H33256  10.150   6.204   8.567 -0.1087 -1.1914 -1.0524
  252MOL0     H33257  10.007   6.286   8.491 -1.3411 -1.4838  3.3219
  252MOL0     H33258  10.116   5.998   8.457 -0.7839  0.5875  0.0778
  252MOL0     H33259  10.011   6.071   8.340 -1.3254 -1.5219  0.3586
  252MOL0     H33260   9.911   5.952   8.582 -2.8355  0.8960  3.5655
  252MOL0     H33261   9.933   6.119   8.639 -0.9831  0.4972 -0.1163
  252MOL0     H33262   9.591   6.168   8.447  0.2674  0.2878  0.1340
  252MOL0     H33263  10.396   6.171   8.510 -1.7897  1.5935 -2.1920
  252MOL0     H33264  10.614   6.208   8.631  0.3457 -1.6448 -3.0281
  253MOL0     O33265   9.491   9.296   8.287 -0.3103 -0.7238 -0.0170
  253MOL0     C33266   9.506   9.416   8.284  0.0649  0.0814  0.0049
  253MOL0     O33267   9.404   9.503   8.277 -0.7547 -0.2059  0.0420
  253MOL0     C33268   9.281   9.449   8.305  0.7022  0.7556  0.4618
  253MOL0     C33269   9.175   9.496   8.219 -0.0164  1.3991  0.3148
  253MOL0     C33270   9.046   9.455   8.241  0.4615 -0.2043 -0.6559
  253MOL0     C33271   9.011   9.382   8.358  1.0297 -0.3576  0.1393
  253MOL0     O33272   8.872   9.358   8.374 -0.7567 -0.2594  0.0081
  253MOL0     C33273   8.832   9.265   8.471  1.1825 -0.6009 -0.2655
  253MOL0     C33274   8.680   9.244   8.445  0.1852  0.1684 -0.5869
  253MOL0     C33275   8.582   9.366   8.459 -0.0392 -0.2285  0.0721
  253MOL0     C33276   8.435   9.311   8.424  0.2932 -0.7698 -1.2019
  253MOL0     C33277   8.322   9.417   8.456  0.0602  0.5300 -0.1959
  253MOL0     C33278   8.207   9.370   8.373 -0.5372 -0.6649  0.1324
  253MOL0     C33279   8.090   9.447   8.420  0.5390  0.3088  0.5003
  253MOL0     C33280   7.964   9.353   8.405  0.0991  1.1518 -0.4762
  253MOL0     N33281   7.839   9.420   8.430 -1.0264  0.6517  0.5266
  253MOL0     C33282   7.791   9.442   8.557  0.0295  0.2590 -0.5194
  253MOL0     C33283   7.660   9.482   8.533  0.0674 -0.0164 -0.3993
  253MOL0     C33284   7.569   9.540   8.633 -0.1022  0.5403  0.6886
  253MOL0     C33285   7.430   9.467   8.626 -0.5881  0.1826 -0.3002
  253MOL0     C33286   7.342   9.527   8.524  0.4381 -0.2396  0.5773
  253MOL0     C33287   7.208   9.461   8.539  0.4981  0.7405 -0.7012
  253MOL0     O33288   7.101   9.507   8.441 -0.4070 -1.0017 -0.0169
  253MOL0     C33289   6.979   9.491   8.490 -0.3597  0.0072  0.1517
  253MOL0     C33290   6.911   9.375   8.446  0.8226  0.2422  0.0950
  253MOL0     C33291   6.776   9.354   8.492 -1.0646 -0.0775  1.1865
  253MOL0     C33292   6.715   9.447   8.571  0.5544  0.3242  0.0643
  253MOL0     C33293   6.579   9.425   8.622  0.4792  0.9282  0.0438
  253MOL0     O33294   6.540   9.296   8.632 -0.0519  0.2787  0.5067
  253MOL0     C33295   6.402   9.274   8.660 -0.4014  0.1436 -0.8048
  253MOL0     C33296   6.365   9.223   8.790  0.1171 -0.0233  0.1521
  253MOL0     C33297   6.230   9.219   8.824 -0.2917  0.1148 -0.0924
  253MOL0     C33298   6.124   9.249   8.734  0.2240 -1.4490 -0.6055
  253MOL0     O33299   5.992   9.219   8.770  0.0849 -0.2161 -0.3589
  253MOL0     C33300   5.959   9.193   8.905  0.4164 -1.0216 -0.1594
  253MOL0     C33301   5.805   9.219   8.913  0.4458 -0.7846  0.4864
  253MOL0     C33302   5.753   9.160   9.047 -0.3015  0.0328  0.4608
  253MOL0     C33303   5.645   9.060   9.024 -0.4701 -0.7475 -0.7693
  253MOL0     C33304   5.501   9.101   8.979  0.9777 -0.0490  0.0951
  253MOL0     C33305   5.472   9.232   9.056 -0.1105  0.4707  0.0931
  253MOL0     C33306   5.338   9.292   9.028  0.3923 -0.6893 -0.8190
  253MOL0     C33307   5.315   9.346   8.883 -0.2704  0.3321 -0.0846
  253MOL0    Cl33308   5.147   9.396   8.888  0.1657 -0.5030  0.0471
  253MOL0     C33309   6.158   9.302   8.607 -0.4926 -0.1610 -0.2056
  253MOL0     C33310   6.299   9.312   8.569 -0.7819 -0.1510  0.1830
  253MOL0     O33311   6.510   9.520   8.655 -0.2222 -0.1925  0.0498
  253MOL0     C33312   6.782   9.561   8.602 -0.1512 -0.1837  0.8561
  253MOL0     C33313   6.914   9.579   8.579  0.1443  0.1251  0.5773
  253MOL0     N33314   7.634   9.489   8.397  0.1229 -0.1124 -0.4737
  253MOL0     N33315   7.742   9.455   8.338  0.2044 -0.9923  0.6432
  253MOL0     C33316   9.108   9.339   8.447  0.0217 -0.3462 -1.1709
  253MOL0     C33317   9.243   9.372   8.417  0.2767 -0.2219  0.8362
  253MOL0     C33318   9.644   9.465   8.258  0.4788  0.6714  0.0448
  253MOL0     C33319   9.666   9.593   8.216  0.7943  0.6072 -0.0778
  253MOL0     C33320   9.794   9.637   8.199  0.7202 -0.3239  0.7594
  253MOL0     C33321   9.900   9.556   8.213 -0.7718 -0.6787 -0.2283
  253MOL0     O33322  10.037   9.588   8.196  0.0068  0.3581  0.3744
  253MOL0     C33323  10.075   9.714   8.157  0.0904  0.1925  0.1070
  253MOL0     C33324  10.226   9.726   8.164  0.4331 -0.3133  0.0760
  253MOL0     C33325  10.306   9.638   8.064  0.3760 -0.7947 -0.2799
  253MOL0     C33326  10.450   9.691   8.063 -0.8535  0.1650 -0.1346
  253MOL0     C33327  10.521   9.617   8.168  0.0765  0.8451  0.1105
  253MOL0     C33328  10.583   9.554   8.253  0.6281 -0.3304  0.0314
  253MOL0     C33329   9.880   9.419   8.243  1.0143 -0.2156  0.4463
  253MOL0     C33330   9.751   9.366   8.264 -0.3946 -0.3157 -0.0631
  253MOL0     H33331   9.198   9.564   8.138 -0.3910  2.1956  0.8690
  253MOL0     H33332   8.965   9.489   8.177  0.2972  0.0750 -0.3059
  253MOL0     H33333   8.843   9.309   8.571 -1.5310 -4.0347  1.7637
  253MOL0     H33334   8.878   9.167   8.459  0.7748 -0.5596 -2.5979
  253MOL0     H33335   8.631   9.162   8.498  2.7961 -2.6163 -2.2006
  253MOL0     H33336   8.673   9.209   8.342 -0.9598 -0.5234 -0.2898
  253MOL0     H33337   8.609   9.452   8.397  2.0094 -0.3763  0.6739
  253MOL0     H33338   8.586   9.400   8.563 -1.8304 -0.6128  0.3013
  253MOL0     H33339   8.430   9.279   8.319 -2.2955 -1.8022 -0.8538
  253MOL0     H33340   8.418   9.222   8.484 -4.7381 -0.2694 -1.4119
  253MOL0     H33341   8.362   9.510   8.413  0.7311  1.5929  2.5160
  253MOL0     H33342   8.308   9.428   8.564 -0.7507  1.4955 -0.3861
  253MOL0     H33343   8.185   9.265   8.394 -1.1812 -0.3356  1.1831
  253MOL0     H33344   8.221   9.385   8.265  1.4945 -0.1316  0.4086
  253MOL0     H33345   8.109   9.485   8.521 -0.1953  1.7436  0.1179
  253MOL0     H33346   8.083   9.535   8.355 -0.8112 -0.9738 -1.1557
  253MOL0     H33347   7.984   9.271   8.475 -1.4394  1.6153  0.5765
  253MOL0     H33348   7.949   9.312   8.305 -1.6924  0.8185 -0.1176
  253MOL0     H33349   7.830   9.444   8.658  0.4127  0.0505 -0.6639
  253MOL0     H33350   7.552   9.641   8.594 -0.4363  0.4224  0.5239
  253MOL0     H33351   7.622   9.532   8.728  1.8728 -0.6344 -0.4563
  253MOL0     H33352   7.387   9.478   8.725  0.5237 -0.4002  0.2727
  253MOL0     H33353   7.438   9.364   8.590  1.6139  0.7237 -1.5714
  253MOL0     H33354   7.332   9.628   8.566  0.6374  0.7700 -1.6615
  253MOL0     H33355   7.377   9.520   8.420  2.4308 -0.8516  1.2484
  253MOL0     H33356   7.181   9.494   8.640 -0.8367 -1.2288 -0.3591
  253MOL0     H33357   7.223   9.353   8.550  1.1233  0.8996  0.0671
  253MOL0     H33358   6.954   9.307   8.374 -0.5493  1.2618 -1.7485
  253MOL0     H33359   6.717   9.268   8.459 -1.2509  0.6321 -0.4467
  253MOL0     H33360   6.445   9.193   8.857  1.2693 -0.4790 -1.3859
  253MOL0     H33361   6.205   9.183   8.924  1.2605 -1.8589 -0.3396
  253MOL0     H33362   6.023   9.263   8.959 -0.9102  0.7637 -0.7769
  253MOL0     H33363   5.988   9.091   8.929  2.3610 -1.2728 -3.0414
  253MOL0     H33364   5.754   9.176   8.826  1.5663  0.7847 -1.0188
  253MOL0     H33365   5.788   9.327   8.902  4.5023  0.0473  0.8398
  253MOL0     H33366   5.744   9.239   9.122 -0.3985 -1.5995  2.2340
  253MOL0     H33367   5.838   9.108   9.092 -1.7329 -0.3526  2.8946
  253MOL0     H33368   5.681   8.978   8.961  0.5895  0.5935 -1.9610
  253MOL0     H33369   5.634   9.009   9.120  1.4124 -0.1747 -0.2091
  253MOL0     H33370   5.426   9.026   9.003 -0.0165  0.8060 -0.2648
  253MOL0     H33371   5.498   9.118   8.871 -0.1686  1.9227  0.3889
  253MOL0     H33372   5.544   9.309   9.027 -1.9839  3.0462  1.8692
  253MOL0     H33373   5.487   9.220   9.163 -0.8129  0.4590  0.1954
  253MOL0     H33374   5.262   9.219   9.055 -0.8621  0.8664  0.0367
  253MOL0     H33375   5.311   9.379   9.088  1.8291  0.1434 -1.3224
  253MOL0     H33376   5.331   9.272   8.805 -3.1318 -0.9397  0.4333
  253MOL0     H33377   5.374   9.434   8.856 -1.0375  1.5775  2.0568
  253MOL0     H33378   6.078   9.331   8.540  0.3583  2.7680 -0.0839
  253MOL0     H33379   6.326   9.355   8.473 -0.3815 -0.1379  0.2971
  253MOL0     H33380   6.731   9.639   8.657 -1.6727 -0.3072 -0.2890
  253MOL0     H33381   6.957   9.675   8.604 -3.7181  1.6208  2.2491
  253MOL0     H33382   9.075   9.297   8.542  0.2215  0.4894 -0.7174
  253MOL0     H33383   9.320   9.329   8.480  0.2732 -1.3763  0.0828
  253MOL0     H33384   9.584   9.663   8.201  0.4717  0.3363  0.3876
  253MOL0     H33385   9.803   9.744   8.183  4.0407 -0.7392 -0.9469
  253MOL0     H33386  10.029   9.788   8.223  1.0374 -0.3791  1.4611
  253MOL0     H33387  10.043   9.737   8.055 -0.2677  3.0151  0.7790
  253MOL0     H33388  10.254   9.830   8.147 -0.0800  0.0367  1.3117
  253MOL0     H33389  10.254   9.707   8.267  1.2446  0.0838 -0.0637
  253MOL0     H33390  10.271   9.645   7.961  3.2135 -1.5935 -1.3842
  253MOL0     H33391  10.310   9.531   8.084 -0.0169 -1.6404 -4.0113
  253MOL0     H33392  10.497   9.665   7.967  0.7183  0.7869  0.4353
  253MOL0     H33393  10.457   9.799   8.077  0.5527  0.2650 -1.2846
  253MOL0     H33394  10.648   9.510   8.325  3.2975  1.5558 -1.0559
  253MOL0     H33395   9.966   9.352   8.244  0.0168 -1.5498  1.5579
  253MOL0     H33396   9.736   9.261   8.285 -0.9127 -0.4544 -1.0370
  254MOL0     O33397   1.275   6.842   4.806 -0.7569  0.5968  0.2158
  254MOL0     C33398   1.280   6.948   4.746  1.3162  0.1565  0.3830
  254MOL0     O33399   1.165   7.026   4.714  0.1828 -0.2954  0.0730
  254MOL0     C33400   1.036   6.975   4.718 -0.5464  0.4897  0.4662
  254MOL0     C33401   0.928   7.059   4.707  0.1972  0.5477 -0.4018
  254MOL0     C33402   0.794   7.005   4.707 -0.0186 -0.3344  0.7124
  254MOL0     C33403   0.769   6.868   4.725  0.4581 -0.0639 -0.4452
  254MOL0     O33404   0.629   6.841   4.742 -0.0816  0.3488 -0.1748
  254MOL0     C33405   0.579   6.707   4.742 -0.6646  0.1326 -0.4820
  254MOL0     C33406   0.433   6.705   4.784  0.1373 -0.7851 -0.1771
  254MOL0     C33407   0.360   6.580   4.729  0.9772  0.6099 -0.9594
  254MOL0     C33408   0.249   6.531   4.822 -0.7047  0.3968  0.1750
  254MOL0     C33409   0.150   6.450   4.753 -0.2536  0.3657  0.6207
  254MOL0     C33410   0.015   6.438   4.841  1.0219  0.1366  0.1217
  254MOL0     C33411  -0.084   6.344   4.770 -0.2143 -0.4061  0.4778
  254MOL0     C33412  -0.185   6.422   4.691  0.7285 -0.8464  0.6430
  254MOL0     N33413  -0.311   6.433   4.771  0.4424  0.2813 -0.4239
  254MOL0     C33414  -0.381   6.546   4.808  1.0208  0.1888  0.0250
  254MOL0     C33415  -0.498   6.506   4.862 -0.5265  0.3261  0.0023
  254MOL0     C33416  -0.616   6.598   4.885  0.3144 -0.1245 -0.7229
  254MOL0     C33417  -0.687   6.611   4.754  0.4898 -0.4613 -0.6220
  254MOL0     C33418  -0.827   6.689   4.760  0.3601  1.4654 -0.1669
  254MOL0     C33419  -0.914   6.645   4.635  0.0717  0.7093 -1.1457
  254MOL0     O33420  -1.037   6.721   4.618  0.4117  0.7009  0.0176
  254MOL0     C33421  -1.132   6.653   4.558 -0.2375 -0.4691  0.5080
  254MOL0     C33422  -1.120   6.538   4.477 -0.1825 -0.4433 -0.2450
  254MOL0     C33423  -1.233   6.475   4.429  0.8090 -0.0801  0.7922
  254MOL0     C33424  -1.359   6.516   4.477 -0.6774 -0.9002 -0.3280
  254MOL0     C33425  -1.472   6.428   4.457 -0.7098  0.1826  0.1497
  254MOL0     O33426  -1.603   6.475   4.496  0.1605  0.0145  0.8299
  254MOL0     C33427  -1.711   6.392   4.517  0.6270  0.7013  0.2600
  254MOL0     C33428  -1.845   6.442   4.502  0.0135  0.4012 -0.2311
  254MOL0     C33429  -1.964   6.371   4.534  0.8002 -0.2303  1.3606
  254MOL0     C33430  -1.955   6.236   4.569 -0.0653  0.5015  0.2806
  254MOL0     O33431  -2.058   6.148   4.565  0.5413  0.2640  0.1573
  254MOL0     C33432  -2.090   6.082   4.683 -0.1485 -0.7908 -1.1007
  254MOL0     C33433  -2.184   5.962   4.667 -0.3411 -0.0506 -0.4616
  254MOL0     C33434  -2.330   5.985   4.639 -0.3369 -1.2009 -0.0328
  254MOL0     C33435  -2.403   5.864   4.582 -0.4796 -1.4661  0.5687
  254MOL0     C33436  -2.554   5.874   4.595 -0.0530  0.6989 -0.5705
  254MOL0     C33437  -2.609   5.838   4.734 -0.1736 -0.3008  0.3245
  254MOL0     C33438  -2.756   5.859   4.757  0.0363 -0.9591 -0.2998
  254MOL0     C33439  -2.796   6.008   4.736 -0.2446  0.6578 -0.5384
  254MOL0    Cl33440  -2.734   6.111   4.863  0.3932  0.1314 -0.1239
  254MOL0     C33441  -1.825   6.183   4.585 -1.4026  0.6349 -0.4078
  254MOL0     C33442  -1.708   6.253   4.552  0.4747  0.0419  0.2862
  254MOL0     O33443  -1.451   6.315   4.419  0.1824 -0.3985  0.0781
  254MOL0     C33444  -1.369   6.627   4.558 -0.4032  0.2112  0.1358
  254MOL0     C33445  -1.260   6.697   4.595  0.0784 -0.2111  0.1114
  254MOL0     N33446  -0.507   6.369   4.852 -0.3142  0.3321  0.0241
  254MOL0     N33447  -0.396   6.325   4.806 -0.3979 -0.1132  0.2620
  254MOL0     C33448   0.876   6.779   4.722 -0.0125  0.9342  0.9845
  254MOL0     C33449   1.002   6.837   4.719 -0.5040 -0.0018  0.0327
  254MOL0     C33450   1.422   6.990   4.707 -0.2494  1.1000  0.8443
  254MOL0     C33451   1.455   7.112   4.659 -0.2912 -0.2076  0.6247
  254MOL0     C33452   1.580   7.160   4.641 -0.3228 -0.1817  0.1441
  254MOL0     C33453   1.695   7.090   4.687  0.8594 -0.0378  0.4412
  254MOL0     O33454   1.831   7.125   4.687  0.1326 -0.6441  0.4386
  254MOL0     C33455   1.869   7.263   4.651 -0.3909  0.2232  0.1769
  254MOL0     C33456   2.015   7.249   4.612  0.4752 -0.5259 -0.8663
  254MOL0     C33457   2.044   7.196   4.462  0.1517 -0.3598 -0.3264
  254MOL0     C33458   2.185   7.230   4.428 -0.2970  0.3579  0.2548
  254MOL0     C33459   2.214   7.367   4.383 -0.2170  0.0205  0.5784
  254MOL0     C33460   2.234   7.479   4.350  0.2511  0.7682 -0.8314
  254MOL0     C33461   1.663   6.959   4.730 -0.6349 -0.3130 -0.4818
  254MOL0     C33462   1.530   6.912   4.748 -0.7639 -0.3582  0.5067
  254MOL0     H33463   0.939   7.167   4.703 -0.3528  0.6150 -0.2189
  254MOL0     H33464   0.710   7.070   4.688  0.5854  0.3362  0.2536
  254MOL0     H33465   0.631   6.657   4.824 -3.4613  0.7337  1.7878
  254MOL0     H33466   0.597   6.658   4.646  0.2816  0.8194 -0.6688
  254MOL0     H33467   0.390   6.798   4.747 -0.5263 -1.1891 -0.4495
  254MOL0     H33468   0.437   6.700   4.894  3.3482 -2.1452 -0.2418
  254MOL0     H33469   0.433   6.502   4.708  0.8915  0.2437  0.0529
  254MOL0     H33470   0.307   6.604   4.636 -2.2084  0.3733  0.6516
  254MOL0     H33471   0.283   6.481   4.913  2.0205  2.6288  0.5020
  254MOL0     H33472   0.196   6.618   4.861 -2.3034  0.4548 -1.9390
  254MOL0     H33473   0.188   6.350   4.730 -0.8428 -0.2582  2.2164
  254MOL0     H33474   0.123   6.469   4.649  0.1683 -1.9888  0.0320
  254MOL0     H33475  -0.024   6.536   4.870  3.8464  1.4716 -0.1941
  254MOL0     H33476   0.048   6.397   4.937  1.8442  1.2040  0.3241
  254MOL0     H33477  -0.036   6.274   4.701 -1.1490 -0.7377  0.1585
  254MOL0     H33478  -0.131   6.278   4.842  0.9644 -0.9009  0.8201
  254MOL0     H33479  -0.207   6.355   4.607  2.5970 -0.1441 -0.4538
  254MOL0     H33480  -0.150   6.517   4.650 -1.3747 -0.4536 -0.3887
  254MOL0     H33481  -0.365   6.652   4.792 -2.3589  0.8567  0.3424
  254MOL0     H33482  -0.578   6.698   4.907  0.7722 -0.0654 -1.7423
  254MOL0     H33483  -0.681   6.565   4.967 -2.4625  1.1591 -2.2811
  254MOL0     H33484  -0.708   6.513   4.710  1.9604 -1.1214  0.0668
  254MOL0     H33485  -0.625   6.668   4.684  1.6567 -0.1959  0.5910
  254MOL0     H33486  -0.884   6.651   4.845  0.9663 -0.4102 -0.5592
  254MOL0     H33487  -0.809   6.796   4.772 -0.6843  1.5270  1.0778
  254MOL0     H33488  -0.926   6.537   4.647  0.5310  0.9227  2.7305
  254MOL0     H33489  -0.854   6.663   4.546  3.1631 -2.1412  0.1415
  254MOL0     H33490  -1.022   6.509   4.442 -0.3312  0.0022 -1.0684
  254MOL0     H33491  -1.228   6.392   4.358  1.8672  1.4595 -1.0450
  254MOL0     H33492  -1.869   6.535   4.451 -2.9862 -0.5396 -0.7539
  254MOL0     H33493  -2.063   6.414   4.521  0.7142 -0.7379  0.2392
  254MOL0     H33494  -2.122   6.158   4.756  2.2004  2.7210 -3.4662
  254MOL0     H33495  -1.997   6.043   4.724 -0.9258 -0.9367  0.6429
  254MOL0     H33496  -2.167   5.891   4.749 -0.9927  1.6401  1.1958
  254MOL0     H33497  -2.145   5.898   4.588  2.4975  0.7620  0.1608
  254MOL0     H33498  -2.340   6.070   4.570 -1.4332  1.3172  3.0156
  254MOL0     H33499  -2.375   6.015   4.734  1.4552 -1.6132  0.9959
  254MOL0     H33500  -2.382   5.863   4.475  0.5933  0.0756  0.7212
  254MOL0     H33501  -2.367   5.771   4.627 -0.1256 -1.1245  1.0160
  254MOL0     H33502  -2.593   5.808   4.518 -2.5412 -0.5111  1.5847
  254MOL0     H33503  -2.586   5.976   4.569 -0.2109  0.9191  0.4332
  254MOL0     H33504  -2.557   5.884   4.820 -1.7925 -0.3688  1.3791
  254MOL0     H33505  -2.598   5.732   4.758 -0.8668  0.0541  2.4705
  254MOL0     H33506  -2.817   5.797   4.691  2.6672 -2.7068 -1.2458
  254MOL0     H33507  -2.784   5.829   4.858  1.3081  1.3478  0.8309
  254MOL0     H33508  -2.905   6.016   4.741 -0.0396  4.1520  0.4528
  254MOL0     H33509  -2.776   6.044   4.635  2.4304 -0.1341 -0.3689
  254MOL0     H33510  -1.818   6.080   4.620 -0.6294  0.2677 -1.5633
  254MOL0     H33511  -1.610   6.208   4.564  1.1928  0.5844 -2.6855
  254MOL0     H33512  -1.472   6.653   4.582 -0.7468 -2.8415  2.6728
  254MOL0     H33513  -1.287   6.779   4.660 -0.3518  0.9812 -1.5003
  254MOL0     H33514   0.849   6.674   4.725 -1.8788  1.2654 -1.2893
  254MOL0     H33515   1.082   6.763   4.721  0.5101  0.9991 -1.2116
  254MOL0     H33516   1.376   7.183   4.633  0.5761  0.2722 -0.8371
  254MOL0     H33517   1.602   7.254   4.592 -1.9992  0.1549 -0.0276
  254MOL0     H33518   1.864   7.329   4.737  3.7052  0.4604  0.4473
  254MOL0     H33519   1.813   7.283   4.559 -1.4991  2.0964  1.2202
  254MOL0     H33520   2.046   7.352   4.596 -3.0516  1.1784  2.0371
  254MOL0     H33521   2.069   7.196   4.692 -1.7118 -2.2577 -0.4331
  254MOL0     H33522   1.979   7.259   4.399  2.8474  0.9526 -1.9719
  254MOL0     H33523   2.021   7.090   4.449 -0.1413 -0.3413  0.0446
  254MOL0     H33524   2.242   7.199   4.516 -2.2660 -0.1067  1.4096
  254MOL0     H33525   2.233   7.166   4.353 -2.9449  0.4287 -1.6402
  254MOL0     H33526   2.244   7.580   4.316 -0.0560  0.3534 -2.2360
  254MOL0     H33527   1.742   6.888   4.751  0.0890  0.8904  1.0453
  254MOL0     H33528   1.512   6.811   4.783 -0.2726 -0.6817 -0.1500
  255MOL0     O33529   5.782   1.310   0.416 -0.3940 -1.1873  0.4694
  255MOL0     C33530   5.769   1.432   0.392 -0.1330 -0.3779  0.1290
  255MOL0     O33531   5.652   1.497   0.366  0.0784  0.4399  0.5215
  255MOL0     C33532   5.547   1.434   0.307 -1.0666  0.8959 -0.4974
  255MOL0     C33533   5.570   1.325   0.224 -0.0826  1.0253  0.3775
  255MOL0     C33534   5.465   1.244   0.178  0.0856 -1.3065 -0.1131
  255MOL0     C33535   5.332   1.287   0.207  0.3641 -0.1892 -0.6909
  255MOL0     O33536   5.240   1.216   0.140  0.4639  0.1529 -0.7208
  255MOL0     C33537   5.219   1.271   0.009  0.0778  0.4506  0.5703
  255MOL0     C33538   5.120   1.173  -0.056  0.3054  0.4238  0.3308
  255MOL0     C33539   4.984   1.196   0.011  0.2941  0.3201 -0.0238
  255MOL0     C33540   4.881   1.111  -0.053 -0.3338  0.7432 -0.0105
  255MOL0     C33541   4.744   1.104   0.013  0.0356  0.1330  0.5300
  255MOL0     C33542   4.642   1.015  -0.058  0.3509 -0.0107 -0.2520
  255MOL0     C33543   4.506   1.022   0.023  0.0499  0.2958 -0.2484
  255MOL0     C33544   4.386   0.975  -0.054  1.0779  0.0709 -0.7981
  255MOL0     N33545   4.261   1.001   0.028 -1.7884  0.2472  0.5194
  255MOL0     C33546   4.222   0.948   0.148  0.1080  0.4169  0.7506
  255MOL0     C33547   4.100   1.005   0.174 -0.6551  0.3385 -0.1005
  255MOL0     C33548   4.011   0.995   0.296 -0.0803  0.6173  0.7080
  255MOL0     C33549   3.886   0.908   0.253 -0.1601  0.4022  0.5166
  255MOL0     C33550   3.798   0.864   0.366  0.2226  0.0726  0.1043
  255MOL0     C33551   3.765   0.976   0.467  0.3053  0.1826 -0.4139
  255MOL0     O33552   3.643   0.939   0.541  0.4832  0.6221 -0.7300
  255MOL0     C33553   3.517   0.946   0.483 -0.4544  0.5814 -0.3259
  255MOL0     C33554   3.416   0.874   0.550  0.2873  0.6963  0.3258
  255MOL0     C33555   3.286   0.862   0.496 -0.2806  0.5666 -0.5124
  255MOL0     C33556   3.259   0.915   0.368 -0.0922  0.5123  0.0105
  255MOL0     C33557   3.132   0.894   0.303  0.7526 -0.2668 -0.7139
  255MOL0     O33558   3.081   1.003   0.259  0.3411 -0.8502 -0.2963
  255MOL0     C33559   2.945   1.019   0.222  0.8061  0.2488  0.3480
  255MOL0     C33560   2.913   1.106   0.116  0.6781 -0.0124  0.1575
  255MOL0     C33561   2.784   1.138   0.088  0.7677  0.0849 -0.3366
  255MOL0     C33562   2.676   1.089   0.167  0.0283  0.1643 -0.1207
  255MOL0     O33563   2.547   1.143   0.160 -0.3353  0.0232 -0.2314
  255MOL0     C33564   2.448   1.104   0.254 -0.4172 -0.4943 -0.1428
  255MOL0     C33565   2.328   1.181   0.229  0.2137  0.4063 -0.8916
  255MOL0     C33566   2.263   1.116   0.101 -0.5980  0.8029 -0.4833
  255MOL0     C33567   2.118   1.165   0.076 -0.7924  0.7119  0.2351
  255MOL0     C33568   2.125   1.312   0.037  0.2852 -0.7430  0.6369
  255MOL0     C33569   1.986   1.386   0.026 -0.3520 -0.6224 -0.3816
  255MOL0     C33570   1.943   1.421   0.173  0.3993  0.2253 -0.2920
  255MOL0     C33571   1.816   1.497   0.173 -0.1852 -0.4136 -0.7367
  255MOL0    Cl33572   1.732   1.494   0.328 -0.1217 -0.4219 -0.0167
  255MOL0     C33573   2.713   0.993   0.267 -0.9818 -0.0059 -0.2982
  255MOL0     C33574   2.843   0.956   0.296  0.3869 -0.1277 -0.0362
  255MOL0     O33575   3.078   0.786   0.308  0.1435  0.0004  0.3107
  255MOL0     C33576   3.361   0.989   0.301  1.1263 -0.2451  0.4079
  255MOL0     C33577   3.482   1.001   0.357 -0.8563 -1.1710  0.6408
  255MOL0     N33578   4.068   1.096   0.078  0.8421  0.1269 -0.5361
  255MOL0     N33579   4.166   1.082  -0.011  1.3260  0.2700  0.5910
  255MOL0     C33580   5.307   1.401   0.289  0.1161  0.0660  1.1185
  255MOL0     C33581   5.417   1.472   0.348 -0.1167  0.6537  0.2064
  255MOL0     C33582   5.890   1.515   0.390  0.8154  0.2290 -0.4633
  255MOL0     C33583   6.015   1.471   0.426 -0.6813  0.3174  0.0056
  255MOL0     C33584   6.131   1.548   0.423  0.3395  0.5694  1.0257
  255MOL0     C33585   6.121   1.680   0.384 -0.3576  0.2151 -0.6395
  255MOL0     O33586   6.229   1.762   0.382  0.5230 -0.1510  0.0836
  255MOL0     C33587   6.364   1.743   0.443 -0.2412 -0.8526 -0.3315
  255MOL0     C33588   6.449   1.872   0.421 -0.2837 -0.5783 -0.0851
  255MOL0     C33589   6.588   1.856   0.483  0.4837  0.3082  0.2399
  255MOL0     C33590   6.582   1.889   0.630 -0.3474 -0.0061 -0.1887
  255MOL0     C33591   6.712   1.890   0.692 -0.1942 -1.5266 -0.5590
  255MOL0     C33592   6.823   1.883   0.739 -0.0632  0.1705  0.1314
  255MOL0     C33593   5.999   1.731   0.356  0.8419  1.2755  0.3246
  255MOL0     C33594   5.877   1.651   0.354 -0.4353  0.6680  0.5986
  255MOL0     H33595   5.666   1.284   0.194 -1.1850 -1.9389  0.5426
  255MOL0     H33596   5.477   1.161   0.109 -0.7091 -0.4367 -1.3227
  255MOL0     H33597   5.310   1.270  -0.052  0.1462 -1.3618  0.6593
  255MOL0     H33598   5.185   1.375   0.002 -0.2816  0.2668 -0.6473
  255MOL0     H33599   5.142   1.066  -0.046 -0.5893  0.1050 -0.9531
  255MOL0     H33600   5.123   1.188  -0.164 -0.3697  1.2778  0.4217
  255MOL0     H33601   4.957   1.301   0.002  1.6507  0.5577 -2.2219
  255MOL0     H33602   4.996   1.175   0.118  1.1189 -1.3043 -0.3941
  255MOL0     H33603   4.866   1.145  -0.156  0.7375 -0.7241 -0.7062
  255MOL0     H33604   4.923   1.010  -0.053  1.7435  1.5142 -1.6660
  255MOL0     H33605   4.708   1.207   0.024  0.8780  0.3499  1.4672
  255MOL0     H33606   4.759   1.061   0.113  0.1502 -1.6699 -0.2232
  255MOL0     H33607   4.668   0.913  -0.085 -0.0201  0.1108 -1.1282
  255MOL0     H33608   4.628   1.059  -0.158 -1.7578 -1.7759 -0.8061
  255MOL0     H33609   4.516   0.969   0.118 -2.0055 -1.1283 -0.7793
  255MOL0     H33610   4.490   1.128   0.047  0.0233  0.2927 -0.2524
  255MOL0     H33611   4.392   0.866  -0.058  1.1167 -0.0274  1.1592
  255MOL0     H33612   4.372   1.017  -0.155 -0.9406  1.2800 -0.0604
  255MOL0     H33613   4.283   0.876   0.202 -1.5035 -1.4347  0.2049
  255MOL0     H33614   3.972   1.094   0.322 -1.1497  1.7155 -4.0603
  255MOL0     H33615   4.068   0.958   0.381 -0.8437 -0.6932  0.6742
  255MOL0     H33616   3.921   0.813   0.212 -2.7770 -0.4141 -0.0089
  255MOL0     H33617   3.833   0.942   0.163  1.8496  0.3473 -0.7353
  255MOL0     H33618   3.710   0.816   0.323  0.5512 -0.1860 -0.2881
  255MOL0     H33619   3.846   0.782   0.420  0.7079  0.9175  0.9987
  255MOL0     H33620   3.744   1.071   0.416  2.1369 -0.5555 -2.7010
  255MOL0     H33621   3.853   0.971   0.532  0.7421  3.0993 -0.6088
  255MOL0     H33622   3.456   0.815   0.632  1.8404  1.6009  0.2721
  255MOL0     H33623   3.226   0.794   0.555  3.3832 -1.5159  1.2013
  255MOL0     H33624   2.984   1.163   0.055 -2.4350  1.7028 -2.1776
  255MOL0     H33625   2.765   1.216   0.015  2.3493 -1.8074 -2.9079
  255MOL0     H33626   2.489   1.125   0.353 -1.7081  2.0346 -0.0613
  255MOL0     H33627   2.437   0.995   0.258  2.2474 -0.8082  0.1282
  255MOL0     H33628   2.355   1.287   0.218 -1.2418  0.7554 -1.3736
  255MOL0     H33629   2.261   1.166   0.314 -1.5836  3.1794 -1.6780
  255MOL0     H33630   2.257   1.012   0.132  0.4840  0.0491 -2.6084
  255MOL0     H33631   2.332   1.123   0.017  0.1506 -1.1217 -0.0633
  255MOL0     H33632   2.072   1.100   0.002 -0.4162 -1.7660  2.0226
  255MOL0     H33633   2.056   1.160   0.167 -0.4260 -0.2144  0.4460
  255MOL0     H33634   2.169   1.310  -0.063  0.7611  0.5267  0.7967
  255MOL0     H33635   2.193   1.379   0.091  1.4641  0.8815 -2.6028
  255MOL0     H33636   1.908   1.320  -0.014  0.8872 -1.7178 -1.0811
  255MOL0     H33637   1.999   1.483  -0.022 -2.3179  1.0374  2.1601
  255MOL0     H33638   1.927   1.329   0.230 -2.1445  1.5147  1.2478
  255MOL0     H33639   2.012   1.484   0.229  0.1919  2.5479 -2.4656
  255MOL0     H33640   1.753   1.457   0.093 -1.6377  0.9519 -0.3231
  255MOL0     H33641   1.834   1.604   0.160 -1.1407 -0.4105 -2.2444
  255MOL0     H33642   2.650   0.936   0.335  1.3866  1.4766  3.5023
  255MOL0     H33643   2.865   0.884   0.374  2.4110  1.7641  1.2662
  255MOL0     H33644   3.348   1.026   0.200 -1.3161 -1.2106  0.2962
  255MOL0     H33645   3.556   1.048   0.294 -1.0271  0.2957  1.4939
  255MOL0     H33646   5.202   1.423   0.303 -0.2459  2.2428 -3.2715
  255MOL0     H33647   5.394   1.555   0.414 -1.6299  0.8520 -0.5285
  255MOL0     H33648   6.030   1.366   0.452  2.4482  0.6370 -0.1033
  255MOL0     H33649   6.232   1.508   0.430 -0.2300 -0.8907  1.2383
  255MOL0     H33650   6.423   1.654   0.421  4.3693  1.9577 -0.5999
  255MOL0     H33651   6.340   1.728   0.549 -0.0738 -1.2660 -0.3511
  255MOL0     H33652   6.451   1.875   0.312  1.7388 -3.1319 -0.2193
  255MOL0     H33653   6.398   1.958   0.467  0.6014 -0.3336  0.4794
  255MOL0     H33654   6.645   1.930   0.426  1.1914 -0.0932  0.4122
  255MOL0     H33655   6.646   1.766   0.460  0.3843  0.4590 -0.6487
  255MOL0     H33656   6.538   1.987   0.649  0.3128  0.6298 -1.7516
  255MOL0     H33657   6.528   1.807   0.678 -0.1212 -0.8080 -1.2588
  255MOL0     H33658   6.919   1.854   0.775 -0.2569 -0.5519  0.0751
  255MOL0     H33659   5.992   1.837   0.338 -0.1098  1.3637  1.0929
  255MOL0     H33660   5.781   1.700   0.342 -3.4358 -4.3370  1.0214
  256MOL0     O33661   4.256   2.840   5.454  0.0925 -0.2796 -0.3982
  256MOL0     C33662   4.269   2.957   5.416 -0.0951  0.3798  0.1194
  256MOL0     O33663   4.381   3.045   5.446 -0.8496  0.4947 -0.5961
  256MOL0     C33664   4.479   3.006   5.539 -0.1859 -0.1122 -0.0779
  256MOL0     C33665   4.605   2.996   5.501 -0.4644  0.6996 -0.1827
  256MOL0     C33666   4.712   2.959   5.582  0.1431 -0.4708 -0.1296
  256MOL0     C33667   4.690   2.937   5.717  1.0127  0.1998 -0.1786
  256MOL0     O33668   4.787   2.884   5.796  0.1989  0.0144  0.0721
  256MOL0     C33669   4.769   2.850   5.936 -0.1423  0.1912 -0.5684
  256MOL0     C33670   4.787   2.983   6.003 -0.0586  0.2809 -0.1222
  256MOL0     C33671   4.816   2.962   6.160  0.1260  0.0872 -0.2020
  256MOL0     C33672   4.958   2.917   6.202 -0.5598  0.0962  0.2549
  256MOL0     C33673   4.953   2.778   6.274  0.6223  1.1461  0.0751
  256MOL0     C33674   4.937   2.808   6.425  1.0404  0.7948 -0.0099
  256MOL0     C33675   4.952   2.689   6.516 -0.0648  0.1063 -0.0543
  256MOL0     C33676   5.086   2.611   6.494  0.1446 -0.2959 -0.2139
  256MOL0     N33677   5.109   2.489   6.560  0.1030  0.2491 -0.5613
  256MOL0     C33678   5.209   2.396   6.538 -0.5452 -0.3944 -1.2214
  256MOL0     C33679   5.221   2.323   6.647 -0.0027 -0.0927 -0.0137
  256MOL0     C33680   5.337   2.222   6.659 -0.0560  0.0148  0.0356
  256MOL0     C33681   5.396   2.228   6.800 -0.3190 -0.7074 -1.0994
  256MOL0     C33682   5.379   2.102   6.897  0.1791 -0.0253 -0.3918
  256MOL0     C33683   5.235   2.125   6.960  0.1420 -0.5367  0.0258
  256MOL0     O33684   5.181   2.008   7.022  0.0326  0.1671  0.1670
  256MOL0     C33685   5.042   1.987   7.014 -0.3533 -0.2484 -0.6437
  256MOL0     C33686   4.941   2.080   6.969  0.6499 -0.7844 -0.4430
  256MOL0     C33687   4.795   2.054   6.978  0.2424 -0.9888 -1.8387
  256MOL0     C33688   4.755   1.924   7.017 -0.4041  0.2037  0.1988
  256MOL0     C33689   4.611   1.890   7.034 -0.8260 -0.6579  0.0077
  256MOL0     O33690   4.583   1.759   7.041 -0.3507 -0.4501 -0.3349
  256MOL0     C33691   4.455   1.711   7.023 -0.0585 -0.1802 -0.7359
  256MOL0     C33692   4.350   1.776   6.951  0.6879  0.5127  0.3480
  256MOL0     C33693   4.220   1.730   6.946  0.3343 -0.4885 -0.5386
  256MOL0     C33694   4.183   1.614   7.019 -0.1932  0.4119  0.6087
  256MOL0     O33695   4.052   1.565   7.027 -0.1424 -0.2542  0.2028
  256MOL0     C33696   3.958   1.621   6.931 -0.1159  0.0647  0.3661
  256MOL0     C33697   3.830   1.534   6.921  0.2467  0.4221 -0.3775
  256MOL0     C33698   3.692   1.605   6.934  0.6754 -0.1754 -0.4402
  256MOL0     C33699   3.580   1.501   6.957  0.2679  0.1958 -0.6410
  256MOL0     C33700   3.440   1.559   6.959  0.6723 -0.6934  0.2141
  256MOL0     C33701   3.342   1.444   6.937 -0.5176 -0.2287 -0.0995
  256MOL0     C33702   3.198   1.486   6.934  0.8629 -0.4386  1.0556
  256MOL0     C33703   3.113   1.366   6.933  1.1383  0.8217 -0.1426
  256MOL0    Cl33704   2.946   1.425   6.892 -0.4033  0.4878 -0.5716
  256MOL0     C33705   4.287   1.543   7.082 -0.3810 -0.1882  0.5636
  256MOL0     C33706   4.421   1.591   7.079  0.2229 -0.0664 -0.3374
  256MOL0     O33707   4.532   1.983   7.036  0.5465  0.6900  0.6712
  256MOL0     C33708   4.856   1.836   7.058  0.5689  0.0505 -0.1833
  256MOL0     C33709   4.988   1.864   7.047 -1.1233  0.3469  0.7155
  256MOL0     N33710   5.107   2.352   6.718  0.6468 -0.2823 -0.6254
  256MOL0     N33711   5.042   2.443   6.664  0.2406 -0.1479 -0.7757
  256MOL0     C33712   4.552   2.935   5.758 -0.1418  0.1053  0.3249
  256MOL0     C33713   4.456   2.966   5.669 -0.1806 -0.0214 -0.0674
  256MOL0     C33714   4.164   3.013   5.329 -0.8095 -0.4091 -0.5071
  256MOL0     C33715   4.045   2.939   5.298  0.1588 -0.5120 -0.5625
  256MOL0     C33716   3.942   3.001   5.224  0.2177 -0.6362  0.8511
  256MOL0     C33717   3.952   3.132   5.186 -0.1741  0.3893 -0.1902
  256MOL0     O33718   3.857   3.181   5.097 -0.0378 -0.3852 -0.3298
  256MOL0     C33719   3.878   3.309   5.032  0.3018  0.4295 -0.2238
  256MOL0     C33720   3.776   3.315   4.915 -0.2931  0.1696  0.4055
  256MOL0     C33721   3.640   3.376   4.959  1.0426 -0.0543  0.9122
  256MOL0     C33722   3.534   3.386   4.848  0.3133 -0.6763  0.0855
  256MOL0     C33723   3.408   3.437   4.901 -0.5339  0.5102 -0.1175
  256MOL0     C33724   3.303   3.478   4.923 -0.3897  0.1385  0.5441
  256MOL0     C33725   4.067   3.203   5.227  0.3457 -0.8368 -0.7186
  256MOL0     C33726   4.171   3.147   5.294 -0.8453  1.1308  0.2726
  256MOL0     H33727   4.636   3.031   5.403 -3.1731  0.9457 -1.0297
  256MOL0     H33728   4.811   2.969   5.538 -0.2099 -0.1848 -0.8879
  256MOL0     H33729   4.838   2.772   5.971  0.3851  0.5341 -0.8232
  256MOL0     H33730   4.673   2.800   5.947 -0.3806 -0.5373 -4.4763
  256MOL0     H33731   4.703   3.051   5.988  0.5163  1.9313  3.2043
  256MOL0     H33732   4.876   3.025   5.955  0.8722 -3.1212 -1.7410
  256MOL0     H33733   4.739   2.900   6.207 -0.7660  1.2711 -0.0527
  256MOL0     H33734   4.805   3.064   6.200  2.9778 -0.6224  2.7820
  256MOL0     H33735   5.023   2.902   6.115 -0.6089 -2.1712  0.5459
  256MOL0     H33736   5.000   2.984   6.278  1.5703 -1.7473  0.8185
  256MOL0     H33737   5.050   2.737   6.245  0.9839  1.7252  0.4481
  256MOL0     H33738   4.871   2.717   6.236  1.1537  1.6586 -2.0499
  256MOL0     H33739   4.847   2.866   6.447  2.0069  3.3205 -2.1814
  256MOL0     H33740   5.011   2.882   6.458 -0.2740  2.4747 -0.7327
  256MOL0     H33741   4.937   2.719   6.620 -0.7193  0.1100 -0.1424
  256MOL0     H33742   4.871   2.621   6.488 -3.0380  2.5782  1.8543
  256MOL0     H33743   5.170   2.677   6.517 -1.1063  0.7291  1.6736
  256MOL0     H33744   5.097   2.592   6.387  2.2767  0.0015 -0.0871
  256MOL0     H33745   5.289   2.391   6.465  1.5239 -1.1239  0.9528
  256MOL0     H33746   5.416   2.251   6.589 -0.8292 -1.0724 -1.3471
  256MOL0     H33747   5.313   2.119   6.632 -1.3102 -0.3258  2.2050
  256MOL0     H33748   5.357   2.322   6.841 -0.9112 -0.5283 -2.0378
  256MOL0     H33749   5.504   2.240   6.789 -0.3673  0.6428 -0.2816
  256MOL0     H33750   5.380   2.016   6.829  1.7738 -0.3205 -0.0306
  256MOL0     H33751   5.455   2.087   6.975 -2.3032  0.5116  2.2812
  256MOL0     H33752   5.172   2.155   6.876  0.3907 -1.8497 -0.6449
  256MOL0     H33753   5.234   2.215   7.022 -0.5315  0.7242 -1.7125
  256MOL0     H33754   4.970   2.177   6.929  3.4559 -2.2656 -2.2792
  256MOL0     H33755   4.731   2.141   6.970  1.8824  0.4747 -0.0535
  256MOL0     H33756   4.368   1.868   6.896  0.6788  0.6063  0.5042
  256MOL0     H33757   4.150   1.789   6.888 -1.7684 -0.7538  1.5810
  256MOL0     H33758   3.987   1.614   6.825  0.0203  0.2904  0.3890
  256MOL0     H33759   3.939   1.724   6.964 -0.6448 -1.0829  3.9877
  256MOL0     H33760   3.837   1.449   6.990 -1.8980 -0.2581 -0.9321
  256MOL0     H33761   3.829   1.483   6.825  1.0453 -1.0222  0.3373
  256MOL0     H33762   3.669   1.650   6.837 -0.6538  2.4512  0.9747
  256MOL0     H33763   3.710   1.679   7.012 -0.3099 -0.3797 -0.0071
  256MOL0     H33764   3.577   1.425   6.878  1.5889 -0.7009  0.1465
  256MOL0     H33765   3.600   1.458   7.055  1.0021 -0.2032 -0.9635
  256MOL0     H33766   3.433   1.629   6.875  0.4670 -0.0781  0.7363
  256MOL0     H33767   3.402   1.612   7.046 -1.0254 -2.4778  0.6173
  256MOL0     H33768   3.348   1.389   7.031  1.3572 -0.3692 -0.2793
  256MOL0     H33769   3.362   1.362   6.868 -2.6709 -0.7055 -0.2458
  256MOL0     H33770   3.178   1.551   7.019  1.6120 -0.6506  1.4079
  256MOL0     H33771   3.182   1.541   6.840  1.4159 -0.7299  0.7806
  256MOL0     H33772   3.122   1.312   7.028 -0.6400  2.8105  1.2530
  256MOL0     H33773   3.144   1.308   6.846 -0.8492 -0.3182 -0.1625
  256MOL0     H33774   4.261   1.452   7.135  0.3069 -0.1283  1.0142
  256MOL0     H33775   4.489   1.522   7.128 -2.6943 -3.6848 -0.9907
  256MOL0     H33776   4.813   1.742   7.092  0.5281  0.1050 -0.0820
  256MOL0     H33777   5.055   1.788   7.088  0.5685  2.4553  2.1443
  256MOL0     H33778   4.522   2.901   5.856 -1.9184  0.4115 -0.0631
  256MOL0     H33779   4.352   2.956   5.701 -0.0122  1.8232  1.1800
  256MOL0     H33780   4.041   2.831   5.307  1.3554 -0.6417 -1.3967
  256MOL0     H33781   3.845   2.957   5.202 -0.0466 -0.7870  2.2389
  256MOL0     H33782   3.980   3.303   4.993  1.1314  3.0610  1.2807
  256MOL0     H33783   3.862   3.389   5.106  1.4761 -0.5708  1.1652
  256MOL0     H33784   3.814   3.377   4.834  1.9767  0.0993  1.3575
  256MOL0     H33785   3.758   3.220   4.863 -0.2122  0.9789 -1.1683
  256MOL0     H33786   3.664   3.473   5.004  0.8092  0.3709  0.1219
  256MOL0     H33787   3.592   3.320   5.040  1.6678 -0.9479  0.6829
  256MOL0     H33788   3.559   3.458   4.769 -1.1930 -1.3861 -1.0828
  256MOL0     H33789   3.521   3.286   4.807 -2.5206 -0.0249 -0.7726
  256MOL0     H33790   3.207   3.523   4.938  0.7244  2.3587  1.4998
  256MOL0     H33791   4.082   3.308   5.202 -0.7804  0.6025  3.6430
  256MOL0     H33792   4.266   3.200   5.304 -0.9199  1.5760 -1.1644
  257MOL0     O33793   1.353   2.722   6.780 -0.4080  0.6217  0.6437
  257MOL0     C33794   1.356   2.659   6.889 -0.4077  0.7757  0.8287
  257MOL0     O33795   1.468   2.628   6.962 -0.4109 -0.4277  1.0995
  257MOL0     C33796   1.599   2.640   6.920 -0.1512 -0.4018 -0.5837
  257MOL0     C33797   1.700   2.573   6.996  0.1298 -0.5904  0.1402
  257MOL0     C33798   1.837   2.573   6.956 -0.0679 -0.7103  0.2838
  257MOL0     C33799   1.871   2.660   6.855 -0.9265  0.1230 -0.2846
  257MOL0     O33800   2.001   2.683   6.820 -0.5464 -0.4235 -0.0371
  257MOL0     C33801   2.071   2.573   6.761  0.8688  0.3572  0.0507
  257MOL0     C33802   2.110   2.627   6.617  0.3333  0.6237 -0.4876
  257MOL0     C33803   2.204   2.535   6.534 -0.4115 -0.2603  0.7807
  257MOL0     C33804   2.180   2.381   6.547 -0.3461  0.6800  0.0796
  257MOL0     C33805   2.072   2.337   6.447 -0.6441  0.3792  0.3866
  257MOL0     C33806   2.006   2.202   6.483  0.2355  0.0861  0.0237
  257MOL0     C33807   1.924   2.137   6.367 -0.3791 -0.1273 -0.4996
  257MOL0     C33808   1.882   1.987   6.387 -1.0696 -0.7866 -0.6480
  257MOL0     N33809   1.810   1.955   6.515  0.1628 -0.4710  0.6805
  257MOL0     C33810   1.859   1.930   6.638 -0.5016 -0.9024  0.9881
  257MOL0     C33811   1.754   1.891   6.715  0.2043  0.2865  0.6380
  257MOL0     C33812   1.753   1.855   6.860  0.1498 -0.1289 -0.6126
  257MOL0     C33813   1.725   1.706   6.881 -0.7516  0.0044 -0.3553
  257MOL0     C33814   1.583   1.656   6.853  0.8388 -0.4914 -0.1450
  257MOL0     C33815   1.475   1.745   6.934 -0.4329 -0.1574 -0.1997
  257MOL0     O33816   1.507   1.748   7.076  0.4031 -0.5473  0.7863
  257MOL0     C33817   1.420   1.682   7.154 -0.1663  0.4875 -0.3387
  257MOL0     C33818   1.304   1.742   7.200 -0.4774 -0.3616 -0.3674
  257MOL0     C33819   1.223   1.670   7.289  0.0496 -0.1283  0.2239
  257MOL0     C33820   1.252   1.544   7.336 -0.5127 -0.5701 -0.3304
  257MOL0     C33821   1.169   1.466   7.435 -0.2113 -0.4342  0.3866
  257MOL0     O33822   1.216   1.344   7.463  0.8057  0.0484 -0.5543
  257MOL0     C33823   1.132   1.255   7.524  0.4187  0.5164 -1.0507
  257MOL0     C33824   1.168   1.187   7.649 -0.6682 -1.1700 -0.1751
  257MOL0     C33825   1.088   1.087   7.705  0.8084 -0.4915 -0.1630
  257MOL0     C33826   0.966   1.049   7.636 -0.4585 -0.1003 -0.2274
  257MOL0     O33827   0.881   0.949   7.679 -0.2339 -1.5857 -0.4639
  257MOL0     C33828   0.756   0.991   7.729  0.2866  0.2396  0.7040
  257MOL0     C33829   0.636   0.896   7.689 -0.3745  0.0846 -0.0187
  257MOL0     C33830   0.620   0.918   7.537 -0.2371  0.3410  0.2731
  257MOL0     C33831   0.515   0.822   7.488 -0.3158  0.5270 -0.0456
  257MOL0     C33832   0.479   0.855   7.346  0.4849 -0.3852 -0.0598
  257MOL0     C33833   0.401   0.747   7.277 -0.6919  0.0693  0.3625
  257MOL0     C33834   0.313   0.803   7.163  0.2235 -1.5278  0.3626
  257MOL0     C33835   0.224   0.703   7.103 -0.3381  0.7107 -0.4208
  257MOL0    Cl33836   0.059   0.685   7.192  0.4982 -0.0252 -0.2451
  257MOL0     C33837   0.927   1.107   7.516  0.5572  0.6943 -0.3205
  257MOL0     C33838   1.010   1.208   7.459 -0.0205 -0.8088 -0.1681
  257MOL0     O33839   1.060   1.516   7.479 -0.0935  0.2561 -0.5750
  257MOL0     C33840   1.365   1.487   7.282  0.4999 -0.7638 -0.4596
  257MOL0     C33841   1.458   1.556   7.195  0.1369 -0.4150 -0.2383
  257MOL0     N33842   1.638   1.896   6.644  0.2670 -1.0065 -1.5090
  257MOL0     N33843   1.675   1.931   6.518  0.2745 -0.9492 -0.3893
  257MOL0     C33844   1.774   2.718   6.771  0.9275 -0.6356  0.9421
  257MOL0     C33845   1.644   2.707   6.803 -0.2619 -0.0478 -0.0393
  257MOL0     C33846   1.233   2.598   6.932 -0.3423  0.3923 -0.0661
  257MOL0     C33847   1.133   2.556   6.845 -1.0906 -0.1276 -0.4109
  257MOL0     C33848   1.017   2.499   6.888  0.1858  0.1162  0.2217
  257MOL0     C33849   0.982   2.485   7.021  0.1199  0.3819  0.0940
  257MOL0     O33850   0.867   2.436   7.068 -0.1451 -0.1480  0.0414
  257MOL0     C33851   0.762   2.386   6.989 -0.4462  0.5581  0.1570
  257MOL0     C33852   0.640   2.362   7.082  0.2041  0.3140  0.1673
  257MOL0     C33853   0.638   2.244   7.192  0.5851 -0.5630  0.7090
  257MOL0     C33854   0.603   2.106   7.133  0.1962  0.6580 -0.5785
  257MOL0     C33855   0.463   2.107   7.094  0.0098  0.1774 -0.4719
  257MOL0     C33856   0.356   2.098   7.046  0.6050  0.2102 -0.3230
  257MOL0     C33857   1.082   2.518   7.116  0.7662 -0.6455 -0.4948
  257MOL0     C33858   1.209   2.577   7.072 -0.4287 -0.0305  0.8784
  257MOL0     H33859   1.683   2.516   7.087  2.8697 -1.2361  0.3649
  257MOL0     H33860   1.906   2.520   7.021 -1.9740 -3.1155  0.4975
  257MOL0     H33861   2.005   2.485   6.753  0.3463  0.2929  3.4872
  257MOL0     H33862   2.161   2.545   6.816  1.5753 -0.0195 -1.2568
  257MOL0     H33863   2.151   2.727   6.631  0.3610  0.4939  0.4269
  257MOL0     H33864   2.018   2.640   6.560 -1.8534 -2.1777  2.0225
  257MOL0     H33865   2.301   2.555   6.580  0.2610 -1.6403 -0.0026
  257MOL0     H33866   2.207   2.566   6.429 -0.2787 -0.5427  0.7006
  257MOL0     H33867   2.274   2.331   6.524 -0.3670 -0.1471  1.6420
  257MOL0     H33868   2.158   2.343   6.647  1.6996 -0.1762  0.2518
  257MOL0     H33869   2.120   2.333   6.349 -2.5380  4.2671 -0.8972
  257MOL0     H33870   1.991   2.410   6.435 -1.5622 -0.4006  1.5948
  257MOL0     H33871   1.937   2.217   6.567 -1.2056 -0.0061 -1.1110
  257MOL0     H33872   2.080   2.133   6.525 -0.9391 -1.0852  0.2320
  257MOL0     H33873   1.834   2.199   6.363  0.0587  0.4818 -1.0767
  257MOL0     H33874   1.967   2.152   6.268 -0.6590  0.9142 -0.4767
  257MOL0     H33875   1.974   1.930   6.404 -0.7276  0.7908  4.3677
  257MOL0     H33876   1.830   1.958   6.295 -1.3781  2.0351 -1.4600
  257MOL0     H33877   1.961   1.941   6.673 -0.7142  0.2183  1.2705
  257MOL0     H33878   1.679   1.920   6.907  1.5971  0.5717  0.8277
  257MOL0     H33879   1.853   1.882   6.897 -0.0811  1.6214 -1.2036
  257MOL0     H33880   1.747   1.679   6.984 -0.0957  2.0307  0.0807
  257MOL0     H33881   1.782   1.648   6.808 -0.8163 -0.0693 -0.3468
  257MOL0     H33882   1.559   1.668   6.747  0.9033  1.1300 -0.0157
  257MOL0     H33883   1.569   1.549   6.868  3.7625 -0.9975 -0.4731
  257MOL0     H33884   1.376   1.704   6.914 -1.0386  0.2138  1.8693
  257MOL0     H33885   1.479   1.849   6.900 -0.3937 -0.0513  0.1329
  257MOL0     H33886   1.291   1.848   7.179  1.4584  0.2553  1.2222
  257MOL0     H33887   1.140   1.733   7.320  2.0970  1.8646  2.0780
  257MOL0     H33888   1.267   1.211   7.685  0.8746 -2.1956 -3.4115
  257MOL0     H33889   1.098   1.046   7.805  0.5770 -0.0211  0.0563
  257MOL0     H33890   0.733   1.095   7.703  2.7281  0.2173 -2.1236
  257MOL0     H33891   0.782   1.001   7.835  1.0257  2.2972  0.3764
  257MOL0     H33892   0.545   0.939   7.731 -1.2294 -2.0793  0.4775
  257MOL0     H33893   0.657   0.796   7.729  1.1079  0.6328  0.6663
  257MOL0     H33894   0.706   0.877   7.482 -1.5451 -1.5539 -0.4654
  257MOL0     H33895   0.594   1.023   7.522 -1.2911 -0.1782 -1.8642
  257MOL0     H33896   0.549   0.719   7.503 -0.4636  0.2266 -1.5715
  257MOL0     H33897   0.438   0.831   7.565  1.4875 -0.8303  2.0115
  257MOL0     H33898   0.578   0.868   7.301  1.5521  0.2935  2.3347
  257MOL0     H33899   0.423   0.948   7.335  0.6695 -0.5288 -3.0714
  257MOL0     H33900   0.330   0.690   7.338 -1.9779 -2.4281 -3.1235
  257MOL0     H33901   0.468   0.668   7.242 -2.7070 -1.8864  0.6809
  257MOL0     H33902   0.243   0.885   7.181 -1.9002 -2.7341 -1.8703
  257MOL0     H33903   0.380   0.835   7.082 -0.2989  4.1382  1.7348
  257MOL0     H33904   0.271   0.605   7.104 -2.4581 -0.3779  0.5072
  257MOL0     H33905   0.217   0.720   6.996  0.6996 -4.3280 -1.5386
  257MOL0     H33906   0.832   1.065   7.484 -0.1030 -0.1218  2.5080
  257MOL0     H33907   0.982   1.265   7.371  1.4302 -0.4568 -0.4331
  257MOL0     H33908   1.391   1.382   7.294  0.9238 -0.3581  3.3165
  257MOL0     H33909   1.547   1.502   7.166 -0.2715 -1.0721 -0.2967
  257MOL0     H33910   1.810   2.782   6.691 -0.0503  0.1693  1.1329
  257MOL0     H33911   1.573   2.753   6.734 -0.6329  0.1260  0.4562
  257MOL0     H33912   1.155   2.575   6.740 -1.2527 -0.4233 -0.4993
  257MOL0     H33913   0.950   2.459   6.812  0.1465 -0.5862  0.6192
  257MOL0     H33914   0.795   2.299   6.931 -0.6114  0.0798  0.7725
  257MOL0     H33915   0.732   2.458   6.912 -2.4695  0.7215  1.0519
  257MOL0     H33916   0.634   2.458   7.134  3.2834  2.0388 -2.3149
  257MOL0     H33917   0.561   2.346   7.009  0.6985  0.7400 -0.4722
  257MOL0     H33918   0.556   2.261   7.262 -1.6685  1.3528 -2.1704
  257MOL0     H33919   0.737   2.235   7.238  0.5623  2.0563  1.4242
  257MOL0     H33920   0.667   2.103   7.044  0.5198  1.0778 -0.3585
  257MOL0     H33921   0.630   2.024   7.201 -0.0389  0.5539 -0.6078
  257MOL0     H33922   0.263   2.077   6.997  0.5462 -1.9171  0.5876
  257MOL0     H33923   1.063   2.496   7.221  2.3386  1.9755  0.4343
  257MOL0     H33924   1.284   2.592   7.149 -2.1254 -0.3252  2.6748
  258MOL0     O33925   1.269   2.205   7.770 -0.2388 -0.5108  0.5995
  258MOL0     C33926   1.211   2.101   7.738 -0.9582 -0.2421 -0.1470
  258MOL0     O33927   1.259   2.012   7.654 -0.1000  1.0627  0.3229
  258MOL0     C33928   1.378   2.021   7.594  0.2708  0.2507 -0.3989
  258MOL0     C33929   1.495   2.082   7.642  0.1951 -0.4073  0.1491
  258MOL0     C33930   1.618   2.080   7.569 -0.0917  1.0738  0.1717
  258MOL0     C33931   1.635   2.006   7.447  0.6908 -0.3429  0.2512
  258MOL0     O33932   1.761   2.007   7.385 -0.0810 -0.1122 -0.7455
  258MOL0     C33933   1.777   1.892   7.290  0.1881 -0.4816 -0.3779
  258MOL0     C33934   1.922   1.886   7.277  0.1704 -0.5261  0.0893
  258MOL0     C33935   1.961   1.762   7.194 -0.2742  0.4213  0.0474
  258MOL0     C33936   2.117   1.773   7.166  0.3050 -0.3114 -0.5827
  258MOL0     C33937   2.157   1.659   7.080  0.7950  0.0396  0.8612
  258MOL0     C33938   2.312   1.642   7.063  0.1120 -0.4912  0.4404
  258MOL0     C33939   2.351   1.518   6.978 -0.1639 -0.4024  0.0962
  258MOL0     C33940   2.328   1.524   6.828 -0.1546 -0.1173 -1.0257
  258MOL0     N33941   2.378   1.415   6.746 -0.0954 -0.4114  0.2361
  258MOL0     C33942   2.455   1.308   6.794 -0.3195  0.7325 -0.2413
  258MOL0     C33943   2.488   1.244   6.675 -0.6068 -0.0601 -0.3807
  258MOL0     C33944   2.589   1.140   6.681 -0.0468  0.5147  0.2737
  258MOL0     C33945   2.738   1.207   6.693 -0.4701 -0.3596 -0.2340
  258MOL0     C33946   2.779   1.272   6.554 -0.7313  0.2630  0.3169
  258MOL0     C33947   2.922   1.332   6.566 -0.3475 -0.1858  0.3833
  258MOL0     O33948   2.988   1.352   6.437 -0.8949 -0.3032  0.5263
  258MOL0     C33949   3.128   1.382   6.431 -0.0550  0.0107 -0.5351
  258MOL0     C33950   3.197   1.363   6.311 -1.0701 -0.8025 -0.0773
  258MOL0     C33951   3.341   1.383   6.302 -0.2665  0.1152  0.5518
  258MOL0     C33952   3.406   1.432   6.411  0.2070 -1.0812 -0.2355
  258MOL0     C33953   3.553   1.450   6.395 -0.6436 -0.9477 -0.3618
  258MOL0     O33954   3.614   1.462   6.517  0.4976 -0.0784  0.2518
  258MOL0     C33955   3.739   1.527   6.512  0.0521  0.0325 -0.3745
  258MOL0     C33956   3.743   1.660   6.542  0.1554  0.3074 -0.2249
  258MOL0     C33957   3.868   1.718   6.556  0.6399  0.5536  0.8569
  258MOL0     C33958   3.984   1.651   6.546 -0.6831 -0.1308 -1.0424
  258MOL0     O33959   4.106   1.717   6.554  0.7315 -0.1886 -0.5104
  258MOL0     C33960   4.221   1.646   6.544  0.2667  0.6651  0.7734
  258MOL0     C33961   4.332   1.749   6.568 -0.2645 -0.6352 -0.1801
  258MOL0     C33962   4.474   1.686   6.549  0.0393 -0.1087 -0.0070
  258MOL0     C33963   4.578   1.798   6.587 -0.6409  0.1963  0.1424
  258MOL0     C33964   4.713   1.738   6.588 -0.3376 -0.2599  0.2502
  258MOL0     C33965   4.816   1.846   6.644  1.0933  0.6465 -0.2263
  258MOL0     C33966   4.864   1.937   6.529 -0.1847  1.4279 -0.0243
  258MOL0     C33967   4.943   2.052   6.580 -0.4232 -0.5511 -0.2733
  258MOL0    Cl33968   5.103   1.980   6.628 -0.2198  0.4001 -0.4608
  258MOL0     C33969   3.975   1.514   6.502  0.2051 -0.3610  0.0958
  258MOL0     C33970   3.856   1.456   6.495  0.9481 -0.5155  0.8799
  258MOL0     O33971   3.607   1.457   6.287 -0.1545 -0.3130 -0.1009
  258MOL0     C33972   3.339   1.443   6.534 -1.1608 -0.4180  0.4872
  258MOL0     C33973   3.204   1.421   6.547  1.0763 -0.7024 -0.7981
  258MOL0     N33974   2.414   1.292   6.570  1.0850 -0.0349  1.0171
  258MOL0     N33975   2.334   1.390   6.619 -0.2450 -0.7104 -0.5770
  258MOL0     C33976   1.513   1.946   7.397 -0.1787 -0.4726 -0.1768
  258MOL0     C33977   1.395   1.951   7.477  0.2464  0.5944 -0.1558
  258MOL0     C33978   1.083   2.063   7.804  0.9464  0.3274  0.1467
  258MOL0     C33979   0.987   1.969   7.751  0.8847 -0.6197 -0.3584
  258MOL0     C33980   0.869   1.939   7.824  0.7201 -0.4625  0.1575
  258MOL0     C33981   0.851   1.982   7.955 -0.4671 -0.2558 -0.0635
  258MOL0     O33982   0.752   1.930   8.032 -0.8577 -0.4362 -0.9816
  258MOL0     C33983   0.641   1.848   7.978  0.6424  0.6879  0.3793
  258MOL0     C33984   0.516   1.856   8.068  0.0587  1.0730  0.1139
  258MOL0     C33985   0.394   1.790   7.998  0.2373  0.9221  0.0440
  258MOL0     C33986   0.277   1.813   8.094 -0.2944 -0.1530 -0.4605
  258MOL0     C33987   0.160   1.721   8.066 -0.0344 -0.7774  1.0253
  258MOL0     C33988   0.074   1.650   8.021  0.1594  0.1276  0.2039
  258MOL0     C33989   0.952   2.064   8.009  0.3642 -0.2478  0.3317
  258MOL0     C33990   1.065   2.091   7.936  0.4782  0.4149  0.0942
  258MOL0     H33991   1.495   2.128   7.740  1.6052 -0.6115  0.2627
  258MOL0     H33992   1.708   2.127   7.608  0.2426  1.0219 -0.5224
  258MOL0     H33993   1.723   1.906   7.196  0.7461  1.5644 -0.4456
  258MOL0     H33994   1.753   1.800   7.344  0.6336 -0.0122  0.6541
  258MOL0     H33995   1.963   1.874   7.378  1.6887 -0.8294 -0.5234
  258MOL0     H33996   1.958   1.974   7.222  0.5813 -1.0893 -0.5633
  258MOL0     H33997   1.925   1.761   7.090  3.1518 -2.2490 -1.3117
  258MOL0     H33998   1.935   1.667   7.242  1.5550  0.4567  1.1932
  258MOL0     H33999   2.121   1.876   7.130  1.5354  0.5678  1.8528
  258MOL0     H34000   2.171   1.771   7.261 -2.4553 -0.8497  1.1065
  258MOL0     H34001   2.123   1.677   6.978  2.3804 -0.9614  0.1194
  258MOL0     H34002   2.101   1.578   7.127 -3.4829  2.7368  0.9671
  258MOL0     H34003   2.357   1.639   7.162 -0.0020 -0.8155  0.4853
  258MOL0     H34004   2.361   1.730   7.020  1.7168 -1.5092  0.1074
  258MOL0     H34005   2.459   1.502   6.988  0.0012  1.4723  2.3602
  258MOL0     H34006   2.310   1.427   7.023  0.2485 -0.1669  0.9868
  258MOL0     H34007   2.386   1.611   6.799  1.0955 -0.7652 -0.5335
  258MOL0     H34008   2.220   1.521   6.809 -0.1579 -3.8976 -1.3234
  258MOL0     H34009   2.499   1.281   6.889 -2.9310  0.3890  0.9387
  258MOL0     H34010   2.571   1.070   6.598  0.3857  0.5495  0.1505
  258MOL0     H34011   2.569   1.075   6.766  0.7482 -2.1263 -1.4350
  258MOL0     H34012   2.799   1.125   6.730 -0.8898  0.4849  2.5930
  258MOL0     H34013   2.743   1.285   6.770 -0.5181  0.7269 -1.3017
  258MOL0     H34014   2.770   1.199   6.472 -1.3366 -2.0767  2.3529
  258MOL0     H34015   2.709   1.350   6.524 -2.4097 -2.3254 -3.2454
  258MOL0     H34016   2.985   1.268   6.628  0.4725 -0.8108 -1.0483
  258MOL0     H34017   2.922   1.427   6.621  0.3254 -1.4167  2.6497
  258MOL0     H34018   3.149   1.326   6.221  0.7627  0.1940 -1.5386
  258MOL0     H34019   3.386   1.351   6.209 -0.8835 -2.8960  1.1815
  258MOL0     H34020   3.659   1.724   6.568  0.3539  0.2291  0.6417
  258MOL0     H34021   3.883   1.816   6.601 -0.3973  0.5766  1.1795
  258MOL0     H34022   4.222   1.607   6.442  0.6987  3.3720 -0.3541
  258MOL0     H34023   4.230   1.572   6.624  0.0308  1.0300  1.1380
  258MOL0     H34024   4.310   1.788   6.668 -4.0904 -1.0378 -0.7224
  258MOL0     H34025   4.323   1.841   6.510 -0.0826 -0.8543 -0.5554
  258MOL0     H34026   4.491   1.658   6.445  0.6220 -0.6786  0.2355
  258MOL0     H34027   4.486   1.594   6.607  0.2357 -0.7680 -1.0720
  258MOL0     H34028   4.572   1.878   6.513 -1.0314 -2.0539 -2.4140
  258MOL0     H34029   4.546   1.837   6.684  1.8531  3.9875 -0.3687
  258MOL0     H34030   4.746   1.706   6.489  1.0387 -0.2312  0.6822
  258MOL0     H34031   4.721   1.651   6.653  0.6395 -0.2223  0.1907
  258MOL0     H34032   4.901   1.796   6.691 -0.2484  0.7492  2.5020
  258MOL0     H34033   4.763   1.896   6.726  0.0709 -2.0588  0.8699
  258MOL0     H34034   4.921   1.872   6.462 -1.3491 -0.6163  0.8517
  258MOL0     H34035   4.775   1.975   6.477 -1.7367 -1.1296  0.5934
  258MOL0     H34036   4.892   2.100   6.664  0.6084  1.6520 -0.8507
  258MOL0     H34037   4.961   2.113   6.491  3.5355 -1.1837 -0.0961
  258MOL0     H34038   4.063   1.453   6.493  0.7992  0.3076  1.0793
  258MOL0     H34039   3.846   1.351   6.467  1.5172 -0.6814  1.2958
  258MOL0     H34040   3.397   1.480   6.619 -0.0518 -2.3621  0.6438
  258MOL0     H34041   3.165   1.445   6.645  2.4789 -1.1271 -0.1133
  258MOL0     H34042   1.522   1.890   7.304  1.6187  0.3788 -0.5537
  258MOL0     H34043   1.295   1.919   7.447 -0.7517  0.7695  2.6863
  258MOL0     H34044   1.015   1.924   7.656 -2.0745  0.1466 -1.6927
  258MOL0     H34045   0.799   1.861   7.795  1.3101 -1.9733  2.5544
  258MOL0     H34046   0.664   1.742   7.964 -1.4898 -0.0360  1.8374
  258MOL0     H34047   0.603   1.898   7.888 -1.1552 -1.1925 -0.0025
  258MOL0     H34048   0.543   1.821   8.169  0.2857  2.5115  0.5707
  258MOL0     H34049   0.487   1.961   8.072  3.5027  2.3615 -3.1581
  258MOL0     H34050   0.400   1.682   7.980  2.0417  0.5531  2.4183
  258MOL0     H34051   0.380   1.832   7.898  1.2461  0.2016 -0.4221
  258MOL0     H34052   0.313   1.797   8.196 -0.5299 -0.6720 -0.4561
  258MOL0     H34053   0.229   1.911   8.090 -0.0366  0.0062  0.2039
  258MOL0     H34054  -0.011   1.590   7.997 -0.6638  0.3597  2.3172
  258MOL0     H34055   0.954   2.094   8.113  2.0781 -1.0617  0.5741
  258MOL0     H34056   1.138   2.140   8.000  0.0968  0.7661  0.2625
  259MOL0     O34057   6.318   6.937   0.474  0.0888  0.3295 -0.3550
  259MOL0     C34058   6.420   6.950   0.412  0.0071 -0.9390  0.2101
  259MOL0     O34059   6.435   6.908   0.279  0.0047  0.0853 -0.8157
  259MOL0     C34060   6.338   6.824   0.237  0.2437  0.7894  0.2931
  259MOL0     C34061   6.238   6.850   0.136 -0.0736  0.4145  0.2171
  259MOL0     C34062   6.122   6.770   0.111  0.3837 -0.5449  0.1409
  259MOL0     C34063   6.108   6.654   0.190  0.1271 -0.5107  0.1212
  259MOL0     O34064   5.990   6.580   0.198  0.5139  0.4612 -0.4506
  259MOL0     C34065   5.913   6.573   0.078  0.8451 -0.2115 -0.2266
  259MOL0     C34066   5.796   6.478   0.113  0.2194 -0.3533  0.4730
  259MOL0     C34067   5.683   6.491   0.007 -1.1149 -0.6574 -1.3490
  259MOL0     C34068   5.555   6.424   0.060 -0.0828  0.7564  1.1344
  259MOL0     C34069   5.446   6.423  -0.045 -0.5164 -0.0041 -0.4622
  259MOL0     C34070   5.453   6.303  -0.147 -0.3285  0.4461  0.5965
  259MOL0     C34071   5.405   6.176  -0.082 -0.0394 -0.2085 -0.0605
  259MOL0     C34072   5.383   6.071  -0.192 -0.0398 -0.7816 -0.0415
  259MOL0     N34073   5.516   6.010  -0.236  0.4507 -0.1950  0.1460
  259MOL0     C34074   5.606   5.932  -0.172 -0.4357 -0.0023 -0.6718
  259MOL0     C34075   5.695   5.906  -0.269  0.2353  0.2957 -0.4345
  259MOL0     C34076   5.805   5.809  -0.242  0.0303 -0.0431 -0.7147
  259MOL0     C34077   5.893   5.855  -0.123  0.5241  1.0322  0.1175
  259MOL0     C34078   5.957   5.998  -0.121 -0.0101 -0.7048 -0.6307
  259MOL0     C34079   6.092   6.001  -0.071  0.4312  0.3899 -0.3791
  259MOL0     O34080   6.119   6.119  -0.014 -0.7293 -0.3217  0.4404
  259MOL0     C34081   6.243   6.139   0.041 -0.4957 -0.3562 -0.5149
  259MOL0     C34082   6.278   6.274   0.062 -0.2673  0.8562  0.2075
  259MOL0     C34083   6.408   6.298   0.121 -0.8408 -0.3920  0.6822
  259MOL0     C34084   6.503   6.196   0.145  0.5902  0.5060 -0.0522
  259MOL0     C34085   6.642   6.231   0.195  0.2922  0.7162  0.6458
  259MOL0     O34086   6.712   6.129   0.239  0.4653  0.8953  0.3698
  259MOL0     C34087   6.831   6.159   0.295 -0.6467 -0.1422  0.4333
  259MOL0     C34088   6.934   6.224   0.215 -0.2027 -0.2508 -0.4561
  259MOL0     C34089   7.058   6.269   0.281  0.4884  0.6006  0.0431
  259MOL0     C34090   7.073   6.252   0.419 -0.3520  0.1294  0.3545
  259MOL0     O34091   7.186   6.297   0.484 -0.3408  0.5791 -0.1185
  259MOL0     C34092   7.314   6.229   0.470 -0.1437  0.3471 -0.4148
  259MOL0     C34093   7.391   6.244   0.605  0.7111 -1.2935  0.3256
  259MOL0     C34094   7.519   6.157   0.602 -0.9598 -0.4044  0.7180
  259MOL0     C34095   7.628   6.187   0.715  0.6812  0.1644  0.0687
  259MOL0     C34096   7.760   6.114   0.687 -0.8505  0.1391 -0.3928
  259MOL0     C34097   7.876   6.216   0.741 -0.1398  0.5254 -0.6097
  259MOL0     C34098   7.893   6.335   0.651 -0.4735 -0.9518  0.3195
  259MOL0     C34099   8.032   6.399   0.639  0.0383  0.3905 -0.5526
  259MOL0    Cl34100   8.036   6.493   0.492  0.3601 -0.0532 -0.2293
  259MOL0     C34101   6.968   6.200   0.492 -0.3662 -1.0819  0.9904
  259MOL0     C34102   6.849   6.161   0.431  0.1548  0.2374  0.7953
  259MOL0     O34103   6.683   6.344   0.198  0.1404 -0.9443  0.2480
  259MOL0     C34104   6.468   6.059   0.119 -0.5699 -0.0158  0.5400
  259MOL0     C34105   6.334   6.035   0.074  0.3032  0.2276  0.7607
  259MOL0     N34106   5.672   5.965  -0.388  0.1629 -0.2807  0.3799
  259MOL0     N34107   5.558   6.019  -0.371 -0.5627  0.0846  0.3830
  259MOL0     C34108   6.223   6.611   0.263 -0.3000 -0.8799 -0.0200
  259MOL0     C34109   6.337   6.691   0.281  0.0526 -0.3911  0.1325
  259MOL0     C34110   6.544   7.001   0.480  0.0949  0.9788  0.8318
  259MOL0     C34111   6.560   7.006   0.617 -0.0625 -0.3435  0.2504
  259MOL0     C34112   6.692   7.033   0.668  0.5853 -0.4044 -0.1690
  259MOL0     C34113   6.804   7.052   0.588 -0.4860 -0.6508  0.1944
  259MOL0     O34114   6.927   7.069   0.650 -0.7076 -0.1792  0.7121
  259MOL0     C34115   7.053   7.043   0.584 -0.0731  0.2625  1.0562
  259MOL0     C34116   7.107   7.157   0.511  0.4997  0.1019 -0.4762
  259MOL0     C34117   7.114   7.290   0.600 -0.2571  1.5368 -0.8358
  259MOL0     C34118   7.194   7.271   0.740 -0.0240 -0.6458 -0.2073
  259MOL0     C34119   7.340   7.229   0.724  0.4492  0.0436  0.5478
  259MOL0     C34120   7.458   7.208   0.702 -0.2620  0.4518 -0.5132
  259MOL0     C34121   6.780   7.045   0.454  0.4298  0.2745  0.9280
  259MOL0     C34122   6.650   7.022   0.399 -0.8110 -0.5754 -0.4286
  259MOL0     H34123   6.255   6.945   0.085  0.1802  0.3220  0.1294
  259MOL0     H34124   6.046   6.803   0.041 -1.6692 -0.9748  2.0591
  259MOL0     H34125   5.968   6.534  -0.008  1.5662 -3.2135  1.4655
  259MOL0     H34126   5.875   6.672   0.052 -1.1679 -0.8442  0.1348
  259MOL0     H34127   5.764   6.524   0.207  0.2995  2.0631 -0.6130
  259MOL0     H34128   5.834   6.376   0.124 -2.2866 -1.2820  1.2175
  259MOL0     H34129   5.728   6.444  -0.081 -0.1201  0.5395 -1.4968
  259MOL0     H34130   5.658   6.595  -0.016 -3.8610 -0.4965  1.6311
  259MOL0     H34131   5.590   6.322   0.082  1.6768  0.5049 -2.1384
  259MOL0     H34132   5.521   6.482   0.146 -0.3853  1.2313  0.6969
  259MOL0     H34133   5.432   6.523  -0.088 -0.6027  0.4184  0.5238
  259MOL0     H34134   5.349   6.409   0.003  0.7032 -1.1865  1.7768
  259MOL0     H34135   5.551   6.292  -0.195  0.6663 -1.6005  2.8988
  259MOL0     H34136   5.377   6.324  -0.223  1.4168  0.5915 -1.1767
  259MOL0     H34137   5.494   6.145  -0.027 -1.2009 -3.2528  0.2838
  259MOL0     H34138   5.316   6.202  -0.024  0.4762  2.7414 -0.4205
  259MOL0     H34139   5.333   6.117  -0.278 -1.6289 -3.3733 -0.6219
  259MOL0     H34140   5.320   5.995  -0.145 -2.6576  2.3094  1.9381
  259MOL0     H34141   5.612   5.896  -0.069 -2.6935  3.5126  0.8747
  259MOL0     H34142   5.858   5.789  -0.336  0.0555  0.7725 -0.8811
  259MOL0     H34143   5.753   5.716  -0.218  1.1482 -0.8989 -1.5162
  259MOL0     H34144   5.971   5.779  -0.128  0.9716  1.1969  3.0617
  259MOL0     H34145   5.853   5.842  -0.022 -0.4710 -1.2377 -0.4991
  259MOL0     H34146   5.963   6.048  -0.218 -1.4005 -0.2590 -0.5112
  259MOL0     H34147   5.899   6.066  -0.057 -0.1334  0.0532 -1.5218
  259MOL0     H34148   6.164   5.976  -0.149  0.3144  0.8815 -0.6474
  259MOL0     H34149   6.108   5.922   0.003 -0.5126 -0.4584 -1.0501
  259MOL0     H34150   6.193   6.340   0.063 -0.8329  0.1544  2.0067
  259MOL0     H34151   6.438   6.401   0.136 -1.7013  0.0160 -0.2959
  259MOL0     H34152   6.919   6.240   0.109 -0.1765  3.1190 -0.0749
  259MOL0     H34153   7.136   6.310   0.218 -1.3400  0.1182 -2.7514
  259MOL0     H34154   7.358   6.276   0.382 -0.1880 -0.1763 -0.7238
  259MOL0     H34155   7.309   6.124   0.439  1.6067  1.0451 -3.3678
  259MOL0     H34156   7.327   6.213   0.688  1.0261 -0.9300  0.7097
  259MOL0     H34157   7.433   6.344   0.622  1.5791 -2.0430  3.2565
  259MOL0     H34158   7.581   6.184   0.516 -0.9220 -2.0477  0.2006
  259MOL0     H34159   7.487   6.053   0.597  0.4603 -0.9507  2.0510
  259MOL0     H34160   7.647   6.294   0.718  0.1661  0.2388  2.6290
  259MOL0     H34161   7.595   6.170   0.818  3.1345  2.8884  1.4314
  259MOL0     H34162   7.789   6.104   0.582  4.2630 -2.2332  0.9298
  259MOL0     H34163   7.766   6.019   0.741  0.3281  0.7351  0.5808
  259MOL0     H34164   7.969   6.158   0.735 -0.3356  0.1713 -0.2970
  259MOL0     H34165   7.859   6.244   0.845 -3.0486 -0.2953 -0.8019
  259MOL0     H34166   7.865   6.308   0.549  1.3061 -1.8277  0.0222
  259MOL0     H34167   7.819   6.409   0.682 -0.4735 -0.6125 -0.4702
  259MOL0     H34168   8.108   6.320   0.643  4.7456  4.4510  2.4520
  259MOL0     H34169   8.040   6.469   0.723 -1.8895  2.2023 -1.7727
  259MOL0     H34170   6.976   6.197   0.600 -1.6825 -0.7422  1.1177
  259MOL0     H34171   6.771   6.143   0.505  0.7195  1.2965  1.6731
  259MOL0     H34172   6.543   5.981   0.122 -0.6216 -0.0230  2.5457
  259MOL0     H34173   6.299   5.936   0.048 -0.2495 -0.6281  4.2170
  259MOL0     H34174   6.213   6.520   0.323  0.7555  0.6046  2.5986
  259MOL0     H34175   6.413   6.652   0.348  0.2931 -3.3785 -1.7038
  259MOL0     H34176   6.476   7.004   0.685  0.2157 -0.2850  0.6011
  259MOL0     H34177   6.690   7.045   0.776 -0.7819  0.3546 -0.2610
  259MOL0     H34178   7.037   6.954   0.522 -3.1490  0.1071  1.8886
  259MOL0     H34179   7.131   7.028   0.659  1.2095  0.1932 -0.2430
  259MOL0     H34180   7.205   7.124   0.476 -0.5618 -3.0636 -0.8106
  259MOL0     H34181   7.059   7.173   0.413  0.9427 -2.6758 -1.2304
  259MOL0     H34182   7.013   7.326   0.619 -2.0364 -2.7380 -1.1253
  259MOL0     H34183   7.160   7.372   0.544  0.2637  2.4549  0.8709
  259MOL0     H34184   7.197   7.362   0.800  0.3216 -1.8122  1.6143
  259MOL0     H34185   7.137   7.206   0.807 -2.9117  1.7718 -0.1120
  259MOL0     H34186   7.563   7.189   0.696 -0.2202 -1.1032  2.7697
  259MOL0     H34187   6.867   7.047   0.390  0.9165 -1.5730  1.4616
  259MOL0     H34188   6.644   7.014   0.291 -2.2768  1.9093 -0.6140
  260MOL0     O34189   1.245   5.768   3.024 -0.2293  0.0394 -0.9551
  260MOL0     C34190   1.300   5.832   3.122  0.2776  0.4059  0.4463
  260MOL0     O34191   1.238   5.929   3.203 -0.7750  0.0456  0.1008
  260MOL0     C34192   1.112   5.985   3.177  0.2853  0.0216 -0.2544
  260MOL0     C34193   1.056   6.044   3.294 -0.3946 -0.9178  0.0204
  260MOL0     C34194   0.937   6.114   3.278 -0.5609 -0.4251  0.0495
  260MOL0     C34195   0.863   6.120   3.161  0.0535  0.3345 -0.3250
  260MOL0     O34196   0.761   6.213   3.155  0.4472 -0.0837 -0.2136
  260MOL0     C34197   0.660   6.192   3.059  0.1119 -0.5432  1.5883
  260MOL0     C34198   0.552   6.300   3.065  0.5844 -0.9132  1.3749
  260MOL0     C34199   0.434   6.261   3.159  1.1067 -0.3942  0.8372
  260MOL0     C34200   0.315   6.350   3.136 -0.8828 -0.4554 -0.1462
  260MOL0     C34201   0.191   6.300   3.198 -0.5204  0.4110 -0.9614
  260MOL0     C34202   0.075   6.395   3.181 -0.3833  0.5069 -0.0405
  260MOL0     C34203  -0.053   6.323   3.229  0.2269  0.3624 -0.6867
  260MOL0     C34204  -0.181   6.412   3.230  0.2321 -0.4863 -0.4881
  260MOL0     N34205  -0.286   6.354   3.315  0.3347 -0.7085  0.5522
  260MOL0     C34206  -0.300   6.397   3.440  0.0319  0.9189  0.1562
  260MOL0     C34207  -0.398   6.326   3.490  0.1856  0.0619 -0.5525
  260MOL0     C34208  -0.429   6.320   3.638  0.6454  0.0075 -0.5056
  260MOL0     C34209  -0.374   6.200   3.720 -0.0262  0.7233 -0.8574
  260MOL0     C34210  -0.415   6.226   3.866  0.8813  0.2703  0.8060
  260MOL0     C34211  -0.339   6.134   3.961  0.6123 -0.1618  0.3978
  260MOL0     O34212  -0.327   6.195   4.090  0.8270 -0.4289  0.8408
  260MOL0     C34213  -0.427   6.203   4.176  0.4634  0.3660  0.4521
  260MOL0     C34214  -0.502   6.092   4.226  0.0671 -0.1760 -0.1583
  260MOL0     C34215  -0.613   6.110   4.302  0.4937  0.0671  0.6619
  260MOL0     C34216  -0.642   6.238   4.361 -0.2304 -0.6201  0.4987
  260MOL0     C34217  -0.753   6.259   4.453  0.3733  0.1778 -0.5391
  260MOL0     O34218  -0.807   6.150   4.520 -0.3327  0.1901 -0.0404
  260MOL0     C34219  -0.919   6.182   4.593 -0.2688 -0.1609 -0.3219
  260MOL0     C34220  -0.911   6.231   4.723 -0.2904 -0.3986 -0.0762
  260MOL0     C34221  -1.028   6.275   4.786  0.2952  0.7634 -0.2248
  260MOL0     C34222  -1.150   6.261   4.716  0.1837 -0.1119  0.3969
  260MOL0     O34223  -1.274   6.299   4.774 -0.0675  0.4564 -0.4922
  260MOL0     C34224  -1.274   6.387   4.882  0.9711  1.1760  0.1399
  260MOL0     C34225  -1.403   6.397   4.952 -0.1020 -0.9479 -0.2112
  260MOL0     C34226  -1.505   6.475   4.868  0.2279  0.0133  0.0629
  260MOL0     C34227  -1.639   6.490   4.952 -0.8484 -0.9497 -0.0899
  260MOL0     C34228  -1.742   6.580   4.874 -0.1510  0.5732 -0.3006
  260MOL0     C34229  -1.867   6.621   4.962 -0.0228  0.0253 -0.5944
  260MOL0     C34230  -1.954   6.506   5.030 -0.0325 -0.0499  0.6780
  260MOL0     C34231  -2.030   6.408   4.935 -0.1876 -0.7053  0.2038
  260MOL0    Cl34232  -2.153   6.321   5.035 -0.2420  0.1976 -0.4981
  260MOL0     C34233  -1.150   6.198   4.592 -0.6602 -0.4122  0.1753
  260MOL0     C34234  -1.036   6.153   4.527  0.6287 -0.0434 -0.4934
  260MOL0     O34235  -0.800   6.373   4.454  0.2886  0.3887 -0.1637
  260MOL0     C34236  -0.564   6.347   4.319  0.5144 -0.3446  1.0225
  260MOL0     C34237  -0.456   6.328   4.225 -0.1487 -0.0226 -0.2598
  260MOL0     N34238  -0.424   6.223   3.402 -0.1397 -0.0171  0.1542
  260MOL0     N34239  -0.364   6.247   3.287 -0.3735  1.1818  0.5762
  260MOL0     C34240   0.919   6.062   3.052 -1.6454  0.2946 -0.0827
  260MOL0     C34241   1.046   6.001   3.055 -0.4875  0.4778  0.2413
  260MOL0     C34242   1.431   5.793   3.160 -0.1167  0.3452 -0.5725
  260MOL0     C34243   1.520   5.870   3.240 -1.0278 -0.3211 -0.0822
  260MOL0     C34244   1.645   5.809   3.278 -0.8161 -0.8873 -0.4006
  260MOL0     C34245   1.699   5.699   3.222 -0.2544  0.6010 -0.8443
  260MOL0     O34246   1.812   5.656   3.268 -0.7359  0.4630  0.9624
  260MOL0     C34247   1.904   5.616   3.163  0.1950  0.5298  0.3158
  260MOL0     C34248   1.978   5.490   3.214 -0.3661 -0.8138  0.5357
  260MOL0     C34249   2.116   5.513   3.265 -0.5691 -0.1442  0.0957
  260MOL0     C34250   2.219   5.586   3.175 -0.6930 -0.5192  1.1026
  260MOL0     C34251   2.230   5.530   3.042 -0.4982 -0.2319  0.3085
  260MOL0     C34252   2.262   5.484   2.932  1.1241 -0.0256  0.2423
  260MOL0     C34253   1.612   5.631   3.129 -1.3100  0.6942  0.4760
  260MOL0     C34254   1.478   5.662   3.109  0.7440 -0.3250 -0.8619
  260MOL0     H34255   1.124   6.051   3.379  1.1689 -0.4594 -1.2297
  260MOL0     H34256   0.896   6.166   3.364  3.2759  2.1197  0.6079
  260MOL0     H34257   0.610   6.095   3.067  1.3956 -1.3010  0.6953
  260MOL0     H34258   0.708   6.195   2.961 -0.2092  3.3068  1.4010
  260MOL0     H34259   0.507   6.316   2.967 -1.9970 -4.0539  1.8670
  260MOL0     H34260   0.591   6.396   3.101 -2.5619  0.3389  1.7863
  260MOL0     H34261   0.470   6.267   3.262  0.1349  0.9610  1.1211
  260MOL0     H34262   0.409   6.158   3.131  0.8591 -0.6412  1.8988
  260MOL0     H34263   0.340   6.440   3.192  0.8676 -1.1190  0.2038
  260MOL0     H34264   0.300   6.377   3.031 -0.2913 -1.8278 -0.6022
  260MOL0     H34265   0.203   6.297   3.307  2.0025  2.7571 -1.0632
  260MOL0     H34266   0.157   6.203   3.161  0.5602 -0.3660  0.0148
  260MOL0     H34267   0.067   6.409   3.072  1.0527 -1.7112 -0.5034
  260MOL0     H34268   0.079   6.495   3.224 -0.7360  0.3572  0.3439
  260MOL0     H34269  -0.057   6.239   3.159 -0.5793  0.8554 -1.2422
  260MOL0     H34270  -0.032   6.285   3.330  0.6578  0.8833 -0.5767
  260MOL0     H34271  -0.216   6.431   3.128  1.1378  2.5831 -0.3396
  260MOL0     H34272  -0.148   6.510   3.266 -1.8351  0.5286 -1.1832
  260MOL0     H34273  -0.234   6.456   3.503  0.9538 -0.8758  0.9427
  260MOL0     H34274  -0.538   6.315   3.648  0.8235 -0.9198  1.5784
  260MOL0     H34275  -0.392   6.410   3.688  2.8826 -0.2984 -1.4916
  260MOL0     H34276  -0.267   6.197   3.698  0.0250  2.9205 -1.1162
  260MOL0     H34277  -0.419   6.105   3.690  1.7976 -0.2412 -0.6629
  260MOL0     H34278  -0.400   6.330   3.897  2.7069  1.0257 -2.2276
  260MOL0     H34279  -0.521   6.205   3.878 -0.2024  2.7120 -2.8420
  260MOL0     H34280  -0.242   6.103   3.920 -0.0348  0.9803 -2.1650
  260MOL0     H34281  -0.382   6.034   3.970  1.1623 -0.4705 -0.2879
  260MOL0     H34282  -0.487   6.001   4.168  3.0135 -0.0254  0.1918
  260MOL0     H34283  -0.682   6.027   4.319 -0.3602  0.5602 -0.2954
  260MOL0     H34284  -0.811   6.247   4.762  0.0188 -0.0327 -0.9905
  260MOL0     H34285  -1.017   6.316   4.886  0.7844 -0.7681  0.3801
  260MOL0     H34286  -1.234   6.484   4.851 -3.2221  3.6920  1.7508
  260MOL0     H34287  -1.214   6.353   4.966 -1.0915  0.8243  1.5479
  260MOL0     H34288  -1.386   6.450   5.046  0.4586  1.2991 -1.4897
  260MOL0     H34289  -1.437   6.297   4.981 -0.1450 -0.6808  0.6797
  260MOL0     H34290  -1.510   6.419   4.775 -0.2732 -1.4468  0.9396
  260MOL0     H34291  -1.470   6.575   4.839  0.9844 -1.1591 -3.4876
  260MOL0     H34292  -1.675   6.388   4.966  0.2271 -1.7674 -2.7431
  260MOL0     H34293  -1.619   6.536   5.049  0.9889  0.5927 -1.1423
  260MOL0     H34294  -1.777   6.512   4.796  2.3268  1.7143 -2.5456
  260MOL0     H34295  -1.694   6.671   4.840 -1.0562  1.0421 -0.3427
  260MOL0     H34296  -1.922   6.702   4.914  0.0484  0.8576  0.6590
  260MOL0     H34297  -1.815   6.677   5.041  0.5922  0.9085 -1.6060
  260MOL0     H34298  -1.895   6.442   5.096  0.8571  0.5719  0.5024
  260MOL0     H34299  -2.024   6.566   5.090  1.0917  2.1752 -0.1294
  260MOL0     H34300  -1.959   6.337   4.890 -0.4640  0.3263 -1.9957
  260MOL0     H34301  -2.079   6.463   4.854 -0.8694 -3.0519 -1.0529
  260MOL0     H34302  -1.246   6.199   4.541 -1.5632 -1.1050  1.7601
  260MOL0     H34303  -1.026   6.108   4.429 -0.5315 -0.5611 -0.3843
  260MOL0     H34304  -0.578   6.447   4.358 -1.6071 -0.2988  0.2348
  260MOL0     H34305  -0.397   6.412   4.188 -2.0027  1.3021 -0.3611
  260MOL0     H34306   0.867   6.065   2.957  0.5354 -0.9757 -1.3706
  260MOL0     H34307   1.089   5.957   2.966  0.5923 -1.0831  1.4693
  260MOL0     H34308   1.495   5.968   3.279  0.7842 -0.1204  0.6247
  260MOL0     H34309   1.712   5.862   3.344 -2.6980  0.6382  0.3870
  260MOL0     H34310   1.972   5.700   3.149 -1.2893  1.8095  0.5347
  260MOL0     H34311   1.863   5.585   3.066 -2.0299  2.7810  0.4538
  260MOL0     H34312   1.925   5.444   3.298  2.2627 -3.3064  0.9892
  260MOL0     H34313   1.985   5.418   3.132 -0.9500  0.0344 -0.2721
  260MOL0     H34314   2.162   5.423   3.306 -1.8610 -0.6459  0.5142
  260MOL0     H34315   2.115   5.575   3.355  3.5401 -3.3327  2.6699
  260MOL0     H34316   2.188   5.691   3.173  0.8306  0.1101  4.0542
  260MOL0     H34317   2.316   5.578   3.225  1.0506 -1.6862 -2.1758
  260MOL0     H34318   2.280   5.436   2.838 -2.1168 -1.8095  0.3729
  260MOL0     H34319   1.646   5.533   3.097 -1.6531  0.3055  1.2543
  260MOL0     H34320   1.404   5.598   3.062 -1.1717  0.0798  1.4600
  261MOL0     O34321   6.055  11.054   0.487 -0.4195 -0.6011  0.0115
  261MOL0     C34322   5.978  11.148   0.471 -0.6191  0.0166  0.5589
  261MOL0     O34323   5.840  11.132   0.452  0.6481  0.7129  0.0517
  261MOL0     C34324   5.789  11.002   0.469 -0.4350  0.2621 -0.1555
  261MOL0     C34325   5.722  10.985   0.587 -0.4467  0.5274  0.0992
  261MOL0     C34326   5.671  10.855   0.626 -0.8364 -0.0049  0.4748
  261MOL0     C34327   5.690  10.742   0.539  0.3816  1.1600 -0.8354
  261MOL0     O34328   5.668  10.608   0.582 -0.4705 -0.3073 -0.6308
  261MOL0     C34329   5.673  10.579   0.722  0.1128  0.6528  0.0127
  261MOL0     C34330   5.659  10.428   0.748 -0.5519  0.0123  0.6950
  261MOL0     C34331   5.532  10.373   0.709  0.5146 -0.1922 -0.7206
  261MOL0     C34332   5.419  10.406   0.798  0.1521  0.1442  0.9180
  261MOL0     C34333   5.311  10.301   0.759 -0.0658  0.3183 -0.7988
  261MOL0     C34334   5.197  10.275   0.866  0.1160 -0.3869  0.4360
  261MOL0     C34335   5.087  10.390   0.847  0.5642  0.6413 -0.1014
  261MOL0     C34336   4.943  10.344   0.882  0.2682  0.5129  0.1242
  261MOL0     N34337   4.866  10.273   0.770  0.3839 -0.8949 -1.0648
  261MOL0     C34338   4.892  10.144   0.727 -1.0179 -0.6170  0.3042
  261MOL0     C34339   4.832  10.129   0.604 -0.7799 -0.5355  0.9441
  261MOL0     C34340   4.841  10.012   0.515 -0.1392 -0.6730 -0.7391
  261MOL0     C34341   4.883  10.046   0.376  0.1071  0.0186  0.0902
  261MOL0     C34342   4.904   9.931   0.278  0.0725 -0.5238 -0.9689
  261MOL0     C34343   4.939   9.997   0.143 -0.5898  0.9449  0.3623
  261MOL0     O34344   4.971   9.891   0.051 -0.0494  0.7295  0.2201
  261MOL0     C34345   4.875   9.832  -0.026 -0.2093 -0.5094 -0.1398
  261MOL0     C34346   4.732   9.846  -0.013 -0.3968 -0.3846 -0.1657
  261MOL0     C34347   4.649   9.781  -0.098 -0.5447 -0.3464 -0.4398
  261MOL0     C34348   4.696   9.677  -0.180 -0.5650 -0.3088  0.0257
  261MOL0     C34349   4.595   9.585  -0.248 -0.8122 -0.6786 -0.8782
  261MOL0     O34350   4.463   9.620  -0.249 -0.1686 -0.1691  0.2289
  261MOL0     C34351   4.376   9.535  -0.322 -0.3733 -0.6847 -0.5504
  261MOL0     C34352   4.353   9.400  -0.284 -0.4101 -0.5920  0.9701
  261MOL0     C34353   4.261   9.327  -0.360  0.0432  0.5129 -0.3690
  261MOL0     C34354   4.199   9.380  -0.468  0.7192  0.7983  0.1116
  261MOL0     O34355   4.113   9.292  -0.531  0.3457 -0.5568  0.0325
  261MOL0     C34356   4.082   9.317  -0.669 -0.4901 -0.0733  1.7671
  261MOL0     C34357   3.949   9.383  -0.707  0.2897 -0.9479  0.2958
  261MOL0     C34358   3.823   9.332  -0.641  0.6841 -0.1038 -0.8237
  261MOL0     C34359   3.705   9.420  -0.660  0.0218 -0.3889  1.0827
  261MOL0     C34360   3.625   9.373  -0.786 -0.6754 -0.3009  0.3815
  261MOL0     C34361   3.516   9.477  -0.797  0.6231 -0.2619  0.5597
  261MOL0     C34362   3.419   9.454  -0.917 -0.3291 -0.1655  0.6040
  261MOL0     C34363   3.327   9.335  -0.897  0.4430 -0.3512  0.0621
  261MOL0    Cl34364   3.208   9.316  -1.037 -0.3618  0.3481 -0.0069
  261MOL0     C34365   4.237   9.507  -0.503  0.4355  0.5300  0.2899
  261MOL0     C34366   4.312   9.592  -0.430  0.2056 -0.8111  0.4978
  261MOL0     O34367   4.635   9.475  -0.279 -0.1708  0.5702 -0.1858
  261MOL0     C34368   4.834   9.660  -0.185  0.2091 -0.3307 -0.5512
  261MOL0     C34369   4.924   9.734  -0.113  0.3000 -0.3670 -0.1085
  261MOL0     N34370   4.753  10.243   0.587 -0.0500 -0.9009  0.4841
  261MOL0     N34371   4.765  10.327   0.691  0.0773  0.4068 -0.5030
  261MOL0     C34372   5.748  10.764   0.413  0.3235  0.2221 -0.1081
  261MOL0     C34373   5.792  10.897   0.372 -0.1715  0.3036  0.4016
  261MOL0     C34374   6.046  11.276   0.477  0.8149  0.9129 -0.3477
  261MOL0     C34375   6.183  11.301   0.483  0.3618 -0.2899 -0.1572
  261MOL0     C34376   6.245  11.422   0.467  0.1477 -0.3058 -0.5079
  261MOL0     C34377   6.162  11.531   0.465 -0.3771 -0.5316  0.0204
  261MOL0     O34378   6.221  11.656   0.457  0.4222  0.8901 -0.4863
  261MOL0     C34379   6.142  11.771   0.474  0.3690 -0.2315 -0.0708
  261MOL0     C34380   6.236  11.894   0.502  0.4467 -0.0332 -0.6103
  261MOL0     C34381   6.285  11.902   0.654  0.0363 -0.9370 -0.3386
  261MOL0     C34382   6.317  12.047   0.685 -0.0752 -0.4049  0.0574
  261MOL0     C34383   6.193  12.122   0.703 -0.5788  0.8585 -0.0259
  261MOL0     C34384   6.098  12.186   0.719 -0.1407 -0.4339 -0.4383
  261MOL0     C34385   6.026  11.522   0.458  0.6616  0.5252 -0.6310
  261MOL0     C34386   5.963  11.394   0.465  0.1908 -0.8196 -0.3396
  261MOL0     H34387   5.701  11.081   0.634 -0.1721  1.8351 -2.2597
  261MOL0     H34388   5.619  10.840   0.720 -1.8144  0.9796  0.1078
  261MOL0     H34389   5.594  10.637   0.771 -0.8718  0.5452 -1.3819
  261MOL0     H34390   5.765  10.613   0.769  1.4362 -0.5191 -1.6004
  261MOL0     H34391   5.681  10.408   0.854  3.7504  1.9085  0.4073
  261MOL0     H34392   5.740  10.370   0.703  0.3931  0.8700  1.2215
  261MOL0     H34393   5.551  10.266   0.718 -1.0884 -0.3355  2.5137
  261MOL0     H34394   5.508  10.414   0.610  1.5758 -2.6755 -2.0977
  261MOL0     H34395   5.442  10.401   0.905 -2.8883  2.1044  1.7686
  261MOL0     H34396   5.383  10.506   0.774  1.4117  0.2147 -0.9702
  261MOL0     H34397   5.363  10.206   0.751  2.7773  1.7823 -1.0171
  261MOL0     H34398   5.267  10.324   0.661 -0.1124 -2.0995 -1.4065
  261MOL0     H34399   5.241  10.280   0.966  1.2636  0.4998 -0.0880
  261MOL0     H34400   5.156  10.174   0.858  0.2464 -0.3345 -1.2662
  261MOL0     H34401   5.120  10.485   0.891  0.7771  1.0085 -1.0269
  261MOL0     H34402   5.086  10.413   0.740 -2.2251 -0.5868 -0.4186
  261MOL0     H34403   4.883  10.431   0.911  0.0454  1.3950 -2.7351
  261MOL0     H34404   4.935  10.277   0.969 -0.8706 -4.0193 -3.1093
  261MOL0     H34405   4.966  10.082   0.775 -1.8510 -0.9843  1.1332
  261MOL0     H34406   4.739   9.972   0.512 -0.9340  1.1290  0.4073
  261MOL0     H34407   4.912   9.941   0.560 -1.3158 -1.7456 -0.5171
  261MOL0     H34408   4.988  10.077   0.381 -0.0344  0.5414 -0.2154
  261MOL0     H34409   4.831  10.133   0.336 -1.1464 -0.6775  0.1362
  261MOL0     H34410   5.003   9.892   0.302  1.1389  1.9380 -1.0444
  261MOL0     H34411   4.819   9.862   0.275  0.1684 -0.6345 -1.1462
  261MOL0     H34412   5.017  10.074   0.151 -1.9979  2.4015  0.4342
  261MOL0     H34413   4.849  10.050   0.114 -0.5795  0.9703  0.3778
  261MOL0     H34414   4.685   9.929   0.037 -0.7294 -0.5716 -0.1627
  261MOL0     H34415   4.543   9.804  -0.109 -1.1339 -2.9482 -0.9214
  261MOL0     H34416   4.411   9.366  -0.198 -0.2839  2.1465  2.0543
  261MOL0     H34417   4.240   9.224  -0.333 -2.1815  1.3288  1.3125
  261MOL0     H34418   4.071   9.216  -0.710 -1.2540  0.4852  0.5451
  261MOL0     H34419   4.170   9.363  -0.717 -1.1197  0.6509  1.2917
  261MOL0     H34420   3.948   9.373  -0.816  1.8686 -0.6770  0.2260
  261MOL0     H34421   3.958   9.490  -0.686 -1.4128 -1.1167  2.2107
  261MOL0     H34422   3.842   9.335  -0.534 -1.1337 -0.5318 -0.4501
  261MOL0     H34423   3.816   9.225  -0.663  3.9812 -0.5805 -0.0959
  261MOL0     H34424   3.641   9.402  -0.572 -0.9942  1.6380  0.8225
  261MOL0     H34425   3.720   9.526  -0.678 -0.3051 -0.6856 -1.1646
  261MOL0     H34426   3.573   9.277  -0.779 -2.0507  0.5223  4.4517
  261MOL0     H34427   3.688   9.380  -0.875 -0.8155  0.5226  0.3383
  261MOL0     H34428   3.559   9.578  -0.803  0.8668 -0.1735  2.9103
  261MOL0     H34429   3.461   9.476  -0.702  1.4372 -3.6953  1.1170
  261MOL0     H34430   3.356   9.543  -0.931  2.3159  2.4336  3.5931
  261MOL0     H34431   3.467   9.430  -1.012 -3.0830  0.7223 -1.1529
  261MOL0     H34432   3.271   9.357  -0.806 -0.8600 -0.2136 -0.7473
  261MOL0     H34433   3.390   9.246  -0.888 -1.5901 -2.0138 -1.0668
  261MOL0     H34434   4.192   9.550  -0.592  0.7528 -0.7462 -0.5136
  261MOL0     H34435   4.333   9.692  -0.466  1.2116 -1.5831 -1.1604
  261MOL0     H34436   4.880   9.596  -0.259  1.9871  2.3452 -1.9211
  261MOL0     H34437   5.030   9.711  -0.104  0.9189  2.0304 -0.6211
  261MOL0     H34438   5.760  10.692   0.332  1.1929  2.4807 -2.1198
  261MOL0     H34439   5.836  10.914   0.274 -0.5526  0.2759  0.2232
  261MOL0     H34440   6.242  11.214   0.511 -0.5577 -1.0513 -0.5193
  261MOL0     H34441   6.353  11.429   0.462  0.0048  1.6997 -3.8335
  261MOL0     H34442   6.073  11.754   0.557  1.5335 -1.6981  0.6344
  261MOL0     H34443   6.084  11.808   0.389  1.4899  0.9034 -0.3738
  261MOL0     H34444   6.329  11.890   0.444  0.5250 -0.0732 -0.4823
  261MOL0     H34445   6.172  11.976   0.470 -1.0944 -0.3339  1.5283
  261MOL0     H34446   6.377  11.845   0.670  0.3075 -1.3600 -3.0719
  261MOL0     H34447   6.208  11.854   0.715  1.3721 -3.9458 -0.8553
  261MOL0     H34448   6.379  12.062   0.774 -1.0739 -0.3463  0.7640
  261MOL0     H34449   6.361  12.090   0.594 -0.7645 -0.3633 -0.2595
  261MOL0     H34450   6.016  12.248   0.751  1.4653  1.2442  0.6399
  261MOL0     H34451   5.969  11.614   0.444  0.1282  0.0038 -2.0282
  261MOL0     H34452   5.856  11.376   0.459  0.1042 -2.0017  2.5794
  262MOL0     O34453  10.676   9.791   5.932  0.4248  0.4651 -0.5973
  262MOL0     C34454  10.682   9.674   5.901 -0.4983  0.3513  0.5088
  262MOL0     O34455  10.578   9.583   5.925 -0.0806  0.0506  0.2927
  262MOL0     C34456  10.458   9.630   5.977 -0.3617 -0.3146 -0.3249
  262MOL0     C34457  10.342   9.594   5.912  0.6606 -0.2501  1.4209
  262MOL0     C34458  10.211   9.638   5.951 -0.7376  0.0133 -0.2789
  262MOL0     C34459  10.206   9.719   6.060  0.3025  0.7504 -0.7102
  262MOL0     O34460  10.085   9.761   6.097  0.4197 -0.4726 -0.4794
  262MOL0     C34461  10.067   9.773   6.240 -0.2441  0.8856  0.3715
  262MOL0     C34462   9.929   9.809   6.266 -0.3521  0.2222 -1.2414
  262MOL0     C34463   9.912   9.865   6.412 -0.2712  0.9660 -0.4306
  262MOL0     C34464   9.912   9.747   6.514  0.3213 -0.0542 -0.2315
  262MOL0     C34465   9.788   9.650   6.495 -0.6511  0.1075 -0.3999
  262MOL0     C34466   9.718   9.633   6.620  0.2016  0.3563 -0.7471
  262MOL0     C34467   9.569   9.580   6.610 -0.8820 -0.5459  0.5620
  262MOL0     C34468   9.479   9.665   6.537  0.5870 -0.2196 -0.8079
  262MOL0     N34469   9.350   9.608   6.517  0.4261 -0.4101  0.4077
  262MOL0     C34470   9.313   9.510   6.428 -0.1423  0.1379  0.4819
  262MOL0     C34471   9.173   9.520   6.432 -0.7056 -0.9907 -0.1107
  262MOL0     C34472   9.076   9.426   6.359 -1.2093  0.1918  0.0294
  262MOL0     C34473   8.933   9.426   6.415  0.3152 -0.1107  0.4818
  262MOL0     C34474   8.843   9.295   6.402 -0.1490 -0.6907 -0.9637
  262MOL0     C34475   8.844   9.199   6.282 -0.3786 -1.2670  0.3349
  262MOL0     O34476   8.744   9.100   6.318  0.0091  0.5747  1.0311
  262MOL0     C34477   8.614   9.107   6.261 -0.0540 -0.1053  0.3105
  262MOL0     C34478   8.523   9.013   6.301 -0.2331  0.2014  0.4323
  262MOL0     C34479   8.390   9.025   6.269  0.7647 -0.1539  0.8880
  262MOL0     C34480   8.344   9.133   6.192 -0.2177  0.7552 -0.1687
  262MOL0     C34481   8.196   9.161   6.188 -0.4876  0.7877  0.1917
  262MOL0     O34482   8.116   9.049   6.185  0.5077 -0.5399  0.2177
  262MOL0     C34483   7.981   9.063   6.166  0.0505  0.2623  0.1015
  262MOL0     C34484   7.934   9.088   6.039  0.0688 -0.1529  0.2438
  262MOL0     C34485   7.797   9.092   6.005 -0.6795  0.1685 -0.5999
  262MOL0     C34486   7.705   9.077   6.109 -0.3427  0.4141 -0.1245
  262MOL0     O34487   7.570   9.091   6.085 -0.8846  0.7101  0.0348
  262MOL0     C34488   7.483   9.095   6.195 -0.0786 -0.6351 -0.4487
  262MOL0     C34489   7.343   9.138   6.134  0.0720 -0.0247 -0.3690
  262MOL0     C34490   7.243   9.152   6.249  0.3627  0.9477  0.5234
  262MOL0     C34491   7.105   9.139   6.186  0.2085  0.7656  1.7375
  262MOL0     C34492   6.992   9.208   6.258 -0.2009 -0.1819 -0.7929
  262MOL0     C34493   6.985   9.154   6.410 -0.0521  0.1822 -0.0808
  262MOL0     C34494   6.863   9.189   6.489 -0.1723  0.0399  0.5262
  262MOL0     C34495   6.877   9.166   6.644 -0.6387 -0.9225  0.2605
  262MOL0    Cl34496   6.715   9.215   6.711 -0.7484  0.2216 -0.0793
  262MOL0     C34497   7.759   9.063   6.242  0.7103 -0.4736 -0.1629
  262MOL0     C34498   7.897   9.064   6.275 -0.0124 -0.1634  0.6190
  262MOL0     O34499   8.156   9.271   6.194 -0.4174 -0.0184  0.5545
  262MOL0     C34500   8.431   9.230   6.144  0.0305  0.2264  0.3906
  262MOL0     C34501   8.569   9.214   6.186  0.6695 -0.8966 -0.0180
  262MOL0     N34502   9.134   9.625   6.514 -0.4557  0.1819  0.1999
  262MOL0     N34503   9.238   9.683   6.557 -0.1732  0.3391 -0.6843
  262MOL0     C34504  10.322   9.751   6.134  0.0145  0.2596  0.0782
  262MOL0     C34505  10.449   9.699   6.094 -0.3464 -0.7386  0.4345
  262MOL0     C34506  10.803   9.631   5.831  0.0770 -0.0379  0.5989
  262MOL0     C34507  10.819   9.492   5.799 -0.2995  0.0700 -0.0414
  262MOL0     C34508  10.947   9.448   5.746 -0.0755 -0.1935  0.3018
  262MOL0     C34509  11.048   9.540   5.708 -0.0062  0.8587 -0.8453
  262MOL0     O34510  11.166   9.501   5.641 -0.4009 -0.6921 -0.1191
  262MOL0     C34511  11.195   9.366   5.603 -0.1906 -0.1297  0.2589
  262MOL0     C34512  11.265   9.295   5.715  0.5734  0.8756  0.9503
  262MOL0     C34513  11.311   9.159   5.657 -0.6094 -0.7065 -0.0272
  262MOL0     C34514  11.454   9.166   5.610 -0.4539 -0.0751  0.4374
  262MOL0     C34515  11.550   9.179   5.720  0.3775 -0.3947  0.4863
  262MOL0     C34516  11.622   9.177   5.816 -0.2952 -0.7109  0.0639
  262MOL0     C34517  11.027   9.675   5.739 -1.0189  0.0749  0.3854
  262MOL0     C34518  10.910   9.713   5.800 -0.1107  0.4376  0.3352
  262MOL0     H34519  10.350   9.539   5.818 -3.2954 -2.4730  2.1586
  262MOL0     H34520  10.123   9.596   5.904 -0.3011 -0.6465 -0.5289
  262MOL0     H34521  10.128   9.856   6.277  1.9116  0.0867 -1.2138
  262MOL0     H34522  10.087   9.676   6.286 -0.1060  1.6996  2.0858
  262MOL0     H34523   9.870   9.719   6.251 -0.1397  0.3704 -3.2391
  262MOL0     H34524   9.887   9.889   6.205 -1.9221  1.8514  1.7363
  262MOL0     H34525   9.820   9.924   6.406  0.0854  1.3905 -2.2076
  262MOL0     H34526   9.985   9.942   6.438  0.2094 -0.1456  1.7534
  262MOL0     H34527  10.002   9.685   6.505  1.4555  1.3116  1.2248
  262MOL0     H34528   9.902   9.785   6.616  0.2396 -1.8246  0.4486
  262MOL0     H34529   9.835   9.560   6.453 -0.7850  0.1915 -0.7305
  262MOL0     H34530   9.721   9.690   6.419 -0.7386  2.8253  0.9778
  262MOL0     H34531   9.713   9.729   6.671 -2.0602  0.5189 -1.1466
  262MOL0     H34532   9.774   9.561   6.681  1.7653  0.9403 -1.4569
  262MOL0     H34533   9.577   9.481   6.563  4.3665 -0.9738  1.7138
  262MOL0     H34534   9.526   9.553   6.707  2.2544 -0.6487  2.0470
  262MOL0     H34535   9.513   9.692   6.437 -2.5853  1.0084 -1.6646
  262MOL0     H34536   9.469   9.760   6.590  1.2733 -1.6254  2.0242
  262MOL0     H34537   9.367   9.438   6.366 -1.7947  1.9206 -3.3841
  262MOL0     H34538   9.115   9.324   6.368 -3.3704 -0.5389  2.1287
  262MOL0     H34539   9.081   9.451   6.253  0.0182  2.4472  0.5603
  262MOL0     H34540   8.866   9.501   6.372 -0.9014 -0.5420  1.5581
  262MOL0     H34541   8.936   9.470   6.515  1.4355  0.0014  0.4080
  262MOL0     H34542   8.870   9.226   6.482  0.0086  0.5747  0.1045
  262MOL0     H34543   8.738   9.322   6.404  0.1805  0.6624 -1.0540
  262MOL0     H34544   8.943   9.152   6.280 -0.5955 -1.9610 -3.7759
  262MOL0     H34545   8.821   9.239   6.182  0.6069 -1.3700  0.0520
  262MOL0     H34546   8.558   8.926   6.355 -2.7050  1.0746  3.7846
  262MOL0     H34547   8.320   8.952   6.309  1.8938 -2.2994 -0.8038
  262MOL0     H34548   8.005   9.103   5.959 -0.7891  0.7540 -0.3814
  262MOL0     H34549   7.771   9.102   5.900 -1.5181  0.6618 -0.3577
  262MOL0     H34550   7.519   9.177   6.258 -0.3086 -0.2303 -0.8378
  262MOL0     H34551   7.485   8.993   6.235 -1.8007 -0.1315  1.0699
  262MOL0     H34552   7.311   9.061   6.064 -1.8328  0.7899 -0.4704
  262MOL0     H34553   7.366   9.232   6.084 -1.0656  0.5372  0.1160
  262MOL0     H34554   7.255   9.249   6.299  1.8397  0.3085  1.4669
  262MOL0     H34555   7.256   9.075   6.325 -1.2900  0.6948  0.5698
  262MOL0     H34556   7.109   9.173   6.083  0.1620  1.4505  1.9555
  262MOL0     H34557   7.087   9.034   6.163  2.6077  0.7061 -0.2400
  262MOL0     H34558   6.896   9.197   6.207 -0.7492  1.5982 -0.1842
  262MOL0     H34559   7.009   9.314   6.275 -0.4694  0.1332 -2.3603
  262MOL0     H34560   7.076   9.180   6.464 -0.5840  0.2634  0.8059
  262MOL0     H34561   7.001   9.046   6.408  2.3768  0.4661  1.2587
  262MOL0     H34562   6.855   9.297   6.472  0.1619  0.3374  2.0735
  262MOL0     H34563   6.778   9.134   6.448 -0.7119  0.9229  0.4501
  262MOL0     H34564   6.955   9.236   6.676 -0.0816 -1.8905  1.0612
  262MOL0     H34565   6.905   9.061   6.659  1.6341  0.0436  4.0559
  262MOL0     H34566   7.702   9.051   6.333  0.2089 -0.9440 -0.5325
  262MOL0     H34567   7.935   9.051   6.376  3.8300 -1.1988 -0.7863
  262MOL0     H34568   8.390   9.315   6.090 -0.8802 -0.4491 -0.0158
  262MOL0     H34569   8.632   9.289   6.141 -1.8996  2.8966  2.1703
  262MOL0     H34570  10.321   9.810   6.225  0.6378 -0.6599  0.6924
  262MOL0     H34571  10.540   9.728   6.146 -1.4445  3.3393  0.4140
  262MOL0     H34572  10.752   9.410   5.824 -0.3720 -0.6504 -2.3586
  262MOL0     H34573  10.965   9.341   5.743  0.9682 -0.0905  1.7866
  262MOL0     H34574  11.265   9.359   5.519 -1.4230  0.8214 -0.9086
  262MOL0     H34575  11.106   9.309   5.575  0.2789 -1.5302  1.5071
  262MOL0     H34576  11.342   9.366   5.749  0.1933  1.2121  1.1155
  262MOL0     H34577  11.193   9.279   5.796  0.3844 -2.3994  0.2418
  262MOL0     H34578  11.250   9.126   5.572 -1.8726  0.2113  0.4992
  262MOL0     H34579  11.299   9.091   5.742 -0.0875  2.3820  2.7156
  262MOL0     H34580  11.474   9.090   5.535  0.3764 -0.0161  0.5887
  262MOL0     H34581  11.469   9.258   5.553  1.4764  1.1440  2.7349
  262MOL0     H34582  11.703   9.178   5.886  1.1799  1.9982 -1.4885
  262MOL0     H34583  11.098   9.751   5.710 -0.3291 -0.6786  0.0754
  262MOL0     H34584  10.915   9.819   5.825  1.8697  0.3879  0.3024
  263MOL0     O34585  11.202   5.953   0.395 -0.1116  0.0112 -0.1233
  263MOL0     C34586  11.293   5.874   0.384 -0.0200 -0.2324 -0.0899
  263MOL0     O34587  11.276   5.745   0.343 -0.0050  0.2310  0.7791
  263MOL0     C34588  11.156   5.695   0.294 -0.4002  0.0251 -0.7422
  263MOL0     C34589  11.038   5.698   0.368  0.1204  0.0075  0.5979
  263MOL0     C34590  10.921   5.649   0.313  1.1917 -0.0859  0.2146
  263MOL0     C34591  10.916   5.601   0.186  0.2238 -0.7012  0.2247
  263MOL0     O34592  10.794   5.557   0.148  0.7782  0.4863 -0.3773
  263MOL0     C34593  10.783   5.478   0.029  0.2749 -0.0001 -0.0995
  263MOL0     C34594  10.654   5.400   0.036  0.3256 -0.4753 -0.4153
  263MOL0     C34595  10.620   5.351  -0.102  0.5733 -0.4315 -0.8791
  263MOL0     C34596  10.465   5.335  -0.142 -0.7172 -0.1792  0.2371
  263MOL0     C34597  10.383   5.249  -0.048  0.0344 -0.2591 -0.5364
  263MOL0     C34598  10.421   5.100  -0.043  0.5585 -0.3327 -0.9196
  263MOL0     C34599  10.355   5.034   0.077  0.5253  0.1330  0.2475
  263MOL0     C34600  10.206   4.986   0.049 -0.0836 -1.2941  0.1737
  263MOL0     N34601  10.161   4.915   0.168  0.5456 -0.0219  0.9632
  263MOL0     C34602  10.105   4.791   0.163 -0.0916  0.2183  0.2912
  263MOL0     C34603  10.079   4.769   0.302 -0.9743  0.2833  0.5548
  263MOL0     C34604  10.005   4.643   0.357  0.5888  0.6462 -0.1986
  263MOL0     C34605  10.000   4.530   0.265  0.8103  0.3211  0.3906
  263MOL0     C34606   9.933   4.404   0.322  0.2035 -0.1113 -0.2958
  263MOL0     C34607   9.784   4.430   0.344  0.1478  0.5713  0.4227
  263MOL0     O34608   9.712   4.308   0.369 -0.5607 -0.3714 -0.2188
  263MOL0     C34609   9.580   4.314   0.341  0.0025 -0.2091  0.0751
  263MOL0     C34610   9.502   4.431   0.344  0.6824 -0.0687  0.2441
  263MOL0     C34611   9.369   4.432   0.303 -0.5048  0.0941 -0.2617
  263MOL0     C34612   9.308   4.315   0.268 -0.4492 -0.1070 -0.4009
  263MOL0     C34613   9.175   4.320   0.234  0.5128  0.7564 -0.8534
  263MOL0     O34614   9.128   4.428   0.171 -0.2036  0.2126  0.3685
  263MOL0     C34615   8.992   4.430   0.141  0.0445 -0.1140  1.1645
  263MOL0     C34616   8.907   4.498   0.226  0.0238 -0.0897  0.3265
  263MOL0     C34617   8.769   4.497   0.202 -0.5502  0.1376  0.9101
  263MOL0     C34618   8.718   4.457   0.079  0.0202  0.1923  0.4650
  263MOL0     O34619   8.590   4.470   0.024 -1.1063 -0.0643  0.0188
  263MOL0     C34620   8.473   4.454   0.103  0.5028  0.6212  0.3148
  263MOL0     C34621   8.355   4.511   0.018 -0.3304 -0.2214  0.6279
  263MOL0     C34622   8.225   4.488   0.088  0.1282 -0.8552 -0.5396
  263MOL0     C34623   8.110   4.549  -0.002 -0.2155  0.1389  0.3565
  263MOL0     C34624   7.968   4.531   0.052  0.4453 -0.7910 -0.6343
  263MOL0     C34625   7.863   4.600  -0.041 -0.1160 -0.0009  0.7034
  263MOL0     C34626   7.721   4.574  -0.000 -0.5809  1.1817  0.1396
  263MOL0     C34627   7.661   4.695   0.082  0.8495  0.0942 -0.4885
  263MOL0    Cl34628   7.493   4.662   0.094  0.4676 -0.3686 -0.1094
  263MOL0     C34629   8.807   4.393  -0.019 -0.7380  0.0096 -0.2862
  263MOL0     C34630   8.941   4.383   0.014 -0.1739  0.0462 -0.7019
  263MOL0     O34631   9.113   4.219   0.262  0.5481 -0.3699  0.3171
  263MOL0     C34632   9.384   4.196   0.256 -0.5783 -0.3588 -0.7459
  263MOL0     C34633   9.521   4.195   0.302  0.0639  0.5923 -0.7240
  263MOL0     N34634  10.123   4.881   0.370 -0.7753  0.4772  0.6066
  263MOL0     N34635  10.166   4.971   0.291 -0.1726 -0.0870 -0.1368
  263MOL0     C34636  11.039   5.588   0.109  0.4279  0.5379 -0.0276
  263MOL0     C34637  11.164   5.626   0.172  0.2318  0.5865  0.1906
  263MOL0     C34638  11.435   5.918   0.396  0.2424  0.9026 -0.4748
  263MOL0     C34639  11.536   5.831   0.402  0.0535  0.0972 -0.1495
  263MOL0     C34640  11.669   5.876   0.421 -0.0404  0.0825 -0.2011
  263MOL0     C34641  11.696   6.006   0.443 -0.4645  0.1747  0.5388
  263MOL0     O34642  11.830   6.036   0.466  0.3091  0.3068  0.7469
  263MOL0     C34643  11.880   6.173   0.474 -0.2971  0.0495  0.7103
  263MOL0     C34644  11.868   6.220   0.613  0.0442  1.3462  0.0055
  263MOL0     C34645  11.922   6.361   0.633  0.2283  0.1508 -0.0334
  263MOL0     C34646  11.924   6.399   0.777  0.6770 -0.6563  0.2748
  263MOL0     C34647  11.792   6.411   0.840  0.3092  0.9374 -1.1702
  263MOL0     C34648  11.688   6.417   0.908 -0.6670  1.1847 -0.0687
  263MOL0     C34649  11.592   6.101   0.439 -0.1013 -0.7763  0.6498
  263MOL0     C34650  11.461   6.059   0.424  0.0284 -0.2374  0.4656
  263MOL0     H34651  11.041   5.742   0.467  2.4125  0.5785  0.3366
  263MOL0     H34652  10.821   5.663   0.353  0.7736  0.7396 -1.0221
  263MOL0     H34653  10.859   5.400   0.027 -0.4024 -0.8760  3.0575
  263MOL0     H34654  10.804   5.541  -0.058  0.2877  1.4530  0.9200
  263MOL0     H34655  10.574   5.465   0.074 -0.9533 -1.8175 -0.6884
  263MOL0     H34656  10.656   5.325   0.116  2.7834 -0.9213 -0.8315
  263MOL0     H34657  10.684   5.265  -0.122  2.8543  0.7475  0.8464
  263MOL0     H34658  10.644   5.430  -0.174 -1.6675  0.7891 -0.3664
  263MOL0     H34659  10.415   5.432  -0.148 -4.0767 -1.7608  0.1967
  263MOL0     H34660  10.457   5.290  -0.241  2.8094 -2.9600  1.0051
  263MOL0     H34661  10.276   5.268  -0.064 -0.0213  1.5131  1.5163
  263MOL0     H34662  10.397   5.280   0.056 -2.2910 -0.2005 -0.1922
  263MOL0     H34663  10.530   5.098  -0.033  0.4421 -1.4274  0.4672
  263MOL0     H34664  10.394   5.039  -0.129 -1.3082  0.1095 -0.7035
  263MOL0     H34665  10.407   4.938   0.089  0.1574 -0.6421 -3.1438
  263MOL0     H34666  10.357   5.105   0.160  2.2301  0.7498 -0.2768
  263MOL0     H34667  10.198   4.925  -0.042  0.9953 -0.4720 -0.4994
  263MOL0     H34668  10.146   5.074   0.027 -0.5273 -1.7834 -0.6353
  263MOL0     H34669  10.095   4.739   0.069 -2.4029  3.1973 -1.3232
  263MOL0     H34670   9.902   4.668   0.386  0.1049  0.4843 -1.6714
  263MOL0     H34671  10.047   4.613   0.453 -2.5376  0.9503  1.4232
  263MOL0     H34672  10.099   4.508   0.224  0.7728 -1.5298  1.1710
  263MOL0     H34673   9.939   4.562   0.180  0.1447  1.7666  1.3857
  263MOL0     H34674   9.956   4.319   0.257  1.3048  1.2391 -1.7446
  263MOL0     H34675   9.991   4.374   0.409 -1.4241 -2.4556  0.0947
  263MOL0     H34676   9.737   4.476   0.256 -1.6168 -0.2780  0.8897
  263MOL0     H34677   9.767   4.492   0.432 -1.2057 -0.0166  0.5888
  263MOL0     H34678   9.547   4.528   0.362 -0.9537  0.8745 -0.5795
  263MOL0     H34679   9.310   4.523   0.299  0.0133  0.4456 -0.0731
  263MOL0     H34680   8.938   4.530   0.324 -4.0197 -2.4402  2.6451
  263MOL0     H34681   8.705   4.545   0.275  0.7315  1.6558  1.1048
  263MOL0     H34682   8.482   4.505   0.198 -1.8074 -1.7122  1.9590
  263MOL0     H34683   8.448   4.351   0.132  1.8933 -0.3213 -1.6335
  263MOL0     H34684   8.352   4.457  -0.077  0.1294 -0.0177  0.4937
  263MOL0     H34685   8.366   4.618   0.000  0.6880 -0.1223  1.7544
  263MOL0     H34686   8.227   4.536   0.187  0.2869  1.4122 -1.5682
  263MOL0     H34687   8.222   4.379   0.093  1.5583 -1.0663 -2.8968
  263MOL0     H34688   8.120   4.658  -0.012 -1.6673  0.7980  4.2754
  263MOL0     H34689   8.132   4.519  -0.104 -1.0874 -0.5739  0.3646
  263MOL0     H34690   7.971   4.570   0.154 -0.7123 -2.9942  0.3053
  263MOL0     H34691   7.928   4.431   0.069 -0.1822 -0.1355  2.2917
  263MOL0     H34692   7.874   4.557  -0.141  2.2063  0.2373  0.8174
  263MOL0     H34693   7.875   4.708  -0.049 -2.9127  0.3057 -0.7564
  263MOL0     H34694   7.676   4.553  -0.097  2.8718  0.3029 -1.4559
  263MOL0     H34695   7.720   4.478   0.052 -0.4675 -1.2079 -3.8083
  263MOL0     H34696   7.678   4.791   0.033  0.3709 -0.3842 -1.6245
  263MOL0     H34697   7.699   4.698   0.185  0.1081 -1.4520 -0.1306
  263MOL0     H34698   8.772   4.363  -0.118  2.3401 -1.3517 -1.0692
  263MOL0     H34699   9.004   4.332  -0.059  2.0011  0.6874  0.6106
  263MOL0     H34700   9.345   4.097   0.232  1.1139 -1.6810  1.5349
  263MOL0     H34701   9.589   4.118   0.268 -2.5762 -1.0785 -2.6914
  263MOL0     H34702  11.052   5.543   0.011  0.1157 -0.3971  0.3454
  263MOL0     H34703  11.261   5.606   0.128 -0.1813  1.9840 -1.4653
  263MOL0     H34704  11.521   5.725   0.389  2.6317 -0.3935  0.2569
  263MOL0     H34705  11.747   5.801   0.435  0.7831  1.3539  2.8952
  263MOL0     H34706  11.816   6.230   0.406 -1.0176 -2.9583 -1.3356
  263MOL0     H34707  11.984   6.173   0.442 -0.4485  1.0375  0.1717
  263MOL0     H34708  11.762   6.223   0.641 -0.4534  1.1114 -1.7643
  263MOL0     H34709  11.929   6.157   0.678 -2.0804 -1.0617 -0.1657
  263MOL0     H34710  11.859   6.437   0.585  2.7985  2.9672  0.7523
  263MOL0     H34711  12.024   6.379   0.595 -0.0033 -2.2232 -1.9958
  263MOL0     H34712  11.986   6.325   0.830  2.1058 -1.3913 -2.2716
  263MOL0     H34713  11.984   6.489   0.796  0.4090  0.2153 -2.5782
  263MOL0     H34714  11.596   6.424   0.961 -1.0195 -0.3388 -0.4458
  263MOL0     H34715  11.612   6.205   0.463 -2.4510  0.1817 -1.1002
  263MOL0     H34716  11.382   6.134   0.426  0.5439  0.3392 -0.3910
  264MOL0     O34717   4.055  10.711   8.100  0.2311 -0.0681 -1.0529
  264MOL0     C34718   4.129  10.616   8.126  0.1105  0.7388  0.6807
  264MOL0     O34719   4.094  10.484   8.140 -0.1433 -0.3877 -0.3088
  264MOL0     C34720   3.969  10.437   8.167  0.0506 -0.5783  0.6394
  264MOL0     C34721   3.975  10.297   8.183  0.2703  0.7671 -0.2634
  264MOL0     C34722   3.853  10.228   8.186 -0.8138 -0.2784  0.1251
  264MOL0     C34723   3.733  10.292   8.190 -1.2084 -0.4454  0.4385
  264MOL0     O34724   3.620  10.216   8.229 -0.8570  0.0063 -0.8785
  264MOL0     C34725   3.517  10.227   8.138  0.1425 -0.8332 -0.0101
  264MOL0     C34726   3.455  10.092   8.112  0.4632  0.0150  0.5204
  264MOL0     C34727   3.321  10.103   8.052  0.0180  0.0426 -1.1417
  264MOL0     C34728   3.258   9.970   8.015  0.3320  0.3803 -0.6403
  264MOL0     C34729   3.139   9.994   7.926  0.5178 -0.2445  0.2848
  264MOL0     C34730   3.030   9.886   7.927 -0.4865  0.7166  0.2830
  264MOL0     C34731   3.066   9.775   7.833 -0.1760  0.0416  0.2235
  264MOL0     C34732   2.976   9.651   7.852 -0.3224 -0.6317  0.2533
  264MOL0     N34733   2.841   9.682   7.807  0.4877 -0.7303 -0.3658
  264MOL0     C34734   2.786   9.640   7.693  0.0269  0.8956  0.1318
  264MOL0     C34735   2.665   9.697   7.708 -0.1623  0.0334  0.2635
  264MOL0     C34736   2.551   9.693   7.615  0.8533 -0.2902 -0.7364
  264MOL0     C34737   2.468   9.573   7.645  0.0840  0.9410 -1.0461
  264MOL0     C34738   2.365   9.546   7.537 -0.5194  0.8279  0.1007
  264MOL0     C34739   2.279   9.413   7.558  0.8231 -0.2601 -0.0385
  264MOL0     O34740   2.151   9.454   7.626 -0.5686  0.6510 -0.2875
  264MOL0     C34741   2.050   9.513   7.549  0.5630  0.7758  0.4252
  264MOL0     C34742   1.929   9.552   7.614 -1.0196 -0.1251  0.1081
  264MOL0     C34743   1.823   9.606   7.546 -0.0934  0.9459 -0.5793
  264MOL0     C34744   1.827   9.625   7.405 -0.5126 -0.3861  0.0415
  264MOL0     C34745   1.711   9.677   7.329  0.1246 -1.0014 -0.1961
  264MOL0     O34746   1.704   9.639   7.193  0.3597  0.0484 -0.7840
  264MOL0     C34747   1.581   9.653   7.138  0.0336 -0.1258  0.3455
  264MOL0     C34748   1.588   9.681   7.001  0.1772  0.1733 -0.2636
  264MOL0     C34749   1.464   9.700   6.935 -0.2130  0.0152  0.8790
  264MOL0     C34750   1.343   9.671   7.005  0.9264  0.0981  0.1477
  264MOL0     O34751   1.217   9.691   6.953  0.8035  0.1765 -0.1832
  264MOL0     C34752   1.189   9.675   6.820 -0.2300  0.4875  1.0239
  264MOL0     C34753   1.047   9.714   6.788  0.4392 -0.8959  0.0154
  264MOL0     C34754   1.017   9.864   6.779  0.1310  0.0803 -0.5968
  264MOL0     C34755   0.869   9.881   6.758  0.1485 -0.1552 -0.5348
  264MOL0     C34756   0.824  10.004   6.823  0.0493 -0.0163 -0.1667
  264MOL0     C34757   0.875  10.134   6.753  0.1620  0.6495  0.1832
  264MOL0     C34758   0.827  10.268   6.819  0.3744  0.8878 -0.4070
  264MOL0     C34759   0.864  10.392   6.743 -1.7877  0.0001  0.1953
  264MOL0    Cl34760   0.760  10.537   6.783  0.1646 -0.5051  0.4211
  264MOL0     C34761   1.347   9.639   7.134 -0.0399  0.8926  0.7573
  264MOL0     C34762   1.465   9.627   7.208  0.2119 -0.0259 -0.1508
  264MOL0     O34763   1.630   9.741   7.394 -0.0713  0.0925  0.8513
  264MOL0     C34764   1.941   9.588   7.341 -0.5208  0.5657 -0.2899
  264MOL0     C34765   2.052   9.541   7.415  0.8989 -0.2158  0.4947
  264MOL0     N34766   2.642   9.766   7.818 -0.9141  0.5272  0.1316
  264MOL0     N34767   2.753   9.757   7.891  0.5387  0.2562  0.3783
  264MOL0     C34768   3.725  10.431   8.184  0.0231 -1.2456 -0.6256
  264MOL0     C34769   3.841  10.502   8.175  0.7659  0.3577  0.1193
  264MOL0     C34770   4.271  10.645   8.141 -0.5774 -0.3376 -0.1889
  264MOL0     C34771   4.326  10.768   8.088  0.1482 -0.0483 -0.5916
  264MOL0     C34772   4.463  10.785   8.119 -0.8709 -0.2977 -0.1404
  264MOL0     C34773   4.540  10.703   8.199 -0.7035 -1.3734  0.0343
  264MOL0     O34774   4.674  10.722   8.226  0.7899 -0.0835  0.1355
  264MOL0     C34775   4.700  10.846   8.289 -0.1325  0.4896 -0.8669
  264MOL0     C34776   4.841  10.872   8.272 -0.1316 -0.1006 -0.3612
  264MOL0     C34777   4.895  11.015   8.311  1.0315 -0.3321  0.3743
  264MOL0     C34778   5.042  11.030   8.278  0.0428 -1.0334  0.5774
  264MOL0     C34779   5.127  10.920   8.337  0.8146  0.3970 -1.2479
  264MOL0     C34780   5.195  10.839   8.388  0.0080  0.5534  0.3483
  264MOL0     C34781   4.492  10.588   8.246  0.7388 -0.0105 -0.3411
  264MOL0     C34782   4.357  10.557   8.214  0.3108  0.1466 -0.0542
  264MOL0     H34783   4.071  10.247   8.191 -0.3739 -0.3614  0.8016
  264MOL0     H34784   3.857  10.120   8.203  0.6802 -0.0832  1.2916
  264MOL0     H34785   3.548  10.281   8.047 -2.2817  1.6663  0.4824
  264MOL0     H34786   3.444  10.291   8.188 -1.2232 -1.5769 -0.9964
  264MOL0     H34787   3.448  10.022   8.196 -0.8387 -0.1589  0.2987
  264MOL0     H34788   3.518  10.036   8.042 -0.5008  0.1951 -0.5272
  264MOL0     H34789   3.318  10.176   7.971 -0.5963  1.6416  0.2491
  264MOL0     H34790   3.261  10.149   8.132  0.0694  1.0310 -1.6544
  264MOL0     H34791   3.334   9.908   7.968 -0.2833  0.2688 -1.5104
  264MOL0     H34792   3.216   9.933   8.109 -0.8307  0.9927 -0.8856
  264MOL0     H34793   3.173  10.023   7.826  0.5305  1.0284  0.6413
  264MOL0     H34794   3.088  10.084   7.962  0.5616  0.1065 -0.5033
  264MOL0     H34795   2.933   9.930   7.903 -1.8465 -2.2346 -0.0280
  264MOL0     H34796   3.017   9.845   8.027 -3.6120  0.9574  0.0746
  264MOL0     H34797   3.056   9.815   7.731  1.4522  1.3063  0.5090
  264MOL0     H34798   3.171   9.754   7.856 -0.2205 -0.9905 -0.4896
  264MOL0     H34799   2.967   9.638   7.960  0.6251 -1.0639  0.2923
  264MOL0     H34800   3.014   9.558   7.810  1.3189  0.6934 -1.3444
  264MOL0     H34801   2.827   9.585   7.609 -1.8912 -1.2274  0.4843
  264MOL0     H34802   2.584   9.685   7.511  2.2118 -1.8200 -0.2239
  264MOL0     H34803   2.501   9.790   7.630  1.5917  0.1210 -0.9028
  264MOL0     H34804   2.414   9.583   7.740  0.3763 -2.1122 -0.4585
  264MOL0     H34805   2.535   9.486   7.646 -0.3060  0.6006  0.8121
  264MOL0     H34806   2.307   9.636   7.514 -0.0562  0.9205 -0.7400
  264MOL0     H34807   2.431   9.510   7.458  1.5060 -0.4105  2.2589
  264MOL0     H34808   2.334   9.328   7.600  1.5180 -0.3425 -1.0814
  264MOL0     H34809   2.256   9.369   7.461  2.0352 -1.2804  0.1166
  264MOL0     H34810   1.931   9.542   7.722  4.5584 -2.0877  0.1592
  264MOL0     H34811   1.732   9.634   7.598  0.3603 -1.7693  1.9307
  264MOL0     H34812   1.681   9.690   6.945  0.7226 -1.6720  0.2735
  264MOL0     H34813   1.458   9.734   6.832  1.2494 -0.1889  0.7062
  264MOL0     H34814   1.197   9.568   6.798 -2.2993 -0.1932  3.0889
  264MOL0     H34815   1.255   9.728   6.751 -0.7494  0.6498  0.6385
  264MOL0     H34816   0.985   9.676   6.870 -0.5610  0.1974 -0.2126
  264MOL0     H34817   1.016   9.676   6.690  1.5373 -0.4568 -0.5279
  264MOL0     H34818   1.066   9.897   6.686 -0.6274 -1.6096 -1.6576
  264MOL0     H34819   1.060   9.921   6.861 -2.0976  0.4594  0.3655
  264MOL0     H34820   0.838   9.852   6.657 -1.9352 -0.9591  0.2745
  264MOL0     H34821   0.827   9.808   6.829 -1.8234  2.3318  1.0238
  264MOL0     H34822   0.859  10.003   6.926  1.6067 -2.2245 -0.6601
  264MOL0     H34823   0.716  10.011   6.837  0.2997  1.6497  1.3082
  264MOL0     H34824   0.839  10.141   6.650 -0.1798 -1.7926  0.1009
  264MOL0     H34825   0.983  10.120   6.749  0.3010  1.4443  0.8271
  264MOL0     H34826   0.718  10.275   6.827  0.3701 -0.6885  2.3649
  264MOL0     H34827   0.861  10.243   6.920 -0.3479 -0.7729 -0.5311
  264MOL0     H34828   0.856  10.362   6.638 -2.0664 -1.4272  0.6032
  264MOL0     H34829   0.968  10.421   6.762 -2.4187  1.5792  1.4945
  264MOL0     H34830   1.261   9.607   7.193 -0.5945  1.4221  0.2483
  264MOL0     H34831   1.443   9.598   7.310 -1.9895  2.5097  0.2067
  264MOL0     H34832   1.939   9.598   7.233 -2.6759 -0.7849 -0.4454
  264MOL0     H34833   2.142   9.527   7.357  0.8395 -1.2236  0.6327
  264MOL0     H34834   3.634  10.490   8.194  1.8860  1.5234  1.6398
  264MOL0     H34835   3.836  10.611   8.171 -3.4897  0.3052 -1.0499
  264MOL0     H34836   4.262  10.826   8.022  2.1002 -1.4678 -3.9955
  264MOL0     H34837   4.505  10.878   8.081  0.0996 -0.6828 -0.0402
  264MOL0     H34838   4.669  10.830   8.393 -2.4145 -0.2234 -1.5999
  264MOL0     H34839   4.637  10.930   8.258  1.0241  1.8591  0.3564
  264MOL0     H34840   4.899  10.791   8.319  0.9888 -0.5912 -2.4421
  264MOL0     H34841   4.860  10.847   8.167  0.6775 -2.0556  0.2075
  264MOL0     H34842   4.861  11.033   8.414  1.6606  0.8173  0.4001
  264MOL0     H34843   4.835  11.080   8.247  1.4685 -0.0390  0.2567
  264MOL0     H34844   5.041  11.029   8.169 -0.9653  0.7976  0.5237
  264MOL0     H34845   5.080  11.130   8.300 -2.1352 -0.5052  2.3752
  264MOL0     H34846   5.277  10.780   8.423  1.0567  2.2729  0.8770
  264MOL0     H34847   4.564  10.518   8.288  2.5286  1.9978  0.1407
  264MOL0     H34848   4.327  10.456   8.242 -0.3722  0.4499  0.3344
  265MOL0     O34849   8.472   5.402   2.509  0.3524 -0.4258  0.0988
  265MOL0     C34850   8.544   5.354   2.419 -0.7752  0.5599  0.4562
  265MOL0     O34851   8.503   5.298   2.303  0.4148 -0.2314 -0.2261
  265MOL0     C34852   8.372   5.313   2.269  0.1737 -0.5076 -0.3142
  265MOL0     C34853   8.264   5.277   2.353 -0.2390  0.4166  0.2591
  265MOL0     C34854   8.137   5.311   2.324  0.6862  0.0498 -0.6565
  265MOL0     C34855   8.102   5.384   2.212 -0.8787  0.3587 -0.4592
  265MOL0     O34856   7.975   5.413   2.171 -1.1798  0.2654  0.2471
  265MOL0     C34857   7.881   5.430   2.284 -0.9429 -0.3386  1.2636
  265MOL0     C34858   7.751   5.471   2.220  0.1661  0.5361 -0.9614
  265MOL0     C34859   7.667   5.367   2.147  0.1824 -0.9572  0.6408
  265MOL0     C34860   7.725   5.329   1.997 -0.4093  0.0689 -1.6028
  265MOL0     C34861   7.644   5.217   1.926  1.0362  0.9679  0.3613
  265MOL0     C34862   7.699   5.200   1.780  1.1276  0.4854  0.0656
  265MOL0     C34863   7.645   5.090   1.689  0.0404 -0.1827  0.4106
  265MOL0     C34864   7.557   5.144   1.570  0.1505 -0.3288  0.0888
  265MOL0     N34865   7.426   5.172   1.614 -0.2390  0.4357 -0.5193
  265MOL0     C34866   7.341   5.073   1.649  0.4851 -0.3239  0.4866
  265MOL0     C34867   7.228   5.148   1.683 -0.1141  1.1598  0.4483
  265MOL0     C34868   7.105   5.075   1.725  0.2843  1.3771 -0.9904
  265MOL0     C34869   6.990   5.180   1.715 -0.2529  1.1133 -0.2463
  265MOL0     C34870   6.850   5.134   1.755  0.4563  0.3658  0.8705
  265MOL0     C34871   6.753   5.250   1.737  0.2738  0.3212  0.0593
  265MOL0     O34872   6.747   5.325   1.613 -0.1223 -0.2431 -0.0005
  265MOL0     C34873   6.656   5.427   1.591  0.5878 -0.1038  0.1974
  265MOL0     C34874   6.581   5.490   1.686  0.0288 -0.3941 -0.7385
  265MOL0     C34875   6.479   5.583   1.650 -0.2133 -0.5502 -0.2317
  265MOL0     C34876   6.475   5.630   1.518  0.1533  0.1581  0.0341
  265MOL0     C34877   6.393   5.747   1.484 -0.5292  0.3396  0.2860
  265MOL0     O34878   6.370   5.845   1.573  0.2093  0.1208 -0.1539
  265MOL0     C34879   6.271   5.933   1.538 -0.4683 -0.4648 -0.6887
  265MOL0     C34880   6.145   5.908   1.485 -0.0873  0.1838 -0.0378
  265MOL0     C34881   6.057   6.011   1.467  0.4323 -1.4671 -0.0602
  265MOL0     C34882   6.078   6.145   1.523  0.0705  0.6592 -0.2011
  265MOL0     O34883   5.997   6.251   1.541  0.1388  0.0669  0.9812
  265MOL0     C34884   5.861   6.222   1.533 -0.1540  0.3435  0.4610
  265MOL0     C34885   5.803   6.340   1.614 -0.8639  0.3357 -1.0145
  265MOL0     C34886   5.650   6.341   1.601 -0.0840  0.2633  0.6612
  265MOL0     C34887   5.572   6.259   1.711  0.8718 -0.9212  0.6275
  265MOL0     C34888   5.424   6.286   1.714 -0.0235 -0.0994 -1.1234
  265MOL0     C34889   5.363   6.209   1.836  0.5824 -0.5534 -0.0764
  265MOL0     C34890   5.221   6.259   1.864 -1.0647 -0.4125 -0.6633
  265MOL0     C34891   5.190   6.293   2.019  0.2071  0.7445  0.0002
  265MOL0    Cl34892   5.267   6.176   2.121 -0.1200  0.0271  0.4124
  265MOL0     C34893   6.211   6.167   1.564 -0.2869  0.1709 -0.0979
  265MOL0     C34894   6.310   6.063   1.574 -0.1855  0.7093 -0.4391
  265MOL0     O34895   6.359   5.747   1.369 -0.0223 -0.4223  0.8002
  265MOL0     C34896   6.559   5.571   1.419  0.4222 -0.1210 -0.7723
  265MOL0     C34897   6.644   5.470   1.454  0.7319 -0.2621 -0.1029
  265MOL0     N34898   7.256   5.283   1.684 -0.2805  0.2573  0.0349
  265MOL0     N34899   7.372   5.300   1.633 -0.0946  1.0721 -0.2170
  265MOL0     C34900   8.204   5.427   2.131 -0.7128  0.0419 -1.0555
  265MOL0     C34901   8.332   5.393   2.161  0.4324 -0.4267  0.4009
  265MOL0     C34902   8.689   5.359   2.437 -0.3886  0.3106  0.5275
  265MOL0     C34903   8.782   5.258   2.396  0.7113 -0.2465  0.1858
  265MOL0     C34904   8.919   5.265   2.437 -0.6877  0.0310  0.1359
  265MOL0     C34905   8.968   5.365   2.518  0.1056  0.2306 -0.4226
  265MOL0     O34906   9.096   5.384   2.562 -0.0311 -0.6821 -0.2046
  265MOL0     C34907   9.207   5.329   2.492  1.5557  0.1211 -0.0272
  265MOL0     C34908   9.239   5.375   2.349 -0.0877 -0.0124 -0.5256
  265MOL0     C34909   9.243   5.527   2.327 -0.0212  0.0165  0.4406
  265MOL0     C34910   9.221   5.559   2.181 -0.1795  0.4583  0.3246
  265MOL0     C34911   9.337   5.532   2.099  0.8761 -0.2865 -0.3220
  265MOL0     C34912   9.430   5.507   2.017  1.7168 -0.0703  0.5224
  265MOL0     C34913   8.877   5.463   2.559  0.3567  0.4659  0.1752
  265MOL0     C34914   8.738   5.449   2.528  0.7631 -0.1985  0.0743
  265MOL0     H34915   8.280   5.199   2.428 -2.2304 -1.5084 -1.1727
  265MOL0     H34916   8.076   5.266   2.401  2.8325  1.6139  2.1158
  265MOL0     H34917   7.927   5.494   2.360  2.2568  0.8877 -1.4410
  265MOL0     H34918   7.857   5.331   2.325 -1.9193 -0.4145  0.5233
  265MOL0     H34919   7.768   5.564   2.166  3.4781  2.0820  2.2554
  265MOL0     H34920   7.693   5.499   2.309  0.3707  0.4047 -0.7840
  265MOL0     H34921   7.565   5.406   2.147  0.4783  0.0805 -2.4318
  265MOL0     H34922   7.654   5.267   2.192  0.6416 -1.2515  0.1293
  265MOL0     H34923   7.729   5.417   1.933 -0.8970  1.7477  0.5311
  265MOL0     H34924   7.828   5.293   2.006 -0.8499 -1.4974 -2.3892
  265MOL0     H34925   7.541   5.251   1.932  0.7887 -0.0320  3.8384
  265MOL0     H34926   7.667   5.125   1.980  1.7399  0.3390 -0.9744
  265MOL0     H34927   7.802   5.169   1.797  0.2317 -2.2288  1.0972
  265MOL0     H34928   7.707   5.297   1.730 -1.0085 -0.0518 -1.5017
  265MOL0     H34929   7.729   5.046   1.635 -1.8230 -1.8557 -1.3399
  265MOL0     H34930   7.608   5.005   1.747  1.5663  0.3107  2.1853
  265MOL0     H34931   7.554   5.070   1.490  0.9284  0.1574 -0.4034
  265MOL0     H34932   7.604   5.234   1.529 -1.4226 -0.7135 -2.8491
  265MOL0     H34933   7.354   4.966   1.641  3.5618  0.0756 -1.2331
  265MOL0     H34934   7.115   5.048   1.831 -0.2536  0.4549 -1.1697
  265MOL0     H34935   7.094   4.983   1.668  1.1471  0.4966  0.2030
  265MOL0     H34936   6.998   5.225   1.616  1.2694  3.3492  0.8068
  265MOL0     H34937   7.018   5.258   1.787  0.8820 -0.1982  0.7934
  265MOL0     H34938   6.829   5.055   1.682  3.3562 -0.3638  0.7219
  265MOL0     H34939   6.852   5.093   1.856 -2.7086 -4.6785 -0.7194
  265MOL0     H34940   6.766   5.327   1.813 -5.7496  2.1845 -0.2764
  265MOL0     H34941   6.655   5.202   1.746  1.2418 -2.7009 -2.9202
  265MOL0     H34942   6.586   5.459   1.790  0.3185  2.8557  0.3537
  265MOL0     H34943   6.412   5.632   1.720 -0.0548  0.4541 -0.7689
  265MOL0     H34944   6.098   5.812   1.464  0.8648 -0.0667 -1.1227
  265MOL0     H34945   5.955   5.982   1.445  0.4621 -2.1229  0.6181
  265MOL0     H34946   5.827   6.127   1.576  2.9037 -0.2259  1.9404
  265MOL0     H34947   5.833   6.231   1.428 -4.2932 -0.8545  1.2855
  265MOL0     H34948   5.822   6.444   1.584 -2.7087  1.7880  2.2018
  265MOL0     H34949   5.835   6.349   1.719  0.7832  0.6744 -1.5136
  265MOL0     H34950   5.622   6.302   1.503  1.3520 -2.3201  1.1861
  265MOL0     H34951   5.629   6.448   1.610  1.8226  0.5651  2.3619
  265MOL0     H34952   5.596   6.153   1.695 -3.2081 -1.7858 -1.1341
  265MOL0     H34953   5.612   6.284   1.810 -2.1995 -0.8229  1.9786
  265MOL0     H34954   5.379   6.252   1.621  1.5868 -1.8979 -1.3122
  265MOL0     H34955   5.418   6.394   1.734 -0.9553 -0.9058  4.8744
  265MOL0     H34956   5.425   6.228   1.924  1.0786  0.3838 -0.6099
  265MOL0     H34957   5.360   6.100   1.827  0.9070 -0.5663 -0.0647
  265MOL0     H34958   5.208   6.354   1.812  0.6349  0.7951  0.9556
  265MOL0     H34959   5.164   6.172   1.828  2.2282 -2.3744 -1.5556
  265MOL0     H34960   5.082   6.297   2.038  0.0263  0.9304 -1.0252
  265MOL0     H34961   5.224   6.393   2.048  1.4808  0.8180 -1.6278
  265MOL0     H34962   6.228   6.268   1.600 -0.1184 -0.2116  0.9325
  265MOL0     H34963   6.415   6.078   1.597 -0.3462  1.3020 -0.0617
  265MOL0     H34964   6.561   5.607   1.317  3.2922  1.3535 -0.3025
  265MOL0     H34965   6.709   5.430   1.377  2.3186  0.1088  1.0084
  265MOL0     H34966   8.182   5.489   2.045 -1.1364 -0.4034 -1.2734
  265MOL0     H34967   8.400   5.438   2.090 -1.3207 -0.7918 -1.6152
  265MOL0     H34968   8.744   5.171   2.343 -1.2185  0.5630  0.1775
  265MOL0     H34969   8.985   5.184   2.407 -0.7091 -0.0356  0.2660
  265MOL0     H34970   9.190   5.221   2.500  2.4150 -0.0566 -0.5062
  265MOL0     H34971   9.300   5.352   2.545  2.4662  0.2723 -1.6237
  265MOL0     H34972   9.340   5.335   2.334 -0.3099 -1.8569  2.2890
  265MOL0     H34973   9.172   5.329   2.275 -2.1320  0.8928  0.6842
  265MOL0     H34974   9.330   5.580   2.368 -1.5797  2.0380  1.3176
  265MOL0     H34975   9.153   5.566   2.375 -2.6944 -2.7286 -1.9283
  265MOL0     H34976   9.143   5.493   2.140 -0.1043  1.4136 -1.4341
  265MOL0     H34977   9.187   5.662   2.170 -1.4445 -0.0031 -0.4418
  265MOL0     H34978   9.505   5.485   1.943  0.4088  0.8583 -1.1485
  265MOL0     H34979   8.915   5.542   2.623 -0.8274  2.7011 -1.7034
  265MOL0     H34980   8.679   5.515   2.591  1.7968 -0.2040  1.0849
  266MOL0     O34981   8.347   0.855   5.261  0.3218 -0.0695  0.6892
  266MOL0     C34982   8.315   0.968   5.235  0.8550  0.2406  0.3399
  266MOL0     O34983   8.401   1.085   5.248 -0.2051 -0.2536 -0.3868
  266MOL0     C34984   8.529   1.055   5.291  0.6962  0.4920 -0.3516
  266MOL0     C34985   8.561   1.035   5.424 -0.6120  0.8462 -0.2367
  266MOL0     C34986   8.688   0.989   5.458  0.3386 -0.2413  0.1845
  266MOL0     C34987   8.794   0.977   5.362  0.0497  0.0985 -0.6800
  266MOL0     O34988   8.926   0.947   5.391  0.1732  0.2780 -0.2015
  266MOL0     C34989   8.960   0.887   5.522  1.8468 -0.0041 -0.1269
  266MOL0     C34990   9.105   0.852   5.519 -0.2874 -0.4274  0.0057
  266MOL0     C34991   9.166   0.759   5.629  0.1296  0.0514  0.9362
  266MOL0     C34992   9.317   0.748   5.609 -0.3902  0.3396  0.5036
  266MOL0     C34993   9.380   0.663   5.723 -0.3658  0.0752 -0.1581
  266MOL0     C34994   9.527   0.638   5.705 -0.3944 -0.2040  0.1340
  266MOL0     C34995   9.579   0.526   5.801 -0.0423 -0.2630 -0.3246
  266MOL0     C34996   9.728   0.472   5.796  0.2292  0.2502  0.4001
  266MOL0     N34997   9.743   0.359   5.885  0.9825  0.3623  0.3746
  266MOL0     C34998   9.845   0.355   5.979  0.2867  0.3488 -0.1253
  266MOL0     C34999   9.820   0.235   6.040  0.1847 -0.1752  1.2296
  266MOL0     C35000   9.905   0.183   6.140 -0.8396 -0.2601  0.2317
  266MOL0     C35001   9.969   0.048   6.106  0.1738  0.7453 -0.2431
  266MOL0     C35002  10.051   0.055   5.978  0.2335 -0.1726 -0.0925
  266MOL0     C35003  10.153  -0.060   5.953  0.1401  1.2057 -0.5041
  266MOL0     O35004  10.259  -0.067   6.055  0.5896 -0.3199 -0.3586
  266MOL0     C35005  10.367  -0.146   6.030 -0.0008  0.0317 -0.3903
  266MOL0     C35006  10.481  -0.138   6.130  0.2522  1.4198  0.2136
  266MOL0     C35007  10.596  -0.210   6.097 -0.3287 -0.3311  0.5985
  266MOL0     C35008  10.605  -0.290   5.983 -0.0792  0.3347 -0.0135
  266MOL0     C35009  10.734  -0.352   5.940 -0.0119 -0.1494 -1.0804
  266MOL0     O35010  10.845  -0.286   5.992  0.6500 -0.7843 -0.3528
  266MOL0     C35011  10.974  -0.321   5.941  0.8664 -0.1195 -0.6492
  266MOL0     C35012  11.011  -0.344   5.806  0.1371 -0.2588 -0.7172
  266MOL0     C35013  11.145  -0.347   5.776  0.7816  0.1713 -0.1938
  266MOL0     C35014  11.247  -0.335   5.870  0.3169  0.1374 -0.0662
  266MOL0     O35015  11.374  -0.345   5.826  0.8577 -0.0067  0.6563
  266MOL0     C35016  11.424  -0.223   5.792 -0.9379 -0.2081  0.3556
  266MOL0     C35017  11.445  -0.212   5.645  1.0016  0.0702 -0.3046
  266MOL0     C35018  11.458  -0.344   5.565 -0.4637 -0.6053  0.1556
  266MOL0     C35019  11.612  -0.382   5.578 -0.3175  0.2979  0.3514
  266MOL0     C35020  11.624  -0.516   5.503 -0.2514 -0.6908 -0.1339
  266MOL0     C35021  11.758  -0.582   5.527  0.1333 -0.3696 -0.4197
  266MOL0     C35022  11.782  -0.705   5.438 -0.6884  0.2437 -0.4041
  266MOL0     C35023  11.867  -0.800   5.527 -0.4483  0.0449  0.4648
  266MOL0    Cl35024  11.772  -0.867   5.670  0.1842 -0.3221 -0.2482
  266MOL0     C35025  11.212  -0.325   6.005 -1.2204 -0.1847  0.2303
  266MOL0     C35026  11.072  -0.316   6.044 -0.9482  0.6373 -0.3740
  266MOL0     O35027  10.733  -0.439   5.862  0.5476  0.0067 -0.6544
  266MOL0     C35028  10.491  -0.304   5.902 -0.4062  0.3698 -0.8300
  266MOL0     C35029  10.375  -0.228   5.915 -0.5760 -0.8521  0.1742
  266MOL0     N35030   9.710   0.173   5.984 -0.4239  0.0831  0.3247
  266MOL0     N35031   9.661   0.246   5.887 -0.1843 -0.3479 -0.0718
  266MOL0     C35032   8.767   1.027   5.239  1.2092  0.1502  0.0765
  266MOL0     C35033   8.634   1.047   5.193 -0.7619 -1.0020 -0.2625
  266MOL0     C35034   8.176   0.983   5.193  1.0342 -0.6841  0.1391
  266MOL0     C35035   8.117   1.113   5.177 -0.7225 -0.3028  0.6533
  266MOL0     C35036   7.980   1.137   5.133  0.7344  0.9031 -1.0358
  266MOL0     C35037   7.904   1.018   5.101  0.4121  0.5913 -0.3808
  266MOL0     O35038   7.777   1.029   5.045 -0.4517 -0.0965 -0.6486
  266MOL0     C35039   7.677   1.109   5.112  0.0463 -0.3879  0.0287
  266MOL0     C35040   7.563   1.028   5.179 -0.3078 -0.4265  0.7381
  266MOL0     C35041   7.456   0.998   5.070 -0.3753 -0.0418 -0.1023
  266MOL0     C35042   7.331   0.926   5.130 -0.2326 -0.6985  0.9307
  266MOL0     C35043   7.213   0.918   5.042  0.3018 -0.1779  0.6365
  266MOL0     C35044   7.105   0.917   4.975 -0.1021  0.1962  0.0532
  266MOL0     C35045   7.957   0.890   5.128  0.6821  1.0784 -0.1033
  266MOL0     C35046   8.086   0.871   5.177  0.0676  0.4921 -0.5550
  266MOL0     H35047   8.485   1.034   5.502 -1.5371  1.4053 -1.1065
  266MOL0     H35048   8.710   0.967   5.562 -1.1687 -1.1638  0.3392
  266MOL0     H35049   8.900   0.798   5.541  0.2651  0.7379 -1.3805
  266MOL0     H35050   8.948   0.964   5.598 -1.7054  0.6122 -1.1004
  266MOL0     H35051   9.162   0.945   5.516  3.6229 -2.6055 -1.0578
  266MOL0     H35052   9.114   0.805   5.421 -1.1196 -0.3400 -0.1203
  266MOL0     H35053   9.112   0.665   5.624  0.2727 -0.0047  0.3492
  266MOL0     H35054   9.155   0.806   5.727  3.5725  2.2235  0.4622
  266MOL0     H35055   9.339   0.704   5.512  0.9378  0.9276  0.5184
  266MOL0     H35056   9.349   0.852   5.611  0.8698  0.0044 -0.7902
  266MOL0     H35057   9.329   0.567   5.732 -1.6007  0.5201 -1.8686
  266MOL0     H35058   9.362   0.716   5.816  0.8523 -2.0412  1.3686
  266MOL0     H35059   9.583   0.732   5.709  1.8630 -1.1427 -3.9122
  266MOL0     H35060   9.540   0.602   5.602  1.5011 -1.0020  0.6092
  266MOL0     H35061   9.551   0.550   5.904 -1.5841  1.9049 -1.1880
  266MOL0     H35062   9.511   0.444   5.777 -0.5916 -0.5868  2.0893
  266MOL0     H35063   9.792   0.558   5.821 -0.7222  1.0360  0.2142
  266MOL0     H35064   9.760   0.451   5.693  0.2253  2.8499 -0.2107
  266MOL0     H35065   9.919   0.434   5.983  0.3825  0.3737 -1.5616
  266MOL0     H35066   9.852   0.184   6.236 -2.2122 -0.0189 -0.5101
  266MOL0     H35067   9.980   0.258   6.168 -2.2384  2.1005 -1.9242
  266MOL0     H35068   9.894  -0.031   6.102  3.3323 -2.5386 -0.0623
  266MOL0     H35069  10.044   0.042   6.186 -0.2944  1.1352  0.2334
  266MOL0     H35070   9.992   0.075   5.888 -0.8022  3.1784  1.1785
  266MOL0     H35071  10.114   0.145   5.982  0.6418 -0.5100  1.9708
  266MOL0     H35072  10.202  -0.046   5.856 -0.8961  4.0436 -0.7299
  266MOL0     H35073  10.102  -0.157   5.953 -2.0803  2.2452  1.8221
  266MOL0     H35074  10.478  -0.067   6.212 -0.0034  1.7310 -0.0600
  266MOL0     H35075  10.672  -0.197   6.173 -1.0013  2.9577  0.8379
  266MOL0     H35076  10.932  -0.339   5.732 -0.9889  0.0611  0.4737
  266MOL0     H35077  11.186  -0.364   5.677 -0.1104  0.5847 -0.6334
  266MOL0     H35078  11.527  -0.215   5.827 -1.3398 -1.2620  1.8624
  266MOL0     H35079  11.377  -0.133   5.833 -1.0402  0.3740 -0.9715
  266MOL0     H35080  11.522  -0.136   5.630  1.6043  0.3048  3.1515
  266MOL0     H35081  11.352  -0.170   5.606 -0.9408 -0.4270  3.3573
  266MOL0     H35082  11.428  -0.327   5.461 -0.0789  2.0835  0.4034
  266MOL0     H35083  11.393  -0.424   5.601 -1.7728  0.9085  1.3796
  266MOL0     H35084  11.673  -0.302   5.534 -1.4041  0.0356 -1.7376
  266MOL0     H35085  11.644  -0.391   5.682 -0.9887  0.4257  0.5727
  266MOL0     H35086  11.599  -0.501   5.397  0.6620 -2.1819 -0.5861
  266MOL0     H35087  11.561  -0.589   5.555  1.2451 -0.5241  2.0213
  266MOL0     H35088  11.760  -0.609   5.633 -2.2020 -1.1963 -0.5157
  266MOL0     H35089  11.836  -0.512   5.494  0.0940 -0.0009  0.2323
  266MOL0     H35090  11.694  -0.765   5.412  1.2625 -2.2327 -1.7600
  266MOL0     H35091  11.839  -0.678   5.349  0.8267 -2.4741 -0.3513
  266MOL0     H35092  11.958  -0.749   5.561  0.7886 -1.0942 -0.9410
  266MOL0     H35093  11.893  -0.883   5.460  0.3500 -0.2618  1.1446
  266MOL0     H35094  11.292  -0.336   6.078 -0.1803 -0.4077 -0.9259
  266MOL0     H35095  11.024  -0.297   6.140 -0.7409 -1.9905  0.3369
  266MOL0     H35096  10.488  -0.369   5.816  1.5408  0.5846 -1.0921
  266MOL0     H35097  10.299  -0.241   5.838 -0.2020  3.1535 -1.0808
  266MOL0     H35098   8.856   1.024   5.176  2.1340 -0.7118  1.3669
  266MOL0     H35099   8.606   1.061   5.089  0.7803  0.1117 -0.5643
  266MOL0     H35100   8.179   1.199   5.200 -0.7769 -0.2681  0.6707
  266MOL0     H35101   7.947   1.238   5.110 -1.4007  0.4398 -0.2683
  266MOL0     H35102   7.646   1.176   5.032  1.9072 -0.6886 -1.0071
  266MOL0     H35103   7.735   1.174   5.178  0.1358 -1.0547  0.6296
  266MOL0     H35104   7.601   0.935   5.220 -1.1471 -1.4128 -0.6469
  266MOL0     H35105   7.501   1.087   5.248 -1.8585  0.4610 -1.3109
  266MOL0     H35106   7.508   0.930   5.002  2.1064  3.0938 -1.6294
  266MOL0     H35107   7.423   1.085   5.011  2.2444  2.8500  2.3452
  266MOL0     H35108   7.360   0.822   5.152 -0.1411 -0.6853  0.8725
  266MOL0     H35109   7.301   0.960   5.230  0.9497 -2.0949  1.8161
  266MOL0     H35110   7.018   0.916   4.912 -0.0339 -1.0230 -0.0469
  266MOL0     H35111   7.886   0.809   5.108  2.3369 -0.3401 -0.5136
  266MOL0     H35112   8.098   0.765   5.199 -4.3200 -0.6671 -2.5695
  267MOL0     O35113   9.748   7.323   9.795 -0.6449 -0.4100 -0.2008
  267MOL0     C35114   9.704   7.212   9.762 -0.0397  0.2186  0.0510
  267MOL0     O35115   9.573   7.179   9.736  0.4576 -0.5577  0.0742
  267MOL0     C35116   9.476   7.266   9.777  1.3012  0.2834  0.6084
  267MOL0     C35117   9.448   7.302   9.915 -0.1565 -0.7736  1.2294
  267MOL0     C35118   9.334   7.378   9.930 -0.6580 -0.4852  0.3868
  267MOL0     C35119   9.239   7.405   9.833  0.1234  0.7604  0.2081
  267MOL0     O35120   9.124   7.457   9.877 -0.0447  0.3845  0.8391
  267MOL0     C35121   9.003   7.416   9.802 -0.3772  0.3885  0.1936
  267MOL0     C35122   8.892   7.465   9.892 -0.3989 -0.5230  1.2028
  267MOL0     C35123   8.773   7.371   9.876  0.2801 -0.2696 -0.7787
  267MOL0     C35124   8.639   7.427   9.922  0.5199 -0.1202  0.1649
  267MOL0     C35125   8.504   7.350   9.902  0.1938 -0.3063 -0.8182
  267MOL0     C35126   8.378   7.437   9.934  1.0734  0.3616 -0.4659
  267MOL0     C35127   8.339   7.441  10.078  0.1420  0.3301  0.6603
  267MOL0     C35128   8.217   7.529  10.108 -0.3674  0.1995  1.2828
  267MOL0     N35129   8.093   7.474  10.051  0.0097 -0.3956 -0.6220
  267MOL0     C35130   7.979   7.548  10.029  0.0425 -0.9163 -0.8022
  267MOL0     C35131   7.880   7.460  10.008  0.3729  0.4557 -1.4053
  267MOL0     C35132   7.732   7.510  10.022 -0.6969  0.0831  0.2909
  267MOL0     C35133   7.625   7.403  10.003 -0.5152  0.3617  0.6738
  267MOL0     C35134   7.483   7.447  10.016  1.2136 -0.2884 -0.5072
  267MOL0     C35135   7.387   7.354   9.947  0.2512  0.3009 -0.0815
  267MOL0     O35136   7.331   7.264  10.039 -0.4208 -0.2759  0.2065
  267MOL0     C35137   7.210   7.212  10.023  0.3023  0.1314 -0.0208
  267MOL0     C35138   7.198   7.079  10.001  0.8150 -0.1422  0.2486
  267MOL0     C35139   7.070   7.021   9.964  0.1706 -1.4278 -0.3427
  267MOL0     C35140   6.958   7.102   9.959  0.1250 -0.7845 -0.4883
  267MOL0     C35141   6.823   7.052   9.942 -0.7788 -1.0921 -0.7024
  267MOL0     O35142   6.810   6.916   9.915 -0.0047 -0.2615 -1.0327
  267MOL0     C35143   6.692   6.857   9.903  1.4105 -0.7235  0.6435
  267MOL0     C35144   6.684   6.754   9.810 -0.4139 -0.1216  0.2282
  267MOL0     C35145   6.566   6.696   9.774 -0.3808 -0.2373 -0.9294
  267MOL0     C35146   6.448   6.738   9.830  0.2758 -0.3381  0.1330
  267MOL0     O35147   6.326   6.694   9.769  0.0584 -0.1635  0.6017
  267MOL0     C35148   6.198   6.749   9.802  0.1754  0.5413  0.0723
  267MOL0     C35149   6.121   6.645   9.870  0.1031  0.1090 -0.2198
  267MOL0     C35150   5.974   6.692   9.896 -0.9753 -0.3872  0.3224
  267MOL0     C35151   5.896   6.595   9.986 -0.7614  0.1293  0.1352
  267MOL0     C35152   5.748   6.592   9.987 -0.0538  0.3288 -0.0320
  267MOL0     C35153   5.689   6.592   9.838 -0.4352  0.0505  0.3465
  267MOL0     C35154   5.650   6.733   9.781  0.2834  0.9538  0.0777
  267MOL0     C35155   5.567   6.708   9.648 -1.1032  0.4009 -0.2984
  267MOL0    Cl35156   5.416   6.610   9.679 -0.0319 -0.1947  0.2242
  267MOL0     C35157   6.452   6.825   9.935 -0.0019  0.1787 -0.2875
  267MOL0     C35158   6.567   6.890   9.975  0.4122 -0.0047  0.4541
  267MOL0     O35159   6.733   7.135   9.950 -0.1145  0.4436  0.1606
  267MOL0     C35160   6.977   7.238   9.981  0.0127 -0.4802 -0.2086
  267MOL0     C35161   7.098   7.297  10.014  0.0100  0.1360  0.5691
  267MOL0     N35162   7.929   7.333  10.030 -0.0235  0.2981 -0.4725
  267MOL0     N35163   8.054   7.344  10.062  0.6586 -0.5748 -0.0101
  267MOL0     C35164   9.273   7.371   9.703  0.0900 -0.3031  0.0474
  267MOL0     C35165   9.396   7.310   9.676  0.5324 -0.0952  0.9361
  267MOL0     C35166   9.813   7.108   9.739  0.0508 -0.3974 -0.2432
  267MOL0     C35167   9.933   7.117   9.815  1.1341  0.1457  0.0831
  267MOL0     C35168  10.052   7.044   9.781 -0.2575  0.0290 -0.3470
  267MOL0     C35169  10.037   6.944   9.685  0.4520 -0.2995  0.4067
  267MOL0     O35170  10.135   6.852   9.648  0.0231 -0.5866  0.9050
  267MOL0     C35171  10.273   6.872   9.676  0.7857  0.2592 -0.6834
  267MOL0     C35172  10.358   6.748   9.652 -0.3962  0.6554  0.0500
  267MOL0     C35173  10.396   6.733   9.495  0.3299  0.5345  0.1492
  267MOL0     C35174  10.506   6.629   9.487 -0.2833  0.0473 -0.3005
  267MOL0     C35175  10.482   6.506   9.565 -1.0424 -0.5263 -0.8731
  267MOL0     C35176  10.462   6.399   9.615  0.9695 -0.1257  0.8771
  267MOL0     C35177   9.915   6.934   9.614 -0.7548  0.0225 -0.4967
  267MOL0     C35178   9.803   7.013   9.639  0.3474 -0.1576  0.9831
  267MOL0     H35179   9.525   7.285   9.989  0.9690  0.8806  0.5080
  267MOL0     H35180   9.300   7.408  10.029  0.3546  2.2387 -0.0102
  267MOL0     H35181   8.999   7.308   9.786 -4.0603  0.6725 -2.1252
  267MOL0     H35182   9.002   7.468   9.705  3.3007 -0.6759 -0.6023
  267MOL0     H35183   8.851   7.564   9.868  0.6244 -0.4400 -0.3784
  267MOL0     H35184   8.927   7.461   9.996 -0.4519 -0.8177  1.2102
  267MOL0     H35185   8.788   7.287   9.944  0.1368  0.7364  0.5550
  267MOL0     H35186   8.762   7.340   9.772 -0.2496 -0.6257 -0.6199
  267MOL0     H35187   8.652   7.451  10.028  0.3797 -2.6696  0.8283
  267MOL0     H35188   8.621   7.526   9.880 -0.6532  0.0625  1.0376
  267MOL0     H35189   8.511   7.255   9.955  0.0876 -0.1574 -0.5343
  267MOL0     H35190   8.487   7.333   9.795 -2.3209  1.1358 -0.7384
  267MOL0     H35191   8.296   7.382   9.887  0.9138 -1.2011  1.4807
  267MOL0     H35192   8.379   7.534   9.885  1.3160  0.6454  0.0920
  267MOL0     H35193   8.318   7.337  10.103  0.8618 -0.3099 -1.2251
  267MOL0     H35194   8.430   7.462  10.135  2.2334 -5.8962  0.3445
  267MOL0     H35195   8.240   7.625  10.061  0.6510 -1.2060 -1.3158
  267MOL0     H35196   8.202   7.547  10.215  4.2186 -0.1848  2.1536
  267MOL0     H35197   7.968   7.656  10.041 -0.5613 -0.8302 -1.9661
  267MOL0     H35198   7.739   7.591   9.948  3.1323 -0.7912 -0.5352
  267MOL0     H35199   7.710   7.560  10.117 -2.5663  0.6511 -0.3924
  267MOL0     H35200   7.642   7.323  10.074 -2.2893  0.6878  1.5327
  267MOL0     H35201   7.625   7.376   9.897 -1.4723  0.9618  0.5017
  267MOL0     H35202   7.459   7.447  10.123  0.1490  0.0581 -0.7391
  267MOL0     H35203   7.468   7.545   9.971 -2.7040  0.2577  1.5592
  267MOL0     H35204   7.431   7.289   9.871  1.4411  1.5211 -0.4832
  267MOL0     H35205   7.313   7.421   9.903 -0.8196  0.1737  1.4437
  267MOL0     H35206   7.287   7.015  10.004  0.3534 -0.8286  3.6509
  267MOL0     H35207   7.064   6.914   9.951 -0.0184 -2.0702  3.7767
  267MOL0     H35208   6.780   6.740   9.762  0.9229  3.7495  1.3860
  267MOL0     H35209   6.566   6.625   9.691 -1.7426 -1.7013  0.2667
  267MOL0     H35210   6.155   6.769   9.704  2.8716  3.1047 -0.7351
  267MOL0     H35211   6.212   6.842   9.858  4.3582 -0.5288  1.1699
  267MOL0     H35212   6.170   6.621   9.964 -2.3115  1.1972  1.4192
  267MOL0     H35213   6.118   6.555   9.806  1.9007 -0.3318  0.2705
  267MOL0     H35214   5.924   6.686   9.799 -2.0106 -0.1209  0.8324
  267MOL0     H35215   5.973   6.796   9.930  2.6507  0.1023 -0.6367
  267MOL0     H35216   5.922   6.493   9.958  1.3109  0.8548 -0.7947
  267MOL0     H35217   5.947   6.600  10.083 -0.1426 -0.9137 -0.1248
  267MOL0     H35218   5.709   6.682  10.037  0.5701 -1.1458  3.4127
  267MOL0     H35219   5.733   6.493  10.031  4.5715 -2.2745 -3.4369
  267MOL0     H35220   5.605   6.523   9.844  0.9551 -2.2747 -3.5153
  267MOL0     H35221   5.756   6.540   9.768  0.4377  2.2135 -0.5242
  267MOL0     H35222   5.586   6.779   9.856  0.8028 -1.6651  2.2946
  267MOL0     H35223   5.743   6.786   9.758  1.7011 -0.4297  2.2799
  267MOL0     H35224   5.634   6.671   9.570  3.4016  0.2689  3.2032
  267MOL0     H35225   5.529   6.806   9.618 -0.0359  0.6270 -0.9687
  267MOL0     H35226   6.363   6.850   9.992 -1.5070 -1.3588 -1.8638
  267MOL0     H35227   6.578   6.970  10.047  2.4553  1.2936 -1.1685
  267MOL0     H35228   6.891   7.303   9.979 -0.5302 -1.2012 -1.0333
  267MOL0     H35229   7.102   7.404  10.028  2.8266 -0.2096  3.3619
  267MOL0     H35230   9.214   7.407   9.620  0.9158 -0.0351 -0.4323
  267MOL0     H35231   9.422   7.287   9.574  0.8536  0.0516  0.9845
  267MOL0     H35232   9.944   7.188   9.896  1.4445  0.8361 -0.5665
  267MOL0     H35233  10.145   7.067   9.832  0.0968  1.5584 -1.6195
  267MOL0     H35234  10.275   6.904   9.781 -0.9775  0.0537 -0.5556
  267MOL0     H35235  10.318   6.949   9.613 -3.2916  3.6059  0.0895
  267MOL0     H35236  10.450   6.770   9.707 -1.7120  0.8074  2.3525
  267MOL0     H35237  10.295   6.670   9.695 -1.3049  1.3081 -0.0529
  267MOL0     H35238  10.424   6.827   9.447  5.1318 -0.7344 -0.0757
  267MOL0     H35239  10.312   6.698   9.434 -1.4599  0.0651  2.7520
  267MOL0     H35240  10.539   6.593   9.389 -1.1515 -1.3513 -0.1190
  267MOL0     H35241  10.593   6.674   9.535 -0.1175 -1.2804  0.7210
  267MOL0     H35242  10.454   6.305   9.666 -0.2719 -0.0240  0.9152
  267MOL0     H35243   9.900   6.874   9.525 -0.9309 -0.3668 -0.2098
  267MOL0     H35244   9.718   6.994   9.574  1.3337 -1.1801 -0.0352
  268MOL0     O35245   8.580   1.512   3.257  0.2421 -0.4310  1.1564
  268MOL0     C35246   8.586   1.549   3.136 -0.7105 -0.2474 -0.5292
  268MOL0     O35247   8.479   1.585   3.063  0.3424  0.0526 -0.0816
  268MOL0     C35248   8.355   1.544   3.111  0.0899 -0.0376  0.3202
  268MOL0     C35249   8.318   1.408   3.105  0.9084 -2.0128 -0.5350
  268MOL0     C35250   8.190   1.366   3.138 -0.6884 -1.0952 -1.0311
  268MOL0     C35251   8.098   1.463   3.175  0.4812 -0.5154 -0.0448
  268MOL0     O35252   7.972   1.433   3.214 -0.8055  1.2440  0.4441
  268MOL0     C35253   7.926   1.296   3.195  0.3808 -0.1188 -0.1293
  268MOL0     C35254   7.773   1.302   3.219 -0.2266  0.4882  0.5708
  268MOL0     C35255   7.711   1.148   3.208  0.4349 -0.3211 -0.5949
  268MOL0     C35256   7.562   1.139   3.232 -0.6299  0.6742  0.1752
  268MOL0     C35257   7.507   1.168   3.375  0.5690 -0.2917 -0.1893
  268MOL0     C35258   7.355   1.152   3.393 -0.1495  0.4325 -0.8555
  268MOL0     C35259   7.282   1.270   3.323 -0.2718  0.2716  0.5020
  268MOL0     C35260   7.133   1.282   3.368 -0.6946 -0.0381  0.8694
  268MOL0     N35261   7.113   1.290   3.518 -0.0716 -1.2529 -0.0715
  268MOL0     C35262   7.142   1.405   3.591  0.4232 -0.1846  0.9908
  268MOL0     C35263   7.092   1.377   3.714 -1.7769  0.6598  0.5129
  268MOL0     C35264   7.081   1.479   3.823 -0.3890 -0.7006 -0.3839
  268MOL0     C35265   7.122   1.433   3.963  0.0350 -0.2328  0.1362
  268MOL0     C35266   7.062   1.512   4.082 -0.5491  0.0280  0.2438
  268MOL0     C35267   7.111   1.654   4.080 -0.2260 -0.6181 -0.9289
  268MOL0     O35268   7.055   1.729   4.188  0.0231  0.0914 -0.1480
  268MOL0     C35269   7.125   1.833   4.239  0.1171  0.2280 -0.0829
  268MOL0     C35270   7.161   1.837   4.367  0.4074 -0.0671 -0.7459
  268MOL0     C35271   7.222   1.958   4.409 -0.6780 -0.6939  0.2674
  268MOL0     C35272   7.271   2.051   4.323 -0.1842 -0.2965  0.7345
  268MOL0     C35273   7.350   2.158   4.374 -0.5409  0.1171  0.1988
  268MOL0     O35274   7.435   2.133   4.478 -0.4958  0.0370 -0.4626
  268MOL0     C35275   7.538   2.221   4.517 -0.1940 -0.5339 -1.0656
  268MOL0     C35276   7.603   2.301   4.423 -0.1584 -0.6442 -0.5289
  268MOL0     C35277   7.704   2.388   4.469 -0.3558  0.0950  0.2656
  268MOL0     C35278   7.744   2.390   4.607  0.7640 -0.7985  0.7520
  268MOL0     O35279   7.834   2.476   4.665  0.0483 -0.4668 -0.5947
  268MOL0     C35280   7.914   2.562   4.581  0.0311  0.5733  0.7370
  268MOL0     C35281   8.015   2.656   4.651 -0.1416 -0.1122 -0.1170
  268MOL0     C35282   8.104   2.733   4.553 -0.6291 -0.3234 -0.2840
  268MOL0     C35283   8.212   2.808   4.630  0.3163  0.8966  0.2440
  268MOL0     C35284   8.290   2.900   4.532 -0.0499  0.0419  0.2638
  268MOL0     C35285   8.395   2.970   4.612 -0.1353 -0.3116  1.5404
  268MOL0     C35286   8.522   2.992   4.515  0.0147  0.6094  0.6508
  268MOL0     C35287   8.636   3.076   4.578 -0.1203 -0.3772  0.5274
  268MOL0    Cl35288   8.767   3.060   4.468  0.0087  0.4598 -0.1846
  268MOL0     C35289   7.670   2.312   4.697 -0.4526  0.2889 -0.3624
  268MOL0     C35290   7.562   2.229   4.651 -0.1007  0.7826  0.4966
  268MOL0     O35291   7.347   2.266   4.306 -0.1758 -0.6255 -0.1260
  268MOL0     C35292   7.241   2.037   4.188 -1.0464 -0.5581  0.9468
  268MOL0     C35293   7.158   1.931   4.145 -0.4798  0.3051 -0.0429
  268MOL0     N35294   7.062   1.241   3.718  0.3462 -0.3724  0.0130
  268MOL0     N35295   7.056   1.191   3.599  0.6075 -0.6989 -0.0108
  268MOL0     C35296   8.136   1.595   3.190  0.1209  0.0918  0.1982
  268MOL0     C35297   8.263   1.632   3.155  1.1330 -0.8017  0.3831
  268MOL0     C35298   8.719   1.581   3.088  0.0686 -0.9706 -0.8113
  268MOL0     C35299   8.823   1.521   3.161 -0.0297 -0.3655  0.5290
  268MOL0     C35300   8.953   1.539   3.119  0.4554 -0.1343  0.2740
  268MOL0     C35301   8.978   1.577   2.988 -0.7590 -0.4577 -0.1077
  268MOL0     O35302   9.106   1.575   2.926 -0.0232  0.3232  0.4065
  268MOL0     C35303   9.156   1.441   2.910 -0.8197 -1.0889  0.4116
  268MOL0     C35304   9.313   1.420   2.927 -0.6318  0.3624  0.0384
  268MOL0     C35305   9.354   1.460   3.071 -0.8521 -0.4657 -0.0671
  268MOL0     C35306   9.506   1.451   3.096  0.0128 -0.6647  0.0952
  268MOL0     C35307   9.580   1.335   3.062 -0.1451  0.3166  0.4728
  268MOL0     C35308   9.652   1.236   3.043  0.3057  0.0619 -0.2042
  268MOL0     C35309   8.871   1.606   2.904  0.3779 -0.4237  0.7508
  268MOL0     C35310   8.738   1.610   2.956  0.2416 -0.4472  0.3420
  268MOL0     H35311   8.394   1.338   3.073  1.2614 -0.9010 -2.2405
  268MOL0     H35312   8.182   1.259   3.127  1.0377 -1.3189 -0.4455
  268MOL0     H35313   7.967   1.217   3.259 -1.5194  0.5830  2.0989
  268MOL0     H35314   7.936   1.264   3.091  0.6292 -0.0833 -0.1169
  268MOL0     H35315   7.719   1.365   3.148 -1.3921 -0.3955  0.6311
  268MOL0     H35316   7.747   1.329   3.322 -1.3954 -0.6383  0.6097
  268MOL0     H35317   7.754   1.099   3.296 -0.1525  1.2040  0.5902
  268MOL0     H35318   7.747   1.096   3.119 -1.3639 -2.3078 -0.2401
  268MOL0     H35319   7.504   1.204   3.166 -1.1617  0.1757  0.1387
  268MOL0     H35320   7.537   1.037   3.201  1.0632 -0.6795  2.8978
  268MOL0     H35321   7.524   1.273   3.399 -1.1277  0.2475 -1.1931
  268MOL0     H35322   7.565   1.105   3.445 -0.6802 -0.2107  0.9558
  268MOL0     H35323   7.338   1.166   3.501 -0.6650  0.6866 -0.9663
  268MOL0     H35324   7.321   1.050   3.374  0.0483 -0.3247  2.2218
  268MOL0     H35325   7.336   1.364   3.339  2.2733 -0.8755 -0.8266
  268MOL0     H35326   7.275   1.257   3.215 -1.5876  5.2238 -0.2919
  268MOL0     H35327   7.082   1.193   3.331 -1.8028 -0.1814  2.6260
  268MOL0     H35328   7.083   1.372   3.331 -0.9404  1.1745  3.8470
  268MOL0     H35329   7.181   1.498   3.552 -0.0578 -0.3840  0.0088
  268MOL0     H35330   6.975   1.506   3.829 -0.6314 -1.7148  0.1583
  268MOL0     H35331   7.142   1.569   3.811 -1.2014 -0.0748  0.0527
  268MOL0     H35332   7.232   1.430   3.968  0.4116  1.7826 -3.5682
  268MOL0     H35333   7.093   1.328   3.968  2.2447 -0.8434  1.5275
  268MOL0     H35334   6.954   1.526   4.068 -0.3249 -0.8673 -3.4840
  268MOL0     H35335   7.086   1.469   4.179  0.2426 -1.1706 -0.4622
  268MOL0     H35336   7.078   1.695   3.984  2.7401 -1.6254 -2.5077
  268MOL0     H35337   7.220   1.663   4.077 -0.0309 -2.5586 -1.0361
  268MOL0     H35338   7.134   1.762   4.441 -1.5872  0.6191 -0.7212
  268MOL0     H35339   7.236   1.987   4.513 -1.1228 -1.2340  0.4820
  268MOL0     H35340   7.578   2.303   4.317 -0.1221 -3.2691 -0.6562
  268MOL0     H35341   7.759   2.447   4.396 -0.5486  0.4225  0.3812
  268MOL0     H35342   7.849   2.619   4.513  1.1567  0.6041 -0.3403
  268MOL0     H35343   7.973   2.495   4.519 -0.9002  2.5157 -2.4802
  268MOL0     H35344   8.082   2.596   4.713  1.4961  0.6380 -1.0810
  268MOL0     H35345   7.959   2.730   4.709  1.0661 -0.7726  1.9885
  268MOL0     H35346   8.042   2.807   4.502  1.3156  1.2413 -0.4752
  268MOL0     H35347   8.153   2.669   4.479  0.1858  0.4266 -0.4069
  268MOL0     H35348   8.162   2.867   4.708 -1.2758  0.2392 -0.2280
  268MOL0     H35349   8.283   2.739   4.678 -0.6835 -1.3194 -1.2736
  268MOL0     H35350   8.242   2.980   4.476  2.4017  2.2808  1.1166
  268MOL0     H35351   8.336   2.838   4.454 -1.3619 -1.7375  0.8546
  268MOL0     H35352   8.433   2.901   4.687  0.5084 -0.5745  0.9740
  268MOL0     H35353   8.363   3.060   4.666 -0.8972 -0.6623  1.6852
  268MOL0     H35354   8.566   2.894   4.494 -0.5223  0.4463  0.2499
  268MOL0     H35355   8.482   3.034   4.421 -1.1097 -1.5949  0.0779
  268MOL0     H35356   8.665   3.035   4.675 -1.7499 -2.2638  0.2640
  268MOL0     H35357   8.616   3.182   4.601 -0.8066 -0.9731  2.9410
  268MOL0     H35358   7.695   2.314   4.803  1.2205  0.5126 -0.7310
  268MOL0     H35359   7.487   2.187   4.718  0.5628 -0.6572  0.3887
  268MOL0     H35360   7.282   2.105   4.114 -0.0628 -0.5136  1.5128
  268MOL0     H35361   7.125   1.934   4.041 -1.1395 -0.3124  0.1457
  268MOL0     H35362   8.061   1.666   3.223 -0.9203  0.8582 -3.3682
  268MOL0     H35363   8.276   1.739   3.143 -1.2384 -0.5687 -0.6522
  268MOL0     H35364   8.809   1.466   3.254 -1.8635 -1.9056 -0.5682
  268MOL0     H35365   9.038   1.507   3.179  1.8007  1.2138 -0.8383
  268MOL0     H35366   9.151   1.419   2.803 -0.5922  1.9483 -0.2996
  268MOL0     H35367   9.098   1.372   2.971  0.2599 -2.9012 -0.4885
  268MOL0     H35368   9.325   1.311   2.920 -1.9266  0.3165 -2.5113
  268MOL0     H35369   9.372   1.469   2.849 -1.7483  0.4197 -0.7939
  268MOL0     H35370   9.314   1.392   3.147  2.2184 -1.4413  0.8458
  268MOL0     H35371   9.316   1.560   3.093 -1.0199 -0.3606 -0.8083
  268MOL0     H35372   9.546   1.533   3.035  1.3387 -0.4673  1.1857
  268MOL0     H35373   9.528   1.482   3.198 -1.4867  0.8559  0.0087
  268MOL0     H35374   9.717   1.152   3.031 -1.5954 -1.8996  2.1233
  268MOL0     H35375   8.902   1.610   2.800  1.6264 -1.4135  1.0541
  268MOL0     H35376   8.656   1.631   2.887 -1.4634  0.7069  2.5734
  269MOL0     O35377   6.553   3.038   1.069  0.0944 -0.2353  0.1054
  269MOL0     C35378   6.564   3.098   1.173 -0.2766 -0.8537  0.2964
  269MOL0     O35379   6.461   3.144   1.253 -0.5698 -0.7008  0.1596
  269MOL0     C35380   6.330   3.120   1.232  0.1539  0.5168  0.4432
  269MOL0     C35381   6.235   3.212   1.279  0.8377  0.9673  0.2028
  269MOL0     C35382   6.100   3.185   1.276 -0.0671  0.3771  0.2445
  269MOL0     C35383   6.051   3.055   1.232  0.6248  0.1968  0.5428
  269MOL0     O35384   5.917   3.030   1.211 -0.6150 -0.3111  0.0117
  269MOL0     C35385   5.872   2.901   1.168 -0.1569  0.5165 -0.3336
  269MOL0     C35386   5.727   2.900   1.157 -0.2568  0.1562 -0.0380
  269MOL0     C35387   5.667   2.816   1.045  0.5288 -0.3684  0.2224
  269MOL0     C35388   5.519   2.804   1.056 -0.3402  0.1091 -0.4225
  269MOL0     C35389   5.452   2.768   0.926 -1.0664  0.0027  0.6376
  269MOL0     C35390   5.299   2.729   0.925 -0.2162 -0.6502 -0.6306
  269MOL0     C35391   5.214   2.817   1.019  0.8111  0.0541  0.0493
  269MOL0     C35392   5.198   2.950   0.952 -1.0790 -0.2018  0.4720
  269MOL0     N35393   5.152   3.062   1.048 -0.2808  0.6378  0.4806
  269MOL0     C35394   5.220   3.108   1.155  0.4140  0.9875  0.1290
  269MOL0     C35395   5.140   3.192   1.218  0.1610 -0.2510 -1.0588
  269MOL0     C35396   5.168   3.291   1.330  0.2326  0.7957  0.8033
  269MOL0     C35397   5.083   3.426   1.310  0.9658 -0.1604  0.0197
  269MOL0     C35398   5.132   3.529   1.408  0.2423 -0.0547 -0.1332
  269MOL0     C35399   5.278   3.565   1.393  0.0841  1.3027 -0.3260
  269MOL0     O35400   5.299   3.687   1.458  0.4716  0.2320  0.2959
  269MOL0     C35401   5.419   3.700   1.528  0.2148  0.4591 -0.2473
  269MOL0     C35402   5.546   3.653   1.497  0.4290  1.0764  0.6767
  269MOL0     C35403   5.648   3.638   1.586 -0.5083 -1.3976 -0.6947
  269MOL0     C35404   5.631   3.696   1.711 -0.5247  1.2033 -0.2583
  269MOL0     C35405   5.753   3.729   1.797  0.0499  0.3394  0.3614
  269MOL0     O35406   5.879   3.728   1.737  0.6850 -0.2820  0.1437
  269MOL0     C35407   5.986   3.758   1.819  0.5569 -0.6598  0.0476
  269MOL0     C35408   6.051   3.876   1.780  0.1857  0.1318  0.0008
  269MOL0     C35409   6.162   3.911   1.856 -0.3840  0.6841 -0.0407
  269MOL0     C35410   6.204   3.838   1.969  0.6927 -0.8772 -0.2975
  269MOL0     O35411   6.311   3.871   2.046  0.3775  0.3125 -0.0656
  269MOL0     C35412   6.435   3.915   1.986  1.0150  0.3933 -0.5444
  269MOL0     C35413   6.556   3.900   2.081  0.2598 -0.1534  0.4009
  269MOL0     C35414   6.611   3.761   2.062 -0.1772 -0.2074  0.6739
  269MOL0     C35415   6.747   3.737   2.137  0.3866  0.8196 -0.3467
  269MOL0     C35416   6.825   3.620   2.085 -0.4184 -0.0264  0.0495
  269MOL0     C35417   6.971   3.603   2.139  0.3189 -0.0883 -0.4526
  269MOL0     C35418   7.071   3.712   2.108 -0.1146 -0.7659 -0.0539
  269MOL0     C35419   7.212   3.655   2.074 -0.4004 -0.3425  0.3860
  269MOL0    Cl35420   7.348   3.782   2.066  0.0691 -0.3386  0.2124
  269MOL0     C35421   6.140   3.718   1.995  0.2690 -0.3928 -1.2639
  269MOL0     C35422   6.028   3.674   1.921  0.3775 -0.0157 -0.4559
  269MOL0     O35423   5.737   3.734   1.922 -0.0391 -0.7900  0.3645
  269MOL0     C35424   5.513   3.760   1.744  0.6833 -0.2878  0.5607
  269MOL0     C35425   5.404   3.760   1.652  0.1813  0.0735 -0.2154
  269MOL0     N35426   5.031   3.200   1.139 -0.3496  0.2364  0.1268
  269MOL0     N35427   5.036   3.130   1.034  0.2665  0.5576 -0.2718
  269MOL0     C35428   6.147   2.963   1.191 -0.8441 -0.5056  0.4597
  269MOL0     C35429   6.281   2.998   1.188 -0.3377 -0.4175 -0.0657
  269MOL0     C35430   6.696   3.151   1.212 -0.0353  0.3528 -0.2783
  269MOL0     C35431   6.730   3.174   1.356  0.6345  0.1600  0.0734
  269MOL0     C35432   6.849   3.234   1.390  0.5099 -0.3013 -0.2576
  269MOL0     C35433   6.947   3.267   1.286  1.2419 -0.1334 -0.8851
  269MOL0     O35434   7.067   3.320   1.312 -0.4276  0.1039 -0.3418
  269MOL0     C35435   7.145   3.258   1.420 -0.0638  1.0732 -1.4998
  269MOL0     C35436   7.286   3.270   1.383 -0.8865 -0.1759  0.0932
  269MOL0     C35437   7.393   3.210   1.477  0.4811 -0.1025 -0.5196
  269MOL0     C35438   7.522   3.206   1.401 -0.1575  0.3450  0.2291
  269MOL0     C35439   7.637   3.209   1.491 -0.1866  0.5585  0.2399
  269MOL0     C35440   7.737   3.227   1.561  0.6389 -0.3244  0.7065
  269MOL0     C35441   6.917   3.241   1.157 -0.4717  0.0519  0.2814
  269MOL0     C35442   6.797   3.180   1.114 -0.0690 -0.4776 -0.0449
  269MOL0     H35443   6.260   3.308   1.323  1.7561  0.4232  0.9277
  269MOL0     H35444   6.028   3.258   1.311  0.7973  1.5139 -0.2873
  269MOL0     H35445   5.895   2.841   1.256  1.2701  0.1651 -0.9158
  269MOL0     H35446   5.917   2.880   1.071 -1.4466  1.8416 -1.2646
  269MOL0     H35447   5.699   3.005   1.145 -1.0091  0.5875  4.0772
  269MOL0     H35448   5.703   2.871   1.260  1.4263  1.2054  0.6973
  269MOL0     H35449   5.709   2.716   1.040  2.2379  0.3731 -1.2989
  269MOL0     H35450   5.686   2.862   0.947 -1.4807 -1.3555 -0.7085
  269MOL0     H35451   5.494   2.731   1.134 -0.8885 -0.6389 -1.2770
  269MOL0     H35452   5.492   2.907   1.085  2.1822  0.0763  2.5684
  269MOL0     H35453   5.504   2.681   0.885 -0.1886  0.9717 -0.3753
  269MOL0     H35454   5.465   2.858   0.866  0.1796  1.1543  2.5253
  269MOL0     H35455   5.288   2.626   0.961 -3.0025 -1.3820 -3.1844
  269MOL0     H35456   5.262   2.732   0.822  0.7297 -0.4174 -0.9735
  269MOL0     H35457   5.110   2.785   1.029  1.1551 -0.6439  1.8477
  269MOL0     H35458   5.257   2.825   1.119 -3.5368  2.7100  1.9560
  269MOL0     H35459   5.117   2.946   0.879 -0.6129  2.3025 -0.2676
  269MOL0     H35460   5.293   2.979   0.905  0.5262 -1.0484  2.9676
  269MOL0     H35461   5.322   3.078   1.175  0.2607 -0.4135 -1.0300
  269MOL0     H35462   5.274   3.316   1.336  0.9574 -1.1076 -2.0360
  269MOL0     H35463   5.151   3.243   1.428  2.8875 -0.5978  0.6736
  269MOL0     H35464   4.977   3.403   1.323  1.6416 -2.5547  2.0285
  269MOL0     H35465   5.093   3.460   1.207 -1.6492 -3.5877 -1.5502
  269MOL0     H35466   5.071   3.619   1.395 -2.8980 -1.8484  1.0873
  269MOL0     H35467   5.120   3.494   1.512 -2.8205  1.1986  0.0576
  269MOL0     H35468   5.300   3.549   1.287  2.9251 -2.5064  0.6172
  269MOL0     H35469   5.335   3.485   1.442 -1.8161 -1.7192 -2.6843
  269MOL0     H35470   5.556   3.614   1.397  0.5428 -0.7819  1.3706
  269MOL0     H35471   5.740   3.605   1.540 -0.4191 -0.9919 -0.8130
  269MOL0     H35472   6.028   3.932   1.690 -1.2146  0.4735  0.5537
  269MOL0     H35473   6.217   3.993   1.811  0.6831  0.4470  0.7627
  269MOL0     H35474   6.419   4.021   1.962 -0.1501  1.3211  3.5857
  269MOL0     H35475   6.436   3.855   1.894  0.1855  0.4526 -0.6024
  269MOL0     H35476   6.533   3.917   2.186 -0.9539  2.1496 -0.1733
  269MOL0     H35477   6.641   3.968   2.068 -0.2943  0.8670  1.8701
  269MOL0     H35478   6.621   3.745   1.955  0.7276 -0.4885  0.7912
  269MOL0     H35479   6.534   3.691   2.096  0.5834 -2.6412 -2.2057
  269MOL0     H35480   6.814   3.823   2.127  0.8567  0.2142 -4.3759
  269MOL0     H35481   6.724   3.733   2.243  2.7198  2.4694  0.3121
  269MOL0     H35482   6.825   3.638   1.977  0.7289  0.9392  0.1876
  269MOL0     H35483   6.763   3.532   2.104 -0.9090  0.2536 -0.2246
  269MOL0     H35484   7.009   3.516   2.086  0.3808  1.0419 -2.3727
  269MOL0     H35485   6.969   3.574   2.245 -1.3951  0.6481 -0.2491
  269MOL0     H35486   7.041   3.780   2.028  2.4306  2.3427  1.4166
  269MOL0     H35487   7.066   3.779   2.194 -0.2648  0.3736 -0.9310
  269MOL0     H35488   7.198   3.601   1.980 -0.2684 -0.0522  0.1984
  269MOL0     H35489   7.255   3.583   2.145 -0.0221 -2.4409 -1.8300
  269MOL0     H35490   6.182   3.660   2.077  2.2937  1.6220 -0.7590
  269MOL0     H35491   5.991   3.573   1.913  0.8228 -0.2921  0.8396
  269MOL0     H35492   5.504   3.820   1.834 -0.9011  2.4497 -1.2730
  269MOL0     H35493   5.310   3.811   1.672 -0.1747  0.0169 -1.5959
  269MOL0     H35494   6.120   2.859   1.176 -0.6418 -0.4585 -0.2292
  269MOL0     H35495   6.356   2.920   1.176  0.4223 -0.1184  2.2663
  269MOL0     H35496   6.663   3.158   1.439  1.0562  2.4190  0.9095
  269MOL0     H35497   6.874   3.265   1.491  0.8349  1.9760 -0.9728
  269MOL0     H35498   7.126   3.151   1.438 -2.4227  1.0031 -3.8714
  269MOL0     H35499   7.135   3.316   1.512 -1.1387  0.8608 -1.4719
  269MOL0     H35500   7.300   3.226   1.284 -0.1382 -0.9330  0.5222
  269MOL0     H35501   7.317   3.375   1.376  0.4454 -0.5695 -0.3365
  269MOL0     H35502   7.362   3.110   1.507 -1.1610  1.0317  1.9309
  269MOL0     H35503   7.401   3.272   1.567  1.5242  0.9438 -1.3075
  269MOL0     H35504   7.525   3.119   1.335 -1.1363  1.0307 -0.7611
  269MOL0     H35505   7.547   3.298   1.347  2.8972  2.3028  4.3881
  269MOL0     H35506   7.824   3.237   1.623  1.4645  2.5733 -0.6894
  269MOL0     H35507   6.994   3.263   1.084 -0.0999  0.5525  0.8124
  269MOL0     H35508   6.785   3.152   1.010  4.0552 -2.1476 -0.2380
  270MOL0     O35509   1.106   2.626  10.305 -0.2033  0.1311 -0.2520
  270MOL0     C35510   1.169   2.572  10.217 -0.7768  0.1214 -0.9445
  270MOL0     O35511   1.306   2.544  10.228  0.3356  0.4461  0.3516
  270MOL0     C35512   1.371   2.568  10.350 -0.2139  0.2135 -0.4769
  270MOL0     C35513   1.456   2.687  10.343 -0.3364  0.4535 -0.4291
  270MOL0     C35514   1.526   2.728  10.451 -0.7550 -0.2103 -0.3933
  270MOL0     C35515   1.501   2.676  10.578  0.6587 -0.3094 -0.6722
  270MOL0     O35516   1.552   2.724  10.692  0.2187 -0.3552  0.8353
  270MOL0     C35517   1.689   2.710  10.706 -0.5857  0.0374 -0.0053
  270MOL0     C35518   1.720   2.689  10.861  0.1287  0.5536 -0.0841
  270MOL0     C35519   1.665   2.800  10.961  0.9477  0.1250  0.5078
  270MOL0     C35520   1.669   2.761  11.107 -1.0558  0.3051 -0.2097
  270MOL0     C35521   1.606   2.631  11.146 -0.3025  0.5442  0.4466
  270MOL0     C35522   1.453   2.635  11.135  0.6578 -0.4726 -0.0867
  270MOL0     C35523   1.382   2.509  11.135  0.0034 -0.0993 -0.6587
  270MOL0     C35524   1.401   2.417  11.008  0.2760 -0.7450 -0.2023
  270MOL0     N35525   1.314   2.299  11.013 -0.0382 -0.7891 -0.6094
  270MOL0     C35526   1.207   2.269  10.937 -0.2422  0.0402 -0.5665
  270MOL0     C35527   1.169   2.140  10.972 -0.0608  0.4589 -0.7781
  270MOL0     C35528   1.062   2.052  10.911 -1.0757 -0.1444  0.4455
  270MOL0     C35529   0.936   2.085  10.984  0.5786 -0.3099  0.3353
  270MOL0     C35530   0.815   1.991  10.989 -0.0858  0.0449  0.7214
  270MOL0     C35531   0.737   1.985  10.867  0.5085 -0.4026 -0.3717
  270MOL0     O35532   0.700   2.118  10.833  0.3092  0.6660 -0.2429
  270MOL0     C35533   0.603   2.132  10.741 -0.9798  0.1167  0.6775
  270MOL0     C35534   0.549   2.028  10.669  0.7670  0.4419  0.3155
  270MOL0     C35535   0.460   2.046  10.551 -0.1305  0.5635  0.3363
  270MOL0     C35536   0.419   2.172  10.529 -0.0094  0.2031  0.2083
  270MOL0     C35537   0.328   2.202  10.414  0.5828  0.0843  0.9754
  270MOL0     O35538   0.297   2.089  10.342 -0.1295 -0.4650 -0.6050
  270MOL0     C35539   0.209   2.096  10.244  0.2728  0.1125 -0.7042
  270MOL0     C35540   0.257   2.103  10.114  0.4752  0.1093 -0.2939
  270MOL0     C35541   0.162   2.099  10.007  0.0838 -0.3067 -0.4648
  270MOL0     C35542   0.026   2.113  10.030  0.7377 -0.0451 -0.0854
  270MOL0     O35543  -0.064   2.162   9.938 -0.5266 -0.1857 -0.4832
  270MOL0     C35544  -0.180   2.087   9.890  0.0388  0.1715  0.4623
  270MOL0     C35545  -0.220   2.160   9.763 -0.3163 -0.6596 -0.6397
  270MOL0     C35546  -0.374   2.184   9.760 -0.5095  0.9467 -0.0661
  270MOL0     C35547  -0.411   2.221   9.619  0.6230 -0.2819 -0.0136
  270MOL0     C35548  -0.551   2.287   9.631  0.0816  0.3128  0.1358
  270MOL0     C35549  -0.608   2.311   9.491 -0.1767 -0.0375  0.8021
  270MOL0     C35550  -0.753   2.358   9.494  0.4828  0.4920  0.5010
  270MOL0     C35551  -0.823   2.362   9.357 -0.0057 -0.1474  0.2204
  270MOL0    Cl35552  -0.975   2.461   9.356  0.3565  0.0667  0.1085
  270MOL0     C35553  -0.020   2.103  10.163 -0.0361  0.7760  1.0277
  270MOL0     C35554   0.068   2.097  10.266  0.5066  0.0992 -0.0300
  270MOL0     O35555   0.285   2.315  10.391  0.1329 -0.3338 -0.0637
  270MOL0     C35556   0.456   2.274  10.610  0.1626 -0.4381  0.2214
  270MOL0     C35557   0.548   2.256  10.709 -0.7822 -0.2179  0.4330
  270MOL0     N35558   1.252   2.089  11.070  0.2142 -0.0665  1.1476
  270MOL0     N35559   1.346   2.185  11.090  0.4544  0.0190 -0.2975
  270MOL0     C35560   1.416   2.558  10.585  0.0425  0.0659 -0.7134
  270MOL0     C35561   1.346   2.510  10.477 -0.0659 -1.0049  1.6567
  270MOL0     C35562   1.099   2.561  10.084  0.0810 -0.1932 -0.6327
  270MOL0     C35563   0.962   2.593  10.066  0.6443 -0.1584 -0.7342
  270MOL0     C35564   0.901   2.600   9.942 -0.1381  0.2796  0.0078
  270MOL0     C35565   0.979   2.572   9.827  0.6219 -0.9329  0.3464
  270MOL0     O35566   0.933   2.588   9.696  0.9676 -0.0361 -0.2562
  270MOL0     C35567   0.879   2.727   9.664 -0.0752 -0.2527  0.2045
  270MOL0     C35568   0.977   2.828   9.613  0.8636  0.3185  0.7318
  270MOL0     C35569   1.074   2.892   9.714 -0.2260 -0.1603 -0.8813
  270MOL0     C35570   1.162   2.989   9.637 -0.0558 -0.0385  0.8791
  270MOL0     C35571   1.248   3.047   9.736  0.5348 -0.0486  1.2682
  270MOL0     C35572   1.311   3.105   9.817  0.2723  0.1612 -0.1468
  270MOL0     C35573   1.109   2.528   9.838  0.4918  0.4988 -0.7951
  270MOL0     C35574   1.173   2.518   9.963 -0.7797 -0.4264 -0.8389
  270MOL0     H35575   1.475   2.732  10.246 -0.7430  2.4417  0.3680
  270MOL0     H35576   1.602   2.804  10.460  1.5599 -2.6174  2.6703
  270MOL0     H35577   1.733   2.807  10.681 -1.0342  0.5940  1.2845
  270MOL0     H35578   1.732   2.634  10.640 -0.7877  0.5968 -0.8044
  270MOL0     H35579   1.829   2.676  10.866  0.0843  0.6382  1.9015
  270MOL0     H35580   1.667   2.595  10.880  0.1778  0.5572  0.0719
  270MOL0     H35581   1.563   2.834  10.941  0.3398 -0.2139  2.8392
  270MOL0     H35582   1.730   2.889  10.957  0.1471  0.7006  0.1612
  270MOL0     H35583   1.776   2.742  11.122 -0.7049  1.2797 -1.2843
  270MOL0     H35584   1.638   2.835  11.182  0.1026  2.2670 -1.5632
  270MOL0     H35585   1.631   2.597  11.246 -1.1564 -1.4118  0.0323
  270MOL0     H35586   1.652   2.554  11.084 -4.0698 -0.6742 -1.0925
  270MOL0     H35587   1.417   2.699  11.054 -0.0260  0.7119  1.1098
  270MOL0     H35588   1.416   2.689  11.223 -1.1213  0.4203 -1.3277
  270MOL0     H35589   1.417   2.450  11.220 -0.3999 -0.3044 -0.6334
  270MOL0     H35590   1.275   2.519  11.153 -0.5408 -3.6534 -1.1835
  270MOL0     H35591   1.501   2.372  11.007  0.5960 -0.0588 -1.4629
  270MOL0     H35592   1.395   2.475  10.915  3.3599  0.0381 -0.0491
  270MOL0     H35593   1.169   2.332  10.857  2.0618 -0.2222 -1.9672
  270MOL0     H35594   1.085   1.949  10.940 -0.5316  0.0785  0.8255
  270MOL0     H35595   1.042   2.081  10.808  0.9977  0.9806  0.3023
  270MOL0     H35596   0.905   2.188  10.962  0.5913 -0.6795 -1.5630
  270MOL0     H35597   0.973   2.085  11.087  0.4900 -1.2739  0.3721
  270MOL0     H35598   0.846   1.889  11.014  0.8775 -0.9730 -3.6893
  270MOL0     H35599   0.751   2.026  11.070 -0.0079  0.8333  0.4562
  270MOL0     H35600   0.650   1.923  10.890 -2.3186  3.3576 -0.0304
  270MOL0     H35601   0.794   1.941  10.785  1.8672  1.0645 -0.2450
  270MOL0     H35602   0.586   1.928  10.686  1.1615  0.4958 -0.1901
  270MOL0     H35603   0.428   1.958  10.496 -3.3158 -0.1626  2.9930
  270MOL0     H35604   0.363   2.095  10.095  0.2729  1.6783 -2.3843
  270MOL0     H35605   0.190   2.117   9.903  0.0459 -1.1518 -0.6269
  270MOL0     H35606  -0.265   2.092   9.957 -3.0666 -2.2447 -2.9107
  270MOL0     H35607  -0.163   1.982   9.864 -0.2056  0.7669 -2.3920
  270MOL0     H35608  -0.182   2.110   9.673 -0.7344 -2.7427  0.2809
  270MOL0     H35609  -0.166   2.254   9.758  0.1527 -0.7621  1.5341
  270MOL0     H35610  -0.394   2.259   9.837  2.1704  2.6034 -0.8130
  270MOL0     H35611  -0.422   2.087   9.773 -4.4822  2.1944 -3.2607
  270MOL0     H35612  -0.342   2.298   9.582 -1.7652  0.6056 -3.0183
  270MOL0     H35613  -0.407   2.136   9.551 -0.2577  0.0998 -0.5584
  270MOL0     H35614  -0.534   2.382   9.682 -1.5229  0.4611  0.4359
  270MOL0     H35615  -0.620   2.218   9.681  3.2093 -1.8521  1.8384
  270MOL0     H35616  -0.620   2.213   9.444  0.8445  0.1523  0.1297
  270MOL0     H35617  -0.559   2.383   9.425  0.3195  0.2184  1.4347
  270MOL0     H35618  -0.812   2.292   9.558  3.7303 -1.6002  1.5344
  270MOL0     H35619  -0.747   2.461   9.532 -2.0341  0.5559  0.9385
  270MOL0     H35620  -0.848   2.264   9.314 -1.5674 -0.7101  2.2556
  270MOL0     H35621  -0.756   2.399   9.279  0.8807 -1.7282  0.1844
  270MOL0     H35622  -0.127   2.105  10.181  0.0271  0.0687  1.5092
  270MOL0     H35623   0.035   2.102  10.369  2.3664 -0.7017  0.6438
  270MOL0     H35624   0.427   2.378  10.598  2.2294  0.5966  3.2019
  270MOL0     H35625   0.587   2.332  10.775 -1.0529 -0.3290  0.7225
  270MOL0     H35626   1.391   2.512  10.680 -1.5372  1.1573 -0.5679
  270MOL0     H35627   1.281   2.422  10.483 -2.0451  0.3527  1.2769
  270MOL0     H35628   0.897   2.637  10.141 -0.9330 -1.5461 -1.2526
  270MOL0     H35629   0.802   2.643   9.932 -1.9181 -3.8374 -2.6530
  270MOL0     H35630   0.836   2.772   9.754 -3.9015  1.4514 -2.2332
  270MOL0     H35631   0.800   2.724   9.588 -1.3783 -1.1919  1.5331
  270MOL0     H35632   1.032   2.769   9.538 -0.6100 -1.9779  1.3699
  270MOL0     H35633   0.928   2.900   9.547 -0.8549 -2.6646 -1.5167
  270MOL0     H35634   1.132   2.815   9.765 -1.7354  0.0840  1.3158
  270MOL0     H35635   1.013   2.954   9.779 -0.9967 -1.3455 -0.4426
  270MOL0     H35636   1.222   2.932   9.564 -0.8186 -0.8200  0.8454
  270MOL0     H35637   1.098   3.060   9.583 -0.6603 -0.7309  0.6693
  270MOL0     H35638   1.372   3.154   9.890  0.2847  1.3706 -0.9294
  270MOL0     H35639   1.178   2.516   9.755  1.9509 -2.3380  0.6667
  270MOL0     H35640   1.274   2.485   9.984 -1.4361 -0.9040  1.8578
  271MOL0     O35641  10.614  10.240   1.271  0.0543  1.0879  0.7294
  271MOL0     C35642  10.624  10.112   1.271  0.4643  0.4006  0.2812
  271MOL0     O35643  10.735  10.040   1.318 -0.1146  0.6867  0.8542
  271MOL0     C35644  10.845  10.119   1.354 -1.0102 -1.1264  0.3851
  271MOL0     C35645  10.938  10.162   1.256  0.0190 -0.6075 -0.0287
  271MOL0     C35646  11.068  10.190   1.295  1.1393 -0.5881  0.6077
  271MOL0     C35647  11.105  10.206   1.424  0.4639 -0.2382  1.1117
  271MOL0     O35648  11.231  10.238   1.438 -1.1747 -0.3367  0.8406
  271MOL0     C35649  11.266  10.326   1.548 -0.7749 -0.7655  0.5388
  271MOL0     C35650  11.219  10.473   1.526  0.1253 -0.4465  0.7636
  271MOL0     C35651  11.273  10.523   1.387  0.0994  0.3140  0.4968
  271MOL0     C35652  11.204  10.652   1.337  0.7576 -1.0087  0.0185
  271MOL0     C35653  11.263  10.683   1.196  0.2609 -0.3487 -0.8497
  271MOL0     C35654  11.224  10.582   1.088  0.3399 -0.0820  0.5326
  271MOL0     C35655  11.079  10.568   1.051 -0.1614  0.0863  0.8446
  271MOL0     C35656  11.044  10.489   0.919  1.1465 -0.0608  0.7171
  271MOL0     N35657  10.897  10.497   0.892 -0.2637  0.6054 -0.0712
  271MOL0     C35658  10.802  10.460   0.989  0.1319  0.2244 -0.0382
  271MOL0     C35659  10.679  10.485   0.932  0.2027  0.5290  0.5174
  271MOL0     C35660  10.545  10.468   0.994  0.5214  0.3863  0.7798
  271MOL0     C35661  10.441  10.382   0.923  0.5298  0.1053  0.7841
  271MOL0     C35662  10.370  10.463   0.816 -0.1320  0.0775  0.1709
  271MOL0     C35663  10.248  10.546   0.852  0.5972 -0.1824 -0.1956
  271MOL0     O35664  10.162  10.587   0.746 -0.4999 -0.2466 -0.2556
  271MOL0     C35665  10.036  10.643   0.773  0.5734 -0.4313  0.5416
  271MOL0     C35666   9.972  10.635   0.893 -0.0076 -0.2135 -0.4485
  271MOL0     C35667   9.844  10.683   0.916  0.6079  0.8167  0.3601
  271MOL0     C35668   9.781  10.736   0.797  0.4057  0.6073 -0.4204
  271MOL0     C35669   9.644  10.805   0.813  0.6823  0.1883 -0.6750
  271MOL0     O35670   9.561  10.820   0.705 -0.3159  0.1158 -0.5129
  271MOL0     C35671   9.474  10.916   0.708  0.8248 -0.5537  0.5844
  271MOL0     C35672   9.478  11.026   0.627 -0.6017 -1.3955 -0.0401
  271MOL0     C35673   9.381  11.137   0.633  0.5823 -0.5564 -0.6152
  271MOL0     C35674   9.278  11.123   0.724 -0.9602 -0.5414  0.1736
  271MOL0     O35675   9.192  11.226   0.759  0.9594  0.1640 -0.7981
  271MOL0     C35676   9.145  11.316   0.658  0.8437  0.0741  0.4480
  271MOL0     C35677   9.046  11.253   0.554 -0.4007 -0.5337  0.0219
  271MOL0     C35678   8.921  11.211   0.625  0.3287  0.7907 -0.3875
  271MOL0     C35679   8.815  11.191   0.529 -0.8160 -0.5702 -0.0001
  271MOL0     C35680   8.700  11.133   0.602  0.6869  1.1557 -1.2427
  271MOL0     C35681   8.595  11.083   0.501 -0.4127 -0.1285 -0.1913
  271MOL0     C35682   8.472  11.027   0.577  0.1934 -0.2922  0.1734
  271MOL0     C35683   8.371  10.945   0.486 -0.6848 -0.8177 -0.2352
  271MOL0    Cl35684   8.440  10.804   0.393  0.3155 -0.1998 -0.1875
  271MOL0     C35685   9.283  11.011   0.810  0.7181  0.5268  1.0533
  271MOL0     C35686   9.371  10.906   0.795 -0.1561 -0.5038 -0.0346
  271MOL0     O35687   9.615  10.845   0.927 -0.4545  0.3255  0.7470
  271MOL0     C35688   9.835  10.733   0.671 -0.1587 -0.2199 -0.6955
  271MOL0     C35689   9.966  10.693   0.659 -0.8486 -0.4824 -0.2460
  271MOL0     N35690  10.699  10.527   0.800 -0.2975  0.2255 -0.3783
  271MOL0     N35691  10.828  10.536   0.783 -0.7365 -0.1158  0.2874
  271MOL0     C35692  11.009  10.188   1.526 -0.3827  0.4446  0.7672
  271MOL0     C35693  10.882  10.140   1.488  0.3331  0.5534  0.4552
  271MOL0     C35694  10.506  10.038   1.225 -0.1491 -0.9130  0.2058
  271MOL0     C35695  10.390  10.097   1.180 -0.9835 -0.4437  0.2797
  271MOL0     C35696  10.289  10.022   1.135 -0.4771  0.0015  0.1004
  271MOL0     C35697  10.290   9.885   1.118  0.8885  0.4956  1.0668
  271MOL0     O35698  10.167   9.841   1.064 -0.1469  0.7504 -0.0830
  271MOL0     C35699  10.184   9.696   1.043 -0.2993 -0.6254  0.5191
  271MOL0     C35700  10.085   9.645   0.950 -0.1769  0.6052  0.7851
  271MOL0     C35701   9.938   9.635   1.007 -0.0835 -0.6141  0.4678
  271MOL0     C35702   9.837   9.630   0.891  0.0453 -0.4222  0.4168
  271MOL0     C35703   9.833   9.501   0.824  0.2550  0.5762 -0.2602
  271MOL0     C35704   9.838   9.398   0.757 -0.2660 -0.4562 -0.6222
  271MOL0     C35705  10.407   9.821   1.160  0.3501  0.0988  0.2963
  271MOL0     C35706  10.514   9.896   1.214 -0.6468  0.3511 -0.0145
  271MOL0     H35707  10.930  10.137   1.150  2.2266 -1.0512 -0.1447
  271MOL0     H35708  11.143  10.197   1.218 -1.9593  2.9030 -2.5456
  271MOL0     H35709  11.374  10.327   1.560 -0.9226 -0.9797  2.2742
  271MOL0     H35710  11.231  10.288   1.645  0.3009 -0.1994  1.1666
  271MOL0     H35711  11.254  10.526   1.615  0.5670 -0.6563  0.7136
  271MOL0     H35712  11.110  10.478   1.515  0.3197  1.2756 -0.9224
  271MOL0     H35713  11.261  10.451   1.306 -0.3618 -0.1897  1.0019
  271MOL0     H35714  11.382  10.531   1.391  0.2484 -1.6195  1.0411
  271MOL0     H35715  11.095  10.643   1.343  0.7243 -0.2775  0.6622
  271MOL0     H35716  11.230  10.739   1.398 -1.7659  0.0634 -0.3001
  271MOL0     H35717  11.372  10.695   1.189  0.4077 -1.2124 -0.1902
  271MOL0     H35718  11.207  10.775   1.173  0.3398  0.4432  1.8383
  271MOL0     H35719  11.278  10.490   1.114  2.8240  1.6081  1.7392
  271MOL0     H35720  11.261  10.627   0.995  0.0241 -3.3538 -1.3240
  271MOL0     H35721  11.038  10.497   1.124 -0.3345 -2.1529 -1.3099
  271MOL0     H35722  11.022  10.661   1.055 -1.8481 -0.9220  1.4172
  271MOL0     H35723  11.072  10.384   0.914 -1.7143 -0.8421 -1.4009
  271MOL0     H35724  11.100  10.540   0.840  2.4212 -0.9835  1.0000
  271MOL0     H35725  10.807  10.396   1.077 -2.2568 -1.9917 -1.3591
  271MOL0     H35726  10.514  10.572   1.005 -1.9771 -0.1722 -0.2259
  271MOL0     H35727  10.562  10.428   1.094  0.6095 -0.2185  0.5312
  271MOL0     H35728  10.360  10.348   0.989  0.1904 -3.0810 -1.0662
  271MOL0     H35729  10.505  10.303   0.882  0.2441  1.0054 -1.5245
  271MOL0     H35730  10.440  10.525   0.759  1.1600  1.0750  2.6853
  271MOL0     H35731  10.333  10.392   0.741  2.2861  0.3030 -1.3613
  271MOL0     H35732  10.276  10.630   0.918 -0.0851 -1.0972  1.3217
  271MOL0     H35733  10.186  10.476   0.909  0.9145  1.1170  1.8707
  271MOL0     H35734  10.017  10.590   0.980  1.3907 -1.2784 -1.6747
  271MOL0     H35735   9.801  10.674   1.015  2.0059 -1.3845  0.8394
  271MOL0     H35736   9.560  11.028   0.555 -0.7248  1.8170 -0.2478
  271MOL0     H35737   9.393  11.225   0.570  1.0992 -1.3357 -1.6332
  271MOL0     H35738   9.227  11.359   0.600 -0.6806  0.1134 -1.7735
  271MOL0     H35739   9.102  11.402   0.711 -0.1575 -0.3374  0.3150
  271MOL0     H35740   9.092  11.171   0.497 -2.2863 -2.7912  1.5657
  271MOL0     H35741   9.011  11.328   0.481  0.7570  0.2976  0.3071
  271MOL0     H35742   8.888  11.295   0.688 -2.2931  3.4552 -4.7639
  271MOL0     H35743   8.944  11.122   0.684 -0.4470  2.4622  2.6701
  271MOL0     H35744   8.769  11.282   0.489 -0.2476  0.7636  2.1934
  271MOL0     H35745   8.851  11.127   0.448  1.0324  0.1577  0.1885
  271MOL0     H35746   8.652  11.207   0.667  1.1057  0.0365  0.4146
  271MOL0     H35747   8.740  11.051   0.662 -1.6544 -0.7615 -2.1357
  271MOL0     H35748   8.639  11.018   0.425 -1.1922 -1.1119  0.1736
  271MOL0     H35749   8.552  11.172   0.452 -2.3161  0.2798  2.0682
  271MOL0     H35750   8.511  10.951   0.646 -0.7217  0.3476  1.4492
  271MOL0     H35751   8.421  11.112   0.623  1.0081  0.2440  0.0972
  271MOL0     H35752   8.333  11.011   0.408  3.3045  1.8085 -0.2533
  271MOL0     H35753   8.280  10.914   0.539 -1.5081  2.0310  0.2019
  271MOL0     H35754   9.205  11.004   0.885 -1.3072  3.5962 -0.5351
  271MOL0     H35755   9.367  10.822   0.864 -0.1678  0.7497  1.5640
  271MOL0     H35756   9.777  10.754   0.581 -1.2726  0.2186  0.1018
  271MOL0     H35757  10.008  10.672   0.561  0.5290  0.9441 -0.0003
  271MOL0     H35758  11.034  10.202   1.631 -0.8183  1.7508  0.7208
  271MOL0     H35759  10.814  10.105   1.565  0.2189 -0.2032  0.0204
  271MOL0     H35760  10.388  10.206   1.180  2.8146 -0.1949 -2.4002
  271MOL0     H35761  10.204  10.071   1.088  1.2973  1.6984 -1.5422
  271MOL0     H35762  10.178   9.649   1.141  1.0556  0.6875  1.2630
  271MOL0     H35763  10.281   9.665   1.002 -0.6268  1.1640 -1.8199
  271MOL0     H35764  10.094   9.708   0.861  1.5340  0.3172  0.7178
  271MOL0     H35765  10.119   9.543   0.927  0.1819  0.6196  1.2453
  271MOL0     H35766   9.905   9.728   1.054 -0.1795 -1.0523  1.2814
  271MOL0     H35767   9.925   9.558   1.084  1.8542  0.7526  2.2665
  271MOL0     H35768   9.738   9.636   0.936  0.5167  0.7819  1.3489
  271MOL0     H35769   9.841   9.718   0.827 -3.2319  1.4396  2.5068
  271MOL0     H35770   9.858   9.317   0.690  1.5791  0.1895 -0.9082
  271MOL0     H35771  10.404   9.713   1.171 -5.7968 -0.1682 -0.5611
  271MOL0     H35772  10.599   9.836   1.245  1.0873  1.4410 -2.3485
  272MOL0     O35773   7.321   1.504   0.943  0.4163  0.3561 -0.1075
  272MOL0     C35774   7.323   1.504   1.066  0.9732 -0.2063  0.8503
  272MOL0     O35775   7.211   1.533   1.135  0.3339 -0.3344  0.2267
  272MOL0     C35776   7.084   1.514   1.070  0.2960  1.0580  0.4771
  272MOL0     C35777   7.035   1.391   1.018  0.4086  0.6245  0.0369
  272MOL0     C35778   6.920   1.383   0.941  0.0273  0.2647 -0.0763
  272MOL0     C35779   6.831   1.496   0.942  0.5802  0.4732 -0.1758
  272MOL0     O35780   6.711   1.500   0.874  0.0632  0.0911 -0.3622
  272MOL0     C35781   6.681   1.417   0.764 -0.8634 -1.1221 -1.4847
  272MOL0     C35782   6.537   1.443   0.714 -0.7620 -0.1125  0.3892
  272MOL0     C35783   6.438   1.398   0.817 -0.1604  0.5166 -0.0656
  272MOL0     C35784   6.292   1.417   0.756 -1.3383  0.8464 -0.0885
  272MOL0     C35785   6.180   1.358   0.843  1.6667 -0.2329 -0.4963
  272MOL0     C35786   6.071   1.289   0.755  0.5830  0.3478  0.4508
  272MOL0     C35787   5.937   1.253   0.817  0.2143 -1.0736 -0.6742
  272MOL0     C35788   5.945   1.171   0.945  0.2579  0.1751  0.9488
  272MOL0     N35789   5.811   1.110   0.984 -1.3811 -0.3872  0.2497
  272MOL0     C35790   5.705   1.183   1.036 -0.2252  0.1614  0.2255
  272MOL0     C35791   5.610   1.092   1.069 -0.2169 -0.1907  0.2365
  272MOL0     C35792   5.496   1.118   1.159  0.3922 -0.2476  0.5988
  272MOL0     C35793   5.400   1.000   1.152 -0.3957 -0.4770  1.2628
  272MOL0     C35794   5.272   1.026   1.221  0.3670 -0.2759 -0.1136
  272MOL0     C35795   5.174   1.118   1.152 -1.1409  1.0985 -0.7518
  272MOL0     O35796   5.146   1.083   1.022  0.5817  0.5631 -0.0767
  272MOL0     C35797   5.038   0.995   0.994 -0.8661 -0.6708  0.0735
  272MOL0     C35798   4.997   0.978   0.858  0.5591  0.4211  0.5445
  272MOL0     C35799   4.879   0.915   0.823  0.5124  0.2179  0.1569
  272MOL0     C35800   4.800   0.849   0.921  0.0998 -0.0625 -0.3966
  272MOL0     C35801   4.679   0.782   0.873  1.1118 -0.2647 -0.1473
  272MOL0     O35802   4.604   0.727   0.977  0.6545  0.4295  0.7308
  272MOL0     C35803   4.479   0.671   0.942 -0.4483  0.7511  0.0130
  272MOL0     C35804   4.365   0.685   1.022  0.1372 -0.3636 -0.1421
  272MOL0     C35805   4.243   0.624   0.994  0.6253 -0.9446 -0.6415
  272MOL0     C35806   4.229   0.530   0.893 -0.1561 -0.3688  0.2909
  272MOL0     O35807   4.109   0.464   0.877  0.5071  0.0526 -0.4571
  272MOL0     C35808   4.091   0.385   0.764  0.3948 -0.0663 -0.6963
  272MOL0     C35809   3.940   0.339   0.764  0.3277 -0.7219  0.3726
  272MOL0     C35810   3.882   0.291   0.901  0.0528  0.3141  0.3719
  272MOL0     C35811   3.981   0.194   0.980 -0.2469  0.6597  0.4464
  272MOL0     C35812   4.013   0.059   0.908 -0.4591  0.5002  0.2849
  272MOL0     C35813   3.889  -0.031   0.899 -0.4483  0.1865  0.1382
  272MOL0     C35814   3.894  -0.139   0.789  0.3367 -1.0682 -1.2330
  272MOL0     C35815   3.769  -0.228   0.806  0.9303  0.0522 -1.2983
  272MOL0    Cl35816   3.637  -0.140   0.723 -0.2693  0.2796  0.6844
  272MOL0     C35817   4.342   0.508   0.811 -0.1110  0.4745  0.6724
  272MOL0     C35818   4.462   0.573   0.842 -0.5592 -0.5642 -0.0392
  272MOL0     O35819   4.652   0.781   0.753  0.2630  0.7592  0.2682
  272MOL0     C35820   4.842   0.857   1.048 -0.7655  0.0323 -0.9451
  272MOL0     C35821   4.953   0.933   1.089 -0.1815  0.3527 -1.2359
  272MOL0     N35822   5.662   0.962   1.041  0.2726  0.1689 -0.1288
  272MOL0     N35823   5.775   0.975   0.986 -0.1494  0.1753 -0.0061
  272MOL0     C35824   6.869   1.616   1.003  1.2485  0.7432 -0.9159
  272MOL0     C35825   6.996   1.628   1.055 -0.7150 -0.3235  0.6170
  272MOL0     C35826   7.448   1.518   1.133 -0.3043 -0.5676 -0.6158
  272MOL0     C35827   7.571   1.538   1.064  0.2275 -0.1737 -0.4886
  272MOL0     C35828   7.683   1.525   1.138  0.1564  0.5972 -0.2159
  272MOL0     C35829   7.691   1.504   1.276  0.5211  0.7498 -0.3968
  272MOL0     O35830   7.821   1.483   1.334 -0.1086  0.4669  0.1634
  272MOL0     C35831   7.942   1.485   1.259  0.0318 -0.1671  0.3522
  272MOL0     C35832   8.060   1.411   1.333  0.1940 -0.4975 -0.1799
  272MOL0     C35833   8.085   1.471   1.467 -0.3592  0.5789 -0.2708
  272MOL0     C35834   8.229   1.422   1.512  0.5645 -0.2567  1.0055
  272MOL0     C35835   8.223   1.279   1.536  0.1295  0.4089  0.3359
  272MOL0     C35836   8.198   1.163   1.556 -0.5970  0.1736  0.7360
  272MOL0     C35837   7.572   1.492   1.346 -0.3456  1.0204  0.2925
  272MOL0     C35838   7.451   1.491   1.270 -0.6686  0.2871 -0.1865
  272MOL0     H35839   7.096   1.302   1.028 -0.9135 -0.2670  0.2626
  272MOL0     H35840   6.885   1.290   0.896 -0.6121  1.6724 -2.6562
  272MOL0     H35841   6.701   1.311   0.784  1.3787 -0.8016 -1.7926
  272MOL0     H35842   6.754   1.440   0.685  0.0287  0.3661 -0.2754
  272MOL0     H35843   6.520   1.388   0.621 -1.1567 -1.0000  0.9713
  272MOL0     H35844   6.537   1.551   0.701  1.0983  0.1649  2.1412
  272MOL0     H35845   6.456   1.458   0.907  3.2659  1.5105 -1.2494
  272MOL0     H35846   6.451   1.291   0.830  0.8735  0.5061 -1.0229
  272MOL0     H35847   6.272   1.524   0.755  0.1603  1.1965  1.8676
  272MOL0     H35848   6.274   1.369   0.659 -3.5651  1.2363  0.0810
  272MOL0     H35849   6.130   1.441   0.894  4.8703  0.0057  2.6592
  272MOL0     H35850   6.211   1.286   0.919  0.0235 -1.1833 -0.6701
  272MOL0     H35851   6.116   1.207   0.699  1.4717  1.1859 -0.0767
  272MOL0     H35852   6.046   1.368   0.684 -0.9414  1.5577  2.2450
  272MOL0     H35853   5.885   1.345   0.847  1.4991 -1.4812  3.5106
  272MOL0     H35854   5.876   1.195   0.749  0.2967 -3.1415  0.9125
  272MOL0     H35855   5.990   1.224   1.030 -0.4464  0.6990  1.0006
  272MOL0     H35856   6.021   1.093   0.932  1.7601  1.2754  2.6248
  272MOL0     H35857   5.708   1.287   1.067 -0.6469 -0.0680  1.0354
  272MOL0     H35858   5.439   1.202   1.119 -0.0478 -0.3976  0.9066
  272MOL0     H35859   5.525   1.130   1.264 -0.3305 -0.9664  0.8898
  272MOL0     H35860   5.448   0.911   1.194  0.3198 -0.4938  0.4262
  272MOL0     H35861   5.371   0.986   1.048  1.8697  2.0095  0.1838
  272MOL0     H35862   5.225   0.928   1.215  1.1558 -0.9280  2.8513
  272MOL0     H35863   5.290   1.047   1.327 -0.3060 -3.4023  0.7181
  272MOL0     H35864   5.211   1.221   1.150  0.0271  0.8369  2.3998
  272MOL0     H35865   5.084   1.126   1.214 -1.0517  1.2273 -0.6375
  272MOL0     H35866   5.070   1.010   0.784  1.0383 -0.0992  0.7907
  272MOL0     H35867   4.848   0.911   0.719 -1.5415 -1.5695  0.7718
  272MOL0     H35868   4.372   0.746   1.112 -3.4522  1.7936 -1.1002
  272MOL0     H35869   4.156   0.660   1.048  3.3832  1.4828  2.6389
  272MOL0     H35870   4.137   0.286   0.759 -2.8594 -1.7039 -5.3464
  272MOL0     H35871   4.123   0.442   0.676  3.6206 -0.2881  0.2320
  272MOL0     H35872   3.941   0.264   0.685  4.4944 -0.3397 -0.1739
  272MOL0     H35873   3.878   0.427   0.743  0.5602 -0.3151  1.3414
  272MOL0     H35874   3.786   0.241   0.883  0.7274 -0.2097 -2.0266
  272MOL0     H35875   3.853   0.374   0.966 -2.2536 -1.8755  2.3520
  272MOL0     H35876   4.076   0.245   0.998  1.1996 -2.1703  1.4499
  272MOL0     H35877   3.945   0.166   1.079  0.6890  1.3266  0.9890
  272MOL0     H35878   4.084   0.003   0.970 -0.4205  0.4274  0.1760
  272MOL0     H35879   4.057   0.076   0.810 -2.2641 -0.2558 -0.7049
  272MOL0     H35880   3.791   0.016   0.887 -0.5915 -0.3980 -1.0992
  272MOL0     H35881   3.881  -0.078   0.998  0.6880  0.7140  0.5100
  272MOL0     H35882   3.878  -0.079   0.699  4.0431  1.5756 -0.3462
  272MOL0     H35883   3.992  -0.186   0.800  1.0685 -0.0051 -2.7812
  272MOL0     H35884   3.739  -0.255   0.907  1.4434  2.0224 -0.5838
  272MOL0     H35885   3.787  -0.327   0.762  2.2352 -0.6983  0.7539
  272MOL0     H35886   4.351   0.431   0.736  0.6654  1.3506 -0.1611
  272MOL0     H35887   4.554   0.542   0.794  1.3703  1.2734  2.2954
  272MOL0     H35888   4.782   0.817   1.129  1.3320 -0.4104  0.4804
  272MOL0     H35889   4.967   0.946   1.196 -0.0079  1.4584 -1.3841
  272MOL0     H35890   6.791   1.691   1.004 -1.6115 -2.0082 -0.8609
  272MOL0     H35891   7.038   1.715   1.104  1.5549 -0.7373 -0.4799
  272MOL0     H35892   7.579   1.548   0.956  1.0669  0.2878 -0.3927
  272MOL0     H35893   7.780   1.540   1.091  1.1277 -0.1458  1.4359
  272MOL0     H35894   7.964   1.590   1.241 -2.1059  0.1148 -0.9320
  272MOL0     H35895   7.932   1.432   1.163 -0.4383 -1.4320  1.0659
  272MOL0     H35896   8.026   1.307   1.331  1.4108 -0.9190  0.0271
  272MOL0     H35897   8.154   1.406   1.278  1.2345  0.9658  1.3699
  272MOL0     H35898   8.013   1.428   1.538  3.6867 -5.2831  0.9955
  272MOL0     H35899   8.085   1.580   1.471  1.2894  0.5883  0.1080
  272MOL0     H35900   8.312   1.450   1.447  0.9429 -2.6101  0.4083
  272MOL0     H35901   8.251   1.486   1.599  2.1871  0.3932  0.1563
  272MOL0     H35902   8.197   1.061   1.589 -0.1264  0.9438  3.3847
  272MOL0     H35903   7.575   1.471   1.452  0.7308  0.7302  0.2187
  272MOL0     H35904   7.360   1.461   1.322  1.0949 -1.7479  1.9631
  273MOL0     O35905   3.757   2.816   7.476  0.1796  0.1742 -0.5662
  273MOL0     C35906   3.829   2.757   7.392  0.3642 -0.8712 -0.1492
  273MOL0     O35907   3.784   2.683   7.290 -0.1297 -0.6316 -0.8464
  273MOL0     C35908   3.648   2.684   7.256 -0.5133 -0.4870  0.1104
  273MOL0     C35909   3.573   2.805   7.241 -0.3876 -0.8739 -0.7978
  273MOL0     C35910   3.435   2.795   7.223 -0.1553 -0.2189 -0.1472
  273MOL0     C35911   3.366   2.668   7.215 -0.0652  0.3550 -0.0658
  273MOL0     O35912   3.225   2.638   7.210 -1.3958 -0.1185  0.1510
  273MOL0     C35913   3.150   2.720   7.125  0.3797 -0.4304  0.2397
  273MOL0     C35914   3.041   2.622   7.065  1.2044 -0.1453  0.0990
  273MOL0     C35915   2.951   2.704   6.978  0.3503  0.3471 -0.5034
  273MOL0     C35916   2.845   2.625   6.918 -0.5027 -0.8736  0.4483
  273MOL0     C35917   2.755   2.735   6.856  1.0045 -0.0672  1.1478
  273MOL0     C35918   2.633   2.668   6.779 -0.3067 -0.5314  0.5216
  273MOL0     C35919   2.505   2.762   6.762 -0.3473 -0.1733  0.2916
  273MOL0     C35920   2.511   2.861   6.645 -0.7247  0.2171  0.4769
  273MOL0     N35921   2.589   2.788   6.535 -1.0868  0.2239  0.3953
  273MOL0     C35922   2.718   2.825   6.486  0.1171  0.2937 -1.2167
  273MOL0     C35923   2.748   2.730   6.389 -0.0646 -0.0037  0.0476
  273MOL0     C35924   2.879   2.722   6.308 -0.5838  0.1661 -0.4947
  273MOL0     C35925   2.990   2.641   6.381  0.6461 -0.1396  0.9305
  273MOL0     C35926   3.042   2.717   6.495 -0.2231  0.2944 -0.2517
  273MOL0     C35927   3.117   2.634   6.607 -0.0260  0.0807 -0.9061
  273MOL0     O35928   3.164   2.729   6.702 -0.2383 -0.2382  0.5308
  273MOL0     C35929   3.293   2.729   6.735  0.2578  0.2118 -0.2633
  273MOL0     C35930   3.372   2.839   6.689 -1.1247  0.4365 -0.4387
  273MOL0     C35931   3.510   2.842   6.740  0.0508 -0.0922  0.8104
  273MOL0     C35932   3.563   2.748   6.835 -0.8495 -0.5435  0.2730
  273MOL0     C35933   3.703   2.769   6.880  0.2679  0.6600  0.0917
  273MOL0     O35934   3.767   2.890   6.846 -0.1600  0.1333  0.3885
  273MOL0     C35935   3.880   2.932   6.894  0.0802 -0.1223 -1.0562
  273MOL0     C35936   3.937   2.889   7.017 -0.1099 -0.2657  0.3083
  273MOL0     C35937   4.054   2.953   7.059  0.9428  0.0881 -0.1216
  273MOL0     C35938   4.116   3.061   6.994  0.2667 -0.1277 -0.4150
  273MOL0     O35939   4.233   3.107   7.045  0.2315 -0.2758 -0.3477
  273MOL0     C35940   4.293   3.214   6.975  0.7750  0.5467 -0.0017
  273MOL0     C35941   4.421   3.268   7.044  0.3641  0.5005  0.1262
  273MOL0     C35942   4.486   3.394   6.983 -0.4567  0.3025 -0.4728
  273MOL0     C35943   4.591   3.469   7.070 -0.7365 -0.3797  0.6824
  273MOL0     C35944   4.521   3.533   7.195 -0.0915 -0.5953 -1.8890
  273MOL0     C35945   4.423   3.641   7.171  0.1157 -0.7444  0.7352
  273MOL0     C35946   4.462   3.759   7.064  0.1744 -0.3167  0.0594
  273MOL0     C35947   4.372   3.881   7.072 -0.2818 -0.1022 -0.6508
  273MOL0    Cl35948   4.196   3.853   7.046 -0.2610  0.0201  0.0725
  273MOL0     C35949   4.049   3.103   6.879 -0.4403 -0.3090 -0.3921
  273MOL0     C35950   3.938   3.034   6.825  0.1114  0.2676 -0.7285
  273MOL0     O35951   3.757   2.663   6.923  0.2558 -0.3086 -0.9352
  273MOL0     C35952   3.477   2.642   6.879 -0.0827 -0.6484 -0.0329
  273MOL0     C35953   3.347   2.632   6.820 -0.5212 -0.1574  0.1672
  273MOL0     N35954   2.644   2.640   6.386 -0.2353 -0.1953 -0.2493
  273MOL0     N35955   2.549   2.674   6.475  0.1056 -0.5569  0.0193
  273MOL0     C35956   3.452   2.555   7.219 -0.5478  0.4585 -0.7685
  273MOL0     C35957   3.586   2.561   7.245  0.3177 -0.7669  0.7569
  273MOL0     C35958   3.980   2.766   7.411 -0.4665 -0.0181  0.5275
  273MOL0     C35959   4.054   2.677   7.335  0.4268  0.6772  0.8762
  273MOL0     C35960   4.194   2.689   7.327  0.8696 -0.5038  0.5333
  273MOL0     C35961   4.259   2.800   7.394 -0.0866 -0.0504  0.2527
  273MOL0     O35962   4.395   2.827   7.402 -0.3503 -0.4203 -0.7035
  273MOL0     C35963   4.480   2.773   7.296  0.1339 -0.8842  0.1995
  273MOL0     C35964   4.610   2.857   7.304 -0.5906 -0.0578 -0.2083
  273MOL0     C35965   4.707   2.812   7.196 -0.0496  1.3352 -0.0874
  273MOL0     C35966   4.826   2.920   7.192 -0.1656  0.3576 -0.3940
  273MOL0     C35967   4.926   2.873   7.091  0.8297  0.2641  0.4434
  273MOL0     C35968   5.007   2.833   7.011 -1.1510 -0.7709  0.1666
  273MOL0     C35969   4.179   2.877   7.478  0.5548 -0.3876  0.5493
  273MOL0     C35970   4.042   2.860   7.489  0.6588  0.1579  0.7899
  273MOL0     H35971   3.620   2.902   7.253 -1.9684 -0.1391 -0.2310
  273MOL0     H35972   3.387   2.892   7.218 -1.5005 -0.6836  2.0885
  273MOL0     H35973   3.216   2.766   7.051 -0.3399 -0.6264 -0.5471
  273MOL0     H35974   3.102   2.801   7.182  0.1559 -0.7107  0.4502
  273MOL0     H35975   2.984   2.569   7.143  1.2697 -1.2270 -0.5740
  273MOL0     H35976   3.092   2.537   7.019  1.9257  2.1197 -3.6414
  273MOL0     H35977   3.004   2.748   6.894  0.0654 -0.5252 -1.1551
  273MOL0     H35978   2.912   2.786   7.038  0.4518 -0.0932  0.1801
  273MOL0     H35979   2.893   2.557   6.847  0.6906  0.7519 -0.3604
  273MOL0     H35980   2.786   2.564   6.987 -1.6727  0.3514  0.5621
  273MOL0     H35981   2.807   2.794   6.780 -0.1767 -2.1532 -1.4694
  273MOL0     H35982   2.708   2.804   6.926  2.0178  2.3517 -0.4262
  273MOL0     H35983   2.607   2.585   6.846 -0.4096  1.3725  2.9786
  273MOL0     H35984   2.661   2.623   6.684 -2.0880  0.0088 -0.2895
  273MOL0     H35985   2.415   2.700   6.760  0.9377 -2.2536  2.2428
  273MOL0     H35986   2.486   2.815   6.857 -1.9230 -1.8726  0.9796
  273MOL0     H35987   2.571   2.948   6.674 -0.5149  0.4427 -0.5913
  273MOL0     H35988   2.415   2.899   6.607  0.3612  0.0614 -2.7622
  273MOL0     H35989   2.778   2.909   6.521  1.9467 -1.3117 -0.3248
  273MOL0     H35990   2.923   2.820   6.284  0.2688 -0.1867 -0.4257
  273MOL0     H35991   2.859   2.672   6.213 -1.3193  0.4178 -0.4756
  273MOL0     H35992   3.063   2.595   6.314 -2.3540 -1.9791 -1.2730
  273MOL0     H35993   2.948   2.550   6.425 -0.6748 -1.6518 -3.0946
  273MOL0     H35994   3.124   2.785   6.470  0.9174 -0.5108  1.1584
  273MOL0     H35995   2.958   2.767   6.544 -1.9433 -3.5292  1.0887
  273MOL0     H35996   3.205   2.578   6.574  1.4354  1.6229  0.2618
  273MOL0     H35997   3.048   2.568   6.660 -0.9155  2.1310  0.6224
  273MOL0     H35998   3.334   2.922   6.631 -0.4606  1.8590  1.0924
  273MOL0     H35999   3.572   2.914   6.688 -1.4979  1.0034  0.3711
  273MOL0     H36000   3.909   2.800   7.072  2.8080 -0.9922  0.8019
  273MOL0     H36001   4.089   2.908   7.151 -0.3770  2.1425  1.4711
  273MOL0     H36002   4.222   3.296   6.964  1.2650  0.9459 -0.2537
  273MOL0     H36003   4.316   3.176   6.875 -0.9644  1.5299 -0.8161
  273MOL0     H36004   4.496   3.188   7.047  0.9656  1.0489  0.0915
  273MOL0     H36005   4.395   3.301   7.145 -2.7217 -0.6584 -0.1991
  273MOL0     H36006   4.413   3.472   6.957  1.9576  1.8353 -3.2878
  273MOL0     H36007   4.536   3.374   6.887 -0.5975  3.8945 -1.4603
  273MOL0     H36008   4.678   3.406   7.091  1.9191  3.1894  1.3246
  273MOL0     H36009   4.637   3.549   7.012  2.3562 -0.2101  3.0550
  273MOL0     H36010   4.602   3.585   7.247  0.3278 -0.6043 -2.5261
  273MOL0     H36011   4.481   3.463   7.268  0.8957  1.1330  0.4773
  273MOL0     H36012   4.411   3.696   7.265  1.9142  0.1877  0.4723
  273MOL0     H36013   4.330   3.603   7.130 -0.0652  0.6912 -0.2626
  273MOL0     H36014   4.566   3.790   7.078  0.8106 -1.1062 -2.4296
  273MOL0     H36015   4.435   3.727   6.963  0.9039 -0.0725 -0.2190
  273MOL0     H36016   4.410   3.947   6.994  2.1479 -0.8083 -0.1455
  273MOL0     H36017   4.387   3.932   7.168 -1.1559 -2.3807  0.7736
  273MOL0     H36018   4.077   3.185   6.814  0.6195  0.7373  1.2952
  273MOL0     H36019   3.893   3.064   6.731 -0.2732  2.6400  0.1483
  273MOL0     H36020   3.515   2.581   6.961 -1.5421 -2.0573 -0.3478
  273MOL0     H36021   3.284   2.551   6.855 -0.3683 -0.8264 -1.0481
  273MOL0     H36022   3.395   2.464   7.205 -2.0469  1.5681 -2.3990
  273MOL0     H36023   3.634   2.465   7.255 -2.4823 -2.5017 -0.9506
  273MOL0     H36024   4.011   2.598   7.274 -0.3567  4.3113 -3.8303
  273MOL0     H36025   4.253   2.624   7.263 -0.2362  1.2077 -2.4275
  273MOL0     H36026   4.423   2.786   7.203 -2.3859 -0.1775  1.7293
  273MOL0     H36027   4.497   2.670   7.329  1.1144 -0.1610  2.1236
  273MOL0     H36028   4.579   2.961   7.289 -0.5057 -0.0464 -0.3045
  273MOL0     H36029   4.649   2.839   7.405  0.7965 -0.7549 -0.8542
  273MOL0     H36030   4.643   2.799   7.109 -1.5786 -0.4023  1.2137
  273MOL0     H36031   4.746   2.712   7.216 -0.6348  0.3817 -3.1994
  273MOL0     H36032   4.795   3.018   7.154  1.6411  2.1488  2.3774
  273MOL0     H36033   4.883   2.937   7.283 -0.7017  0.7133 -0.1180
  273MOL0     H36034   5.070   2.790   6.936 -0.5426 -3.5849  2.1264
  273MOL0     H36035   4.228   2.932   7.558  1.0017 -3.1860  2.3677
  273MOL0     H36036   3.982   2.924   7.553  1.3910  3.6919 -1.7613
  274MOL0     O36037  10.502   9.484   4.779 -0.5501  0.7905 -0.7814
  274MOL0     C36038  10.525   9.528   4.892 -1.1337  0.5075  0.5124
  274MOL0     O36039  10.438   9.520   4.999 -0.1959 -0.5090  0.4892
  274MOL0     C36040  10.309   9.476   4.984  0.6189 -0.5722  0.1730
  274MOL0     C36041  10.224   9.508   4.881  0.4562  0.7787 -0.4678
  274MOL0     C36042  10.095   9.449   4.870  0.0731 -0.3612  0.5195
  274MOL0     C36043  10.046   9.363   4.973 -0.2243 -0.4246  0.3500
  274MOL0     O36044   9.915   9.332   4.966  0.1418  0.3222  0.2873
  274MOL0     C36045   9.852   9.290   5.095 -0.3039  0.0710  0.2435
  274MOL0     C36046   9.693   9.285   5.077  1.3089 -0.1477  0.2901
  274MOL0     C36047   9.628   9.417   5.047  0.4668 -0.5134  0.4527
  274MOL0     C36048   9.623   9.431   4.898  0.5973  0.5254 -0.3193
  274MOL0     C36049   9.507   9.520   4.843 -0.0422 -0.0319 -0.0358
  274MOL0     C36050   9.511   9.658   4.903 -0.7429 -0.2343 -0.3119
  274MOL0     C36051   9.651   9.715   4.866  0.5729 -1.0672  0.4592
  274MOL0     C36052   9.638   9.868   4.830 -0.1858 -0.7325 -0.6185
  274MOL0     N36053   9.778   9.923   4.850 -0.3074 -0.4926 -0.9878
  274MOL0     C36054   9.795  10.062   4.878 -0.0378  0.7077 -0.1348
  274MOL0     C36055   9.926  10.087   4.856  0.2384  0.4092  0.2709
  274MOL0     C36056  10.006  10.219   4.889  0.1120 -0.0390  0.3412
  274MOL0     C36057   9.964  10.255   5.034  0.3160 -0.2308  1.1188
  274MOL0     C36058  10.043  10.383   5.084  0.6337 -0.4896 -0.2860
  274MOL0     C36059  10.191  10.370   5.084 -1.1385 -0.4626 -0.6596
  274MOL0     O36060  10.253  10.448   4.977  0.2589  0.2363  0.1078
  274MOL0     C36061  10.367  10.400   4.906  0.5051  0.2834 -0.7717
  274MOL0     C36062  10.388  10.432   4.770 -0.1334 -0.1424  0.6024
  274MOL0     C36063  10.513  10.401   4.715 -0.5268 -0.2366 -0.5529
  274MOL0     C36064  10.614  10.343   4.797 -0.2946 -0.4285 -0.0026
  274MOL0     C36065  10.751  10.314   4.748  0.0487 -0.2702  0.4783
  274MOL0     O36066  10.845  10.275   4.838 -0.6887 -0.5184  0.4518
  274MOL0     C36067  10.971  10.246   4.785 -0.0222 -0.0333 -0.6525
  274MOL0     C36068  10.998  10.130   4.725 -0.0773 -0.0271 -0.7020
  274MOL0     C36069  11.121  10.102   4.676 -0.3998 -0.0288 -0.4479
  274MOL0     C36070  11.224  10.200   4.678  0.1352 -0.5275  0.8012
  274MOL0     O36071  11.358  10.171   4.633  1.1087 -0.4205  0.0682
  274MOL0     C36072  11.401  10.028   4.622  0.3575  0.0594 -0.9436
  274MOL0     C36073  11.556  10.028   4.615 -0.3093  0.1295  0.4851
  274MOL0     C36074  11.621   9.895   4.605  0.4210 -0.0426 -0.3174
  274MOL0     C36075  11.772   9.911   4.601  1.0866 -0.1983  0.1876
  274MOL0     C36076  11.849   9.779   4.586 -0.4945 -0.3987  0.3345
  274MOL0     C36077  11.994   9.805   4.548 -0.1974  0.0952  0.6244
  274MOL0     C36078  12.017   9.831   4.396  0.9486 -0.4260 -0.2255
  274MOL0     C36079  12.167   9.833   4.370 -0.3654 -0.3496 -0.0888
  274MOL0    Cl36080  12.264   9.684   4.408 -0.1689  0.1922  0.0626
  274MOL0     C36081  11.192  10.330   4.729  0.2450 -0.0742 -1.3023
  274MOL0     C36082  11.069  10.351   4.785  0.4810  0.0578  0.0662
  274MOL0     O36083  10.768  10.318   4.626  0.2647 -0.3565 -0.2525
  274MOL0     C36084  10.589  10.315   4.935 -0.7002  0.0527 -0.2305
  274MOL0     C36085  10.465  10.348   4.990 -0.9077  0.2687 -0.6276
  274MOL0     N36086   9.988   9.967   4.812 -0.0915 -0.2652  0.4430
  274MOL0     N36087   9.889   9.885   4.794  0.6105  0.8293 -0.0437
  274MOL0     C36088  10.135   9.325   5.076  0.0106  0.0732 -0.0504
  274MOL0     C36089  10.261   9.381   5.077  0.3932  0.7134  0.3905
  274MOL0     C36090  10.645   9.606   4.915  0.1377  1.6892 -0.2395
  274MOL0     C36091  10.748   9.585   4.822 -0.2203 -1.4374 -0.4627
  274MOL0     C36092  10.879   9.641   4.838 -0.7075  0.3048 -0.4786
  274MOL0     C36093  10.900   9.718   4.954  1.0580 -0.0721 -0.3507
  274MOL0     O36094  11.020   9.782   4.983  0.0472  0.4607  0.2925
  274MOL0     C36095  11.137   9.752   4.910  0.1857 -1.1919 -0.4552
  274MOL0     C36096  11.198   9.622   4.967  0.2967  0.0335 -0.0640
  274MOL0     C36097  11.355   9.614   4.970 -0.1897 -0.6771  0.6618
  274MOL0     C36098  11.414   9.603   4.830 -0.0766 -0.0132 -0.2103
  274MOL0     C36099  11.550   9.559   4.855 -0.6738  0.3358  0.6310
  274MOL0     C36100  11.663   9.504   4.884 -0.1850  0.5445 -1.0769
  274MOL0     C36101  10.791   9.750   5.034  0.3869 -0.8062  0.2058
  274MOL0     C36102  10.672   9.686   5.026  0.1157 -0.0778  0.7519
  274MOL0     H36103  10.250   9.588   4.812 -1.0318  0.9087 -0.9188
  274MOL0     H36104  10.024   9.463   4.789 -0.5839 -3.4485  0.4139
  274MOL0     H36105   9.882   9.356   5.177  0.4390  0.9151 -0.6877
  274MOL0     H36106   9.884   9.191   5.127  0.8613  0.4191  0.1993
  274MOL0     H36107   9.658   9.259   5.177 -1.5987 -2.7952 -1.2236
  274MOL0     H36108   9.650   9.202   5.019  1.3094 -0.5023  0.7944
  274MOL0     H36109   9.679   9.500   5.096  1.5295  1.0353 -2.9576
  274MOL0     H36110   9.527   9.424   5.087  0.9231 -0.5267  1.6572
  274MOL0     H36111   9.720   9.460   4.857  1.1085  0.0505  0.5147
  274MOL0     H36112   9.615   9.332   4.853 -0.8958 -0.2960  1.5745
  274MOL0     H36113   9.408   9.476   4.860 -0.1140 -0.9312 -2.4222
  274MOL0     H36114   9.524   9.537   4.737  2.3052  0.7194  0.4095
  274MOL0     H36115   9.497   9.658   5.012  4.3566  3.2382  0.7250
  274MOL0     H36116   9.429   9.723   4.873 -1.0984  1.1958  3.2102
  274MOL0     H36117   9.720   9.696   4.948  1.6462  0.2662 -0.0888
  274MOL0     H36118   9.702   9.657   4.789  0.9316 -1.7370  1.1873
  274MOL0     H36119   9.568   9.923   4.894 -1.2544 -0.3836 -2.0497
  274MOL0     H36120   9.610   9.884   4.726  1.1556  1.5824 -0.7026
  274MOL0     H36121   9.725  10.132   4.923 -1.3647 -1.8031  1.9728
  274MOL0     H36122   9.973  10.298   4.820 -1.6741 -1.7961 -0.9203
  274MOL0     H36123  10.114  10.206   4.878  0.1961 -1.2329  2.2446
  274MOL0     H36124   9.993  10.177   5.106  0.7692  0.3063  1.5344
  274MOL0     H36125   9.857  10.272   5.027 -0.0179 -2.0343  1.3017
  274MOL0     H36126  10.010  10.459   5.013 -0.9306  1.6754  2.5316
  274MOL0     H36127  10.009  10.405   5.186  1.1053 -0.2339 -0.1799
  274MOL0     H36128  10.232  10.269   5.074  2.0402  0.5731  0.5596
  274MOL0     H36129  10.214  10.414   5.181 -3.0643  0.5923 -0.6221
  274MOL0     H36130  10.312  10.464   4.700  1.1023 -1.2088 -1.3189
  274MOL0     H36131  10.533  10.393   4.609  1.1372 -1.8149 -0.1859
  274MOL0     H36132  10.927  10.049   4.717  1.1815 -1.2869  0.3678
  274MOL0     H36133  11.139  10.004   4.632  2.1179  1.8475 -4.0989
  274MOL0     H36134  11.350   9.993   4.532  0.5249 -2.1058 -0.2460
  274MOL0     H36135  11.380   9.964   4.708  1.5138 -1.0818 -1.4723
  274MOL0     H36136  11.590  10.077   4.706  0.9808  1.7858 -0.8267
  274MOL0     H36137  11.575  10.091   4.528 -3.4899 -4.1715 -3.8979
  274MOL0     H36138  11.579   9.846   4.518  0.9151 -0.9304 -0.0651
  274MOL0     H36139  11.591   9.835   4.692  0.1493  0.7872  0.1782
  274MOL0     H36140  11.794   9.991   4.530 -1.0967  0.9368  0.7025
  274MOL0     H36141  11.806   9.957   4.694  2.0592  3.0345 -1.6295
  274MOL0     H36142  11.798   9.716   4.513 -1.9989  2.9372 -1.7228
  274MOL0     H36143  11.850   9.736   4.687  3.1448 -0.9703  0.1643
  274MOL0     H36144  12.062   9.723   4.573  2.9026  2.2280 -0.2124
  274MOL0     H36145  12.030   9.891   4.606  3.0543  0.8062 -2.1093
  274MOL0     H36146  11.974   9.750   4.336 -1.8325 -0.2277  1.3075
  274MOL0     H36147  11.967   9.926   4.372  1.2535  0.1011  1.1274
  274MOL0     H36148  12.208   9.920   4.424  0.6477 -0.7836 -0.1321
  274MOL0     H36149  12.184   9.851   4.264  2.2047 -2.5947 -0.1749
  274MOL0     H36150  11.264  10.412   4.729  1.3541 -1.0206 -1.7342
  274MOL0     H36151  11.041  10.439   4.842 -0.0047  0.8243 -1.3006
  274MOL0     H36152  10.663  10.262   4.994 -0.1092  2.5649  1.4621
  274MOL0     H36153  10.460  10.331   5.097  0.9615  1.9217 -0.2081
  274MOL0     H36154  10.094   9.257   5.149 -0.4333 -1.2539 -1.4733
  274MOL0     H36155  10.323   9.359   5.163 -0.1027 -1.8920  0.1689
  274MOL0     H36156  10.735   9.523   4.734  0.4431  1.6849 -2.9507
  274MOL0     H36157  10.955   9.605   4.770  0.2182  0.8205  0.2534
  274MOL0     H36158  11.199   9.842   4.913 -1.7383  0.3722 -3.2598
  274MOL0     H36159  11.108   9.738   4.805 -0.7303  2.6486 -0.8702
  274MOL0     H36160  11.160   9.604   5.068  0.6200  0.4835  0.1409
  274MOL0     H36161  11.160   9.536   4.910  0.3108 -0.0343  0.0286
  274MOL0     H36162  11.384   9.523   5.023  0.0307 -1.8625 -1.3959
  274MOL0     H36163  11.403   9.702   5.014  2.8768 -2.1123  0.3807
  274MOL0     H36164  11.366   9.533   4.762 -1.1650 -0.2972  0.8126
  274MOL0     H36165  11.409   9.692   4.767  3.3155 -1.8106 -3.3736
  274MOL0     H36166  11.754   9.452   4.904 -1.1607 -0.6515  0.5362
  274MOL0     H36167  10.802   9.815   5.120 -3.4086 -1.0280  1.0266
  274MOL0     H36168  10.590   9.695   5.096 -2.2010  1.3560 -1.9410
  275MOL0     O36169  11.320   6.818   6.365 -0.5967  0.1583 -0.1621
  275MOL0     C36170  11.370   6.702   6.375  0.6760  0.2075 -1.9080
  275MOL0     O36171  11.306   6.597   6.432  0.3355  0.6467 -0.9721
  275MOL0     C36172  11.166   6.603   6.454 -0.7437 -0.1693  0.6556
  275MOL0     C36173  11.077   6.626   6.350  0.1972  0.3831  0.0420
  275MOL0     C36174  10.934   6.607   6.370 -1.0487  0.5147  0.7903
  275MOL0     C36175  10.891   6.551   6.487  0.3244  0.1831 -0.1454
  275MOL0     O36176  10.759   6.519   6.489  0.4612  0.6687 -0.2481
  275MOL0     C36177  10.706   6.428   6.589 -0.4886  0.0981  0.3285
  275MOL0     C36178  10.576   6.365   6.534  0.2512 -0.7123  0.8115
  275MOL0     C36179  10.465   6.472   6.506 -0.0647  0.7043  0.7377
  275MOL0     C36180  10.406   6.546   6.629  0.2037  0.0022 -0.0205
  275MOL0     C36181  10.302   6.463   6.710 -0.1493 -0.2602 -0.1708
  275MOL0     C36182  10.160   6.434   6.648 -0.7629  0.3223 -0.4033
  275MOL0     C36183  10.074   6.566   6.613 -0.4244  0.2753 -0.1883
  275MOL0     C36184   9.993   6.638   6.711  0.4453 -0.5281  0.1206
  275MOL0     N36185   9.856   6.580   6.718  0.2353  0.4188 -0.2322
  275MOL0     C36186   9.824   6.464   6.783 -0.8690 -0.2954 -1.3453
  275MOL0     C36187   9.690   6.465   6.805  0.1689 -0.8189 -0.2733
  275MOL0     C36188   9.627   6.339   6.853  0.6478  0.0786 -0.0509
  275MOL0     C36189   9.483   6.365   6.891  0.6641  0.7171  0.1211
  275MOL0     C36190   9.404   6.233   6.922  0.2416 -0.4361 -0.4966
  275MOL0     C36191   9.250   6.257   6.937 -0.2848 -0.0026 -0.1127
  275MOL0     O36192   9.186   6.261   6.807  0.7114  0.3214  0.1085
  275MOL0     C36193   9.046   6.289   6.798 -0.6988 -0.5857 -0.2697
  275MOL0     C36194   8.998   6.308   6.663  0.3281  0.6884  0.1901
  275MOL0     C36195   8.861   6.324   6.653  0.1008  0.0075  0.3037
  275MOL0     C36196   8.772   6.325   6.759 -0.2021 -0.0341  0.2616
  275MOL0     C36197   8.630   6.360   6.733  0.5832 -0.4381 -0.4804
  275MOL0     O36198   8.559   6.363   6.849 -0.3414 -0.3571 -0.8235
  275MOL0     C36199   8.426   6.396   6.846 -0.4505  0.4219 -0.3300
  275MOL0     C36200   8.330   6.337   6.934  0.3518 -0.0840 -0.7727
  275MOL0     C36201   8.196   6.359   6.915  0.3278  0.7616  0.0518
  275MOL0     C36202   8.151   6.454   6.827  0.3624 -0.5296 -0.3531
  275MOL0     O36203   8.009   6.467   6.825 -0.2769 -0.7173 -0.0172
  275MOL0     C36204   7.953   6.465   6.694  0.3857 -0.2650  0.6830
  275MOL0     C36205   7.800   6.428   6.690 -0.1565 -0.3268 -0.1018
  275MOL0     C36206   7.701   6.547   6.695  0.2798 -0.9053  0.3667
  275MOL0     C36207   7.559   6.488   6.681 -0.3763 -0.1583 -0.8471
  275MOL0     C36208   7.459   6.594   6.653 -0.1475  0.8330 -0.3552
  275MOL0     C36209   7.313   6.535   6.647 -0.6611  1.0081 -0.3085
  275MOL0     C36210   7.209   6.649   6.623  0.0017 -0.4410  0.1122
  275MOL0     C36211   7.079   6.595   6.568 -0.5740  0.4936 -0.1689
  275MOL0    Cl36212   6.994   6.517   6.700  0.0647 -0.1225 -0.2009
  275MOL0     C36213   8.249   6.536   6.769  0.0274  0.2374  0.5871
  275MOL0     C36214   8.384   6.504   6.774 -0.3322 -0.1393  0.3106
  275MOL0     O36215   8.581   6.367   6.617  0.4320 -0.0950  0.1334
  275MOL0     C36216   8.827   6.318   6.893 -0.2348  1.1690  0.5245
  275MOL0     C36217   8.960   6.297   6.915  0.1637 -0.6377 -0.1704
  275MOL0     N36218   9.642   6.589   6.769 -0.2557  0.7994  0.2197
  275MOL0     N36219   9.735   6.648   6.706 -0.7253  0.5509 -0.3089
  275MOL0     C36220  10.982   6.526   6.593 -0.2423 -0.2237 -0.5824
  275MOL0     C36221  11.117   6.544   6.568  0.1626 -0.6472 -0.7001
  275MOL0     C36222  11.513   6.681   6.349  0.5323 -0.5405  0.0738
  275MOL0     C36223  11.582   6.560   6.359  0.4505 -1.0971  0.5122
  275MOL0     C36224  11.716   6.535   6.336  0.0452  0.4007 -0.3185
  275MOL0     C36225  11.797   6.649   6.297 -0.6008  0.2877  0.0161
  275MOL0     O36226  11.928   6.619   6.269  0.1958  0.5445  0.0847
  275MOL0     C36227  12.024   6.720   6.249  0.1542 -0.0900 -1.0775
  275MOL0     C36228  12.106   6.710   6.119  1.3452 -0.2040  0.5364
  275MOL0     C36229  12.177   6.574   6.092 -0.0733  0.4577 -1.0211
  275MOL0     C36230  12.252   6.569   5.960  0.0358  0.4474  0.8288
  275MOL0     C36231  12.390   6.618   5.954  0.4016 -0.2548 -0.2278
  275MOL0     C36232  12.505   6.651   5.970 -0.1894 -0.4552 -0.0592
  275MOL0     C36233  11.730   6.769   6.275 -0.2943  0.2554  1.0495
  275MOL0     C36234  11.591   6.789   6.305 -1.0434  0.0825  0.6893
  275MOL0     H36235  11.117   6.672   6.261 -0.2318 -0.8108 -0.7927
  275MOL0     H36236  10.865   6.617   6.286  0.3058  1.5365 -0.2477
  275MOL0     H36237  10.693   6.491   6.678 -1.7824  1.4084 -0.7359
  275MOL0     H36238  10.783   6.354   6.614  0.8557  1.3668  0.0264
  275MOL0     H36239  10.529   6.293   6.601 -2.5303 -0.4180 -0.6306
  275MOL0     H36240  10.594   6.318   6.437 -1.7179  2.1612 -1.1266
  275MOL0     H36241  10.385   6.432   6.443  1.2604 -0.1704 -0.4496
  275MOL0     H36242  10.511   6.555   6.451  1.9439 -0.8640 -0.1057
  275MOL0     H36243  10.479   6.590   6.697  0.8574  1.4497 -1.5981
  275MOL0     H36244  10.360   6.638   6.594  1.0678  0.5922  0.3762
  275MOL0     H36245  10.279   6.504   6.808  2.8367  1.0610  0.0862
  275MOL0     H36246  10.340   6.363   6.736  0.5065  0.6361  2.6251
  275MOL0     H36247  10.105   6.366   6.714  0.5964  1.0304  1.5549
  275MOL0     H36248  10.183   6.378   6.557 -1.8650 -0.2027 -0.3738
  275MOL0     H36249  10.144   6.639   6.570  0.3376  0.0985  0.7195
  275MOL0     H36250  10.004   6.541   6.533  1.5127 -1.6158 -1.4119
  275MOL0     H36251   9.988   6.745   6.685 -2.6035 -0.4974  0.4469
  275MOL0     H36252  10.039   6.621   6.809 -2.0057 -1.8283  1.1329
  275MOL0     H36253   9.897   6.388   6.808 -0.7895  0.9395  2.9549
  275MOL0     H36254   9.677   6.289   6.936  0.5170  1.6857  1.0539
  275MOL0     H36255   9.639   6.275   6.765 -0.6133  1.9307 -1.6867
  275MOL0     H36256   9.429   6.411   6.808 -0.4158 -1.8127 -0.6658
  275MOL0     H36257   9.486   6.418   6.987 -0.1667  0.0787  0.5110
  275MOL0     H36258   9.409   6.162   6.840 -0.5310 -1.4008  0.2676
  275MOL0     H36259   9.452   6.190   7.010  1.2044  2.6888  0.6704
  275MOL0     H36260   9.237   6.350   6.993 -2.3362 -0.5629  0.4305
  275MOL0     H36261   9.196   6.181   6.993  1.5352 -0.8416  0.5887
  275MOL0     H36262   9.063   6.310   6.576  0.8619  1.2722  0.5906
  275MOL0     H36263   8.818   6.349   6.556  0.8853 -0.5364 -0.1985
  275MOL0     H36264   8.359   6.270   7.014  0.4009 -2.6127 -2.7848
  275MOL0     H36265   8.129   6.295   6.973  1.6527 -2.0110 -1.2535
  275MOL0     H36266   7.998   6.389   6.630 -0.4676 -1.4711  1.4658
  275MOL0     H36267   7.968   6.562   6.646  1.6135 -0.7029  0.1474
  275MOL0     H36268   7.768   6.367   6.776 -0.3572 -0.3257 -0.1741
  275MOL0     H36269   7.790   6.375   6.595 -1.1781 -1.8601  0.8079
  275MOL0     H36270   7.713   6.620   6.615  1.3536 -0.7478  0.6578
  275MOL0     H36271   7.717   6.610   6.783  2.7214  1.4186 -1.5932
  275MOL0     H36272   7.566   6.413   6.602 -2.3020 -0.5843 -0.6609
  275MOL0     H36273   7.537   6.429   6.770  0.4768 -2.2983 -1.9922
  275MOL0     H36274   7.483   6.663   6.572 -0.9720  0.8138 -0.6226
  275MOL0     H36275   7.458   6.657   6.743  0.7315 -0.9433  0.9873
  275MOL0     H36276   7.283   6.472   6.732 -1.2669 -1.0932 -1.9701
  275MOL0     H36277   7.301   6.455   6.573 -3.1446  0.4186  0.5957
  275MOL0     H36278   7.184   6.709   6.710 -0.6352  0.1153 -0.4348
  275MOL0     H36279   7.243   6.722   6.549 -1.7712 -1.2421 -1.5956
  275MOL0     H36280   7.111   6.516   6.498 -0.2145  1.1175 -0.7291
  275MOL0     H36281   7.016   6.670   6.519  0.8203  0.7157 -1.7242
  275MOL0     H36282   8.214   6.617   6.707  0.5851 -0.6384 -0.9278
  275MOL0     H36283   8.452   6.562   6.712 -0.8607 -0.2127 -0.3562
  275MOL0     H36284   8.759   6.316   6.978 -0.9504  1.3125 -0.0379
  275MOL0     H36285   8.992   6.296   7.019 -1.4104  0.4038  0.3671
  275MOL0     H36286  10.943   6.488   6.686 -1.0872 -1.7220 -1.5077
  275MOL0     H36287  11.197   6.520   6.637 -1.0323  0.9708  1.3953
  275MOL0     H36288  11.523   6.475   6.391 -2.9791  0.9464  0.1279
  275MOL0     H36289  11.770   6.444   6.360 -0.8539  0.0252  0.3563
  275MOL0     H36290  12.097   6.723   6.330 -0.2605  0.1593 -0.7087
  275MOL0     H36291  11.977   6.818   6.242  1.0940  0.4365 -0.1718
  275MOL0     H36292  12.036   6.724   6.036  0.7583  2.2940  1.3764
  275MOL0     H36293  12.176   6.794   6.115  1.3090 -0.1956 -0.2268
  275MOL0     H36294  12.097   6.500   6.091  1.1528 -0.9269 -1.4342
  275MOL0     H36295  12.238   6.557   6.181  1.4605  1.9547 -1.7260
  275MOL0     H36296  12.255   6.466   5.923  0.7383  1.0959 -1.0207
  275MOL0     H36297  12.188   6.624   5.890  2.4568  0.3024 -1.6888
  275MOL0     H36298  12.608   6.669   5.995  0.9326 -4.4726 -0.9791
  275MOL0     H36299  11.791   6.847   6.232 -0.4987 -0.9327 -1.5530
  275MOL0     H36300  11.547   6.889   6.310  0.4524  0.7359  1.4427
  276MOL0     O36301   4.894   1.198   6.980  0.5952  0.4170  0.0924
  276MOL0     C36302   4.806   1.289   6.976 -1.5402  0.2730  0.6876
  276MOL0     O36303   4.829   1.414   7.024  0.8235 -0.5973  0.2803
  276MOL0     C36304   4.953   1.444   7.090 -0.7152  0.3351 -0.2580
  276MOL0     C36305   5.080   1.439   7.031 -0.0362  1.0926 -0.4979
  276MOL0     C36306   5.191   1.501   7.104 -0.1273  0.7927  0.1646
  276MOL0     C36307   5.173   1.558   7.233  0.0950 -0.0949  0.4913
  276MOL0     O36308   5.278   1.613   7.300 -0.1377  0.4376 -0.1240
  276MOL0     C36309   5.305   1.585   7.443  0.5820 -0.1289 -0.6190
  276MOL0     C36310   5.433   1.653   7.495 -1.1879 -0.2640  0.7650
  276MOL0     C36311   5.558   1.587   7.434 -0.0911 -0.6773 -0.4456
  276MOL0     C36312   5.684   1.628   7.519  0.0255  0.4440 -0.0128
  276MOL0     C36313   5.810   1.594   7.432  0.3078  0.3199 -1.3481
  276MOL0     C36314   5.934   1.559   7.524 -0.2021  0.1272 -0.1765
  276MOL0     C36315   6.076   1.526   7.448 -0.1263 -0.0768  0.0656
  276MOL0     C36316   6.139   1.647   7.372 -0.6015 -0.3973 -0.2101
  276MOL0     N36317   6.176   1.769   7.454  0.2997 -0.0842  0.1838
  276MOL0     C36318   6.083   1.865   7.493 -0.3295 -0.0010  0.2113
  276MOL0     C36319   6.143   1.948   7.569  0.2626  0.5553  0.3602
  276MOL0     C36320   6.085   2.070   7.637  0.2381 -0.1251 -0.2159
  276MOL0     C36321   5.944   2.110   7.597  0.2771 -0.1195  0.2572
  276MOL0     C36322   5.891   2.224   7.679 -0.3897 -1.1286  0.6749
  276MOL0     C36323   5.740   2.230   7.695  0.0564  0.1971 -0.5657
  276MOL0     O36324   5.679   2.120   7.767 -0.6644  0.5185 -1.0746
  276MOL0     C36325   5.548   2.126   7.803  1.1156 -0.5668  0.3965
  276MOL0     C36326   5.467   2.236   7.765 -0.5982 -0.1588 -0.8086
  276MOL0     C36327   5.336   2.243   7.813 -0.7029 -0.3075  0.4369
  276MOL0     C36328   5.283   2.138   7.885  1.1594 -0.3201  0.4170
  276MOL0     C36329   5.146   2.140   7.930  0.4820 -0.0360 -1.2688
  276MOL0     O36330   5.073   2.254   7.901 -0.1559  0.1689  0.1060
  276MOL0     C36331   4.944   2.274   7.942  0.4559  0.5062 -0.0221
  276MOL0     C36332   4.921   2.394   8.006  0.0290 -0.1556  0.0867
  276MOL0     C36333   4.801   2.417   8.070  0.0347  0.3900  0.2543
  276MOL0     C36334   4.700   2.318   8.073  0.3695 -0.4716 -0.7661
  276MOL0     O36335   4.576   2.341   8.129 -0.2063 -0.3230 -0.1996
  276MOL0     C36336   4.531   2.479   8.155 -0.1957 -0.1640 -0.2405
  276MOL0     C36337   4.382   2.472   8.199  0.3382 -0.8106 -0.8127
  276MOL0     C36338   4.328   2.600   8.283 -0.1469 -0.3654 -0.3866
  276MOL0     C36339   4.190   2.563   8.339  0.6945  0.7324  0.2184
  276MOL0     C36340   4.119   2.690   8.394 -0.5600  0.2264  0.6787
  276MOL0     C36341   3.992   2.645   8.460  0.4667 -0.5785  1.2703
  276MOL0     C36342   3.871   2.752   8.456  1.3440  0.0609  0.8399
  276MOL0     C36343   3.907   2.898   8.512  0.2727  0.0775 -0.6383
  276MOL0    Cl36344   3.758   2.996   8.501  0.2397 -0.0917 -0.5381
  276MOL0     C36345   4.725   2.193   8.006  0.5626 -0.5354  1.0612
  276MOL0     C36346   4.839   2.178   7.925  0.1131 -0.2151 -0.8115
  276MOL0     O36347   5.095   2.039   7.994 -0.0663 -0.4427 -0.4655
  276MOL0     C36348   5.351   2.016   7.889  0.1512  0.5464  0.1701
  276MOL0     C36349   5.491   2.010   7.855 -0.1628  0.1056  0.3706
  276MOL0     N36350   6.275   1.917   7.558 -0.2366  0.2367  0.2819
  276MOL0     N36351   6.298   1.794   7.511 -0.4242 -0.4217  0.6256
  276MOL0     C36352   5.044   1.544   7.289 -1.0194 -0.2347 -0.4371
  276MOL0     C36353   4.940   1.501   7.214  0.3190  0.6340 -0.0715
  276MOL0     C36354   4.671   1.262   6.915 -0.5796 -0.5703  0.4193
  276MOL0     C36355   4.628   1.127   6.892  0.8510  0.1826  0.1890
  276MOL0     C36356   4.495   1.095   6.860 -0.5104  0.4275 -0.2795
  276MOL0     C36357   4.410   1.201   6.829  0.1674 -1.1922  0.9984
  276MOL0     O36358   4.282   1.175   6.788 -0.5603  0.5092 -0.0951
  276MOL0     C36359   4.178   1.252   6.859 -0.5293 -0.0855  0.2998
  276MOL0     C36360   4.053   1.173   6.878  0.4080  0.5990 -1.1566
  276MOL0     C36361   3.975   1.151   6.760  0.4128 -0.5065  0.0314
  276MOL0     C36362   3.833   1.103   6.785  0.4151 -0.3389  0.4383
  276MOL0     C36363   3.758   1.121   6.655 -1.1300 -0.0048  0.0127
  276MOL0     C36364   3.702   1.131   6.553  0.5343  1.0282  0.4905
  276MOL0     C36365   4.459   1.331   6.825 -0.4152 -0.1752 -0.2806
  276MOL0     C36366   4.586   1.364   6.871 -1.2693  0.5048 -0.0995
  276MOL0     H36367   5.098   1.394   6.934  0.9336 -0.0820  0.1982
  276MOL0     H36368   5.289   1.496   7.058  0.1716 -0.7857  0.9267
  276MOL0     H36369   5.314   1.476   7.449  2.3258  0.0546  0.8936
  276MOL0     H36370   5.221   1.625   7.501  1.3787  1.6307 -0.6273
  276MOL0     H36371   5.433   1.638   7.604  0.5853 -1.0980  0.6893
  276MOL0     H36372   5.422   1.759   7.472 -1.3106  0.7752  4.7999
  276MOL0     H36373   5.571   1.615   7.329 -1.4978  3.2462  0.2495
  276MOL0     H36374   5.543   1.479   7.445  0.6690 -0.6764  0.7872
  276MOL0     H36375   5.681   1.735   7.538  2.5104  0.4384  0.7635
  276MOL0     H36376   5.688   1.570   7.612  2.0742  0.0809 -0.2942
  276MOL0     H36377   5.839   1.670   7.358  0.5903  0.4833 -1.0693
  276MOL0     H36378   5.783   1.500   7.383 -3.2203  0.9324 -0.8358
  276MOL0     H36379   5.917   1.478   7.596 -0.8763  0.5187  0.1202
  276MOL0     H36380   5.961   1.649   7.580 -0.0539 -0.3996  0.6021
  276MOL0     H36381   6.143   1.477   7.518  0.6399  3.6411  2.2061
  276MOL0     H36382   6.058   1.456   7.365 -1.2805  0.7049 -0.3794
  276MOL0     H36383   6.086   1.688   7.286  1.4785  1.8874 -0.5188
  276MOL0     H36384   6.235   1.614   7.330 -0.5333  1.1554 -1.3814
  276MOL0     H36385   5.977   1.862   7.471  0.1082  1.3112 -2.4880
  276MOL0     H36386   6.140   2.160   7.608 -1.5377  1.6898  1.6840
  276MOL0     H36387   6.093   2.054   7.744 -4.0517 -0.6659  0.1996
  276MOL0     H36388   5.875   2.026   7.613 -0.7193  0.4655 -0.7862
  276MOL0     H36389   5.930   2.146   7.495  1.4542  3.0516  1.0981
  276MOL0     H36390   5.942   2.205   7.774  0.7290 -1.0129  0.1174
  276MOL0     H36391   5.923   2.322   7.642 -0.5033 -0.4644  2.2419
  276MOL0     H36392   5.688   2.247   7.600 -0.0155 -1.1686 -0.7939
  276MOL0     H36393   5.717   2.324   7.745 -2.2866  0.3722 -1.8501
  276MOL0     H36394   5.503   2.320   7.706 -4.1257  2.1898  0.0381
  276MOL0     H36395   5.286   2.339   7.806 -0.1675 -0.0108  0.6341
  276MOL0     H36396   4.989   2.478   8.002  0.8633 -0.8614 -1.2377
  276MOL0     H36397   4.794   2.521   8.100 -1.1648  0.5753 -0.5966
  276MOL0     H36398   4.537   2.546   8.069 -1.7655  0.1567 -0.1357
  276MOL0     H36399   4.585   2.514   8.244 -1.0379 -0.7157  0.5019
  276MOL0     H36400   4.353   2.382   8.253 -3.1698  0.4577 -0.3744
  276MOL0     H36401   4.316   2.466   8.112 -4.0465  4.8266  1.5690
  276MOL0     H36402   4.309   2.690   8.225  0.4707  1.0614  1.5164
  276MOL0     H36403   4.392   2.614   8.370 -1.9883 -1.2561  1.1823
  276MOL0     H36404   4.135   2.517   8.256  2.8510 -1.6176 -0.0146
  276MOL0     H36405   4.205   2.491   8.419 -1.7896 -1.9605 -1.5427
  276MOL0     H36406   4.114   2.768   8.317 -1.1593  1.2415  1.7111
  276MOL0     H36407   4.181   2.734   8.472 -0.0858 -0.7935  0.8870
  276MOL0     H36408   4.009   2.610   8.562 -1.8345 -0.3392  1.8079
  276MOL0     H36409   3.963   2.552   8.409  0.7149  0.7892 -1.5460
  276MOL0     H36410   3.835   2.752   8.352  0.9626 -0.6769  0.9623
  276MOL0     H36411   3.780   2.718   8.507  1.9715 -2.2101  0.5445
  276MOL0     H36412   4.001   2.930   8.466  1.3414 -1.6033  0.2628
  276MOL0     H36413   3.921   2.889   8.620 -0.8594  3.0430 -0.1477
  276MOL0     H36414   4.649   2.115   7.999  0.3157 -0.1551 -1.3676
  276MOL0     H36415   4.852   2.096   7.855  1.0619 -0.1103 -0.7705
  276MOL0     H36416   5.301   1.937   7.945  1.6153  0.5295  1.5401
  276MOL0     H36417   5.558   1.925   7.863  0.3420  0.5147  0.6188
  276MOL0     H36418   5.024   1.587   7.387  4.5185  0.0405  0.9106
  276MOL0     H36419   4.838   1.528   7.240 -1.5490 -1.2011 -4.4821
  276MOL0     H36420   4.705   1.054   6.916  3.0012  2.3356  0.2066
  276MOL0     H36421   4.447   0.998   6.862 -1.8714  0.9542 -2.8723
  276MOL0     H36422   4.160   1.351   6.817 -2.7641  0.9220  3.2313
  276MOL0     H36423   4.221   1.277   6.957 -0.0290 -0.3310  0.1445
  276MOL0     H36424   4.076   1.071   6.912  0.5606  0.4485 -1.7080
  276MOL0     H36425   3.996   1.234   6.949  3.2343  1.0212  0.9145
  276MOL0     H36426   4.017   1.073   6.696 -1.9387 -2.5142  0.7847
  276MOL0     H36427   3.975   1.244   6.702 -0.9281 -0.1158  0.6351
  276MOL0     H36428   3.833   1.001   6.823 -1.6210 -0.2958  0.6387
  276MOL0     H36429   3.781   1.169   6.854  2.0020  2.7410 -1.0872
  276MOL0     H36430   3.648   1.145   6.462  1.5288 -2.6720 -0.8443
  276MOL0     H36431   4.395   1.412   6.790 -1.7255 -0.6542  0.8995
  276MOL0     H36432   4.610   1.469   6.877  1.4479 -0.1319  4.8241
  277MOL0     O36433   9.150   5.592   5.503 -0.6470 -0.1002  0.4237
  277MOL0     C36434   9.230   5.527   5.435 -0.0470 -0.9913 -0.0167
  277MOL0     O36435   9.201   5.414   5.378  0.2982  0.4742 -0.2568
  277MOL0     C36436   9.097   5.338   5.435  0.2801  0.1985 -0.0830
  277MOL0     C36437   9.098   5.264   5.556 -0.9722  0.1155 -0.1191
  277MOL0     C36438   8.984   5.205   5.601  0.2715  0.6074  0.2766
  277MOL0     C36439   8.862   5.231   5.548  0.2013  0.1391  1.0028
  277MOL0     O36440   8.740   5.187   5.586 -0.5215  0.5859  0.4748
  277MOL0     C36441   8.736   5.061   5.661 -0.3272  1.1416  0.6659
  277MOL0     C36442   8.586   5.015   5.684 -0.1435  0.0200  0.5675
  277MOL0     C36443   8.551   4.920   5.799  0.1862  1.2628  0.4785
  277MOL0     C36444   8.405   4.912   5.834 -0.0154  0.0644 -0.9576
  277MOL0     C36445   8.379   4.827   5.956 -0.0056 -0.3370  0.0499
  277MOL0     C36446   8.248   4.751   5.944  0.4534 -0.0749  0.0542
  277MOL0     C36447   8.119   4.849   5.958  0.2241  0.0897 -0.2014
  277MOL0     C36448   7.998   4.779   5.925  0.0202 -0.2329  0.1037
  277MOL0     N36449   7.876   4.854   5.959  0.0297 -0.4202 -0.5133
  277MOL0     C36450   7.863   4.944   6.066 -0.2378 -0.0403  0.1912
  277MOL0     C36451   7.730   4.960   6.075  0.1500 -0.4410 -0.5224
  277MOL0     C36452   7.641   5.024   6.183  0.1983 -0.0119  0.3865
  277MOL0     C36453   7.650   5.182   6.187  0.5172  0.6146  0.2433
  277MOL0     C36454   7.559   5.234   6.298  0.1108 -0.2018 -1.2956
  277MOL0     C36455   7.433   5.296   6.251  0.8605 -0.1614  0.2225
  277MOL0     O36456   7.446   5.424   6.178 -0.3292 -0.5548 -0.4079
  277MOL0     C36457   7.338   5.463   6.106 -0.1464 -0.5338 -0.7416
  277MOL0     C36458   7.353   5.587   6.049  0.2902 -0.3121 -0.5215
  277MOL0     C36459   7.250   5.650   5.980  0.2831 -0.0362 -0.5222
  277MOL0     C36460   7.131   5.571   5.959 -0.8444 -0.3342  0.7103
  277MOL0     C36461   7.015   5.631   5.887  0.7761  0.7706 -0.6124
  277MOL0     O36462   6.905   5.554   5.886 -0.5063 -0.5678 -0.2406
  277MOL0     C36463   6.788   5.600   5.825 -0.3988 -0.3230 -0.3611
  277MOL0     C36464   6.754   5.583   5.701 -0.4823  0.1063  0.0166
  277MOL0     C36465   6.638   5.635   5.649 -0.4034  0.0236  0.3951
  277MOL0     C36466   6.556   5.720   5.725  0.6690 -0.1666  0.2422
  277MOL0     O36467   6.446   5.779   5.667 -0.1332  0.9427  0.4356
  277MOL0     C36468   6.357   5.858   5.733 -0.2873  0.6724  0.7550
  277MOL0     C36469   6.245   5.902   5.640  0.1198  0.6220 -0.0244
  277MOL0     C36470   6.144   6.006   5.697 -0.1932 -0.5629 -0.0920
  277MOL0     C36471   6.033   6.027   5.597 -0.6878 -0.0324  0.6118
  277MOL0     C36472   5.942   6.147   5.628 -0.0272 -0.3633 -0.1895
  277MOL0     C36473   5.838   6.180   5.520 -0.3406  0.0719 -0.3798
  277MOL0     C36474   5.748   6.306   5.551 -0.7386  0.9639  0.3029
  277MOL0     C36475   5.670   6.294   5.683  0.4477 -0.1449  0.4860
  277MOL0    Cl36476   5.536   6.399   5.664  0.4693 -0.0325  0.3016
  277MOL0     C36477   6.581   5.732   5.866 -0.0725  0.1163 -0.0536
  277MOL0     C36478   6.701   5.678   5.913  0.7786 -0.0633 -0.3093
  277MOL0     O36479   7.028   5.733   5.827 -0.1588 -0.5402 -0.0200
  277MOL0     C36480   7.119   5.439   6.012  0.0515 -0.0868  0.5459
  277MOL0     C36481   7.227   5.383   6.082  0.1794 -0.6968  0.0353
  277MOL0     N36482   7.664   4.878   5.986 -0.1778  0.0018  0.1780
  277MOL0     N36483   7.750   4.814   5.915 -0.4292 -0.0289  0.3462
  277MOL0     C36484   8.858   5.299   5.425  0.3367  0.1159  0.5088
  277MOL0     C36485   8.976   5.347   5.371  0.1184 -0.3102 -0.1410
  277MOL0     C36486   9.370   5.567   5.433  0.3088  0.1406  0.6945
  277MOL0     C36487   9.408   5.701   5.460 -0.9752 -0.2657 -0.5117
  277MOL0     C36488   9.547   5.725   5.457 -0.3389  0.5844  0.5968
  277MOL0     C36489   9.642   5.630   5.428  0.9842 -0.9456 -0.9948
  277MOL0     O36490   9.774   5.647   5.445  0.4260  0.5292  0.2895
  277MOL0     C36491   9.830   5.753   5.518  0.1430 -0.6573 -0.5536
  277MOL0     C36492   9.982   5.753   5.497  0.3231  0.0802 -0.2020
  277MOL0     C36493  10.061   5.644   5.565  0.6620  0.6863 -0.7776
  277MOL0     C36494  10.206   5.686   5.600  0.7386  0.3461 -0.3753
  277MOL0     C36495  10.292   5.733   5.493 -0.1357 -1.2973  0.3226
  277MOL0     C36496  10.375   5.764   5.406  0.0738 -0.1918 -0.6247
  277MOL0     C36497   9.596   5.505   5.404 -0.3770  0.4724 -0.2192
  277MOL0     C36498   9.461   5.468   5.392  0.4981  0.0594  0.3778
  277MOL0     H36499   9.196   5.249   5.601 -0.6092 -3.8339 -1.7778
  277MOL0     H36500   8.996   5.154   5.696  1.3034  0.8882  0.3078
  277MOL0     H36501   8.791   5.058   5.755  0.7030 -0.2527  0.0537
  277MOL0     H36502   8.784   4.978   5.608 -0.4004  1.0293  0.7747
  277MOL0     H36503   8.548   4.967   5.594  1.5689  0.7123 -0.5783
  277MOL0     H36504   8.524   5.103   5.703  0.7646  0.6114  0.9058
  277MOL0     H36505   8.602   4.959   5.888 -2.0460  0.6009  2.1568
  277MOL0     H36506   8.586   4.820   5.771  2.7446  3.0447 -3.5974
  277MOL0     H36507   8.372   5.013   5.861  2.3341  0.8176 -0.6608
  277MOL0     H36508   8.353   4.885   5.742 -1.1139  0.8222 -0.5799
  277MOL0     H36509   8.375   4.885   6.049 -2.8549  0.5001 -0.4996
  277MOL0     H36510   8.455   4.749   5.963  0.3867  0.1394  1.3720
  277MOL0     H36511   8.247   4.684   6.030  0.1031  0.8571  0.7969
  277MOL0     H36512   8.240   4.687   5.855  1.6875 -0.4924  0.2277
  277MOL0     H36513   8.116   4.877   6.063  1.6034 -0.4045  0.0017
  277MOL0     H36514   8.129   4.937   5.894 -1.2294  0.6718  0.3366
  277MOL0     H36515   7.992   4.678   5.966 -2.4826  0.5683  1.9645
  277MOL0     H36516   8.006   4.746   5.821  0.7346 -2.8339  0.9081
  277MOL0     H36517   7.946   4.977   6.127  1.1032 -3.6055  0.5219
  277MOL0     H36518   7.677   5.005   6.284  0.9839  1.8607  0.4911
  277MOL0     H36519   7.535   4.995   6.186  0.3956 -0.8940 -0.5270
  277MOL0     H36520   7.627   5.212   6.084  0.8684 -1.7736 -0.5905
  277MOL0     H36521   7.750   5.219   6.212  1.1138 -2.0501  2.1900
  277MOL0     H36522   7.533   5.148   6.361 -2.2712 -1.0578 -3.2422
  277MOL0     H36523   7.621   5.297   6.363 -0.0942  1.1011 -2.3180
  277MOL0     H36524   7.370   5.317   6.338 -0.2222 -0.4634 -0.4630
  277MOL0     H36525   7.375   5.222   6.195  1.5990 -1.5392  1.2237
  277MOL0     H36526   7.451   5.631   6.064  0.7731 -1.6984  0.6736
  277MOL0     H36527   7.265   5.751   5.944  1.2302 -0.3379 -1.0128
  277MOL0     H36528   6.806   5.512   5.638 -1.1920 -0.9374  0.5701
  277MOL0     H36529   6.610   5.624   5.545 -1.4168  0.0459  0.6492
  277MOL0     H36530   6.410   5.941   5.780 -1.1931  2.0452 -0.5876
  277MOL0     H36531   6.308   5.796   5.810 -1.3443 -0.0521 -0.4583
  277MOL0     H36532   6.182   5.817   5.611 -0.2434  0.9815 -0.3047
  277MOL0     H36533   6.297   5.941   5.551 -0.4199 -0.4085 -0.8117
  277MOL0     H36534   6.189   6.105   5.709  1.0282 -1.1204  0.0687
  277MOL0     H36535   6.118   5.975   5.799  2.3106 -1.0117  0.4689
  277MOL0     H36536   6.073   6.041   5.496  0.4294  2.5645  1.3170
  277MOL0     H36537   5.975   5.935   5.595 -1.9594  0.6819  2.2430
  277MOL0     H36538   5.998   6.234   5.666 -3.4215  0.9350  2.3768
  277MOL0     H36539   5.891   6.115   5.720  1.4303  0.3494  0.9215
  277MOL0     H36540   5.787   6.084   5.508 -0.8080  0.2295  0.2823
  277MOL0     H36541   5.888   6.201   5.424  0.4896 -2.0891 -0.4799
  277MOL0     H36542   5.804   6.399   5.543 -0.0204  0.4338 -1.6013
  277MOL0     H36543   5.674   6.317   5.470  0.5744  0.0422 -1.0766
  277MOL0     H36544   5.732   6.317   5.771  1.7324  0.7849 -0.6086
  277MOL0     H36545   5.650   6.189   5.702  0.3292  0.2584  2.9795
  277MOL0     H36546   6.514   5.780   5.936 -1.7320 -2.0222 -0.0747
  277MOL0     H36547   6.731   5.703   6.014 -0.9137  0.7219  0.0330
  277MOL0     H36548   7.032   5.374   6.011  1.6357 -2.3231  0.0445
  277MOL0     H36549   7.199   5.285   6.120 -0.2148 -0.3543  0.6616
  277MOL0     H36550   8.765   5.325   5.377 -1.0395 -3.1081  1.1451
  277MOL0     H36551   8.977   5.404   5.279  3.1372  3.9611  2.1911
  277MOL0     H36552   9.347   5.787   5.486  0.2426  0.5047 -0.1039
  277MOL0     H36553   9.564   5.831   5.470 -0.2408  0.9660 -2.0708
  277MOL0     H36554   9.793   5.760   5.621 -3.6439 -1.5458 -1.7323
  277MOL0     H36555   9.806   5.848   5.469  0.4883 -1.5173 -2.4493
  277MOL0     H36556   9.996   5.748   5.388 -2.3973 -3.4152 -0.5761
  277MOL0     H36557  10.016   5.849   5.534 -2.3531  1.3313 -0.7235
  277MOL0     H36558  10.058   5.549   5.512  1.0408  0.0633  0.2845
  277MOL0     H36559  10.017   5.621   5.662  0.2868  2.5965 -0.4616
  277MOL0     H36560  10.211   5.757   5.683  2.9706 -0.0718 -0.0952
  277MOL0     H36561  10.248   5.592   5.635  0.2710  0.5367  0.7672
  277MOL0     H36562  10.456   5.770   5.336  0.2811  0.5192 -0.3385
  277MOL0     H36563   9.673   5.429   5.393 -0.4145  0.5368 -1.0096
  277MOL0     H36564   9.441   5.366   5.360 -0.1130  0.5939 -1.0261
  278MOL0     O36565   2.274   0.499   3.043 -0.1872 -0.3715  0.1943
  278MOL0     C36566   2.246   0.613   3.081  0.1938 -0.2070  0.0720
  278MOL0     O36567   2.254   0.728   3.013 -0.5255  0.8303  0.3473
  278MOL0     C36568   2.326   0.742   2.900  0.8764 -0.1924  0.2824
  278MOL0     C36569   2.283   0.853   2.820  0.3731  1.1618 -0.2699
  278MOL0     C36570   2.348   0.883   2.703  0.6332 -0.5157 -0.3652
  278MOL0     C36571   2.452   0.793   2.654  1.0287 -0.4010  0.0342
  278MOL0     O36572   2.510   0.841   2.538 -0.4386 -0.3955  0.0306
  278MOL0     C36573   2.636   0.780   2.515 -0.0922  1.0057  0.2210
  278MOL0     C36574   2.720   0.859   2.419  0.0528 -0.3857  1.4328
  278MOL0     C36575   2.774   0.985   2.487  0.4584 -0.2754 -0.4660
  278MOL0     C36576   2.863   1.054   2.378  0.0524  0.1478 -0.0757
  278MOL0     C36577   2.970   1.142   2.431 -0.9256  0.1060 -0.6059
  278MOL0     C36578   3.088   1.077   2.505 -0.4442  0.1751  0.2446
  278MOL0     C36579   3.198   1.167   2.562 -0.6169  0.6314 -0.2123
  278MOL0     C36580   3.305   1.078   2.620 -1.2359 -0.3539 -0.5528
  278MOL0     N36581   3.373   0.993   2.522  0.3472 -0.6471 -0.5391
  278MOL0     C36582   3.470   1.022   2.432 -0.6591 -0.7248 -0.1365
  278MOL0     C36583   3.494   0.922   2.357 -0.1161  0.8586 -0.7963
  278MOL0     C36584   3.592   0.919   2.237  0.4528 -0.1347  1.0960
  278MOL0     C36585   3.731   0.890   2.296  0.1618 -0.8575  0.0261
  278MOL0     C36586   3.749   0.761   2.374  0.0084 -0.4697 -0.2088
  278MOL0     C36587   3.720   0.629   2.303 -0.0811 -0.0777  0.5456
  278MOL0     O36588   3.753   0.511   2.374 -0.2607  0.9849 -0.8097
  278MOL0     C36589   3.679   0.486   2.491  0.2872 -0.7488  0.1095
  278MOL0     C36590   3.750   0.435   2.600 -0.3115 -0.7957 -0.5347
  278MOL0     C36591   3.678   0.408   2.727  0.2239 -0.0436  0.6769
  278MOL0     C36592   3.540   0.439   2.740 -0.4652 -0.4081  0.4502
  278MOL0     C36593   3.467   0.407   2.867  0.4015  0.5864 -0.2097
  278MOL0     O36594   3.525   0.318   2.955  0.3409  0.2742 -0.9888
  278MOL0     C36595   3.458   0.261   3.065  0.0992 -1.0183  0.2381
  278MOL0     C36596   3.318   0.274   3.106 -0.0421 -0.1057  1.0222
  278MOL0     C36597   3.283   0.210   3.222 -0.1462  0.1692  0.0007
  278MOL0     C36598   3.373   0.133   3.301 -0.4146  0.3481  0.2735
  278MOL0     O36599   3.346   0.059   3.414  0.8311  0.5246 -0.0326
  278MOL0     C36600   3.225   0.091   3.484 -0.5476 -0.2884 -1.0302
  278MOL0     C36601   3.202   0.026   3.623 -0.3229  0.4558 -0.4368
  278MOL0     C36602   3.165  -0.121   3.599  0.4629  0.0576  0.8714
  278MOL0     C36603   3.125  -0.212   3.719  0.1796  0.1751 -0.0935
  278MOL0     C36604   3.015  -0.144   3.803  0.0599 -0.2211 -0.2243
  278MOL0     C36605   2.946  -0.239   3.901  0.6503 -0.4160  0.6943
  278MOL0     C36606   3.043  -0.278   4.019  0.0003 -0.0192 -0.0121
  278MOL0     C36607   2.970  -0.346   4.132 -0.5916 -0.1564  0.1449
  278MOL0    Cl36608   2.894  -0.229   4.242  0.4895 -0.0658  0.0870
  278MOL0     C36609   3.506   0.121   3.254 -0.0473 -0.0199 -0.9196
  278MOL0     C36610   3.544   0.195   3.146 -0.6130  0.2966  0.6448
  278MOL0     O36611   3.355   0.457   2.887 -0.3076  0.4200 -0.5505
  278MOL0     C36612   3.481   0.504   2.634  0.3985 -0.1315 -0.7733
  278MOL0     C36613   3.542   0.525   2.511 -1.0310  0.0603 -1.0038
  278MOL0     N36614   3.416   0.816   2.398  0.8698 -0.2668 -0.2046
  278MOL0     N36615   3.344   0.858   2.501 -0.6040  0.2185 -0.0667
  278MOL0     C36616   2.492   0.687   2.736  0.3296 -0.3560  0.8421
  278MOL0     C36617   2.427   0.668   2.857 -0.3527 -0.0933  0.1245
  278MOL0     C36618   2.189   0.620   3.218 -0.2522  1.4934  0.7852
  278MOL0     C36619   2.185   0.733   3.287  0.3192 -0.5598  0.6728
  278MOL0     C36620   2.135   0.741   3.411  0.0423  0.5921  0.1094
  278MOL0     C36621   2.095   0.619   3.484 -0.1509 -0.4331  1.0624
  278MOL0     O36622   2.055   0.603   3.615  0.5369  0.5403 -0.1421
  278MOL0     C36623   2.024   0.728   3.681 -0.8995 -0.7824 -0.9497
  278MOL0     C36624   1.954   0.699   3.817 -0.8281  0.7387  0.5221
  278MOL0     C36625   2.054   0.697   3.934 -0.6367 -0.0985 -0.2501
  278MOL0     C36626   1.994   0.621   4.054  1.0083  0.0078 -0.0681
  278MOL0     C36627   2.092   0.622   4.164  0.6409 -0.2651  1.1548
  278MOL0     C36628   2.187   0.631   4.245 -0.0137 -0.2522  1.2343
  278MOL0     C36629   2.085   0.507   3.404  0.8253 -0.1449  0.5894
  278MOL0     C36630   2.134   0.505   3.275  1.2500 -0.0233  0.0513
  278MOL0     H36631   2.204   0.922   2.847 -1.7387 -1.2701  0.1831
  278MOL0     H36632   2.317   0.963   2.637  0.5984 -1.6543 -1.7829
  278MOL0     H36633   2.612   0.682   2.473  0.3285  1.7271 -1.7886
  278MOL0     H36634   2.698   0.765   2.604  0.6482 -0.0031 -0.4521
  278MOL0     H36635   2.659   0.877   2.331  1.1144 -0.9719  0.5514
  278MOL0     H36636   2.801   0.789   2.394  0.7588  0.5626  1.0123
  278MOL0     H36637   2.826   0.964   2.581 -0.2423 -1.8657 -0.4003
  278MOL0     H36638   2.698   1.048   2.534  0.8711 -1.4236  1.9023
  278MOL0     H36639   2.912   0.971   2.327 -0.2074  1.0626 -1.8976
  278MOL0     H36640   2.806   1.107   2.301  0.2664 -0.3380 -0.5685
  278MOL0     H36641   2.920   1.207   2.504 -1.9788 -3.1295  1.7782
  278MOL0     H36642   3.010   1.202   2.349 -1.8726  2.5635  0.6269
  278MOL0     H36643   3.131   1.000   2.440 -1.2404  0.6683 -0.9032
  278MOL0     H36644   3.045   1.027   2.592  0.8473  1.2465  1.5303
  278MOL0     H36645   3.236   1.228   2.480  1.1752  0.6679  0.5921
  278MOL0     H36646   3.150   1.230   2.638 -3.5227 -2.7302  1.0306
  278MOL0     H36647   3.264   1.016   2.701  3.6907 -1.9457  1.0662
  278MOL0     H36648   3.393   1.124   2.665 -0.9169 -2.4694  1.1710
  278MOL0     H36649   3.514   1.121   2.425 -1.2786 -0.3977  0.4805
  278MOL0     H36650   3.594   1.016   2.188  2.5510 -1.2862 -1.3416
  278MOL0     H36651   3.572   0.830   2.176 -0.0628  0.6453  0.1095
  278MOL0     H36652   3.756   0.981   2.350 -0.2886 -0.4462 -0.4518
  278MOL0     H36653   3.809   0.887   2.220 -0.1182  2.1253 -0.4854
  278MOL0     H36654   3.854   0.755   2.405  0.0238 -1.3281 -0.3977
  278MOL0     H36655   3.688   0.764   2.464  0.2281 -1.1099 -0.0263
  278MOL0     H36656   3.795   0.627   2.223 -1.0103 -1.1193 -0.3357
  278MOL0     H36657   3.617   0.624   2.266 -0.9712  0.8289  2.7597
  278MOL0     H36658   3.855   0.409   2.591 -0.1952 -1.6882  2.4100
  278MOL0     H36659   3.736   0.352   2.800 -0.5137 -0.1036  1.2207
  278MOL0     H36660   3.245   0.329   3.048  0.6232 -0.8189 -0.5741
  278MOL0     H36661   3.178   0.209   3.249 -0.1660 -0.7232 -0.0846
  278MOL0     H36662   3.141   0.067   3.418 -0.3733  0.7100 -1.6424
  278MOL0     H36663   3.229   0.200   3.500 -2.8422 -0.1361 -1.2068
  278MOL0     H36664   3.120   0.084   3.666 -0.5912  0.0758 -0.4283
  278MOL0     H36665   3.289   0.026   3.689 -0.1237  2.9470 -0.5892
  278MOL0     H36666   3.246  -0.172   3.545 -1.0196  1.3733 -2.9409
  278MOL0     H36667   3.079  -0.132   3.532  0.6900 -1.5610  0.8053
  278MOL0     H36668   3.075  -0.303   3.685  1.4360 -1.6655  2.6682
  278MOL0     H36669   3.214  -0.239   3.776  0.5499 -2.0870 -1.6386
  278MOL0     H36670   2.941  -0.097   3.737  0.9397  2.0308  0.3230
  278MOL0     H36671   3.062  -0.066   3.863  2.6438  1.2518 -3.8207
  278MOL0     H36672   2.913  -0.325   3.843  0.5607  0.0305  0.0809
  278MOL0     H36673   2.857  -0.196   3.950  1.7370  0.1672  2.2558
  278MOL0     H36674   3.110  -0.356   3.985 -0.6886 -1.4458  1.7363
  278MOL0     H36675   3.104  -0.189   4.040 -1.2586  1.7490 -3.1257
  278MOL0     H36676   3.037  -0.415   4.185  1.1052 -0.6856 -2.4986
  278MOL0     H36677   2.896  -0.417   4.094  0.7492 -3.1628  2.6815
  278MOL0     H36678   3.569   0.058   3.317  0.7461  0.8136 -0.8486
  278MOL0     H36679   3.650   0.198   3.121  0.2033 -0.0480  3.6531
  278MOL0     H36680   3.383   0.549   2.645  0.1252 -0.0775 -3.0326
  278MOL0     H36681   3.482   0.574   2.435  0.3423  0.6117 -1.7843
  278MOL0     H36682   2.583   0.630   2.719 -0.4189 -1.1576 -0.7870
  278MOL0     H36683   2.454   0.586   2.923 -3.0801 -1.7526 -0.6812
  278MOL0     H36684   2.217   0.826   3.241 -1.0433  0.1280  1.0563
  278MOL0     H36685   2.142   0.828   3.476 -4.6904 -0.5718  2.6376
  278MOL0     H36686   1.955   0.789   3.622 -0.0397 -0.5874 -1.7863
  278MOL0     H36687   2.106   0.799   3.689 -0.8307 -0.8819 -0.7709
  278MOL0     H36688   1.892   0.788   3.832 -2.0198  1.1394 -4.8151
  278MOL0     H36689   1.880   0.618   3.813  1.4252 -1.4410  0.5125
  278MOL0     H36690   2.079   0.798   3.969  0.5088 -0.2317 -0.6477
  278MOL0     H36691   2.151   0.656   3.907 -0.5811  0.6755 -1.2973
  278MOL0     H36692   1.895   0.649   4.090  0.8981 -1.8870  1.2443
  278MOL0     H36693   1.983   0.514   4.033  0.6915 -0.2319  1.2562
  278MOL0     H36694   2.262   0.638   4.321 -1.0714 -0.6060  2.3349
  278MOL0     H36695   2.052   0.416   3.453 -1.0522  0.6112  0.8097
  278MOL0     H36696   2.131   0.409   3.226  1.2114 -1.9549  3.4975
  279MOL0     O36697   8.910   2.556   1.678  1.4294  0.5221 -0.8228
  279MOL0     C36698   8.854   2.598   1.782 -0.0300 -0.4080 -0.1851
  279MOL0     O36699   8.714   2.592   1.813 -0.6859 -0.1103  0.0139
  279MOL0     C36700   8.638   2.550   1.708  0.1485 -0.1298 -0.2523
  279MOL0     C36701   8.525   2.484   1.756  0.1950 -0.5591  0.5219
  279MOL0     C36702   8.421   2.456   1.672  0.5856 -0.2016 -0.1556
  279MOL0     C36703   8.414   2.500   1.542  0.3251  0.4235 -0.5125
  279MOL0     O36704   8.308   2.489   1.462  0.0236 -0.1738  0.0702
  279MOL0     C36705   8.269   2.612   1.392 -0.0711  0.6151 -0.5835
  279MOL0     C36706   8.217   2.587   1.246 -0.1475  0.5744  0.8584
  279MOL0     C36707   8.096   2.670   1.206 -0.5337  0.3975  0.7391
  279MOL0     C36708   8.069   2.635   1.061  0.0357 -0.5559 -0.5705
  279MOL0     C36709   7.941   2.716   1.003 -0.7481 -0.2043  0.2751
  279MOL0     C36710   7.808   2.706   1.084 -0.5271 -0.0923 -0.3622
  279MOL0     C36711   7.689   2.756   1.011  1.1814 -0.3795 -0.4126
  279MOL0     C36712   7.562   2.727   1.088  0.5209  0.4462  0.5659
  279MOL0     N36713   7.444   2.785   1.029  0.4057  0.2451  0.5601
  279MOL0     C36714   7.376   2.761   0.910  0.6599 -0.2009  0.6207
  279MOL0     C36715   7.277   2.847   0.907  0.5384 -0.2077  1.0683
  279MOL0     C36716   7.167   2.853   0.802  0.1936 -1.0863 -0.8177
  279MOL0     C36717   7.037   2.824   0.881  0.7552 -0.3280  0.7979
  279MOL0     C36718   6.926   2.793   0.783 -0.5378 -0.5981 -0.7449
  279MOL0     C36719   6.788   2.783   0.849 -0.7737 -0.1372  0.3026
  279MOL0     O36720   6.696   2.729   0.750  0.3003  0.5387  0.3752
  279MOL0     C36721   6.570   2.704   0.797  0.8216  0.0264  0.1257
  279MOL0     C36722   6.513   2.731   0.917 -0.2491 -0.0889  0.3956
  279MOL0     C36723   6.383   2.693   0.951 -0.9077 -0.3221 -0.2421
  279MOL0     C36724   6.309   2.622   0.861 -0.1363  0.0322 -0.0400
  279MOL0     C36725   6.169   2.589   0.885 -0.1742  0.4521  0.1194
  279MOL0     O36726   6.091   2.535   0.779  0.1097 -0.0371  0.9745
  279MOL0     C36727   5.958   2.506   0.786 -0.3871  0.5636 -0.1502
  279MOL0     C36728   5.876   2.481   0.893  0.3796  0.8889 -0.5949
  279MOL0     C36729   5.736   2.451   0.886  0.1986 -0.0188 -1.1134
  279MOL0     C36730   5.673   2.448   0.767  0.0418 -0.4768 -0.5535
  279MOL0     O36731   5.543   2.421   0.768  0.0006  0.5812 -0.8179
  279MOL0     C36732   5.474   2.426   0.644 -0.0660 -0.5344  0.6156
  279MOL0     C36733   5.336   2.379   0.680  0.0572 -0.4536  0.8499
  279MOL0     C36734   5.240   2.417   0.568  0.2326  0.1277 -0.6291
  279MOL0     C36735   5.122   2.321   0.589 -0.0740 -0.4332  0.1807
  279MOL0     C36736   5.037   2.322   0.459  0.1389 -0.1905  0.5700
  279MOL0     C36737   4.887   2.293   0.483  0.6821 -0.1341 -1.1778
  279MOL0     C36738   4.864   2.165   0.563 -0.3249  0.7678  0.0885
  279MOL0     C36739   4.724   2.120   0.559 -0.4292 -0.3441  0.5717
  279MOL0    Cl36740   4.625   2.261   0.609  0.0201 -0.5088 -0.1019
  279MOL0     C36741   5.754   2.477   0.652 -0.0385 -0.0717 -0.1662
  279MOL0     C36742   5.892   2.504   0.670 -0.1543  0.1433  0.2195
  279MOL0     O36743   6.139   2.604   1.002  0.0253 -0.0421 -0.0983
  279MOL0     C36744   6.366   2.577   0.736 -0.1739  0.4145 -0.0877
  279MOL0     C36745   6.493   2.629   0.704 -0.9639  0.5238 -0.0668
  279MOL0     N36746   7.271   2.915   1.028 -0.1406  0.0648 -0.3862
  279MOL0     N36747   7.372   2.887   1.094 -0.2852  0.6561  0.2149
  279MOL0     C36748   8.531   2.546   1.484 -0.0640  0.4797 -0.5683
  279MOL0     C36749   8.642   2.575   1.572 -0.0387  0.8549 -0.3085
  279MOL0     C36750   8.940   2.637   1.891  0.3806 -0.4387  0.9773
  279MOL0     C36751   9.076   2.593   1.896 -0.4250 -0.5694 -0.1351
  279MOL0     C36752   9.157   2.634   2.001  0.5737 -0.0283  0.2512
  279MOL0     C36753   9.105   2.714   2.112 -0.7954  0.2346  0.2448
  279MOL0     O36754   9.193   2.748   2.217 -0.0878 -0.1586  0.2780
  279MOL0     C36755   9.277   2.642   2.267  0.1381  0.0741 -0.2859
  279MOL0     C36756   9.411   2.683   2.324  0.2501  0.1343  0.8892
  279MOL0     C36757   9.412   2.771   2.445  0.3256  1.0501 -0.0633
  279MOL0     C36758   9.337   2.900   2.422  0.3519  0.1042  0.2314
  279MOL0     C36759   9.370   2.988   2.534  0.2505  1.0426  1.6059
  279MOL0     C36760   9.388   3.062   2.621  0.0726 -1.0098  0.9165
  279MOL0     C36761   8.979   2.764   2.096  0.9308  0.0128 -0.2648
  279MOL0     C36762   8.891   2.722   1.986  0.2506 -1.3526 -0.9364
  279MOL0     H36763   8.515   2.471   1.864  1.0638  0.1234  0.6931
  279MOL0     H36764   8.328   2.420   1.713  0.7877 -0.4733  0.0627
  279MOL0     H36765   8.346   2.689   1.390 -2.5453  3.2264 -1.4925
  279MOL0     H36766   8.187   2.655   1.451 -1.3363 -1.7462 -0.4800
  279MOL0     H36767   8.188   2.483   1.228 -0.4742  0.8517 -0.2982
  279MOL0     H36768   8.295   2.603   1.171  0.8736 -0.0309  1.7703
  279MOL0     H36769   8.120   2.776   1.198  1.2821 -0.0325 -0.1386
  279MOL0     H36770   8.012   2.659   1.275 -0.8332 -0.4296  0.2595
  279MOL0     H36771   8.158   2.664   1.004  0.6093  2.7642  1.6959
  279MOL0     H36772   8.060   2.527   1.045  2.6307 -1.3684  2.3017
  279MOL0     H36773   7.920   2.683   0.901 -2.5014  0.4940  0.3819
  279MOL0     H36774   7.979   2.819   0.999 -0.9421 -0.0966  1.1226
  279MOL0     H36775   7.834   2.757   1.177  1.5884 -1.1495 -0.3302
  279MOL0     H36776   7.785   2.605   1.121 -0.3882  0.0678  0.1676
  279MOL0     H36777   7.696   2.865   1.007 -3.7896  0.2792  1.5294
  279MOL0     H36778   7.681   2.720   0.907  4.0261 -2.3518 -0.0773
  279MOL0     H36779   7.584   2.756   1.192  2.7265  0.4242  0.1651
  279MOL0     H36780   7.542   2.619   1.093  0.9386  0.3570  0.4315
  279MOL0     H36781   7.392   2.672   0.850  0.9753 -0.5502  1.2102
  279MOL0     H36782   7.180   2.780   0.722  2.7780 -0.1113 -1.3898
  279MOL0     H36783   7.154   2.951   0.754  0.9033 -0.0075  1.0358
  279MOL0     H36784   7.017   2.916   0.936  2.1191  0.3073  0.2749
  279MOL0     H36785   7.055   2.742   0.952  1.9214 -0.3696  0.4788
  279MOL0     H36786   6.928   2.858   0.696  2.0345  0.6016  0.1135
  279MOL0     H36787   6.959   2.691   0.762  2.2372  0.3396 -1.3119
  279MOL0     H36788   6.757   2.886   0.870 -0.1656  0.2086 -0.4376
  279MOL0     H36789   6.795   2.725   0.941 -1.4587 -0.2424  0.2911
  279MOL0     H36790   6.575   2.790   0.984  4.1319 -1.2929 -2.1488
  279MOL0     H36791   6.349   2.725   1.049  0.0200 -0.9219  0.2802
  279MOL0     H36792   5.915   2.478   0.994 -1.9014 -1.3599  0.3244
  279MOL0     H36793   5.695   2.434   0.985  4.4315 -0.0552  0.8212
  279MOL0     H36794   5.518   2.359   0.569 -2.9013 -1.2523 -0.5191
  279MOL0     H36795   5.463   2.531   0.614  2.0854 -0.1231  1.1067
  279MOL0     H36796   5.305   2.440   0.766  1.5736  2.0613 -0.2649
  279MOL0     H36797   5.345   2.272   0.696  2.6176 -0.3918  0.1670
  279MOL0     H36798   5.278   2.402   0.467  5.3326 -5.4866  1.5516
  279MOL0     H36799   5.201   2.519   0.581 -0.8541 -0.1091 -1.8134
  279MOL0     H36800   5.152   2.221   0.621  2.2105  0.3650  0.7105
  279MOL0     H36801   5.054   2.354   0.668 -0.9729  0.6024 -0.9759
  279MOL0     H36802   5.062   2.242   0.389 -2.1695  0.4768 -1.1645
  279MOL0     H36803   5.027   2.417   0.406 -3.2265 -0.8891 -0.2837
  279MOL0     H36804   4.829   2.282   0.391  1.0081  0.2848 -1.4347
  279MOL0     H36805   4.843   2.378   0.537  1.4472 -0.3807 -0.1348
  279MOL0     H36806   4.920   2.083   0.515  2.0888  1.6522  1.2503
  279MOL0     H36807   4.905   2.170   0.664  2.2653  2.4361 -0.9517
  279MOL0     H36808   4.692   2.037   0.622 -1.5509  0.4327  1.0687
  279MOL0     H36809   4.708   2.088   0.456 -0.0969  0.0533  0.3932
  279MOL0     H36810   5.704   2.476   0.555  0.4501 -2.3887 -0.4410
  279MOL0     H36811   5.960   2.520   0.587  2.5271 -2.7905  1.6358
  279MOL0     H36812   6.318   2.511   0.664  0.5648 -1.1283  0.7727
  279MOL0     H36813   6.551   2.600   0.617 -2.3310  3.3531 -2.0862
  279MOL0     H36814   8.532   2.567   1.377  0.7455 -1.7469 -1.0435
  279MOL0     H36815   8.730   2.626   1.535  1.0054 -0.3131  0.4656
  279MOL0     H36816   9.103   2.530   1.812 -3.0830 -0.8795 -0.8618
  279MOL0     H36817   9.256   2.597   1.975  0.1294 -0.9057 -0.2254
  279MOL0     H36818   9.290   2.555   2.201 -0.4141  0.3454 -0.7533
  279MOL0     H36819   9.225   2.601   2.354 -0.7539  1.2365 -0.2440
  279MOL0     H36820   9.468   2.591   2.340  1.9257  0.6951 -1.3426
  279MOL0     H36821   9.470   2.731   2.246 -0.7294 -2.0830 -1.3747
  279MOL0     H36822   9.510   2.807   2.476  1.3139 -0.8300 -0.8223
  279MOL0     H36823   9.358   2.718   2.524 -1.8743 -1.4564 -2.9581
  279MOL0     H36824   9.360   2.954   2.330  0.8939  1.0651  0.9078
  279MOL0     H36825   9.231   2.875   2.431  0.8083 -1.1242  3.2964
  279MOL0     H36826   9.410   3.108   2.715  1.4027 -0.4591  0.3583
  279MOL0     H36827   8.932   2.817   2.179  0.8398 -3.7314  2.3778
  279MOL0     H36828   8.791   2.761   1.973 -0.7074 -2.3347  2.4804
  280MOL0     O36829   5.282   5.693  10.975  1.2248 -0.1389  0.2907
  280MOL0     C36830   5.329   5.582  11.023  0.6045 -0.3185  0.2775
  280MOL0     O36831   5.252   5.484  11.089  0.1632 -0.1926 -0.5190
  280MOL0     C36832   5.131   5.525  11.129  0.1995 -0.0869  1.2897
  280MOL0     C36833   5.102   5.610  11.225  0.1646 -0.0468 -0.6853
  280MOL0     C36834   4.971   5.640  11.259  0.1103 -0.2562  0.4809
  280MOL0     C36835   4.859   5.586  11.194 -0.2405 -0.0202  0.1824
  280MOL0     O36836   4.730   5.623  11.219  0.1790 -0.0182 -0.2223
  280MOL0     C36837   4.627   5.545  11.161  1.1678 -0.0092  1.1972
  280MOL0     C36838   4.494   5.586  11.228 -1.1144 -0.9258 -0.4005
  280MOL0     C36839   4.385   5.570  11.117 -0.9886  0.0051  0.3873
  280MOL0     C36840   4.247   5.562  11.183  1.2639  0.2337  0.3616
  280MOL0     C36841   4.131   5.592  11.089  0.3318  0.2147 -0.6025
  280MOL0     C36842   3.992   5.570  11.142  0.3128 -0.3914 -0.4154
  280MOL0     C36843   3.949   5.437  11.202  0.4730 -0.5092 -0.9759
  280MOL0     C36844   3.889   5.348  11.088  0.3818  0.9071  0.7122
  280MOL0     N36845   3.776   5.409  11.014  0.1685 -0.1227  0.0813
  280MOL0     C36846   3.645   5.413  11.053  0.6290 -0.1552  0.2907
  280MOL0     C36847   3.579   5.450  10.937 -0.0479  0.6497  0.3623
  280MOL0     C36848   3.429   5.451  10.924  0.2896  0.1750 -0.6953
  280MOL0     C36849   3.353   5.316  10.936  0.6248  0.5739  0.6887
  280MOL0     C36850   3.222   5.325  10.849 -0.9560  0.7819  0.1829
  280MOL0     C36851   3.144   5.200  10.858  0.3854  0.2533  0.2072
  280MOL0     O36852   3.108   5.181  10.999 -0.8647 -0.0281 -0.5918
  280MOL0     C36853   2.990   5.243  11.033 -0.2189  0.0222 -0.4764
  280MOL0     C36854   2.992   5.352  11.115 -0.1756  0.5434 -0.6408
  280MOL0     C36855   2.873   5.404  11.162  0.7651  0.4626 -0.1620
  280MOL0     C36856   2.752   5.341  11.130 -0.2750 -0.5996 -0.1097
  280MOL0     C36857   2.615   5.397  11.183  0.4317  0.8604 -0.2083
  280MOL0     O36858   2.498   5.340  11.132 -0.2241  0.2975 -0.2352
  280MOL0     C36859   2.376   5.393  11.171  0.1179  0.7444 -0.1854
  280MOL0     C36860   2.269   5.313  11.204 -1.1411 -0.0970  0.2584
  280MOL0     C36861   2.150   5.368  11.234  0.2372 -0.2680 -0.1411
  280MOL0     C36862   2.119   5.506  11.218 -0.2214 -0.1557 -0.3569
  280MOL0     O36863   1.998   5.557  11.256  0.4095 -0.2076 -0.1273
  280MOL0     C36864   1.998   5.631  11.377  0.4117  0.1506 -0.1949
  280MOL0     C36865   1.868   5.722  11.362  0.4281 -0.6613  0.0608
  280MOL0     C36866   1.746   5.646  11.409  0.1239  0.4716 -1.1179
  280MOL0     C36867   1.621   5.730  11.388  0.9042  0.2185 -0.4215
  280MOL0     C36868   1.498   5.670  11.472  0.2231 -0.5715  0.3999
  280MOL0     C36869   1.498   5.688  11.619 -0.0931  0.1860 -0.3775
  280MOL0     C36870   1.365   5.690  11.689 -0.2299  0.6572 -1.0326
  280MOL0     C36871   1.329   5.806  11.789  0.0389 -0.4408 -0.1056
  280MOL0    Cl36872   1.289   5.948  11.687 -0.4559 -0.0424 -0.4251
  280MOL0     C36873   2.227   5.590  11.180  0.0744 -0.8522  0.7014
  280MOL0     C36874   2.356   5.533  11.178  0.1381 -0.2479  0.4793
  280MOL0     O36875   2.620   5.478  11.273  0.4903  0.0227 -0.2053
  280MOL0     C36876   2.747   5.224  11.054  0.5217  0.4044  0.0079
  280MOL0     C36877   2.869   5.174  11.003  0.2297 -0.5106  0.8325
  280MOL0     N36878   3.676   5.485  10.846 -0.4127 -0.6908  1.1243
  280MOL0     N36879   3.793   5.452  10.883 -0.2786  0.2472  0.4264
  280MOL0     C36880   4.894   5.488  11.091 -0.4170 -0.9069  0.4530
  280MOL0     C36881   5.028   5.462  11.062 -0.5000  0.6011 -0.0289
  280MOL0     C36882   5.454   5.537  10.982 -0.2056 -0.0228 -0.1802
  280MOL0     C36883   5.517   5.601  10.872  0.6668  0.5708  0.0159
  280MOL0     C36884   5.653   5.560  10.838  0.5899 -0.1561  0.4627
  280MOL0     C36885   5.718   5.461  10.914 -0.1644  0.3732 -0.3028
  280MOL0     O36886   5.850   5.419  10.891  0.5551 -0.6486 -0.0367
  280MOL0     C36887   5.939   5.501  10.804  0.1477 -0.3222  0.1033
  280MOL0     C36888   6.080   5.470  10.840  0.6052  0.3760  0.1767
  280MOL0     C36889   6.120   5.490  10.988 -0.5467  0.0679  0.7175
  280MOL0     C36890   6.269   5.459  11.023  0.1096 -0.6023 -0.4232
  280MOL0     C36891   6.296   5.326  10.974  0.1087 -0.1427  0.1368
  280MOL0     C36892   6.321   5.217  10.933 -0.5307  0.0384 -0.4594
  280MOL0     C36893   5.642   5.394  11.019  0.3674  0.0173  0.1381
  280MOL0     C36894   5.522   5.440  11.063 -0.1493 -0.7374  0.3795
  280MOL0     H36895   5.178   5.658  11.285 -1.7831 -0.7133  2.5639
  280MOL0     H36896   4.951   5.710  11.340  0.9485  0.1919  0.3112
  280MOL0     H36897   4.645   5.441  11.190 -2.1598 -1.0373  0.0937
  280MOL0     H36898   4.624   5.564  11.054 -0.9601  2.7617  1.6280
  280MOL0     H36899   4.507   5.687  11.266  2.7186 -0.3149 -2.8295
  280MOL0     H36900   4.482   5.513  11.309 -2.2659 -2.9732 -2.3000
  280MOL0     H36901   4.400   5.476  11.062 -0.7628 -0.2420  0.8700
  280MOL0     H36902   4.394   5.661  11.057  3.2337 -0.9125 -0.7112
  280MOL0     H36903   4.228   5.472  11.243 -2.2173  0.2380 -0.5215
  280MOL0     H36904   4.248   5.649  11.250 -1.1257 -0.1456  1.0167
  280MOL0     H36905   4.143   5.527  11.001  4.8697  2.0822 -1.6808
  280MOL0     H36906   4.150   5.693  11.049 -0.3104  0.5474 -0.0814
  280MOL0     H36907   3.925   5.596  11.060  1.0073 -2.2479 -1.6428
  280MOL0     H36908   3.975   5.652  11.213 -1.1316 -0.5647 -0.5332
  280MOL0     H36909   4.036   5.394  11.252  0.6625 -0.5943 -1.3723
  280MOL0     H36910   3.869   5.443  11.277  0.5351 -2.9326 -0.6368
  280MOL0     H36911   3.848   5.256  11.132  0.0611 -0.1284 -1.5659
  280MOL0     H36912   3.963   5.321  11.012 -2.4421  0.2691 -2.0638
  280MOL0     H36913   3.591   5.389  11.144  0.0783  0.1082  0.0378
  280MOL0     H36914   3.401   5.493  10.827 -3.9295 -0.5427  0.0148
  280MOL0     H36915   3.376   5.522  10.988 -0.8611 -1.8103  0.6525
  280MOL0     H36916   3.328   5.299  11.042  0.8099  2.1556  1.0024
  280MOL0     H36917   3.409   5.226  10.910  0.7054  0.3873  1.4715
  280MOL0     H36918   3.162   5.412  10.878 -4.4741 -0.5403 -2.3848
  280MOL0     H36919   3.259   5.334  10.746  0.8068 -2.6917  0.3865
  280MOL0     H36920   3.197   5.108  10.831  1.4597  1.5125 -2.2872
  280MOL0     H36921   3.053   5.211  10.799  3.0667 -0.3632 -4.4664
  280MOL0     H36922   3.084   5.408  11.126 -0.6302  1.1610  0.1040
  280MOL0     H36923   2.874   5.496  11.219  1.4236  0.8634 -0.8087
  280MOL0     H36924   2.277   5.205  11.209 -0.0457 -0.3135 -3.3654
  280MOL0     H36925   2.070   5.303  11.268  2.6213 -2.7198  1.0701
  280MOL0     H36926   2.090   5.687  11.397 -0.1911  2.0982 -2.4061
  280MOL0     H36927   1.984   5.567  11.465  3.0134  2.4470  2.1226
  280MOL0     H36928   1.856   5.764  11.261 -0.8714 -0.5866  0.2223
  280MOL0     H36929   1.887   5.806  11.430 -2.6185 -1.0091  1.5307
  280MOL0     H36930   1.772   5.621  11.512 -0.4559  1.1610 -0.7928
  280MOL0     H36931   1.738   5.557  11.345 -2.4835  0.4010 -0.8167
  280MOL0     H36932   1.644   5.834  11.413 -0.7870  0.2560  1.1782
  280MOL0     H36933   1.596   5.750  11.283 -0.6889  2.7162  0.3517
  280MOL0     H36934   1.492   5.564  11.447  1.6722 -0.2144 -1.7724
  280MOL0     H36935   1.415   5.725  11.427  3.4977  2.0749 -3.0357
  280MOL0     H36936   1.544   5.787  11.626  1.1916 -0.3051 -1.4989
  280MOL0     H36937   1.577   5.627  11.663  1.3454  3.3687  1.8739
  280MOL0     H36938   1.285   5.673  11.617 -0.0845  0.1069 -1.0688
  280MOL0     H36939   1.366   5.599  11.750  3.3747  1.3083  0.0793
  280MOL0     H36940   1.416   5.830  11.851 -1.0153 -1.9396  2.0915
  280MOL0     H36941   1.246   5.776  11.854  1.1040  0.8752  2.0033
  280MOL0     H36942   2.215   5.695  11.156 -1.1698 -0.5187  2.5724
  280MOL0     H36943   2.442   5.597  11.158 -0.5271  0.7784  0.8292
  280MOL0     H36944   2.653   5.184  11.019  1.8988 -1.5230 -1.7787
  280MOL0     H36945   2.864   5.090  10.934  1.5110 -0.6738  0.9132
  280MOL0     H36946   4.815   5.443  11.031 -1.5592 -0.1111  1.3203
  280MOL0     H36947   5.057   5.392  10.984 -1.0542  0.7719 -0.3985
  280MOL0     H36948   5.457   5.667  10.810  2.6964  0.9023 -1.6857
  280MOL0     H36949   5.696   5.602  10.747 -2.9326  0.2127 -1.1683
  280MOL0     H36950   5.912   5.606  10.819  1.4433  0.7686 -3.7995
  280MOL0     H36951   5.907   5.490  10.699 -3.8739 -1.4343  1.2611
  280MOL0     H36952   6.096   5.371  10.798  1.6441  0.9677 -0.8777
  280MOL0     H36953   6.131   5.546  10.780  0.0824 -0.0898 -0.8896
  280MOL0     H36954   6.060   5.429  11.056  0.1423 -1.9246 -0.3963
  280MOL0     H36955   6.107   5.596  11.012 -0.9164 -0.1250  1.3779
  280MOL0     H36956   6.335   5.541  10.994 -2.0011  1.1561 -0.4293
  280MOL0     H36957   6.267   5.460  11.132 -0.6667 -2.3065 -0.3922
  280MOL0     H36958   6.348   5.119  10.901  1.4152  0.7636 -1.2265
  280MOL0     H36959   5.710   5.324  11.066  1.6857 -0.5505 -2.4360
  280MOL0     H36960   5.480   5.399  11.155  1.4128  1.6049  2.2889
  281MOL0     O36961   8.312   1.293  11.136  0.5377 -0.7311  0.6301
  281MOL0     C36962   8.382   1.267  11.233 -0.2456  0.3144 -0.1111
  281MOL0     O36963   8.381   1.147  11.304  0.0080 -0.3255  0.1811
  281MOL0     C36964   8.302   1.036  11.275  0.1467 -0.2672 -0.1604
  281MOL0     C36965   8.346   0.913  11.318 -0.0204 -0.6225 -0.7878
  281MOL0     C36966   8.276   0.793  11.292 -0.3276  0.3726  0.8516
  281MOL0     C36967   8.152   0.792  11.231 -0.0493 -0.1536 -0.0805
  281MOL0     O36968   8.077   0.680  11.220 -0.6252 -0.2597  0.4622
  281MOL0     C36969   7.976   0.671  11.117  0.9298 -0.4276  0.0754
  281MOL0     C36970   7.943   0.520  11.104 -0.0284  0.1442 -0.6382
  281MOL0     C36971   7.840   0.499  10.994  0.2814 -0.0491 -0.1854
  281MOL0     C36972   7.823   0.349  10.985 -0.6368  1.0374  0.8375
  281MOL0     C36973   7.741   0.319  10.854  0.4228  0.0383  0.9184
  281MOL0     C36974   7.730   0.168  10.838 -0.2060  0.4624  0.1797
  281MOL0     C36975   7.703   0.112  10.689 -0.5855  0.5999 -0.0020
  281MOL0     C36976   7.717  -0.046  10.674 -0.2796 -0.5676 -0.6523
  281MOL0     N36977   7.597  -0.104  10.742  0.6411 -0.1108 -0.2740
  281MOL0     C36978   7.462  -0.120  10.700  0.3544 -0.8820  0.2692
  281MOL0     C36979   7.407  -0.185  10.813 -0.3031  0.1376 -0.2452
  281MOL0     C36980   7.263  -0.222  10.813 -0.2440 -0.1756  0.0300
  281MOL0     C36981   7.212  -0.316  10.925  0.8461 -1.3142 -0.1773
  281MOL0     C36982   7.071  -0.350  10.898  0.0432  0.3435  0.2513
  281MOL0     C36983   6.990  -0.401  11.022  0.4645  0.1405 -0.6697
  281MOL0     O36984   6.855  -0.372  10.974  0.0557  0.0962 -0.2488
  281MOL0     C36985   6.770  -0.474  10.965  0.2036  0.9121  0.5690
  281MOL0     C36986   6.636  -0.456  11.010 -0.5231 -0.4484 -0.2428
  281MOL0     C36987   6.545  -0.563  11.026  0.0706  0.4292  0.1480
  281MOL0     C36988   6.591  -0.692  10.996  0.2404  0.3126  0.7229
  281MOL0     C36989   6.491  -0.811  11.002  0.6643  0.1877  0.7060
  281MOL0     O36990   6.382  -0.793  11.073 -0.2274 -0.3705 -0.4591
  281MOL0     C36991   6.269  -0.876  11.071 -0.7751 -0.1974  0.2358
  281MOL0     C36992   6.236  -0.941  11.196 -0.0442  0.1751  0.0364
  281MOL0     C36993   6.114  -1.020  11.199 -0.5515 -0.3162 -0.4292
  281MOL0     C36994   6.025  -1.029  11.085 -0.0285  0.1997  0.1524
  281MOL0     O36995   5.909  -1.114  11.099 -0.7331 -0.4612 -0.3930
  281MOL0     C36996   5.816  -1.147  10.996 -0.1642  0.0391 -0.8212
  281MOL0     C36997   5.682  -1.066  10.996 -1.1661  0.0900  0.0320
  281MOL0     C36998   5.607  -1.098  10.868  0.0572  0.6496  0.1694
  281MOL0     C36999   5.541  -1.238  10.877  0.4825  0.3358  0.6438
  281MOL0     C37000   5.424  -1.240  10.771  0.0888  0.3584 -0.2038
  281MOL0     C37001   5.295  -1.174  10.803 -0.4962  0.3403 -0.6699
  281MOL0     C37002   5.210  -1.162  10.674 -0.3227 -0.0715  0.6082
  281MOL0     C37003   5.063  -1.160  10.706 -0.3890 -0.8189 -0.7538
  281MOL0    Cl37004   4.977  -1.190  10.545 -0.4513 -0.0519  0.1886
  281MOL0     C37005   6.065  -0.964  10.967 -0.2301 -0.9150  0.0651
  281MOL0     C37006   6.177  -0.878  10.960  1.1173 -0.1457  0.4787
  281MOL0     O37007   6.516  -0.912  10.928  0.6536  0.4007  0.4152
  281MOL0     C37008   6.714  -0.706  10.942  0.7607 -0.8416  0.8380
  281MOL0     C37009   6.796  -0.595  10.920 -0.6023  1.0307 -0.2144
  281MOL0     N37010   7.503  -0.210  10.909  0.6877  0.2631 -0.7385
  281MOL0     N37011   7.606  -0.157  10.867  0.6814 -0.8375  0.2668
  281MOL0     C37012   8.102   0.918  11.207 -1.0471 -1.2869  0.0655
  281MOL0     C37013   8.171   1.042  11.228 -1.0569 -0.2411 -0.3457
  281MOL0     C37014   8.489   1.371  11.281  0.2266 -0.5424  0.6773
  281MOL0     C37015   8.557   1.343  11.397 -0.0800  0.3578  0.2240
  281MOL0     C37016   8.660   1.433  11.434  0.0746 -0.2463  0.0728
  281MOL0     C37017   8.691   1.554  11.371  0.3421  0.7705  0.4182
  281MOL0     O37018   8.798   1.622  11.432  0.5604 -0.0054 -0.0273
  281MOL0     C37019   8.844   1.745  11.378  0.6414 -0.4227  0.2662
  281MOL0     C37020   8.962   1.795  11.470 -0.4903 -0.0932  0.1648
  281MOL0     C37021   8.963   1.952  11.484  0.3040  0.2838  0.1775
  281MOL0     C37022   8.993   2.034  11.352 -0.1767  1.2697 -0.0569
  281MOL0     C37023   9.111   1.990  11.275 -0.4541  0.6108  0.1831
  281MOL0     C37024   9.207   1.953  11.199 -0.1746  0.3121 -0.7171
  281MOL0     C37025   8.610   1.585  11.261 -0.1085 -0.4722  0.6015
  281MOL0     C37026   8.509   1.497  11.208 -1.0338  0.5453 -0.2388
  281MOL0     H37027   8.438   0.913  11.376  1.0040 -3.1364 -2.2285
  281MOL0     H37028   8.312   0.704  11.344  0.3377  0.0718 -0.0980
  281MOL0     H37029   8.003   0.717  11.021  3.3769 -1.2819  0.2829
  281MOL0     H37030   7.888   0.724  11.153 -0.0835 -0.9360 -1.5460
  281MOL0     H37031   7.911   0.478  11.200  2.1508  1.2101  0.6317
  281MOL0     H37032   8.034   0.468  11.072 -0.4386 -0.4915 -0.7905
  281MOL0     H37033   7.867   0.547  10.899 -0.6803  3.7648  1.2868
  281MOL0     H37034   7.749   0.557  11.012  0.2439  0.5919 -2.2025
  281MOL0     H37035   7.920   0.299  10.981 -0.2033  1.9502 -0.6984
  281MOL0     H37036   7.770   0.318  11.076  0.7141  0.4794  1.4678
  281MOL0     H37037   7.794   0.364  10.770 -3.8190  3.3944 -0.3137
  281MOL0     H37038   7.638   0.355  10.857  0.2739 -0.3170  0.1125
  281MOL0     H37039   7.660   0.126  10.911 -0.8481  1.0590 -0.0752
  281MOL0     H37040   7.828   0.126  10.862 -0.3517  0.0317  0.0210
  281MOL0     H37041   7.603   0.136  10.652 -0.3638 -1.3292 -2.1280
  281MOL0     H37042   7.778   0.150  10.618  0.7137 -0.1269  0.9474
  281MOL0     H37043   7.808  -0.077  10.727 -1.1959  0.3062  1.5545
  281MOL0     H37044   7.723  -0.063  10.566 -0.4852  0.2389 -0.7948
  281MOL0     H37045   7.422  -0.097  10.602  1.6597 -0.9301 -0.3047
  281MOL0     H37046   7.249  -0.275  10.719 -0.9704 -0.9611  0.5758
  281MOL0     H37047   7.196  -0.135  10.818 -1.7325 -1.3571  1.6166
  281MOL0     H37048   7.209  -0.261  11.020  3.0371 -0.0167 -0.8049
  281MOL0     H37049   7.270  -0.408  10.935 -0.4778 -2.0732  1.0805
  281MOL0     H37050   7.019  -0.260  10.865 -0.7356  0.1229  0.8369
  281MOL0     H37051   7.065  -0.429  10.822 -1.2056  0.6260  0.0245
  281MOL0     H37052   7.024  -0.344  11.109  0.2483 -1.0957  0.2480
  281MOL0     H37053   7.015  -0.506  11.040  0.0714  0.0051 -0.9016
  281MOL0     H37054   6.613  -0.351  11.027 -1.0654 -0.6988  0.5787
  281MOL0     H37055   6.445  -0.551  11.068 -0.7550  1.5634 -1.9920
  281MOL0     H37056   6.305  -0.932  11.279  1.0426 -3.9526 -0.1937
  281MOL0     H37057   6.087  -1.088  11.279 -1.7274 -1.0151 -1.3724
  281MOL0     H37058   5.790  -1.248  11.029 -0.3623  1.1994  2.9939
  281MOL0     H37059   5.866  -1.161  10.899  0.6406  2.1653 -0.7647
  281MOL0     H37060   5.713  -0.962  11.009 -1.1896  0.1935 -0.7418
  281MOL0     H37061   5.615  -1.091  11.079 -1.3110  0.9939  0.1961
  281MOL0     H37062   5.674  -1.093  10.782  0.8621 -0.1096  0.7224
  281MOL0     H37063   5.524  -1.027  10.870 -1.3362 -0.8382 -1.7227
  281MOL0     H37064   5.620  -1.306  10.846  1.6410  2.6848 -1.9292
  281MOL0     H37065   5.496  -1.272  10.971  1.0977 -2.1337  0.1005
  281MOL0     H37066   5.396  -1.345  10.757  0.5777  0.0652  0.9121
  281MOL0     H37067   5.453  -1.202  10.673  0.5382  0.0430 -0.1953
  281MOL0     H37068   5.315  -1.069  10.825  2.3730 -0.1830 -0.3864
  281MOL0     H37069   5.250  -1.224  10.890  1.8905 -0.5499  0.1341
  281MOL0     H37070   5.241  -1.081  10.608 -0.2549 -0.9880 -0.5215
  281MOL0     H37071   5.222  -1.252  10.613  3.2682 -1.4510  2.9930
  281MOL0     H37072   5.041  -1.069  10.764  1.1942 -0.6971 -0.2912
  281MOL0     H37073   5.046  -1.236  10.783  0.4701  0.1503  0.4496
  281MOL0     H37074   6.004  -0.969  10.878 -1.4964 -0.6234  0.8896
  281MOL0     H37075   6.205  -0.813  10.877  2.1610  1.0586  1.7302
  281MOL0     H37076   6.749  -0.804  10.914 -1.9279 -1.2062 -1.6486
  281MOL0     H37077   6.894  -0.609  10.875 -0.2955  0.8590  0.4936
  281MOL0     H37078   8.001   0.916  11.168 -0.7502 -0.0280 -0.8279
  281MOL0     H37079   8.120   1.136  11.209 -0.1566  0.9807  2.6965
  281MOL0     H37080   8.526   1.257  11.456  3.1980 -2.2648 -1.5779
  281MOL0     H37081   8.725   1.400  11.514  1.2505  0.4457 -0.5659
  281MOL0     H37082   8.770   1.824  11.370  0.7827 -0.4480 -1.9475
  281MOL0     H37083   8.880   1.731  11.276  2.7370 -0.0342  0.8951
  281MOL0     H37084   8.957   1.753  11.571 -0.8130  1.0199  0.6279
  281MOL0     H37085   9.057   1.760  11.428 -0.0341  0.7839  0.4400
  281MOL0     H37086   9.037   1.974  11.561  2.2480  2.2917 -2.1170
  281MOL0     H37087   8.861   1.974  11.519 -0.0053  1.9353 -1.6168
  281MOL0     H37088   8.904   2.018  11.290 -0.5430 -0.7553  0.9157
  281MOL0     H37089   9.005   2.136  11.390  1.6604  0.2186  2.5129
  281MOL0     H37090   9.276   1.902  11.135  2.6136 -1.1711  3.0666
  281MOL0     H37091   8.626   1.680  11.212  3.6069 -0.9306  0.6667
  281MOL0     H37092   8.451   1.532  11.124  1.3794 -0.1233 -2.2880
  282MOL0     O37093   9.429  10.253   5.300  0.1168  0.3675 -0.2295
  282MOL0     C37094   9.496  10.225   5.404  0.4959 -0.3450  0.8592
  282MOL0     O37095   9.457  10.255   5.536  0.3156 -0.8090  0.4445
  282MOL0     C37096   9.342  10.336   5.544 -0.6768 -0.8625 -0.4123
  282MOL0     C37097   9.228  10.268   5.557 -0.0136  0.4851  0.6981
  282MOL0     C37098   9.111  10.343   5.570  1.0124  1.0209  0.3053
  282MOL0     C37099   9.104  10.482   5.550  0.2564 -0.3410 -0.1219
  282MOL0     O37100   8.986  10.556   5.564  0.5428  0.2307  0.5775
  282MOL0     C37101   8.865  10.499   5.618 -0.1041  0.3814  0.0317
  282MOL0     C37102   8.742  10.593   5.595  0.9301 -0.4030  0.6449
  282MOL0     C37103   8.608  10.520   5.607  0.7852  1.2855  0.6578
  282MOL0     C37104   8.502  10.605   5.671  1.0899 -0.3578 -0.4445
  282MOL0     C37105   8.447  10.721   5.579  0.0956  0.9134 -0.1136
  282MOL0     C37106   8.332  10.791   5.662 -0.2313  1.1004  0.3623
  282MOL0     C37107   8.358  10.815   5.809  0.1842  0.5204  0.1720
  282MOL0     C37108   8.488  10.883   5.860  0.8197 -0.5255  0.4262
  282MOL0     N37109   8.479  11.026   5.802  0.2890  0.0495  0.0234
  282MOL0     C37110   8.497  11.078   5.671 -1.3084  0.1459  0.2454
  282MOL0     C37111   8.465  11.206   5.680  0.5084  1.0558 -0.0081
  282MOL0     C37112   8.469  11.309   5.569  0.4496  0.0497  0.7486
  282MOL0     C37113   8.330  11.327   5.501  0.3504 -0.2088 -0.0709
  282MOL0     C37114   8.227  11.393   5.581 -0.1156 -0.2104 -0.4584
  282MOL0     C37115   8.089  11.432   5.512 -0.0364 -0.8529 -0.1664
  282MOL0     O37116   8.011  11.320   5.491  0.4836 -0.4597 -0.0826
  282MOL0     C37117   7.880  11.368   5.469  1.1760 -0.1048  0.3526
  282MOL0     C37118   7.787  11.350   5.573 -0.3331  0.2952  0.0843
  282MOL0     C37119   7.652  11.391   5.549 -0.2188  0.3277 -0.3528
  282MOL0     C37120   7.608  11.440   5.430 -0.4268  1.1865  0.6562
  282MOL0     C37121   7.465  11.466   5.396 -0.6384 -0.4258  0.1619
  282MOL0     O37122   7.366  11.442   5.486 -0.6953 -0.8072  0.5990
  282MOL0     C37123   7.243  11.500   5.469  0.0615  0.1525 -0.3299
  282MOL0     C37124   7.180  11.563   5.580 -0.3136  0.3295  0.0407
  282MOL0     C37125   7.052  11.612   5.558 -0.1176  1.0865  0.0161
  282MOL0     C37126   6.988  11.607   5.437  0.3993  0.0650 -0.0504
  282MOL0     O37127   6.859  11.664   5.424 -0.4723  1.3742 -0.4493
  282MOL0     C37128   6.821  11.779   5.499  0.2427  0.8407  1.1374
  282MOL0     C37129   6.682  11.825   5.440  0.7960 -0.4913  0.1167
  282MOL0     C37130   6.632  11.929   5.544 -0.9466  0.9384 -0.7120
  282MOL0     C37131   6.486  11.968   5.509  0.0039  1.3540  1.6500
  282MOL0     C37132   6.438  12.081   5.611 -0.3051 -0.0367  0.1968
  282MOL0     C37133   6.422  12.016   5.751 -0.0190  0.0013 -0.3494
  282MOL0     C37134   6.362  12.124   5.854  0.3917 -0.0942 -0.0346
  282MOL0     C37135   6.295  12.060   5.976  0.0221 -0.6009 -0.1523
  282MOL0    Cl37136   6.282  12.163   6.108 -0.3487  0.1793 -0.0424
  282MOL0     C37137   7.050  11.556   5.333 -0.5587  0.2109 -1.2652
  282MOL0     C37138   7.170  11.486   5.343 -0.8523  0.0900  0.2509
  282MOL0     O37139   7.450  11.481   5.276 -0.2614 -0.5827  0.4227
  282MOL0     C37140   7.703  11.443   5.325 -0.4823 -0.6988  0.2557
  282MOL0     C37141   7.836  11.407   5.344  0.1768  0.2665 -0.3878
  282MOL0     N37142   8.420  11.239   5.806 -0.9406  0.4903  0.0941
  282MOL0     N37143   8.426  11.125   5.871 -0.4492  0.7983 -0.3726
  282MOL0     C37144   9.224  10.545   5.525  0.7561  0.1060 -0.2007
  282MOL0     C37145   9.342  10.479   5.531 -0.6590  0.5729  0.0424
  282MOL0     C37146   9.618  10.137   5.380 -0.7791  1.0849  0.2437
  282MOL0     C37147   9.678  10.106   5.253  0.3955  0.0734  0.1808
  282MOL0     C37148   9.786  10.022   5.246 -0.0164 -0.4590  0.4028
  282MOL0     C37149   9.836   9.949   5.351  0.2692  0.0382 -0.7539
  282MOL0     O37150   9.943   9.871   5.355  0.8946 -0.0834  0.5993
  282MOL0     C37151  10.061   9.930   5.287 -0.1106 -0.2246 -0.2755
  282MOL0     C37152  10.111   9.846   5.169  0.1398  0.0816 -0.3553
  282MOL0     C37153  10.221   9.924   5.088 -0.7097 -0.0872  0.5086
  282MOL0     C37154  10.281   9.837   4.976  0.7337  0.2312 -1.3498
  282MOL0     C37155  10.405   9.902   4.919  1.3842 -0.2653  0.0817
  282MOL0     C37156  10.497   9.959   4.875 -0.1012 -0.5263 -0.9428
  282MOL0     C37157   9.776   9.971   5.469  0.3424 -0.4484 -0.8858
  282MOL0     C37158   9.670  10.066   5.488 -0.6451  0.1540 -0.6319
  282MOL0     H37159   9.238  10.160   5.556 -2.6936  0.0949 -1.8272
  282MOL0     H37160   9.019  10.288   5.591  0.1810  2.4204  0.4196
  282MOL0     H37161   8.878  10.473   5.724 -2.6759 -0.6192  0.1839
  282MOL0     H37162   8.845  10.412   5.554  2.5376  1.2230 -2.1157
  282MOL0     H37163   8.748  10.638   5.496 -0.6151  1.9608  1.5259
  282MOL0     H37164   8.758  10.666   5.675  0.2406 -1.0300  1.3785
  282MOL0     H37165   8.608  10.428   5.666 -0.6713 -0.5921 -2.0482
  282MOL0     H37166   8.567  10.491   5.510  1.0380  0.4919  0.7809
  282MOL0     H37167   8.420  10.541   5.703 -0.7461  2.4733  0.8537
  282MOL0     H37168   8.539  10.660   5.757 -2.2447  1.4051  0.0318
  282MOL0     H37169   8.404  10.692   5.483 -0.7248  1.8835 -0.0667
  282MOL0     H37170   8.530  10.790   5.563  0.3173  0.8400  0.6517
  282MOL0     H37171   8.234  10.744   5.653 -0.0671  1.1814 -2.7215
  282MOL0     H37172   8.314  10.890   5.619 -0.0403  1.2041  0.5184
  282MOL0     H37173   8.274  10.870   5.854 -0.1035  0.8041 -0.6767
  282MOL0     H37174   8.343  10.719   5.858 -3.8294  1.2802  0.8335
  282MOL0     H37175   8.584  10.833   5.843  1.7110  0.0953  3.1937
  282MOL0     H37176   8.484  10.891   5.969 -0.8187  4.6055  0.2729
  282MOL0     H37177   8.553  11.027   5.593  2.7103  0.9251  2.3156
  282MOL0     H37178   8.541  11.267   5.498 -0.1172 -2.7966  1.7409
  282MOL0     H37179   8.506  11.403   5.612  0.2281 -0.7389  2.7873
  282MOL0     H37180   8.288  11.238   5.455 -2.8256  1.1632 -0.1125
  282MOL0     H37181   8.366  11.390   5.419  3.6073  0.1993  1.5328
  282MOL0     H37182   8.203  11.332   5.669 -2.0399  0.0243 -0.7932
  282MOL0     H37183   8.278  11.486   5.608 -1.2806  0.2124  0.3639
  282MOL0     H37184   8.094  11.497   5.424 -0.6385 -2.1921 -1.2204
  282MOL0     H37185   8.036  11.505   5.574  0.1522  0.2897 -1.3146
  282MOL0     H37186   7.817  11.294   5.661 -1.4801 -0.7486 -0.1510
  282MOL0     H37187   7.582  11.373   5.631  0.1846 -1.6675 -0.3928
  282MOL0     H37188   7.233  11.571   5.674  0.6357 -0.9594 -0.3586
  282MOL0     H37189   6.995  11.651   5.642 -0.0051 -0.8788  1.0624
  282MOL0     H37190   6.897  11.855   5.480  2.2897 -0.9743  1.6844
  282MOL0     H37191   6.827  11.769   5.607  1.3274 -1.3926  0.9083
  282MOL0     H37192   6.605  11.747   5.445 -1.8820  1.7870 -2.2135
  282MOL0     H37193   6.685  11.867   5.339  1.2969  1.8211  1.0365
  282MOL0     H37194   6.696  12.018   5.535  2.5162 -1.3848 -0.8324
  282MOL0     H37195   6.634  11.894   5.647  2.5445  1.5019 -0.4790
  282MOL0     H37196   6.485  12.019   5.412 -1.3522 -1.1583  0.2282
  282MOL0     H37197   6.429  11.875   5.504  3.9364 -1.2427 -0.1471
  282MOL0     H37198   6.342  12.115   5.571 -2.2421 -4.6886  0.2549
  282MOL0     H37199   6.518  12.155   5.604 -0.5286  0.0519 -2.5413
  282MOL0     H37200   6.518  11.990   5.797  0.8101 -0.2460 -2.1619
  282MOL0     H37201   6.353  11.932   5.748  0.4158 -0.3939  0.3963
  282MOL0     H37202   6.438  12.191   5.894 -0.6759  1.7721 -0.9962
  282MOL0     H37203   6.294  12.188   5.797 -1.7383 -1.2690  1.0464
  282MOL0     H37204   6.357  11.978   6.013 -0.6432 -0.7786  0.6027
  282MOL0     H37205   6.192  12.033   5.950 -0.0349  2.1328 -3.4793
  282MOL0     H37206   6.986  11.542   5.247 -0.9461 -1.7175 -0.7263
  282MOL0     H37207   7.204  11.433   5.254 -2.3621 -0.5075 -0.0008
  282MOL0     H37208   7.679  11.467   5.222  3.3297 -1.2632 -0.9221
  282MOL0     H37209   7.903  11.418   5.259  1.7929  1.3334  0.9385
  282MOL0     H37210   9.218  10.651   5.504  0.5716 -0.3306 -2.6346
  282MOL0     H37211   9.434  10.534   5.513 -0.0878 -0.7508 -1.2977
  282MOL0     H37212   9.640  10.152   5.162 -3.1362 -0.3234  1.2835
  282MOL0     H37213   9.819  10.000   5.145 -3.6741  2.5048 -1.6805
  282MOL0     H37214  10.147   9.938   5.354  1.2540 -0.1029 -1.9648
  282MOL0     H37215  10.045  10.035   5.263  0.9694  0.6917  2.6091
  282MOL0     H37216  10.162   9.757   5.206 -0.1929 -0.2024 -0.5692
  282MOL0     H37217  10.032   9.818   5.099 -0.6643  0.7675  0.2505
  282MOL0     H37218  10.311   9.945   5.148  0.2701  0.6887 -1.1655
  282MOL0     H37219  10.182  10.018   5.048  1.6495  0.8038  0.1050
  282MOL0     H37220  10.310   9.742   5.021 -2.1575 -0.2418 -0.2630
  282MOL0     H37221  10.210   9.815   4.896  2.3562 -0.5095 -2.6353
  282MOL0     H37222  10.580  10.024   4.855  0.2216 -0.3999  0.6826
  282MOL0     H37223   9.817   9.930   5.561  1.5629 -2.2118 -2.1566
  282MOL0     H37224   9.633  10.086   5.588 -0.9981  0.5313 -0.8368
  283MOL0     O37225   7.109   3.927  10.915  0.0724 -0.4337 -0.4935
  283MOL0     C37226   7.161   3.966  10.813  0.6277 -0.0446  0.1017
  283MOL0     O37227   7.088   4.028  10.724  0.9896 -0.4151  0.2308
  283MOL0     C37228   6.960   4.011  10.719  0.2589 -0.2045 -0.7230
  283MOL0     C37229   6.880   4.126  10.684  0.4521  0.0137 -0.3717
  283MOL0     C37230   6.745   4.103  10.639 -0.8845 -0.9946 -0.3490
  283MOL0     C37231   6.682   3.980  10.647  0.6096  0.0836  1.0166
  283MOL0     O37232   6.542   3.968  10.637  0.0265  0.2065  0.4528
  283MOL0     C37233   6.493   3.858  10.722 -0.9113  0.2665 -0.2500
  283MOL0     C37234   6.350   3.879  10.765 -1.8883  1.0347 -0.1966
  283MOL0     C37235   6.246   3.842  10.661 -0.3321  0.0122 -0.0774
  283MOL0     C37236   6.106   3.874  10.719  0.1610  0.6209 -0.9983
  283MOL0     C37237   6.056   4.019  10.687  0.6396 -0.5794  0.4942
  283MOL0     C37238   6.000   4.016  10.544  0.3900  0.3279 -0.2101
  283MOL0     C37239   5.949   4.149  10.489  0.9568 -0.3519 -0.2982
  283MOL0     C37240   5.877   4.146  10.349  0.4010  1.1056  0.6603
  283MOL0     N37241   5.735   4.104  10.362 -0.2985  0.0540  1.0189
  283MOL0     C37242   5.683   3.977  10.389 -0.3454 -0.4733 -0.3973
  283MOL0     C37243   5.549   3.995  10.399  0.0020 -0.2890 -0.0724
  283MOL0     C37244   5.461   3.901  10.471  0.4261 -0.7925  0.4526
  283MOL0     C37245   5.451   3.952  10.608  0.5370 -0.5080 -0.4126
  283MOL0     C37246   5.381   3.842  10.702 -0.1855 -0.0743  0.3226
  283MOL0     C37247   5.441   3.843  10.848 -0.2960 -0.4569  0.2190
  283MOL0     O37248   5.392   3.718  10.910 -0.3914  0.2264 -0.8614
  283MOL0     C37249   5.266   3.694  10.955  0.3565  0.2622 -0.6842
  283MOL0     C37250   5.197   3.575  10.921  1.2250  1.1739  0.5775
  283MOL0     C37251   5.060   3.547  10.961  0.6493 -0.6241 -0.2985
  283MOL0     C37252   5.002   3.639  11.041 -0.0200 -0.1793  0.0213
  283MOL0     C37253   4.864   3.626  11.073  0.1998  0.9097 -0.4747
  283MOL0     O37254   4.802   3.669  11.192  0.5709 -0.5223  0.0941
  283MOL0     C37255   4.666   3.655  11.226 -0.0228 -0.5709  0.0672
  283MOL0     C37256   4.627   3.669  11.359 -0.3765 -0.0632 -1.0911
  283MOL0     C37257   4.496   3.662  11.405  0.3364 -0.5295  0.2065
  283MOL0     C37258   4.402   3.639  11.315  0.4263 -0.0751 -0.9107
  283MOL0     O37259   4.278   3.620  11.363  0.1435 -0.3703  0.3289
  283MOL0     C37260   4.186   3.544  11.290  0.6836  0.2461 -0.2005
  283MOL0     C37261   4.067   3.510  11.382  0.0936 -0.7937 -0.4615
  283MOL0     C37262   3.954   3.423  11.329  0.2287  0.5944  0.1188
  283MOL0     C37263   3.822   3.444  11.411 -0.1320 -0.2237  0.1651
  283MOL0     C37264   3.713   3.349  11.352 -0.5566 -0.2843  0.6809
  283MOL0     C37265   3.572   3.383  11.383  0.2414 -0.5088 -0.5284
  283MOL0     C37266   3.461   3.277  11.336  0.5008 -0.9703  0.0223
  283MOL0     C37267   3.327   3.342  11.365  1.0170 -0.4297 -0.1765
  283MOL0    Cl37268   3.213   3.211  11.323 -0.2990  0.2058  0.2256
  283MOL0     C37269   4.431   3.639  11.181  0.2363 -0.3399  0.3481
  283MOL0     C37270   4.565   3.654  11.131 -1.1407 -0.2150  0.0371
  283MOL0     O37271   4.801   3.563  10.992  0.2262 -0.3707  0.2076
  283MOL0     C37272   5.074   3.746  11.091 -0.0732 -0.5133 -0.6732
  283MOL0     C37273   5.208   3.772  11.054 -0.5123 -0.3102  0.3304
  283MOL0     N37274   5.523   4.127  10.364  0.3823 -0.0916 -0.2100
  283MOL0     N37275   5.636   4.188  10.332  0.7749  0.7665  0.2396
  283MOL0     C37276   6.758   3.867  10.698  0.2443 -0.2676 -0.7953
  283MOL0     C37277   6.892   3.886  10.720 -0.4255  0.5181 -0.0273
  283MOL0     C37278   7.309   3.963  10.791 -0.0061  1.4630 -0.2743
  283MOL0     C37279   7.359   3.949  10.669 -0.5652 -1.4190  0.9760
  283MOL0     C37280   7.506   3.939  10.650  0.7005  0.0894 -0.1776
  283MOL0     C37281   7.593   3.951  10.758 -0.7782 -0.2580  0.1976
  283MOL0     O37282   7.728   3.938  10.736  0.2434 -0.1771  0.2977
  283MOL0     C37283   7.787   3.854  10.626 -0.4392 -0.2042  0.3157
  283MOL0     C37284   7.940   3.826  10.654  0.0276 -0.0069 -1.1365
  283MOL0     C37285   7.977   3.740  10.782 -0.3593  0.3382 -0.4531
  283MOL0     C37286   8.132   3.709  10.771 -0.1851 -0.3849  0.4100
  283MOL0     C37287   8.231   3.822  10.793  0.0171 -0.5453 -0.0200
  283MOL0     C37288   8.302   3.926  10.787 -0.3725  0.0036  0.0604
  283MOL0     C37289   7.535   3.985  10.882 -0.2469  0.0548 -0.4489
  283MOL0     C37290   7.396   3.992  10.901 -0.1707  0.4346 -0.3584
  283MOL0     H37291   6.917   4.227  10.680 -1.0219  0.5777 -0.3950
  283MOL0     H37292   6.678   4.173  10.590  0.7116 -0.4426 -1.8473
  283MOL0     H37293   6.543   3.857  10.819 -2.2788 -0.8205  0.4802
  283MOL0     H37294   6.510   3.766  10.665 -0.0355  1.4402 -1.9876
  283MOL0     H37295   6.341   3.986  10.787 -5.1239  1.3934 -2.5988
  283MOL0     H37296   6.326   3.823  10.856  0.0199 -1.5857 -1.1800
  283MOL0     H37297   6.244   3.733  10.650 -3.8548  0.0646 -1.1899
  283MOL0     H37298   6.259   3.893  10.565 -3.2701  1.4435  0.1840
  283MOL0     H37299   6.043   3.801  10.668  2.0598 -3.2968  1.8424
  283MOL0     H37300   6.107   3.870  10.828  2.8989 -0.5215 -0.9890
  283MOL0     H37301   6.146   4.078  10.709  1.3714 -2.2473  2.2683
  283MOL0     H37302   5.972   4.048  10.751 -2.3028 -1.5531 -2.6291
  283MOL0     H37303   5.913   3.949  10.547  0.4235  0.2940  0.0313
  283MOL0     H37304   6.081   3.982  10.479  0.9655  1.0856  0.0971
  283MOL0     H37305   5.892   4.187  10.575  4.4468 -1.0489  2.5627
  283MOL0     H37306   6.031   4.220  10.479  0.8366  0.0851  1.3908
  283MOL0     H37307   5.933   4.085  10.278 -1.4883  0.3756 -0.2766
  283MOL0     H37308   5.872   4.245  10.301 -0.3132  0.0046 -1.7029
  283MOL0     H37309   5.741   3.892  10.425 -1.3645 -1.5095 -1.0865
  283MOL0     H37310   5.500   3.799  10.473  0.6571 -0.8083 -2.0345
  283MOL0     H37311   5.364   3.908  10.421  1.1927  0.9030 -0.8875
  283MOL0     H37312   5.392   4.044  10.611  0.9517 -0.1986 -1.3175
  283MOL0     H37313   5.551   3.974  10.647  0.1101  1.2240 -0.2192
  283MOL0     H37314   5.273   3.859  10.705 -0.1989 -0.2059  2.5130
  283MOL0     H37315   5.389   3.741  10.660 -0.7027  0.2141 -0.5002
  283MOL0     H37316   5.409   3.930  10.906 -1.2668 -1.3388  1.0675
  283MOL0     H37317   5.550   3.840  10.852 -0.2383 -0.2821 -0.9797
  283MOL0     H37318   5.251   3.508  10.854 -1.3730 -4.7594  3.6934
  283MOL0     H37319   5.010   3.458  10.925 -2.1086  0.4004  0.7291
  283MOL0     H37320   4.708   3.699  11.425 -2.3019  2.3705  0.3526
  283MOL0     H37321   4.467   3.676  11.509 -1.1773 -1.6427 -0.0213
  283MOL0     H37322   4.228   3.448  11.258 -1.7440 -0.9916  0.0579
  283MOL0     H37323   4.144   3.611  11.214 -0.9531  2.8877  2.8116
  283MOL0     H37324   4.015   3.600  11.418 -0.5043 -1.2737 -0.1144
  283MOL0     H37325   4.098   3.458  11.473 -1.2654  0.8125  0.9891
  283MOL0     H37326   3.974   3.315  11.327 -3.8905 -0.3131 -1.6182
  283MOL0     H37327   3.944   3.458  11.226  4.0793  2.3877  0.1597
  283MOL0     H37328   3.846   3.427  11.517  1.0762 -2.7738 -0.4148
  283MOL0     H37329   3.787   3.547  11.401  0.2562 -0.0868  0.2103
  283MOL0     H37330   3.723   3.244  11.384 -1.7565 -0.2798  1.0960
  283MOL0     H37331   3.717   3.346  11.243  0.1278 -3.6736  0.6594
  283MOL0     H37332   3.560   3.486  11.348  2.5196  0.1364  0.3974
  283MOL0     H37333   3.570   3.383  11.492 -1.1270  2.0057 -0.4885
  283MOL0     H37334   3.477   3.249  11.232  0.3576 -2.4725  0.3788
  283MOL0     H37335   3.473   3.178  11.382 -0.4724 -0.2617  1.9279
  283MOL0     H37336   3.312   3.426  11.297  0.2799 -0.8443 -0.5463
  283MOL0     H37337   3.310   3.362  11.471  1.2804 -1.1585  0.0147
  283MOL0     H37338   4.346   3.626  11.115  0.1161 -1.2709  0.6639
  283MOL0     H37339   4.584   3.685  11.029 -2.2282  0.7805  0.1060
  283MOL0     H37340   5.024   3.803  11.168  1.0179 -2.1081  1.3288
  283MOL0     H37341   5.271   3.846  11.103 -0.5189 -0.0172 -0.0989
  283MOL0     H37342   6.721   3.767  10.678  0.6366 -0.8091  1.0110
  283MOL0     H37343   6.948   3.794  10.733 -2.2071 -1.1400 -3.1132
  283MOL0     H37344   7.295   3.954  10.582  1.1488 -0.0417 -0.2960
  283MOL0     H37345   7.542   3.933  10.548 -1.1060 -0.5845 -0.8189
  283MOL0     H37346   7.784   3.918  10.537  1.3944  1.8311  1.6170
  283MOL0     H37347   7.725   3.766  10.606  1.7055 -1.9030  0.7716
  283MOL0     H37348   7.967   3.765  10.567 -2.3798 -0.9511 -1.3101
  283MOL0     H37349   7.994   3.921  10.649  1.6150 -0.4735  2.9547
  283MOL0     H37350   7.937   3.639  10.775  1.8080 -0.5260 -1.3087
  283MOL0     H37351   7.949   3.788  10.876  3.3060 -0.7913  1.4156
  283MOL0     H37352   8.151   3.645  10.857  1.7242  0.3321  0.5718
  283MOL0     H37353   8.148   3.666  10.671  3.6861 -1.9633  1.5210
  283MOL0     H37354   8.371   4.008  10.781 -0.4321  0.0315 -0.3030
  283MOL0     H37355   7.609   4.012  10.957  1.5202  1.1181 -2.4312
  283MOL0     H37356   7.354   4.015  10.999  0.8522  0.2815  0.1221
  284MOL0     O37357   9.532   0.748  11.268  0.0487  0.0137  0.0817
  284MOL0     C37358   9.568   0.739  11.148  0.3871  0.4827 -0.1643
  284MOL0     O37359   9.519   0.651  11.064 -0.1373 -0.6321  0.0421
  284MOL0     C37360   9.402   0.592  11.112 -0.4958 -0.4014 -0.7320
  284MOL0     C37361   9.280   0.664  11.101 -1.0004  0.5485  0.5529
  284MOL0     C37362   9.164   0.607  11.147 -0.0532 -0.6295 -0.0552
  284MOL0     C37363   9.165   0.479  11.208 -0.4369 -0.2274 -0.4630
  284MOL0     O37364   9.057   0.411  11.255  0.3455  0.1415 -0.7012
  284MOL0     C37365   8.964   0.488  11.334  0.1385 -0.0401  0.1139
  284MOL0     C37366   8.883   0.374  11.409 -0.8425 -0.6341  0.0981
  284MOL0     C37367   8.810   0.428  11.524  1.0604  0.6732 -0.9352
  284MOL0     C37368   8.727   0.307  11.591  0.6739 -0.5988 -0.9414
  284MOL0     C37369   8.647   0.354  11.712 -0.1753  0.5667  1.1150
  284MOL0     C37370   8.617   0.244  11.817 -0.2468  0.1477  0.4807
  284MOL0     C37371   8.510   0.310  11.915 -0.3328  0.0285 -0.2115
  284MOL0     C37372   8.378   0.323  11.850 -0.4521  0.4416  0.3771
  284MOL0     N37373   8.266   0.358  11.945 -0.4234  0.0192 -0.6009
  284MOL0     C37374   8.235   0.481  12.014  0.9040  0.4497 -0.8693
  284MOL0     C37375   8.127   0.443  12.089  0.1882 -0.9311  0.1241
  284MOL0     C37376   8.051   0.543  12.166  0.1616 -0.0264 -0.5912
  284MOL0     C37377   8.018   0.659  12.072  0.5428  0.0285 -0.1529
  284MOL0     C37378   7.933   0.773  12.139 -0.5305 -0.4562  0.2845
  284MOL0     C37379   7.894   0.882  12.039  0.2706  0.1260  0.1534
  284MOL0     O37380   7.988   0.988  12.027 -0.3156 -0.3175 -0.4781
  284MOL0     C37381   8.115   0.960  11.968 -0.2793  0.3762 -0.6975
  284MOL0     C37382   8.135   0.878  11.855 -0.0447  0.1108  0.1840
  284MOL0     C37383   8.264   0.858  11.807  0.6507  0.2635  0.9993
  284MOL0     C37384   8.360   0.943  11.851 -0.2674  0.6431 -0.5269
  284MOL0     C37385   8.487   0.947  11.783 -0.0360 -0.7910 -0.4923
  284MOL0     O37386   8.486   0.914  11.650 -0.0772 -0.3397  0.5776
  284MOL0     C37387   8.606   0.921  11.586 -0.2075  1.7119  0.0522
  284MOL0     C37388   8.690   0.801  11.571 -0.3735 -0.4356  0.3037
  284MOL0     C37389   8.818   0.804  11.500  0.4009 -0.9940  0.0839
  284MOL0     C37390   8.870   0.933  11.470 -0.6307 -0.7105  0.3179
  284MOL0     O37391   8.994   0.959  11.417 -0.2772  0.0619  0.3049
  284MOL0     C37392   9.091   0.855  11.391  0.4718  0.4627 -0.0173
  284MOL0     C37393   9.217   0.920  11.347 -0.1458 -0.5115 -0.1985
  284MOL0     C37394   9.201   0.993  11.213  0.4300  0.1809  0.7296
  284MOL0     C37395   9.332   1.077  11.182 -0.1965  0.2176 -0.5601
  284MOL0     C37396   9.338   1.110  11.036 -0.9225 -0.0740  0.4007
  284MOL0     C37397   9.475   1.172  11.011  0.4444 -0.1571  0.6163
  284MOL0     C37398   9.501   1.181  10.858 -0.1942  0.5159 -0.1544
  284MOL0     C37399   9.617   1.262  10.817  0.2478  0.3597 -0.6251
  284MOL0    Cl37400   9.669   1.218  10.648  0.3738  0.1397 -0.3345
  284MOL0     C37401   8.791   1.043  11.487  0.6234 -0.3134  0.3067
  284MOL0     C37402   8.664   1.042  11.540  0.3697 -0.4433  0.3588
  284MOL0     O37403   8.585   0.986  11.845 -0.3448  0.2503 -0.1976
  284MOL0     C37404   8.348   1.013  11.973  0.1953  0.1316  0.4386
  284MOL0     C37405   8.222   1.027  12.031  0.2615  0.7157 -0.3767
  284MOL0     N37406   8.111   0.306  12.085 -0.6806 -0.1681  0.2470
  284MOL0     N37407   8.188   0.264  11.990  0.3865  1.2436 -0.4155
  284MOL0     C37408   9.283   0.405  11.217  0.1105 -0.5307 -0.5364
  284MOL0     C37409   9.401   0.459  11.157 -0.3062 -0.5324 -0.0579
  284MOL0     C37410   9.673   0.834  11.112 -0.5109  0.1854  0.1028
  284MOL0     C37411   9.741   0.907  11.213  0.1415  1.1108  0.6241
  284MOL0     C37412   9.837   0.997  11.176  0.0200  0.3412  0.6074
  284MOL0     C37413   9.882   1.015  11.039 -0.1521 -0.4254 -0.4817
  284MOL0     O37414   9.980   1.099  11.005 -0.3823  0.1944 -0.0450
  284MOL0     C37415  10.092   1.100  11.099  0.3766  0.3906  0.2708
  284MOL0     C37416  10.201   1.181  11.026  0.3934 -0.7275  0.6379
  284MOL0     C37417  10.199   1.335  11.060  0.1755  0.8019 -0.2952
  284MOL0     C37418  10.280   1.433  10.974  0.0560 -0.3520  1.0480
  284MOL0     C37419  10.425   1.403  10.987 -1.0769  1.5245 -0.0037
  284MOL0     C37420  10.537   1.373  10.965 -0.3503  1.1957  0.0124
  284MOL0     C37421   9.805   0.948  10.942 -0.0798 -0.2023  0.0032
  284MOL0     C37422   9.702   0.857  10.979 -0.2335 -0.7264  0.8536
  284MOL0     H37423   9.281   0.765  11.063 -0.1786  0.4928  0.4163
  284MOL0     H37424   9.071   0.658  11.125 -1.7450 -4.1527 -1.7858
  284MOL0     H37425   8.900   0.550  11.271 -1.9845 -2.8854 -0.7442
  284MOL0     H37426   9.022   0.544  11.408  1.2291 -0.8015 -0.1334
  284MOL0     H37427   8.949   0.296  11.448  0.8773 -1.6631 -4.2658
  284MOL0     H37428   8.823   0.327  11.330 -0.1393 -0.3709 -0.6127
  284MOL0     H37429   8.735   0.498  11.487 -0.6636  0.4314  1.8283
  284MOL0     H37430   8.875   0.478  11.596  0.4982  0.7495 -0.4748
  284MOL0     H37431   8.664   0.251  11.521  1.6916 -1.4523 -1.2044
  284MOL0     H37432   8.809   0.239  11.614 -0.0302 -0.9610  0.6022
  284MOL0     H37433   8.549   0.384  11.675 -0.7316 -0.4027  1.7562
  284MOL0     H37434   8.688   0.446  11.753  1.7728  0.7076 -0.9956
  284MOL0     H37435   8.710   0.230  11.871 -1.6533 -0.5698  2.8560
  284MOL0     H37436   8.579   0.148  11.781 -1.8208  1.4066 -1.4621
  284MOL0     H37437   8.518   0.243  12.001 -0.5907 -0.1637 -0.3371
  284MOL0     H37438   8.540   0.409  11.950  2.3460 -0.7175 -0.1307
  284MOL0     H37439   8.363   0.227  11.801  1.8524 -0.4506  1.2587
  284MOL0     H37440   8.376   0.412  11.786 -4.7356 -0.4209 -0.9996
  284MOL0     H37441   8.273   0.576  11.977 -0.8645  1.3141 -0.5977
  284MOL0     H37442   8.110   0.571  12.254 -0.6258 -1.3514  0.3954
  284MOL0     H37443   7.966   0.496  12.216  0.4685  1.2584  1.2334
  284MOL0     H37444   7.969   0.627  11.980 -0.2646 -0.4973  0.4461
  284MOL0     H37445   8.110   0.713  12.048 -0.4564  1.4175 -1.0264
  284MOL0     H37446   7.838   0.727  12.168 -1.3463  0.2977 -1.0839
  284MOL0     H37447   7.974   0.818  12.230  0.7795 -1.5472  0.2667
  284MOL0     H37448   7.808   0.941  12.071  0.9083 -0.3820  3.1063
  284MOL0     H37449   7.876   0.839  11.940  1.1809 -1.0667  0.4767
  284MOL0     H37450   8.061   0.809  11.817  0.6543 -0.8022  0.4364
  284MOL0     H37451   8.292   0.786  11.730 -1.3389  0.2217  0.2562
  284MOL0     H37452   8.645   0.711  11.614 -1.8501  1.3483  2.8055
  284MOL0     H37453   8.872   0.711  11.489 -0.9892 -2.0733  1.8462
  284MOL0     H37454   9.050   0.794  11.310  0.5658  1.1706 -0.6095
  284MOL0     H37455   9.107   0.798  11.484  1.2316 -1.1915 -1.1171
  284MOL0     H37456   9.304   0.853  11.349  0.6450  0.4933  0.1265
  284MOL0     H37457   9.235   0.997  11.422 -3.3311  0.5601 -0.4190
  284MOL0     H37458   9.109   1.051  11.222  0.0621  0.1071 -1.6900
  284MOL0     H37459   9.173   0.940  11.121 -0.3794  2.0478 -0.1550
  284MOL0     H37460   9.338   1.171  11.238 -0.6658 -0.0814  0.0087
  284MOL0     H37461   9.412   1.015  11.225 -1.5447 -0.5486  0.9747
  284MOL0     H37462   9.251   1.173  11.015  0.2047  1.3114 -0.3088
  284MOL0     H37463   9.329   1.018  10.979  1.1135  0.6911 -1.2870
  284MOL0     H37464   9.546   1.098  11.048 -0.6049 -2.6750 -2.0263
  284MOL0     H37465   9.486   1.268  11.063  1.3260  0.4113 -0.5615
  284MOL0     H37466   9.527   1.078  10.834 -0.1823 -0.0287  2.0123
  284MOL0     H37467   9.413   1.215  10.801  0.3470 -0.5150 -1.6865
  284MOL0     H37468   9.701   1.234  10.883 -0.7706 -0.7390  0.2524
  284MOL0     H37469   9.598   1.369  10.831  0.2116  0.0596  2.2402
  284MOL0     H37470   8.829   1.140  11.458 -2.3318  0.2513 -2.2411
  284MOL0     H37471   8.626   1.138  11.572  1.6618  0.6482 -1.1915
  284MOL0     H37472   8.432   1.071  12.010 -0.3769  2.3177 -1.4383
  284MOL0     H37473   8.194   1.080  12.121  0.4214 -0.0456  0.1242
  284MOL0     H37474   9.283   0.307  11.264  1.3406 -0.3771 -0.1576
  284MOL0     H37475   9.486   0.390  11.155 -0.4552 -0.7307 -2.1285
  284MOL0     H37476   9.731   0.880  11.318 -0.0658  0.5331  0.4650
  284MOL0     H37477   9.901   1.035  11.256  0.4148  2.3425 -0.5815
  284MOL0     H37478  10.123   0.999  11.127  1.8121  1.4020  2.6072
  284MOL0     H37479  10.069   1.160  11.188  1.0747  2.0583 -0.6358
  284MOL0     H37480  10.297   1.138  11.056 -0.6841 -3.5123  0.3912
  284MOL0     H37481  10.183   1.178  10.918 -0.5485 -1.1587  0.7984
  284MOL0     H37482  10.218   1.336  11.167 -2.6772 -0.5466  0.3187
  284MOL0     H37483  10.100   1.383  11.056  1.3721  3.3958 -2.0696
  284MOL0     H37484  10.248   1.407  10.873 -2.0459  2.0103  1.0104
  284MOL0     H37485  10.265   1.538  11.001  0.3423 -0.6349  2.3827
  284MOL0     H37486  10.639   1.343  10.965 -0.7760 -0.3661  0.0413
  284MOL0     H37487   9.840   0.978  10.844  2.0576  0.1163  0.8086
  284MOL0     H37488   9.643   0.820  10.895  2.0061  0.4886 -1.4019
  285MOL0     O37489  11.033   7.010   2.143  0.5470  0.8452 -0.5257
  285MOL0     C37490  10.987   7.085   2.060  0.6976  0.0333 -0.0542
  285MOL0     O37491  11.053   7.176   1.987  0.6799  0.1000 -0.3144
  285MOL0     C37492  11.189   7.174   1.963 -0.0295 -0.0670  0.6135
  285MOL0     C37493  11.275   7.057   1.978  0.5000 -0.7633  0.1388
  285MOL0     C37494  11.411   7.063   1.942  0.0992  0.5175 -0.0971
  285MOL0     C37495  11.466   7.188   1.882  0.6953 -0.1688  0.3555
  285MOL0     O37496  11.590   7.173   1.832 -0.8685  0.1819 -0.0660
  285MOL0     C37497  11.675   7.295   1.837 -0.7891 -0.7398 -0.1380
  285MOL0     C37498  11.825   7.268   1.809  0.3033  0.9203 -0.0936
  285MOL0     C37499  11.880   7.144   1.898  0.3712 -0.3930 -0.1819
  285MOL0     C37500  12.020   7.095   1.835  0.0821  0.0244 -0.6769
  285MOL0     C37501  12.018   6.972   1.736  0.4693  0.5334 -0.0403
  285MOL0     C37502  11.889   6.959   1.665  0.5898  0.2139 -0.1078
  285MOL0     C37503  11.878   6.829   1.584 -0.5904  0.5289 -0.7104
  285MOL0     C37504  11.959   6.845   1.455  0.0202  0.2356 -0.1154
  285MOL0     N37505  11.919   6.729   1.365 -0.1143 -0.7569 -0.5750
  285MOL0     C37506  12.023   6.649   1.325 -0.8515 -0.0195  0.9103
  285MOL0     C37507  11.957   6.556   1.247  1.0219 -0.6761 -0.4453
  285MOL0     C37508  12.034   6.445   1.172  0.0040 -1.5150  0.0944
  285MOL0     C37509  12.085   6.334   1.264  0.3857  0.4257  0.6898
  285MOL0     C37510  11.994   6.215   1.301  0.0576 -0.4145 -0.3122
  285MOL0     C37511  11.948   6.133   1.171 -0.4214 -0.3176  0.3142
  285MOL0     O37512  11.887   6.014   1.197 -0.0294  0.8383  0.3827
  285MOL0     C37513  11.858   5.930   1.096 -0.0000  0.3962 -0.2713
  285MOL0     C37514  11.921   5.918   0.971 -0.9047  0.2918  0.7030
  285MOL0     C37515  11.891   5.817   0.875 -0.0342  0.2859  0.9160
  285MOL0     C37516  11.777   5.731   0.902 -0.0510  0.2592 -0.4205
  285MOL0     C37517  11.724   5.624   0.809  0.2502  0.1897 -0.0141
  285MOL0     O37518  11.622   5.545   0.855 -0.5406  0.8101 -0.4465
  285MOL0     C37519  11.542   5.487   0.769 -0.4247  0.4842 -0.4400
  285MOL0     C37520  11.514   5.350   0.780  0.5120  0.5314  0.7060
  285MOL0     C37521  11.443   5.288   0.673  0.0252  0.9467  0.0841
  285MOL0     C37522  11.372   5.366   0.584  0.8979  0.5023  0.3067
  285MOL0     O37523  11.303   5.302   0.486  0.4950  0.3501  0.0166
  285MOL0     C37524  11.198   5.372   0.413  0.4707  0.2722 -0.2699
  285MOL0     C37525  11.130   5.276   0.315  0.2401 -0.1867 -0.2339
  285MOL0     C37526  11.225   5.229   0.206 -0.8977 -0.1593 -0.4170
  285MOL0     C37527  11.152   5.135   0.103  0.4087  0.3457 -1.2038
  285MOL0     C37528  11.213   5.133  -0.035 -0.6558  0.8101 -0.4012
  285MOL0     C37529  11.359   5.090  -0.035  0.5861 -0.0150  0.0253
  285MOL0     C37530  11.388   4.957   0.050  0.3397 -0.2196  1.0205
  285MOL0     C37531  11.319   4.828  -0.004 -0.4263 -0.3185  1.3472
  285MOL0    Cl37532  11.410   4.784  -0.158 -0.2772  0.0617 -0.4997
  285MOL0     C37533  11.374   5.511   0.593  0.4001 -0.2672 -0.0364
  285MOL0     C37534  11.458   5.568   0.688 -0.1954 -0.6411  0.6002
  285MOL0     O37535  11.752   5.631   0.692 -0.5521 -0.5195 -0.3317
  285MOL0     C37536  11.707   5.746   1.025 -0.0187  0.2496  0.3362
  285MOL0     C37537  11.752   5.845   1.118 -0.9409 -0.6215 -0.3925
  285MOL0     N37538  11.820   6.585   1.253  0.3458  0.0001 -0.4994
  285MOL0     N37539  11.800   6.698   1.312  0.2923 -0.7919  0.6011
  285MOL0     C37540  11.381   7.296   1.865  0.3555  0.5228 -0.7691
  285MOL0     C37541  11.244   7.293   1.904 -0.5227  0.7345  0.4544
  285MOL0     C37542  10.849   7.049   2.019  0.4802  0.9024 -0.4306
  285MOL0     C37543  10.819   7.051   1.884 -0.1095 -0.3626 -0.1483
  285MOL0     C37544  10.693   7.005   1.840 -1.1912  0.5344 -0.5929
  285MOL0     C37545  10.605   6.951   1.928  0.5904 -0.2125  0.4484
  285MOL0     O37546  10.487   6.900   1.865  0.0127  0.2004  0.0225
  285MOL0     C37547  10.443   6.775   1.911  0.7297  0.4485 -0.6433
  285MOL0     C37548  10.302   6.748   1.865 -0.0157 -0.1292 -0.6563
  285MOL0     C37549  10.293   6.711   1.710  0.0169  0.5345 -0.9325
  285MOL0     C37550  10.152   6.732   1.664 -1.1242  0.2943  0.6539
  285MOL0     C37551  10.064   6.639   1.740  0.0375  0.2171  0.4569
  285MOL0     C37552   9.969   6.577   1.800  0.9072  0.7343  0.3125
  285MOL0     C37553  10.625   6.953   2.066  0.5108 -0.0939 -0.4088
  285MOL0     C37554  10.752   7.003   2.113  0.2824  0.0838 -0.0112
  285MOL0     H37555  11.239   6.960   2.012 -0.7772 -0.4197 -0.1869
  285MOL0     H37556  11.472   6.975   1.954 -1.6583 -0.7860 -0.3996
  285MOL0     H37557  11.679   7.330   1.940  1.8632  0.2468 -0.4936
  285MOL0     H37558  11.634   7.366   1.764 -0.7032 -2.1378 -1.6065
  285MOL0     H37559  11.879   7.362   1.822 -0.2924  1.1038  1.1765
  285MOL0     H37560  11.836   7.237   1.704  0.3817 -0.2250  0.2435
  285MOL0     H37561  11.810   7.061   1.900 -2.7753  2.0392 -1.1120
  285MOL0     H37562  11.896   7.199   1.992 -0.9675  2.3048 -1.4023
  285MOL0     H37563  12.067   7.178   1.781  1.7844  0.4218  1.2761
  285MOL0     H37564  12.093   7.072   1.913  1.4691 -3.0021 -2.6683
  285MOL0     H37565  12.035   6.876   1.786 -3.4897  0.1003  0.8403
  285MOL0     H37566  12.092   6.992   1.659  2.1947 -1.5872  0.9613
  285MOL0     H37567  11.890   7.044   1.597  2.1777  0.8670  0.6679
  285MOL0     H37568  11.799   6.964   1.727  0.3127 -1.0210 -0.3936
  285MOL0     H37569  11.919   6.751   1.649 -2.3546  0.8440  0.8775
  285MOL0     H37570  11.773   6.809   1.558 -1.3482  2.1606  0.8551
  285MOL0     H37571  12.064   6.842   1.486 -0.1943  2.9710  1.0638
  285MOL0     H37572  11.926   6.939   1.411  1.8837 -0.2601 -2.9138
  285MOL0     H37573  12.130   6.650   1.343 -0.2870 -1.4246 -1.8542
  285MOL0     H37574  12.118   6.485   1.115 -0.9664 -3.1547 -2.7358
  285MOL0     H37575  11.975   6.400   1.091  2.4084 -0.5966 -2.3411
  285MOL0     H37576  12.114   6.373   1.361  0.4051  2.9094 -0.2580
  285MOL0     H37577  12.171   6.285   1.217 -1.9468 -1.4214 -2.0622
  285MOL0     H37578  12.040   6.147   1.372 -0.5892  0.1887  0.7076
  285MOL0     H37579  11.901   6.246   1.349 -1.4596 -1.8608 -2.1461
  285MOL0     H37580  12.029   6.119   1.098 -1.8792 -0.7090 -1.2924
  285MOL0     H37581  11.871   6.197   1.127  1.0871  1.9957  0.8540
  285MOL0     H37582  11.996   5.992   0.945 -1.2713  0.6515  0.6536
  285MOL0     H37583  11.944   5.811   0.781 -3.6205  0.7134 -1.2997
  285MOL0     H37584  11.563   5.276   0.843 -1.6722 -1.2792  0.4241
  285MOL0     H37585  11.448   5.180   0.671  0.2439  0.9667 -0.4204
  285MOL0     H37586  11.248   5.437   0.341 -0.1705 -0.4854 -1.4148
  285MOL0     H37587  11.124   5.415   0.481 -0.1912  0.7146 -1.2569
  285MOL0     H37588  11.049   5.331   0.266  1.7811  0.7428 -1.8695
  285MOL0     H37589  11.098   5.190   0.374  0.3849  0.9761  1.6296
  285MOL0     H37590  11.300   5.165   0.253 -0.0096  1.0274 -0.1862
  285MOL0     H37591  11.258   5.313   0.143  0.8288 -0.7216 -0.3219
  285MOL0     H37592  11.118   5.036   0.137  0.5128 -0.1688 -2.5280
  285MOL0     H37593  11.057   5.189   0.101  0.4896  0.7262  1.3797
  285MOL0     H37594  11.200   5.228  -0.088 -0.9528  0.6070 -0.6941
  285MOL0     H37595  11.158   5.060  -0.095  0.2872  0.5738 -0.9985
  285MOL0     H37596  11.427   5.163   0.010  2.8045 -2.4389  0.8749
  285MOL0     H37597  11.399   5.079  -0.136 -1.7259 -0.3249 -0.9218
  285MOL0     H37598  11.496   4.947   0.062  0.4331 -0.4028  0.0784
  285MOL0     H37599  11.347   4.972   0.150  2.4065  0.5665  1.8041
  285MOL0     H37600  11.211   4.840  -0.015 -0.8337 -4.3078 -1.0092
  285MOL0     H37601  11.329   4.745   0.068  1.1037 -2.6839 -1.3807
  285MOL0     H37602  11.320   5.580   0.529 -1.3471  1.4196  2.9789
  285MOL0     H37603  11.462   5.675   0.707 -1.3184 -0.1249 -1.6985
  285MOL0     H37604  11.620   5.684   1.043  1.0789 -1.6223 -0.4314
  285MOL0     H37605  11.703   5.850   1.215  0.0403  0.4526  0.0848
  285MOL0     H37606  11.394   7.395   1.821 -2.5204  1.5873  0.5133
  285MOL0     H37607  11.182   7.380   1.880 -0.3257  0.0764 -3.0584
  285MOL0     H37608  10.890   7.095   1.815  0.3441 -1.1718 -0.2032
  285MOL0     H37609  10.670   7.003   1.733  1.3352  1.2940 -1.2191
  285MOL0     H37610  10.455   6.766   2.020  0.0652 -0.0759 -0.6057
  285MOL0     H37611  10.513   6.695   1.883 -0.3594 -1.5497  1.8891
  285MOL0     H37612  10.257   6.670   1.927  0.4291  1.2004  1.4732
  285MOL0     H37613  10.243   6.835   1.895 -0.7781 -1.2723  1.3552
  285MOL0     H37614  10.323   6.606   1.698 -3.4568 -1.0858  2.2498
  285MOL0     H37615  10.366   6.771   1.654 -0.2152  1.9209  0.2044
  285MOL0     H37616  10.116   6.833   1.686 -0.3823  0.4624  1.1613
  285MOL0     H37617  10.160   6.704   1.559  4.8031 -0.8272  1.0279
  285MOL0     H37618   9.874   6.544   1.838 -0.8600  4.3649 -0.4875
  285MOL0     H37619  10.544   6.922   2.131  1.1224 -0.8210  0.0235
  285MOL0     H37620  10.774   7.012   2.219 -2.0389 -3.3663  0.9586
  286MOL0     O37621   4.677   5.319   9.586 -0.4756 -0.0651 -0.0667
  286MOL0     C37622   4.565   5.360   9.607 -0.6523  0.3435 -0.1549
  286MOL0     O37623   4.530   5.425   9.721  0.1842 -0.5975 -0.6196
  286MOL0     C37624   4.630   5.461   9.811 -0.1036  0.4688  0.1237
  286MOL0     C37625   4.693   5.583   9.799 -0.8273 -0.5728  0.0799
  286MOL0     C37626   4.787   5.626   9.893 -0.7259 -0.0613  0.0095
  286MOL0     C37627   4.820   5.537   9.996  0.3052  0.1701 -0.3764
  286MOL0     O37628   4.908   5.591  10.085 -0.4442 -0.3084  0.1223
  286MOL0     C37629   4.939   5.522  10.204  0.1683 -0.0012 -0.5494
  286MOL0     C37630   5.042   5.602  10.287  0.3262 -0.5669 -0.4650
  286MOL0     C37631   4.996   5.749  10.300  0.4389 -0.6371 -0.7343
  286MOL0     C37632   5.111   5.839  10.328 -0.5434 -0.2005  0.4585
  286MOL0     C37633   5.129   5.835  10.476 -0.3166 -0.3507 -0.9476
  286MOL0     C37634   5.236   5.945  10.497  0.0991  0.2060  0.8877
  286MOL0     C37635   5.291   5.920  10.638  0.4944 -0.5269  0.1155
  286MOL0     C37636   5.190   5.937  10.763 -0.8556  0.0574  0.7083
  286MOL0     N37637   5.139   6.071  10.773 -0.3966 -0.2487  0.0681
  286MOL0     C37638   5.016   6.101  10.722 -1.2212 -0.3176 -0.9557
  286MOL0     C37639   5.019   6.236  10.712  0.4032  0.8664 -1.0532
  286MOL0     C37640   4.914   6.310  10.644  0.0964 -0.2051 -0.1083
  286MOL0     C37641   4.931   6.323  10.492 -0.8728  0.4069 -0.3686
  286MOL0     C37642   4.833   6.424  10.419 -0.2072 -0.7200  0.6217
  286MOL0     C37643   4.691   6.418  10.478  0.2870 -0.8322  0.2396
  286MOL0     O37644   4.609   6.465  10.376 -0.1544 -0.1083 -0.0368
  286MOL0     C37645   4.473   6.449  10.399  0.0374 -0.2587  0.1568
  286MOL0     C37646   4.412   6.385  10.518  0.2478 -0.3828  0.3317
  286MOL0     C37647   4.274   6.356  10.519 -0.7364  0.2374 -0.2873
  286MOL0     C37648   4.193   6.401  10.414 -0.0998 -0.0294 -0.5036
  286MOL0     C37649   4.049   6.361  10.407 -0.3979 -0.0646  0.6559
  286MOL0     O37650   3.995   6.276  10.491 -0.1944 -0.0213  0.0686
  286MOL0     C37651   3.865   6.221  10.470  0.0889  0.3000  0.3059
  286MOL0     C37652   3.819   6.175  10.349  0.2612  0.0809 -0.1852
  286MOL0     C37653   3.685   6.120  10.336 -0.1372  0.0299  0.0359
  286MOL0     C37654   3.608   6.098  10.455 -0.5105  0.1711 -0.1930
  286MOL0     O37655   3.488   6.030  10.466  0.2690  0.1173 -0.1847
  286MOL0     C37656   3.402   6.027  10.361 -0.0680 -0.8625  0.0562
  286MOL0     C37657   3.265   6.022  10.422 -0.6685  0.1496  0.3087
  286MOL0     C37658   3.150   6.042  10.323  0.2422  0.6844 -0.7813
  286MOL0     C37659   3.013   6.006  10.398  0.2793 -0.1328 -0.3176
  286MOL0     C37660   2.889   6.052  10.322  0.1770 -0.5857 -0.3618
  286MOL0     C37661   2.759   6.041  10.407 -0.2028 -0.4176  0.3720
  286MOL0     C37662   2.738   5.896  10.466  0.4117  0.1252 -0.7201
  286MOL0     C37663   2.586   5.857  10.478 -0.4839  0.4058 -0.0088
  286MOL0    Cl37664   2.500   5.992  10.556  0.2416  0.0092  0.1507
  286MOL0     C37665   3.663   6.143  10.577 -0.0237  0.1385 -0.8218
  286MOL0     C37666   3.793   6.196  10.585  0.4524 -0.1612 -0.7429
  286MOL0     O37667   3.977   6.409  10.321  0.0024  0.0161  0.0528
  286MOL0     C37668   4.250   6.466  10.311  0.5077  0.2801 -0.4153
  286MOL0     C37669   4.388   6.480  10.297 -0.1283  0.2816  0.4289
  286MOL0     N37670   5.143   6.275  10.767 -0.5294 -0.1047  0.2945
  286MOL0     N37671   5.208   6.178  10.813  0.5668 -0.1238  0.2503
  286MOL0     C37672   4.741   5.421  10.018  0.1076 -0.1719  0.0794
  286MOL0     C37673   4.641   5.383   9.929  0.5952  0.2085  0.3081
  286MOL0     C37674   4.457   5.329   9.509  1.1594 -0.4323 -0.0506
  286MOL0     C37675   4.344   5.411   9.516  0.0426  1.1782  0.2369
  286MOL0     C37676   4.245   5.376   9.424  0.7512  0.0440 -0.3207
  286MOL0     C37677   4.256   5.281   9.324 -0.4572  0.8079  0.3054
  286MOL0     O37678   4.152   5.272   9.237  0.1069  0.3000  0.3029
  286MOL0     C37679   4.145   5.179   9.128 -0.2018  0.5582  0.1727
  286MOL0     C37680   4.061   5.046   9.182 -0.2035 -0.8244 -0.9616
  286MOL0     C37681   4.029   4.959   9.057 -0.4804  0.0791 -0.2251
  286MOL0     C37682   3.891   4.895   9.058 -0.0190 -0.1681 -0.7622
  286MOL0     C37683   3.789   4.998   9.043 -0.3398 -0.0123  0.1457
  286MOL0     C37684   3.700   5.081   9.029 -0.2589 -0.0703 -0.2071
  286MOL0     C37685   4.366   5.203   9.330  0.4981 -0.0359 -0.1597
  286MOL0     C37686   4.462   5.221   9.427 -0.5676 -0.1811  0.1465
  286MOL0     H37687   4.693   5.649   9.713  1.8614  1.5172  1.5309
  286MOL0     H37688   4.833   5.724   9.908 -1.4503  0.0202  1.9649
  286MOL0     H37689   4.980   5.422  10.189 -0.0033  0.2608 -3.1289
  286MOL0     H37690   4.851   5.524  10.268  2.5999  0.2487  3.1037
  286MOL0     H37691   5.136   5.610  10.232 -0.9378  2.1668 -2.4726
  286MOL0     H37692   5.055   5.551  10.383  2.7150  0.5297 -0.1267
  286MOL0     H37693   4.918   5.772  10.373 -2.1764  2.0204 -3.9898
  286MOL0     H37694   4.953   5.779  10.204  1.6016 -0.7456 -1.3031
  286MOL0     H37695   5.203   5.799  10.284 -0.2473  0.1992  0.7136
  286MOL0     H37696   5.090   5.943  10.302 -1.2680 -0.2049  0.9870
  286MOL0     H37697   5.156   5.733  10.503 -1.9878  0.2340  3.9278
  286MOL0     H37698   5.038   5.867  10.528 -0.4424 -0.3497 -1.1687
  286MOL0     H37699   5.199   6.048  10.490  0.9911  0.7000  2.8485
  286MOL0     H37700   5.316   5.921  10.427  0.0635 -0.1309  0.9593
  286MOL0     H37701   5.329   5.819  10.655 -0.5501 -0.5760  2.5423
  286MOL0     H37702   5.380   5.984  10.645  0.9185 -0.3723 -4.2648
  286MOL0     H37703   5.249   5.919  10.853  0.6227 -0.1360 -0.2720
  286MOL0     H37704   5.112   5.860  10.756 -0.5122 -0.1608 -1.3388
  286MOL0     H37705   4.935   6.036  10.688 -2.6200  1.6872 -1.6382
  286MOL0     H37706   4.900   6.410  10.685 -2.6628  0.8375 -3.1230
  286MOL0     H37707   4.816   6.268  10.668  0.3030 -0.4605  0.3153
  286MOL0     H37708   4.927   6.227  10.440 -0.3501  0.1878 -0.0194
  286MOL0     H37709   5.034   6.350  10.465 -1.6322  1.2453 -2.6050
  286MOL0     H37710   4.866   6.529  10.414 -2.4929  0.0792  1.1345
  286MOL0     H37711   4.825   6.395  10.314 -1.9321 -1.5733  0.9539
  286MOL0     H37712   4.681   6.485  10.564  1.5805 -1.1016  0.6176
  286MOL0     H37713   4.667   6.313  10.502  2.7231 -1.5520 -0.1769
  286MOL0     H37714   4.476   6.364  10.603  0.2655 -0.5995  0.2652
  286MOL0     H37715   4.235   6.304  10.606  0.8050 -0.3080  0.1031
  286MOL0     H37716   3.875   6.186  10.257  0.1522  0.9169 -0.1557
  286MOL0     H37717   3.663   6.082  10.237 -0.9087  1.3228 -0.3228
  286MOL0     H37718   3.411   5.948  10.286 -0.7083 -2.3579  1.4973
  286MOL0     H37719   3.407   6.131  10.327  0.3084 -0.0772  2.3358
  286MOL0     H37720   3.253   6.090  10.507 -2.1092 -1.7706  1.7322
  286MOL0     H37721   3.245   5.921  10.459  0.6791 -0.8800 -1.6051
  286MOL0     H37722   3.170   5.980  10.235  4.3860 -3.0403  2.3156
  286MOL0     H37723   3.150   6.148  10.299  1.1500  1.6368  2.8446
  286MOL0     H37724   3.004   5.899  10.421 -0.6547  0.7349  4.3864
  286MOL0     H37725   3.002   6.050  10.498 -1.2201 -2.4005  0.6116
  286MOL0     H37726   2.881   5.992  10.231  0.7807 -0.5246 -0.4639
  286MOL0     H37727   2.908   6.154  10.288 -2.2652 -0.9226 -3.0445
  286MOL0     H37728   2.680   6.066  10.336  1.7255 -2.8293 -2.8797
  286MOL0     H37729   2.758   6.112  10.491  0.7587  1.7105 -1.3050
  286MOL0     H37730   2.785   5.814  10.411  0.8702 -0.8665  1.0674
  286MOL0     H37731   2.793   5.899  10.561 -0.3737  0.9572 -0.2759
  286MOL0     H37732   2.577   5.763  10.534 -1.4255  1.0891  1.0339
  286MOL0     H37733   2.557   5.844  10.373  1.3497  1.2785 -0.6692
  286MOL0     H37734   3.598   6.123  10.662  0.1555 -1.0708 -0.9546
  286MOL0     H37735   3.833   6.227  10.680  0.2246  1.5057 -1.1705
  286MOL0     H37736   4.183   6.494  10.230 -0.3726  1.6577  0.7444
  286MOL0     H37737   4.428   6.526  10.208  0.5484 -0.7418  0.1923
  286MOL0     H37738   4.773   5.359  10.101  1.7191 -0.3304 -0.6407
  286MOL0     H37739   4.583   5.292   9.936 -0.1449  0.6091 -0.4921
  286MOL0     H37740   4.325   5.494   9.583  1.9129  1.5091  0.4276
  286MOL0     H37741   4.157   5.440   9.427  0.6047 -0.1278 -0.8371
  286MOL0     H37742   4.240   5.169   9.075 -0.4006  1.2868 -0.3342
  286MOL0     H37743   4.072   5.226   9.061  3.4519  3.5057 -2.1283
  286MOL0     H37744   4.116   4.986   9.255 -0.0936 -2.2375 -2.1499
  286MOL0     H37745   3.976   5.096   9.229  1.5528  1.7360 -0.2692
  286MOL0     H37746   4.098   4.878   9.032  2.9722  2.4240  0.9291
  286MOL0     H37747   4.042   5.027   8.972  1.6476  2.6694  1.9626
  286MOL0     H37748   3.884   4.842   8.963 -0.3120 -0.2142 -0.7157
  286MOL0     H37749   3.872   4.822   9.138 -0.8995 -0.5335 -1.2960
  286MOL0     H37750   3.618   5.149   9.016 -0.4783 -0.8349 -3.5877
  286MOL0     H37751   4.380   5.120   9.260  1.1370  0.7611 -1.0065
  286MOL0     H37752   4.549   5.157   9.426 -0.2953 -0.0684 -4.2333
  287MOL0     O37753   4.283   8.530  10.953 -0.5143  1.2137 -0.4450
  287MOL0     C37754   4.320   8.617  11.034 -0.6488 -1.2805  0.5830
  287MOL0     O37755   4.253   8.725  11.088  0.3716  0.2893  0.2698
  287MOL0     C37756   4.121   8.753  11.042 -0.3605 -0.3343  0.6479
  287MOL0     C37757   4.092   8.886  11.013 -0.0898  1.0270 -0.6983
  287MOL0     C37758   3.965   8.929  10.977  0.6533  0.5950 -0.2943
  287MOL0     C37759   3.853   8.841  10.967  0.2384  0.1817  0.7370
  287MOL0     O37760   3.721   8.880  10.946  0.1960 -0.2644  0.0075
  287MOL0     C37761   3.677   9.016  10.972  0.5782  0.3080  0.6423
  287MOL0     C37762   3.523   9.030  10.964 -0.2725  0.2312 -0.4147
  287MOL0     C37763   3.472   8.973  10.833  1.1365  0.2425 -0.0788
  287MOL0     C37764   3.316   8.974  10.813 -0.1227 -0.1088  0.2275
  287MOL0     C37765   3.286   8.942  10.672  0.2139 -0.1260 -0.8808
  287MOL0     C37766   3.154   8.993  10.613 -0.0981  0.2271 -0.0718
  287MOL0     C37767   3.139   8.948  10.472  0.6477 -0.5250  0.6988
  287MOL0     C37768   3.026   9.024  10.405  0.6873 -0.2550 -0.1794
  287MOL0     N37769   2.903   9.001  10.472 -0.7059  0.2760  0.0705
  287MOL0     C37770   2.840   8.883  10.472 -0.2966  0.3473 -0.0136
  287MOL0     C37771   2.733   8.902  10.553  0.5595  0.4895  0.2494
  287MOL0     C37772   2.611   8.815  10.574 -0.4373  0.6232  0.0299
  287MOL0     C37773   2.653   8.675  10.640  0.2305  0.9809 -0.5762
  287MOL0     C37774   2.546   8.571  10.641 -0.5939 -0.1025 -0.6607
  287MOL0     C37775   2.421   8.612  10.726 -0.3509 -0.0822 -0.4481
  287MOL0     O37776   2.459   8.648  10.861  0.2465  0.4426  0.6748
  287MOL0     C37777   2.351   8.700  10.931 -0.1454 -0.1693 -0.3775
  287MOL0     C37778   2.351   8.833  10.979 -0.4719  0.3161 -0.2295
  287MOL0     C37779   2.230   8.882  11.050 -0.3152 -0.3224 -0.0416
  287MOL0     C37780   2.118   8.797  11.074  0.2798 -0.4118  0.4610
  287MOL0     C37781   1.991   8.842  11.132 -0.8300 -0.5646 -0.1447
  287MOL0     O37782   1.886   8.759  11.151 -0.2291  0.1762  0.4772
  287MOL0     C37783   1.768   8.814  11.195 -0.2411  0.6094  0.3643
  287MOL0     C37784   1.666   8.845  11.104 -0.3243  0.4152  0.0041
  287MOL0     C37785   1.554   8.917  11.143 -0.6077 -0.6992  1.0886
  287MOL0     C37786   1.536   8.953  11.276 -0.1247  0.2179  0.0959
  287MOL0     O37787   1.418   9.015  11.320  0.2887  0.0186 -1.5545
  287MOL0     C37788   1.301   8.976  11.255  1.7481 -0.1107  0.3456
  287MOL0     C37789   1.183   9.019  11.343  0.0923  0.4578 -0.7932
  287MOL0     C37790   1.042   8.987  11.285  0.4495  0.9089 -0.5681
  287MOL0     C37791   0.925   9.015  11.384  0.0130 -0.7463  0.4340
  287MOL0     C37792   0.794   9.012  11.300  0.0177 -0.2217 -0.2282
  287MOL0     C37793   0.683   9.073  11.380  0.1517  0.2969 -0.9087
  287MOL0     C37794   0.545   9.079  11.319 -0.6962 -0.5356  0.7894
  287MOL0     C37795   0.464   8.946  11.323 -0.8929  0.2429  0.4690
  287MOL0    Cl37796   0.363   8.952  11.467  0.1489  0.2549  0.0044
  287MOL0     C37797   1.640   8.923  11.370  0.1277 -0.5855 -0.2781
  287MOL0     C37798   1.758   8.850  11.332 -0.2884  0.4385  1.3412
  287MOL0     O37799   1.990   8.964  11.162  0.4508  0.3211  0.2097
  287MOL0     C37800   2.123   8.664  11.019  0.5526 -0.3978 -0.3288
  287MOL0     C37801   2.244   8.613  10.957 -0.3649 -0.4055 -0.2764
  287MOL0     N37802   2.738   9.039  10.598 -0.5929  0.2360  0.1616
  287MOL0     N37803   2.830   9.100  10.539  0.1938  0.1964 -0.1039
  287MOL0     C37804   3.882   8.707  11.001 -0.4498  0.1165  0.1724
  287MOL0     C37805   4.011   8.663  11.042 -0.5907  0.1956  0.4870
  287MOL0     C37806   4.465   8.598  11.077  0.1503  1.0062 -0.2925
  287MOL0     C37807   4.536   8.693  11.146 -1.5545  1.3204 -1.1308
  287MOL0     C37808   4.660   8.659  11.207  0.3024  0.1251  0.4198
  287MOL0     C37809   4.724   8.543  11.169 -0.2556  1.0901 -0.1021
  287MOL0     O37810   4.854   8.524  11.213 -0.5138  0.2542 -0.8742
  287MOL0     C37811   4.922   8.424  11.150 -0.3227 -0.2198 -0.5361
  287MOL0     C37812   5.058   8.421  11.207 -0.1978  0.3093 -0.3909
  287MOL0     C37813   5.154   8.321  11.136  0.3966 -0.2071  0.0542
  287MOL0     C37814   5.292   8.340  11.208  0.4374  0.3380 -0.6862
  287MOL0     C37815   5.391   8.234  11.162 -0.4727  0.3388 -0.6692
  287MOL0     C37816   5.476   8.153  11.115  0.4090  0.9524 -1.2016
  287MOL0     C37817   4.650   8.446  11.102  0.1915  0.5954 -1.0158
  287MOL0     C37818   4.523   8.471  11.053  0.0004 -0.4880 -0.3919
  287MOL0     H37819   4.177   8.953  11.023  2.1129 -1.6431 -0.1357
  287MOL0     H37820   3.956   9.037  10.978 -0.5375  0.5090 -0.8124
  287MOL0     H37821   3.715   9.088  10.899  2.2705  0.5548  1.7034
  287MOL0     H37822   3.708   9.050  11.071 -2.3312  2.2387  1.0051
  287MOL0     H37823   3.488   9.133  10.976 -1.2815 -0.0222 -1.0784
  287MOL0     H37824   3.476   8.969  11.042  1.9433  0.4663  1.1769
  287MOL0     H37825   3.491   8.865  10.832  0.9644  0.1167  2.7546
  287MOL0     H37826   3.530   9.019  10.753  4.4283  1.0228  2.5574
  287MOL0     H37827   3.268   8.910  10.888 -0.5647  0.2934  0.2907
  287MOL0     H37828   3.286   9.076  10.841 -0.9347 -0.7639  1.8707
  287MOL0     H37829   3.285   8.833  10.663 -0.0297 -0.0970 -1.2325
  287MOL0     H37830   3.368   8.985  10.613 -0.3390  2.5966  0.1427
  287MOL0     H37831   3.138   9.101  10.623 -3.6356 -0.0921 -0.8127
  287MOL0     H37832   3.071   8.953  10.673 -0.4846  2.3821  0.9177
  287MOL0     H37833   3.230   8.983  10.422 -0.8425  0.7791 -1.2728
  287MOL0     H37834   3.119   8.841  10.463 -2.0594 -0.1893  1.9342
  287MOL0     H37835   3.014   8.985  10.304  1.1649 -0.6481 -0.0899
  287MOL0     H37836   3.037   9.133  10.400 -1.9617  0.0778 -0.2378
  287MOL0     H37837   2.858   8.801  10.403  1.3055 -0.4583  1.2994
  287MOL0     H37838   2.561   8.803  10.478 -1.7523 -0.7767  0.8416
  287MOL0     H37839   2.542   8.857  10.648  1.2680  0.3465  1.8764
  287MOL0     H37840   2.685   8.696  10.742 -2.0099  1.4192  0.0899
  287MOL0     H37841   2.737   8.638  10.581  0.2492 -0.3677  0.2577
  287MOL0     H37842   2.525   8.539  10.539 -1.8574 -1.4584 -0.0042
  287MOL0     H37843   2.596   8.489  10.693  0.1742  1.8203  1.8448
  287MOL0     H37844   2.347   8.532  10.724 -0.4197 -0.0172 -0.4811
  287MOL0     H37845   2.369   8.696  10.679 -2.8592 -2.2338 -1.7610
  287MOL0     H37846   2.439   8.896  10.981 -1.2787  1.4743 -0.6929
  287MOL0     H37847   2.242   8.984  11.087  1.2393  0.2172 -1.8681
  287MOL0     H37848   1.678   8.812  11.002 -4.9001 -1.7481 -0.0694
  287MOL0     H37849   1.481   8.930  11.063 -0.1904 -0.5773  0.7192
  287MOL0     H37850   1.293   8.867  11.244  0.1012 -0.0733  0.8852
  287MOL0     H37851   1.283   9.023  11.158 -2.2874 -0.8539  0.5676
  287MOL0     H37852   1.186   9.124  11.374 -1.4324  0.4096 -0.4046
  287MOL0     H37853   1.193   8.953  11.429 -1.6104  0.7093 -0.3679
  287MOL0     H37854   1.037   8.883  11.253  0.3621  1.0701 -1.0910
  287MOL0     H37855   1.032   9.050  11.196 -2.9553  0.2307 -0.8009
  287MOL0     H37856   0.916   8.927  11.448 -0.3325 -3.5034 -3.1112
  287MOL0     H37857   0.947   9.096  11.454  1.2535  0.0688 -0.8643
  287MOL0     H37858   0.755   8.914  11.270 -1.4741  0.2575  0.0524
  287MOL0     H37859   0.792   9.067  11.205 -2.6642  2.9216  1.4102
  287MOL0     H37860   0.712   9.177  11.397  1.1458  0.0199 -0.8275
  287MOL0     H37861   0.681   9.028  11.480  0.1831 -0.3226 -1.1796
  287MOL0     H37862   0.491   9.157  11.373  1.4704  0.2431  1.9785
  287MOL0     H37863   0.555   9.115  11.216  0.9681 -0.8020  0.8179
  287MOL0     H37864   0.531   8.861  11.329 -0.1011  0.7842 -0.4557
  287MOL0     H37865   0.400   8.936  11.235 -0.9088  4.1483 -0.1423
  287MOL0     H37866   1.618   8.945  11.474 -3.5597  4.1845 -1.7339
  287MOL0     H37867   1.836   8.843  11.407  2.4248  2.5365 -1.0401
  287MOL0     H37868   2.033   8.606  11.035  1.8529 -2.7293 -0.9082
  287MOL0     H37869   2.252   8.507  10.932  1.0444 -0.3505 -0.1440
  287MOL0     H37870   3.797   8.640  11.008 -2.3551  2.4262  0.5965
  287MOL0     H37871   4.041   8.563  11.074  0.9823  0.3133 -0.5066
  287MOL0     H37872   4.488   8.789  11.164  1.3832  2.3375  2.7098
  287MOL0     H37873   4.716   8.730  11.267  1.3669  1.6746 -2.1812
  287MOL0     H37874   4.929   8.452  11.045 -0.8677  1.3187 -0.1820
  287MOL0     H37875   4.871   8.328  11.166 -1.1033  0.0703 -1.2177
  287MOL0     H37876   5.105   8.519  11.219  1.4483 -0.6366  1.5055
  287MOL0     H37877   5.030   8.384  11.306 -1.7533  3.6178  0.5510
  287MOL0     H37878   5.148   8.324  11.026  0.1871 -2.3206 -0.0345
  287MOL0     H37879   5.118   8.222  11.165  1.4073  0.2024  2.9583
  287MOL0     H37880   5.346   8.434  11.192 -0.2167  1.2296  1.8484
  287MOL0     H37881   5.277   8.317  11.314  0.7563 -2.0368 -1.0986
  287MOL0     H37882   5.553   8.085  11.086  0.4254 -0.4011  1.6449
  287MOL0     H37883   4.684   8.349  11.070 -2.2933 -0.2481 -1.3024
  287MOL0     H37884   4.470   8.388  11.007 -0.0009 -1.1721  0.8110
  288MOL0     O37885   6.596   2.225   9.944 -0.3772  0.4873  0.0925
  288MOL0     C37886   6.627   2.326   9.881 -0.8349 -0.2707  0.0156
  288MOL0     O37887   6.538   2.410   9.818 -0.5574  0.3916 -0.9236
  288MOL0     C37888   6.404   2.411   9.832  0.1606  0.4365 -0.3777
  288MOL0     C37889   6.344   2.374   9.955 -0.1506 -0.1683  0.2645
  288MOL0     C37890   6.209   2.373   9.958  0.2064 -0.3451  0.4991
  288MOL0     C37891   6.125   2.414   9.855  0.5892 -0.1448 -0.1256
  288MOL0     O37892   5.988   2.411   9.878 -0.0572 -0.6802 -0.2512
  288MOL0     C37893   5.896   2.450   9.775  0.5372 -0.4843 -0.6813
  288MOL0     C37894   5.763   2.472   9.850  0.2346 -0.3236 -0.4324
  288MOL0     C37895   5.675   2.349   9.871 -0.2291 -0.2592  0.2694
  288MOL0     C37896   5.544   2.396   9.914 -0.3543 -0.5719 -0.3628
  288MOL0     C37897   5.428   2.292   9.905 -0.1093 -0.5600 -0.5007
  288MOL0     C37898   5.287   2.345   9.933  0.6786 -0.4497 -0.0358
  288MOL0     C37899   5.192   2.224   9.898  0.0177 -0.3544 -0.2763
  288MOL0     C37900   5.113   2.234   9.767  0.2220  0.0446 -0.1564
  288MOL0     N37901   5.209   2.227   9.659 -0.5847  0.1007 -0.0754
  288MOL0     C37902   5.259   2.104   9.605  0.4817 -0.5305 -0.4497
  288MOL0     C37903   5.324   2.142   9.496  0.6541  0.5918  1.2704
  288MOL0     C37904   5.392   2.044   9.395 -0.0222  0.0800 -0.1808
  288MOL0     C37905   5.316   1.915   9.354  0.2924 -0.4641  0.1764
  288MOL0     C37906   5.193   1.945   9.261  0.4647  0.0386 -0.4697
  288MOL0     C37907   5.095   1.823   9.278 -0.3221  0.8787 -1.0324
  288MOL0     O37908   4.998   1.838   9.174 -0.0716  0.2628  0.3598
  288MOL0     C37909   4.863   1.829   9.200  0.2674 -0.6142  0.2839
  288MOL0     C37910   4.785   1.943   9.235  0.2107  0.5733  1.0147
  288MOL0     C37911   4.643   1.932   9.258  0.4228 -0.8157 -0.0535
  288MOL0     C37912   4.573   1.808   9.240  0.3991 -0.1637 -0.0624
  288MOL0     C37913   4.428   1.799   9.273  0.4310 -0.3677  0.9698
  288MOL0     O37914   4.367   1.690   9.241 -0.1559  0.4903 -0.2214
  288MOL0     C37915   4.233   1.673   9.267 -0.4197  0.3473 -0.9725
  288MOL0     C37916   4.133   1.763   9.309  0.0933 -0.8356  0.2574
  288MOL0     C37917   4.003   1.725   9.293  0.4995 -0.0636 -0.0075
  288MOL0     C37918   3.974   1.592   9.258 -0.4461  0.5904 -0.1535
  288MOL0     O37919   3.847   1.532   9.254  0.5037 -0.1683 -0.8493
  288MOL0     C37920   3.726   1.619   9.279  0.3880 -0.7241  0.1960
  288MOL0     C37921   3.599   1.544   9.253  0.8713 -0.0744 -0.6291
  288MOL0     C37922   3.470   1.619   9.306  0.5669 -0.0909 -0.4378
  288MOL0     C37923   3.342   1.538   9.304 -0.1277  0.9010 -0.4733
  288MOL0     C37924   3.214   1.605   9.289  0.0167  0.3864  0.0986
  288MOL0     C37925   3.177   1.697   9.400  0.4043  0.5015 -0.0909
  288MOL0     C37926   3.031   1.735   9.405 -0.2693 -0.1431  0.7734
  288MOL0     C37927   2.938   1.619   9.460 -0.8900 -0.0281 -0.9710
  288MOL0    Cl37928   2.764   1.657   9.433  0.2264  0.1228  0.4743
  288MOL0     C37929   4.072   1.498   9.230  0.1347  0.5361 -0.1291
  288MOL0     C37930   4.198   1.543   9.229 -0.2448 -0.5013 -0.5559
  288MOL0     O37931   4.383   1.902   9.339 -0.4791  0.7647  0.3180
  288MOL0     C37932   4.654   1.700   9.207 -0.9403 -0.8021  0.4057
  288MOL0     C37933   4.794   1.707   9.189  0.9175 -0.5898  1.0684
  288MOL0     N37934   5.335   2.286   9.490  0.5158  0.6774 -1.0314
  288MOL0     N37935   5.263   2.329   9.592 -0.1141  0.1057 -0.3960
  288MOL0     C37936   6.187   2.452   9.730 -0.0843  0.2848  0.9685
  288MOL0     C37937   6.323   2.433   9.716 -0.2273  0.3145  0.6332
  288MOL0     C37938   6.769   2.364   9.872 -0.0678  0.7505 -0.5229
  288MOL0     C37939   6.802   2.472   9.789 -0.3681  0.6124  0.4880
  288MOL0     C37940   6.936   2.521   9.791 -0.0018  0.4343 -0.0568
  288MOL0     C37941   7.041   2.456   9.861 -0.0284 -0.5346  0.6394
  288MOL0     O37942   7.162   2.518   9.848  0.1479  1.3265  0.2019
  288MOL0     C37943   7.279   2.473   9.919 -0.6635  0.9716 -0.0550
  288MOL0     C37944   7.400   2.546   9.864  0.7178 -0.1634 -0.4426
  288MOL0     C37945   7.438   2.679   9.935 -0.1380  0.4796 -0.2061
  288MOL0     C37946   7.580   2.733   9.899  0.0057  0.1067  0.9255
  288MOL0     C37947   7.591   2.786   9.759  0.5808  0.9711 -0.2656
  288MOL0     C37948   7.606   2.830   9.650  0.7012  0.1817 -0.0205
  288MOL0     C37949   7.003   2.344   9.937  1.0133 -0.3672 -0.2950
  288MOL0     C37950   6.871   2.300   9.955 -0.4119  0.6911 -0.1158
  288MOL0     H37951   6.405   2.358  10.043  2.7209  0.6582 -1.4393
  288MOL0     H37952   6.159   2.356  10.053  1.0717  1.5529  1.3727
  288MOL0     H37953   5.885   2.375   9.696  0.5279 -0.3870 -0.7717
  288MOL0     H37954   5.929   2.540   9.723  1.5124 -1.1714 -1.2828
  288MOL0     H37955   5.716   2.557   9.800  1.1454  0.9885  0.8531
  288MOL0     H37956   5.792   2.504   9.951 -0.4075  2.4285 -1.0438
  288MOL0     H37957   5.725   2.277   9.937 -0.5463 -0.5484  0.1978
  288MOL0     H37958   5.676   2.299   9.774 -1.1939  2.4706 -1.2494
  288MOL0     H37959   5.560   2.441  10.013  3.0410 -0.2538 -0.9376
  288MOL0     H37960   5.512   2.477   9.848  0.0944  0.9717  1.2299
  288MOL0     H37961   5.463   2.210   9.968  1.9821  1.4731  1.1518
  288MOL0     H37962   5.446   2.260   9.801 -0.5818 -0.8880 -0.4824
  288MOL0     H37963   5.268   2.439   9.881 -2.8741 -1.4070 -0.7715
  288MOL0     H37964   5.296   2.372  10.039  1.1165 -1.7095  0.2630
  288MOL0     H37965   5.251   2.133   9.914 -0.4238 -0.3646  1.4531
  288MOL0     H37966   5.126   2.222   9.985  3.3132 -1.2243  2.4259
  288MOL0     H37967   5.050   2.324   9.778 -1.7862 -1.4923  1.9761
  288MOL0     H37968   5.036   2.157   9.757 -1.1018  1.3530 -0.5370
  288MOL0     H37969   5.238   2.008   9.651  0.1554  0.2340  1.0824
  288MOL0     H37970   5.490   2.002   9.421 -0.1993 -1.2005 -1.4185
  288MOL0     H37971   5.404   2.103   9.303 -4.1064 -1.7871 -2.1633
  288MOL0     H37972   5.268   1.874   9.444  0.7040 -2.6532 -0.5579
  288MOL0     H37973   5.388   1.848   9.307  0.4492 -1.7107  2.1039
  288MOL0     H37974   5.142   2.037   9.290  0.3893 -0.0695 -0.2622
  288MOL0     H37975   5.231   1.967   9.161  0.4869  0.2977 -0.4046
  288MOL0     H37976   5.050   1.821   9.378 -0.5783  1.1700 -1.1392
  288MOL0     H37977   5.149   1.728   9.270 -3.2586 -0.9502 -0.7550
  288MOL0     H37978   4.839   2.037   9.230  1.0181  0.1180  1.0283
  288MOL0     H37979   4.591   2.024   9.281  1.4062 -0.2820  0.0923
  288MOL0     H37980   4.148   1.859   9.356 -0.9886 -1.5252  2.0867
  288MOL0     H37981   3.923   1.787   9.332 -1.4703 -2.4544 -0.0287
  288MOL0     H37982   3.724   1.706   9.212  3.2935  1.2516  2.4217
  288MOL0     H37983   3.734   1.667   9.377  4.5683 -0.5994 -0.0314
  288MOL0     H37984   3.600   1.445   9.300  0.0124 -0.4140 -1.3059
  288MOL0     H37985   3.587   1.519   9.148  1.1125 -1.6135 -0.3202
  288MOL0     H37986   3.465   1.718   9.260 -2.2616 -0.3863 -0.9164
  288MOL0     H37987   3.490   1.639   9.412  0.8539  0.7158 -0.6370
  288MOL0     H37988   3.340   1.470   9.218 -0.5459 -0.4826  0.5922
  288MOL0     H37989   3.343   1.465   9.386  1.7890  1.8131  0.3750
  288MOL0     H37990   3.140   1.524   9.285 -1.4724  1.5913  1.7334
  288MOL0     H37991   3.212   1.660   9.195  3.8526 -1.5196 -1.3127
  288MOL0     H37992   3.243   1.783   9.386 -0.8506  1.1655 -2.6253
  288MOL0     H37993   3.198   1.655   9.499 -0.0379 -1.0618 -0.6349
  288MOL0     H37994   3.019   1.830   9.458  2.0806  1.1925 -0.8890
  288MOL0     H37995   2.990   1.756   9.306  1.8766  0.2815 -0.0842
  288MOL0     H37996   2.960   1.601   9.565  4.0903  0.2147 -1.7372
  288MOL0     H37997   2.966   1.526   9.409 -2.6397  1.7309 -5.6921
  288MOL0     H37998   4.046   1.403   9.186 -1.7032  1.8040 -1.9847
  288MOL0     H37999   4.271   1.469   9.198 -0.5521 -1.9680  1.9232
  288MOL0     H38000   4.615   1.599   9.206  0.3689 -1.3835 -2.6264
  288MOL0     H38001   4.856   1.624   9.156  0.7130 -0.0407 -0.8428
  288MOL0     H38002   6.127   2.469   9.640 -0.3808 -0.6700  0.9752
  288MOL0     H38003   6.372   2.431   9.619 -1.5183  1.2745 -0.0647
  288MOL0     H38004   6.722   2.514   9.729 -1.5498 -0.6189  1.1598
  288MOL0     H38005   6.970   2.608   9.734 -0.9113 -1.3628 -3.6626
  288MOL0     H38006   7.294   2.367   9.896  0.5678  0.6766  1.8620
  288MOL0     H38007   7.269   2.469  10.028 -1.5232  3.4651  0.0181
  288MOL0     H38008   7.478   2.472   9.886 -1.4684 -2.9256 -1.4392
  288MOL0     H38009   7.389   2.565   9.756 -0.4051  0.2924 -0.2580
  288MOL0     H38010   7.417   2.691  10.041  0.2597  2.3549 -0.3173
  288MOL0     H38011   7.364   2.741   9.884 -0.5871  0.8008  0.8099
  288MOL0     H38012   7.606   2.807   9.975  1.2659  1.8034 -1.0273
  288MOL0     H38013   7.657   2.656   9.907  1.1288  1.3678  3.4746
  288MOL0     H38014   7.611   2.883   9.556 -2.2970  1.3328  0.3381
  288MOL0     H38015   7.068   2.290  10.005  1.7605 -1.3549 -1.7448
  288MOL0     H38016   6.838   2.215  10.014  2.1223  0.1147  0.5553
  289MOL0     O38017   8.790   9.171   9.926 -0.2049 -0.4242 -0.0354
  289MOL0     C38018   8.852   9.238  10.010  0.9129  0.0455 -0.2515
  289MOL0     O38019   8.801   9.303  10.121  0.4401 -0.3351 -0.4823
  289MOL0     C38020   8.669   9.290  10.136 -0.3259  0.6183 -0.3816
  289MOL0     C38021   8.604   9.166  10.135  0.0369  0.4072  0.1099
  289MOL0     C38022   8.468   9.160  10.152 -0.0346 -0.9016  0.6601
  289MOL0     C38023   8.388   9.277  10.190 -0.1184  1.0676  0.5944
  289MOL0     O38024   8.252   9.282  10.229  0.1352 -0.1761 -0.7356
  289MOL0     C38025   8.184   9.158  10.250 -0.7294  0.2601 -0.1222
  289MOL0     C38026   8.057   9.168  10.327 -0.9902 -0.2383 -0.2371
  289MOL0     C38027   7.942   9.240  10.244 -0.4181  0.5081  0.4869
  289MOL0     C38028   7.806   9.228  10.317 -0.5411  0.4764 -0.6424
  289MOL0     C38029   7.711   9.341  10.267  0.2762 -0.0363  0.3799
  289MOL0     C38030   7.567   9.323  10.307 -0.3781 -0.3007 -0.0510
  289MOL0     C38031   7.538   9.306  10.461  0.0406 -0.1858 -0.4791
  289MOL0     C38032   7.381   9.285  10.489  1.5240 -0.0695 -0.2108
  289MOL0     N38033   7.323   9.173  10.412 -0.3116 -0.7159  0.6428
  289MOL0     C38034   7.341   9.039  10.416 -0.5260 -0.1193 -0.2522
  289MOL0     C38035   7.237   8.973  10.364  0.3311 -0.9903 -0.0209
  289MOL0     C38036   7.214   8.825  10.363 -0.1479 -0.1407 -0.4950
  289MOL0     C38037   7.275   8.761  10.493 -0.0803 -0.5828 -0.8246
  289MOL0     C38038   7.244   8.620  10.484  0.4085 -0.1355 -0.8288
  289MOL0     C38039   7.110   8.604  10.543 -0.3894  0.2186 -0.3428
  289MOL0     O38040   7.089   8.467  10.543  0.1481 -0.2726  0.2118
  289MOL0     C38041   6.974   8.409  10.582 -0.4751  0.2706 -0.1361
  289MOL0     C38042   6.985   8.288  10.651  0.0065 -0.5100  0.6289
  289MOL0     C38043   6.868   8.221  10.682  0.6343 -0.2082  0.5543
  289MOL0     C38044   6.742   8.276  10.660  0.1615  0.1563  0.2791
  289MOL0     C38045   6.619   8.224  10.710  0.6152  1.1418  0.2160
  289MOL0     O38046   6.631   8.109  10.795  0.0919  0.0088  0.4020
  289MOL0     C38047   6.526   8.055  10.859  1.0954  0.5110  0.3250
  289MOL0     C38048   6.430   7.993  10.784  0.4781 -0.0451  0.4263
  289MOL0     C38049   6.323   7.919  10.842 -0.5154 -0.7955  0.8341
  289MOL0     C38050   6.312   7.904  10.977 -0.3437 -0.4207 -0.0579
  289MOL0     O38051   6.211   7.851  11.036 -0.7316 -0.3767 -0.7342
  289MOL0     C38052   6.189   7.715  11.009 -0.3706  0.6945 -1.0037
  289MOL0     C38053   6.114   7.663  11.138 -0.3900 -0.7602  0.0822
  289MOL0     C38054   6.075   7.518  11.140  0.1254  0.1484 -0.9906
  289MOL0     C38055   5.955   7.497  11.241  0.7959 -0.0517  0.1542
  289MOL0     C38056   5.910   7.356  11.224  1.3314 -0.2117  0.7098
  289MOL0     C38057   5.759   7.342  11.250  0.0555  0.0451  0.1352
  289MOL0     C38058   5.726   7.360  11.400 -0.4534  0.0924 -0.2724
  289MOL0     C38059   5.571   7.364  11.430  0.3186  0.1859  0.7445
  289MOL0    Cl38060   5.488   7.215  11.382  0.0605  0.2037 -0.0630
  289MOL0     C38061   6.409   7.966  11.049 -0.2725 -0.2246  0.1310
  289MOL0     C38062   6.521   8.034  10.997 -0.1416  0.4617 -0.0882
  289MOL0     O38063   6.508   8.283  10.686 -0.3585  0.3449 -0.4210
  289MOL0     C38064   6.742   8.393  10.585 -0.2666  0.7443 -0.7842
  289MOL0     C38065   6.855   8.458  10.543 -0.1704  0.0003  0.4780
  289MOL0     N38066   7.155   9.077  10.319  0.0769  0.7274  0.9934
  289MOL0     N38067   7.204   9.185  10.350  0.0176 -0.6635  0.5805
  289MOL0     C38068   8.458   9.390  10.209 -0.4509  0.3640 -0.5044
  289MOL0     C38069   8.599   9.405  10.171  1.2057 -0.6256  0.0112
  289MOL0     C38070   9.001   9.222  10.015  0.3439  0.2088  0.7513
  289MOL0     C38071   9.070   9.271  10.130 -0.3713  0.1471  1.0953
  289MOL0     C38072   9.205   9.244  10.136  0.4577 -0.4240  0.9083
  289MOL0     C38073   9.274   9.179  10.034 -1.2310 -0.4105  0.4770
  289MOL0     O38074   9.418   9.159  10.040 -0.1430  0.3579  0.0137
  289MOL0     C38075   9.494   9.215  10.155 -0.4480  0.1198  0.6465
  289MOL0     C38076   9.635   9.226  10.125 -0.5724 -0.1404  0.2702
  289MOL0     C38077   9.699   9.086  10.095 -0.4354  0.0629 -0.8927
  289MOL0     C38078   9.843   9.089  10.127 -0.0853 -0.2700 -0.5992
  289MOL0     C38079   9.925   8.973  10.083 -0.0859 -0.4660 -0.0586
  289MOL0     C38080  10.002   8.880  10.045 -0.2840 -0.2105 -1.0164
  289MOL0     C38081   9.202   9.136   9.925  0.2401  0.6055  0.1647
  289MOL0     C38082   9.066   9.161   9.909  0.6030  0.4476 -0.4348
  289MOL0     H38083   8.658   9.076  10.109  3.4501  2.7048 -1.6367
  289MOL0     H38084   8.422   9.065  10.126 -0.4971 -0.2568 -0.9987
  289MOL0     H38085   8.245   9.087  10.307 -0.5921 -2.1259 -2.9818
  289MOL0     H38086   8.165   9.109  10.154 -1.4351  0.3915 -0.0584
  289MOL0     H38087   8.064   9.197  10.432 -0.5177 -0.9560 -0.0636
  289MOL0     H38088   8.023   9.064  10.330 -0.5540 -0.3686  0.3992
  289MOL0     H38089   7.929   9.196  10.145 -0.7139 -1.3364  1.3029
  289MOL0     H38090   7.959   9.345  10.218 -3.0987  0.2094 -3.3601
  289MOL0     H38091   7.760   9.134  10.287  2.0956 -0.1131 -3.3701
  289MOL0     H38092   7.813   9.230  10.427 -5.9936 -3.4054  0.2153
  289MOL0     H38093   7.728   9.350  10.160  1.5463 -0.6493  0.5140
  289MOL0     H38094   7.735   9.436  10.316 -0.4071 -0.5748  1.8413
  289MOL0     H38095   7.532   9.230  10.261 -1.5796 -2.3142  4.3727
  289MOL0     H38096   7.495   9.395  10.266  0.2029  1.6468  2.1460
  289MOL0     H38097   7.585   9.210  10.486 -1.0933 -0.5921  0.1575
  289MOL0     H38098   7.586   9.380  10.526 -3.4666 -0.5112  2.8487
  289MOL0     H38099   7.332   9.381  10.471 -0.5836 -1.1338 -0.4698
  289MOL0     H38100   7.363   9.252  10.592 -3.2940  2.8648  0.1642
  289MOL0     H38101   7.435   8.993  10.444  0.1006  1.0370 -0.4144
  289MOL0     H38102   7.257   8.793  10.268 -0.5758  2.3674 -1.6103
  289MOL0     H38103   7.106   8.811  10.355 -0.3196  0.6209  0.3938
  289MOL0     H38104   7.235   8.803  10.586  1.7324 -1.3270  0.3404
  289MOL0     H38105   7.384   8.760  10.497 -0.0100  1.2187 -1.4749
  289MOL0     H38106   7.252   8.585  10.381 -0.2357 -2.2395 -0.2215
  289MOL0     H38107   7.310   8.557  10.544 -2.8981 -5.1905 -1.8625
  289MOL0     H38108   7.035   8.654  10.480 -0.9706 -0.7925 -0.4604
  289MOL0     H38109   7.089   8.639  10.644 -1.4451  0.1436 -0.5268
  289MOL0     H38110   7.085   8.257  10.676  1.8081  3.3668 -0.9304
  289MOL0     H38111   6.881   8.132  10.743 -1.1143  0.3786  1.8514
  289MOL0     H38112   6.427   8.007  10.677 -1.4615  3.6488  0.7763
  289MOL0     H38113   6.247   7.862  10.790 -0.6434 -1.0386  1.2824
  289MOL0     H38114   6.283   7.659  10.997 -0.6715 -0.1757  0.4254
  289MOL0     H38115   6.128   7.704  10.919  0.0191  0.0149 -1.1939
  289MOL0     H38116   6.019   7.717  11.146  0.6478  1.0265  1.0255
  289MOL0     H38117   6.171   7.673  11.231  1.7965  0.3922 -1.2846
  289MOL0     H38118   6.166   7.464  11.170  0.1525  0.9738  0.5400
  289MOL0     H38119   6.038   7.494  11.040  1.4582  0.1936 -1.5139
  289MOL0     H38120   5.988   7.500  11.346 -3.5906  1.5254  1.7491
  289MOL0     H38121   5.881   7.578  11.234 -0.4064 -0.9547  1.5979
  289MOL0     H38122   5.971   7.292  11.288  1.4434  1.0753  1.9091
  289MOL0     H38123   5.917   7.335  11.117 -1.3523 -0.6623  0.5481
  289MOL0     H38124   5.729   7.240  11.222 -0.8986 -0.1076  1.5796
  289MOL0     H38125   5.703   7.419  11.197  0.7209 -0.1324 -0.8476
  289MOL0     H38126   5.777   7.286  11.463 -0.3284 -0.7147 -1.2958
  289MOL0     H38127   5.755   7.457  11.441  0.1704 -0.3837  0.4229
  289MOL0     H38128   5.530   7.447  11.373  0.5265 -0.6052 -0.6026
  289MOL0     H38129   5.566   7.371  11.539 -2.7068  1.6999  0.6084
  289MOL0     H38130   6.409   7.933  11.152 -1.1530 -0.9343 -0.0861
  289MOL0     H38131   6.584   8.074  11.075  0.8739  0.9646 -1.1314
  289MOL0     H38132   6.646   8.424  10.543 -0.5074  2.3551  0.8124
  289MOL0     H38133   6.852   8.551  10.486  0.6247  0.4065  1.0700
  289MOL0     H38134   8.421   9.480  10.256  2.5024  0.8028  1.2539
  289MOL0     H38135   8.656   9.496  10.183  0.3453  0.5790 -3.8052
  289MOL0     H38136   9.021   9.327  10.209 -0.5647 -0.3746  1.3542
  289MOL0     H38137   9.249   9.289  10.224  2.5699  0.3706 -0.4622
  289MOL0     H38138   9.495   9.163  10.251 -2.5211  1.7247  1.6242
  289MOL0     H38139   9.462   9.310  10.197  1.2691  0.6300  0.9110
  289MOL0     H38140   9.636   9.277  10.028  0.8893 -0.7556 -0.0673
  289MOL0     H38141   9.685   9.282  10.205 -2.1462  1.4515  0.1763
  289MOL0     H38142   9.688   9.072   9.987 -0.2308  1.6931 -1.1537
  289MOL0     H38143   9.658   9.002  10.150 -0.0795  1.0856  1.0315
  289MOL0     H38144   9.901   9.176  10.096 -1.1621  1.2213  1.3247
  289MOL0     H38145   9.834   9.093  10.236 -2.0206 -0.8937 -0.7046
  289MOL0     H38146  10.076   8.807  10.020  1.4807  1.9322 -2.4240
  289MOL0     H38147   9.251   9.095   9.837 -2.0360 -0.0307 -0.8679
  289MOL0     H38148   9.019   9.124   9.818  0.6199  1.5029 -0.8793
  290MOL0     O38149  10.377   9.379   0.921 -0.2793 -0.2742 -0.2508
  290MOL0     C38150  10.477   9.327   0.875  0.9099 -0.0729  0.6405
  290MOL0     O38151  10.474   9.205   0.808  0.3669  0.6757 -0.0351
  290MOL0     C38152  10.351   9.170   0.754  0.2310  0.5627  1.0727
  290MOL0     C38153  10.317   9.235   0.638 -0.5328  0.3259  0.2036
  290MOL0     C38154  10.196   9.213   0.581  0.2335  0.1827 -0.4053
  290MOL0     C38155  10.104   9.120   0.631  0.2014  0.8863 -0.4836
  290MOL0     O38156   9.980   9.085   0.579 -0.3769 -0.3299 -0.7588
  290MOL0     C38157   9.958   9.135   0.445  0.3595 -0.5012  1.0327
  290MOL0     C38158   9.826   9.058   0.387  0.3766 -0.2073  0.5712
  290MOL0     C38159   9.847   8.906   0.392  0.4738 -0.4111  0.2788
  290MOL0     C38160   9.716   8.842   0.336  0.8896  0.2199 -0.2906
  290MOL0     C38161   9.635   8.789   0.457 -0.5224 -0.3007  0.1423
  290MOL0     C38162   9.492   8.757   0.418 -0.2225  0.3291  0.0696
  290MOL0     C38163   9.455   8.647   0.324 -0.4442  1.3000  0.7041
  290MOL0     C38164   9.302   8.640   0.293  0.0054 -0.2264  0.1218
  290MOL0     N38165   9.266   8.766   0.222  0.6523 -0.5512 -0.8633
  290MOL0     C38166   9.221   8.883   0.283 -0.0257  0.2039  0.6824
  290MOL0     C38167   9.207   8.973   0.179  0.1231  0.7096 -0.5351
  290MOL0     C38168   9.171   9.113   0.196  0.3810 -0.5651 -0.1435
  290MOL0     C38169   9.075   9.130   0.313  0.2535  1.0708  0.0381
  290MOL0     C38170   9.013   9.262   0.317  0.3433 -0.0814  0.7580
  290MOL0     C38171   8.911   9.276   0.435 -1.0539  1.1566  0.6429
  290MOL0     O38172   8.800   9.175   0.431  0.3268  0.0112  0.4629
  290MOL0     C38173   8.674   9.228   0.450  0.2733  0.7775  0.0607
  290MOL0     C38174   8.639   9.294   0.563  0.2276 -0.0617 -0.5801
  290MOL0     C38175   8.505   9.325   0.589  0.6018 -0.2202 -0.6181
  290MOL0     C38176   8.396   9.294   0.501 -0.2656  0.0879  0.0447
  290MOL0     C38177   8.252   9.331   0.523 -0.3978 -0.3757  1.2959
  290MOL0     O38178   8.163   9.234   0.481 -0.2249 -0.0659  0.0378
  290MOL0     C38179   8.034   9.250   0.524  0.4568 -0.2000 -0.1016
  290MOL0     C38180   8.005   9.209   0.649 -0.0143  0.5431 -0.4213
  290MOL0     C38181   7.870   9.204   0.692 -0.9361  0.6209 -0.7583
  290MOL0     C38182   7.762   9.238   0.612 -1.1779 -0.6044 -0.3039
  290MOL0     O38183   7.636   9.225   0.661  1.0961 -0.1808  0.3666
  290MOL0     C38184   7.520   9.253   0.580 -0.1461  0.3622 -0.3132
  290MOL0     C38185   7.497   9.165   0.463  0.0014  0.2317  0.7208
  290MOL0     C38186   7.469   9.014   0.505 -0.7387  0.3901  1.3251
  290MOL0     C38187   7.425   8.923   0.385  0.3318  0.1440  1.2746
  290MOL0     C38188   7.279   8.921   0.340  0.7825  0.7788  0.3266
  290MOL0     C38189   7.177   8.874   0.443  0.6567 -0.7570 -0.2776
  290MOL0     C38190   7.038   8.916   0.402  0.7259 -0.1452  0.5378
  290MOL0     C38191   6.929   8.838   0.470  0.3676  1.0761  0.0054
  290MOL0    Cl38192   6.762   8.908   0.461 -0.2613 -0.4187  0.3629
  290MOL0     C38193   7.806   9.296   0.482 -0.3683 -0.3600 -0.2410
  290MOL0     C38194   7.938   9.288   0.436  0.4572  0.4096  0.5659
  290MOL0     O38195   8.223   9.435   0.577 -0.3646  0.1682  0.2346
  290MOL0     C38196   8.438   9.213   0.394  0.1184 -0.5703 -0.1053
  290MOL0     C38197   8.575   9.190   0.369 -0.2042 -0.9722  0.0782
  290MOL0     N38198   9.254   8.907   0.068  0.0417  0.3511  0.2271
  290MOL0     N38199   9.294   8.783   0.088  0.6949 -0.1786  0.0528
  290MOL0     C38200  10.141   9.045   0.746  0.6265  0.6479  1.1849
  290MOL0     C38201  10.263   9.067   0.804  1.0810  0.5493  0.3003
  290MOL0     C38202  10.611   9.386   0.895 -0.2020 -0.5118 -0.5860
  290MOL0     C38203  10.633   9.522   0.937 -0.2802 -0.9925  0.7081
  290MOL0     C38204  10.758   9.576   0.969  0.5349  0.5394 -1.0822
  290MOL0     C38205  10.874   9.492   0.968 -0.2291  0.1652  0.7955
  290MOL0     O38206  11.000   9.530   1.005 -0.1338 -0.5101  0.1210
  290MOL0     C38207  11.014   9.670   1.026  0.5838  0.7699 -0.0691
  290MOL0     C38208  11.161   9.701   1.052 -0.2055 -0.0646 -0.4167
  290MOL0     C38209  11.204   9.850   1.047 -0.0416  0.8676 -1.6393
  290MOL0     C38210  11.321   9.891   1.132 -0.9672  0.0847  0.4822
  290MOL0     C38211  11.408   9.969   1.047 -0.2613 -0.0913 -0.3148
  290MOL0     C38212  11.490  10.038   0.988 -0.7619 -0.6270  0.9429
  290MOL0     C38213  10.857   9.356   0.929  0.2812 -1.2221  0.3015
  290MOL0     C38214  10.726   9.308   0.893  0.3601  0.0521  0.0829
  290MOL0     H38215  10.391   9.303   0.595 -0.5726 -0.5581 -1.3157
  290MOL0     H38216  10.173   9.271   0.493 -1.1555  0.2571 -0.0195
  290MOL0     H38217  10.046   9.113   0.384 -0.2391 -1.3019  0.4417
  290MOL0     H38218   9.930   9.240   0.429  0.4007 -0.6908 -0.3729
  290MOL0     H38219   9.818   9.085   0.281 -1.0973 -0.3215  0.6403
  290MOL0     H38220   9.737   9.086   0.444 -0.6781 -2.1816 -0.0341
  290MOL0     H38221   9.864   8.864   0.491 -1.3890  0.8845  1.2167
  290MOL0     H38222   9.931   8.865   0.335  0.3960  0.9955 -0.8875
  290MOL0     H38223   9.646   8.911   0.289  1.5490  1.0563 -0.0635
  290MOL0     H38224   9.736   8.750   0.280 -1.3419  0.0330 -0.8692
  290MOL0     H38225   9.630   8.866   0.535  3.4546 -1.7820  2.1183
  290MOL0     H38226   9.659   8.694   0.504 -4.2692 -0.8423  1.3341
  290MOL0     H38227   9.443   8.848   0.382  0.3510  0.6921  0.1931
  290MOL0     H38228   9.441   8.722   0.508  0.0826 -1.1774 -0.3073
  290MOL0     H38229   9.501   8.664   0.226  0.3821 -0.8613  0.6687
  290MOL0     H38230   9.494   8.552   0.361  0.3293  1.1366 -0.4729
  290MOL0     H38231   9.247   8.625   0.387 -1.5242 -0.7779 -0.8217
  290MOL0     H38232   9.283   8.554   0.228  2.8085 -1.6155  0.9589
  290MOL0     H38233   9.201   8.899   0.388  1.4695  5.5806  0.4415
  290MOL0     H38234   9.125   9.162   0.110 -2.8905  1.7236  2.6119
  290MOL0     H38235   9.268   9.159   0.220  0.6643 -0.6727 -1.0492
  290MOL0     H38236   9.127   9.120   0.408  0.8829  0.4622 -0.3643
  290MOL0     H38237   9.001   9.054   0.289  2.1586 -0.1553 -2.5407
  290MOL0     H38238   9.099   9.328   0.329  0.2144 -0.1571  2.2080
  290MOL0     H38239   8.956   9.288   0.227 -0.0145 -1.6072  0.4995
  290MOL0     H38240   8.878   9.380   0.434  0.3555  1.6190 -0.3595
  290MOL0     H38241   8.963   9.258   0.530 -1.8676  1.5686  1.1750
  290MOL0     H38242   8.704   9.328   0.643  4.8714 -0.7806 -3.6455
  290MOL0     H38243   8.469   9.386   0.672  0.0248  0.5126 -1.3815
  290MOL0     H38244   8.084   9.167   0.710 -0.0216  0.4545 -0.4726
  290MOL0     H38245   7.851   9.171   0.793  0.2839 -0.8394 -0.9658
  290MOL0     H38246   7.523   9.359   0.552  1.4772 -0.2630 -2.8712
  290MOL0     H38247   7.430   9.235   0.639 -1.7388 -0.5918 -2.8961
  290MOL0     H38248   7.584   9.165   0.398 -0.0800 -1.6524  0.5520
  290MOL0     H38249   7.418   9.200   0.396  0.2832 -0.0328  0.2453
  290MOL0     H38250   7.390   9.021   0.580 -2.6063  3.9826 -0.6774
  290MOL0     H38251   7.567   8.983   0.543  0.1961  0.9094 -0.5105
  290MOL0     H38252   7.486   8.960   0.303  1.3500  1.4793  2.5824
  290MOL0     H38253   7.459   8.819   0.394 -0.5219 -0.4353 -1.2357
  290MOL0     H38254   7.261   8.853   0.256 -5.1386  3.9230 -1.5490
  290MOL0     H38255   7.254   9.022   0.305  2.4830  0.5370 -1.7459
  290MOL0     H38256   7.204   8.923   0.537  1.8414  1.5592 -1.7128
  290MOL0     H38257   7.189   8.766   0.457  3.9574 -0.3405  1.1404
  290MOL0     H38258   7.016   9.021   0.424 -4.3891 -0.9965  0.9015
  290MOL0     H38259   7.023   8.909   0.294 -0.0017  0.9258  0.5487
  290MOL0     H38260   6.959   8.828   0.574 -0.7379 -0.2948  0.2138
  290MOL0     H38261   6.913   8.734   0.439 -2.8489  1.5656 -0.3616
  290MOL0     H38262   7.739   9.347   0.415 -1.4735 -2.1655 -0.5885
  290MOL0     H38263   7.969   9.332   0.342  4.3575 -1.8688  0.5562
  290MOL0     H38264   8.363   9.168   0.328 -0.0566 -2.4650  1.3065
  290MOL0     H38265   8.593   9.121   0.287 -2.7051 -1.7638  0.1388
  290MOL0     H38266  10.074   8.972   0.790 -0.6737  1.3129  0.3666
  290MOL0     H38267  10.287   9.018   0.897  2.8409 -3.7286 -2.0957
  290MOL0     H38268  10.546   9.585   0.946 -0.2886 -0.5747 -1.7300
  290MOL0     H38269  10.762   9.682   0.993  0.2052  0.4007 -0.3838
  290MOL0     H38270  10.947   9.700   1.107 -0.4426  1.1071 -1.0239
  290MOL0     H38271  10.978   9.719   0.936 -2.8534 -1.5813 -0.1740
  290MOL0     H38272  11.188   9.656   1.149 -3.5064 -1.8885 -0.2000
  290MOL0     H38273  11.218   9.658   0.969  1.8598 -0.1134  0.9305
  290MOL0     H38274  11.113   9.906   1.074 -1.3768 -1.9505  0.2311
  290MOL0     H38275  11.217   9.880   0.943  1.4291  1.2256 -1.3684
  290MOL0     H38276  11.297   9.964   1.209  0.3147  1.6667 -0.5471
  290MOL0     H38277  11.372   9.804   1.174  0.1713 -0.1538 -1.2724
  290MOL0     H38278  11.567  10.089   0.935  0.3335 -1.0368  2.0996
  290MOL0     H38279  10.952   9.306   0.910  2.0924  2.5942 -1.9606
  290MOL0     H38280  10.723   9.205   0.861  0.4218 -0.1132  0.6090
  291MOL0     O38281   5.958   3.932   6.950 -0.1662 -0.7212 -0.0143
  291MOL0     C38282   5.874   3.852   6.991  1.1093  0.8691 -0.1853
  291MOL0     O38283   5.891   3.735   7.047 -0.3471  0.2486 -0.4529
  291MOL0     C38284   6.016   3.676   7.071 -0.5785 -0.1658 -0.6825
  291MOL0     C38285   6.131   3.748   7.116 -0.7664 -0.5684 -0.1989
  291MOL0     C38286   6.247   3.678   7.150 -0.4375  0.4859  0.1890
  291MOL0     C38287   6.253   3.540   7.149  1.1029  0.4140  0.8197
  291MOL0     O38288   6.352   3.461   7.200 -0.3191  0.1295 -0.3086
  291MOL0     C38289   6.474   3.517   7.237 -1.3177  0.1547  0.3287
  291MOL0     C38290   6.573   3.418   7.287 -0.1996 -0.4200 -0.2578
  291MOL0     C38291   6.525   3.324   7.410 -0.4148  0.1031 -0.8462
  291MOL0     C38292   6.631   3.223   7.453 -0.3245 -0.1649 -0.3328
  291MOL0     C38293   6.779   3.264   7.477 -0.1123 -0.8057  0.1003
  291MOL0     C38294   6.823   3.217   7.617 -0.3036 -0.3219  0.6825
  291MOL0     C38295   6.972   3.227   7.650  0.7819  0.9936 -0.1114
  291MOL0     C38296   7.037   3.111   7.568 -0.8264  0.2254  0.2562
  291MOL0     N38297   7.185   3.117   7.581 -0.2031 -0.1695  0.4007
  291MOL0     C38298   7.279   3.022   7.535  0.3852 -0.7799 -0.2827
  291MOL0     C38299   7.398   3.070   7.569 -0.3396 -0.0015 -0.8612
  291MOL0     C38300   7.537   3.011   7.562  0.3581 -0.3282 -0.3545
  291MOL0     C38301   7.650   3.090   7.509 -0.3105 -0.4368 -0.2515
  291MOL0     C38302   7.773   3.010   7.457  0.9581  0.0866  0.3386
  291MOL0     C38303   7.892   3.088   7.388 -0.5629 -0.9794 -0.3088
  291MOL0     O38304   7.989   2.984   7.365  0.6690 -0.8650 -0.4428
  291MOL0     C38305   8.073   2.941   7.475  1.1978  0.3422  1.1695
  291MOL0     C38306   8.127   2.814   7.463  0.0378 -0.6055 -0.2986
  291MOL0     C38307   8.200   2.751   7.568 -0.1179 -0.2377  0.1406
  291MOL0     C38308   8.230   2.821   7.681 -0.5045 -0.4531 -0.0917
  291MOL0     C38309   8.309   2.751   7.787 -0.1729 -0.3318 -0.4775
  291MOL0     O38310   8.367   2.633   7.753 -0.6207 -0.3327 -0.8178
  291MOL0     C38311   8.450   2.580   7.848 -0.8403 -0.0391  0.0162
  291MOL0     C38312   8.560   2.661   7.901 -0.4526 -0.1249  0.2330
  291MOL0     C38313   8.654   2.596   7.979 -0.9754  0.2857  0.1950
  291MOL0     C38314   8.657   2.455   8.001  0.4674 -0.8025 -0.9967
  291MOL0     O38315   8.752   2.407   8.087 -0.6963 -0.0529  0.1582
  291MOL0     C38316   8.823   2.297   8.020  1.2565  0.4549 -0.2675
  291MOL0     C38317   8.922   2.226   8.123  0.0779  0.1775 -0.5026
  291MOL0     C38318   9.040   2.171   8.040  0.1093 -0.4679  0.4230
  291MOL0     C38319   9.113   2.049   8.104 -0.0528 -0.3354  0.9007
  291MOL0     C38320   9.193   2.068   8.242  0.3566  0.2227  0.5313
  291MOL0     C38321   9.315   2.159   8.213  0.5188 -0.1242 -0.2316
  291MOL0     C38322   9.420   2.133   8.316 -0.4104  1.0379 -0.0434
  291MOL0     C38323   9.532   2.248   8.317 -0.8904 -0.1494 -0.7678
  291MOL0    Cl38324   9.623   2.260   8.160 -0.2701 -0.1518 -0.3587
  291MOL0     C38325   8.547   2.381   7.953 -0.5712 -0.7495  0.1295
  291MOL0     C38326   8.452   2.438   7.865  0.5109 -0.4185 -0.9054
  291MOL0     O38327   8.321   2.816   7.889  0.0434  0.5591 -0.4634
  291MOL0     C38328   8.169   2.948   7.698  0.4169  0.3761 -0.9503
  291MOL0     C38329   8.085   3.003   7.600 -0.5279  0.3400  0.0788
  291MOL0     N38330   7.382   3.192   7.638  0.2556  0.2672  0.1996
  291MOL0     N38331   7.257   3.214   7.639 -0.5587  0.2124 -0.3032
  291MOL0     C38332   6.138   3.464   7.101  0.3104  0.0468 -0.7927
  291MOL0     C38333   6.020   3.534   7.060  0.4991  0.6468 -0.4390
  291MOL0     C38334   5.734   3.885   6.972 -0.5071 -0.3410  0.0288
  291MOL0     C38335   5.700   3.970   6.865 -0.6337  0.3615  0.9251
  291MOL0     C38336   5.566   3.999   6.840  0.7805  0.7426 -0.1381
  291MOL0     C38337   5.459   3.949   6.907  0.2243 -0.2149 -0.0417
  291MOL0     O38338   5.335   4.001   6.855  0.3839  0.6064 -0.4488
  291MOL0     C38339   5.219   3.996   6.938 -0.4966  0.1142 -0.1412
  291MOL0     C38340   5.142   3.865   6.917 -0.1826 -0.2074 -0.0001
  291MOL0     C38341   5.129   3.833   6.768  0.0596 -0.6364 -0.2404
  291MOL0     C38342   5.021   3.724   6.752 -0.0436 -0.5802  0.6183
  291MOL0     C38343   4.891   3.779   6.767  0.4420 -0.7640 -0.1527
  291MOL0     C38344   4.777   3.825   6.761 -0.5159  0.1940 -1.0361
  291MOL0     C38345   5.482   3.859   7.007 -0.5158  0.8842  0.4357
  291MOL0     C38346   5.623   3.829   7.037  0.6900  0.2898 -0.1378
  291MOL0     H38347   6.127   3.857   7.108  2.4590 -0.2485  1.1389
  291MOL0     H38348   6.331   3.731   7.194 -0.1973  1.7151 -1.6586
  291MOL0     H38349   6.461   3.586   7.321 -0.5655 -0.4520  0.9478
  291MOL0     H38350   6.526   3.571   7.157  2.6527 -0.1379  2.4691
  291MOL0     H38351   6.662   3.478   7.305  1.2052 -2.1716 -0.9899
  291MOL0     H38352   6.591   3.349   7.203 -1.3296  1.8288 -2.4693
  291MOL0     H38353   6.437   3.269   7.378 -0.6666  0.4430 -0.7451
  291MOL0     H38354   6.502   3.397   7.488  1.8406  1.2547 -1.1528
  291MOL0     H38355   6.608   3.160   7.539  1.7546 -2.9451 -1.6383
  291MOL0     H38356   6.629   3.151   7.371  1.1718  0.4058 -0.9033
  291MOL0     H38357   6.789   3.373   7.476  0.1014 -0.7048  3.4112
  291MOL0     H38358   6.836   3.230   7.390  0.8523 -0.4384  0.5865
  291MOL0     H38359   6.799   3.111   7.628 -0.6178 -0.3674 -0.3015
  291MOL0     H38360   6.758   3.269   7.687 -0.4797  0.5865 -0.1331
  291MOL0     H38361   7.019   3.316   7.605  0.9110  1.0179  0.0747
  291MOL0     H38362   6.997   3.220   7.756  1.4549 -1.1084 -0.3759
  291MOL0     H38363   7.003   3.105   7.464 -0.1412 -1.6579  0.1006
  291MOL0     H38364   6.999   3.018   7.609  1.7410 -0.9544  0.1759
  291MOL0     H38365   7.260   2.927   7.486  2.2769 -0.1822 -2.3531
  291MOL0     H38366   7.541   2.918   7.506 -1.2817  0.4724 -1.9253
  291MOL0     H38367   7.566   2.993   7.666 -2.0179 -0.8970  0.2890
  291MOL0     H38368   7.679   3.153   7.593 -2.0308  1.9275 -1.3077
  291MOL0     H38369   7.610   3.152   7.428  2.4571  3.8849  1.3260
  291MOL0     H38370   7.811   2.955   7.544  1.6998 -1.0233 -0.6468
  291MOL0     H38371   7.734   2.935   7.387  2.4975 -0.3472 -0.0963
  291MOL0     H38372   7.928   3.179   7.437 -0.3164 -0.7892 -0.8334
  291MOL0     H38373   7.859   3.126   7.290 -3.1468  2.2149  1.5727
  291MOL0     H38374   8.101   2.760   7.373  0.2036 -2.3026  0.6427
  291MOL0     H38375   8.232   2.648   7.560 -1.2039 -0.8160  2.3801
  291MOL0     H38376   8.584   2.764   7.879  3.2793 -0.7046  0.9987
  291MOL0     H38377   8.731   2.665   8.010 -1.0354 -0.2731  1.6464
  291MOL0     H38378   8.875   2.334   7.932  0.4116 -1.4334 -1.6465
  291MOL0     H38379   8.761   2.222   7.968  1.9073  0.1600 -0.6347
  291MOL0     H38380   8.860   2.151   8.173  1.3119 -0.2856  0.3936
  291MOL0     H38381   8.960   2.301   8.194 -0.0259 -1.0977  0.9735
  291MOL0     H38382   9.108   2.253   8.012 -1.3739  0.2199 -1.4026
  291MOL0     H38383   8.997   2.136   7.945  1.1263 -1.2909  0.2443
  291MOL0     H38384   9.026   1.985   8.125 -1.8242  2.6207  3.4780
  291MOL0     H38385   9.191   2.011   8.038 -0.4803 -1.6404  1.1124
  291MOL0     H38386   9.222   1.975   8.292  0.3758 -0.5942 -0.9644
  291MOL0     H38387   9.131   2.121   8.316  2.0999 -0.7397  2.8061
  291MOL0     H38388   9.275   2.261   8.210  1.3525  0.1980 -0.6800
  291MOL0     H38389   9.357   2.147   8.113  0.7385  2.9878 -0.6201
  291MOL0     H38390   9.377   2.131   8.416  1.3069 -1.9621  0.7334
  291MOL0     H38391   9.474   2.038   8.306 -1.8247  0.3327 -1.2163
  291MOL0     H38392   9.601   2.225   8.399 -0.1222  0.0637 -1.3361
  291MOL0     H38393   9.479   2.339   8.343 -0.5425 -0.9271  3.2857
  291MOL0     H38394   8.538   2.278   7.986 -0.5438 -0.3230  1.5102
  291MOL0     H38395   8.367   2.375   7.839  1.5452 -1.1778 -2.6639
  291MOL0     H38396   8.183   2.996   7.795 -1.5041 -1.6062  0.4124
  291MOL0     H38397   8.045   3.103   7.614  2.4745  2.2237 -3.1422
  291MOL0     H38398   6.138   3.356   7.095  1.4100  0.0784 -1.6035
  291MOL0     H38399   5.930   3.477   7.034  1.1853 -1.3935  1.3499
  291MOL0     H38400   5.779   4.019   6.809 -1.3302 -0.3275 -0.7342
  291MOL0     H38401   5.539   4.073   6.765 -1.1669  1.4478  1.1809
  291MOL0     H38402   5.155   4.083   6.923 -0.6487 -0.0397 -0.3767
  291MOL0     H38403   5.243   4.019   7.042 -3.9519 -0.2252  0.8533
  291MOL0     H38404   5.208   3.791   6.963 -0.2806 -1.8573 -2.3559
  291MOL0     H38405   5.045   3.858   6.968 -1.5353  2.9969 -1.8023
  291MOL0     H38406   5.227   3.791   6.743 -0.1560 -0.0295 -2.2871
  291MOL0     H38407   5.115   3.914   6.695  2.9433  1.2448  1.1325
  291MOL0     H38408   5.035   3.687   6.650 -0.9673  0.4045  0.1099
  291MOL0     H38409   5.032   3.640   6.821  1.8368 -0.9443 -0.0628
  291MOL0     H38410   4.673   3.853   6.757 -0.7881 -0.1547  1.5039
  291MOL0     H38411   5.413   3.787   7.049  0.5969 -2.1953 -2.5629
  291MOL0     H38412   5.641   3.753   7.113 -1.7001 -1.8070 -1.5563
  292MOL0     O38413   7.141   4.010   0.216  1.2152 -0.1185  0.1512
  292MOL0     C38414   7.114   4.009   0.094 -0.6618 -0.4261  0.1851
  292MOL0     O38415   7.014   3.932   0.033 -0.2569 -1.3866  0.1107
  292MOL0     C38416   6.947   3.848   0.119 -0.7678 -0.0904  0.3991
  292MOL0     C38417   6.811   3.860   0.114  0.2506  0.5311 -0.2237
  292MOL0     C38418   6.732   3.777   0.193 -0.2650 -0.0412  0.5100
  292MOL0     C38419   6.789   3.674   0.269 -0.4037 -0.3117  0.6788
  292MOL0     O38420   6.722   3.590   0.348 -0.0528  0.1428  0.7193
  292MOL0     C38421   6.575   3.585   0.327  1.0579  0.1111 -0.9544
  292MOL0     C38422   6.535   3.476   0.432  0.2443  0.7741 -0.2045
  292MOL0     C38423   6.384   3.468   0.454 -0.0079 -0.1374  0.4947
  292MOL0     C38424   6.318   3.400   0.339  0.7303  0.0918  0.5855
  292MOL0     C38425   6.175   3.374   0.373  0.1571  0.2002  0.3241
  292MOL0     C38426   6.125   3.284   0.264 -0.2982  0.3833 -0.1744
  292MOL0     C38427   5.979   3.243   0.292  0.5446 -0.1130 -0.1445
  292MOL0     C38428   5.904   3.212   0.173 -0.6860 -0.1362  0.5647
  292MOL0     N38429   5.772   3.152   0.209  0.0712 -0.4376  0.3381
  292MOL0     C38430   5.651   3.217   0.232  0.0038  0.1815  0.7371
  292MOL0     C38431   5.559   3.116   0.230  0.7063  0.4405  0.0728
  292MOL0     C38432   5.413   3.139   0.262  0.2856 -0.1447 -0.0052
  292MOL0     C38433   5.317   3.123   0.143  0.2635 -0.4561  0.4636
  292MOL0     C38434   5.179   3.064   0.182  0.2047 -0.4268  0.0883
  292MOL0     C38435   5.066   3.053   0.077  0.4648  0.0039  0.1858
  292MOL0     O38436   5.025   3.173   0.010  0.0514 -0.2101  0.2769
  292MOL0     C38437   4.901   3.170  -0.057 -0.1643 -0.4404 -0.3302
  292MOL0     C38438   4.835   3.058  -0.095 -0.0023 -0.6353 -0.0882
  292MOL0     C38439   4.712   3.067  -0.162 -0.7451  0.1768  0.8678
  292MOL0     C38440   4.650   3.185  -0.202  0.2558 -0.2671  0.4394
  292MOL0     C38441   4.519   3.185  -0.279  0.2308  0.5467  0.4782
  292MOL0     O38442   4.468   3.303  -0.310  0.0358 -0.0777 -0.0858
  292MOL0     C38443   4.348   3.319  -0.378 -0.1710 -0.5707 -0.2890
  292MOL0     C38444   4.345   3.406  -0.489 -0.2603 -0.1680  0.0111
  292MOL0     C38445   4.224   3.419  -0.572 -0.5215  0.8968 -0.4167
  292MOL0     C38446   4.117   3.346  -0.528 -0.0108 -0.1269 -0.4208
  292MOL0     O38447   3.998   3.369  -0.606  0.4259 -0.3297 -0.3591
  292MOL0     C38448   3.879   3.284  -0.587 -0.9299 -0.7801 -0.2088
  292MOL0     C38449   3.806   3.332  -0.455  0.3569  0.1148  0.0485
  292MOL0     C38450   3.653   3.346  -0.476  0.5375 -0.3719  0.6095
  292MOL0     C38451   3.587   3.237  -0.563 -0.3087 -0.3707 -0.5356
  292MOL0     C38452   3.438   3.234  -0.540  0.8825 -0.3908  0.0934
  292MOL0     C38453   3.386   3.228  -0.396 -0.3178 -0.3751  0.3003
  292MOL0     C38454   3.246   3.168  -0.400  0.1606 -0.5690 -0.2500
  292MOL0     C38455   3.133   3.263  -0.450 -0.1042  0.0909 -0.3335
  292MOL0    Cl38456   2.973   3.190  -0.446  0.0660 -0.0965  0.4338
  292MOL0     C38457   4.113   3.264  -0.410 -0.9047 -0.0387  0.1536
  292MOL0     C38458   4.230   3.247  -0.341  0.4721  0.6545  0.0468
  292MOL0     O38459   4.477   3.074  -0.317 -0.1386 -1.1225 -0.5554
  292MOL0     C38460   4.723   3.299  -0.164  0.4888 -0.6654  1.1793
  292MOL0     C38461   4.844   3.294  -0.095  0.4577  0.0241 -0.1264
  292MOL0     N38462   5.630   3.000   0.215 -0.6502  0.0140  0.1963
  292MOL0     N38463   5.757   3.019   0.230 -0.1211 -0.0353  0.2751
  292MOL0     C38464   6.927   3.654   0.263 -0.4733  0.1368 -0.1294
  292MOL0     C38465   7.008   3.741   0.192  0.3613  1.3406  0.7549
  292MOL0     C38466   7.177   4.101   0.000  0.0732  0.1637  0.1668
  292MOL0     C38467   7.135   4.115  -0.128  0.4511 -0.5197 -0.5594
  292MOL0     C38468   7.197   4.207  -0.213 -0.2830  0.2651  0.4857
  292MOL0     C38469   7.301   4.279  -0.175 -1.0020 -0.1116  0.7856
  292MOL0     O38470   7.349   4.371  -0.264 -0.3268 -0.0250 -0.4023
  292MOL0     C38471   7.487   4.355  -0.295  0.5975  0.4455  0.1476
  292MOL0     C38472   7.482   4.378  -0.450  0.7455 -0.1246 -0.2273
  292MOL0     C38473   7.623   4.355  -0.507 -0.6013  0.0569  0.7159
  292MOL0     C38474   7.627   4.353  -0.662  0.3668 -0.1820 -0.0550
  292MOL0     C38475   7.757   4.313  -0.703 -0.4168 -0.5202 -1.0549
  292MOL0     C38476   7.860   4.262  -0.749  0.5417  0.9796 -0.1446
  292MOL0     C38477   7.349   4.263  -0.047 -0.6012 -0.2525  0.1009
  292MOL0     C38478   7.289   4.176   0.042  0.4887 -0.1372 -0.2188
  292MOL0     H38479   6.752   3.931   0.056 -1.3184  0.7735  1.5589
  292MOL0     H38480   6.624   3.788   0.191 -0.0568  3.2569  1.6174
  292MOL0     H38481   6.563   3.556   0.222  2.1460 -0.7728 -0.8593
  292MOL0     H38482   6.526   3.678   0.358  1.0272  0.3852 -1.8105
  292MOL0     H38483   6.575   3.502   0.530 -3.0766 -0.9081  1.8158
  292MOL0     H38484   6.576   3.379   0.403  1.5094  0.8791  1.1291
  292MOL0     H38485   6.335   3.564   0.474  0.8409  0.3328  0.3897
  292MOL0     H38486   6.367   3.408   0.544 -3.1113  0.3248  0.3317
  292MOL0     H38487   6.322   3.462   0.248  1.3787 -1.0632 -0.2008
  292MOL0     H38488   6.361   3.301   0.322  0.1353 -0.2170  0.8598
  292MOL0     H38489   6.115   3.466   0.381 -0.5993 -0.4555  2.9069
  292MOL0     H38490   6.160   3.339   0.475  1.5121  1.8087  1.1223
  292MOL0     H38491   6.186   3.193   0.265 -0.5327  0.1704 -1.8645
  292MOL0     H38492   6.142   3.319   0.162 -1.4659 -1.2744 -0.9888
  292MOL0     H38493   5.971   3.155   0.356  1.2310 -0.1436 -0.0941
  292MOL0     H38494   5.923   3.321   0.345  0.1971 -2.1926  2.7519
  292MOL0     H38495   5.968   3.148   0.111  0.2476  0.9912  0.3181
  292MOL0     H38496   5.884   3.301   0.112  1.1036 -0.1703 -0.1591
  292MOL0     H38497   5.617   3.320   0.241 -1.5730 -0.1076 -1.0096
  292MOL0     H38498   5.407   3.237   0.311 -0.1237  0.5246 -1.3358
  292MOL0     H38499   5.392   3.060   0.334  0.3487 -0.3136 -0.1708
  292MOL0     H38500   5.366   3.063   0.066  1.1938  3.3662 -2.2094
  292MOL0     H38501   5.285   3.220   0.104 -2.9596 -0.6740  2.2037
  292MOL0     H38502   5.195   2.969   0.233  0.4905  1.2175  3.3644
  292MOL0     H38503   5.140   3.133   0.258 -0.2040 -1.1214  0.5098
  292MOL0     H38504   4.976   3.018   0.127  0.4406 -1.3246 -0.7501
  292MOL0     H38505   5.091   2.976   0.004 -0.6726  0.3059 -0.5445
  292MOL0     H38506   4.899   2.970  -0.095  2.8428  1.2614 -1.4355
  292MOL0     H38507   4.665   2.971  -0.181  2.4362 -1.7556  1.8593
  292MOL0     H38508   4.440   3.453  -0.511 -0.0860  0.2526  1.5515
  292MOL0     H38509   4.218   3.471  -0.667  1.8175  2.5407  0.2456
  292MOL0     H38510   3.871   3.176  -0.600 -3.8751 -0.4351 -2.4652
  292MOL0     H38511   3.814   3.320  -0.668 -2.2847 -1.3659  0.5818
  292MOL0     H38512   3.833   3.428  -0.410 -1.0565 -0.5143  2.3514
  292MOL0     H38513   3.825   3.254  -0.381  0.6381 -0.9400 -1.0970
  292MOL0     H38514   3.635   3.445  -0.519 -0.1983 -1.4987 -1.8459
  292MOL0     H38515   3.608   3.344  -0.377 -3.9040  0.1514 -1.1806
  292MOL0     H38516   3.597   3.241  -0.672  0.8871 -0.1438 -0.4304
  292MOL0     H38517   3.636   3.145  -0.528  1.6393  0.4264 -1.0562
  292MOL0     H38518   3.405   3.139  -0.584 -0.0580 -0.6423  1.2832
  292MOL0     H38519   3.391   3.314  -0.598  0.4254 -0.5057  0.2989
  292MOL0     H38520   3.378   3.327  -0.349  1.4323  1.3762 -2.7395
  292MOL0     H38521   3.451   3.171  -0.330 -0.3034 -1.8241 -0.9095
  292MOL0     H38522   3.247   3.076  -0.460  0.6334 -0.1326 -0.9214
  292MOL0     H38523   3.204   3.148  -0.301 -4.3355 -0.0974 -1.8220
  292MOL0     H38524   3.147   3.298  -0.553 -1.2679 -3.8516 -2.0224
  292MOL0     H38525   3.144   3.349  -0.383  0.8845  0.5731 -1.0924
  292MOL0     H38526   4.033   3.208  -0.363 -1.9950  2.2632  1.2107
  292MOL0     H38527   4.237   3.188  -0.250  1.7092 -1.7030 -1.4728
  292MOL0     H38528   4.694   3.398  -0.200 -0.9264 -1.6801 -0.6482
  292MOL0     H38529   4.888   3.386  -0.059  1.0934 -0.7241  1.0772
  292MOL0     H38530   6.975   3.580   0.326 -1.9090 -1.5084 -0.8920
  292MOL0     H38531   7.116   3.734   0.194  0.2651 -1.4455  2.0721
  292MOL0     H38532   7.047   4.070  -0.174  0.1103 -0.1155 -0.2983
  292MOL0     H38533   7.142   4.244  -0.299 -0.6684  3.0483  1.8221
  292MOL0     H38534   7.521   4.256  -0.263 -0.8839 -0.6402 -1.4692
  292MOL0     H38535   7.547   4.433  -0.247  1.5597 -0.7654  0.9679
  292MOL0     H38536   7.416   4.305  -0.497  0.1481  0.3479 -0.1304
  292MOL0     H38537   7.457   4.483  -0.466  0.7934 -0.4391 -2.6590
  292MOL0     H38538   7.664   4.266  -0.458  0.8773  1.4499  2.1225
  292MOL0     H38539   7.693   4.428  -0.466  2.0834 -2.5465  1.1153
  292MOL0     H38540   7.549   4.291  -0.707  0.0974 -0.4250  0.7271
  292MOL0     H38541   7.606   4.455  -0.699  0.4140 -0.3466 -0.5460
  292MOL0     H38542   7.952   4.223  -0.790  1.4378  1.9087  0.9292
  292MOL0     H38543   7.431   4.325  -0.013 -0.6655  1.4021 -2.4761
  292MOL0     H38544   7.329   4.170   0.143 -1.6581  2.3035  0.8634
  293MOL0     O38545   2.199   6.170   8.790 -0.5136 -0.2986  0.2870
  293MOL0     C38546   2.246   6.053   8.788  0.5500  0.4261  0.3245
  293MOL0     O38547   2.170   5.940   8.818  0.6848 -0.1993  0.2068
  293MOL0     C38548   2.035   5.962   8.828 -0.2063 -0.1172 -0.2327
  293MOL0     C38549   1.975   5.988   8.952  0.1320  0.8287 -0.1393
  293MOL0     C38550   1.842   6.022   8.968 -0.4123  0.4490 -0.6395
  293MOL0     C38551   1.756   6.012   8.846 -0.3149  0.4462 -0.6715
  293MOL0     O38552   1.616   6.032   8.854  0.2972 -0.4681 -0.1580
  293MOL0     C38553   1.568   6.054   8.987  0.4532  0.3954 -0.4027
  293MOL0     C38554   1.417   6.058   9.006 -0.7008 -0.4402  0.4784
  293MOL0     C38555   1.346   5.925   9.006  0.3431 -0.3424 -0.2890
  293MOL0     C38556   1.372   5.839   8.886 -0.2952  0.3606  0.0661
  293MOL0     C38557   1.290   5.713   8.887  0.6223  0.0170  0.2292
  293MOL0     C38558   1.148   5.744   8.828 -0.3290 -0.8242  0.2069
  293MOL0     C38559   1.048   5.641   8.838 -0.3863  0.0955  0.0040
  293MOL0     C38560   1.087   5.500   8.781  0.0561  0.2464 -0.0200
  293MOL0     N38561   0.974   5.404   8.804  0.0622  0.1329  0.6586
  293MOL0     C38562   0.850   5.386   8.754  0.5300 -0.6326  0.1348
  293MOL0     C38563   0.799   5.270   8.812 -0.2078 -0.1528 -0.0115
  293MOL0     C38564   0.657   5.212   8.800 -0.4950 -0.7979  0.2070
  293MOL0     C38565   0.564   5.297   8.888 -0.0407 -0.7486 -0.0233
  293MOL0     C38566   0.586   5.286   9.040  0.5399 -0.1733 -0.4594
  293MOL0     C38567   0.476   5.344   9.114 -0.0928 -0.4841 -0.1555
  293MOL0     O38568   0.355   5.268   9.080 -0.6530 -0.3926 -0.7986
  293MOL0     C38569   0.236   5.333   9.073  0.0336  0.7261 -0.5474
  293MOL0     C38570   0.186   5.378   9.198  0.1296  0.8244  0.0644
  293MOL0     C38571   0.061   5.433   9.196  1.2984 -0.1033 -0.0878
  293MOL0     C38572  -0.013   5.449   9.077 -0.5119 -0.2783  0.0769
  293MOL0     C38573  -0.134   5.524   9.081 -0.3085  0.5742  0.3676
  293MOL0     O38574  -0.158   5.607   8.969 -0.9336  0.0086 -0.4125
  293MOL0     C38575  -0.288   5.672   8.971 -0.7557  0.4166  0.1848
  293MOL0     C38576  -0.322   5.775   9.069 -0.2766 -0.4784 -0.6468
  293MOL0     C38577  -0.446   5.841   9.055  0.4613 -0.7324  0.3797
  293MOL0     C38578  -0.529   5.826   8.944 -1.0876 -0.6361  0.1017
  293MOL0     O38579  -0.627   5.918   8.941 -0.3853 -0.0632 -0.3067
  293MOL0     C38580  -0.652   5.987   8.816  0.6800  0.0163  0.0106
  293MOL0     C38581  -0.792   5.959   8.761  0.2275  0.4721  0.5040
  293MOL0     C38582  -0.896   5.988   8.866 -0.3419 -0.1669  0.0912
  293MOL0     C38583  -1.037   5.971   8.800 -0.4381 -1.1472 -0.1171
  293MOL0     C38584  -1.138   5.946   8.921  0.1363  0.0825  0.5230
  293MOL0     C38585  -1.286   5.953   8.873  0.7504 -0.1061 -0.7758
  293MOL0     C38586  -1.375   5.911   9.001  0.3365  0.7723 -0.0073
  293MOL0     C38587  -1.527   5.936   8.987 -1.1317  0.6514  0.3107
  293MOL0    Cl38588  -1.623   5.888   9.134 -0.0406 -0.2008  0.5828
  293MOL0     C38589  -0.491   5.735   8.847  0.5815  1.4669 -0.1082
  293MOL0     C38590  -0.373   5.654   8.859 -0.2518  0.0799 -0.5196
  293MOL0     O38591  -0.197   5.531   9.186 -0.0389 -0.0052  0.9866
  293MOL0     C38592   0.040   5.394   8.961  0.0748 -1.0020 -0.2608
  293MOL0     C38593   0.168   5.333   8.956 -0.1387 -0.9778  0.1914
  293MOL0     N38594   0.890   5.233   8.907 -0.0082  0.1573 -0.9574
  293MOL0     N38595   0.991   5.313   8.904 -1.0748 -0.0904  0.2700
  293MOL0     C38596   1.816   5.976   8.727 -1.0912 -0.0355  0.5148
  293MOL0     C38597   1.957   5.955   8.718 -0.1124  0.9829 -0.3796
  293MOL0     C38598   2.389   6.033   8.753  0.1148  0.4418  0.5572
  293MOL0     C38599   2.475   6.143   8.738 -0.3226 -0.1101  0.0086
  293MOL0     C38600   2.611   6.121   8.712 -0.5892 -0.1027 -0.3195
  293MOL0     C38601   2.658   5.993   8.688  0.4735 -0.0834  0.6517
  293MOL0     O38602   2.795   5.982   8.657  0.0347 -0.2412 -1.1167
  293MOL0     C38603   2.851   5.859   8.617  0.8010 -0.7958  0.1773
  293MOL0     C38604   2.980   5.887   8.538  1.0546  0.1500  1.1357
  293MOL0     C38605   3.086   5.954   8.617  0.0580 -1.1669 -0.3213
  293MOL0     C38606   3.072   6.111   8.597  0.1534  0.4155  0.4469
  293MOL0     C38607   3.186   6.183   8.655  0.3065  1.3308 -0.1546
  293MOL0     C38608   3.290   6.236   8.676 -0.7514  0.7454  0.2152
  293MOL0     C38609   2.570   5.882   8.704  0.1214  0.6506  0.2141
  293MOL0     C38610   2.439   5.901   8.758  0.4369 -0.1091  0.4553
  293MOL0     H38611   2.040   5.988   9.039 -2.7297  2.3252  2.1941
  293MOL0     H38612   1.806   6.051   9.066  0.2100 -1.1253  0.0850
  293MOL0     H38613   1.603   6.151   9.023 -1.4407  1.9353 -2.4078
  293MOL0     H38614   1.612   5.974   9.047  0.6245 -0.0156 -1.0705
  293MOL0     H38615   1.382   6.121   8.924  0.8522  0.1788  0.2519
  293MOL0     H38616   1.398   6.103   9.103 -0.8362 -1.4088  0.9128
  293MOL0     H38617   1.237   5.934   9.015  0.4111  1.0193 -0.6331
  293MOL0     H38618   1.374   5.866   9.094 -2.2718 -1.5360 -0.1606
  293MOL0     H38619   1.357   5.896   8.793 -2.6137 -0.7755 -0.3233
  293MOL0     H38620   1.477   5.809   8.894  0.2732  1.7998 -1.2047
  293MOL0     H38621   1.273   5.679   8.990 -1.4568  0.1977  0.0029
  293MOL0     H38622   1.338   5.636   8.827 -1.2765  1.0965 -2.8995
  293MOL0     H38623   1.165   5.789   8.730  1.2840  0.0067  0.8147
  293MOL0     H38624   1.103   5.821   8.891  1.9136  0.4453  0.3694
  293MOL0     H38625   1.007   5.632   8.939 -1.9830  0.3333 -0.5978
  293MOL0     H38626   0.966   5.676   8.775 -0.4709  1.1114  0.6501
  293MOL0     H38627   1.174   5.463   8.837 -0.3635 -1.5549 -0.4840
  293MOL0     H38628   1.123   5.515   8.679  3.2488 -0.3556  0.8930
  293MOL0     H38629   0.810   5.462   8.687  3.2001  1.2271  0.4956
  293MOL0     H38630   0.663   5.104   8.815  3.0677 -1.1373 -2.3011
  293MOL0     H38631   0.637   5.231   8.694 -3.1934 -2.6308  0.3026
  293MOL0     H38632   0.461   5.276   8.859 -0.6875  2.6777 -0.6573
  293MOL0     H38633   0.597   5.399   8.865 -1.0935 -0.2887  0.4331
  293MOL0     H38634   0.581   5.180   9.068 -1.8248 -0.1288 -0.5415
  293MOL0     H38635   0.683   5.329   9.065 -0.0328  0.1492  1.3475
  293MOL0     H38636   0.478   5.451   9.093  1.3707 -1.0599 -3.5794
  293MOL0     H38637   0.494   5.325   9.220  1.4563 -2.9225 -0.7709
  293MOL0     H38638   0.240   5.381   9.292  1.4734  3.7950 -0.6866
  293MOL0     H38639   0.030   5.466   9.295 -0.0189  3.3439 -1.4806
  293MOL0     H38640  -0.249   5.792   9.147  1.2331 -0.7864 -1.9419
  293MOL0     H38641  -0.461   5.926   9.121  0.7228 -0.5069  0.1554
  293MOL0     H38642  -0.575   5.977   8.739  0.6946  1.2367 -0.1524
  293MOL0     H38643  -0.640   6.094   8.837  0.5427 -0.3330  2.0515
  293MOL0     H38644  -0.798   5.854   8.728  1.3847  1.5555 -3.9060
  293MOL0     H38645  -0.806   6.012   8.666  1.2355  1.6040  0.9584
  293MOL0     H38646  -0.888   6.091   8.903  3.1895  0.4046 -1.7915
  293MOL0     H38647  -0.889   5.920   8.952  1.4486 -1.1583 -0.7788
  293MOL0     H38648  -1.069   6.060   8.746 -2.4467  0.2290  3.0637
  293MOL0     H38649  -1.044   5.889   8.727  0.4097  0.4381 -2.0986
  293MOL0     H38650  -1.121   6.027   8.993  3.2685 -0.1676  0.1875
  293MOL0     H38651  -1.109   5.851   8.964 -1.5060  0.0470  1.6566
  293MOL0     H38652  -1.300   5.892   8.783 -1.9624  0.2423 -0.6628
  293MOL0     H38653  -1.315   6.051   8.835 -1.1447  1.0746  3.1554
  293MOL0     H38654  -1.353   5.805   9.016  2.1097  0.3775 -4.0715
  293MOL0     H38655  -1.337   5.973   9.083  0.7739  3.0001 -1.7936
  293MOL0     H38656  -1.550   5.884   8.894 -3.2427  4.2690 -1.3907
  293MOL0     H38657  -1.549   6.042   8.970 -1.5695  0.2773 -1.6522
  293MOL0     H38658  -0.561   5.721   8.765 -0.8500 -2.8189  1.5831
  293MOL0     H38659  -0.340   5.596   8.774 -0.0253  1.5371 -1.4651
  293MOL0     H38660  -0.025   5.398   8.874  2.5883 -2.3264 -2.3098
  293MOL0     H38661   0.212   5.285   8.869 -0.4142  0.1826 -0.6165
  293MOL0     H38662   1.745   5.954   8.648 -1.0825 -2.1326  1.0436
  293MOL0     H38663   2.003   5.931   8.623  2.5913 -0.0286  1.0851
  293MOL0     H38664   2.440   6.245   8.744 -0.3339 -0.1012 -0.2142
  293MOL0     H38665   2.688   6.197   8.714 -0.0891 -0.6026 -0.4585
  293MOL0     H38666   2.789   5.800   8.549 -1.0394  1.0310  0.1502
  293MOL0     H38667   2.867   5.794   8.703 -0.8047 -2.9940 -1.0800
  293MOL0     H38668   3.022   5.790   8.507 -1.2038 -2.0223  4.1926
  293MOL0     H38669   2.961   5.939   8.444  0.7521 -2.7062 -0.5087
  293MOL0     H38670   3.178   5.921   8.569  1.0347  0.4234  0.3873
  293MOL0     H38671   3.084   5.922   8.722  2.8330 -2.2581 -0.5329
  293MOL0     H38672   3.085   6.124   8.489  0.8692 -0.7158  0.3806
  293MOL0     H38673   2.982   6.157   8.638 -1.1350 -2.5765  1.1788
  293MOL0     H38674   3.378   6.287   8.710  0.3113  0.3359 -1.7806
  293MOL0     H38675   2.587   5.776   8.688 -0.5285  0.5968 -0.1592
  293MOL0     H38676   2.375   5.816   8.780  0.4590 -0.1351  0.4193
  294MOL0     O38677   0.457   3.797   7.918  0.3687 -0.0547 -0.4092
  294MOL0     C38678   0.491   3.684   7.944 -0.1255 -0.3645 -0.0732
  294MOL0     O38679   0.413   3.573   7.935  0.9551 -0.3698 -0.3422
  294MOL0     C38680   0.283   3.577   7.902 -0.4616 -0.5124 -0.4421
  294MOL0     C38681   0.237   3.519   7.780 -0.1268  1.1550 -0.8514
  294MOL0     C38682   0.103   3.528   7.735  0.0869  0.8502 -0.4682
  294MOL0     C38683   0.012   3.608   7.806 -0.4161  0.8999  1.0374
  294MOL0     O38684  -0.117   3.613   7.758  0.1513  0.3942 -0.0607
  294MOL0     C38685  -0.181   3.733   7.803 -0.0814 -0.4384 -0.5110
  294MOL0     C38686  -0.327   3.744   7.749  0.3464 -0.8316 -0.2587
  294MOL0     C38687  -0.370   3.888   7.781  0.5296  0.1247 -0.0278
  294MOL0     C38688  -0.505   3.923   7.719 -1.1572 -0.8516 -0.6161
  294MOL0     C38689  -0.491   3.954   7.567  0.3054  0.0179 -0.0388
  294MOL0     C38690  -0.620   4.025   7.510  0.0820 -0.0055  0.6877
  294MOL0     C38691  -0.601   4.050   7.358 -0.2232 -0.6424  0.2533
  294MOL0     C38692  -0.716   4.131   7.295 -0.1689 -0.6568  0.2104
  294MOL0     N38693  -0.686   4.262   7.322  0.0800  0.3393 -0.4316
  294MOL0     C38694  -0.766   4.343   7.394  0.0425 -0.2478 -0.3109
  294MOL0     C38695  -0.691   4.462   7.404 -1.0343 -0.9201  0.5548
  294MOL0     C38696  -0.738   4.584   7.471  0.1364  0.3602 -0.2192
  294MOL0     C38697  -0.893   4.592   7.480  0.1049 -1.8085 -0.3653
  294MOL0     C38698  -0.919   4.737   7.535 -0.0781  0.5654  0.0039
  294MOL0     C38699  -1.076   4.766   7.564 -0.7052  0.8330  0.1910
  294MOL0     O38700  -1.122   4.665   7.646  0.6331  0.0471 -0.2077
  294MOL0     C38701  -1.249   4.682   7.708 -0.3026  1.0182  0.5294
  294MOL0     C38702  -1.353   4.755   7.665  0.3824  0.5882  0.4591
  294MOL0     C38703  -1.475   4.747   7.719 -0.3427 -0.3125  0.6401
  294MOL0     C38704  -1.497   4.676   7.837  0.6717 -0.9718 -1.1993
  294MOL0     C38705  -1.630   4.683   7.907  0.1517  0.6949 -0.1222
  294MOL0     O38706  -1.729   4.743   7.849  0.6041 -0.9214 -0.5405
  294MOL0     C38707  -1.861   4.744   7.882 -0.9155 -0.0067  0.5907
  294MOL0     C38708  -1.917   4.873   7.871 -0.2455  0.6862 -1.4064
  294MOL0     C38709  -2.053   4.894   7.906 -0.6173 -0.0239  0.6786
  294MOL0     C38710  -2.133   4.787   7.949 -0.0598 -0.4288  0.2791
  294MOL0     O38711  -2.274   4.805   7.967  0.0546  0.0584 -0.7447
  294MOL0     C38712  -2.338   4.719   8.053  0.9858 -0.2848  0.2119
  294MOL0     C38713  -2.483   4.769   8.088 -0.4322  0.9615  0.0104
  294MOL0     C38714  -2.547   4.666   8.177  0.6963 -0.1342  1.3534
  294MOL0     C38715  -2.676   4.712   8.238  0.8357  0.4126 -0.0555
  294MOL0     C38716  -2.803   4.735   8.144  0.5647  0.4504  0.5586
  294MOL0     C38717  -2.868   4.602   8.079 -0.1164  0.0603 -0.1614
  294MOL0     C38718  -2.981   4.638   7.984 -0.1770  0.9283  0.3867
  294MOL0     C38719  -3.090   4.525   7.976 -0.4905 -0.0699  0.0061
  294MOL0    Cl38720  -3.235   4.560   8.084  0.4433 -0.0378 -0.1701
  294MOL0     C38721  -2.076   4.656   7.945 -0.0654  0.0508 -0.2848
  294MOL0     C38722  -1.936   4.633   7.917 -0.0479  0.1806  0.0226
  294MOL0     O38723  -1.641   4.617   8.007  0.2765 -0.7327  0.0480
  294MOL0     C38724  -1.397   4.593   7.880  0.9360 -0.1238 -0.1916
  294MOL0     C38725  -1.275   4.594   7.816 -0.3170 -1.0715  0.4774
  294MOL0     N38726  -0.569   4.451   7.334 -0.1110 -0.0529  0.2819
  294MOL0     N38727  -0.576   4.337   7.284  0.5952  0.4126 -0.1462
  294MOL0     C38728   0.057   3.651   7.937 -0.2761 -0.0618  0.2826
  294MOL0     C38729   0.194   3.643   7.977 -1.5536 -0.6213 -0.0311
  294MOL0     C38730   0.631   3.650   7.979 -0.2596  0.5865 -0.3788
  294MOL0     C38731   0.673   3.521   8.000  0.3661 -0.0116 -0.8866
  294MOL0     C38732   0.808   3.489   8.009  0.6084  0.0675  0.4240
  294MOL0     C38733   0.899   3.595   8.014 -0.9036  1.1250  0.4692
  294MOL0     O38734   1.033   3.572   8.036 -0.3138  0.4054  0.0488
  294MOL0     C38735   1.078   3.449   8.077  0.4626 -0.4791  0.6007
  294MOL0     C38736   1.229   3.469   8.100  0.3858 -0.4956  0.1158
  294MOL0     C38737   1.319   3.463   7.970 -0.2587  0.1417 -0.6802
  294MOL0     C38738   1.474   3.479   8.022  0.2705  0.2086  0.0291
  294MOL0     C38739   1.521   3.360   8.105  0.1697  0.2685  0.0267
  294MOL0     C38740   1.553   3.261   8.170 -0.1934  0.9458  0.7706
  294MOL0     C38741   0.858   3.724   7.998  0.1658 -0.1652  0.9589
  294MOL0     C38742   0.728   3.750   7.970  0.8411  0.1999  0.3286
  294MOL0     H38743   0.306   3.457   7.723  1.3614  1.4180  0.5727
  294MOL0     H38744   0.075   3.473   7.646  0.6938  0.0758 -0.1966
  294MOL0     H38745  -0.123   3.821   7.778 -0.6682  0.7715  2.1043
  294MOL0     H38746  -0.189   3.738   7.912 -2.5101 -1.8637 -0.5427
  294MOL0     H38747  -0.389   3.665   7.792  4.2507 -3.7158  0.7023
  294MOL0     H38748  -0.340   3.727   7.642 -1.5747  1.4258 -0.4576
  294MOL0     H38749  -0.290   3.957   7.751 -0.6360  1.4742 -0.1606
  294MOL0     H38750  -0.392   3.898   7.888 -2.2267  1.8125 -0.6513
  294MOL0     H38751  -0.587   3.854   7.741 -0.7227 -0.4640  2.7743
  294MOL0     H38752  -0.524   4.019   7.767  2.0405  0.1591 -1.1304
  294MOL0     H38753  -0.473   3.859   7.516  0.6604 -0.1564  0.3986
  294MOL0     H38754  -0.406   4.017   7.539  0.0847  0.8632  1.1407
  294MOL0     H38755  -0.633   4.120   7.563 -1.8800  0.2024 -0.0716
  294MOL0     H38756  -0.713   3.967   7.516  0.7900 -1.0347  2.3764
  294MOL0     H38757  -0.511   4.113   7.352 -2.4440  2.7029 -0.4516
  294MOL0     H38758  -0.588   3.951   7.313  1.2892 -0.4891  0.2759
  294MOL0     H38759  -0.813   4.094   7.331  0.4315  1.4120  4.5297
  294MOL0     H38760  -0.711   4.127   7.186  0.0628 -0.2576  0.2054
  294MOL0     H38761  -0.865   4.326   7.434 -0.7261  0.7171 -1.7535
  294MOL0     H38762  -0.706   4.672   7.414  0.6534 -0.4626 -1.2088
  294MOL0     H38763  -0.696   4.589   7.572  1.9033  1.1188 -0.9502
  294MOL0     H38764  -0.932   4.517   7.549  1.1315  0.0244  2.3745
  294MOL0     H38765  -0.936   4.582   7.380 -0.7512 -0.1380 -0.1880
  294MOL0     H38766  -0.866   4.752   7.629  0.6403 -0.8998 -0.1552
  294MOL0     H38767  -0.894   4.824   7.473  0.4291  0.8681  0.6259
  294MOL0     H38768  -1.142   4.773   7.477 -3.3093 -2.3718  1.6580
  294MOL0     H38769  -1.087   4.855   7.626 -1.1913  0.5222  0.5625
  294MOL0     H38770  -1.341   4.807   7.570 -1.6314  0.4260  0.0668
  294MOL0     H38771  -1.554   4.792   7.661 -2.4071 -2.8140  1.2949
  294MOL0     H38772  -1.856   4.954   7.833  0.6282 -0.3096 -2.1815
  294MOL0     H38773  -2.107   4.987   7.894  0.0260  0.2999  0.3012
  294MOL0     H38774  -2.280   4.684   8.140 -1.3060 -1.3207  1.4197
  294MOL0     H38775  -2.344   4.624   7.999  1.6225 -1.0456  1.4174
  294MOL0     H38776  -2.532   4.765   7.990  1.9562  2.7637 -1.3664
  294MOL0     H38777  -2.484   4.860   8.147 -1.4046 -1.1663  3.5550
  294MOL0     H38778  -2.479   4.635   8.257  2.0714 -1.7542 -0.3312
  294MOL0     H38779  -2.574   4.572   8.127 -1.8618 -0.4733  3.1585
  294MOL0     H38780  -2.705   4.631   8.306  1.8193  0.8066  0.8493
  294MOL0     H38781  -2.661   4.798   8.304  0.7818  1.5058 -1.4257
  294MOL0     H38782  -2.784   4.805   8.062 -4.3827  1.5153  0.0070
  294MOL0     H38783  -2.889   4.778   8.196  0.4805 -0.7156  1.4325
  294MOL0     H38784  -2.913   4.533   8.151  0.9649 -0.0889  0.3963
  294MOL0     H38785  -2.784   4.556   8.027  0.0747  0.7873 -0.5169
  294MOL0     H38786  -3.027   4.734   8.010  1.1023  1.5553  0.4625
  294MOL0     H38787  -2.929   4.643   7.888 -0.9203  0.9951 -0.0189
  294MOL0     H38788  -3.046   4.431   8.010  0.7697 -0.1015 -1.5876
  294MOL0     H38789  -3.133   4.527   7.875  0.2500  0.6526 -0.3113
  294MOL0     H38790  -2.143   4.579   7.981  0.6430  0.5354  2.2009
  294MOL0     H38791  -1.886   4.537   7.931  0.4528  0.6714  1.8667
  294MOL0     H38792  -1.424   4.523   7.958 -2.7872 -0.1544 -1.3128
  294MOL0     H38793  -1.193   4.533   7.853  0.4430 -0.4029 -0.0859
  294MOL0     H38794  -0.016   3.697   8.003 -3.0082 -0.1500 -2.4967
  294MOL0     H38795   0.237   3.679   8.070 -1.5059  0.5929 -0.4964
  294MOL0     H38796   0.603   3.438   7.991 -1.4839  1.3619  0.0686
  294MOL0     H38797   0.832   3.384   8.020  0.0506 -0.0142  0.9121
  294MOL0     H38798   1.061   3.372   8.001 -1.8209  1.6012 -1.1486
  294MOL0     H38799   1.017   3.424   8.165 -2.4505  2.4103 -0.4241
  294MOL0     H38800   1.236   3.569   8.144 -4.1833  0.6285 -1.1620
  294MOL0     H38801   1.254   3.391   8.172 -0.5010  0.1731  1.1778
  294MOL0     H38802   1.290   3.554   7.917  1.4818  1.1982  0.1125
  294MOL0     H38803   1.300   3.372   7.912 -0.2767 -1.5336  1.7751
  294MOL0     H38804   1.525   3.475   7.926  1.5140  0.4943  0.6501
  294MOL0     H38805   1.482   3.578   8.068 -0.7096  0.0186  0.6508
  294MOL0     H38806   1.567   3.166   8.217 -1.7003 -0.6725 -1.8116
  294MOL0     H38807   0.927   3.807   7.993  1.5733 -1.3481 -2.1974
  294MOL0     H38808   0.704   3.856   7.963 -1.2087 -0.2567 -0.2910
  295MOL0     O38809   9.584   1.782   6.605  0.1125  0.1936  0.7251
  295MOL0     C38810   9.615   1.834   6.497 -0.0226 -0.0348 -0.8090
  295MOL0     O38811   9.614   1.767   6.377 -0.3740  0.5350 -0.6516
  295MOL0     C38812   9.577   1.629   6.366 -0.6863 -0.1139  0.6369
  295MOL0     C38813   9.441   1.603   6.363  0.0935 -0.4786 -0.7145
  295MOL0     C38814   9.401   1.475   6.322 -1.1908  0.8162 -0.0500
  295MOL0     C38815   9.491   1.377   6.287 -0.3131  0.0736  0.6037
  295MOL0     O38816   9.436   1.266   6.226  0.1740  0.3313 -0.2473
  295MOL0     C38817   9.510   1.152   6.201 -0.3293  0.8442 -0.4407
  295MOL0     C38818   9.425   1.031   6.216  1.0008 -0.2788  0.8485
  295MOL0     C38819   9.298   1.035   6.130  0.7154 -0.1779  0.2227
  295MOL0     C38820   9.221   0.900   6.122 -0.8838 -0.0133 -0.0100
  295MOL0     C38821   9.099   0.909   6.035 -0.3331 -0.5174  0.5639
  295MOL0     C38822   9.032   0.761   6.017 -0.8055 -0.3708 -0.1903
  295MOL0     C38823   8.983   0.694   6.143 -0.5399 -0.3313 -0.1451
  295MOL0     C38824   8.911   0.558   6.105  0.8718 -0.4269 -0.4252
  295MOL0     N38825   9.005   0.452   6.070 -0.6328  0.0088 -0.3956
  295MOL0     C38826   9.082   0.438   5.955 -0.8021 -0.0405  0.6451
  295MOL0     C38827   9.150   0.321   5.969  1.7673  0.0801  0.2729
  295MOL0     C38828   9.245   0.270   5.866 -0.8381 -0.1448  0.7485
  295MOL0     C38829   9.242   0.119   5.854  0.4700 -0.0392 -0.5751
  295MOL0     C38830   9.360   0.051   5.931  0.1786  0.6013  0.3347
  295MOL0     C38831   9.346  -0.109   5.921 -0.0488  0.7700 -1.0063
  295MOL0     O38832   9.444  -0.174   6.006 -0.5327  0.4720  0.5681
  295MOL0     C38833   9.573  -0.195   5.946  1.2269  0.4654 -0.9020
  295MOL0     C38834   9.649  -0.295   6.014 -0.1720 -0.4375  0.4851
  295MOL0     C38835   9.780  -0.314   5.965  0.6189 -0.2826 -0.1491
  295MOL0     C38836   9.834  -0.252   5.853 -0.4085  0.8916  0.1822
  295MOL0     C38837   9.965  -0.297   5.797 -0.2429 -0.3509 -0.3965
  295MOL0     O38838  10.037  -0.396   5.871  0.2594 -0.0568  0.5888
  295MOL0     C38839  10.154  -0.459   5.835  0.5544 -0.1332  1.1062
  295MOL0     C38840  10.215  -0.444   5.712 -0.8524 -0.3780  0.1648
  295MOL0     C38841  10.306  -0.546   5.668  0.4644 -0.5472 -0.2751
  295MOL0     C38842  10.354  -0.647   5.755  0.3789 -0.8261  0.9959
  295MOL0     O38843  10.437  -0.748   5.709 -0.5154 -0.0714 -0.0121
  295MOL0     C38844  10.508  -0.819   5.815  0.3533 -0.7862 -0.1975
  295MOL0     C38845  10.627  -0.900   5.749  0.0346 -0.2769 -0.1992
  295MOL0     C38846  10.686  -0.970   5.867 -0.0073 -0.8538  0.2209
  295MOL0     C38847  10.822  -1.023   5.821  0.6501 -0.4941 -0.9026
  295MOL0     C38848  10.814  -1.139   5.727 -1.0429 -0.8122  0.5975
  295MOL0     C38849  10.932  -1.225   5.739  0.4425 -0.1305  0.0972
  295MOL0     C38850  11.069  -1.174   5.710 -0.0601  0.4551  0.3667
  295MOL0     C38851  11.166  -1.289   5.684  0.5237 -0.0440  0.4978
  295MOL0    Cl38852  11.257  -1.381   5.806  0.0801  0.3181 -0.2287
  295MOL0     C38853  10.287  -0.659   5.873  0.5680 -0.2044  0.2250
  295MOL0     C38854  10.200  -0.565   5.914  0.9264 -0.1846  0.4853
  295MOL0     O38855  10.006  -0.238   5.694  0.8750  0.1192 -0.1923
  295MOL0     C38856   9.753  -0.161   5.790  0.6138  0.6505 -0.8550
  295MOL0     C38857   9.619  -0.131   5.834  0.8574 -0.9380 -0.0841
  295MOL0     N38858   9.120   0.268   6.096  0.7943 -0.0328 -0.4606
  295MOL0     N38859   9.031   0.346   6.148 -0.0592 -0.0185  0.0628
  295MOL0     C38860   9.630   1.407   6.296  0.3266 -0.2444 -0.2059
  295MOL0     C38861   9.674   1.534   6.331  0.6139 -0.3973 -1.0371
  295MOL0     C38862   9.649   1.978   6.496 -0.0466 -0.0962 -0.8127
  295MOL0     C38863   9.644   2.049   6.625  0.3445 -1.3824  0.0678
  295MOL0     C38864   9.677   2.185   6.616 -1.1971  0.4248 -0.0664
  295MOL0     C38865   9.747   2.241   6.505 -0.0764  0.1261 -0.9718
  295MOL0     O38866   9.794   2.374   6.516 -0.7238  0.1516 -0.4557
  295MOL0     C38867   9.839   2.448   6.398 -0.4962  0.2372 -0.5926
  295MOL0     C38868   9.890   2.594   6.400  0.1952  0.1992 -0.2747
  295MOL0     C38869   9.798   2.673   6.489  0.4191  0.0999  0.5415
  295MOL0     C38870   9.830   2.830   6.474 -0.0533  0.2866 -0.1464
  295MOL0     C38871   9.743   2.908   6.566  0.9529 -0.4296 -0.3050
  295MOL0     C38872   9.649   2.972   6.619 -0.0640  0.9609 -0.0206
  295MOL0     C38873   9.763   2.159   6.391  0.8256 -1.0532 -0.2600
  295MOL0     C38874   9.719   2.028   6.390 -0.5457  0.0337  0.8355
  295MOL0     H38875   9.368   1.680   6.384  1.6545  0.7508  0.3665
  295MOL0     H38876   9.299   1.439   6.334 -2.6829  3.6878 -2.7474
  295MOL0     H38877   9.598   1.147   6.267  1.2137  0.2147 -2.4323
  295MOL0     H38878   9.548   1.157   6.098 -0.2309 -0.4095 -0.4815
  295MOL0     H38879   9.386   1.012   6.316 -1.0449  1.8707  0.5506
  295MOL0     H38880   9.482   0.949   6.172  0.6495  1.5403 -3.5061
  295MOL0     H38881   9.325   1.066   6.029 -2.0176  2.4760  0.1202
  295MOL0     H38882   9.226   1.109   6.169 -1.1776  0.0894 -3.3775
  295MOL0     H38883   9.293   0.822   6.100 -1.1716 -1.5751  3.7520
  295MOL0     H38884   9.187   0.886   6.225  2.2406  0.7121  1.2301
  295MOL0     H38885   9.123   0.951   5.937 -0.8480 -0.3295  0.5195
  295MOL0     H38886   9.030   0.976   6.087  0.1439  1.0258 -0.7139
  295MOL0     H38887   9.098   0.691   5.965  0.6215 -1.4810  2.9285
  295MOL0     H38888   8.942   0.771   5.954 -1.7278 -1.6431  0.8817
  295MOL0     H38889   9.072   0.668   6.202 -0.8305 -1.4731 -0.1860
  295MOL0     H38890   8.917   0.761   6.199  0.2658  0.3310  0.0281
  295MOL0     H38891   8.840   0.574   6.023  0.7842 -1.8583 -0.6516
  295MOL0     H38892   8.848   0.521   6.186  1.5027 -0.2431  0.1496
  295MOL0     H38893   9.080   0.504   5.868 -3.6126  0.4468  0.9682
  295MOL0     H38894   9.343   0.317   5.871 -0.5671 -0.6125 -0.0554
  295MOL0     H38895   9.217   0.308   5.767 -0.7867  0.2397  0.8800
  295MOL0     H38896   9.260   0.093   5.749  2.6534  1.4769 -0.6373
  295MOL0     H38897   9.145   0.079   5.882 -0.9112  0.8821 -3.5734
  295MOL0     H38898   9.453   0.100   5.901  0.2589  1.5550  1.9756
  295MOL0     H38899   9.352   0.059   6.040 -1.1873  0.6242  0.2524
  295MOL0     H38900   9.360  -0.148   5.820  3.4210  1.3191 -0.8527
  295MOL0     H38901   9.247  -0.128   5.964  0.2480 -3.3102 -1.7997
  295MOL0     H38902   9.607  -0.357   6.092 -0.8814 -1.3190 -0.5675
  295MOL0     H38903   9.843  -0.390   6.012 -0.7921 -2.6434 -1.8360
  295MOL0     H38904  10.203  -0.359   5.645  0.6514  0.6831  1.1730
  295MOL0     H38905  10.350  -0.543   5.568 -1.0840 -3.4801 -1.1735
  295MOL0     H38906  10.440  -0.885   5.869 -3.8126  1.1157 -2.5806
  295MOL0     H38907  10.546  -0.747   5.888 -1.7245 -0.0089  0.1988
  295MOL0     H38908  10.686  -0.821   5.701  1.4027 -0.4193  1.1480
  295MOL0     H38909  10.605  -0.974   5.672  1.6561  0.0151 -1.0018
  295MOL0     H38910  10.636  -1.054   5.917  1.9929 -2.0064  0.4014
  295MOL0     H38911  10.701  -0.897   5.947  4.0117 -0.3877 -0.7485
  295MOL0     H38912  10.892  -0.948   5.783  0.0725  0.3774 -0.2845
  295MOL0     H38913  10.862  -1.056   5.917 -0.9679 -1.8370 -0.6397
  295MOL0     H38914  10.776  -1.124   5.626  1.1541  1.2043 -0.0174
  295MOL0     H38915  10.727  -1.195   5.761 -1.1228 -1.9366 -1.3174
  295MOL0     H38916  10.916  -1.316   5.682  1.7194 -0.9278  0.9461
  295MOL0     H38917  10.940  -1.251   5.845  2.7507 -0.7027 -0.1665
  295MOL0     H38918  11.064  -1.111   5.621  0.2608  2.2273  1.5365
  295MOL0     H38919  11.116  -1.107   5.783 -1.2624 -0.4313  2.0057
  295MOL0     H38920  11.243  -1.241   5.622 -2.2663  3.0627 -0.9102
  295MOL0     H38921  11.120  -1.366   5.621  2.7209 -0.6755 -0.4577
  295MOL0     H38922  10.289  -0.756   5.922  4.0503 -0.3939 -0.0517
  295MOL0     H38923  10.147  -0.595   6.004  1.1922 -1.1825  0.3150
  295MOL0     H38924   9.786  -0.111   5.700  0.4901  1.7352 -0.3225
  295MOL0     H38925   9.549  -0.080   5.768 -0.6938 -3.9478 -0.9565
  295MOL0     H38926   9.709   1.338   6.269  1.6837  1.2966 -0.2990
  295MOL0     H38927   9.776   1.571   6.326  0.8491 -0.9072 -0.1612
  295MOL0     H38928   9.601   2.020   6.720 -0.0172  3.5683  1.7315
  295MOL0     H38929   9.654   2.257   6.693  0.8900  1.0587  0.0332
  295MOL0     H38930   9.751   2.454   6.334  1.4747  1.7481 -3.3976
  295MOL0     H38931   9.926   2.394   6.361  0.4807  2.3572 -1.5896
  295MOL0     H38932   9.994   2.584   6.431 -0.2862  0.6415  1.5700
  295MOL0     H38933   9.880   2.630   6.297 -0.9568  2.8054  0.6604
  295MOL0     H38934   9.830   2.649   6.590  1.3977  0.2259  0.2724
  295MOL0     H38935   9.697   2.647   6.455  0.1165 -1.7268  2.6184
  295MOL0     H38936   9.935   2.855   6.491  0.2865  0.6736 -2.5254
  295MOL0     H38937   9.805   2.868   6.375  1.9573  1.3875 -0.2676
  295MOL0     H38938   9.565   3.009   6.674 -0.2937 -1.6338  1.5435
  295MOL0     H38939   9.819   2.203   6.308  1.3741 -0.8141  0.2321
  295MOL0     H38940   9.733   1.970   6.299 -2.1994  2.6355 -1.2347
  296MOL0     O38941  10.185   4.675  11.223 -0.0889 -0.1912  0.7116
  296MOL0     C38942  10.285   4.606  11.237 -0.5374  0.9762  0.0293
  296MOL0     O38943  10.422   4.644  11.207 -0.3042  0.6710 -0.6830
  296MOL0     C38944  10.450   4.753  11.123  0.0352  0.7358  1.1391
  296MOL0     C38945  10.575   4.815  11.141  0.3992  0.0758 -0.4376
  296MOL0     C38946  10.630   4.913  11.058 -0.3585  1.0449  0.1893
  296MOL0     C38947  10.548   4.971  10.960  0.2791  0.2088 -0.3762
  296MOL0     O38948  10.605   5.065  10.882  0.2246  0.0923  0.5757
  296MOL0     C38949  10.521   5.138  10.789 -0.0618  0.0613  0.2779
  296MOL0     C38950  10.599   5.259  10.745  1.0181  0.3560  0.0297
  296MOL0     C38951  10.622   5.361  10.865  0.7542  0.7638  0.8507
  296MOL0     C38952  10.705   5.476  10.806  0.2702 -0.1029  0.3267
  296MOL0     C38953  10.691   5.601  10.895  0.1755 -0.7750 -0.2279
  296MOL0     C38954  10.799   5.717  10.867  0.2324 -0.3536  0.1510
  296MOL0     C38955  10.943   5.667  10.885 -0.1477  0.0692  0.1227
  296MOL0     C38956  11.042   5.785  10.867 -0.0753  0.8763  0.4561
  296MOL0     N38957  11.034   5.846  10.737  0.1853 -0.6421 -0.6630
  296MOL0     C38958  11.057   5.786  10.619  0.2432 -0.7718  0.2175
  296MOL0     C38959  11.015   5.875  10.525  0.5768  0.3760 -0.5299
  296MOL0     C38960  11.026   5.857  10.370  0.4346  0.4831 -0.2077
  296MOL0     C38961  10.924   5.754  10.315 -0.1919  0.1399  0.5749
  296MOL0     C38962  10.781   5.787  10.362 -0.1011 -0.3094  0.3354
  296MOL0     C38963  10.739   5.934  10.329  0.6017 -0.6111  0.7455
  296MOL0     O38964  10.602   5.940  10.300  0.7757  0.2664 -0.3333
  296MOL0     C38965  10.523   5.893  10.410  0.3055 -0.8377 -0.7090
  296MOL0     C38966  10.403   5.828  10.383  0.2968  0.1075 -0.6785
  296MOL0     C38967  10.313   5.795  10.480  0.1693  0.2775 -0.4810
  296MOL0     C38968  10.339   5.826  10.616 -0.8799  1.3000  1.2354
  296MOL0     C38969  10.251   5.781  10.731 -0.0346 -0.0854  0.4725
  296MOL0     O38970  10.294   5.795  10.855  0.5518 -0.9171 -0.8283
  296MOL0     C38971  10.223   5.748  10.957 -0.4133 -0.8923 -0.5459
  296MOL0     C38972  10.290   5.672  11.054 -0.0373  0.8077  0.1164
  296MOL0     C38973  10.222   5.627  11.166 -0.2981 -0.1956  0.1561
  296MOL0     C38974  10.089   5.667  11.200  0.2281  0.6434 -0.4978
  296MOL0     O38975  10.037   5.613  11.318 -0.0936  0.2643  0.3481
  296MOL0     C38976   9.936   5.692  11.373  0.2479  0.3944 -0.7339
  296MOL0     C38977   9.937   5.682  11.526 -0.3629  0.4150  0.0256
  296MOL0     C38978   9.823   5.758  11.601  0.2839  0.4360  0.3582
  296MOL0     C38979   9.831   5.751  11.756 -0.0445 -0.5215  1.1407
  296MOL0     C38980   9.958   5.831  11.799  0.3233 -0.2405  0.0099
  296MOL0     C38981   9.956   5.855  11.943 -0.8188  0.4916 -0.2215
  296MOL0     C38982   9.864   5.975  11.991  0.7894 -0.3686 -0.1779
  296MOL0     C38983   9.888   6.006  12.133 -0.4954 -0.1028 -0.4721
  296MOL0    Cl38984   9.792   6.148  12.187  0.2959  0.2606  0.3510
  296MOL0     C38985  10.027   5.737  11.096  0.3485 -1.0255 -0.0392
  296MOL0     C38986  10.093   5.789  10.984 -1.3470 -0.2468 -0.2499
  296MOL0     O38987  10.148   5.731  10.698 -0.5475 -0.3791 -0.6664
  296MOL0     C38988  10.455   5.899  10.645 -0.4792  0.0104  0.3048
  296MOL0     C38989  10.553   5.923  10.545 -0.3875 -0.6151  0.2540
  296MOL0     N38990  10.972   5.990  10.593 -0.3537 -0.7307  0.9997
  296MOL0     N38991  10.982   5.973  10.716 -1.3794 -0.1047  1.1598
  296MOL0     C38992  10.425   4.910  10.939  0.2003 -0.4111  0.1198
  296MOL0     C38993  10.375   4.801  11.012 -0.2437 -0.1025 -0.5562
  296MOL0     C38994  10.253   4.473  11.292  0.1690 -0.4227 -0.6732
  296MOL0     C38995  10.354   4.397  11.350 -0.5563  0.1622 -0.1103
  296MOL0     C38996  10.331   4.277  11.409  0.4647 -0.2562 -0.4945
  296MOL0     C38997  10.202   4.218  11.406  0.0829 -0.0890 -0.3248
  296MOL0     O38998  10.199   4.099  11.472 -0.6707 -0.1944 -0.0447
  296MOL0     C38999  10.114   3.996  11.430  0.2554  0.7741 -0.6404
  296MOL0     C39000  10.209   3.878  11.394 -0.1013 -0.1815  0.0218
  296MOL0     C39001  10.305   3.834  11.499 -0.5869  0.8524  0.7052
  296MOL0     C39002  10.416   3.730  11.454  0.4373  1.0861 -0.2803
  296MOL0     C39003  10.366   3.606  11.401 -0.3312  0.9151  0.6830
  296MOL0     C39004  10.307   3.496  11.369 -0.0613 -0.4298 -0.0224
  296MOL0     C39005  10.102   4.289  11.346  0.1875  0.0016  0.2490
  296MOL0     C39006  10.126   4.412  11.289 -0.6206 -0.3917  0.3753
  296MOL0     H39007  10.630   4.778  11.226  2.9177  0.9252 -1.5954
  296MOL0     H39008  10.730   4.954  11.067 -0.4623  1.2806  0.2746
  296MOL0     H39009  10.426   5.172  10.832  0.5228  1.5031  0.5065
  296MOL0     H39010  10.498   5.082  10.699  1.5494 -1.6044  0.8284
  296MOL0     H39011  10.547   5.318  10.669  1.9546  2.5949  1.0467
  296MOL0     H39012  10.696   5.242  10.697  0.1186  5.0170 -4.2950
  296MOL0     H39013  10.673   5.310  10.947  3.2484  1.7953  0.0591
  296MOL0     H39014  10.526   5.404  10.893 -1.0007 -1.4162 -1.3775
  296MOL0     H39015  10.812   5.454  10.795 -0.1620 -1.2361 -2.4929
  296MOL0     H39016  10.671   5.495  10.704 -1.3553 -1.4388  0.5739
  296MOL0     H39017  10.717   5.565  10.995  0.5948  0.5674  0.1717
  296MOL0     H39018  10.591   5.646  10.903  0.8358  0.3899  2.8638
  296MOL0     H39019  10.797   5.802  10.936 -0.1820 -3.0197  3.7126
  296MOL0     H39020  10.770   5.749  10.767  0.4385 -0.9972 -0.1176
  296MOL0     H39021  10.947   5.637  10.990 -0.2814  0.2965  0.1936
  296MOL0     H39022  10.983   5.592  10.816  3.2142  0.6188  1.2911
  296MOL0     H39023  11.143   5.747  10.889 -0.1472  0.5560  0.2467
  296MOL0     H39024  11.018   5.854  10.948 -2.0051 -1.3319  1.9055
  296MOL0     H39025  11.087   5.683  10.598  2.5747 -0.8270  3.0928
  296MOL0     H39026  11.128   5.822  10.354 -0.2827 -1.7096 -0.3716
  296MOL0     H39027  11.009   5.960  10.337 -1.3726  0.6672  1.1290
  296MOL0     H39028  10.955   5.657  10.355  1.9198  0.6413  0.2848
  296MOL0     H39029  10.932   5.748  10.206  3.1872  2.6439  0.5363
  296MOL0     H39030  10.718   5.716  10.307  0.4923  0.2266 -1.0881
  296MOL0     H39031  10.768   5.768  10.469  0.4361  2.2499  0.9100
  296MOL0     H39032  10.788   5.948  10.232  0.8388  0.8916  1.0563
  296MOL0     H39033  10.784   6.002  10.401 -0.6479  0.5882  0.4477
  296MOL0     H39034  10.378   5.829  10.278  3.2205 -0.0817 -1.4818
  296MOL0     H39035  10.215   5.752  10.461 -0.6844  0.8514  2.2066
  296MOL0     H39036  10.392   5.637  11.044 -0.5977 -1.3100  1.2218
  296MOL0     H39037  10.284   5.579  11.242 -0.5142  2.7177  2.3606
  296MOL0     H39038   9.843   5.644  11.341  1.7298 -2.0362 -1.6607
  296MOL0     H39039   9.945   5.795  11.337  0.8608 -0.0205 -1.8107
  296MOL0     H39040  10.037   5.709  11.562  0.0265 -0.8186 -0.0841
  296MOL0     H39041   9.931   5.575  11.547  0.9006  0.4498  0.6926
  296MOL0     H39042   9.740   5.696  11.566 -0.0027  0.8993  0.2087
  296MOL0     H39043   9.807   5.852  11.548  2.0777 -0.4775 -1.9962
  296MOL0     H39044   9.737   5.802  11.781 -0.4659 -0.3952 -0.5952
  296MOL0     H39045   9.828   5.649  11.794 -0.0934 -1.4061 -1.1128
  296MOL0     H39046   9.979   5.928  11.754  0.5759  1.1667  2.9102
  296MOL0     H39047  10.040   5.760  11.783 -0.1344 -0.7203 -0.2302
  296MOL0     H39048  10.055   5.889  11.974  0.1149 -3.9319  2.4985
  296MOL0     H39049   9.932   5.766  12.003 -1.6069  0.1467 -1.0209
  296MOL0     H39050   9.892   6.060  11.928 -3.0660 -0.7493 -2.7495
  296MOL0     H39051   9.757   5.950  11.981  0.3034  1.1569  0.8775
  296MOL0     H39052   9.994   6.021  12.151 -0.6797 -0.7164  1.2987
  296MOL0     H39053   9.858   5.923  12.197 -0.4273 -2.3080 -3.1063
  296MOL0     H39054   9.921   5.758  11.107 -0.0758 -0.1353 -3.9809
  296MOL0     H39055  10.045   5.843  10.903 -0.5132  1.6390  0.4387
  296MOL0     H39056  10.484   5.932  10.744 -0.3068  2.4732 -0.4896
  296MOL0     H39057  10.638   5.987  10.567 -0.9213 -0.2388  1.2415
  296MOL0     H39058  10.360   4.943  10.858 -2.1610 -2.0513  1.2123
  296MOL0     H39059  10.278   4.754  11.000 -0.4483  0.3012 -0.5276
  296MOL0     H39060  10.456   4.431  11.339 -0.6261 -0.1819 -2.4137
  296MOL0     H39061  10.409   4.236  11.471 -0.4800  2.5740  2.9146
  296MOL0     H39062  10.071   4.010  11.330 -0.0846  1.2291 -0.4303
  296MOL0     H39063  10.044   3.961  11.506  2.6084 -2.9977  0.0800
  296MOL0     H39064  10.152   3.798  11.346  0.4960 -1.3035  1.1197
  296MOL0     H39065  10.271   3.890  11.305 -0.1034 -0.6040 -0.0388
  296MOL0     H39066  10.245   3.782  11.574 -1.9210 -0.1079 -0.9663
  296MOL0     H39067  10.359   3.914  11.550  1.4280 -1.2049  1.9794
  296MOL0     H39068  10.482   3.764  11.374  1.7502 -2.0600 -0.6765
  296MOL0     H39069  10.476   3.706  11.542 -0.6646  1.2501  0.5408
  296MOL0     H39070  10.259   3.401  11.354  2.8379 -1.9447 -0.4899
  296MOL0     H39071   9.999   4.258  11.357 -0.0580 -1.5221 -4.3919
  296MOL0     H39072  10.046   4.455  11.230  0.7118  2.1702  0.2816
  297MOL0     O39073   0.377   0.714   6.278  0.1567  0.4624 -0.1013
  297MOL0     C39074   0.269   0.669   6.239  0.2329 -0.8620 -0.6262
  297MOL0     O39075   0.249   0.550   6.190  0.4408 -0.0790 -0.5019
  297MOL0     C39076   0.352   0.458   6.169  0.2635  0.6599  1.1074
  297MOL0     C39077   0.468   0.486   6.093 -0.0224  0.6823  0.7846
  297MOL0     C39078   0.578   0.397   6.081  0.4930 -0.6166  0.4245
  297MOL0     C39079   0.568   0.271   6.136  0.2696 -0.3554 -0.3135
  297MOL0     O39080   0.683   0.197   6.120  0.6644  0.0051  0.0098
  297MOL0     C39081   0.698   0.083   6.199  0.2506 -0.3053 -0.2621
  297MOL0     C39082   0.829   0.013   6.161  0.2443 -0.3367 -0.0402
  297MOL0     C39083   0.866  -0.093   6.266  0.3067  0.3177 -0.2710
  297MOL0     C39084   0.948  -0.199   6.203  0.5562 -0.8289  0.0321
  297MOL0     C39085   1.087  -0.145   6.159  0.0323 -0.3894  0.2821
  297MOL0     C39086   1.187  -0.256   6.174  1.1206 -0.2253 -0.2370
  297MOL0     C39087   1.332  -0.214   6.146 -0.2541  0.5073 -0.5200
  297MOL0     C39088   1.349  -0.168   6.003 -0.3906  0.1394  0.2541
  297MOL0     N39089   1.304  -0.267   5.903  0.1426 -0.4397  0.2146
  297MOL0     C39090   1.361  -0.390   5.882 -0.4627  0.5434 -0.0085
  297MOL0     C39091   1.285  -0.442   5.773 -0.5192  0.6075  0.7009
  297MOL0     C39092   1.305  -0.570   5.701 -0.5172 -0.1475 -0.1969
  297MOL0     C39093   1.286  -0.707   5.784  0.9209 -0.6268  0.2652
  297MOL0     C39094   1.353  -0.823   5.722  0.2468 -0.6729  0.2273
  297MOL0     C39095   1.299  -0.953   5.782  1.2639  0.0843  0.6476
  297MOL0     O39096   1.352  -1.072   5.727  0.2395  0.1334 -0.6111
  297MOL0     C39097   1.486  -1.081   5.714 -0.3508  0.7462  0.2220
  297MOL0     C39098   1.566  -1.133   5.819 -0.4493 -0.2073 -0.2490
  297MOL0     C39099   1.706  -1.145   5.803 -0.9754 -0.8661 -0.3479
  297MOL0     C39100   1.773  -1.114   5.678 -0.1065  0.1317  0.5475
  297MOL0     C39101   1.913  -1.134   5.654 -0.3730 -0.1899 -0.3413
  297MOL0     O39102   1.993  -1.192   5.750 -0.0797 -0.2883 -0.6151
  297MOL0     C39103   2.124  -1.198   5.734 -0.6984 -0.1553  0.3100
  297MOL0     C39104   2.190  -1.275   5.635 -0.1165 -0.6634 -0.0438
  297MOL0     C39105   2.329  -1.287   5.641  0.2225 -0.6462 -0.4082
  297MOL0     C39106   2.403  -1.209   5.733 -0.0021 -0.9771 -0.0951
  297MOL0     O39107   2.540  -1.197   5.733 -0.1767  0.9955 -0.7655
  297MOL0     C39108   2.611  -1.207   5.614 -0.1335 -0.0333  1.2323
  297MOL0     C39109   2.679  -1.335   5.595 -0.2602 -0.4952 -0.2112
  297MOL0     C39110   2.807  -1.342   5.671 -0.5014 -0.4471  0.6886
  297MOL0     C39111   2.853  -1.484   5.684  0.0969 -0.1795  0.6368
  297MOL0     C39112   2.982  -1.488   5.770 -0.0681  0.0754  0.2073
  297MOL0     C39113   3.005  -1.632   5.810  0.2026 -0.5729  0.3195
  297MOL0     C39114   3.112  -1.643   5.911  0.0847 -0.3201 -0.1688
  297MOL0     C39115   3.176  -1.771   5.899  1.6478 -0.1749 -0.0307
  297MOL0    Cl39116   3.074  -1.902   5.958  0.1658  0.2902  0.0759
  297MOL0     C39117   2.329  -1.141   5.831  0.8305 -1.3885 -0.2395
  297MOL0     C39118   2.189  -1.132   5.833 -0.4547 -0.3800  0.5890
  297MOL0     O39119   1.957  -1.075   5.552 -0.6748  0.7980  0.2967
  297MOL0     C39120   1.683  -1.061   5.576 -0.8631  0.9363 -0.1328
  297MOL0     C39121   1.548  -1.060   5.595  0.5391  0.6972  0.3090
  297MOL0     N39122   1.193  -0.345   5.741  0.5983  0.3585 -0.1457
  297MOL0     N39123   1.200  -0.248   5.819  0.3647  0.6459  1.1764
  297MOL0     C39124   0.455   0.240   6.209 -0.3756  0.4248  0.1751
  297MOL0     C39125   0.345   0.334   6.224  0.3779  0.2943 -0.7810
  297MOL0     C39126   0.153   0.763   6.248  0.9905 -0.2183 -0.5711
  297MOL0     C39127   0.027   0.745   6.182  1.0581  0.2548 -0.3970
  297MOL0     C39128  -0.086   0.818   6.215  0.8034  0.5176 -0.0991
  297MOL0     C39129  -0.084   0.915   6.318 -0.7532 -0.3080  0.1733
  297MOL0     O39130  -0.183   1.005   6.351 -0.3515 -0.7818 -0.5855
  297MOL0     C39131  -0.295   1.016   6.260 -1.2641 -0.2763 -0.2896
  297MOL0     C39132  -0.375   1.148   6.279 -1.3010 -0.6988  0.4108
  297MOL0     C39133  -0.434   1.153   6.417 -0.5529  0.5209  0.4015
  297MOL0     C39134  -0.547   1.049   6.430 -0.6381 -0.2934  0.7391
  297MOL0     C39135  -0.618   1.079   6.556  0.7160 -0.7335  0.1680
  297MOL0     C39136  -0.670   1.079   6.669  0.2459 -0.1317  0.2274
  297MOL0     C39137   0.044   0.947   6.376 -0.7507  0.9762 -0.2124
  297MOL0     C39138   0.160   0.864   6.346  0.2157  0.4584 -0.2744
  297MOL0     H39139   0.472   0.588   6.057  4.8703  0.2251 -0.7458
  297MOL0     H39140   0.666   0.434   6.029 -0.9578 -0.7734 -2.3728
  297MOL0     H39141   0.617   0.011   6.187  2.1194 -2.6264  0.3198
  297MOL0     H39142   0.697   0.117   6.303 -2.9639  1.4898 -0.7569
  297MOL0     H39143   0.912   0.084   6.154 -0.8255  1.0547  0.7565
  297MOL0     H39144   0.811  -0.029   6.062 -2.5784  1.6997 -0.5193
  297MOL0     H39145   0.769  -0.123   6.306  0.9448 -0.4778  0.7489
  297MOL0     H39146   0.917  -0.051   6.353  0.2121 -0.0764 -0.0200
  297MOL0     H39147   0.957  -0.280   6.275 -0.7181 -0.1428  0.9877
  297MOL0     H39148   0.906  -0.249   6.115 -0.7346  0.7149 -0.2892
  297MOL0     H39149   1.120  -0.058   6.216 -1.4032 -1.3522  2.7309
  297MOL0     H39150   1.076  -0.110   6.056  1.7159 -1.3417 -0.2659
  297MOL0     H39151   1.164  -0.340   6.107 -2.1928 -0.4562  0.9750
  297MOL0     H39152   1.181  -0.303   6.272 -1.0916 -0.8793 -0.6150
  297MOL0     H39153   1.355  -0.131   6.214  1.6410 -0.4845  0.1228
  297MOL0     H39154   1.392  -0.303   6.168 -2.0923 -0.2267  2.0521
  297MOL0     H39155   1.456  -0.172   5.980 -0.3815 -1.4290  0.4411
  297MOL0     H39156   1.320  -0.064   5.983  1.5884  0.6731 -0.0532
  297MOL0     H39157   1.444  -0.442   5.930 -1.5944 -1.4157 -0.0419
  297MOL0     H39158   1.403  -0.576   5.653  0.5262  1.4605  1.5473
  297MOL0     H39159   1.220  -0.569   5.633 -2.5030  1.1083  2.1098
  297MOL0     H39160   1.179  -0.724   5.776  0.9027 -0.2467 -0.3780
  297MOL0     H39161   1.319  -0.691   5.887  0.8436  1.9338 -0.0641
  297MOL0     H39162   1.335  -0.825   5.614 -1.1884 -1.0473  0.4555
  297MOL0     H39163   1.462  -0.815   5.729  0.1629  0.7807  0.3152
  297MOL0     H39164   1.191  -0.961   5.767  1.5862 -2.7313 -0.7787
  297MOL0     H39165   1.322  -0.952   5.889  1.6143  1.3157  0.5743
  297MOL0     H39166   1.515  -1.157   5.912  1.5001 -2.3757  0.3398
  297MOL0     H39167   1.770  -1.181   5.882 -0.1840  2.5260  0.7452
  297MOL0     H39168   2.141  -1.322   5.550 -2.3757  2.7922 -0.8375
  297MOL0     H39169   2.376  -1.341   5.559 -0.3396 -0.1030 -1.1021
  297MOL0     H39170   2.698  -1.140   5.614  1.6804 -2.2239  2.6364
  297MOL0     H39171   2.548  -1.197   5.525  0.1821 -4.7588  0.2393
  297MOL0     H39172   2.703  -1.347   5.489 -2.7574 -1.3991 -0.7480
  297MOL0     H39173   2.610  -1.416   5.623 -0.3262  0.2896  2.0599
  297MOL0     H39174   2.804  -1.303   5.773  0.7497 -0.7698  0.8685
  297MOL0     H39175   2.892  -1.284   5.634 -0.5265  0.0015  1.3248
  297MOL0     H39176   2.776  -1.534   5.743  2.0240 -0.1326  3.3865
  297MOL0     H39177   2.861  -1.535   5.588  0.7840  3.0702 -1.1910
  297MOL0     H39178   2.960  -1.428   5.858 -0.3915 -0.7729  0.7216
  297MOL0     H39179   3.073  -1.447   5.724 -0.4987 -0.9443 -1.6710
  297MOL0     H39180   3.025  -1.686   5.717  0.3573 -1.5767  0.9199
  297MOL0     H39181   2.913  -1.675   5.852  0.2887 -1.6971 -0.6119
  297MOL0     H39182   3.180  -1.558   5.903 -0.8106  0.3643 -0.8513
  297MOL0     H39183   3.065  -1.622   6.008 -0.9382 -1.4935 -0.3783
  297MOL0     H39184   3.261  -1.768   5.967 -1.1557  0.4675  3.7890
  297MOL0     H39185   3.192  -1.792   5.793  0.0233  3.6018 -1.1983
  297MOL0     H39186   2.358  -1.088   5.921 -1.8537 -4.0660  2.4400
  297MOL0     H39187   2.142  -1.071   5.908  1.2977  2.0854 -0.1823
  297MOL0     H39188   1.729  -1.015   5.489 -1.0114 -0.2014 -0.8397
  297MOL0     H39189   1.493  -1.023   5.509  0.6997 -0.8659 -0.4957
  297MOL0     H39190   0.437   0.139   6.245  1.1385 -0.8276 -2.2788
  297MOL0     H39191   0.256   0.317   6.283  0.8168 -0.2051 -0.2560
  297MOL0     H39192   0.008   0.665   6.112 -1.1924 -1.2257  1.7281
  297MOL0     H39193  -0.184   0.798   6.171 -1.9036 -0.4936  5.5195
  297MOL0     H39194  -0.360   0.930   6.276 -1.4223 -0.4071 -1.5416
  297MOL0     H39195  -0.264   0.993   6.158  0.4856  0.7195 -0.0381
  297MOL0     H39196  -0.307   1.233   6.268 -2.6158  0.5935  1.7036
  297MOL0     H39197  -0.458   1.165   6.210 -0.2496  1.3629 -0.4447
  297MOL0     H39198  -0.465   1.257   6.434 -1.4705  0.4598 -0.7414
  297MOL0     H39199  -0.367   1.127   6.499 -0.2525  3.5581  1.2386
  297MOL0     H39200  -0.606   1.071   6.340  2.5445  1.3401 -1.1028
  297MOL0     H39201  -0.516   0.944   6.424 -0.8390 -0.3359  0.4154
  297MOL0     H39202  -0.713   1.098   6.765  1.6978 -0.6630  1.0115
  297MOL0     H39203   0.068   1.028   6.445  0.6964  1.7863 -1.5897
  297MOL0     H39204   0.249   0.902   6.396 -0.6027  0.4443  1.2414
  298MOL0     O39205   7.160   9.217   2.315  0.4500  0.7734 -0.1442
  298MOL0     C39206   7.184   9.336   2.307 -0.0928 -0.6953 -0.0573
  298MOL0     O39207   7.095   9.434   2.300  0.0961 -0.4105  0.8619
  298MOL0     C39208   6.957   9.427   2.314 -0.1794  0.7742  1.6033
  298MOL0     C39209   6.879   9.314   2.280 -0.6439  0.5846 -0.3705
  298MOL0     C39210   6.745   9.297   2.315  1.0686 -1.0571  0.3800
  298MOL0     C39211   6.681   9.405   2.384  1.8782  0.6146  0.4679
  298MOL0     O39212   6.558   9.405   2.432  0.2669 -0.5356 -0.3164
  298MOL0     C39213   6.473   9.288   2.431 -1.4435 -0.0093  0.8691
  298MOL0     C39214   6.353   9.317   2.514  0.7492  0.5301 -0.0432
  298MOL0     C39215   6.374   9.300   2.657 -0.7770 -0.1240  0.5519
  298MOL0     C39216   6.238   9.297   2.734 -0.1603 -0.5652 -0.0985
  298MOL0     C39217   6.161   9.424   2.726 -0.5898 -0.4565 -1.1704
  298MOL0     C39218   6.035   9.416   2.808  0.8156 -0.2415  0.3159
  298MOL0     C39219   5.931   9.309   2.781  0.2755 -0.2422  0.2023
  298MOL0     C39220   5.847   9.323   2.645  0.0885  0.6472 -1.1274
  298MOL0     N39221   5.921   9.279   2.537 -0.3317 -0.3704  1.1779
  298MOL0     C39222   5.989   9.160   2.511  0.7570  1.3012  0.2807
  298MOL0     C39223   6.036   9.170   2.389  1.1715  0.2191 -0.9669
  298MOL0     C39224   6.109   9.066   2.313  0.7286  0.1725 -0.1588
  298MOL0     C39225   6.119   9.089   2.161 -0.2061 -0.1804 -0.3169
  298MOL0     C39226   6.223   9.195   2.132 -0.1002 -0.2806 -0.4521
  298MOL0     C39227   6.237   9.214   1.981  0.0307 -0.7898 -0.1163
  298MOL0     O39228   6.373   9.224   1.966 -0.2916  0.2158  0.6361
  298MOL0     C39229   6.451   9.330   1.991 -0.1798 -1.1331 -0.0516
  298MOL0     C39230   6.386   9.453   2.026 -0.0548  1.1908 -0.2126
  298MOL0     C39231   6.471   9.561   2.060 -0.3857 -0.2716  0.0554
  298MOL0     C39232   6.613   9.554   2.050  0.1294 -0.0472 -0.3122
  298MOL0     C39233   6.693   9.677   2.079  0.2782  0.2768  0.7840
  298MOL0     O39234   6.827   9.672   2.051 -0.4809  0.5281  0.5513
  298MOL0     C39235   6.923   9.769   2.091  0.5907 -0.9557 -0.3342
  298MOL0     C39236   6.904   9.886   2.171  0.3401 -0.2005  0.4213
  298MOL0     C39237   7.019   9.947   2.220 -0.1861  0.2345  0.1475
  298MOL0     C39238   7.152   9.916   2.182 -0.2383 -0.3496  1.2975
  298MOL0     O39239   7.259   9.985   2.229  0.0850  0.0652 -0.4169
  298MOL0     C39240   7.365  10.006   2.140  0.1973 -0.6482 -0.1090
  298MOL0     C39241   7.476   9.900   2.178  0.4336 -1.1036  0.2150
  298MOL0     C39242   7.619   9.941   2.139  0.6374  0.3246 -0.2408
  298MOL0     C39243   7.713   9.899   2.255  0.1441  0.2981 -0.3108
  298MOL0     C39244   7.864   9.888   2.215  0.1660 -0.3188 -0.2780
  298MOL0     C39245   7.880   9.771   2.117  0.2810  0.1554  0.1129
  298MOL0     C39246   8.033   9.745   2.103 -0.1932 -0.4462  0.1410
  298MOL0     C39247   8.058   9.658   1.971 -0.7210 -0.1859  0.5193
  298MOL0    Cl39248   8.004   9.727   1.806 -0.2916 -0.1129 -0.3365
  298MOL0     C39249   7.164   9.806   2.082  0.8621 -0.1244 -0.3418
  298MOL0     C39250   7.048   9.741   2.043 -0.5270  0.4791 -0.2296
  298MOL0     O39251   6.634   9.777   2.112 -0.0466  0.0738 -0.1178
  298MOL0     C39252   6.669   9.431   2.012  0.0525  0.3114 -0.4079
  298MOL0     C39253   6.587   9.316   1.987  0.2136 -0.5013 -0.9251
  298MOL0     N39254   5.994   9.291   2.337  0.0091 -0.7012  0.5516
  298MOL0     N39255   5.932   9.363   2.425 -0.1310  0.2796 -0.9114
  298MOL0     C39256   6.753   9.521   2.393 -0.4066 -0.2931 -0.4029
  298MOL0     C39257   6.890   9.531   2.370 -0.0970 -0.2635  0.1250
  298MOL0     C39258   7.318   9.378   2.341  0.5678 -0.3792 -0.9894
  298MOL0     C39259   7.332   9.519   2.372 -0.9472 -0.3622  0.2551
  298MOL0     C39260   7.467   9.563   2.394 -0.4477 -0.4004 -0.2373
  298MOL0     C39261   7.578   9.477   2.409  0.1757 -0.4198 -0.3204
  298MOL0     O39262   7.698   9.542   2.417 -0.0950  0.8366 -0.0678
  298MOL0     C39263   7.811   9.477   2.473  0.2338 -0.2276  0.4014
  298MOL0     C39264   7.931   9.567   2.508 -0.0096 -0.0563 -0.3319
  298MOL0     C39265   7.896   9.681   2.591 -0.0025 -0.4423 -0.4891
  298MOL0     C39266   8.030   9.736   2.644 -0.8242 -0.6770  0.8087
  298MOL0     C39267   8.113   9.786   2.535 -0.5929 -0.0618 -0.2862
  298MOL0     C39268   8.182   9.837   2.444  0.6490  0.3880  0.8106
  298MOL0     C39269   7.555   9.340   2.403  0.2652  0.7395 -0.4969
  298MOL0     C39270   7.428   9.297   2.355 -0.5175  0.0191  0.9528
  298MOL0     H39271   6.917   9.225   2.232 -3.6416 -1.9185  1.5096
  298MOL0     H39272   6.699   9.205   2.282  0.7272  0.0852 -2.6484
  298MOL0     H39273   6.531   9.208   2.477  1.2727  0.2440 -1.7424
  298MOL0     H39274   6.461   9.262   2.325  0.9251 -0.8876  0.7588
  298MOL0     H39275   6.275   9.253   2.473 -0.4533  3.2120 -2.3144
  298MOL0     H39276   6.323   9.419   2.486 -2.3520 -0.1375  0.4618
  298MOL0     H39277   6.438   9.384   2.686 -1.6860 -0.0895  2.6735
  298MOL0     H39278   6.427   9.209   2.684 -0.4983  0.6613  2.8711
  298MOL0     H39279   6.172   9.223   2.688 -2.0677  2.2541 -2.3197
  298MOL0     H39280   6.266   9.276   2.837  2.5782  2.8251  0.0589
  298MOL0     H39281   6.134   9.459   2.626 -0.9655  4.8313  0.4929
  298MOL0     H39282   6.231   9.496   2.769 -2.1936  1.2265 -1.2590
  298MOL0     H39283   5.982   9.508   2.780  2.8196  0.9949  0.3057
  298MOL0     H39284   6.064   9.427   2.913 -0.0994 -0.4827  0.5985
  298MOL0     H39285   5.985   9.214   2.791 -0.4797 -0.5931  1.1079
  298MOL0     H39286   5.852   9.320   2.856 -0.8141  2.0355 -1.1737
  298MOL0     H39287   5.813   9.426   2.638 -1.2826  1.1373  5.5402
  298MOL0     H39288   5.754   9.265   2.651 -0.1490  0.9304 -2.0347
  298MOL0     H39289   5.992   9.067   2.567  0.8244  2.5685  2.4884
  298MOL0     H39290   6.055   8.972   2.324 -3.7484  2.4889  0.0416
  298MOL0     H39291   6.208   9.057   2.358  1.0201  0.5314 -0.7206
  298MOL0     H39292   6.017   9.112   2.130 -0.4307  0.0957  0.5871
  298MOL0     H39293   6.141   8.993   2.114  2.1061 -0.2750  0.8083
  298MOL0     H39294   6.209   9.293   2.180  0.4177 -0.8931  1.0123
  298MOL0     H39295   6.307   9.148   2.184 -1.4418 -0.8221  1.3454
  298MOL0     H39296   6.174   9.293   1.937 -0.8322 -1.4454 -0.0728
  298MOL0     H39297   6.199   9.127   1.928 -4.5661  1.0058 -0.2120
  298MOL0     H39298   6.277   9.458   2.030 -0.1102  0.8797 -1.1627
  298MOL0     H39299   6.428   9.651   2.102  0.6385 -0.5091  1.6846
  298MOL0     H39300   6.803   9.913   2.200 -0.2226 -0.8388 -0.8492
  298MOL0     H39301   7.007  10.034   2.285 -2.9090 -0.4663  0.7036
  298MOL0     H39302   7.406  10.107   2.146 -3.4697  0.9966 -0.5784
  298MOL0     H39303   7.336   9.996   2.035 -1.4394  0.3795  0.2204
  298MOL0     H39304   7.452   9.799   2.143 -3.1569  0.0065 -0.8517
  298MOL0     H39305   7.464   9.897   2.287 -1.8788 -1.6494 -0.0015
  298MOL0     H39306   7.639  10.046   2.115  3.6145 -0.6185 -2.4297
  298MOL0     H39307   7.639   9.893   2.043 -2.0024  1.4899 -1.4611
  298MOL0     H39308   7.690   9.982   2.322  1.1911  1.0481 -0.8598
  298MOL0     H39309   7.666   9.808   2.295 -0.2456  0.7748  0.3122
  298MOL0     H39310   7.918   9.873   2.309  0.9491  2.6557 -0.1522
  298MOL0     H39311   7.911   9.973   2.165  0.6177  0.7554  1.8689
  298MOL0     H39312   7.826   9.805   2.028 -1.4380  4.4394  2.4619
  298MOL0     H39313   7.836   9.678   2.154 -0.8785 -0.3635 -2.3361
  298MOL0     H39314   8.095   9.835   2.105  1.4728 -1.5323  0.1091
  298MOL0     H39315   8.065   9.680   2.186 -0.3166  0.7355  1.1446
  298MOL0     H39316   8.012   9.560   1.986  5.1828 -3.5595 -0.3281
  298MOL0     H39317   8.165   9.634   1.975 -0.0446  1.7885 -2.4372
  298MOL0     H39318   7.259   9.772   2.043 -0.4167 -1.7033 -2.2741
  298MOL0     H39319   7.052   9.669   1.962  2.9706  0.7963 -0.4917
  298MOL0     H39320   6.777   9.419   2.010  0.0585  0.1467  0.5493
  298MOL0     H39321   6.621   9.218   1.957 -1.5500 -0.4875 -3.3299
  298MOL0     H39322   6.701   9.603   2.443 -0.0006  0.2960 -0.9251
  298MOL0     H39323   6.935   9.628   2.390 -1.2345  0.8000 -2.0613
  298MOL0     H39324   7.244   9.584   2.369 -1.1599 -0.6875 -0.8678
  298MOL0     H39325   7.492   9.668   2.403 -2.5595  0.0221  1.3782
  298MOL0     H39326   7.851   9.411   2.395 -1.3493  0.5486 -1.1587
  298MOL0     H39327   7.772   9.417   2.555 -2.5155  1.8347  0.7513
  298MOL0     H39328   8.004   9.510   2.566  0.6635  2.1401  1.1251
  298MOL0     H39329   7.983   9.588   2.414  4.3388 -0.8921  1.6382
  298MOL0     H39330   7.830   9.642   2.670 -0.8920 -2.2552 -2.0459
  298MOL0     H39331   7.847   9.753   2.525 -1.0872  1.5404  2.2883
  298MOL0     H39332   8.010   9.822   2.708 -1.3495  0.6838 -1.0642
  298MOL0     H39333   8.088   9.665   2.703  2.7497  3.6711  3.0689
  298MOL0     H39334   8.238   9.882   2.365 -2.1536  0.5511 -1.2492
  298MOL0     H39335   7.639   9.276   2.430  0.8647  1.1958 -1.2551
  298MOL0     H39336   7.412   9.189   2.350  0.1299 -0.0390 -0.8122
  299MOL0     O39337   7.372   2.005   5.804 -0.0395  0.1735 -0.0371
  299MOL0     C39338   7.491   2.038   5.806 -0.0469 -0.3642  0.4440
  299MOL0     O39339   7.559   2.090   5.705  0.1878 -0.0015 -0.2991
  299MOL0     C39340   7.498   2.152   5.602 -0.2168 -0.2759  0.9400
  299MOL0     C39341   7.405   2.254   5.619  0.2581 -1.0080  0.2668
  299MOL0     C39342   7.347   2.319   5.513  0.5213  0.8119 -0.1888
  299MOL0     C39343   7.376   2.276   5.378  0.3446  0.5682  0.1130
  299MOL0     O39344   7.322   2.344   5.272 -0.3868 -0.6587 -0.0136
  299MOL0     C39345   7.304   2.274   5.145  0.3164 -0.2420  0.3681
  299MOL0     C39346   7.177   2.182   5.156 -0.9408  0.5696  0.1921
  299MOL0     C39347   7.127   2.155   5.020  0.0178 -0.7585  0.0325
  299MOL0     C39348   7.025   2.042   5.018  0.7036  0.7333 -0.5439
  299MOL0     C39349   6.923   2.052   4.902 -0.3091 -0.3615  0.5712
  299MOL0     C39350   6.994   2.066   4.769 -0.5842 -1.5038 -0.2487
  299MOL0     C39351   6.912   2.048   4.643 -0.2137 -1.2026  0.5951
  299MOL0     C39352   6.872   2.180   4.582 -0.1721  0.1950 -0.3674
  299MOL0     N39353   6.762   2.253   4.646  0.3059 -0.1661  1.1778
  299MOL0     C39354   6.636   2.207   4.671  0.5716  0.7362  0.6580
  299MOL0     C39355   6.578   2.306   4.739  0.5172 -0.4104 -0.1616
  299MOL0     C39356   6.433   2.325   4.793  0.5229  0.3429  0.8240
  299MOL0     C39357   6.332   2.312   4.675 -0.6101 -0.6894 -0.9290
  299MOL0     C39358   6.195   2.354   4.705  0.3528  0.6336  0.3610
  299MOL0     C39359   6.113   2.328   4.577  0.6655  0.1736 -0.5093
  299MOL0     O39360   5.972   2.349   4.619 -1.1395 -1.4752 -0.2085
  299MOL0     C39361   5.883   2.315   4.522 -0.1440 -0.1538  0.2735
  299MOL0     C39362   5.745   2.344   4.553  0.7971  0.2639  0.1911
  299MOL0     C39363   5.640   2.312   4.466 -0.4244 -0.2810 -0.3307
  299MOL0     C39364   5.673   2.247   4.346 -1.0387 -0.1852 -0.0963
  299MOL0     C39365   5.562   2.212   4.254  0.7683 -0.1913 -0.1149
  299MOL0     O39366   5.443   2.278   4.267 -0.3153  0.3081 -0.8764
  299MOL0     C39367   5.345   2.246   4.176  0.3570 -0.4321 -0.4748
  299MOL0     C39368   5.283   2.349   4.103 -0.1461 -0.1458  1.0021
  299MOL0     C39369   5.184   2.321   4.003  0.3327 -2.0016 -0.0955
  299MOL0     C39370   5.144   2.191   3.975  0.0544 -0.0126 -0.6585
  299MOL0     O39371   5.054   2.159   3.880  0.2683  0.4218 -0.6705
  299MOL0     C39372   5.082   2.196   3.746 -0.0243  0.4535 -0.3731
  299MOL0     C39373   4.959   2.201   3.651  0.5566  0.0792  0.3831
  299MOL0     C39374   4.882   2.072   3.645 -0.6315 -0.4223 -0.2029
  299MOL0     C39375   4.953   1.966   3.561 -0.0882 -0.6801 -0.0092
  299MOL0     C39376   4.902   1.815   3.580  0.0141 -0.1608 -0.0077
  299MOL0     C39377   4.917   1.760   3.724 -1.1333 -0.6235 -0.6111
  299MOL0     C39378   4.940   1.607   3.728 -0.3910 -0.3043 -0.2270
  299MOL0     C39379   4.915   1.547   3.862 -0.2797  0.6254 -0.1969
  299MOL0    Cl39380   5.048   1.622   3.974  0.0641 -0.0586 -0.3702
  299MOL0     C39381   5.203   2.088   4.059  0.4213  0.2976  0.5346
  299MOL0     C39382   5.303   2.119   4.155 -0.6911  0.2303  0.6861
  299MOL0     O39383   5.582   2.126   4.168  0.2668 -0.5634  0.5099
  299MOL0     C39384   5.804   2.230   4.308  0.7098  0.1117 -0.5355
  299MOL0     C39385   5.909   2.255   4.390  0.1337  0.3247 -0.4447
  299MOL0     N39386   6.674   2.404   4.757  0.0951  0.2634  0.6127
  299MOL0     N39387   6.794   2.370   4.711 -0.7127 -1.1755  0.6146
  299MOL0     C39388   7.482   2.179   5.359  0.4144 -0.6120 -0.2970
  299MOL0     C39389   7.546   2.117   5.465  0.3966 -0.3792 -0.2990
  299MOL0     C39390   7.567   2.013   5.928  0.1252  0.0458 -0.2140
  299MOL0     C39391   7.511   1.950   6.041 -0.8893  0.4829 -0.5631
  299MOL0     C39392   7.586   1.939   6.159  0.1517 -0.9815 -0.2307
  299MOL0     C39393   7.720   1.975   6.173 -0.7901  0.2109 -0.2651
  299MOL0     O39394   7.790   1.943   6.285  1.1051  0.3523 -0.7636
  299MOL0     C39395   7.934   1.944   6.296 -0.1569 -1.4400  0.5628
  299MOL0     C39396   7.981   1.890   6.435 -0.4789  0.6014 -0.2843
  299MOL0     C39397   8.136   1.875   6.438  0.6401 -0.7543  0.0712
  299MOL0     C39398   8.206   1.987   6.513  0.0592  0.1098  0.5501
  299MOL0     C39399   8.284   1.927   6.624  0.4441 -0.1938 -0.1705
  299MOL0     C39400   8.350   1.882   6.711 -0.2002  0.6822  0.4806
  299MOL0     C39401   7.768   2.043   6.067  0.3089 -0.2016  0.0594
  299MOL0     C39402   7.695   2.067   5.950 -0.4004 -0.4687 -0.9889
  299MOL0     H39403   7.369   2.292   5.714 -1.4508  1.4959 -1.2534
  299MOL0     H39404   7.279   2.401   5.534 -2.6700 -1.8811  0.9169
  299MOL0     H39405   7.391   2.216   5.114 -0.2966 -2.4450  2.4759
  299MOL0     H39406   7.282   2.359   5.080  0.7804  0.3286  0.9378
  299MOL0     H39407   7.101   2.227   5.221 -0.8376 -1.4522  1.8225
  299MOL0     H39408   7.205   2.091   5.210 -0.5367  1.6712  1.9275
  299MOL0     H39409   7.209   2.138   4.950 -0.9279 -1.1274 -1.0219
  299MOL0     H39410   7.085   2.250   4.989 -1.1003 -1.6467 -1.2974
  299MOL0     H39411   7.085   1.951   5.016  1.9143  1.5196 -0.7513
  299MOL0     H39412   6.963   2.049   5.109  1.2271  3.2211 -0.2842
  299MOL0     H39413   6.854   2.137   4.909 -0.1190 -0.1049 -0.4127
  299MOL0     H39414   6.856   1.967   4.919 -2.9658  1.5788  0.5997
  299MOL0     H39415   7.080   1.997   4.765 -0.0541 -0.9708  1.4131
  299MOL0     H39416   7.046   2.162   4.762  2.3102 -3.0010 -0.9009
  299MOL0     H39417   6.980   2.003   4.570 -0.4760  2.6144 -2.3181
  299MOL0     H39418   6.824   1.984   4.655 -1.5365  0.8261  2.4704
  299MOL0     H39419   6.833   2.145   4.486 -2.6845 -0.8421  0.9708
  299MOL0     H39420   6.963   2.240   4.573  0.4406 -0.4547  1.1469
  299MOL0     H39421   6.587   2.116   4.636  1.9745 -0.0642  0.7203
  299MOL0     H39422   6.428   2.429   4.827  0.4022  0.5760  0.0962
  299MOL0     H39423   6.403   2.267   4.881 -2.6632  2.5575  1.3773
  299MOL0     H39424   6.335   2.209   4.638 -0.0759 -1.0024 -0.0396
  299MOL0     H39425   6.376   2.370   4.593  0.9195  0.2579  0.4973
  299MOL0     H39426   6.152   2.289   4.782  1.2120 -0.8906 -0.3876
  299MOL0     H39427   6.182   2.456   4.743 -1.8801 -0.1640  1.9445
  299MOL0     H39428   6.123   2.224   4.546 -0.9524 -0.3206  0.4853
  299MOL0     H39429   6.140   2.407   4.507 -0.6642  0.6008 -0.5780
  299MOL0     H39430   5.725   2.384   4.652  1.7409 -2.3274  1.4956
  299MOL0     H39431   5.539   2.334   4.501  0.3797  3.6627 -0.0607
  299MOL0     H39432   5.324   2.449   4.109  3.1147 -1.2684  0.0034
  299MOL0     H39433   5.124   2.393   3.950 -1.4569 -3.3738 -0.0435
  299MOL0     H39434   5.163   2.130   3.714  0.3526  0.3656  0.7175
  299MOL0     H39435   5.134   2.293   3.740  0.7284 -0.0242 -1.9573
  299MOL0     H39436   4.991   2.242   3.555 -0.4353 -0.4951 -0.1990
  299MOL0     H39437   4.896   2.277   3.699 -4.2610 -4.6219  2.5650
  299MOL0     H39438   4.784   2.090   3.599 -0.8060 -0.6633  0.0757
  299MOL0     H39439   4.867   2.034   3.746 -0.2188  0.1920  0.0986
  299MOL0     H39440   4.933   2.000   3.459  2.2495  0.6309 -0.0873
  299MOL0     H39441   5.061   1.955   3.578 -0.1206 -0.1062  0.5925
  299MOL0     H39442   4.954   1.752   3.508 -2.3634 -1.7243 -0.4587
  299MOL0     H39443   4.796   1.819   3.552 -0.1805 -1.6014  0.4038
  299MOL0     H39444   4.830   1.783   3.786 -1.3583  0.1054 -1.1780
  299MOL0     H39445   5.004   1.806   3.771 -1.5832  0.1718 -0.5500
  299MOL0     H39446   4.865   1.565   3.661  0.0332  1.2478 -1.7439
  299MOL0     H39447   5.046   1.585   3.711 -0.5791 -1.8274  0.4124
  299MOL0     H39448   4.923   1.439   3.856  0.9380  0.4517  2.8167
  299MOL0     H39449   4.819   1.574   3.908 -0.8422 -1.8197  0.1824
  299MOL0     H39450   5.172   1.984   4.058 -3.1429  1.1898 -1.1938
  299MOL0     H39451   5.338   2.032   4.210  0.4690  0.1362 -0.1482
  299MOL0     H39452   5.819   2.190   4.208 -0.4881 -2.8246  0.3486
  299MOL0     H39453   6.011   2.252   4.355 -0.6916 -0.9392 -2.9234
  299MOL0     H39454   7.518   2.167   5.257 -3.1844  1.5062 -2.0271
  299MOL0     H39455   7.616   2.037   5.448 -2.3080 -3.3377  1.4306
  299MOL0     H39456   7.415   1.899   6.047 -1.7098  2.1121  1.5874
  299MOL0     H39457   7.546   1.888   6.245 -0.1572  0.4017  0.4725
  299MOL0     H39458   7.958   2.050   6.282 -0.9305 -1.3042  0.1638
  299MOL0     H39459   7.985   1.881   6.223 -0.6387 -2.2846  0.9461
  299MOL0     H39460   7.934   1.959   6.505 -0.2751  2.1262 -1.5967
  299MOL0     H39461   7.950   1.787   6.458  0.1498  0.7293  1.2452
  299MOL0     H39462   8.169   1.865   6.334  0.0671 -3.9138  0.0992
  299MOL0     H39463   8.165   1.778   6.479  0.6123 -0.1555  1.5515
  299MOL0     H39464   8.268   2.055   6.455 -2.5329  1.9317 -0.2640
  299MOL0     H39465   8.125   2.044   6.560 -1.7281  0.6854 -2.9491
  299MOL0     H39466   8.412   1.837   6.786  1.4749 -1.1216 -1.8540
  299MOL0     H39467   7.874   2.064   6.077  1.0550 -3.6572  0.6904
  299MOL0     H39468   7.749   2.125   5.876  2.2190 -0.0514  1.0953
  300MOL0     O39469   1.090   8.052  10.819 -0.0639 -0.8110  0.5678
  300MOL0     C39470   1.144   8.157  10.812  0.2374 -0.2252  0.8608
  300MOL0     O39471   1.078   8.281  10.807  0.6417  0.2612  0.4163
  300MOL0     C39472   0.957   8.297  10.879 -0.9856  1.0818 -0.1252
  300MOL0     C39473   0.879   8.410  10.841  0.0240  0.0243  0.3569
  300MOL0     C39474   0.762   8.429  10.901 -0.2228 -0.5050  0.6291
  300MOL0     C39475   0.727   8.362  11.016  0.1443 -0.5950 -0.7789
  300MOL0     O39476   0.614   8.407  11.071  0.3739 -0.3300 -0.1930
  300MOL0     C39477   0.503   8.317  11.077 -0.8111  0.1958  0.1985
  300MOL0     C39478   0.382   8.382  11.135  0.6263 -0.3621 -0.2200
  300MOL0     C39479   0.337   8.521  11.084  0.6587  0.4360 -0.1035
  300MOL0     C39480   0.203   8.568  11.147  0.3891 -0.9363  0.6623
  300MOL0     C39481   0.191   8.718  11.134 -0.1651 -0.7514  0.0089
  300MOL0     C39482   0.076   8.779  11.209  0.1501 -0.6700  0.4561
  300MOL0     C39483  -0.058   8.749  11.142 -0.0962 -0.2736 -0.2810
  300MOL0     C39484  -0.171   8.823  11.214 -0.0807 -0.0498  0.5116
  300MOL0     N39485  -0.193   8.793  11.354 -0.1566 -0.5654 -0.1359
  300MOL0     C39486  -0.240   8.677  11.397 -0.0227  0.2264  0.2546
  300MOL0     C39487  -0.230   8.693  11.531  0.3050  0.3410  0.6824
  300MOL0     C39488  -0.256   8.591  11.641  0.1850  1.0691 -0.0010
  300MOL0     C39489  -0.412   8.579  11.651 -0.2856 -0.3778  0.2640
  300MOL0     C39490  -0.446   8.458  11.737 -0.2069 -0.8483  0.1499
  300MOL0     C39491  -0.595   8.449  11.765  0.1820  0.3822  0.5372
  300MOL0     O39492  -0.610   8.317  11.832 -0.0880 -0.0152 -0.2115
  300MOL0     C39493  -0.739   8.281  11.852 -0.6929 -0.5775  1.0004
  300MOL0     C39494  -0.848   8.368  11.870 -0.7314 -0.0007 -0.2236
  300MOL0     C39495  -0.973   8.308  11.878  0.7301  0.7263 -0.3603
  300MOL0     C39496  -0.996   8.167  11.893 -0.5856 -0.1226  0.1710
  300MOL0     C39497  -1.125   8.109  11.917  0.4808  0.9945  0.5290
  300MOL0     O39498  -1.227   8.203  11.928 -0.3600 -0.2203  0.6907
  300MOL0     C39499  -1.352   8.158  11.930  0.9495  1.4396 -1.2855
  300MOL0     C39500  -1.400   8.103  12.047 -0.0308 -1.1460 -0.0519
  300MOL0     C39501  -1.522   8.027  12.058 -0.6111 -0.1918 -0.1773
  300MOL0     C39502  -1.594   8.010  11.943  0.4359  0.0118 -0.2361
  300MOL0     O39503  -1.700   7.926  11.924  0.3075  0.4054 -0.0829
  300MOL0     C39504  -1.750   7.854  12.041  0.8069  0.0244 -1.0644
  300MOL0     C39505  -1.863   7.749  12.005 -1.6622 -0.2638 -1.1133
  300MOL0     C39506  -1.978   7.833  11.943 -0.5556 -0.8301 -0.3777
  300MOL0     C39507  -2.095   7.745  11.904 -0.0498 -0.0882 -0.1779
  300MOL0     C39508  -2.179   7.706  12.020  0.2922  0.8006 -0.6755
  300MOL0     C39509  -2.183   7.825  12.119 -0.7579  0.2193 -0.2802
  300MOL0     C39510  -2.272   7.792  12.237 -0.0511  0.3227 -0.2301
  300MOL0     C39511  -2.336   7.915  12.305  0.5758 -0.8324  0.3007
  300MOL0    Cl39512  -2.443   7.987  12.193 -0.2537  0.4802  0.2284
  300MOL0     C39513  -1.548   8.061  11.825 -0.7660 -0.5793 -0.1413
  300MOL0     C39514  -1.433   8.138  11.811  0.7212  0.2848 -0.1949
  300MOL0     O39515  -1.141   7.987  11.926 -0.1956 -0.3211 -0.2245
  300MOL0     C39516  -0.878   8.088  11.874  0.2022  0.0589 -0.1243
  300MOL0     C39517  -0.754   8.143  11.844 -0.5346 -0.6294 -0.1702
  300MOL0     N39518  -0.185   8.823  11.561  1.0003  0.1968 -0.7581
  300MOL0     N39519  -0.155   8.880  11.449 -0.1221 -0.6599  0.5248
  300MOL0     C39520   0.811   8.262  11.065  0.1585 -0.0506  0.1500
  300MOL0     C39521   0.926   8.229  11.001  0.0495  0.4479  0.6721
  300MOL0     C39522   1.283   8.154  10.762  0.2021  0.1922  0.0344
  300MOL0     C39523   1.376   8.042  10.791 -0.1131 -0.3903  0.9388
  300MOL0     C39524   1.504   8.048  10.728 -0.3659 -0.0204 -0.4984
  300MOL0     C39525   1.548   8.153  10.649 -0.5459 -0.0417  0.1847
  300MOL0     O39526   1.674   8.145  10.592 -0.3397 -0.3964 -0.0760
  300MOL0     C39527   1.689   8.126  10.453  0.2146 -0.4277  0.2919
  300MOL0     C39528   1.823   8.182  10.391  1.4893  0.5243 -0.8518
  300MOL0     C39529   1.932   8.086  10.426 -0.1141  0.1207  0.6787
  300MOL0     C39530   1.990   8.105  10.565 -0.6815 -0.6003  0.4559
  300MOL0     C39531   2.104   8.017  10.573 -0.7003  0.2560  0.6011
  300MOL0     C39532   2.199   7.945  10.557 -0.6188  0.0410  0.7870
  300MOL0     C39533   1.453   8.244  10.611  0.4938 -0.3783  0.1037
  300MOL0     C39534   1.328   8.252  10.676 -0.4164  0.1173 -0.5286
  300MOL0     H39535   0.891   8.456  10.743  0.2307  2.3109  1.3754
  300MOL0     H39536   0.687   8.501  10.869  3.0612  3.5753  1.2696
  300MOL0     H39537   0.535   8.235  11.142 -0.7332  2.6102  3.4617
  300MOL0     H39538   0.483   8.292  10.972  0.7367  3.7268 -1.0973
  300MOL0     H39539   0.405   8.400  11.241 -3.6342 -2.5558  1.3228
  300MOL0     H39540   0.302   8.308  11.119 -0.3034  0.8356 -1.2425
  300MOL0     H39541   0.341   8.517  10.974  0.6340  2.2139 -0.2044
  300MOL0     H39542   0.412   8.597  11.105  0.8597  0.3450 -0.4955
  300MOL0     H39543   0.126   8.514  11.091  0.6973 -0.2074 -0.5056
  300MOL0     H39544   0.205   8.536  11.251  1.8450  1.4655  1.4559
  300MOL0     H39545   0.173   8.738  11.028 -1.0126 -0.7686  0.1395
  300MOL0     H39546   0.282   8.772  11.163 -1.2740  1.3136 -0.1883
  300MOL0     H39547   0.089   8.887  11.204  3.5465 -1.0050 -1.5231
  300MOL0     H39548   0.081   8.745  11.313 -0.1396  0.6525  0.9166
  300MOL0     H39549  -0.063   8.777  11.037  0.4832  1.8606  0.2097
  300MOL0     H39550  -0.081   8.642  11.142 -2.6027  0.2081 -0.5140
  300MOL0     H39551  -0.259   8.809  11.151  2.3713 -2.4623 -2.7269
  300MOL0     H39552  -0.144   8.928  11.209 -0.7099  0.0597 -1.3683
  300MOL0     H39553  -0.249   8.590  11.332  1.6392  1.6787 -2.0410
  300MOL0     H39554  -0.217   8.610  11.741 -2.1176  0.4036  1.0842
  300MOL0     H39555  -0.198   8.504  11.607 -1.6684  0.6518 -2.3137
  300MOL0     H39556  -0.452   8.570  11.549 -1.6837  0.8689  0.6782
  300MOL0     H39557  -0.444   8.671  11.699 -3.1964 -1.0767 -0.1950
  300MOL0     H39558  -0.421   8.365  11.684  0.3632 -0.6164  0.0117
  300MOL0     H39559  -0.386   8.449  11.827 -0.4509 -4.1070  0.1149
  300MOL0     H39560  -0.659   8.459  11.677 -4.8304  0.0311  3.7191
  300MOL0     H39561  -0.630   8.524  11.837 -0.2541 -2.2142  3.2206
  300MOL0     H39562  -0.846   8.477  11.870 -2.2651  0.0919 -2.4408
  300MOL0     H39563  -1.057   8.375  11.897  1.3648  0.6905  3.2387
  300MOL0     H39564  -1.341   8.114  12.137 -1.3599 -1.8203  0.9452
  300MOL0     H39565  -1.546   7.984  12.155  2.3828 -1.4464  0.1014
  300MOL0     H39566  -1.788   7.933  12.106  3.3184  0.1199  0.4023
  300MOL0     H39567  -1.667   7.804  12.091 -0.8360 -1.1374  0.6396
  300MOL0     H39568  -1.904   7.701  12.095 -0.7015  0.5201 -0.2223
  300MOL0     H39569  -1.823   7.679  11.932 -1.2758 -0.4383 -0.7411
  300MOL0     H39570  -1.943   7.886  11.854  2.0534 -0.9096  0.5130
  300MOL0     H39571  -1.996   7.916  12.013  1.7660 -0.9350  0.4028
  300MOL0     H39572  -2.153   7.808  11.837 -1.4408 -0.9951  0.1279
  300MOL0     H39573  -2.056   7.660  11.848 -0.2305 -0.1517 -0.2077
  300MOL0     H39574  -2.142   7.621  12.079  1.2356  1.9752  0.4729
  300MOL0     H39575  -2.276   7.680  11.974 -1.6347  1.8851  2.4780
  300MOL0     H39576  -2.219   7.915  12.070  0.4987  1.3405  0.7798
  300MOL0     H39577  -2.084   7.839  12.163 -0.1198 -0.9929 -1.2816
  300MOL0     H39578  -2.348   7.718  12.206  1.6916 -1.2745 -0.8865
  300MOL0     H39579  -2.213   7.740  12.314 -1.9590  1.6596  2.3049
  300MOL0     H39580  -2.254   7.979  12.338  1.8072 -2.2916  0.1619
  300MOL0     H39581  -2.399   7.897  12.393  0.8120 -1.0123  0.4343
  300MOL0     H39582  -1.590   8.034  11.728 -0.3358  1.3860 -0.9247
  300MOL0     H39583  -1.388   8.159  11.714 -0.6003  0.5257 -0.7758
  300MOL0     H39584  -0.879   7.980  11.883  3.5412  0.0787  2.3215
  300MOL0     H39585  -0.664   8.083  11.831  0.3837  0.3824  1.1875
  300MOL0     H39586   0.804   8.230  11.168  2.2044 -2.3787 -0.3304
  300MOL0     H39587   0.989   8.153  11.045 -0.2747 -0.0624  0.2580
  300MOL0     H39588   1.353   7.954  10.849  0.2382 -0.6289  0.7252
  300MOL0     H39589   1.570   7.962  10.740  1.6313  1.3265 -1.3029
  300MOL0     H39590   1.599   8.172  10.412 -3.2448 -2.8540  4.2636
  300MOL0     H39591   1.681   8.018  10.434 -0.2970 -0.5466  1.1097
  300MOL0     H39592   1.799   8.186  10.284 -0.1474 -0.3977 -0.5589
  300MOL0     H39593   1.835   8.287  10.418 -3.1259  0.8874  0.7312
  300MOL0     H39594   2.019   8.089  10.360  0.3863  2.6334  1.3194
  300MOL0     H39595   1.890   7.988  10.403  0.0071  0.0645  0.6970
  300MOL0     H39596   2.031   8.205  10.580  0.6952 -0.7494 -1.9602
  300MOL0     H39597   1.924   8.087  10.651  2.0561 -0.1818  2.7809
  300MOL0     H39598   2.294   7.895  10.559 -0.6603 -0.0598  0.3918
  300MOL0     H39599   1.492   8.309  10.534 -0.6016 -2.4712 -2.3710
  300MOL0     H39600   1.259   8.334  10.659  0.6939  1.3314  0.6637
  301MOL0     O39601   1.239   8.912   4.863 -0.0499  0.2263 -0.5712
  301MOL0     C39602   1.325   8.991   4.864 -0.3177 -0.8460  0.1105
  301MOL0     O39603   1.324   9.104   4.937 -0.1620  0.8067  0.3868
  301MOL0     C39604   1.212   9.149   4.992  0.3214  0.8129  1.1833
  301MOL0     C39605   1.103   9.217   4.918  0.2056  0.5142  0.6437
  301MOL0     C39606   0.983   9.251   4.983  0.7560 -0.7617  0.2265
  301MOL0     C39607   0.958   9.226   5.114  0.2406 -1.0421  0.3762
  301MOL0     O39608   0.826   9.231   5.161 -0.9122 -0.1398  0.3936
  301MOL0     C39609   0.769   9.104   5.192  0.2766 -0.1290  0.7275
  301MOL0     C39610   0.686   9.041   5.075  0.2578  0.8917  0.1817
  301MOL0     C39611   0.559   9.127   5.045  0.0696  0.1125 -0.4099
  301MOL0     C39612   0.499   9.121   4.905  0.4065  0.7059  0.6360
  301MOL0     C39613   0.432   8.987   4.859 -0.0010  0.9274 -0.1541
  301MOL0     C39614   0.317   8.951   4.950 -0.4891 -0.8826  0.3226
  301MOL0     C39615   0.232   8.838   4.903 -0.0290  0.1865 -0.8765
  301MOL0     C39616   0.295   8.699   4.896  0.0742 -0.1234  0.2197
  301MOL0     N39617   0.238   8.632   4.782 -0.4707 -0.1558  0.5190
  301MOL0     C39618   0.130   8.550   4.782 -0.2700 -0.1517 -0.3909
  301MOL0     C39619   0.124   8.507   4.655 -0.6135 -0.4455 -0.5558
  301MOL0     C39620   0.021   8.425   4.592  1.4746  0.0597 -0.0598
  301MOL0     C39621   0.087   8.300   4.525  0.3985  0.4987  0.8549
  301MOL0     C39622   0.108   8.329   4.377 -0.0348 -0.2214  0.2482
  301MOL0     C39623   0.140   8.204   4.306 -0.7491 -0.3192  0.0511
  301MOL0     O39624   0.152   8.235   4.157 -0.0332 -0.2994  0.3862
  301MOL0     C39625   0.274   8.270   4.101 -0.5844 -0.2439  0.1201
  301MOL0     C39626   0.396   8.269   4.168 -0.8331 -0.1512 -0.3616
  301MOL0     C39627   0.516   8.319   4.103  0.3406 -0.8997  0.3101
  301MOL0     C39628   0.506   8.374   3.978 -0.7941 -0.0303 -0.1700
  301MOL0     C39629   0.621   8.426   3.907  0.0717 -0.0777 -0.0888
  301MOL0     O39630   0.748   8.391   3.957 -0.8744 -0.9160  0.1582
  301MOL0     C39631   0.859   8.424   3.891  0.0585  0.2313  0.5020
  301MOL0     C39632   0.912   8.548   3.893  0.0509 -0.3644 -0.3968
  301MOL0     C39633   1.032   8.583   3.824  0.5248 -0.3908  0.6510
  301MOL0     C39634   1.083   8.488   3.735  0.1183  0.0721 -0.1993
  301MOL0     O39635   1.196   8.521   3.658  0.3029  0.5325  0.3063
  301MOL0     C39636   1.188   8.642   3.582  0.1527  0.5087  0.3209
  301MOL0     C39637   1.059   8.661   3.506 -0.1864  1.0107 -0.8860
  301MOL0     C39638   1.042   8.785   3.417  0.0646  0.1028  0.4905
  301MOL0     C39639   1.034   8.915   3.494  0.2356  0.5671 -0.4637
  301MOL0     C39640   1.034   9.036   3.407 -0.3291  0.1813 -0.1758
  301MOL0     C39641   1.182   9.065   3.359 -0.5124  0.2551  1.1788
  301MOL0     C39642   1.276   9.134   3.457  0.5225 -0.5123  0.0580
  301MOL0     C39643   1.409   9.175   3.405 -0.2000  0.1744 -0.2001
  301MOL0    Cl39644   1.367   9.325   3.312  0.2307 -0.0911  0.2482
  301MOL0     C39645   1.022   8.361   3.722  0.4898  0.2152  0.6857
  301MOL0     C39646   0.911   8.332   3.797 -0.0778  1.0029  0.7770
  301MOL0     O39647   0.596   8.480   3.797 -0.4164 -0.0575  0.2065
  301MOL0     C39648   0.384   8.379   3.919  0.6728 -0.8898  0.8969
  301MOL0     C39649   0.272   8.315   3.973  0.5081 -0.0151 -0.3178
  301MOL0     N39650   0.223   8.564   4.578 -0.5653  0.6950  0.2259
  301MOL0     N39651   0.298   8.636   4.659  0.5984  0.7250  0.6321
  301MOL0     C39652   1.063   9.169   5.191  0.3036 -1.0189 -0.3928
  301MOL0     C39653   1.181   9.128   5.131 -0.3298 -0.0936 -0.0954
  301MOL0     C39654   1.440   8.975   4.785  0.3110 -0.3168  0.1991
  301MOL0     C39655   1.478   8.852   4.743  1.1153 -0.4665  0.8273
  301MOL0     C39656   1.587   8.830   4.648 -0.0781 -0.5034  0.2789
  301MOL0     C39657   1.678   8.940   4.623 -0.2517 -0.3024 -0.0367
  301MOL0     O39658   1.795   8.929   4.559  0.4743  0.0250 -0.5733
  301MOL0     C39659   1.840   8.794   4.523 -0.4551 -0.0416  0.5021
  301MOL0     C39660   1.993   8.804   4.526  0.6077  0.3108 -0.1593
  301MOL0     C39661   2.064   8.903   4.437  0.2228 -0.1062  0.5189
  301MOL0     C39662   2.189   8.851   4.372 -0.9272 -0.1939  0.7603
  301MOL0     C39663   2.149   8.772   4.248 -0.3123 -0.6280 -0.5716
  301MOL0     C39664   2.106   8.712   4.154 -0.4692  1.2709  0.0916
  301MOL0     C39665   1.628   9.070   4.662 -1.2695  0.1416 -0.4479
  301MOL0     C39666   1.519   9.086   4.750 -0.5748 -0.5002  0.4090
  301MOL0     H39667   1.123   9.241   4.814  2.0672  0.3842  0.9456
  301MOL0     H39668   0.908   9.299   4.922  1.1289 -0.4627  0.0021
  301MOL0     H39669   0.698   9.112   5.275 -0.0121 -1.8028  0.6694
  301MOL0     H39670   0.842   9.027   5.220 -1.5307 -1.6451  1.5130
  301MOL0     H39671   0.647   8.944   5.105  2.9288  0.6923  3.5514
  301MOL0     H39672   0.746   9.033   4.983  1.1048  0.1443  0.7808
  301MOL0     H39673   0.587   9.232   5.061  2.2840 -0.8004  2.7835
  301MOL0     H39674   0.476   9.093   5.107 -0.3261  1.2962 -0.2632
  301MOL0     H39675   0.432   9.205   4.887  1.3130  1.2268 -0.4430
  301MOL0     H39676   0.583   9.138   4.837  1.4303  0.2565  1.7569
  301MOL0     H39677   0.501   8.903   4.873  2.9268  2.7870 -2.2473
  301MOL0     H39678   0.396   8.985   4.755  2.5758  2.1827 -1.1578
  301MOL0     H39679   0.260   9.043   4.965  2.3827  1.7864 -3.2122
  301MOL0     H39680   0.364   8.924   5.045 -0.6487 -2.1478  0.0654
  301MOL0     H39681   0.149   8.839   4.974  3.0417 -1.1636  3.0735
  301MOL0     H39682   0.180   8.858   4.808  2.1512 -0.4363 -2.2581
  301MOL0     H39683   0.272   8.651   4.992 -0.9709 -0.2997 -0.1135
  301MOL0     H39684   0.402   8.696   4.872 -0.0063 -1.1720 -0.0609
  301MOL0     H39685   0.059   8.541   4.863  0.7412  0.9848  0.6566
  301MOL0     H39686  -0.020   8.485   4.511 -1.1658 -4.7629 -2.6787
  301MOL0     H39687  -0.064   8.398   4.655  1.3756  1.6426  0.5580
  301MOL0     H39688   0.018   8.216   4.531  0.1442  0.4912 -1.3229
  301MOL0     H39689   0.181   8.277   4.575  1.2671  2.0721  0.0470
  301MOL0     H39690   0.011   8.360   4.340 -0.5425  0.1878  1.8360
  301MOL0     H39691   0.177   8.414   4.366  2.1836 -1.9129  0.3386
  301MOL0     H39692   0.056   8.136   4.320 -0.0927 -0.8203  1.8872
  301MOL0     H39693   0.229   8.165   4.357 -0.0948 -0.2769 -1.0164
  301MOL0     H39694   0.399   8.230   4.269  0.2096  0.9301  0.0467
  301MOL0     H39695   0.612   8.322   4.155  1.7244  4.7318 -1.7997
  301MOL0     H39696   0.871   8.617   3.967 -1.2473 -0.2442 -1.1937
  301MOL0     H39697   1.085   8.674   3.848 -0.8628  0.1515  1.8386
  301MOL0     H39698   1.265   8.637   3.504 -0.9501  2.5613 -1.0149
  301MOL0     H39699   1.206   8.736   3.636 -0.2211  0.9685 -0.3412
  301MOL0     H39700   0.974   8.644   3.572  2.1747  1.0200  2.3740
  301MOL0     H39701   1.055   8.573   3.441  0.8061 -1.0718  1.7124
  301MOL0     H39702   0.954   8.780   3.352 -0.1804 -1.1107  0.8925
  301MOL0     H39703   1.132   8.791   3.356  0.7455 -1.6551  1.2634
  301MOL0     H39704   0.937   8.910   3.546 -0.5506 -1.9094 -1.9660
  301MOL0     H39705   1.106   8.925   3.575 -1.8225  1.7224  1.3396
  301MOL0     H39706   1.009   9.122   3.470 -0.3665 -0.0366  0.1091
  301MOL0     H39707   0.974   9.019   3.317 -0.0632  1.7595 -0.6842
  301MOL0     H39708   1.183   9.120   3.264 -1.4103 -2.2461 -0.3779
  301MOL0     H39709   1.242   8.976   3.337 -0.1245  0.8122 -0.1412
  301MOL0     H39710   1.224   9.222   3.495  1.2366  1.2076 -2.6594
  301MOL0     H39711   1.299   9.073   3.546  1.7911  1.1068  0.8932
  301MOL0     H39712   1.453   9.108   3.331 -0.6220 -0.1653 -0.1452
  301MOL0     H39713   1.478   9.195   3.488  0.8100  1.4211 -1.2912
  301MOL0     H39714   1.056   8.278   3.661 -1.2420  0.2721 -0.4194
  301MOL0     H39715   0.871   8.232   3.786 -2.1360  2.0573 -2.7171
  301MOL0     H39716   0.368   8.417   3.819  1.7841  0.6608  1.2593
  301MOL0     H39717   0.178   8.303   3.920  0.3031  0.0242  0.0281
  301MOL0     H39718   1.055   9.148   5.297  5.2600  1.0594  0.6429
  301MOL0     H39719   1.255   9.082   5.195  1.5976 -1.0900 -2.8201
  301MOL0     H39720   1.411   8.767   4.749 -2.0347  1.3089 -3.6383
  301MOL0     H39721   1.600   8.734   4.600  0.0218  0.2237 -1.1733
  301MOL0     H39722   1.810   8.763   4.423 -0.9132  3.0617 -0.4284
  301MOL0     H39723   1.811   8.722   4.600  1.7530  1.1686  2.6205
  301MOL0     H39724   2.030   8.822   4.627 -2.4678 -1.9969  1.5306
  301MOL0     H39725   2.026   8.706   4.489 -4.4765 -1.8854  0.2320
  301MOL0     H39726   2.101   8.988   4.494  0.4081 -0.7057  1.3197
  301MOL0     H39727   1.993   8.931   4.358  0.4815 -3.5275 -1.1455
  301MOL0     H39728   2.259   8.934   4.359 -1.6822  0.4303  0.6402
  301MOL0     H39729   2.250   8.780   4.430 -0.4646 -3.3344 -3.1274
  301MOL0     H39730   2.064   8.653   4.076 -1.0125 -1.0278  2.0245
  301MOL0     H39731   1.689   9.154   4.631 -1.0272 -0.0153 -0.4066
  301MOL0     H39732   1.504   9.187   4.786  2.7644 -0.2350  1.3791
  302MOL0     O39733   3.102   6.940   9.313  0.3000 -0.1824 -0.1811
  302MOL0     C39734   3.121   7.047   9.257 -0.9131  0.9754  0.9012
  302MOL0     O39735   3.032   7.150   9.232  0.3602 -0.6173  0.5189
  302MOL0     C39736   2.903   7.142   9.251  0.9427 -0.9018  0.0365
  302MOL0     C39737   2.830   7.051   9.335 -0.5413 -0.4614 -0.3410
  302MOL0     C39738   2.692   7.064   9.346 -0.4569 -0.3485 -0.2585
  302MOL0     C39739   2.624   7.174   9.291  0.2075 -0.4376 -0.1045
  302MOL0     O39740   2.496   7.209   9.312  0.4945 -0.4175  0.4634
  302MOL0     C39741   2.401   7.120   9.355  1.0983 -0.5109 -0.1663
  302MOL0     C39742   2.261   7.180   9.326  0.2264  0.3271  0.4189
  302MOL0     C39743   2.152   7.094   9.382 -0.2921  0.3957 -0.0735
  302MOL0     C39744   2.137   6.955   9.311  0.0225  0.5890  0.0598
  302MOL0     C39745   2.036   6.874   9.402 -0.8638  0.6910  0.6669
  302MOL0     C39746   2.003   6.732   9.352  0.0717 -0.0856  0.8066
  302MOL0     C39747   1.897   6.661   9.424  0.2812 -0.0677 -0.7725
  302MOL0     C39748   1.882   6.699   9.569 -0.2636 -0.0909  0.2202
  302MOL0     N39749   1.784   6.604   9.626 -0.7924 -0.0537  0.0625
  302MOL0     C39750   1.799   6.563   9.756 -0.1847  0.0680  0.0807
  302MOL0     C39751   1.688   6.493   9.777 -0.0003  0.0589 -0.0648
  302MOL0     C39752   1.632   6.429   9.905 -1.7035  0.4698  0.8905
  302MOL0     C39753   1.593   6.525  10.016 -0.0785  0.7815  0.3369
  302MOL0     C39754   1.519   6.441  10.120 -0.5680 -1.1599  0.6320
  302MOL0     C39755   1.372   6.431  10.068  0.1510  0.3540 -0.2591
  302MOL0     O39756   1.300   6.373  10.173 -0.4733 -0.1190 -0.3055
  302MOL0     C39757   1.166   6.369  10.153 -0.7147  0.5340 -0.0817
  302MOL0     C39758   1.087   6.255  10.132 -0.3022  0.7271 -0.4238
  302MOL0     C39759   0.948   6.266  10.110  0.0292 -1.4673 -0.1904
  302MOL0     C39760   0.889   6.390  10.122  0.7860 -0.7190 -0.7566
  302MOL0     C39761   0.736   6.400  10.135 -0.7831  0.1503 -0.5918
  302MOL0     O39762   0.687   6.523  10.164  0.0136  0.0076  0.1245
  302MOL0     C39763   0.558   6.523  10.164  0.2759  0.9682 -0.9757
  302MOL0     C39764   0.483   6.533  10.288  0.3655  0.0924  0.9368
  302MOL0     C39765   0.341   6.535  10.288 -0.3568 -0.2573 -0.4461
  302MOL0     C39766   0.269   6.538  10.165 -0.1344 -0.0682  0.2684
  302MOL0     O39767   0.136   6.563  10.139  0.1535 -0.3822 -0.3796
  302MOL0     C39768   0.049   6.625  10.245  0.0146 -0.2025  0.3759
  302MOL0     C39769  -0.059   6.701  10.169  0.5846  0.5706 -0.1514
  302MOL0     C39770  -0.133   6.622  10.061 -0.0586 -0.5972 -0.3536
  302MOL0     C39771  -0.257   6.545  10.107 -0.0109 -0.2013 -0.1969
  302MOL0     C39772  -0.371   6.640  10.152  0.4625  0.5635 -0.2021
  302MOL0     C39773  -0.472   6.565  10.245  0.7969 -0.9288  0.3519
  302MOL0     C39774  -0.552   6.666  10.327  0.2484 -0.4826 -0.0835
  302MOL0     C39775  -0.634   6.763  10.247 -0.3614  0.2544  0.4658
  302MOL0    Cl39776  -0.765   6.824  10.352 -0.0897  0.0120 -0.3513
  302MOL0     C39777   0.341   6.538  10.050  0.4256 -0.0936 -0.1095
  302MOL0     C39778   0.482   6.534  10.054 -0.1390 -0.1876 -0.6608
  302MOL0     O39779   0.671   6.302  10.112 -0.5308  0.3302  0.0216
  302MOL0     C39780   0.964   6.506  10.149  0.7055 -1.5316  0.1042
  302MOL0     C39781   1.102   6.495  10.163 -0.4688 -0.1384 -0.3349
  302MOL0     N39782   1.612   6.485   9.665 -0.1990  0.0604 -0.0133
  302MOL0     N39783   1.660   6.556   9.576 -0.2433  0.0860  0.2230
  302MOL0     C39784   2.698   7.265   9.211  0.4084 -0.7430 -0.1941
  302MOL0     C39785   2.835   7.258   9.202  0.6169  0.2346 -0.2710
  302MOL0     C39786   3.267   7.069   9.211  0.0524  0.7608  0.4922
  302MOL0     C39787   3.300   7.144   9.093  0.8086 -0.3389  0.1724
  302MOL0     C39788   3.437   7.179   9.067  0.0500  0.2545  0.0630
  302MOL0     C39789   3.540   7.120   9.139 -0.6000 -1.0042  0.0790
  302MOL0     O39790   3.671   7.160   9.118 -0.1090 -0.0970 -0.0818
  302MOL0     C39791   3.716   7.268   9.210 -0.5028  0.8093 -0.3000
  302MOL0     C39792   3.797   7.370   9.136  1.2831  0.1702  0.5921
  302MOL0     C39793   3.882   7.310   9.024  0.1162 -0.6916 -0.5517
  302MOL0     C39794   3.918   7.432   8.936  0.2095 -0.1941 -0.5250
  302MOL0     C39795   4.009   7.515   9.020  0.0284 -0.0197  0.1576
  302MOL0     C39796   4.087   7.584   9.075 -1.1058  0.2783 -0.7341
  302MOL0     C39797   3.506   7.047   9.254 -0.3964 -0.0530  0.4858
  302MOL0     C39798   3.373   7.017   9.286 -0.4712 -0.3250  0.3461
  302MOL0     H39799   2.871   6.973   9.397 -1.0045 -0.7393 -0.3765
  302MOL0     H39800   2.650   7.012   9.432  1.3056 -1.4140  0.0102
  302MOL0     H39801   2.412   7.098   9.462  1.2326 -3.0836 -0.6413
  302MOL0     H39802   2.418   7.021   9.312  2.1148  0.1086 -1.2285
  302MOL0     H39803   2.263   7.182   9.217  2.3695 -1.5937  0.3347
  302MOL0     H39804   2.266   7.286   9.351 -0.5233  1.5878 -3.9762
  302MOL0     H39805   2.053   7.140   9.371 -0.4999  1.0324  3.2759
  302MOL0     H39806   2.164   7.080   9.490 -0.3634  0.0689 -0.1064
  302MOL0     H39807   2.103   6.968   9.207  2.3389 -0.4816 -0.9045
  302MOL0     H39808   2.236   6.908   9.308 -1.7241 -3.4761 -1.8839
  302MOL0     H39809   1.946   6.934   9.421 -0.6016  0.7134  1.9443
  302MOL0     H39810   2.089   6.867   9.497 -1.1351  1.0939  0.8529
  302MOL0     H39811   2.100   6.683   9.351  0.7894  1.2896  0.2462
  302MOL0     H39812   1.972   6.735   9.247  1.9820 -0.5002  0.1965
  302MOL0     H39813   1.805   6.679   9.368  0.2793 -0.8277 -1.0194
  302MOL0     H39814   1.917   6.554   9.424  0.0272 -0.1929 -3.4365
  302MOL0     H39815   1.829   6.794   9.579  1.5629  0.7105  4.3885
  302MOL0     H39816   1.981   6.691   9.615  0.1082 -0.7955 -0.6764
  302MOL0     H39817   1.886   6.575   9.820 -2.3135  0.7165  3.0709
  302MOL0     H39818   1.703   6.365   9.958  3.1457  4.5815  0.1896
  302MOL0     H39819   1.548   6.368   9.872  0.2322 -0.5575 -2.6926
  302MOL0     H39820   1.546   6.619   9.986  2.8359  2.0737 -0.5608
  302MOL0     H39821   1.683   6.571  10.059  1.4256 -0.8632 -0.9115
  302MOL0     H39822   1.561   6.341  10.132 -0.4366 -1.6008 -2.7024
  302MOL0     H39823   1.517   6.499  10.213  2.5370 -0.0203  0.1075
  302MOL0     H39824   1.355   6.370   9.978 -1.3360  0.8690 -0.3453
  302MOL0     H39825   1.343   6.533  10.044  0.4956  0.6664  0.6191
  302MOL0     H39826   1.125   6.154  10.123  1.5847  1.4546 -0.9261
  302MOL0     H39827   0.885   6.179  10.095 -2.5622 -0.4754  3.4697
  302MOL0     H39828   0.540   6.541  10.380 -0.1124  1.6954  1.1220
  302MOL0     H39829   0.297   6.538  10.387  0.3483  3.2927 -0.1170
  302MOL0     H39830   0.115   6.695  10.297 -0.6241  0.2647  0.5714
  302MOL0     H39831   0.005   6.550  10.311 -0.6906  2.0446  2.6204
  302MOL0     H39832  -0.003   6.782  10.121  1.4226  0.1432  0.0810
  302MOL0     H39833  -0.115   6.763  10.239  1.4869  2.1068 -0.7190
  302MOL0     H39834  -0.061   6.554  10.015  1.6715  0.9420 -0.0399
  302MOL0     H39835  -0.171   6.700   9.994  0.1330  0.6184  0.8844
  302MOL0     H39836  -0.286   6.474  10.030 -2.1626 -2.1493  2.2406
  302MOL0     H39837  -0.227   6.482  10.191  0.8147 -0.3736 -0.6161
  302MOL0     H39838  -0.419   6.676  10.061 -0.1321  0.3384  0.0134
  302MOL0     H39839  -0.328   6.729  10.199  0.2205 -0.4412  2.0600
  302MOL0     H39840  -0.422   6.496  10.314  1.8395 -0.2000  0.3460
  302MOL0     H39841  -0.541   6.503  10.186  1.3015 -0.4014 -0.8364
  302MOL0     H39842  -0.631   6.604  10.371  0.7577 -2.6792 -2.0764
  302MOL0     H39843  -0.485   6.717  10.397 -1.1027  0.7082  0.3976
  302MOL0     H39844  -0.676   6.727  10.153  0.5104  1.9457 -0.6139
  302MOL0     H39845  -0.573   6.847  10.212 -0.1373 -0.6151 -1.2992
  302MOL0     H39846   0.282   6.538   9.959  0.1916 -0.4474  0.0372
  302MOL0     H39847   0.532   6.532   9.957  0.9564  1.5418 -0.1749
  302MOL0     H39848   0.914   6.602  10.156  0.6672 -1.1352 -3.7238
  302MOL0     H39849   1.159   6.583  10.191  2.7708 -1.4715 -2.0805
  302MOL0     H39850   2.656   7.361   9.182  1.6221 -0.4299 -1.0144
  302MOL0     H39851   2.901   7.326   9.149 -0.4765  1.1105 -0.5405
  302MOL0     H39852   3.223   7.183   9.028 -1.9851 -2.0195  2.2423
  302MOL0     H39853   3.474   7.239   8.985  2.6574 -2.2419 -0.7606
  302MOL0     H39854   3.780   7.219   9.284  2.6312  0.7016 -2.9077
  302MOL0     H39855   3.632   7.325   9.251  2.1061  4.9603 -0.1261
  302MOL0     H39856   3.718   7.424   9.083  0.5392 -0.4179  1.0881
  302MOL0     H39857   3.854   7.437   9.200  0.0307  2.2027 -0.3399
  302MOL0     H39858   3.832   7.238   8.959 -1.7872 -0.1017  0.1875
  302MOL0     H39859   3.962   7.256   9.076  0.3723  1.9511  2.0730
  302MOL0     H39860   3.969   7.407   8.843 -4.0283  0.6828 -3.4124
  302MOL0     H39861   3.823   7.484   8.918 -2.1343 -3.7138  0.6241
  302MOL0     H39862   4.170   7.638   9.115 -0.9055  0.4496 -1.3708
  302MOL0     H39863   3.582   7.005   9.318 -0.1654 -0.5339 -0.0958
  302MOL0     H39864   3.360   6.948   9.369 -2.0309 -1.4824 -0.7885
  303MOL0     O39865   3.271   6.088   2.490 -0.6393  0.2912  0.3855
  303MOL0     C39866   3.207   5.986   2.494 -1.3306 -0.6550 -0.3600
  303MOL0     O39867   3.256   5.859   2.513  0.0820  0.1524 -0.4087
  303MOL0     C39868   3.386   5.840   2.539  0.2453 -0.6251  0.5830
  303MOL0     C39869   3.476   5.902   2.462 -0.0386 -0.3097  0.0716
  303MOL0     C39870   3.613   5.861   2.480  0.5159  0.5952  0.1319
  303MOL0     C39871   3.649   5.751   2.567 -0.2636  0.0031  0.1014
  303MOL0     O39872   3.783   5.704   2.580  0.5185 -0.2224 -0.1046
  303MOL0     C39873   3.887   5.801   2.587  0.2385 -0.2144  0.7234
  303MOL0     C39874   3.925   5.817   2.737  0.0689 -0.7242 -0.0240
  303MOL0     C39875   4.060   5.861   2.747 -0.6837 -0.6705 -0.2616
  303MOL0     C39876   4.099   6.001   2.701 -0.5336  0.0313 -0.5976
  303MOL0     C39877   4.032   6.111   2.785  0.2392 -0.0339 -0.5809
  303MOL0     C39878   4.052   6.245   2.708  0.0386  0.4263 -0.0013
  303MOL0     C39879   4.045   6.354   2.814 -0.1860 -0.0220 -0.1981
  303MOL0     C39880   3.892   6.396   2.815 -0.0561 -0.0684 -0.0323
  303MOL0     N39881   3.864   6.489   2.702 -0.8733 -0.1388  0.4252
  303MOL0     C39882   3.773   6.471   2.602 -0.4439  0.0299  0.3874
  303MOL0     C39883   3.775   6.583   2.531 -1.0138 -0.2339 -0.6681
  303MOL0     C39884   3.671   6.629   2.432 -0.3484 -0.6276 -0.0268
  303MOL0     C39885   3.535   6.648   2.503  0.4792 -0.2713  0.0265
  303MOL0     C39886   3.427   6.712   2.405  0.2016  0.2988  0.7788
  303MOL0     C39887   3.277   6.730   2.448  0.1773  0.3994 -0.2386
  303MOL0     O39888   3.183   6.784   2.338  0.1419 -0.1143  0.0891
  303MOL0     C39889   3.045   6.797   2.372 -0.7632 -0.3835  0.1451
  303MOL0     C39890   2.959   6.826   2.263 -0.2718  0.7388  0.6372
  303MOL0     C39891   2.820   6.845   2.289  0.6711  1.2788  0.2601
  303MOL0     C39892   2.763   6.842   2.416 -0.5631  1.0058 -0.6506
  303MOL0     C39893   2.620   6.841   2.446  0.0083  0.3451 -0.0557
  303MOL0     O39894   2.574   6.814   2.571 -0.9794 -0.6501 -0.0092
  303MOL0     C39895   2.440   6.833   2.590 -0.6042 -0.5619  0.4223
  303MOL0     C39896   2.361   6.727   2.601 -0.3269  0.4369  0.5351
  303MOL0     C39897   2.230   6.744   2.641  0.3184  0.6192  0.2049
  303MOL0     C39898   2.171   6.865   2.671 -1.2068  0.5339 -0.3384
  303MOL0     O39899   2.042   6.869   2.704  0.5201  0.6391 -0.0414
  303MOL0     C39900   2.004   6.935   2.815  1.0936 -0.9567 -0.8298
  303MOL0     C39901   1.855   6.928   2.819  0.6205 -0.0463  0.8356
  303MOL0     C39902   1.786   7.006   2.711 -0.0213 -0.5763 -0.4314
  303MOL0     C39903   1.637   6.970   2.729 -0.2671  0.6706  0.6542
  303MOL0     C39904   1.554   7.061   2.635  0.2554  0.7322 -0.4194
  303MOL0     C39905   1.420   7.111   2.683  0.1451 -0.1471  0.7716
  303MOL0     C39906   1.337   7.173   2.574 -0.0811  0.1678 -0.2395
  303MOL0     C39907   1.258   7.290   2.632  0.2091  0.2013  0.2145
  303MOL0    Cl39908   1.149   7.250   2.772  0.0187  0.7544  0.0030
  303MOL0     C39909   2.259   6.977   2.665  0.8330  0.5261  0.0877
  303MOL0     C39910   2.393   6.961   2.624  0.2364 -0.2547 -1.8657
  303MOL0     O39911   2.552   6.889   2.356 -0.7057  0.2904  0.7549
  303MOL0     C39912   2.854   6.828   2.530 -0.7076  0.4967 -0.2119
  303MOL0     C39913   2.990   6.804   2.504 -0.1450  0.4021 -0.4116
  303MOL0     N39914   3.864   6.675   2.588  0.8332 -0.3698 -0.9756
  303MOL0     N39915   3.915   6.620   2.690 -0.6366  0.5182 -0.6050
  303MOL0     C39916   3.552   5.694   2.642  0.3683  0.6057  0.4033
  303MOL0     C39917   3.425   5.732   2.622  0.3144  0.6093 -0.9006
  303MOL0     C39918   3.062   5.996   2.460  0.2371 -0.5711  0.0293
  303MOL0     C39919   2.998   6.118   2.489  0.6899  0.1434 -0.5338
  303MOL0     C39920   2.858   6.124   2.467 -0.3135 -0.0318  0.1924
  303MOL0     C39921   2.786   6.021   2.403  0.8972 -0.3284  0.0988
  303MOL0     O39922   2.649   6.028   2.388 -0.4563 -1.2898  0.4394
  303MOL0     C39923   2.593   5.980   2.262 -0.1002  0.9736 -0.5147
  303MOL0     C39924   2.445   6.035   2.239  0.3291 -0.4411 -0.2676
  303MOL0     C39925   2.343   6.014   2.350  0.2663  0.3067 -0.5983
  303MOL0     C39926   2.329   5.860   2.382 -0.1419 -0.4679  0.1819
  303MOL0     C39927   2.262   5.792   2.267  0.4404  0.1291  0.3247
  303MOL0     C39928   2.193   5.735   2.183  0.2064 -0.2808 -0.4562
  303MOL0     C39929   2.856   5.901   2.376 -0.1755  0.0818  0.1903
  303MOL0     C39930   2.987   5.882   2.416 -0.4378  0.7320 -0.7735
  303MOL0     H39931   3.453   5.987   2.398  0.0300 -0.3732 -0.0380
  303MOL0     H39932   3.688   5.901   2.412  0.9126  0.8761  0.7255
  303MOL0     H39933   3.872   5.900   2.542  0.0802 -0.1989  0.8098
  303MOL0     H39934   3.973   5.758   2.534  1.0701  1.9315  0.2187
  303MOL0     H39935   3.927   5.717   2.782  2.8355  0.4865  2.9215
  303MOL0     H39936   3.860   5.879   2.800  0.1406 -0.5785 -0.0925
  303MOL0     H39937   4.122   5.794   2.687 -0.3585 -1.4470  0.9315
  303MOL0     H39938   4.101   5.860   2.848  3.1630  3.9668 -1.3965
  303MOL0     H39939   4.207   6.021   2.703 -0.3792 -0.4555 -2.4481
  303MOL0     H39940   4.065   6.016   2.598  3.0069  1.2213 -1.7671
  303MOL0     H39941   4.076   6.114   2.885  0.6614  1.8777 -0.7822
  303MOL0     H39942   3.924   6.093   2.786 -0.1805  2.0989 -1.4980
  303MOL0     H39943   3.986   6.264   2.623 -0.0444 -0.3556 -0.1135
  303MOL0     H39944   4.157   6.247   2.677  0.6588 -3.1242  1.4408
  303MOL0     H39945   4.090   6.331   2.912 -0.6179  4.4504  1.2754
  303MOL0     H39946   4.102   6.441   2.780  0.6819  0.0770  1.4138
  303MOL0     H39947   3.872   6.442   2.912  4.5440 -2.7594  2.5578
  303MOL0     H39948   3.827   6.307   2.813 -0.7675  0.4456 -0.9851
  303MOL0     H39949   3.712   6.386   2.572  3.7117 -2.1697 -2.9445
  303MOL0     H39950   3.675   6.561   2.346 -0.6193  1.0595 -1.4330
  303MOL0     H39951   3.720   6.721   2.399  0.3793 -0.4909  1.3833
  303MOL0     H39952   3.550   6.712   2.590 -0.6782  5.3791 -3.4118
  303MOL0     H39953   3.512   6.546   2.535  1.4756 -0.6749 -0.4894
  303MOL0     H39954   3.461   6.810   2.373 -0.3354 -0.1941 -1.4585
  303MOL0     H39955   3.428   6.641   2.321  0.4913  0.3347  0.7503
  303MOL0     H39956   3.265   6.793   2.537 -1.9346 -1.8885  1.2018
  303MOL0     H39957   3.235   6.631   2.468  1.1378  0.0071 -0.1106
  303MOL0     H39958   3.002   6.817   2.164 -0.6712 -1.9724  0.6175
  303MOL0     H39959   2.770   6.870   2.196  3.1415 -1.8520 -2.1541
  303MOL0     H39960   2.409   6.631   2.581 -2.3807 -0.8792  1.6021
  303MOL0     H39961   2.174   6.654   2.662  1.9355 -0.1486  1.4109
  303MOL0     H39962   2.034   7.040   2.818  0.6117 -0.8246  1.7519
  303MOL0     H39963   2.032   6.896   2.914 -0.2890  2.3165  1.0202
  303MOL0     H39964   1.827   6.977   2.914 -0.0106  3.3365 -0.9201
  303MOL0     H39965   1.826   6.823   2.811  1.8874 -0.5380  2.3076
  303MOL0     H39966   1.829   6.967   2.617  0.3605 -1.3320  0.0458
  303MOL0     H39967   1.801   7.115   2.712  1.2751 -0.7280  1.2300
  303MOL0     H39968   1.621   6.863   2.715 -0.9438  1.0206 -1.5506
  303MOL0     H39969   1.607   7.005   2.829 -1.1846 -3.3145  1.9389
  303MOL0     H39970   1.528   6.999   2.549  0.3306  0.6812 -0.4055
  303MOL0     H39971   1.607   7.137   2.577  4.3071 -3.0723 -2.2956
  303MOL0     H39972   1.435   7.180   2.766  0.4503 -1.6484  2.0206
  303MOL0     H39973   1.370   7.023   2.725 -1.2095  0.3701  0.3135
  303MOL0     H39974   1.399   7.214   2.493  1.1616  1.5647  1.3384
  303MOL0     H39975   1.275   7.092   2.533  0.2159 -0.2430  0.1092
  303MOL0     H39976   1.196   7.341   2.559  0.9391 -0.0254 -0.5838
  303MOL0     H39977   1.327   7.368   2.665 -1.3478  1.9126 -0.3963
  303MOL0     H39978   2.232   7.079   2.690 -1.5653  0.8654 -3.2125
  303MOL0     H39979   2.473   7.035   2.631  0.0525 -0.1543 -0.6782
  303MOL0     H39980   2.819   6.816   2.633 -2.0068  3.1506 -0.2594
  303MOL0     H39981   3.053   6.809   2.593  0.1315  3.5267 -0.6653
  303MOL0     H39982   3.576   5.616   2.714  2.1376 -2.4770 -3.1454
  303MOL0     H39983   3.352   5.667   2.669  2.8756 -0.1762  2.4009
  303MOL0     H39984   3.046   6.208   2.526  0.3824 -0.2585  0.8771
  303MOL0     H39985   2.801   6.210   2.501  1.8065  2.1285 -1.4306
  303MOL0     H39986   2.600   5.871   2.257  1.3964  0.8854  1.8444
  303MOL0     H39987   2.665   6.003   2.183  0.9540  0.6771  0.3213
  303MOL0     H39988   2.452   6.144   2.232  0.1977 -0.3036  1.3072
  303MOL0     H39989   2.407   6.003   2.142  2.3129 -0.7904 -0.9755
  303MOL0     H39990   2.244   6.049   2.320 -0.9362 -2.9312 -0.8315
  303MOL0     H39991   2.369   6.070   2.440 -1.3649  1.6440 -0.9084
  303MOL0     H39992   2.425   5.813   2.406 -0.7785 -2.0257 -0.2343
  303MOL0     H39993   2.251   5.845   2.457 -1.4524 -1.5313 -1.3193
  303MOL0     H39994   2.122   5.697   2.112  0.8061 -0.3072 -1.0492
  303MOL0     H39995   2.802   5.821   2.326 -2.0148  1.6783 -0.5182
  303MOL0     H39996   3.033   5.784   2.422 -1.8563  0.1549  2.5849
  304MOL0     O39997   9.389   3.510   5.241 -0.8743  0.0396  0.3270
  304MOL0     C39998   9.424   3.399   5.267 -0.3571 -0.0603  0.3706
  304MOL0     O39999   9.362   3.310   5.347  0.6283  0.7092  0.7736
  304MOL0     C40000   9.263   3.361   5.430 -0.4161  0.9063  0.6104
  304MOL0     C40001   9.259   3.316   5.566 -0.1674  0.2411  0.9709
  304MOL0     C40002   9.144   3.341   5.643 -0.1786  1.3510  0.1294
  304MOL0     C40003   9.040   3.416   5.588  0.1855  0.2104  0.5055
  304MOL0     O40004   8.921   3.431   5.643 -0.4173  0.0716 -0.0497
  304MOL0     C40005   8.905   3.467   5.781 -0.1706  0.1125 -0.3675
  304MOL0     C40006   8.755   3.458   5.821 -0.2802 -0.3011 -0.4557
  304MOL0     C40007   8.742   3.533   5.955  0.3796 -0.2494 -0.9513
  304MOL0     C40008   8.622   3.490   6.045 -0.5473  0.2358  0.6722
  304MOL0     C40009   8.582   3.606   6.134  0.0538  0.7130 -0.0261
  304MOL0     C40010   8.695   3.629   6.233 -0.3497 -1.1076 -0.6649
  304MOL0     C40011   8.651   3.717   6.355  0.5266  0.2633 -0.2930
  304MOL0     C40012   8.599   3.624   6.468 -0.2749  0.5581 -0.0419
  304MOL0     N40013   8.552   3.710   6.580  0.4833 -0.6165  0.1743
  304MOL0     C40014   8.620   3.765   6.688  0.6479  0.1451  0.3112
  304MOL0     C40015   8.543   3.875   6.712  0.4557 -0.4818  0.0993
  304MOL0     C40016   8.569   3.977   6.817  0.8067 -0.1410 -1.0197
  304MOL0     C40017   8.697   4.053   6.784 -0.0624  0.1372 -0.4162
  304MOL0     C40018   8.777   4.103   6.902 -0.3813  0.8548  0.3106
  304MOL0     C40019   8.842   3.988   6.980 -1.0353 -0.9122  0.6228
  304MOL0     O40020   8.938   3.942   6.891 -0.1428 -0.2305  0.1415
  304MOL0     C40021   9.019   3.836   6.909  0.4942  0.3537 -0.3782
  304MOL0     C40022   9.089   3.786   6.796 -0.6464 -0.3314  0.1888
  304MOL0     C40023   9.181   3.682   6.803 -0.0612 -0.1739 -0.3985
  304MOL0     C40024   9.196   3.606   6.921 -0.0726 -1.2735  0.0376
  304MOL0     C40025   9.283   3.491   6.930 -0.1625 -0.4545  0.1757
  304MOL0     O40026   9.263   3.401   7.034  0.4761 -0.8840  1.0054
  304MOL0     C40027   9.337   3.282   7.040 -0.1943 -0.0290 -0.1092
  304MOL0     C40028   9.473   3.289   7.060  0.4100 -0.5009  0.1351
  304MOL0     C40029   9.553   3.181   7.043 -0.0098  0.9209  0.3508
  304MOL0     C40030   9.502   3.050   7.043  0.1534 -0.0460 -0.5066
  304MOL0     O40031   9.578   2.927   7.053 -0.0709 -0.7684  0.3299
  304MOL0     C40032   9.688   2.913   6.966 -0.3533  0.5588  0.4896
  304MOL0     C40033   9.760   2.775   7.005  0.2234  0.4392  0.1219
  304MOL0     C40034   9.686   2.652   6.938 -0.0880  0.0174  0.6532
  304MOL0     C40035   9.721   2.515   6.994 -0.0807  0.0662  0.4995
  304MOL0     C40036   9.619   2.408   6.963  0.3682 -0.2564 -0.2863
  304MOL0     C40037   9.643   2.281   7.050 -0.3692  0.6930  0.9307
  304MOL0     C40038   9.757   2.188   6.994 -0.4319 -0.0731  0.1678
  304MOL0     C40039   9.759   2.050   7.057 -0.0094 -0.7877  0.4028
  304MOL0    Cl40040   9.630   1.950   6.972 -0.0858 -0.0923  0.6340
  304MOL0     C40041   9.365   3.036   7.031 -0.4596 -0.4647  0.0044
  304MOL0     C40042   9.282   3.150   7.012 -0.5167  0.1281 -0.4620
  304MOL0     O40043   9.366   3.484   6.838 -0.1887  0.6374  0.3919
  304MOL0     C40044   9.120   3.650   7.029  0.3919 -0.4941 -0.1736
  304MOL0     C40045   9.040   3.753   7.030 -0.3169  0.1067 -0.1245
  304MOL0     N40046   8.438   3.886   6.623 -0.7432 -0.0717  0.1303
  304MOL0     N40047   8.438   3.783   6.553 -0.6319  0.4240  0.9992
  304MOL0     C40048   9.041   3.456   5.451  0.5292  0.3451  0.2390
  304MOL0     C40049   9.149   3.421   5.370  0.0818  0.5718  0.7233
  304MOL0     C40050   9.548   3.348   5.196 -0.6978  0.5190  0.3632
  304MOL0     C40051   9.611   3.406   5.082  0.2422 -1.1316 -0.3393
  304MOL0     C40052   9.723   3.350   5.019 -0.9476 -0.2880 -0.1086
  304MOL0     C40053   9.774   3.224   5.057  0.1968 -0.6602 -0.5805
  304MOL0     O40054   9.865   3.147   4.997 -0.9138 -0.2829  0.0817
  304MOL0     C40055   9.940   3.185   4.876 -0.0286  0.3214 -0.5352
  304MOL0     C40056  10.053   3.082   4.844 -0.0903 -0.8836 -0.2599
  304MOL0     C40057  10.134   3.144   4.725  0.8153  0.2501  0.1519
  304MOL0     C40058  10.278   3.088   4.714 -0.4201  0.2087 -1.4227
  304MOL0     C40059  10.287   2.950   4.663 -0.0165 -0.1772 -0.2651
  304MOL0     C40060  10.295   2.835   4.637  0.1459 -0.6004  0.3181
  304MOL0     C40061   9.729   3.173   5.179 -0.3136 -0.2259 -0.2613
  304MOL0     C40062   9.614   3.233   5.243  0.0006 -0.5264 -0.6333
  304MOL0     H40063   9.338   3.251   5.602  1.5371  1.2112 -0.8231
  304MOL0     H40064   9.140   3.300   5.743  0.0169  0.3148 -0.2784
  304MOL0     H40065   8.931   3.572   5.798 -2.8701  0.6406  1.0652
  304MOL0     H40066   8.961   3.394   5.839  0.6343 -0.9462 -2.3683
  304MOL0     H40067   8.731   3.351   5.832  1.8578 -0.6347  1.6808
  304MOL0     H40068   8.702   3.512   5.742  3.1277  1.4288 -1.7314
  304MOL0     H40069   8.720   3.638   5.936  1.2748 -0.2443 -2.0323
  304MOL0     H40070   8.835   3.529   6.013 -1.6653  2.0560  2.9438
  304MOL0     H40071   8.536   3.458   5.986  1.5318  2.2920 -4.0147
  304MOL0     H40072   8.656   3.403   6.102 -0.3090  0.3351  0.6834
  304MOL0     H40073   8.495   3.557   6.179 -1.7971  2.0006 -2.0492
  304MOL0     H40074   8.555   3.698   6.083  1.6162  1.3654  0.2607
  304MOL0     H40075   8.778   3.680   6.184  1.3109 -0.8241  2.2058
  304MOL0     H40076   8.733   3.534   6.273 -1.1001 -0.1711  2.5097
  304MOL0     H40077   8.733   3.779   6.389  0.8811 -1.4626  2.2598
  304MOL0     H40078   8.565   3.771   6.312  1.6391  3.5257  1.3034
  304MOL0     H40079   8.676   3.549   6.490  0.4399  0.7085 -1.8071
  304MOL0     H40080   8.513   3.574   6.424  0.6385  1.1338 -2.7098
  304MOL0     H40081   8.713   3.736   6.736  0.5792 -4.1262 -1.6604
  304MOL0     H40082   8.584   3.939   6.918 -1.0266  2.1573  0.2257
  304MOL0     H40083   8.482   4.043   6.820  0.2384 -0.3545 -5.4710
  304MOL0     H40084   8.673   4.139   6.721 -1.7964  1.0263  1.3426
  304MOL0     H40085   8.768   4.001   6.719  1.0470  0.0085  0.8667
  304MOL0     H40086   8.841   4.186   6.872 -0.9773  0.5280 -2.0393
  304MOL0     H40087   8.702   4.141   6.973 -0.2458  2.0222 -0.1557
  304MOL0     H40088   8.775   3.905   7.006 -1.0425 -2.7244 -4.2011
  304MOL0     H40089   8.896   4.030   7.066 -0.8331  3.1785 -1.2599
  304MOL0     H40090   9.072   3.843   6.706 -2.4987 -0.7594  0.2366
  304MOL0     H40091   9.246   3.641   6.727 -0.3490 -1.0719 -0.1680
  304MOL0     H40092   9.512   3.388   7.086  0.3944 -0.4212 -0.1406
  304MOL0     H40093   9.661   3.185   7.036  0.0078 -0.5650 -4.9418
  304MOL0     H40094   9.747   3.003   6.989 -0.4034  0.9944 -0.9792
  304MOL0     H40095   9.669   2.926   6.859  2.7647 -1.0563 -0.3869
  304MOL0     H40096   9.788   2.758   7.109  0.5039 -1.3235 -0.2074
  304MOL0     H40097   9.860   2.772   6.961 -0.0087 -2.8670 -0.4434
  304MOL0     H40098   9.687   2.660   6.829  0.3820 -1.1684  0.5581
  304MOL0     H40099   9.581   2.663   6.968  0.7564 -1.1413  4.6194
  304MOL0     H40100   9.813   2.476   6.950 -0.4398 -2.4150  1.7638
  304MOL0     H40101   9.743   2.507   7.101 -1.9018  0.1896  0.9321
  304MOL0     H40102   9.642   2.390   6.858 -0.6962  2.7145 -1.1255
  304MOL0     H40103   9.513   2.437   6.968  0.6070  0.6360 -0.2367
  304MOL0     H40104   9.548   2.228   7.037 -0.1699 -0.1675  2.6902
  304MOL0     H40105   9.654   2.312   7.154  0.0022  0.9210  0.8215
  304MOL0     H40106   9.757   2.169   6.886  2.3779  1.5241 -0.1768
  304MOL0     H40107   9.858   2.225   7.010 -0.0580 -1.2704  0.7297
  304MOL0     H40108   9.734   2.053   7.163  0.6270  0.9345  0.5356
  304MOL0     H40109   9.864   2.021   7.047  1.3432  3.0907  1.4611
  304MOL0     H40110   9.329   2.934   7.034  1.4017 -1.1364  0.5478
  304MOL0     H40111   9.176   3.141   6.992 -0.4694 -1.4862 -0.1007
  304MOL0     H40112   9.135   3.608   7.128 -2.5742 -1.0887  0.1155
  304MOL0     H40113   8.996   3.767   7.128 -0.2407 -0.5107  0.0009
  304MOL0     H40114   8.960   3.517   5.410 -1.3275 -1.4969  0.9723
  304MOL0     H40115   9.148   3.448   5.265  2.0966  2.0728  1.0432
  304MOL0     H40116   9.566   3.496   5.042 -0.8945 -0.7530  1.6600
  304MOL0     H40117   9.761   3.395   4.928  4.3994 -3.3356  0.2023
  304MOL0     H40118   9.991   3.281   4.891 -1.8501  1.8620 -3.2977
  304MOL0     H40119   9.874   3.198   4.789 -1.1666  0.5902  0.3520
  304MOL0     H40120  10.110   3.075   4.937 -2.2881  2.4734  1.5311
  304MOL0     H40121  10.014   2.983   4.817 -0.8687 -1.2694  2.0381
  304MOL0     H40122  10.145   3.253   4.733 -0.5225  0.3479  0.9920
  304MOL0     H40123  10.072   3.133   4.635 -0.9393  0.4921  1.2845
  304MOL0     H40124  10.314   3.162   4.642 -2.2440 -0.5006 -3.1434
  304MOL0     H40125  10.321   3.100   4.813 -3.2693  0.9695 -0.1646
  304MOL0     H40126  10.309   2.729   4.623 -0.1356 -0.5810 -0.1407
  304MOL0     H40127   9.773   3.078   5.207 -2.2282 -0.7795  1.0453
  304MOL0     H40128   9.582   3.186   5.336 -1.3042  1.6834  0.1139
  305MOL0     O40129  11.209   9.708   9.074 -0.3978 -0.7568  0.4951
  305MOL0     C40130  11.325   9.684   9.105 -0.1518  0.7198  0.3693
  305MOL0     O40131  11.366   9.603   9.213 -0.4369  0.2708 -0.3206
  305MOL0     C40132  11.262   9.568   9.299  0.2188  0.6330  0.5235
  305MOL0     C40133  11.186   9.646   9.384 -0.2230 -0.2618 -0.6753
  305MOL0     C40134  11.088   9.597   9.479 -1.5252 -0.8289 -0.7462
  305MOL0     C40135  11.057   9.458   9.473  0.0676 -0.2707 -0.1095
  305MOL0     O40136  10.963   9.422   9.562  0.3552 -0.3274 -0.5994
  305MOL0     C40137  10.940   9.277   9.576  0.4143 -0.2561 -0.4072
  305MOL0     C40138  10.844   9.262   9.694 -0.6937  0.3744  0.6078
  305MOL0     C40139  10.713   9.337   9.678  0.2955  0.9568 -0.2719
  305MOL0     C40140  10.615   9.295   9.796  0.0897 -0.4240  0.1480
  305MOL0     C40141  10.464   9.322   9.748  0.0621  0.0067 -0.0150
  305MOL0     C40142  10.442   9.476   9.780 -0.5177  0.8351  0.0195
  305MOL0     C40143  10.310   9.529   9.726  0.4381  0.5558 -0.0940
  305MOL0     C40144  10.305   9.686   9.753 -1.0276 -0.1597 -0.2308
  305MOL0     N40145  10.243   9.748   9.640  0.7094  0.0738 -0.3245
  305MOL0     C40146  10.114   9.763   9.619  0.0899 -0.8864  0.9956
  305MOL0     C40147  10.107   9.806   9.490  0.2031  0.1270  1.0852
  305MOL0     C40148   9.976   9.835   9.422 -0.2862 -0.3239 -0.0174
  305MOL0     C40149   9.985   9.918   9.290 -0.0005 -0.3815 -0.3988
  305MOL0     C40150   9.863   9.890   9.196 -1.3486  0.0374  0.0495
  305MOL0     C40151   9.894   9.940   9.053  0.3695 -0.1717 -0.8466
  305MOL0     O40152   9.786   9.885   8.972  0.4163  0.6480  0.3365
  305MOL0     C40153   9.653   9.915   9.002 -0.0328  0.2846 -0.3385
  305MOL0     C40154   9.559   9.827   8.961  0.2444 -0.3351  0.2212
  305MOL0     C40155   9.427   9.858   8.948  0.0555  0.3491  0.7753
  305MOL0     C40156   9.382   9.993   8.984 -0.7780 -0.9313  0.1421
  305MOL0     C40157   9.243  10.022   8.980 -0.5280 -1.5178 -0.2064
  305MOL0     O40158   9.166   9.941   8.913 -0.7775  0.3289  0.4185
  305MOL0     C40159   9.034   9.981   8.889 -0.3436  0.4766 -0.0066
  305MOL0     C40160   8.930   9.984   8.984  0.7394  0.4499  0.5823
  305MOL0     C40161   8.791  10.004   8.951 -0.6529 -0.3488 -0.3082
  305MOL0     C40162   8.763  10.031   8.815 -0.0716  0.7058 -0.0229
  305MOL0     O40163   8.633  10.059   8.788  0.1000 -1.0966 -0.6596
  305MOL0     C40164   8.614  10.170   8.705 -0.6640  0.9731  0.0642
  305MOL0     C40165   8.470  10.217   8.731  0.3133  0.1274 -0.1580
  305MOL0     C40166   8.431  10.319   8.619  0.1510 -0.2114  0.3665
  305MOL0     C40167   8.295  10.395   8.634  0.7725 -0.2388 -0.1731
  305MOL0     C40168   8.188  10.306   8.585  0.0708  0.4818 -0.2144
  305MOL0     C40169   8.042  10.365   8.610 -0.4148  0.4151  0.3886
  305MOL0     C40170   7.928  10.299   8.523  1.2532  0.4776 -0.6228
  305MOL0     C40171   7.839  10.213   8.613 -0.6669  0.2775 -1.0822
  305MOL0    Cl40172   7.721  10.314   8.707 -0.0209 -0.0808  0.3206
  305MOL0     C40173   8.865  10.043   8.726  0.4142  0.5374 -0.0081
  305MOL0     C40174   8.994  10.022   8.758  0.8331 -0.5173 -0.4310
  305MOL0     O40175   9.196  10.118   9.042  0.3796 -0.1146 -0.2713
  305MOL0     C40176   9.478  10.086   9.020  0.2336 -0.8779 -0.1305
  305MOL0     C40177   9.610  10.048   9.036  0.3958 -0.2284  0.0908
  305MOL0     N40178  10.225   9.782   9.418 -0.4677  0.5289 -0.2760
  305MOL0     N40179  10.300   9.759   9.515 -0.3180  0.2920  0.4226
  305MOL0     C40180  11.137   9.367   9.394  0.8302 -0.3858  0.6144
  305MOL0     C40181  11.226   9.428   9.299 -0.1486  0.2882 -0.1861
  305MOL0     C40182  11.444   9.752   9.049  0.0839 -0.5882 -0.6058
  305MOL0     C40183  11.425   9.861   8.962 -0.1761  0.2431  1.1612
  305MOL0     C40184  11.534   9.933   8.915 -0.3648  0.2368 -0.4755
  305MOL0     C40185  11.669   9.901   8.957  0.4180  0.1046 -0.1653
  305MOL0     O40186  11.763   9.984   8.917 -0.3758 -0.4409  0.2969
  305MOL0     C40187  11.908   9.962   8.939  0.0666  1.1121 -0.6594
  305MOL0     C40188  11.986   9.845   8.867 -0.2781 -0.2777 -0.0254
  305MOL0     C40189  12.006   9.869   8.720  0.1753  0.1472  0.7794
  305MOL0     C40190  11.897   9.830   8.628 -0.3156  0.5401  0.5759
  305MOL0     C40191  11.940   9.830   8.483 -0.4662 -0.1073 -0.4203
  305MOL0     C40192  11.950   9.836   8.364  0.1051 -0.0913  0.3666
  305MOL0     C40193  11.684   9.788   9.036 -0.6232 -0.0065  0.2372
  305MOL0     C40194  11.575   9.725   9.097  0.0270  0.4140 -0.0644
  305MOL0     H40195  11.204   9.754   9.385  1.3305 -0.4921  0.6432
  305MOL0     H40196  11.025   9.651   9.548 -0.3542 -1.3778  0.8264
  305MOL0     H40197  11.036   9.231   9.602  1.5991  1.2441 -1.8729
  305MOL0     H40198  10.891   9.248   9.483 -3.0673  2.1528  0.4867
  305MOL0     H40199  10.887   9.305   9.785 -0.8519 -0.3738  1.0437
  305MOL0     H40200  10.824   9.156   9.709  2.7930 -0.6834 -1.2188
  305MOL0     H40201  10.662   9.324   9.582 -1.5545 -0.7123  0.8243
  305MOL0     H40202  10.736   9.442   9.698  1.1485  1.0140 -1.4982
  305MOL0     H40203  10.627   9.188   9.815 -1.5680 -0.8502 -1.0032
  305MOL0     H40204  10.641   9.346   9.890  0.0354 -1.0115  0.4822
  305MOL0     H40205  10.389   9.266   9.805 -0.9420  0.9581 -0.3533
  305MOL0     H40206  10.455   9.305   9.640  0.8477 -1.8223  0.1616
  305MOL0     H40207  10.521   9.531   9.729  1.3474 -2.8711 -1.4418
  305MOL0     H40208  10.445   9.502   9.886 -1.2788  3.1594 -0.4710
  305MOL0     H40209  10.325   9.512   9.619  3.8861  2.2683 -0.0283
  305MOL0     H40210  10.222   9.471   9.755  1.1590 -0.2641  0.4917
  305MOL0     H40211  10.395   9.740   9.781 -2.2251  0.6504  2.3708
  305MOL0     H40212  10.245   9.707   9.842 -1.3286 -0.5081 -0.3443
  305MOL0     H40213  10.030   9.749   9.686 -0.2392 -5.8522 -0.1082
  305MOL0     H40214   9.908   9.890   9.488 -0.2000  1.6885 -1.4881
  305MOL0     H40215   9.928   9.738   9.410 -0.1050 -0.3070 -0.9417
  305MOL0     H40216  10.085   9.907   9.248  0.8395 -1.2918  1.7050
  305MOL0     H40217   9.990  10.022   9.323  4.7544 -0.9774  1.5413
  305MOL0     H40218   9.845   9.783   9.209  0.8661 -0.3208  0.7541
  305MOL0     H40219   9.778   9.948   9.233 -1.7033  0.5777 -1.5437
  305MOL0     H40220   9.986   9.891   9.020  0.3963 -1.5575  1.1068
  305MOL0     H40221   9.906  10.048   9.050 -0.8505 -0.0431 -1.9295
  305MOL0     H40222   9.593   9.736   8.912  1.5054 -0.5694  1.4651
  305MOL0     H40223   9.346   9.793   8.916 -0.2252  0.2798  1.6096
  305MOL0     H40224   8.957   9.971   9.089  1.4657 -3.3753  0.0922
  305MOL0     H40225   8.706  10.016   9.017  0.8775 -0.5874  1.8359
  305MOL0     H40226   8.626  10.154   8.597 -1.2163 -1.2848  0.2770
  305MOL0     H40227   8.691  10.244   8.727  1.1962 -0.2786 -1.8641
  305MOL0     H40228   8.462  10.262   8.830  1.7839  0.6486 -0.2459
  305MOL0     H40229   8.389  10.145   8.735  0.2503  0.1656 -0.6880
  305MOL0     H40230   8.428  10.278   8.517 -0.6736  2.1953 -0.6379
  305MOL0     H40231   8.510  10.394   8.630  1.4676 -1.8176  2.8158
  305MOL0     H40232   8.284  10.414   8.741 -0.5293 -1.6568 -0.0209
  305MOL0     H40233   8.278  10.484   8.573 -0.0475  0.2533  0.7593
  305MOL0     H40234   8.194  10.213   8.641  1.6678  2.0503  2.4028
  305MOL0     H40235   8.215  10.300   8.479 -0.5588  0.0959 -0.3592
  305MOL0     H40236   8.044  10.466   8.567 -0.5659  0.8843  1.4410
  305MOL0     H40237   8.015  10.375   8.716 -1.4973  1.5525  0.0272
  305MOL0     H40238   7.868  10.378   8.478  1.4466 -0.6437 -3.0020
  305MOL0     H40239   7.959  10.236   8.440 -2.8732 -1.3780 -0.9909
  305MOL0     H40240   7.900  10.150   8.677  1.6397 -0.5765 -3.9137
  305MOL0     H40241   7.793  10.145   8.540  0.6682 -0.2737 -1.4435
  305MOL0     H40242   8.832  10.071   8.626 -0.3930  0.2215  0.1616
  305MOL0     H40243   9.068  10.027   8.679  1.3113  0.1633  0.0514
  305MOL0     H40244   9.432  10.175   9.061  0.1292 -1.5119  1.1805
  305MOL0     H40245   9.680  10.113   9.086  1.3168 -2.8004  2.4117
  305MOL0     H40246  11.120   9.261   9.385  1.7828 -0.4445 -1.0516
  305MOL0     H40247  11.285   9.365   9.233 -1.2184 -1.3461  0.3362
  305MOL0     H40248  11.323   9.893   8.939 -0.8388 -0.9026  2.3720
  305MOL0     H40249  11.535  10.018   8.847 -0.4725  1.2682  0.7796
  305MOL0     H40250  11.921   9.936   9.045 -1.2064 -0.0133 -0.7494
  305MOL0     H40251  11.958  10.057   8.917  2.9211 -0.3329 -0.9662
  305MOL0     H40252  12.087   9.844   8.909  0.5264 -2.0294 -1.8400
  305MOL0     H40253  11.931   9.751   8.882 -3.8087  1.9774  2.8883
  305MOL0     H40254  12.091   9.813   8.679 -0.3462  0.3966 -0.7097
  305MOL0     H40255  12.012   9.976   8.699 -0.4286  0.0387  0.0134
  305MOL0     H40256  11.878   9.724   8.645  0.5478  0.2733 -0.0810
  305MOL0     H40257  11.804   9.888   8.633 -0.8339 -0.2078 -0.2054
  305MOL0     H40258  11.954   9.855   8.259 -1.5612  1.5747  0.5530
  305MOL0     H40259  11.784   9.768   9.072  0.3731  3.6276 -0.1521
  305MOL0     H40260  11.607   9.646   9.165  0.5700 -0.8767 -1.7532
  306MOL0     O40261   4.504   0.174   0.911 -0.1646  0.1087  0.1474
  306MOL0     C40262   4.515   0.176   0.788  0.1153  0.2386  1.2818
  306MOL0     O40263   4.611   0.242   0.715  0.5103 -0.2466 -0.0529
  306MOL0     C40264   4.714   0.322   0.767 -0.2422  0.6463 -0.5615
  306MOL0     C40265   4.765   0.413   0.672 -0.1163  0.5102  0.3145
  306MOL0     C40266   4.862   0.507   0.713 -0.2279  0.2593  0.1136
  306MOL0     C40267   4.900   0.512   0.845  0.8955 -0.2678 -0.6128
  306MOL0     O40268   4.992   0.602   0.886 -0.0834  0.9125 -0.3867
  306MOL0     C40269   5.114   0.550   0.940 -0.1903  0.4025 -0.3162
  306MOL0     C40270   5.226   0.660   0.919 -0.2263  0.0542  0.1429
  306MOL0     C40271   5.364   0.609   0.922 -0.6777  0.3545  0.3357
  306MOL0     C40272   5.393   0.517   0.794  0.8720 -0.3616 -0.6019
  306MOL0     C40273   5.422   0.373   0.837 -0.4603  0.8378 -0.4060
  306MOL0     C40274   5.389   0.271   0.727  0.2264 -0.6858  0.6857
  306MOL0     C40275   5.421   0.136   0.781 -0.0903  0.3344  0.2575
  306MOL0     C40276   5.423   0.031   0.669  0.2932  0.7070  0.2639
  306MOL0     N40277   5.414  -0.108   0.719 -0.0112  0.5806  0.4458
  306MOL0     C40278   5.290  -0.153   0.761  0.2242 -0.4404  0.1968
  306MOL0     C40279   5.313  -0.252   0.846  0.0128 -0.4306 -0.6307
  306MOL0     C40280   5.219  -0.320   0.947  0.2542 -0.4199 -0.0112
  306MOL0     C40281   5.239  -0.471   0.971  0.2513  0.7570  0.1120
  306MOL0     C40282   5.179  -0.557   0.856 -0.6626 -0.6272 -0.2379
  306MOL0     C40283   5.026  -0.554   0.834 -0.9964 -0.2092  0.0613
  306MOL0     O40284   4.962  -0.558   0.960 -0.0379 -0.1276  0.1758
  306MOL0     C40285   4.827  -0.594   0.955 -0.1561 -0.3501 -0.1052
  306MOL0     C40286   4.755  -0.599   1.082 -0.0680 -0.8457  0.3881
  306MOL0     C40287   4.610  -0.617   1.084 -0.7376  0.4180 -0.6042
  306MOL0     C40288   4.545  -0.636   0.969 -0.9700  0.3223  1.7587
  306MOL0     C40289   4.401  -0.671   0.973  0.6205 -0.6296  0.4208
  306MOL0     O40290   4.337  -0.686   0.855 -0.0113  0.1690 -0.5088
  306MOL0     C40291   4.198  -0.698   0.858 -0.0033 -0.0060  0.1127
  306MOL0     C40292   4.129  -0.577   0.866  0.2533 -0.3465 -0.6934
  306MOL0     C40293   3.992  -0.577   0.862  0.6700 -0.1559  0.4567
  306MOL0     C40294   3.919  -0.702   0.851  0.5213  0.0842  1.5199
  306MOL0     O40295   3.780  -0.703   0.848 -0.3283 -0.0502 -0.5095
  306MOL0     C40296   3.710  -0.620   0.939  0.4659 -0.2091 -0.0071
  306MOL0     C40297   3.575  -0.678   0.974 -0.0002 -0.4870 -0.6867
  306MOL0     C40298   3.506  -0.593   1.085 -0.0234 -0.8116 -0.3301
  306MOL0     C40299   3.372  -0.652   1.142  0.4218 -0.2089 -0.5073
  306MOL0     C40300   3.317  -0.558   1.255  0.5402 -0.1056 -0.0203
  306MOL0     C40301   3.174  -0.608   1.306  0.5440 -0.3729 -0.7063
  306MOL0     C40302   3.139  -0.535   1.441  0.4653 -0.3121 -0.5387
  306MOL0     C40303   3.007  -0.574   1.508  0.8278 -1.0907 -0.5406
  306MOL0    Cl40304   2.980  -0.467   1.642 -0.1619  0.5559  0.1260
  306MOL0     C40305   3.991  -0.824   0.840 -0.9466  0.2540 -0.0617
  306MOL0     C40306   4.129  -0.822   0.851 -0.4582 -0.0966  0.2626
  306MOL0     O40307   4.352  -0.675   1.081  0.2930  1.1366  0.4591
  306MOL0     C40308   4.616  -0.620   0.841  0.4053  0.1713  0.2514
  306MOL0     C40309   4.748  -0.588   0.839 -0.3554  0.4783 -0.6552
  306MOL0     N40310   5.451  -0.273   0.847 -1.1028 -0.3226 -0.3080
  306MOL0     N40311   5.511  -0.188   0.766 -0.1859  0.6654 -0.1855
  306MOL0     C40312   4.846   0.422   0.941 -0.6339 -0.1025  0.4025
  306MOL0     C40313   4.758   0.317   0.902 -0.1737 -0.8843 -0.0113
  306MOL0     C40314   4.432   0.075   0.713 -0.6377  0.2588  0.4393
  306MOL0     C40315   4.441   0.059   0.572 -0.8089 -0.0851  0.5033
  306MOL0     C40316   4.374  -0.040   0.505  0.2905 -0.1016 -0.5488
  306MOL0     C40317   4.291  -0.135   0.571  0.0538 -0.1342  0.6508
  306MOL0     O40318   4.220  -0.245   0.522 -0.1029  0.5447 -0.4578
  306MOL0     C40319   4.191  -0.255   0.385 -1.0823  0.3493  0.8886
  306MOL0     C40320   4.083  -0.366   0.355 -0.4866  0.5652  0.7953
  306MOL0     C40321   4.110  -0.497   0.424 -0.0554  0.1521  0.4057
  306MOL0     C40322   4.047  -0.519   0.563 -1.2191  0.2352  0.3808
  306MOL0     C40323   3.897  -0.503   0.581 -0.4934  0.1510  0.3937
  306MOL0     C40324   3.770  -0.496   0.584 -0.2730 -0.1391 -0.5759
  306MOL0     C40325   4.280  -0.121   0.706  0.3819 -1.0098 -0.4746
  306MOL0     C40326   4.351  -0.020   0.777  0.5433 -0.8677 -0.1405
  306MOL0     H40327   4.734   0.415   0.567  0.0031  3.4970  0.2668
  306MOL0     H40328   4.908   0.567   0.636  2.8258 -0.6316  1.1195
  306MOL0     H40329   5.152   0.456   0.901  1.9407  1.5171 -1.0790
  306MOL0     H40330   5.097   0.538   1.047  1.7755  1.6260  0.1940
  306MOL0     H40331   5.228   0.738   0.996  1.5507  0.0813  0.1055
  306MOL0     H40332   5.207   0.712   0.825  0.3059  1.6457  0.8747
  306MOL0     H40333   5.392   0.564   1.018 -1.3814  0.9824  0.8538
  306MOL0     H40334   5.436   0.691   0.908 -1.9364  1.1156 -2.2198
  306MOL0     H40335   5.306   0.500   0.729  0.9462 -0.9322 -0.5518
  306MOL0     H40336   5.476   0.559   0.737 -0.4967  1.6548 -1.2152
  306MOL0     H40337   5.361   0.350   0.925 -0.1691 -0.1375 -0.4476
  306MOL0     H40338   5.524   0.359   0.873 -0.4599  1.4478 -0.1564
  306MOL0     H40339   5.441   0.297   0.634 -1.1707 -0.4810 -0.0718
  306MOL0     H40340   5.283   0.267   0.700 -0.1779 -0.9870  2.2443
  306MOL0     H40341   5.518   0.124   0.831 -0.4912 -1.2185  0.7162
  306MOL0     H40342   5.351   0.112   0.862  1.4133 -1.8591  1.0091
  306MOL0     H40343   5.516   0.038   0.612  1.4583  0.9757  2.1378
  306MOL0     H40344   5.345   0.033   0.592  0.3874 -4.4538 -0.3116
  306MOL0     H40345   5.198  -0.098   0.739  0.5602  1.0088  2.1566
  306MOL0     H40346   5.116  -0.288   0.926  0.2883  0.8909  1.5914
  306MOL0     H40347   5.247  -0.279   1.045 -1.5523 -0.0300  0.3801
  306MOL0     H40348   5.187  -0.505   1.061  0.9215 -0.4782  0.0522
  306MOL0     H40349   5.345  -0.495   0.983  0.3851  1.3795  0.1959
  306MOL0     H40350   5.236  -0.557   0.762  2.3889 -3.3907  1.3729
  306MOL0     H40351   5.197  -0.658   0.894  1.2855 -0.4635 -0.6322
  306MOL0     H40352   4.995  -0.644   0.780  3.5132 -0.2503 -2.9186
  306MOL0     H40353   5.001  -0.465   0.776  0.0087 -1.1031 -1.8183
  306MOL0     H40354   4.803  -0.594   1.179  0.8819  0.7844 -0.1207
  306MOL0     H40355   4.562  -0.623   1.181 -0.5085 -2.4968 -0.6059
  306MOL0     H40356   4.186  -0.485   0.873  0.6993 -0.3980 -2.9077
  306MOL0     H40357   3.931  -0.488   0.853 -2.2263 -2.0106  0.3747
  306MOL0     H40358   3.699  -0.519   0.901  1.3343  0.7526  2.1052
  306MOL0     H40359   3.766  -0.614   1.033  0.5517  0.8926 -0.1130
  306MOL0     H40360   3.582  -0.781   1.012 -1.6325 -0.8090 -1.2223
  306MOL0     H40361   3.519  -0.690   0.881 -0.4777 -1.6367 -0.2748
  306MOL0     H40362   3.487  -0.494   1.043  0.8750 -0.1780  0.7034
  306MOL0     H40363   3.575  -0.556   1.161 -1.9011  1.4794  0.3587
  306MOL0     H40364   3.294  -0.664   1.067 -1.7489 -0.5442  1.6523
  306MOL0     H40365   3.396  -0.755   1.173  2.2777  0.2505 -0.2885
  306MOL0     H40366   3.314  -0.451   1.233 -0.3928  0.3513  2.0873
  306MOL0     H40367   3.387  -0.569   1.338 -0.5654 -0.0786  0.9257
  306MOL0     H40368   3.151  -0.715   1.311 -0.8890 -0.0442  0.4509
  306MOL0     H40369   3.108  -0.573   1.225  1.6648 -0.5684 -1.7316
  306MOL0     H40370   3.213  -0.559   1.518 -0.1794 -1.4382 -0.2483
  306MOL0     H40371   3.142  -0.425   1.435  0.5838 -0.3987 -2.7390
  306MOL0     H40372   3.005  -0.676   1.547 -1.4410 -1.3168 -1.0781
  306MOL0     H40373   2.933  -0.570   1.427  0.8234  1.0453 -0.4801
  306MOL0     H40374   3.931  -0.913   0.826 -0.1910 -0.4039  0.7466
  306MOL0     H40375   4.182  -0.916   0.859 -1.3548 -0.5795  0.5699
  306MOL0     H40376   4.559  -0.635   0.749  1.7769  0.0657 -0.6125
  306MOL0     H40377   4.793  -0.580   0.740  1.9310 -4.0400 -0.2301
  306MOL0     H40378   4.873   0.427   1.046 -1.4607  0.3964  0.5960
  306MOL0     H40379   4.733   0.237   0.971 -2.4617  0.7099  1.1405
  306MOL0     H40380   4.491   0.135   0.513  2.7549 -0.3604  2.8573
  306MOL0     H40381   4.385  -0.044   0.397 -0.9206  1.6789 -0.7722
  306MOL0     H40382   4.282  -0.258   0.325 -1.5785 -0.0172  0.1227
  306MOL0     H40383   4.135  -0.167   0.350 -1.7652  0.2465  1.6864
  306MOL0     H40384   3.987  -0.324   0.387 -1.0827  2.8312 -3.2834
  306MOL0     H40385   4.074  -0.398   0.250 -0.3584 -3.9461  1.9232
  306MOL0     H40386   4.218  -0.507   0.436  0.6494  2.0992 -2.8486
  306MOL0     H40387   4.059  -0.581   0.377 -3.1517  2.1889 -0.2013
  306MOL0     H40388   4.074  -0.623   0.585 -0.2539 -0.5966 -3.8017
  306MOL0     H40389   4.104  -0.444   0.618 -2.6204  1.3640  0.3331
  306MOL0     H40390   3.664  -0.485   0.579 -0.1255  0.6122 -2.5422
  306MOL0     H40391   4.213  -0.181   0.768  1.5849 -0.4639  1.4272
  306MOL0     H40392   4.334  -0.001   0.882  0.2913  3.8448 -0.8006
  307MOL0     O40393   1.555   3.989   4.070  0.4520 -0.6323  0.2976
  307MOL0     C40394   1.589   4.081   4.147 -0.4880 -0.2295  0.2337
  307MOL0     O40395   1.518   4.186   4.203  0.2708  0.6397  0.0093
  307MOL0     C40396   1.381   4.149   4.206  0.2393  0.7049 -0.5819
  307MOL0     C40397   1.291   4.168   4.102 -0.4726 -0.0104  0.5557
  307MOL0     C40398   1.153   4.130   4.116 -0.3725 -0.0135 -0.0601
  307MOL0     C40399   1.113   4.082   4.235  0.0668  0.2686 -0.6033
  307MOL0     O40400   0.977   4.050   4.244 -0.2898  0.2570  0.0320
  307MOL0     C40401   0.915   4.006   4.363  0.0988  0.1607  0.0374
  307MOL0     C40402   0.764   3.983   4.351  0.3090  0.1132  0.1520
  307MOL0     C40403   0.737   3.846   4.277 -0.0146  0.8783  0.5989
  307MOL0     C40404   0.584   3.816   4.249  0.3206 -0.7986  0.3924
  307MOL0     C40405   0.526   3.746   4.372 -0.6944  0.0031 -0.1011
  307MOL0     C40406   0.377   3.753   4.367  0.5018  0.8246  0.8424
  307MOL0     C40407   0.303   3.693   4.479  0.1586 -0.6081 -0.2167
  307MOL0     C40408   0.154   3.653   4.444 -0.0319 -0.3367  1.2169
  307MOL0     N40409   0.079   3.647   4.565  0.9736 -0.4333  0.4787
  307MOL0     C40410  -0.056   3.671   4.582  0.7998  0.3902  0.2493
  307MOL0     C40411  -0.078   3.683   4.717 -0.3657  0.2001 -0.0045
  307MOL0     C40412  -0.203   3.720   4.786  0.9285  0.4019 -0.3680
  307MOL0     C40413  -0.332   3.681   4.706  0.8801  0.1672 -0.1414
  307MOL0     C40414  -0.364   3.536   4.720 -0.1638  0.7194  0.3053
  307MOL0     C40415  -0.475   3.485   4.630 -0.1325 -0.0317  1.3940
  307MOL0     O40416  -0.603   3.534   4.677 -0.6010 -0.4768  0.6282
  307MOL0     C40417  -0.714   3.498   4.612 -0.3056 -0.2076 -0.3363
  307MOL0     C40418  -0.717   3.481   4.471  0.0121 -1.3014  0.2036
  307MOL0     C40419  -0.839   3.446   4.413 -0.4338 -0.6065 -0.5819
  307MOL0     C40420  -0.952   3.425   4.484 -0.2039  0.1909 -0.6650
  307MOL0     C40421  -1.078   3.390   4.408 -0.0143 -0.3701 -0.1254
  307MOL0     O40422  -1.082   3.402   4.273 -0.0866  0.2681 -0.3435
  307MOL0     C40423  -1.190   3.362   4.199  0.8701 -0.2981  1.0275
  307MOL0     C40424  -1.294   3.267   4.217  0.4268  0.6153 -0.3000
  307MOL0     C40425  -1.378   3.224   4.113  0.2383  0.8629 -0.0615
  307MOL0     C40426  -1.382   3.288   3.991 -0.6033  0.0342 -0.1173
  307MOL0     O40427  -1.466   3.255   3.898  0.7076 -0.0552  0.2912
  307MOL0     C40428  -1.507   3.119   3.877 -0.1444 -0.0653 -0.5866
  307MOL0     C40429  -1.507   3.096   3.732 -0.2024  0.2379  1.1664
  307MOL0     C40430  -1.558   2.966   3.696  0.9362  1.2076  0.2116
  307MOL0     C40431  -1.605   2.977   3.551  0.1923  0.2253 -0.3861
  307MOL0     C40432  -1.660   2.846   3.483 -0.3172 -0.1749 -0.4809
  307MOL0     C40433  -1.798   2.789   3.544 -0.2741 -0.8715  0.2084
  307MOL0     C40434  -1.862   2.680   3.446 -0.1084  0.7275 -0.3467
  307MOL0     C40435  -1.778   2.550   3.453  0.0793  0.8842 -0.6043
  307MOL0    Cl40436  -1.899   2.428   3.396 -0.2332 -0.3216 -0.5508
  307MOL0     C40437  -1.278   3.382   3.978 -0.0143 -0.2906  0.3551
  307MOL0     C40438  -1.186   3.423   4.073 -0.5008  0.2025 -0.2828
  307MOL0     O40439  -1.169   3.365   4.483  0.2420  0.6306  0.3871
  307MOL0     C40440  -0.949   3.454   4.621 -0.2820  0.1074  0.1725
  307MOL0     C40441  -0.832   3.490   4.682 -0.4860  0.3047 -0.8508
  307MOL0     N40442   0.036   3.643   4.789 -0.2211 -0.1457  0.2962
  307MOL0     N40443   0.122   3.610   4.689  0.2042 -0.6033  0.5866
  307MOL0     C40444   1.199   4.076   4.346 -0.7124 -0.1124 -0.2298
  307MOL0     C40445   1.335   4.109   4.332  0.1647 -0.1479 -0.4094
  307MOL0     C40446   1.731   4.078   4.199  0.4284 -0.2981 -0.4263
  307MOL0     C40447   1.810   3.959   4.211  0.5340  0.6527 -0.1781
  307MOL0     C40448   1.937   3.952   4.264  0.1910 -0.4477  0.1033
  307MOL0     C40449   1.987   4.063   4.319  0.6531 -1.7828 -0.2954
  307MOL0     O40450   2.115   4.054   4.367  0.1128  0.1395 -0.1871
  307MOL0     C40451   2.201   4.163   4.389 -0.2782  0.3552  0.5723
  307MOL0     C40452   2.287   4.209   4.270  0.3476 -0.4440  0.2016
  307MOL0     C40453   2.351   4.085   4.201 -0.9087 -0.4959 -0.5720
  307MOL0     C40454   2.430   4.001   4.295 -0.0972 -0.0353 -0.9393
  307MOL0     C40455   2.558   4.070   4.344 -0.4508  0.7932 -0.5621
  307MOL0     C40456   2.646   4.140   4.387 -0.3954  0.0240  0.0965
  307MOL0     C40457   1.921   4.188   4.302  0.9103 -0.4757 -0.1533
  307MOL0     C40458   1.790   4.193   4.248 -0.0033  0.7130 -0.4505
  307MOL0     H40459   1.316   4.216   4.008 -2.1648 -2.2080 -1.1122
  307MOL0     H40460   1.070   4.145   4.047 -1.2783  1.2817  1.2495
  307MOL0     H40461   0.917   4.091   4.431 -3.2137  0.3236  0.0875
  307MOL0     H40462   0.958   3.915   4.405 -1.3989 -0.7267 -0.2871
  307MOL0     H40463   0.708   4.062   4.300  0.9526 -1.4116 -3.1986
  307MOL0     H40464   0.724   3.980   4.452  0.9153  3.2876  0.5791
  307MOL0     H40465   0.782   3.766   4.336  4.9354  2.6869 -0.2306
  307MOL0     H40466   0.782   3.844   4.177 -1.9955  2.4221 -0.3880
  307MOL0     H40467   0.538   3.913   4.227  0.6467 -0.8844 -0.7716
  307MOL0     H40468   0.565   3.747   4.166 -0.8345  0.3318 -0.3159
  307MOL0     H40469   0.549   3.801   4.464  0.2682  2.1114 -1.5288
  307MOL0     H40470   0.563   3.643   4.373  0.7449  0.4448 -2.1641
  307MOL0     H40471   0.346   3.708   4.272 -0.6936  1.7448  0.7651
  307MOL0     H40472   0.346   3.858   4.354 -3.9991 -0.0383  2.7842
  307MOL0     H40473   0.350   3.602   4.519  1.4429 -0.2446 -0.8276
  307MOL0     H40474   0.304   3.768   4.559  0.4811  1.4938 -2.0844
  307MOL0     H40475   0.146   3.550   4.408  1.5104 -0.0021 -0.2328
  307MOL0     H40476   0.108   3.727   4.379  2.5179 -1.9123 -2.7301
  307MOL0     H40477  -0.124   3.714   4.510 -0.9660 -0.9349  1.0289
  307MOL0     H40478  -0.191   3.828   4.793 -2.9647  1.0300 -1.3374
  307MOL0     H40479  -0.199   3.668   4.882 -2.3035 -0.2195 -0.4693
  307MOL0     H40480  -0.324   3.714   4.601  0.0543 -2.0872 -0.9794
  307MOL0     H40481  -0.422   3.735   4.738  0.8048  1.7358 -2.6222
  307MOL0     H40482  -0.276   3.472   4.713 -1.7693 -1.6744  0.6716
  307MOL0     H40483  -0.403   3.531   4.822 -1.1326  1.0746 -0.0355
  307MOL0     H40484  -0.483   3.376   4.634 -0.1748 -0.1121 -0.0642
  307MOL0     H40485  -0.459   3.499   4.522 -2.0864 -4.9569  0.1775
  307MOL0     H40486  -0.630   3.504   4.411 -0.7265  0.4118 -0.2751
  307MOL0     H40487  -0.842   3.453   4.305 -1.7039  1.3781 -0.4695
  307MOL0     H40488  -1.311   3.205   4.305  1.5980 -1.4708 -1.4745
  307MOL0     H40489  -1.443   3.137   4.126 -0.1148  0.8416 -1.7223
  307MOL0     H40490  -1.608   3.119   3.918 -0.4206  1.4608 -1.1922
  307MOL0     H40491  -1.431   3.054   3.921 -1.2013 -0.2887  0.9610
  307MOL0     H40492  -1.416   3.124   3.678  0.3238  0.4966  2.1717
  307MOL0     H40493  -1.576   3.173   3.695 -0.4638  0.1148  1.3955
  307MOL0     H40494  -1.646   2.943   3.756 -0.9551  0.9480 -2.4475
  307MOL0     H40495  -1.488   2.883   3.706  0.0704  0.6978  2.7180
  307MOL0     H40496  -1.687   3.048   3.555  2.1484  2.6189 -0.2451
  307MOL0     H40497  -1.520   3.026   3.501  1.0409 -0.2494  0.5494
  307MOL0     H40498  -1.582   2.771   3.496  2.6977  2.3256 -2.5579
  307MOL0     H40499  -1.660   2.860   3.374  1.8290  2.1937 -0.2722
  307MOL0     H40500  -1.867   2.873   3.553 -0.6672 -1.2500  0.7659
  307MOL0     H40501  -1.787   2.752   3.646 -1.5121  1.7914  1.4076
  307MOL0     H40502  -1.964   2.654   3.475 -0.7356  3.2950 -0.0059
  307MOL0     H40503  -1.857   2.712   3.341 -1.8161  0.5818 -0.4922
  307MOL0     H40504  -1.752   2.522   3.556 -1.4142  0.2525 -0.3680
  307MOL0     H40505  -1.683   2.546   3.398  0.4421  1.6170 -0.0381
  307MOL0     H40506  -1.264   3.439   3.887  0.2353 -0.2025  0.4483
  307MOL0     H40507  -1.108   3.496   4.059 -1.6172  1.9855  2.0421
  307MOL0     H40508  -1.034   3.459   4.688  0.9446 -0.0996  1.8103
  307MOL0     H40509  -0.828   3.519   4.787  0.8802  2.4703 -1.4413
  307MOL0     H40510   1.171   4.044   4.446 -1.4197 -1.2549 -0.7715
  307MOL0     H40511   1.396   4.125   4.421  0.5008 -0.4931 -0.5729
  307MOL0     H40512   1.777   3.870   4.157  0.2874  0.8192 -0.3040
  307MOL0     H40513   1.975   3.851   4.264 -0.8558 -1.0172  3.7070
  307MOL0     H40514   2.267   4.147   4.474  0.7423 -0.6391 -0.3659
  307MOL0     H40515   2.148   4.255   4.416  0.0487  0.0421  2.3952
  307MOL0     H40516   2.223   4.252   4.192 -1.0859  0.7410  1.9340
  307MOL0     H40517   2.355   4.287   4.304 -1.6532  1.8959 -0.8584
  307MOL0     H40518   2.421   4.125   4.127 -0.5799 -0.3578 -0.1883
  307MOL0     H40519   2.277   4.029   4.143 -0.8528  2.1574 -3.5081
  307MOL0     H40520   2.372   3.973   4.383 -3.2397  0.8433 -2.5681
  307MOL0     H40521   2.464   3.911   4.243  0.3571  1.7813 -4.1118
  307MOL0     H40522   2.719   4.198   4.439 -0.5106 -0.3621  0.6933
  307MOL0     H40523   1.967   4.284   4.322  0.8043  0.5099 -3.9056
  307MOL0     H40524   1.740   4.289   4.238 -0.1134  0.6615 -0.3995
  308MOL0     O40525   1.083   4.029  10.545 -0.2867  0.3230 -0.7702
  308MOL0     C40526   1.161   4.042  10.641 -0.0178 -0.1923 -0.6065
  308MOL0     O40527   1.133   4.030  10.774  0.1345 -0.1953 -0.9710
  308MOL0     C40528   0.994   4.014  10.814  0.1703 -0.0602 -0.4433
  308MOL0     C40529   0.883   4.062  10.744 -0.3425 -0.2084  0.4116
  308MOL0     C40530   0.754   4.039  10.786  0.7412 -0.0397  0.1632
  308MOL0     C40531   0.742   3.965  10.900  0.3344  0.2749 -0.0535
  308MOL0     O40532   0.622   3.929  10.955 -0.3699 -0.8323 -0.2261
  308MOL0     C40533   0.613   3.935  11.097 -0.2788  0.4224  0.0958
  308MOL0     C40534   0.471   3.955  11.150 -0.6370 -0.5909  0.3514
  308MOL0     C40535   0.383   4.059  11.081  0.5582 -1.3830 -0.1257
  308MOL0     C40536   0.430   4.208  11.099 -0.4060 -0.4998  0.2168
  308MOL0     C40537   0.331   4.306  11.051 -0.3708  1.0487 -0.4261
  308MOL0     C40538   0.207   4.303  11.149  0.1340 -0.5429 -1.0711
  308MOL0     C40539   0.197   4.438  11.222 -0.4731  0.4276 -0.5495
  308MOL0     C40540   0.061   4.456  11.304 -0.2271  0.5743  0.7243
  308MOL0     N40541   0.076   4.364  11.423  0.0040  0.0953  0.7914
  308MOL0     C40542   0.168   4.393  11.527 -0.2446 -0.0777  0.2736
  308MOL0     C40543   0.173   4.285  11.600 -0.8824  0.0976  0.0533
  308MOL0     C40544   0.266   4.269  11.717 -1.3651  0.6561 -0.4001
  308MOL0     C40545   0.405   4.207  11.675  0.4967  0.2015  0.5828
  308MOL0     C40546   0.478   4.277  11.557  0.4403  0.4764 -0.2076
  308MOL0     C40547   0.613   4.212  11.519 -0.2793 -0.6630  0.4455
  308MOL0     O40548   0.599   4.087  11.458  0.1502  0.0944 -0.1767
  308MOL0     C40549   0.713   4.024  11.407  1.0868  1.1114  0.0007
  308MOL0     C40550   0.825   4.088  11.361 -0.7285  0.3901  1.0381
  308MOL0     C40551   0.937   4.018  11.309 -0.8831  0.1169  0.2507
  308MOL0     C40552   0.934   3.873  11.294 -0.6151 -0.4836  0.6232
  308MOL0     C40553   1.051   3.800  11.235 -0.4502  0.1218  0.3632
  308MOL0     O40554   1.176   3.872  11.208  0.0376  0.0972 -0.6916
  308MOL0     C40555   1.274   3.799  11.138 -0.0639  0.4893 -0.1866
  308MOL0     C40556   1.315   3.677  11.193 -1.2279 -0.3487  0.7331
  308MOL0     C40557   1.413   3.602  11.133 -1.0094  0.2496  0.3492
  308MOL0     C40558   1.480   3.645  11.016  1.7533 -0.3946 -0.6098
  308MOL0     O40559   1.588   3.590  10.960  0.0044  0.7550 -0.5576
  308MOL0     C40560   1.645   3.474  11.026  0.3171 -0.0715 -0.6177
  308MOL0     C40561   1.762   3.430  10.936 -0.3270  0.8648 -0.0379
  308MOL0     C40562   1.815   3.301  11.000 -0.0128  0.2883  0.4059
  308MOL0     C40563   1.955   3.267  10.947  0.1881 -0.5235  0.0861
  308MOL0     C40564   2.007   3.131  11.004 -0.3291  0.0085  0.9490
  308MOL0     C40565   2.131   3.081  10.931 -0.0310 -1.0176  0.0010
  308MOL0     C40566   2.093   2.988  10.813 -0.8796 -0.7797  0.2080
  308MOL0     C40567   2.211   2.930  10.734  0.3080 -0.3781 -0.1022
  308MOL0    Cl40568   2.160   2.811  10.613  0.1095  0.2474 -0.3925
  308MOL0     C40569   1.450   3.767  10.969  0.4070 -0.9834 -0.6659
  308MOL0     C40570   1.352   3.849  11.033  1.1054  0.1729  0.8956
  308MOL0     O40571   1.033   3.682  11.211 -0.4670  0.2457 -0.4984
  308MOL0     C40572   0.834   3.808  11.353  0.3321 -0.3816  0.9416
  308MOL0     C40573   0.724   3.881  11.404  0.6602  1.0553 -0.1596
  308MOL0     N40574   0.095   4.187  11.544 -0.2273 -0.1508  0.5072
  308MOL0     N40575   0.032   4.238  11.446  0.2972 -0.4411 -0.4509
  308MOL0     C40576   0.848   3.903  10.962 -0.2164 -0.6703 -0.2416
  308MOL0     C40577   0.969   3.928  10.921 -0.6747  0.6915 -0.0227
  308MOL0     C40578   1.302   4.082  10.614  1.3761  0.1860 -0.3324
  308MOL0     C40579   1.384   4.124  10.721  0.2422 -0.1445 -0.5344
  308MOL0     C40580   1.525   4.145  10.700 -0.5748 -0.0063 -1.3638
  308MOL0     C40581   1.578   4.138  10.568 -0.8901  0.5107 -0.0773
  308MOL0     O40582   1.715   4.162  10.542 -0.4160  0.0844  0.3484
  308MOL0     C40583   1.809   4.059  10.583 -0.1019  0.1977  0.3852
  308MOL0     C40584   1.795   3.916  10.529 -0.2685 -0.2565  0.1494
  308MOL0     C40585   1.807   3.918  10.379  0.2576 -0.8301 -0.9867
  308MOL0     C40586   1.805   3.779  10.319 -0.1937  0.1045 -0.2443
  308MOL0     C40587   1.935   3.710  10.324 -0.7549  0.3704 -0.3716
  308MOL0     C40588   2.043   3.657  10.337 -0.3468 -0.3224 -0.1579
  308MOL0     C40589   1.497   4.102  10.467 -0.6398 -0.5955 -0.4656
  308MOL0     C40590   1.360   4.069  10.490 -0.3539 -0.3489  0.6887
  308MOL0     H40591   0.896   4.119  10.653 -0.9641 -2.1937 -0.9932
  308MOL0     H40592   0.667   4.066  10.727 -0.5972 -3.0329  0.5983
  308MOL0     H40593   0.673   4.020  11.129  1.9221 -0.8131 -0.5820
  308MOL0     H40594   0.658   3.850  11.150 -3.7804 -1.1951  0.8484
  308MOL0     H40595   0.480   3.992  11.253  1.9319 -0.7209  0.2326
  308MOL0     H40596   0.422   3.858  11.144 -1.3644 -0.1444 -1.3577
  308MOL0     H40597   0.281   4.051  11.120  0.2924  1.4843 -0.0362
  308MOL0     H40598   0.367   4.027  10.978 -0.8409 -0.0184 -0.3683
  308MOL0     H40599   0.446   4.217  11.207  0.5016 -0.3378  0.0732
  308MOL0     H40600   0.522   4.218  11.042 -0.8837 -1.9213 -0.8650
  308MOL0     H40601   0.287   4.279  10.955 -0.0766 -1.0947  0.0085
  308MOL0     H40602   0.364   4.410  11.047  0.7049  0.9355  2.8982
  308MOL0     H40603   0.193   4.220  11.220 -2.0218  0.8175  0.2256
  308MOL0     H40604   0.116   4.301  11.088 -0.5065  3.9408 -0.6100
  308MOL0     H40605   0.292   4.452  11.274  0.0321 -3.1539 -0.2226
  308MOL0     H40606   0.190   4.509  11.139 -0.3619 -3.4155 -4.2157
  308MOL0     H40607  -0.020   4.415  11.244  0.0530  0.8634  0.1418
  308MOL0     H40608   0.034   4.559  11.328  1.8748  0.9415  1.7408
  308MOL0     H40609   0.237   4.477  11.533  0.3414 -0.6445  1.6975
  308MOL0     H40610   0.218   4.200  11.787  1.1688 -1.6566 -0.7750
  308MOL0     H40611   0.288   4.357  11.779  0.6406 -0.5280  0.6796
  308MOL0     H40612   0.386   4.104  11.645  0.5742  1.0916 -2.9703
  308MOL0     H40613   0.471   4.203  11.763 -0.0047  1.1169  1.0178
  308MOL0     H40614   0.411   4.288  11.472 -1.3556 -0.1851  1.0745
  308MOL0     H40615   0.493   4.380  11.592 -2.0288  1.5364 -1.9874
  308MOL0     H40616   0.673   4.203  11.610  1.7556  3.0768 -0.2988
  308MOL0     H40617   0.663   4.285  11.454 -3.2215 -0.1763 -1.5026
  308MOL0     H40618   0.827   4.196  11.371 -1.6419  0.5772 -0.4918
  308MOL0     H40619   1.010   4.082  11.260 -2.9647  1.0304 -1.8629
  308MOL0     H40620   1.268   3.639  11.283  1.0683  1.5357  2.9186
  308MOL0     H40621   1.433   3.509  11.186 -2.9947  0.2106  1.1310
  308MOL0     H40622   1.574   3.391  11.032  2.1876 -1.8887 -2.1639
  308MOL0     H40623   1.675   3.499  11.128 -3.2562 -0.1856  0.6033
  308MOL0     H40624   1.841   3.503  10.917  0.7293 -0.5654 -1.3785
  308MOL0     H40625   1.715   3.404  10.841 -3.8290  1.4731  1.3581
  308MOL0     H40626   1.754   3.220  10.958  0.3936  0.4148 -0.4611
  308MOL0     H40627   1.815   3.308  11.109  1.4666  0.4012  0.4303
  308MOL0     H40628   1.950   3.257  10.838 -0.8780  0.2164  0.0547
  308MOL0     H40629   2.027   3.346  10.970 -0.1475 -0.4441  0.8847
  308MOL0     H40630   1.925   3.059  10.995  0.2813 -0.6144  0.2222
  308MOL0     H40631   2.032   3.139  11.110  1.3643 -3.0089  0.8842
  308MOL0     H40632   2.184   3.023  11.007 -0.5025 -1.5231 -0.0540
  308MOL0     H40633   2.190   3.169  10.904 -1.8276  0.5964  1.0425
  308MOL0     H40634   2.043   2.902  10.859  1.0929 -2.3110 -0.3906
  308MOL0     H40635   2.017   3.031  10.747 -1.5412  0.4228  1.6870
  308MOL0     H40636   2.285   2.894  10.806 -0.0773  1.2732  1.1803
  308MOL0     H40637   2.266   3.006  10.678  2.5665 -1.1691  0.9236
  308MOL0     H40638   1.501   3.819  10.888  0.5379 -1.4027 -0.8558
  308MOL0     H40639   1.335   3.952  11.003  2.9289  0.4421  0.6546
  308MOL0     H40640   0.826   3.700  11.357  0.0066 -0.3609  0.8891
  308MOL0     H40641   0.647   3.825  11.455  3.7724 -0.6732  3.0393
  308MOL0     H40642   0.839   3.830  11.042 -1.9547 -0.8943 -0.6046
  308MOL0     H40643   1.052   3.898  10.984 -1.4731  0.7744  1.0838
  308MOL0     H40644   1.356   4.133  10.826  0.3526 -1.1902 -0.4006
  308MOL0     H40645   1.589   4.167  10.784 -1.4414  2.1979 -1.2239
  308MOL0     H40646   1.793   4.051  10.691  0.9944  1.3888  0.6573
  308MOL0     H40647   1.906   4.090  10.546  0.1400 -4.4029 -3.8633
  308MOL0     H40648   1.877   3.856  10.571 -2.3218 -3.4581 -0.1136
  308MOL0     H40649   1.703   3.864  10.554  0.5493 -1.6713  0.3245
  308MOL0     H40650   1.907   3.957  10.364  0.5032 -0.6725  0.8535
  308MOL0     H40651   1.728   3.983  10.340  0.1096 -0.6220 -0.3634
  308MOL0     H40652   1.731   3.725  10.380  2.7266  0.0425  3.6042
  308MOL0     H40653   1.777   3.787  10.214 -0.0056 -1.9260 -0.4906
  308MOL0     H40654   2.137   3.610  10.358  0.1234  0.4463 -0.5131
  308MOL0     H40655   1.548   4.110  10.371  0.0377  5.0716  0.0014
  308MOL0     H40656   1.298   4.035  10.408  1.0757  1.7417 -1.3855
  309MOL0     O40657   9.568   2.770   4.165 -0.6681 -0.6462 -0.1935
  309MOL0     C40658   9.671   2.770   4.094  0.2770  0.2731 -0.8081
  309MOL0     O40659   9.678   2.716   3.968  0.3466 -0.2982 -0.4648
  309MOL0     C40660   9.569   2.643   3.930 -0.6082 -0.4843 -0.4740
  309MOL0     C40661   9.441   2.693   3.917 -0.8884  0.1574 -0.1878
  309MOL0     C40662   9.323   2.613   3.879 -0.6138  0.3080  0.3424
  309MOL0     C40663   9.347   2.483   3.835 -0.3500  0.4621 -0.0973
  309MOL0     O40664   9.250   2.404   3.782  0.2921  0.6105 -0.1096
  309MOL0     C40665   9.126   2.461   3.766  0.2928  0.0045  0.3399
  309MOL0     C40666   9.035   2.341   3.725 -0.0919  0.5340 -0.6232
  309MOL0     C40667   8.892   2.382   3.724 -0.2236  0.2186  0.3063
  309MOL0     C40668   8.805   2.259   3.692  0.3958 -0.6932  0.0837
  309MOL0     C40669   8.664   2.299   3.666  0.1284 -0.3402  0.6427
  309MOL0     C40670   8.566   2.182   3.629  0.1625 -0.0426  0.5857
  309MOL0     C40671   8.578   2.142   3.472  0.4680 -0.1339  0.0051
  309MOL0     C40672   8.476   2.033   3.440  0.3829  0.9527  0.3265
  309MOL0     N40673   8.488   1.910   3.527  0.3924  0.9066  0.9294
  309MOL0     C40674   8.579   1.808   3.511  0.1486 -0.1810  1.1270
  309MOL0     C40675   8.558   1.726   3.613  1.0682  0.9487 -0.9006
  309MOL0     C40676   8.632   1.597   3.640  0.2459 -0.0796 -0.6784
  309MOL0     C40677   8.789   1.597   3.636  0.2426 -0.0764  0.9526
  309MOL0     C40678   8.831   1.706   3.733 -0.2637  0.2085 -0.5524
  309MOL0     C40679   8.984   1.719   3.753  0.0154  0.4750 -0.6851
  309MOL0     O40680   9.022   1.853   3.765  0.1647  0.3413  0.4399
  309MOL0     C40681   9.156   1.885   3.751 -0.2180 -0.1045  0.2337
  309MOL0     C40682   9.192   2.022   3.725  0.2114  0.3398 -0.3531
  309MOL0     C40683   9.318   2.061   3.693 -0.4110  0.3123  0.0619
  309MOL0     C40684   9.416   1.954   3.696  0.4136  0.5725  0.0939
  309MOL0     C40685   9.554   1.988   3.655  0.2289 -0.2834 -0.6598
  309MOL0     O40686   9.593   2.123   3.662 -0.0706  0.2739 -0.8689
  309MOL0     C40687   9.729   2.147   3.630 -0.1778 -0.3070  0.5803
  309MOL0     C40688   9.832   2.147   3.725  0.4030  0.2845 -0.1734
  309MOL0     C40689   9.965   2.199   3.696  0.0495  0.0261 -0.2014
  309MOL0     C40690   9.984   2.243   3.569 -0.3506 -0.4342 -0.1178
  309MOL0     O40691  10.109   2.279   3.522 -0.0667 -0.1951  0.3915
  309MOL0     C40692  10.220   2.207   3.564 -0.2325 -0.0898  0.4320
  309MOL0     C40693  10.341   2.234   3.472  0.1860 -0.3601  0.1692
  309MOL0     C40694  10.461   2.193   3.560 -0.5919  0.0257 -0.0294
  309MOL0     C40695  10.594   2.245   3.502 -0.0050  0.8928  0.0282
  309MOL0     C40696  10.708   2.226   3.593  0.2509  0.0222  0.2495
  309MOL0     C40697  10.716   2.326   3.706 -0.3798 -0.4102 -1.3897
  309MOL0     C40698  10.849   2.327   3.786 -0.5233  1.4034 -0.1233
  309MOL0     C40699  10.912   2.450   3.853 -0.0808  0.1696  0.2284
  309MOL0    Cl40700  10.910   2.570   3.725 -0.5373 -0.2037  0.2589
  309MOL0     C40701   9.879   2.255   3.477  0.1562  0.6402 -0.4063
  309MOL0     C40702   9.754   2.201   3.503 -0.0738  0.5558  0.2056
  309MOL0     O40703   9.638   1.895   3.641  0.1754 -0.5547  0.8012
  309MOL0     C40704   9.385   1.822   3.728  0.1824 -0.1276 -0.0768
  309MOL0     C40705   9.255   1.789   3.761  0.6704  0.1760  0.2553
  309MOL0     N40706   8.449   1.770   3.682 -0.3172  0.1894  0.0762
  309MOL0     N40707   8.418   1.887   3.639 -0.1458 -0.2252 -0.1620
  309MOL0     C40708   9.485   2.438   3.836  0.0858  0.0238 -0.7529
  309MOL0     C40709   9.584   2.513   3.885 -0.3610 -0.3828 -0.5607
  309MOL0     C40710   9.796   2.826   4.153 -0.6528 -0.0193  0.9514
  309MOL0     C40711   9.920   2.822   4.075 -0.8186 -0.6223 -0.8783
  309MOL0     C40712  10.041   2.856   4.143  0.1684  0.9842  0.3140
  309MOL0     C40713  10.045   2.895   4.275  0.1317  0.1396  0.3291
  309MOL0     O40714  10.154   2.957   4.332  0.9656 -0.2655  0.2329
  309MOL0     C40715  10.271   2.963   4.245  0.1608 -0.1619  0.4058
  309MOL0     C40716  10.392   3.032   4.302  0.3532  0.4148  0.1037
  309MOL0     C40717  10.526   3.000   4.231 -0.2645 -0.1318  0.6629
  309MOL0     C40718  10.550   3.094   4.109 -0.9494 -0.2620 -0.2962
  309MOL0     C40719  10.450   3.083   4.002 -0.3784  1.1614  0.0953
  309MOL0     C40720  10.367   3.101   3.912  1.0175 -0.4995 -0.0050
  309MOL0     C40721   9.932   2.893   4.345 -0.5226 -0.6077 -0.1300
  309MOL0     C40722   9.810   2.871   4.291  0.3572 -0.0098  0.4174
  309MOL0     H40723   9.419   2.799   3.930  0.3555  0.3356  0.6777
  309MOL0     H40724   9.225   2.657   3.895 -1.6510 -1.8734  0.3454
  309MOL0     H40725   9.136   2.521   3.675 -1.2423 -1.2863 -0.7439
  309MOL0     H40726   9.085   2.509   3.855 -0.5263 -3.9772  2.3162
  309MOL0     H40727   9.035   2.263   3.801  2.2285 -1.8840 -2.8658
  309MOL0     H40728   9.072   2.302   3.630 -0.3936  0.2658 -0.6344
  309MOL0     H40729   8.872   2.464   3.654 -2.5661 -0.7307 -0.2334
  309MOL0     H40730   8.863   2.427   3.819  0.6441  1.5997 -0.0602
  309MOL0     H40731   8.846   2.217   3.600 -0.8167  2.8005 -2.2373
  309MOL0     H40732   8.806   2.177   3.765  1.4457 -2.2208 -1.5738
  309MOL0     H40733   8.657   2.380   3.593  0.4095  0.2041  1.2113
  309MOL0     H40734   8.619   2.344   3.754 -0.4746 -0.9461  0.6579
  309MOL0     H40735   8.464   2.218   3.641  0.6105  1.2916  0.5857
  309MOL0     H40736   8.572   2.097   3.697  2.1437 -1.4524 -1.2095
  309MOL0     H40737   8.539   2.221   3.407 -0.9207 -1.9884 -1.5540
  309MOL0     H40738   8.681   2.115   3.450  1.0247  1.5811  0.4033
  309MOL0     H40739   8.495   1.999   3.337  2.4718  0.8699  0.6939
  309MOL0     H40740   8.373   2.067   3.452  0.3137  0.8530  0.0377
  309MOL0     H40741   8.659   1.794   3.439 -1.1463 -3.6146  0.1706
  309MOL0     H40742   8.589   1.524   3.571 -1.7650 -1.8379  2.2053
  309MOL0     H40743   8.609   1.570   3.743 -2.1349  0.6636 -0.9556
  309MOL0     H40744   8.829   1.619   3.536 -2.8894 -1.4992 -0.7957
  309MOL0     H40745   8.821   1.500   3.675 -1.8031 -0.0962  2.7473
  309MOL0     H40746   8.787   1.801   3.701 -3.8575 -1.0726  0.1151
  309MOL0     H40747   8.788   1.681   3.830 -2.9485  1.3376 -1.3381
  309MOL0     H40748   9.034   1.691   3.660 -1.0408 -1.8807 -0.6294
  309MOL0     H40749   9.016   1.650   3.831 -3.0680 -1.7242 -1.1729
  309MOL0     H40750   9.107   2.088   3.708  0.3557  0.7427  0.4453
  309MOL0     H40751   9.347   2.165   3.682  2.8214  0.1930  4.6311
  309MOL0     H40752   9.806   2.103   3.820  1.4485 -0.3478 -0.1612
  309MOL0     H40753  10.034   2.186   3.779 -0.6405  1.6455  0.6799
  309MOL0     H40754  10.204   2.100   3.544  4.7147 -0.5698 -2.3998
  309MOL0     H40755  10.248   2.221   3.669  0.6860  0.3047  0.1427
  309MOL0     H40756  10.360   2.337   3.441  0.8687 -1.1519 -2.2326
  309MOL0     H40757  10.320   2.171   3.385 -2.2727 -1.3098  1.3360
  309MOL0     H40758  10.479   2.085   3.567  2.1162  0.3478 -0.8143
  309MOL0     H40759  10.458   2.231   3.662 -0.2143  0.0961 -0.0418
  309MOL0     H40760  10.604   2.195   3.405  2.8180  3.2030 -1.0046
  309MOL0     H40761  10.592   2.353   3.484 -2.4967  1.2889  2.0879
  309MOL0     H40762  10.803   2.233   3.539  0.2305  0.3501  0.2563
  309MOL0     H40763  10.709   2.120   3.621  1.0709  0.1910  0.8878
  309MOL0     H40764  10.634   2.307   3.776 -0.5267  2.2009 -0.7477
  309MOL0     H40765  10.700   2.428   3.670 -0.4216  0.5718  1.1802
  309MOL0     H40766  10.850   2.245   3.857 -2.0714  1.3944 -0.0753
  309MOL0     H40767  10.926   2.300   3.713 -0.8949 -2.0521  0.5940
  309MOL0     H40768  11.019   2.436   3.869 -0.4829 -0.3487  2.8614
  309MOL0     H40769  10.856   2.475   3.943  1.5051  1.7824  0.7942
  309MOL0     H40770   9.902   2.293   3.378  3.6334 -2.1295 -0.8271
  309MOL0     H40771   9.680   2.222   3.427 -0.9026 -0.5808  0.6613
  309MOL0     H40772   9.461   1.745   3.735  0.9371  0.6035 -0.0341
  309MOL0     H40773   9.228   1.688   3.790 -0.6552  0.4607  0.0819
  309MOL0     H40774   9.496   2.332   3.816 -2.3742 -0.8053  1.5563
  309MOL0     H40775   9.687   2.477   3.889 -0.0562  0.5050 -0.1933
  309MOL0     H40776   9.914   2.789   3.972 -2.2837  0.2941 -1.1259
  309MOL0     H40777  10.128   2.856   4.079 -0.8958 -0.2400 -1.2103
  309MOL0     H40778  10.241   3.012   4.152  2.4146 -0.6663 -0.6664
  309MOL0     H40779  10.303   2.862   4.216 -1.6068 -0.8378  0.7175
  309MOL0     H40780  10.376   3.140   4.308 -0.4544  0.3034  0.0016
  309MOL0     H40781  10.397   2.986   4.401  4.3602  0.4358  0.0861
  309MOL0     H40782  10.516   2.897   4.195 -1.2381 -0.6208  2.2616
  309MOL0     H40783  10.604   3.013   4.307 -1.3042  2.8256  1.3446
  309MOL0     H40784  10.542   3.198   4.141 -1.4323 -0.4267  0.1254
  309MOL0     H40785  10.649   3.077   4.066 -0.7473  3.3527 -1.5611
  309MOL0     H40786  10.301   3.121   3.830  0.1261  1.4982  1.1205
  309MOL0     H40787   9.941   2.935   4.445 -0.4901 -3.3029  1.0710
  309MOL0     H40788   9.723   2.874   4.356 -0.1763 -2.0836 -0.1269
  310MOL0     O40789   9.545   9.929   4.185 -0.3828 -0.4338 -0.0548
  310MOL0     C40790   9.541   9.856   4.089  0.3068  0.1462 -0.8905
  310MOL0     O40791   9.639   9.796   4.020 -0.1644  0.5147 -0.0229
  310MOL0     C40792   9.766   9.841   4.030 -0.3597 -0.5375 -0.2951
  310MOL0     C40793   9.806   9.969   4.022 -1.0278 -0.6173 -0.1861
  310MOL0     C40794   9.942  10.009   4.031 -1.0904  0.3593 -0.1611
  310MOL0     C40795  10.042   9.917   4.032 -0.0027  0.3684 -0.9898
  310MOL0     O40796  10.174   9.952   4.063  0.8294  0.0541  0.0384
  310MOL0     C40797  10.284   9.861   4.037  1.2421 -0.7084 -0.2606
  310MOL0     C40798  10.407   9.936   4.063  0.0385  0.1039 -0.0577
  310MOL0     C40799  10.525   9.893   3.970 -0.1598 -0.4746 -0.0696
  310MOL0     C40800  10.630   9.998   3.976 -0.9864  0.6127  0.4041
  310MOL0     C40801  10.776   9.959   3.950  0.1906 -0.3718  0.8890
  310MOL0     C40802  10.861  10.082   3.991  0.1357  0.3664  0.1087
  310MOL0     C40803  10.994  10.061   3.936 -0.0254  0.0684  0.1715
  310MOL0     C40804  11.075   9.938   3.982  0.4301 -0.0953 -0.1706
  310MOL0     N40805  11.206   9.923   3.919 -0.0206 -0.3859  0.4222
  310MOL0     C40806  11.296  10.020   3.900 -0.3214  0.2486 -0.3029
  310MOL0     C40807  11.399   9.963   3.830 -0.2390 -0.7360 -0.6329
  310MOL0     C40808  11.514  10.035   3.777 -1.2364  0.5742 -0.1883
  310MOL0     C40809  11.628   9.935   3.762 -0.0392 -0.8497  0.1554
  310MOL0     C40810  11.743   9.991   3.679 -0.1966 -0.8741  0.1295
  310MOL0     C40811  11.859   9.903   3.686 -0.2592  1.1652  0.1187
  310MOL0     O40812  11.939   9.924   3.563  0.7233 -0.6654 -0.0587
  310MOL0     C40813  12.066   9.875   3.563  0.0536  0.1699  0.3157
  310MOL0     C40814  12.126   9.881   3.434 -0.2088  0.1501  0.1212
  310MOL0     C40815  12.260   9.848   3.422  0.1599 -0.6402  0.3529
  310MOL0     C40816  12.341   9.815   3.538 -0.0447  0.8162 -0.7970
  310MOL0     C40817  12.492   9.812   3.519  0.1845 -0.6293  1.3471
  310MOL0     O40818  12.540   9.865   3.391  0.0449 -0.2376 -0.0510
  310MOL0     C40819  12.666   9.833   3.344  0.4452 -0.0292 -0.6215
  310MOL0     C40820  12.750   9.934   3.313  0.5389 -0.7875  0.6954
  310MOL0     C40821  12.884   9.909   3.290 -0.3664  0.3585 -0.4301
  310MOL0     C40822  12.931   9.779   3.282  0.0627 -0.0235  0.0230
  310MOL0     O40823  13.069   9.771   3.280  0.1176 -0.3432 -0.2125
  310MOL0     C40824  13.134   9.645   3.282 -0.1470 -0.3443 -0.0638
  310MOL0     C40825  13.157   9.585   3.138 -0.7651  0.4239 -0.0077
  310MOL0     C40826  13.076   9.455   3.111 -0.2409 -0.4281  0.0326
  310MOL0     C40827  13.093   9.404   2.966  0.7498  0.5729 -0.4950
  310MOL0     C40828  12.985   9.305   2.944 -0.4800  0.7728 -0.3320
  310MOL0     C40829  12.850   9.370   2.932  0.2002  0.0831  0.5636
  310MOL0     C40830  12.733   9.264   2.930 -0.6353  0.6173  0.5534
  310MOL0     C40831  12.599   9.326   2.899  0.1250 -0.6112  0.2126
  310MOL0    Cl40832  12.484   9.199   2.868  0.0221 -0.1392  0.2101
  310MOL0     C40833  12.843   9.676   3.289  0.1185 -0.9887  0.8577
  310MOL0     C40834  12.710   9.702   3.331  0.5179  0.0208  0.6584
  310MOL0     O40835  12.567   9.762   3.606 -0.4569  0.1753 -0.2714
  310MOL0     C40836  12.279   9.801   3.667  0.3775  0.2849  0.0493
  310MOL0     C40837  12.143   9.828   3.673 -0.1969  0.0340 -0.5354
  310MOL0     N40838  11.365   9.832   3.813  0.1925 -0.1349  0.6885
  310MOL0     N40839  11.252   9.811   3.857 -0.1293 -0.0018  0.2170
  310MOL0     C40840  10.010   9.774   4.029  0.6419 -0.6979 -0.3441
  310MOL0     C40841   9.872   9.750   4.029  0.0812  0.1884  0.0789
  310MOL0     C40842   9.406   9.805   4.067  0.6399  0.3783 -0.1482
  310MOL0     C40843   9.396   9.683   4.002 -0.0723  0.4256  0.3943
  310MOL0     C40844   9.272   9.631   3.977 -0.1295 -0.4064  0.1734
  310MOL0     C40845   9.159   9.696   4.024 -0.6734 -0.5113 -1.0226
  310MOL0     O40846   9.032   9.652   4.009  0.8420  0.6811 -0.6355
  310MOL0     C40847   9.003   9.517   3.977 -0.0239  0.1403  1.0080
  310MOL0     C40848   8.937   9.501   3.841 -0.1436 -0.3115  1.7569
  310MOL0     C40849   9.035   9.535   3.717 -0.6311  0.1207  0.1567
  310MOL0     C40850   8.960   9.570   3.586  0.3130  0.4115  0.0206
  310MOL0     C40851   8.832   9.499   3.572  1.2163  0.2425  0.5257
  310MOL0     C40852   8.716   9.471   3.543  0.8585  1.0697 -0.2570
  310MOL0     C40853   9.170   9.819   4.089  0.2538  0.4880 -0.1111
  310MOL0     C40854   9.295   9.875   4.115  1.0207  0.0812  0.4578
  310MOL0     H40855   9.723  10.038   4.018 -1.9116 -1.3216  3.0568
  310MOL0     H40856   9.970  10.114   4.032 -0.8223  0.2920 -0.3997
  310MOL0     H40857  10.269   9.817   3.938 -0.6240 -0.2702 -0.2203
  310MOL0     H40858  10.280   9.773   4.102 -1.5971 -1.3384 -1.1247
  310MOL0     H40859  10.427   9.919   4.170 -0.4950  3.3938  0.6638
  310MOL0     H40860  10.388  10.043   4.062  2.9511  0.7353  1.5237
  310MOL0     H40861  10.505   9.880   3.863  4.0591  0.8245 -1.2203
  310MOL0     H40862  10.564   9.795   3.998 -2.2202 -1.2837  0.1113
  310MOL0     H40863  10.593  10.072   3.905 -4.3183 -0.2849  1.0521
  310MOL0     H40864  10.628  10.051   4.072 -2.3494  1.5226 -0.1046
  310MOL0     H40865  10.806   9.943   3.846  1.2825  0.7400  1.0139
  310MOL0     H40866  10.807   9.869   4.003 -1.7021 -0.5551  1.7800
  310MOL0     H40867  10.872  10.075   4.100 -0.4609 -3.2494  0.0392
  310MOL0     H40868  10.824  10.177   3.950  2.5088  1.5678  0.5683
  310MOL0     H40869  10.985  10.061   3.827 -1.5550  1.3947  0.2511
  310MOL0     H40870  11.047  10.154   3.958 -0.8587  0.6247 -0.0894
  310MOL0     H40871  11.022   9.844   3.963  2.8992 -2.8006  4.4435
  310MOL0     H40872  11.085   9.951   4.090  1.8466  0.5628 -0.3686
  310MOL0     H40873  11.299  10.124   3.931  0.6996 -0.5895  2.7558
  310MOL0     H40874  11.538  10.123   3.838 -0.1657  0.4767 -0.4406
  310MOL0     H40875  11.481  10.078   3.682 -0.9736  0.3816 -0.3704
  310MOL0     H40876  11.591   9.844   3.716  1.9152 -1.6375  0.0532
  310MOL0     H40877  11.656   9.925   3.867 -0.7628  3.9853  1.0541
  310MOL0     H40878  11.711  10.017   3.578 -0.0879  1.5302  0.6579
  310MOL0     H40879  11.773  10.086   3.724  1.3541 -1.2633  0.0012
  310MOL0     H40880  11.821   9.801   3.673 -0.0159  1.3249 -2.2998
  310MOL0     H40881  11.913   9.895   3.781  1.9750 -1.1672 -1.2104
  310MOL0     H40882  12.064   9.919   3.353 -0.2313  1.9342  0.9133
  310MOL0     H40883  12.315   9.868   3.331 -3.0816  3.5582 -1.0632
  310MOL0     H40884  12.715  10.037   3.311 -0.7573 -1.2168 -1.6325
  310MOL0     H40885  12.956   9.990   3.288  1.8402 -1.4745  0.3739
  310MOL0     H40886  13.083   9.573   3.347 -2.4729  0.5885 -0.7519
  310MOL0     H40887  13.232   9.672   3.323 -0.1561  0.2936 -0.4647
  310MOL0     H40888  13.264   9.567   3.120 -1.4798 -1.9651 -2.6189
  310MOL0     H40889  13.128   9.658   3.061 -2.6850 -2.2769 -2.0142
  310MOL0     H40890  12.974   9.459   3.151 -0.0925  0.2429  0.3612
  310MOL0     H40891  13.118   9.384   3.183 -2.9087 -1.5920  0.5634
  310MOL0     H40892  13.087   9.489   2.897 -0.3151  0.5360 -0.4554
  310MOL0     H40893  13.186   9.348   2.955 -0.0899 -0.4933 -2.7761
  310MOL0     H40894  12.985   9.245   3.035  1.0379  1.6620  0.2867
  310MOL0     H40895  13.007   9.246   2.854 -2.1384 -0.1919 -0.1612
  310MOL0     H40896  12.842   9.430   2.841 -2.7407 -0.3552  0.4316
  310MOL0     H40897  12.822   9.437   3.013 -4.2404 -0.5777 -0.1621
  310MOL0     H40898  12.759   9.196   2.849 -3.9950  0.8057 -0.8758
  310MOL0     H40899  12.734   9.213   3.027 -1.4257  0.2939  0.4026
  310MOL0     H40900  12.603   9.398   2.817  1.9886 -0.4928  0.3604
  310MOL0     H40901  12.564   9.370   2.993 -1.6698  0.1659 -0.7702
  310MOL0     H40902  12.877   9.574   3.274  1.8545 -0.4674  1.0013
  310MOL0     H40903  12.643   9.619   3.350 -2.0429  1.9371  0.5514
  310MOL0     H40904  12.322   9.787   3.766 -2.2616 -0.0544  1.2530
  310MOL0     H40905  12.087   9.799   3.762 -0.4050  0.9265 -0.3694
  310MOL0     H40906  10.081   9.693   4.045 -2.9638 -4.2343 -0.5088
  310MOL0     H40907   9.844   9.645   4.034  0.6188 -0.0562 -1.3563
  310MOL0     H40908   9.485   9.631   3.969  1.0070  2.3902  0.0126
  310MOL0     H40909   9.272   9.532   3.933  1.1106 -0.2788 -0.1333
  310MOL0     H40910   8.920   9.479   4.037 -0.1885 -1.3518 -0.1258
  310MOL0     H40911   9.092   9.453   3.982 -0.7602 -0.8314  2.3288
  310MOL0     H40912   8.898   9.400   3.829 -2.6896  0.8994 -2.6727
  310MOL0     H40913   8.854   9.573   3.839  0.4719  0.4048  1.3951
  310MOL0     H40914   9.098   9.447   3.704  0.1647  0.8812 -1.3170
  310MOL0     H40915   9.098   9.620   3.743 -2.9765  1.4135  2.0545
  310MOL0     H40916   8.928   9.674   3.596  1.0143  0.4813  1.7770
  310MOL0     H40917   9.020   9.564   3.495 -1.4195 -1.6799 -1.0955
  310MOL0     H40918   8.614   9.442   3.526  1.1334  0.1554 -0.4412
  310MOL0     H40919   9.077   9.865   4.119 -0.0828 -0.3291  0.1406
  310MOL0     H40920   9.303   9.980   4.141  0.6485  0.0585  0.6650
  311MOL0     O40921   4.352   3.662   1.484  0.5061 -0.7996  0.1824
  311MOL0     C40922   4.360   3.594   1.380  0.0390 -0.2919  0.1876
  311MOL0     O40923   4.475   3.528   1.329 -0.0806 -0.8678 -0.3084
  311MOL0     C40924   4.582   3.533   1.412  0.1002 -0.1122 -0.2149
  311MOL0     C40925   4.583   3.486   1.536 -0.0546 -0.8000 -0.1612
  311MOL0     C40926   4.688   3.516   1.624 -0.3685 -1.1332 -0.7353
  311MOL0     C40927   4.794   3.596   1.572  0.3780  0.4683 -0.6637
  311MOL0     O40928   4.883   3.633   1.670 -0.2835  0.5918 -0.8316
  311MOL0     C40929   4.947   3.759   1.664  0.3877 -0.6758 -0.0979
  311MOL0     C40930   5.029   3.780   1.792 -0.2680 -0.1920 -0.2788
  311MOL0     C40931   5.081   3.659   1.853  0.5925  0.0098 -0.0739
  311MOL0     C40932   5.160   3.679   1.983  0.3996  0.4677 -0.1228
  311MOL0     C40933   5.238   3.560   2.032 -0.1894  0.4385 -0.0338
  311MOL0     C40934   5.285   3.598   2.169 -0.3929  0.2850  0.3084
  311MOL0     C40935   5.201   3.543   2.282 -0.0712 -0.1849  0.3325
  311MOL0     C40936   5.241   3.604   2.420 -0.2141 -0.1412  0.2374
  311MOL0     N40937   5.373   3.558   2.467 -0.2154 -0.3844  0.3032
  311MOL0     C40938   5.398   3.448   2.550  0.0670 -0.3891  0.0655
  311MOL0     C40939   5.529   3.436   2.565  0.1358 -0.0047  0.2409
  311MOL0     C40940   5.599   3.335   2.653 -0.6149  0.3603 -0.8978
  311MOL0     C40941   5.657   3.394   2.782  0.4227 -0.0667  0.1251
  311MOL0     C40942   5.792   3.454   2.749  0.2103 -0.1257 -0.9982
  311MOL0     C40943   5.856   3.507   2.869  0.7960 -0.0922 -0.2401
  311MOL0     O40944   5.988   3.482   2.862 -0.8983  0.3289 -0.3252
  311MOL0     C40945   6.068   3.511   2.974  0.6672 -0.1125  0.0861
  311MOL0     C40946   6.199   3.474   2.972  1.0008 -0.2607  0.2294
  311MOL0     C40947   6.285   3.519   3.079 -0.0702  0.6128  0.5405
  311MOL0     C40948   6.237   3.585   3.193 -0.4571 -0.3303  1.0409
  311MOL0     C40949   6.331   3.618   3.307  0.3742 -0.1891 -0.6923
  311MOL0     O40950   6.289   3.702   3.403 -0.3517 -0.2974 -1.6191
  311MOL0     C40951   6.356   3.745   3.513  0.1109 -0.3818  0.5199
  311MOL0     C40952   6.469   3.684   3.570 -0.0182  0.0055  0.1536
  311MOL0     C40953   6.536   3.741   3.675 -0.2601 -0.0314  0.8508
  311MOL0     C40954   6.484   3.852   3.743  0.3398 -0.7038 -0.0298
  311MOL0     O40955   6.548   3.927   3.843  0.4836  0.3416  0.0258
  311MOL0     C40956   6.693   3.936   3.856  0.5189  0.3494 -0.0596
  311MOL0     C40957   6.745   4.076   3.886  0.7791 -0.3219  0.2315
  311MOL0     C40958   6.885   4.069   3.933  0.0836  0.3772  0.4298
  311MOL0     C40959   6.953   4.210   3.916 -0.4595 -0.2347  0.5887
  311MOL0     C40960   7.107   4.213   3.971  0.5847 -1.1764  0.1660
  311MOL0     C40961   7.147   4.354   3.949  0.3717 -1.3519  0.2728
  311MOL0     C40962   7.296   4.391   3.974 -0.5619 -0.2853  0.3812
  311MOL0     C40963   7.324   4.539   3.922  0.9222  0.0380  1.1757
  311MOL0    Cl40964   7.431   4.602   4.030 -0.4928 -0.3700  0.0251
  311MOL0     C40965   6.362   3.909   3.708 -0.3650  0.1903 -0.5557
  311MOL0     C40966   6.299   3.848   3.592 -0.0078  0.2921 -0.2101
  311MOL0     O40967   6.439   3.565   3.294 -0.2721  0.2442 -0.1756
  311MOL0     C40968   6.104   3.624   3.183  0.1597  0.5217 -1.2272
  311MOL0     C40969   6.019   3.582   3.088 -0.5621 -0.4879  0.5919
  311MOL0     N40970   5.584   3.551   2.516  0.0996  0.8111 -0.6966
  311MOL0     N40971   5.488   3.624   2.460 -0.8725  0.0105  0.3651
  311MOL0     C40972   4.803   3.631   1.436  0.6136 -0.5557  0.0483
  311MOL0     C40973   4.696   3.590   1.353 -0.1657  0.3035 -1.0002
  311MOL0     C40974   4.241   3.574   1.310 -0.0625 -0.3935  0.1352
  311MOL0     C40975   4.110   3.617   1.348 -0.5290 -0.6225  0.0910
  311MOL0     C40976   3.999   3.616   1.261 -0.6357  0.1930 -0.0940
  311MOL0     C40977   4.009   3.559   1.136  0.9106 -0.1235  0.3037
  311MOL0     O40978   3.897   3.548   1.060 -0.5895 -0.1008  0.6150
  311MOL0     C40979   3.850   3.417   1.044 -0.1274 -0.5233  0.4424
  311MOL0     C40980   3.728   3.429   0.954 -0.0847 -0.0095 -1.0796
  311MOL0     C40981   3.770   3.473   0.813 -0.5699  0.4887  0.8032
  311MOL0     C40982   3.854   3.364   0.745  0.4023  0.2697  0.3361
  311MOL0     C40983   3.996   3.391   0.750 -0.3193 -0.7065  0.4855
  311MOL0     C40984   4.114   3.415   0.735 -0.4778 -0.0929  0.2308
  311MOL0     C40985   4.130   3.509   1.093 -0.1438  0.5304 -0.1799
  311MOL0     C40986   4.243   3.515   1.174 -0.4519  0.0591 -0.8888
  311MOL0     H40987   4.496   3.434   1.574 -1.4835  0.4398 -1.6081
  311MOL0     H40988   4.684   3.479   1.726  1.8511 -0.1124 -0.2288
  311MOL0     H40989   4.875   3.840   1.651  0.3032 -0.8074 -0.4617
  311MOL0     H40990   5.015   3.761   1.578  0.4766  0.0462 -0.0168
  311MOL0     H40991   4.970   3.832   1.867  0.5341  0.1630  0.1182
  311MOL0     H40992   5.113   3.844   1.762 -0.5179 -0.2841 -1.1977
  311MOL0     H40993   5.149   3.620   1.777  0.8791 -0.7286  0.5538
  311MOL0     H40994   5.004   3.586   1.876  0.9404 -0.6817 -1.0088
  311MOL0     H40995   5.228   3.761   1.959  3.3868 -1.4421  1.1505
  311MOL0     H40996   5.099   3.716   2.066 -2.8484  0.2555 -2.2633
  311MOL0     H40997   5.317   3.537   1.960 -0.5091  2.0406 -0.9341
  311MOL0     H40998   5.176   3.471   2.033 -0.8297  0.8790  0.9011
  311MOL0     H40999   5.296   3.707   2.177 -0.7662  0.2681  1.2936
  311MOL0     H41000   5.384   3.552   2.175 -0.0752  0.5357 -2.1318
  311MOL0     H41001   5.100   3.581   2.266  0.9967  3.0105  0.3770
  311MOL0     H41002   5.201   3.434   2.295 -1.3001 -0.3401 -0.8027
  311MOL0     H41003   5.163   3.570   2.489 -0.0424  0.3717  0.6948
  311MOL0     H41004   5.240   3.713   2.414  0.7180 -0.1452 -0.1444
  311MOL0     H41005   5.331   3.379   2.600  2.5880 -4.4498 -1.6933
  311MOL0     H41006   5.675   3.278   2.600  0.3639  2.6667 -2.1473
  311MOL0     H41007   5.522   3.261   2.676 -0.0553 -0.2383 -0.9349
  311MOL0     H41008   5.660   3.322   2.864  1.4008 -0.0325  0.1264
  311MOL0     H41009   5.584   3.469   2.815  0.0980  0.6946 -2.1654
  311MOL0     H41010   5.863   3.385   2.703  0.4820  0.9853 -2.3163
  311MOL0     H41011   5.779   3.533   2.674  0.4558  1.9494  1.0055
  311MOL0     H41012   5.815   3.462   2.960  3.5817  2.6488  2.6320
  311MOL0     H41013   5.846   3.615   2.881  3.0167  0.4227 -2.1927
  311MOL0     H41014   6.244   3.417   2.892  1.8107  1.0648 -0.2945
  311MOL0     H41015   6.385   3.478   3.064 -1.0075 -1.1562 -1.3365
  311MOL0     H41016   6.516   3.595   3.529  0.4386 -1.0554  2.7665
  311MOL0     H41017   6.618   3.687   3.720  0.3271 -0.7870 -1.0035
  311MOL0     H41018   6.746   3.909   3.765 -0.1530  2.7661 -1.2550
  311MOL0     H41019   6.728   3.863   3.929 -0.9345  0.3058  0.6376
  311MOL0     H41020   6.673   4.110   3.961  3.3337 -0.3186  2.8676
  311MOL0     H41021   6.737   4.152   3.808  1.7338  0.5721  0.9717
  311MOL0     H41022   6.935   3.992   3.872  1.7250  1.2271  0.6371
  311MOL0     H41023   6.892   4.028   4.034 -1.0659  1.2418  0.8774
  311MOL0     H41024   6.948   4.245   3.812  0.4823  1.6945  1.1525
  311MOL0     H41025   6.896   4.278   3.979 -1.0397 -0.2080  0.0507
  311MOL0     H41026   7.176   4.148   3.916  0.6108 -0.9878 -0.0233
  311MOL0     H41027   7.118   4.188   4.077  0.6842 -1.2382  0.1407
  311MOL0     H41028   7.097   4.419   4.021  1.8004 -0.8566  0.8661
  311MOL0     H41029   7.129   4.379   3.844  1.6214 -0.5985  0.2153
  311MOL0     H41030   7.314   4.390   4.082 -0.5781  1.2146  0.4099
  311MOL0     H41031   7.353   4.313   3.923 -1.3712 -0.3430 -0.4665
  311MOL0     H41032   7.237   4.604   3.907  0.2612 -1.3665 -2.1414
  311MOL0     H41033   7.362   4.533   3.819 -0.0669 -3.2516  0.8734
  311MOL0     H41034   6.321   3.992   3.764  0.6326  0.4121 -0.1258
  311MOL0     H41035   6.202   3.893   3.572  0.1848  2.1198  2.5392
  311MOL0     H41036   6.082   3.688   3.268  0.5997  0.9178 -1.4109
  311MOL0     H41037   5.913   3.605   3.089 -0.8492 -1.2182 -2.7379
  311MOL0     H41038   4.882   3.701   1.411 -0.2671 -0.6217 -3.3316
  311MOL0     H41039   4.703   3.618   1.248  0.5160  1.4824 -0.6629
  311MOL0     H41040   4.082   3.664   1.442 -0.4758  3.5143 -1.7273
  311MOL0     H41041   3.906   3.667   1.284  0.0152  3.0132 -2.8754
  311MOL0     H41042   3.831   3.377   1.144  0.2665  0.7197  1.0278
  311MOL0     H41043   3.932   3.357   1.004  0.5194  0.5435  0.1224
  311MOL0     H41044   3.678   3.332   0.954 -0.4667 -0.0606  3.8610
  311MOL0     H41045   3.655   3.494   1.003 -1.0410 -1.9237  0.1279
  311MOL0     H41046   3.834   3.561   0.824  1.2587 -0.7028  0.1638
  311MOL0     H41047   3.683   3.487   0.747 -0.1056 -0.0230  0.0716
  311MOL0     H41048   3.831   3.268   0.791  0.2850 -0.1067 -0.4985
  311MOL0     H41049   3.823   3.358   0.640 -1.3467 -0.9142  0.8612
  311MOL0     H41050   4.212   3.427   0.693 -0.0449  0.1055  1.2634
  311MOL0     H41051   4.137   3.480   0.989 -0.5658  0.0528 -0.0786
  311MOL0     H41052   4.330   3.482   1.118 -1.4871 -0.7337 -2.0954
  312MOL0     O41053   4.907   2.370   4.776 -0.0791  0.5815  0.2604
  312MOL0     C41054   4.840   2.260   4.797 -0.1330 -0.0654 -0.8405
  312MOL0     O41055   4.872   2.162   4.889  0.2685 -0.3248 -0.5734
  312MOL0     C41056   4.981   2.185   4.964 -1.7588 -0.2832 -0.0008
  312MOL0     C41057   5.091   2.100   4.947  0.9539 -0.0874  0.4457
  312MOL0     C41058   5.205   2.121   5.022  0.6123  0.3738  0.1711
  312MOL0     C41059   5.225   2.229   5.111 -0.2567  0.9023 -0.3511
  312MOL0     O41060   5.348   2.248   5.168 -0.5539 -0.2664  0.1561
  312MOL0     C41061   5.359   2.262   5.306 -0.1839  0.0283  0.4284
  312MOL0     C41062   5.350   2.121   5.370  0.3586 -0.2880 -0.1562
  312MOL0     C41063   5.470   2.045   5.323  0.4077 -0.7737 -0.9475
  312MOL0     C41064   5.496   1.929   5.424  0.7346  0.1429  0.2296
  312MOL0     C41065   5.566   1.819   5.350 -0.4339 -0.3982 -0.6140
  312MOL0     C41066   5.647   1.731   5.441 -0.2644 -0.4562  0.0266
  312MOL0     C41067   5.645   1.580   5.393 -0.4114 -0.2107  0.5720
  312MOL0     C41068   5.559   1.488   5.483 -0.0167 -0.3628  0.7068
  312MOL0     N41069   5.417   1.531   5.483 -0.1436  0.0639 -0.1466
  312MOL0     C41070   5.314   1.472   5.416  0.5747 -0.6721  1.1328
  312MOL0     C41071   5.205   1.558   5.441 -0.4080  0.3468  0.7280
  312MOL0     C41072   5.080   1.595   5.362 -1.1383 -0.3530  0.4832
  312MOL0     C41073   5.090   1.744   5.316  0.0660 -0.3851 -0.5147
  312MOL0     C41074   5.004   1.770   5.191 -0.5529 -0.5444 -0.0794
  312MOL0     C41075   5.061   1.709   5.061 -0.6568 -0.1907  1.2343
  312MOL0     O41076   5.011   1.774   4.945 -0.4412  0.9936  0.4311
  312MOL0     C41077   4.886   1.752   4.893 -0.2096 -0.1064 -0.2734
  312MOL0     C41078   4.842   1.839   4.799 -1.3505 -1.1517  0.1036
  312MOL0     C41079   4.712   1.826   4.741 -0.2151  0.3141  0.1590
  312MOL0     C41080   4.627   1.717   4.773 -0.0415  0.1155  0.4622
  312MOL0     C41081   4.496   1.698   4.704 -0.2706 -0.6003 -0.1522
  312MOL0     O41082   4.427   1.580   4.744 -0.2652 -1.5371  0.0247
  312MOL0     C41083   4.302   1.572   4.690  0.1617  0.0952  0.3824
  312MOL0     C41084   4.195   1.577   4.780  0.1860 -0.4753  0.1123
  312MOL0     C41085   4.064   1.559   4.752  0.0799  0.8017 -0.1042
  312MOL0     C41086   4.034   1.537   4.613  0.1928 -0.6122 -0.3917
  312MOL0     O41087   3.910   1.508   4.563  0.9080 -0.0829 -0.0583
  312MOL0     C41088   3.798   1.595   4.605  0.2593  0.6767  0.4027
  312MOL0     C41089   3.673   1.554   4.530  0.1391 -0.4367  0.6066
  312MOL0     C41090   3.590   1.463   4.613 -0.3506  0.0603 -0.6078
  312MOL0     C41091   3.449   1.459   4.556 -0.1683 -0.6637 -0.1724
  312MOL0     C41092   3.373   1.343   4.631 -0.8525 -0.4469  0.4618
  312MOL0     C41093   3.289   1.393   4.752  0.5129 -0.3415  0.3102
  312MOL0     C41094   3.259   1.294   4.860  0.4195 -0.4802  0.2435
  312MOL0     C41095   3.350   1.309   4.987 -0.5815 -0.6293  0.0404
  312MOL0    Cl41096   3.264   1.233   5.125 -0.1403 -0.0323  0.0913
  312MOL0     C41097   4.138   1.555   4.520 -0.7081 -0.8836  0.8899
  312MOL0     C41098   4.271   1.576   4.553  0.0741  0.1771 -0.6237
  312MOL0     O41099   4.462   1.779   4.624  0.3141 -0.6612  0.2883
  312MOL0     C41100   4.675   1.630   4.865  0.5673  0.0640 -0.0849
  312MOL0     C41101   4.801   1.643   4.924 -0.4634 -0.0540 -0.2200
  312MOL0     N41102   5.245   1.637   5.546  0.1606 -0.0303 -0.6500
  312MOL0     N41103   5.366   1.620   5.566 -0.8285  0.8270  0.3070
  312MOL0     C41104   5.117   2.316   5.121 -0.2772  0.1762 -1.1899
  312MOL0     C41105   4.996   2.294   5.050  0.1242  0.2887  0.6089
  312MOL0     C41106   4.706   2.240   4.741 -0.9078 -0.4204  0.0839
  312MOL0     C41107   4.673   2.304   4.620  0.2792 -1.0102 -0.6438
  312MOL0     C41108   4.542   2.313   4.573 -0.0332 -0.8399  0.6799
  312MOL0     C41109   4.447   2.232   4.632  0.4462  0.0541  0.2123
  312MOL0     O41110   4.321   2.239   4.573 -0.1342  0.2965 -0.2386
  312MOL0     C41111   4.221   2.144   4.609  0.9610  0.2301 -0.5186
  312MOL0     C41112   4.107   2.137   4.501 -0.2404 -0.2888  0.4076
  312MOL0     C41113   4.153   2.062   4.374  0.2331  0.2587  0.1034
  312MOL0     C41114   4.148   1.916   4.385  0.1426 -0.2354  0.2290
  312MOL0     C41115   4.013   1.853   4.374 -0.1648 -0.1441  1.1005
  312MOL0     C41116   3.909   1.809   4.348  0.1605  0.1493 -0.7618
  312MOL0     C41117   4.479   2.169   4.748 -0.0704 -0.5077 -0.9589
  312MOL0     C41118   4.608   2.169   4.802  1.8433 -0.1207 -0.2738
  312MOL0     H41119   5.103   2.016   4.880  0.2788 -0.6985  1.0677
  312MOL0     H41120   5.280   2.043   5.013 -1.7753 -1.8126 -3.1639
  312MOL0     H41121   5.275   2.316   5.350  2.0385  4.4200 -0.2015
  312MOL0     H41122   5.452   2.312   5.334  0.5290 -1.7169  1.3642
  312MOL0     H41123   5.261   2.069   5.334  0.2268 -0.2211  0.0708
  312MOL0     H41124   5.354   2.117   5.479  0.7469  0.5118 -0.1400
  312MOL0     H41125   5.561   2.103   5.307  1.0509 -1.4395  0.1840
  312MOL0     H41126   5.441   2.009   5.224 -0.5821  1.2861 -1.4725
  312MOL0     H41127   5.558   1.962   5.507  0.2360 -0.5512  0.8895
  312MOL0     H41128   5.399   1.891   5.458  0.5847 -0.5894 -0.9251
  312MOL0     H41129   5.633   1.867   5.278 -0.0081  1.1581  0.7653
  312MOL0     H41130   5.490   1.761   5.297 -2.1269  0.2331  1.0137
  312MOL0     H41131   5.603   1.731   5.541  0.0710  3.1522  0.3302
  312MOL0     H41132   5.747   1.771   5.458 -0.1737 -1.3322  1.7510
  312MOL0     H41133   5.625   1.561   5.287  0.6367  0.8183  0.1721
  312MOL0     H41134   5.743   1.532   5.394 -1.5095 -2.9112 -2.4679
  312MOL0     H41135   5.595   1.497   5.585 -1.9755 -1.3901  1.5487
  312MOL0     H41136   5.559   1.388   5.437 -4.1643  0.4342 -1.5080
  312MOL0     H41137   5.322   1.412   5.325  1.0818  0.1949  0.5943
  312MOL0     H41138   4.992   1.577   5.425 -3.1364 -1.6627 -2.4293
  312MOL0     H41139   5.059   1.527   5.279 -1.8998  1.7705 -1.1687
  312MOL0     H41140   5.193   1.779   5.304  0.2444 -1.0346 -0.9553
  312MOL0     H41141   5.052   1.806   5.398  1.1926 -1.1488  0.6314
  312MOL0     H41142   4.903   1.733   5.207  0.1105 -1.4667  2.4650
  312MOL0     H41143   5.001   1.879   5.184 -1.9332 -0.4580  1.4382
  312MOL0     H41144   5.045   1.602   5.051  0.4991 -0.4275  1.7118
  312MOL0     H41145   5.168   1.721   5.040 -1.4124  1.0652 -3.0088
  312MOL0     H41146   4.915   1.917   4.780 -2.0200 -0.6034 -0.2899
  312MOL0     H41147   4.685   1.912   4.681 -0.8421  0.0388  0.0365
  312MOL0     H41148   4.224   1.581   4.885  2.7757  2.3360 -0.5552
  312MOL0     H41149   3.981   1.540   4.819  0.5942 -2.4760 -0.2457
  312MOL0     H41150   3.819   1.702   4.590  2.6268  0.1787 -0.2872
  312MOL0     H41151   3.782   1.593   4.713  1.8235 -0.5719  0.6506
  312MOL0     H41152   3.690   1.493   4.440 -0.7170  2.1190 -1.4160
  312MOL0     H41153   3.608   1.637   4.500 -1.5755 -1.3864  1.5257
  312MOL0     H41154   3.590   1.490   4.719  1.8715 -0.9921 -0.2669
  312MOL0     H41155   3.647   1.369   4.610 -0.4946 -0.0916  0.8512
  312MOL0     H41156   3.391   1.549   4.576  0.4368 -0.6825  2.0204
  312MOL0     H41157   3.455   1.446   4.448  1.0908  0.6716 -0.2993
  312MOL0     H41158   3.455   1.277   4.660 -1.8693 -1.8661  0.2277
  312MOL0     H41159   3.309   1.302   4.552 -1.8100  1.8725 -0.0549
  312MOL0     H41160   3.192   1.428   4.715  1.2927 -1.0571 -2.7388
  312MOL0     H41161   3.342   1.480   4.791 -2.4423  1.1326  1.3010
  312MOL0     H41162   3.153   1.298   4.887 -0.0180 -1.2748 -1.3018
  312MOL0     H41163   3.275   1.194   4.819 -1.2277 -1.0811  0.9927
  312MOL0     H41164   3.371   1.415   5.001  1.2490 -0.5666 -2.4807
  312MOL0     H41165   3.449   1.264   4.977 -0.7396 -0.6439 -1.6674
  312MOL0     H41166   4.107   1.538   4.417 -1.3793 -1.9929  1.2576
  312MOL0     H41167   4.355   1.575   4.484  0.1609 -0.5522 -0.5118
  312MOL0     H41168   4.615   1.544   4.892  2.8368 -1.0406  1.8334
  312MOL0     H41169   4.828   1.570   5.000 -0.4276  3.1179  3.0825
  312MOL0     H41170   5.136   2.405   5.181 -3.1577  0.4082 -0.4852
  312MOL0     H41171   4.911   2.361   5.049 -0.3710 -0.3359 -1.1017
  312MOL0     H41172   4.761   2.353   4.579  1.6589 -0.2594  2.7899
  312MOL0     H41173   4.538   2.338   4.468  2.3522  0.9962  0.9331
  312MOL0     H41174   4.184   2.170   4.708  0.5996  0.8245 -0.8047
  312MOL0     H41175   4.267   2.046   4.626 -0.5088 -0.4207 -0.1911
  312MOL0     H41176   4.021   2.092   4.552 -1.8020  3.1386  1.1495
  312MOL0     H41177   4.079   2.238   4.469 -0.0016 -0.2881  0.2054
  312MOL0     H41178   4.255   2.090   4.344 -0.2670  0.3350 -1.6429
  312MOL0     H41179   4.079   2.094   4.299 -0.5616 -3.7809 -1.0698
  312MOL0     H41180   4.226   1.871   4.323  2.0809  1.8570  1.0079
  312MOL0     H41181   4.181   1.892   4.486  0.8231  0.5074  0.1930
  312MOL0     H41182   3.814   1.762   4.332  0.6334 -1.1049 -0.0401
  312MOL0     H41183   4.400   2.121   4.805 -2.0726  0.3901 -2.8282
  312MOL0     H41184   4.625   2.120   4.898 -1.8952 -0.4651  0.3542
  313MOL0     O41185   5.857   5.897   8.384  0.5363  0.0114 -0.2884
  313MOL0     C41186   5.800   5.797   8.338 -0.1814 -0.2187  0.3040
  313MOL0     O41187   5.672   5.796   8.273  0.2441 -0.8496 -0.5276
  313MOL0     C41188   5.599   5.910   8.296  0.8287  0.1577  0.3673
  313MOL0     C41189   5.614   6.020   8.208  0.0174 -1.1019  0.1676
  313MOL0     C41190   5.548   6.140   8.226  0.2085 -0.0402 -0.6085
  313MOL0     C41191   5.433   6.140   8.317 -0.8257  0.4430 -0.8005
  313MOL0     O41192   5.369   6.262   8.320  0.0439  0.0939 -0.6000
  313MOL0     C41193   5.255   6.282   8.392  0.3220 -0.5883  0.4015
  313MOL0     C41194   5.226   6.430   8.412 -0.0281  0.4826  0.5874
  313MOL0     C41195   5.084   6.457   8.478  0.6719  0.0488  0.1056
  313MOL0     C41196   4.958   6.431   8.390  0.1768 -0.2424  0.6474
  313MOL0     C41197   4.831   6.424   8.472 -0.1962  0.2509 -0.5248
  313MOL0     C41198   4.720   6.404   8.375 -1.1786 -0.4468  0.6217
  313MOL0     C41199   4.580   6.386   8.444 -0.0688 -0.5429  0.8886
  313MOL0     C41200   4.497   6.289   8.361  0.3095  0.7177  0.2067
  313MOL0     N41201   4.362   6.293   8.424 -0.4807  0.1832  0.6213
  313MOL0     C41202   4.242   6.318   8.359 -1.0132 -0.3803  0.0987
  313MOL0     C41203   4.143   6.266   8.429  0.8828  0.0128 -0.8404
  313MOL0     C41204   3.994   6.290   8.405  0.3403  0.9655 -0.4776
  313MOL0     C41205   3.908   6.305   8.539 -0.1015  0.0424  0.6454
  313MOL0     C41206   3.793   6.408   8.521  0.0983 -0.1848  0.4252
  313MOL0     C41207   3.685   6.377   8.418  0.1966 -0.0215 -1.1718
  313MOL0     O41208   3.666   6.235   8.402  0.0158 -1.2680  0.5686
  313MOL0     C41209   3.554   6.214   8.333 -0.2342 -0.0760  0.2827
  313MOL0     C41210   3.457   6.148   8.395  1.2062 -0.4720 -0.1083
  313MOL0     C41211   3.341   6.120   8.324  0.4008  0.4342  0.2601
  313MOL0     C41212   3.313   6.172   8.190 -0.1726 -0.4975 -0.5325
  313MOL0     C41213   3.185   6.162   8.123  0.6202  0.5425 -0.5685
  313MOL0     O41214   3.174   6.239   8.014  0.0794  0.3286  0.5025
  313MOL0     C41215   3.062   6.249   7.934  0.1996 -0.7116  0.7638
  313MOL0     C41216   2.931   6.236   7.977  0.8116  0.7575 -0.2034
  313MOL0     C41217   2.820   6.246   7.886 -0.8370 -0.7861  0.8973
  313MOL0     C41218   2.851   6.261   7.745  0.1218 -0.0973 -0.0631
  313MOL0     O41219   2.754   6.278   7.646 -0.2721  0.7092 -0.6937
  313MOL0     C41220   2.615   6.243   7.673 -0.1474 -0.3615 -0.5389
  313MOL0     C41221   2.537   6.348   7.761 -0.7062 -0.2980  0.0371
  313MOL0     C41222   2.392   6.316   7.802  0.1159 -0.0309  0.1290
  313MOL0     C41223   2.311   6.238   7.691  0.0322 -0.5967  0.0143
  313MOL0     C41224   2.174   6.202   7.725  0.3657 -0.1321 -0.3739
  313MOL0     C41225   2.118   6.118   7.608  0.2261  0.0976  0.9919
  313MOL0     C41226   1.967   6.072   7.631 -0.9745 -1.0071 -0.4038
  313MOL0     C41227   1.963   5.958   7.716  1.5601  0.6073  0.0387
  313MOL0    Cl41228   1.817   5.850   7.673 -0.5319 -0.3430 -0.3975
  313MOL0     C41229   2.986   6.283   7.704 -0.1482 -0.7352 -0.1850
  313MOL0     C41230   3.085   6.284   7.799  0.1475  0.1016  0.0618
  313MOL0     O41231   3.092   6.090   8.182  0.4222  0.1761  1.0980
  313MOL0     C41232   3.415   6.245   8.132  0.2302  0.4069 -0.1371
  313MOL0     C41233   3.536   6.255   8.197 -0.1968 -0.4132 -0.7569
  313MOL0     N41234   4.199   6.193   8.536 -0.0164  0.1498  0.1986
  313MOL0     N41235   4.328   6.213   8.533  0.5118 -1.1100 -0.1030
  313MOL0     C41236   5.408   6.019   8.395 -0.7780  0.0511 -0.0989
  313MOL0     C41237   5.491   5.906   8.380 -0.3063 -0.8952 -1.2400
  313MOL0     C41238   5.865   5.663   8.342 -0.1128 -0.6066 -0.7690
  313MOL0     C41239   5.803   5.549   8.283  0.0771 -1.0917 -0.3543
  313MOL0     C41240   5.864   5.428   8.272 -0.6968 -0.3675  0.3772
  313MOL0     C41241   5.986   5.410   8.339  0.2914  0.4630 -0.8386
  313MOL0     O41242   6.058   5.297   8.322 -0.7545  0.0410 -0.5009
  313MOL0     C41243   6.172   5.307   8.240 -1.7832 -0.1625  0.8917
  313MOL0     C41244   6.210   5.168   8.203  0.2932  0.2967 -0.3326
  313MOL0     C41245   6.352   5.158   8.136  0.3724 -0.2172  0.5869
  313MOL0     C41246   6.473   5.198   8.226 -0.7972  0.4199 -0.4703
  313MOL0     C41247   6.455   5.138   8.359 -1.1710  0.0643  0.5074
  313MOL0     C41248   6.465   5.103   8.478  0.7259 -0.9005  0.3007
  313MOL0     C41249   6.036   5.509   8.423 -0.0790  0.4930 -0.1822
  313MOL0     C41250   5.973   5.635   8.431  0.0225  0.4312  1.1217
  313MOL0     H41251   5.685   6.011   8.126  0.3071 -0.9955  0.4050
  313MOL0     H41252   5.557   6.223   8.157  0.0011  0.5431  0.0570
  313MOL0     H41253   5.261   6.239   8.493 -0.7751  2.3484  1.8195
  313MOL0     H41254   5.169   6.236   8.343  0.9168 -0.9669 -0.3173
  313MOL0     H41255   5.208   6.479   8.315 -4.1994  0.6015  1.2092
  313MOL0     H41256   5.309   6.464   8.474  0.0694 -2.8570  2.5405
  313MOL0     H41257   5.085   6.556   8.524  0.3761  0.8247 -1.5086
  313MOL0     H41258   5.067   6.396   8.567 -4.4416  2.7264  1.3186
  313MOL0     H41259   4.961   6.515   8.320  0.5094  0.5322  1.5736
  313MOL0     H41260   4.979   6.342   8.331  2.6280  0.2175  0.7337
  313MOL0     H41261   4.821   6.512   8.536  0.2848 -1.4890  2.0983
  313MOL0     H41262   4.851   6.343   8.542  3.0423  0.7257 -0.7529
  313MOL0     H41263   4.739   6.318   8.309 -1.0849  0.2806 -0.3233
  313MOL0     H41264   4.717   6.492   8.311  0.8336  3.1434  4.8979
  313MOL0     H41265   4.586   6.357   8.550 -0.9846  1.7462  1.6295
  313MOL0     H41266   4.522   6.478   8.437  0.0789 -0.4702  0.6191
  313MOL0     H41267   4.525   6.184   8.374 -0.0746  0.8271  2.3049
  313MOL0     H41268   4.504   6.318   8.256  3.1906 -0.6724 -0.0663
  313MOL0     H41269   4.230   6.380   8.271  1.1398  4.2831  2.7147
  313MOL0     H41270   3.949   6.200   8.362  0.5691 -1.1289  3.2776
  313MOL0     H41271   3.981   6.379   8.342 -2.4497  1.6297  0.8819
  313MOL0     H41272   3.978   6.330   8.619  2.0927 -1.3571 -0.7498
  313MOL0     H41273   3.860   6.214   8.579  2.4044 -0.6909  2.1815
  313MOL0     H41274   3.735   6.418   8.614 -1.0992  1.3935 -0.4406
  313MOL0     H41275   3.841   6.505   8.511 -0.6049 -0.0273 -1.9543
  313MOL0     H41276   3.720   6.419   8.323  2.9066 -0.4181 -0.4259
  313MOL0     H41277   3.592   6.429   8.444  0.9268  0.5638  0.3838
  313MOL0     H41278   3.465   6.125   8.501  0.3912  1.5036  0.4323
  313MOL0     H41279   3.269   6.060   8.378  0.4427  0.5884  0.4859
  313MOL0     H41280   2.920   6.230   8.085  0.4924 -0.5140 -0.2838
  313MOL0     H41281   2.715   6.241   7.916 -1.9745  0.9447 -2.3086
  313MOL0     H41282   2.602   6.142   7.714 -2.5526  0.2539  0.3511
  313MOL0     H41283   2.572   6.252   7.573 -1.1156 -1.5557 -0.2590
  313MOL0     H41284   2.529   6.442   7.706  1.8284  0.3916  0.6884
  313MOL0     H41285   2.580   6.390   7.853  1.8783  1.2310 -1.7054
  313MOL0     H41286   2.338   6.408   7.823  1.3443  0.5590  0.7934
  313MOL0     H41287   2.393   6.256   7.894  2.4467  1.2575  1.0503
  313MOL0     H41288   2.298   6.296   7.598 -1.3953  0.2591  0.7206
  313MOL0     H41289   2.369   6.151   7.659 -2.5853 -0.9141 -4.8294
  313MOL0     H41290   2.114   6.290   7.750 -0.2468 -0.2644 -1.3433
  313MOL0     H41291   2.182   6.135   7.811  0.5232 -1.0539 -1.0876
  313MOL0     H41292   2.181   6.029   7.599  0.4437  0.3222  0.2385
  313MOL0     H41293   2.118   6.180   7.518  0.9522  0.2716  1.1018
  313MOL0     H41294   1.914   6.164   7.657  1.7135 -0.0195  2.0233
  313MOL0     H41295   1.915   6.024   7.548 -2.8741 -0.6067  0.5022
  313MOL0     H41296   1.943   5.994   7.818 -0.2287 -1.0168  0.3250
  313MOL0     H41297   2.052   5.895   7.705  1.7587  1.0277 -0.8692
  313MOL0     H41298   3.013   6.287   7.599  1.2879  1.9618  0.2066
  313MOL0     H41299   3.185   6.277   7.757  0.5240 -0.6325  1.0486
  313MOL0     H41300   3.404   6.295   8.036  0.3045 -1.5285 -1.2089
  313MOL0     H41301   3.616   6.319   8.160  1.4654  1.7311  5.3301
  313MOL0     H41302   5.325   6.025   8.465 -0.2541  0.8470  0.4733
  313MOL0     H41303   5.467   5.821   8.443 -0.1309  1.1913  1.8870
  313MOL0     H41304   5.708   5.570   8.235 -1.3502  0.8246  2.9498
  313MOL0     H41305   5.817   5.349   8.215 -1.7340 -0.3129  1.1217
  313MOL0     H41306   6.251   5.364   8.291 -0.7908  1.6004 -2.3209
  313MOL0     H41307   6.150   5.362   8.148 -1.4257  2.2332  2.1653
  313MOL0     H41308   6.190   5.111   8.294 -1.2705  2.5835  0.8740
  313MOL0     H41309   6.139   5.122   8.134  0.9838 -0.5378 -0.4999
  313MOL0     H41310   6.352   5.215   8.043 -1.9545 -2.2135 -0.7444
  313MOL0     H41311   6.359   5.056   8.098 -1.6481 -0.9410  1.9208
  313MOL0     H41312   6.564   5.173   8.172 -0.8131  0.1866 -0.3867
  313MOL0     H41313   6.482   5.306   8.239  0.0414  0.1166  1.8107
  313MOL0     H41314   6.464   5.069   8.580 -1.5323  4.1058  2.2847
  313MOL0     H41315   6.121   5.487   8.486 -0.5220 -0.8320 -0.0185
  313MOL0     H41316   6.013   5.706   8.503  0.2630 -1.0650  2.5404
  314MOL0     O41317   6.088   2.659   7.598 -0.1419  0.0023 -0.5484
  314MOL0     C41318   6.114   2.570   7.517 -0.7976  0.7125 -1.3614
  314MOL0     O41319   6.039   2.532   7.404  0.0185 -0.6675 -0.1515
  314MOL0     C41320   5.920   2.601   7.397  0.6813 -0.2707 -0.0286
  314MOL0     C41321   5.913   2.738   7.393 -0.0149  0.2282 -0.4853
  314MOL0     C41322   5.786   2.799   7.403 -0.1701  0.0199 -0.5850
  314MOL0     C41323   5.661   2.733   7.415 -0.2266  0.5462 -0.2649
  314MOL0     O41324   5.536   2.794   7.400  0.4446  0.1129 -1.2175
  314MOL0     C41325   5.523   2.934   7.414  0.3002 -0.2700 -0.5129
  314MOL0     C41326   5.365   2.954   7.394  0.1599 -0.5952  0.1485
  314MOL0     C41327   5.318   3.092   7.445 -0.2327 -0.2559  0.6852
  314MOL0     C41328   5.310   3.121   7.592  0.8012  0.1759  0.0315
  314MOL0     C41329   5.276   3.268   7.609 -0.7261 -0.2737  0.5686
  314MOL0     C41330   5.196   3.303   7.733 -0.6581 -0.8083  0.4406
  314MOL0     C41331   5.275   3.276   7.863  0.1099 -0.4670  0.1944
  314MOL0     C41332   5.251   3.396   7.945  0.4330  0.6101 -0.0990
  314MOL0     N41333   5.101   3.437   7.968 -0.0179  0.2099 -0.4005
  314MOL0     C41334   5.006   3.358   8.036 -0.4797 -0.5006  0.3063
  314MOL0     C41335   4.893   3.428   8.042 -0.3325  0.2466  0.3278
  314MOL0     C41336   4.744   3.379   8.074  0.1954 -0.0406  0.9600
  314MOL0     C41337   4.636   3.429   7.971 -0.3568 -0.2043 -0.0547
  314MOL0     C41338   4.496   3.412   8.032  0.3547 -1.5298 -0.8363
  314MOL0     C41339   4.402   3.516   7.972  0.3656 -0.2447  0.1783
  314MOL0     O41340   4.391   3.486   7.830 -0.4538  0.1138 -0.2820
  314MOL0     C41341   4.341   3.570   7.736  0.7447  0.1119  0.8465
  314MOL0     C41342   4.328   3.514   7.603 -0.2672  0.3327  0.3530
  314MOL0     C41343   4.269   3.595   7.508 -0.9018  0.0548 -0.1457
  314MOL0     C41344   4.223   3.725   7.544  0.0184  0.7988  0.9414
  314MOL0     C41345   4.158   3.816   7.449 -0.1358  1.1651 -0.0794
  314MOL0     O41346   4.149   3.952   7.458 -0.2430  0.2229  0.0322
  314MOL0     C41347   4.047   4.022   7.398  0.1316 -0.7999 -0.2185
  314MOL0     C41348   3.963   3.985   7.288  0.1596  0.1550  0.2125
  314MOL0     C41349   3.862   4.071   7.249 -0.0371  0.2455 -0.2635
  314MOL0     C41350   3.844   4.196   7.316  0.4018  0.1636 -0.0137
  314MOL0     O41351   3.737   4.274   7.282  0.8927  0.9161 -0.1152
  314MOL0     C41352   3.620   4.244   7.357 -0.3616  0.8460 -0.1775
  314MOL0     C41353   3.502   4.325   7.311  0.1382 -0.3241 -0.1141
  314MOL0     C41354   3.372   4.259   7.362 -1.1768 -0.8424 -1.0686
  314MOL0     C41355   3.247   4.336   7.349 -0.8605  0.1262  0.3121
  314MOL0     C41356   3.119   4.253   7.370  0.3120 -0.2038 -0.2905
  314MOL0     C41357   3.105   4.112   7.306  0.1861 -0.8252 -0.0538
  314MOL0     C41358   2.969   4.044   7.322  0.6146  0.0769 -0.3677
  314MOL0     C41359   2.943   3.996   7.463  0.4498 -0.2277  0.9113
  314MOL0    Cl41360   2.777   3.946   7.476 -0.3304 -0.4098  0.3333
  314MOL0     C41361   3.940   4.237   7.405 -0.0206  0.4522  0.4250
  314MOL0     C41362   4.036   4.146   7.446  0.1502 -0.1744  0.0316
  314MOL0     O41363   4.124   3.752   7.349 -0.3605  0.3452  0.7234
  314MOL0     C41364   4.231   3.769   7.674 -0.0718 -0.2144 -0.9164
  314MOL0     C41365   4.289   3.693   7.768 -0.1485 -0.8267  0.0466
  314MOL0     N41366   4.922   3.547   7.989  0.3119  0.1111 -0.7404
  314MOL0     N41367   5.039   3.559   7.949  0.4359  0.8212  0.2680
  314MOL0     C41368   5.671   2.598   7.433 -0.0159  0.1184 -0.1874
  314MOL0     C41369   5.803   2.530   7.430  1.2190  0.0257  0.4965
  314MOL0     C41370   6.247   2.488   7.528  0.4499  0.5201  0.8315
  314MOL0     C41371   6.261   2.366   7.460  0.0861  0.3285 -0.8697
  314MOL0     C41372   6.384   2.299   7.471 -1.1260 -0.0190 -0.2247
  314MOL0     C41373   6.494   2.343   7.559  0.5870 -0.2052  0.0249
  314MOL0     O41374   6.601   2.265   7.580 -0.6257  0.9027 -0.0864
  314MOL0     C41375   6.608   2.126   7.532  0.2644  0.8020  0.4564
  314MOL0     C41376   6.734   2.057   7.585 -0.0541  0.4584  0.5511
  314MOL0     C41377   6.750   1.906   7.555  0.2828 -0.3491 -0.4407
  314MOL0     C41378   6.891   1.853   7.546 -0.3956 -0.5112 -0.5887
  314MOL0     C41379   6.953   1.844   7.678  0.0950 -0.6413 -0.1032
  314MOL0     C41380   7.004   1.862   7.787  0.0093  0.1859 -0.8009
  314MOL0     C41381   6.474   2.460   7.627  0.7282  1.0117 -0.9382
  314MOL0     C41382   6.355   2.528   7.613  0.5760 -0.7980  0.3817
  314MOL0     H41383   6.006   2.791   7.377  1.8322 -3.1681 -1.9361
  314MOL0     H41384   5.786   2.905   7.381 -0.0880 -0.0659 -0.9934
  314MOL0     H41385   5.573   2.988   7.333 -1.5462  1.1115 -0.8028
  314MOL0     H41386   5.545   2.970   7.514 -1.3976 -0.6806  0.0507
  314MOL0     H41387   5.322   2.876   7.458  0.6727 -1.5347 -0.6157
  314MOL0     H41388   5.333   2.938   7.291 -1.0826  2.5612 -0.0447
  314MOL0     H41389   5.215   3.097   7.408  0.0463  1.1578  0.0415
  314MOL0     H41390   5.362   3.180   7.396 -4.4224  0.6755 -1.9144
  314MOL0     H41391   5.254   3.039   7.638  1.3930  0.8836  2.1464
  314MOL0     H41392   5.406   3.113   7.644  0.2636  1.1892  1.2202
  314MOL0     H41393   5.234   3.318   7.521 -0.3151 -1.3212 -0.2482
  314MOL0     H41394   5.373   3.320   7.608 -0.9764  0.1997  0.0064
  314MOL0     H41395   5.102   3.248   7.740 -0.6297 -0.9369 -0.1110
  314MOL0     H41396   5.158   3.406   7.721 -0.9719 -1.1413 -1.8872
  314MOL0     H41397   5.245   3.181   7.910 -2.9867 -1.0801 -2.6274
  314MOL0     H41398   5.382   3.264   7.849  0.6332  2.3347  1.2911
  314MOL0     H41399   5.300   3.477   7.889 -1.1328 -0.1695 -2.8046
  314MOL0     H41400   5.301   3.379   8.040  0.0873 -1.7092 -0.2731
  314MOL0     H41401   5.035   3.260   8.072  0.0506 -0.8435 -0.9657
  314MOL0     H41402   4.725   3.417   8.174 -0.5971  0.3049  0.6855
  314MOL0     H41403   4.737   3.270   8.085  0.7842 -0.0251  1.5450
  314MOL0     H41404   4.648   3.364   7.884  1.0794  0.6163 -0.5092
  314MOL0     H41405   4.654   3.536   7.957  0.3643 -0.3331 -0.1718
  314MOL0     H41406   4.458   3.311   8.012 -0.6087 -1.2968 -0.2504
  314MOL0     H41407   4.498   3.429   8.140  0.1987 -1.8217 -0.7852
  314MOL0     H41408   4.459   3.605   7.999 -2.9985  1.5690  1.9310
  314MOL0     H41409   4.307   3.525   8.026  1.2157 -2.2581  2.1475
  314MOL0     H41410   4.363   3.413   7.587 -0.4549  0.1555  1.0309
  314MOL0     H41411   4.264   3.556   7.407 -0.9702  0.7396 -0.4039
  314MOL0     H41412   3.963   3.890   7.236  2.9805 -0.4918  1.2127
  314MOL0     H41413   3.795   4.048   7.166 -1.4682  3.1882 -0.0463
  314MOL0     H41414   3.627   4.253   7.466 -3.4764 -0.8664  0.2802
  314MOL0     H41415   3.593   4.140   7.338 -1.3643  0.8293  1.1754
  314MOL0     H41416   3.514   4.313   7.203  0.4429 -2.0859  0.0872
  314MOL0     H41417   3.507   4.432   7.335  2.5222 -0.7853  1.8252
  314MOL0     H41418   3.382   4.236   7.468  0.5503  2.0322 -0.5115
  314MOL0     H41419   3.378   4.163   7.309  4.2218 -2.3515  1.6012
  314MOL0     H41420   3.255   4.395   7.440  2.0719 -0.9841  0.8739
  314MOL0     H41421   3.245   4.390   7.253 -2.0750 -0.5143 -0.0520
  314MOL0     H41422   3.043   4.328   7.343  0.3523  1.0953  2.7692
  314MOL0     H41423   3.116   4.240   7.478  0.4562 -3.5180 -0.5927
  314MOL0     H41424   3.184   4.042   7.332  1.9375  0.8376 -0.6618
  314MOL0     H41425   3.105   4.121   7.197  0.3408  0.6737  0.0509
  314MOL0     H41426   2.889   4.115   7.297  1.5601  0.2394 -3.3875
  314MOL0     H41427   2.953   3.963   7.250 -3.5637 -0.1948  0.6310
  314MOL0     H41428   2.971   4.072   7.537  3.1776  2.4775 -2.4944
  314MOL0     H41429   3.007   3.911   7.487 -1.9405 -1.6740  2.5220
  314MOL0     H41430   3.936   4.334   7.453 -2.2973  0.3138  0.5996
  314MOL0     H41431   4.093   4.180   7.533  0.5283 -0.3738 -0.1384
  314MOL0     H41432   4.189   3.862   7.713  2.3765  0.6020 -0.0493
  314MOL0     H41433   4.276   3.723   7.872 -2.8583  2.2202 -1.0368
  314MOL0     H41434   5.580   2.542   7.450  1.7794 -2.4176  2.0351
  314MOL0     H41435   5.817   2.425   7.454 -0.4837 -0.2093  0.6263
  314MOL0     H41436   6.182   2.330   7.395  0.2923 -4.3937  1.0688
  314MOL0     H41437   6.395   2.204   7.421  2.8080  0.1155  0.0711
  314MOL0     H41438   6.608   2.108   7.424 -2.1718 -2.5582  0.8569
  314MOL0     H41439   6.515   2.076   7.561  0.8025 -0.1230  0.6336
  314MOL0     H41440   6.812   2.122   7.542 -1.1962  1.3113 -0.2892
  314MOL0     H41441   6.729   2.069   7.693  1.0493  0.6257  0.5933
  314MOL0     H41442   6.693   1.878   7.466  0.6126 -0.8573 -0.4949
  314MOL0     H41443   6.691   1.846   7.625 -0.6316 -3.1523 -3.3775
  314MOL0     H41444   6.887   1.749   7.513 -0.6554 -1.5448  2.3557
  314MOL0     H41445   6.948   1.910   7.472 -2.2805 -0.2771 -1.9187
  314MOL0     H41446   7.060   1.872   7.877 -0.3910 -3.1685 -0.0761
  314MOL0     H41447   6.548   2.500   7.697 -0.8417 -1.6270  2.5772
  314MOL0     H41448   6.339   2.620   7.670  3.8317 -1.2046  2.1597
  315MOL0     O41449   9.235   0.508   4.081 -0.0008 -1.0135 -0.1170
  315MOL0     C41450   9.280   0.610   4.022  0.6158 -1.1063 -0.0110
  315MOL0     O41451   9.208   0.725   4.001  0.8261  0.5594 -0.0588
  315MOL0     C41452   9.067   0.719   4.033 -0.1378 -0.0974  0.5608
  315MOL0     C41453   9.016   0.802   4.134 -0.9585  0.3334 -0.3721
  315MOL0     C41454   8.882   0.799   4.170 -0.7487  0.1268 -0.2598
  315MOL0     C41455   8.797   0.719   4.101  0.4491  0.1505  0.2122
  315MOL0     O41456   8.665   0.718   4.137  0.4569 -0.0127  0.7558
  315MOL0     C41457   8.611   0.595   4.178 -0.1647  0.3776  0.2909
  315MOL0     C41458   8.465   0.612   4.192 -0.6765 -0.1160  0.0189
  315MOL0     C41459   8.382   0.565   4.068  0.2029  0.5509  0.4845
  315MOL0     C41460   8.233   0.570   4.104  0.3693  1.1955 -0.5067
  315MOL0     C41461   8.156   0.561   3.971  0.2368  0.2653 -1.3473
  315MOL0     C41462   8.014   0.505   3.992  0.0306 -0.4052 -0.1199
  315MOL0     C41463   7.923   0.608   4.063 -0.6385  0.6408 -0.0703
  315MOL0     C41464   7.779   0.559   4.080  0.2524 -0.0030  0.8361
  315MOL0     N41465   7.691   0.641   4.163  0.6989  0.0841  0.1391
  315MOL0     C41466   7.681   0.625   4.300  0.3571  0.1440 -0.1589
  315MOL0     C41467   7.581   0.712   4.342 -0.5783  0.0610 -0.1463
  315MOL0     C41468   7.540   0.741   4.491  0.3455  0.3217  0.4844
  315MOL0     C41469   7.620   0.849   4.560  0.3802 -0.1987  0.1437
  315MOL0     C41470   7.762   0.820   4.572 -0.8237 -0.6511  0.2986
  315MOL0     C41471   7.832   0.943   4.628  0.2987 -0.4757 -0.4368
  315MOL0     O41472   7.975   0.926   4.635  0.0377  0.8776 -0.0027
  315MOL0     C41473   8.038   1.028   4.701 -0.4420  0.0170  0.6815
  315MOL0     C41474   8.138   0.998   4.791  0.4887 -0.3016  0.0753
  315MOL0     C41475   8.211   1.093   4.855 -0.4149 -0.4178  0.4807
  315MOL0     C41476   8.182   1.229   4.828 -0.8620  0.8343 -0.6637
  315MOL0     C41477   8.255   1.340   4.894  0.6200 -0.3686 -0.5280
  315MOL0     O41478   8.324   1.318   5.010 -0.3988  0.1271 -0.5541
  315MOL0     C41479   8.350   1.415   5.101  0.3401  0.1485 -0.3610
  315MOL0     C41480   8.468   1.404   5.174 -0.0414  0.1754  0.1793
  315MOL0     C41481   8.502   1.506   5.262 -0.8435 -0.1071  0.8499
  315MOL0     C41482   8.415   1.618   5.275  0.0587 -1.0520 -0.3877
  315MOL0     O41483   8.445   1.717   5.366  0.3484 -0.2497 -0.0407
  315MOL0     C41484   8.581   1.774   5.377  0.3561 -0.1972  0.3692
  315MOL0     C41485   8.592   1.892   5.467  0.6253  0.3690  0.5054
  315MOL0     C41486   8.728   1.970   5.467  0.2584 -1.0611 -0.3832
  315MOL0     C41487   8.735   2.073   5.571 -0.9192 -0.0750  0.6924
  315MOL0     C41488   8.872   2.148   5.550  0.5210 -0.2056  0.1106
  315MOL0     C41489   8.984   2.090   5.625 -0.1040  0.1784 -0.0165
  315MOL0     C41490   9.099   2.193   5.621 -0.5477 -0.2546 -0.1815
  315MOL0     C41491   9.226   2.124   5.683 -0.2784  0.3735  0.0687
  315MOL0    Cl41492   9.197   2.046   5.853  0.1271 -0.4044  0.2993
  315MOL0     C41493   8.302   1.629   5.197 -1.2155  0.4330 -0.6702
  315MOL0     C41494   8.263   1.523   5.119 -0.3031  0.1656 -0.0768
  315MOL0     O41495   8.224   1.449   4.847 -0.0194  0.0179  0.2824
  315MOL0     C41496   8.090   1.267   4.731 -0.1655 -0.0324 -0.9364
  315MOL0     C41497   8.023   1.165   4.668 -0.3835  0.2792  0.2356
  315MOL0     N41498   7.546   0.787   4.232 -0.0381 -0.4804 -1.0952
  315MOL0     N41499   7.603   0.740   4.126  0.2396 -0.6419  0.3231
  315MOL0     C41500   8.839   0.644   3.998 -0.4412 -0.0405 -0.6325
  315MOL0     C41501   8.974   0.641   3.956  0.5152 -0.6392 -0.9843
  315MOL0     C41502   9.413   0.608   3.974 -0.5073  0.4911 -0.8994
  315MOL0     C41503   9.475   0.493   3.930 -0.4613 -0.5612  0.3635
  315MOL0     C41504   9.612   0.485   3.906  0.0520 -1.5702  0.5959
  315MOL0     C41505   9.682   0.610   3.904 -0.2542  0.5965  0.8582
  315MOL0     O41506   9.818   0.591   3.876 -0.5737  0.3571  0.5065
  315MOL0     C41507   9.891   0.711   3.854  0.5093  0.0263  0.0864
  315MOL0     C41508  10.029   0.674   3.825 -0.6197 -0.9413 -0.3887
  315MOL0     C41509  10.108   0.818   3.802  0.6855  1.0771 -0.3521
  315MOL0     C41510  10.227   0.812   3.710  0.3146  0.1891  0.2581
  315MOL0     C41511  10.340   0.754   3.781 -0.4959  0.3538 -0.7290
  315MOL0     C41512  10.440   0.704   3.833  0.1336  0.7376  0.2571
  315MOL0     C41513   9.618   0.733   3.939 -0.5791 -0.0113 -0.7165
  315MOL0     C41514   9.482   0.728   3.977 -0.5507 -0.6945 -0.9777
  315MOL0     H41515   9.088   0.865   4.188  2.1500 -1.5207 -2.0793
  315MOL0     H41516   8.839   0.851   4.255 -3.6797 -2.2786 -0.0856
  315MOL0     H41517   8.650   0.578   4.279  2.0565 -1.5896 -0.8025
  315MOL0     H41518   8.623   0.507   4.115  1.7519 -0.6944  2.0599
  315MOL0     H41519   8.444   0.717   4.212  0.1819  0.0382  0.1668
  315MOL0     H41520   8.432   0.554   4.279  0.3723  2.6278  2.3997
  315MOL0     H41521   8.405   0.461   4.041 -0.2575  0.7489 -0.7223
  315MOL0     H41522   8.418   0.614   3.978  1.6225 -0.2257  0.5923
  315MOL0     H41523   8.207   0.486   4.169  1.0911  0.1381 -1.5630
  315MOL0     H41524   8.205   0.665   4.151 -3.5305 -0.0068 -0.0162
  315MOL0     H41525   8.205   0.487   3.906 -2.9938 -4.0185  0.6137
  315MOL0     H41526   8.146   0.661   3.927  1.5731  0.8517 -0.3999
  315MOL0     H41527   8.016   0.411   4.047 -0.9849 -1.1804 -1.3459
  315MOL0     H41528   7.973   0.488   3.891 -1.4929  2.5085 -0.0987
  315MOL0     H41529   7.962   0.628   4.163  0.2602 -1.5818  0.0766
  315MOL0     H41530   7.918   0.702   4.007 -1.8515  3.1465  3.8825
  315MOL0     H41531   7.785   0.461   4.128  1.2606  0.1217  0.9994
  315MOL0     H41532   7.727   0.544   3.985  0.5408  0.7837  0.5435
  315MOL0     H41533   7.737   0.555   4.361  2.3408  1.3350 -0.5440
  315MOL0     H41534   7.523   0.649   4.548  2.3661 -0.5085 -0.1476
  315MOL0     H41535   7.438   0.772   4.469  1.5027  2.9567 -1.7167
  315MOL0     H41536   7.570   0.879   4.652  2.6369  0.0813  1.3713
  315MOL0     H41537   7.624   0.934   4.490  0.4114  0.1819  0.6021
  315MOL0     H41538   7.764   0.745   4.651 -1.6340 -0.0608  0.8994
  315MOL0     H41539   7.807   0.778   4.481 -2.7022 -2.8740  0.3047
  315MOL0     H41540   7.785   0.969   4.723 -1.3629  2.5231 -1.9551
  315MOL0     H41541   7.814   1.026   4.559  0.0896 -0.6589 -0.6036
  315MOL0     H41542   8.160   0.892   4.797  1.4475 -0.0342  2.1744
  315MOL0     H41543   8.275   1.075   4.942  1.9893 -1.4899 -1.3725
  315MOL0     H41544   8.549   1.331   5.170  2.9228  2.3581  6.4110
  315MOL0     H41545   8.595   1.494   5.317  0.4693 -0.5295 -1.3339
  315MOL0     H41546   8.600   1.813   5.277  3.8470  2.2464  1.7541
  315MOL0     H41547   8.652   1.693   5.395  0.8712 -0.1908 -1.4935
  315MOL0     H41548   8.586   1.858   5.570  1.3809  0.7576  0.6879
  315MOL0     H41549   8.504   1.955   5.455 -0.0022 -0.5311  0.3215
  315MOL0     H41550   8.745   2.018   5.370 -0.1318  5.2857  2.2402
  315MOL0     H41551   8.801   1.892   5.489  0.3063 -1.0427 -0.4798
  315MOL0     H41552   8.661   2.153   5.556  2.6027  3.5220  0.7382
  315MOL0     H41553   8.729   2.024   5.668 -0.2583 -1.2735  0.1492
  315MOL0     H41554   8.846   2.251   5.577 -1.0409 -0.3320 -0.7756
  315MOL0     H41555   8.896   2.161   5.444  0.9007  0.6811  0.2971
  315MOL0     H41556   9.032   2.006   5.574  0.6167 -1.3355  2.9334
  315MOL0     H41557   8.966   2.064   5.729  0.5360 -1.8548 -0.3713
  315MOL0     H41558   9.117   2.222   5.517  2.7548 -3.4437 -0.6911
  315MOL0     H41559   9.084   2.273   5.694  2.4665  0.8464 -0.6403
  315MOL0     H41560   9.299   2.205   5.691  0.4332 -0.2676  0.1238
  315MOL0     H41561   9.254   2.050   5.608 -1.5745 -2.2450  1.9844
  315MOL0     H41562   8.243   1.720   5.205  0.6972  1.5942  1.9546
  315MOL0     H41563   8.173   1.533   5.059 -0.7337  0.5667  0.6273
  315MOL0     H41564   8.060   1.371   4.724  0.7720  0.4903  1.7688
  315MOL0     H41565   7.955   1.199   4.590 -3.3340  1.2968  3.0406
  315MOL0     H41566   8.769   0.584   3.939  2.5006 -1.3217 -3.1370
  315MOL0     H41567   9.007   0.593   3.865  2.0741  1.4116 -1.5727
  315MOL0     H41568   9.426   0.397   3.917 -0.2553 -0.5351 -0.6750
  315MOL0     H41569   9.667   0.397   3.875  0.7084 -1.4099  1.2661
  315MOL0     H41570   9.890   0.765   3.949 -0.2341  0.0025  0.0986
  315MOL0     H41571   9.850   0.781   3.781  0.9185 -1.6913 -1.8898
  315MOL0     H41572  10.075   0.613   3.903  0.1466 -0.6201 -0.5862
  315MOL0     H41573  10.043   0.606   3.740  0.4719 -0.7842 -0.3442
  315MOL0     H41574  10.136   0.860   3.899  0.4740  1.1027 -0.3029
  315MOL0     H41575  10.036   0.883   3.752 -1.3438 -0.5758  0.2623
  315MOL0     H41576  10.207   0.770   3.611 -2.1438  0.7759  0.4464
  315MOL0     H41577  10.248   0.915   3.680 -2.4629  0.5339 -0.7797
  315MOL0     H41578  10.532   0.681   3.882 -1.2167  0.6632  2.9614
  315MOL0     H41579   9.675   0.825   3.939 -0.4389 -0.0408  1.8605
  315MOL0     H41580   9.435   0.824   3.991  0.9683  0.1005 -1.1886
  316MOL0     O41581   9.802   3.832   6.673 -0.1642 -0.3328 -0.7856
  316MOL0     C41582   9.692   3.775   6.661 -0.6126 -0.2724 -0.2794
  316MOL0     O41583   9.668   3.635   6.669 -0.2223  0.3827 -0.2891
  316MOL0     C41584   9.762   3.546   6.700  0.9817 -1.0509 -0.3655
  316MOL0     C41585   9.718   3.420   6.692  0.0482  0.2201  0.2591
  316MOL0     C41586   9.796   3.313   6.730 -0.4418 -1.2907 -0.2328
  316MOL0     C41587   9.932   3.332   6.748  0.3263 -0.0647  0.7015
  316MOL0     O41588  10.030   3.236   6.761 -0.2883 -0.7663  0.0966
  316MOL0     C41589   9.999   3.102   6.773 -1.1798  0.1497  0.2567
  316MOL0     C41590  10.142   3.033   6.790 -0.2046 -0.0482  0.7186
  316MOL0     C41591  10.142   2.896   6.859  0.3454  0.2724  1.1507
  316MOL0     C41592  10.095   2.786   6.768  0.1330 -0.1978 -0.0819
  316MOL0     C41593  10.104   2.650   6.834 -0.3715  0.4846  0.3831
  316MOL0     C41594  10.108   2.545   6.715 -0.3398  0.1426 -1.1165
  316MOL0     C41595  10.080   2.411   6.769 -0.0984 -0.0551  0.5087
  316MOL0     C41596  10.132   2.305   6.669 -0.2331 -0.0499 -0.4740
  316MOL0     N41597  10.078   2.176   6.708 -0.2769  0.0598  0.2803
  316MOL0     C41598   9.997   2.089   6.638 -0.6051  0.9184 -0.6437
  316MOL0     C41599   9.992   1.974   6.716 -0.6488  0.4396 -0.8058
  316MOL0     C41600   9.933   1.844   6.669  0.4406 -0.5961 -0.0852
  316MOL0     C41601  10.005   1.723   6.739 -0.8004 -0.0629  0.0883
  316MOL0     C41602   9.962   1.685   6.885 -0.5204  0.3972  0.2423
  316MOL0     C41603   9.824   1.623   6.885  0.5407 -0.2301  0.3835
  316MOL0     O41604   9.833   1.489   6.837  0.3453 -0.7200  0.0679
  316MOL0     C41605   9.709   1.437   6.819 -0.3708 -0.2949  0.4264
  316MOL0     C41606   9.670   1.400   6.687  0.2818  0.0814 -0.8027
  316MOL0     C41607   9.548   1.328   6.661  0.5259  0.2130 -1.3679
  316MOL0     C41608   9.465   1.296   6.769 -0.6010  0.4115  0.1427
  316MOL0     C41609   9.342   1.220   6.751 -0.0599  0.7805 -0.3604
  316MOL0     O41610   9.244   1.218   6.856 -0.7304 -0.5559  0.0995
  316MOL0     C41611   9.131   1.138   6.845  0.0118 -0.9238 -0.4558
  316MOL0     C41612   9.102   1.023   6.774 -0.4999  0.4851  0.7173
  316MOL0     C41613   8.967   0.984   6.746 -1.1000 -0.6372 -0.4585
  316MOL0     C41614   8.858   1.045   6.810 -0.0369  0.5119  0.6030
  316MOL0     O41615   8.737   0.989   6.780 -0.2224  0.0846  0.2144
  316MOL0     C41616   8.621   1.021   6.870 -0.4044  0.5148  0.4826
  316MOL0     C41617   8.494   0.963   6.799  0.6398 -0.1825 -1.0945
  316MOL0     C41618   8.385   0.958   6.914 -0.4832 -0.2135  0.1768
  316MOL0     C41619   8.245   0.942   6.853  0.0814  0.2026 -0.0133
  316MOL0     C41620   8.143   0.891   6.955 -0.3730 -0.2522  0.5444
  316MOL0     C41621   8.017   0.849   6.889 -0.6928 -0.3762  0.2950
  316MOL0     C41622   7.903   0.816   6.989 -0.0696 -0.7554  0.6157
  316MOL0     C41623   7.916   0.691   7.068  1.1081 -0.0529 -0.2843
  316MOL0    Cl41624   7.788   0.686   7.190  0.3690 -0.0929 -0.2853
  316MOL0     C41625   8.885   1.150   6.896 -0.5820  0.2513 -0.3819
  316MOL0     C41626   9.018   1.199   6.905 -0.5938 -0.4613  0.7785
  316MOL0     O41627   9.313   1.173   6.640 -0.1775  0.1690 -0.1308
  316MOL0     C41628   9.511   1.319   6.897  0.5132 -0.4205 -0.5810
  316MOL0     C41629   9.632   1.391   6.923  0.1386  0.5397 -1.2770
  316MOL0     N41630  10.049   1.997   6.836  0.0380 -0.1813  0.3383
  316MOL0     N41631  10.103   2.113   6.833 -0.0994  1.4665 -0.6152
  316MOL0     C41632   9.984   3.461   6.744 -0.3059 -0.0377 -1.5342
  316MOL0     C41633   9.897   3.572   6.721  0.1706  0.2675 -0.6848
  316MOL0     C41634   9.572   3.861   6.633  0.0314  0.4725 -0.8580
  316MOL0     C41635   9.586   3.999   6.659 -0.3438 -0.7415 -0.6702
  316MOL0     C41636   9.474   4.086   6.642 -0.6194 -0.1450  0.0618
  316MOL0     C41637   9.354   4.031   6.602  0.9227 -0.3259  0.8484
  316MOL0     O41638   9.245   4.106   6.581 -0.0814  0.3565 -0.0145
  316MOL0     C41639   9.257   4.251   6.575  0.2617  0.6965 -0.4027
  316MOL0     C41640   9.122   4.319   6.546 -0.3481  0.2334 -0.6178
  316MOL0     C41641   9.129   4.455   6.617 -0.1388 -0.6219  1.2479
  316MOL0     C41642   9.004   4.536   6.590 -0.5656  0.2721  0.5052
  316MOL0     C41643   8.881   4.472   6.630  0.3175  0.3517  0.4037
  316MOL0     C41644   8.773   4.409   6.653 -0.4964 -0.0505 -0.4664
  316MOL0     C41645   9.338   3.895   6.591  0.0971  0.6727 -0.0906
  316MOL0     C41646   9.452   3.805   6.600  0.6013  0.4097 -0.2548
  316MOL0     H41647   9.616   3.393   6.668 -0.0157  0.7004 -0.0289
  316MOL0     H41648   9.747   3.216   6.722 -0.0957 -1.4540 -0.4041
  316MOL0     H41649   9.951   3.058   6.685  0.1431 -1.3093  0.2124
  316MOL0     H41650   9.946   3.088   6.868 -1.3858  0.2227  0.1507
  316MOL0     H41651  10.195   3.105   6.853  0.2750  2.0194 -1.8745
  316MOL0     H41652  10.185   3.027   6.689  1.2214  2.7736  1.0605
  316MOL0     H41653  10.091   2.901   6.955  0.8568 -2.7066  1.7005
  316MOL0     H41654  10.249   2.871   6.867  0.2744 -1.2872 -1.4748
  316MOL0     H41655   9.991   2.816   6.753  0.0612 -1.2355 -1.8415
  316MOL0     H41656  10.149   2.794   6.674  0.1157 -0.1419 -0.0870
  316MOL0     H41657  10.017   2.634   6.899  0.0502  0.5275  0.9619
  316MOL0     H41658  10.184   2.642   6.908 -0.0498 -0.7388 -0.0666
  316MOL0     H41659  10.205   2.564   6.668  1.6941  0.8684  2.9253
  316MOL0     H41660  10.036   2.574   6.638  1.0380  0.3044 -2.3844
  316MOL0     H41661  10.125   2.388   6.865 -1.8373 -0.7016  1.2038
  316MOL0     H41662   9.971   2.401   6.767  0.0226 -1.4558 -0.3189
  316MOL0     H41663  10.241   2.298   6.666 -0.1981 -1.4056  1.7058
  316MOL0     H41664  10.090   2.338   6.574 -0.4759 -0.7782 -0.6237
  316MOL0     H41665   9.964   2.095   6.535 -5.6346  0.4001  0.6688
  316MOL0     H41666   9.933   1.842   6.559 -2.3928 -0.1644 -0.1501
  316MOL0     H41667   9.828   1.845   6.697  0.8446 -0.2883  1.4896
  316MOL0     H41668  10.111   1.747   6.737 -0.3048 -1.8296  2.1172
  316MOL0     H41669  10.004   1.631   6.681  2.9258  0.2514 -0.6673
  316MOL0     H41670  10.027   1.603   6.919 -1.2649 -1.4039 -2.3777
  316MOL0     H41671   9.966   1.772   6.951 -1.9063  1.3611 -0.8858
  316MOL0     H41672   9.755   1.665   6.812  1.9561 -0.5461 -1.2132
  316MOL0     H41673   9.783   1.617   6.986  1.0361  0.1013  0.6078
  316MOL0     H41674   9.732   1.432   6.603 -1.2125 -4.1976 -3.8611
  316MOL0     H41675   9.517   1.296   6.562 -2.2163  0.1075 -0.5666
  316MOL0     H41676   9.177   0.964   6.723 -0.7270  0.5483  0.3115
  316MOL0     H41677   8.958   0.903   6.674 -0.2598  2.5539 -4.5566
  316MOL0     H41678   8.605   1.129   6.873 -5.3656  0.0673 -0.7614
  316MOL0     H41679   8.638   0.974   6.967  0.9997  1.8773  0.9230
  316MOL0     H41680   8.516   0.865   6.758 -1.6524 -0.9529 -0.6555
  316MOL0     H41681   8.455   1.027   6.719 -1.2644  0.4866  0.2771
  316MOL0     H41682   8.388   1.037   6.989 -0.7552 -1.1448  1.1923
  316MOL0     H41683   8.416   0.872   6.974 -1.0373 -0.6116 -0.1021
  316MOL0     H41684   8.213   1.034   6.803  2.4268  2.1518  1.8472
  316MOL0     H41685   8.248   0.873   6.768 -2.8369 -0.8168  0.6026
  316MOL0     H41686   8.129   0.964   7.035  1.7921  1.0275 -0.1554
  316MOL0     H41687   8.186   0.803   7.003 -0.2371 -0.0134  0.8620
  316MOL0     H41688   8.044   0.761   6.829  0.7401 -0.1812  0.6320
  316MOL0     H41689   7.983   0.928   6.822  1.9829 -0.4522 -1.2553
  316MOL0     H41690   7.880   0.899   7.055 -2.3571  0.6034 -1.7061
  316MOL0     H41691   7.818   0.802   6.923  2.2841  0.5192 -2.9883
  316MOL0     H41692   8.012   0.692   7.120  0.3105  1.1515  1.2555
  316MOL0     H41693   7.919   0.602   7.004  1.4091  0.8671 -1.5788
  316MOL0     H41694   8.811   1.189   6.965  1.6509 -1.7698  3.5557
  316MOL0     H41695   9.043   1.277   6.976 -2.0101  0.5408  0.2054
  316MOL0     H41696   9.448   1.267   6.969 -1.1413  0.3947 -1.3944
  316MOL0     H41697   9.661   1.404   7.027  2.5433  1.6120 -2.0017
  316MOL0     H41698  10.090   3.477   6.760  0.0289  1.2345 -4.3322
  316MOL0     H41699   9.939   3.672   6.720 -1.1869  0.8771  0.2179
  316MOL0     H41700   9.681   4.043   6.690 -1.5541  0.3577  1.8726
  316MOL0     H41701   9.489   4.188   6.675  1.0594 -1.4644  3.8393
  316MOL0     H41702   9.335   4.298   6.513 -0.3942  2.8311  0.3038
  316MOL0     H41703   9.280   4.280   6.677 -0.9787  0.3984 -0.0270
  316MOL0     H41704   9.106   4.341   6.440 -3.7272 -0.1874 -0.3170
  316MOL0     H41705   9.046   4.253   6.589  1.6295  0.3856  3.5205
  316MOL0     H41706   9.209   4.511   6.567  1.2313 -3.8769 -0.6181
  316MOL0     H41707   9.159   4.454   6.722 -1.1830 -0.2444  1.5551
  316MOL0     H41708   9.013   4.627   6.651 -2.1587 -0.3179  1.7049
  316MOL0     H41709   9.001   4.572   6.487  2.0383  0.8014  0.5548
  316MOL0     H41710   8.687   4.352   6.682  0.7245 -1.4193  0.6494
  316MOL0     H41711   9.250   3.842   6.558  0.4092 -1.4808  2.2899
  316MOL0     H41712   9.433   3.698   6.602 -1.4676  0.7134  2.4422
  317MOL0     O41713   1.570   7.884   0.794 -0.4819 -0.7952  0.6848
  317MOL0     C41714   1.549   7.905   0.676  0.0545  0.1763 -0.0968
  317MOL0     O41715   1.418   7.940   0.631  0.0478  0.8024  0.1477
  317MOL0     C41716   1.313   7.950   0.719  0.3084  1.0919 -0.3013
  317MOL0     C41717   1.305   8.063   0.791 -0.2207  0.9663  0.0149
  317MOL0     C41718   1.198   8.087   0.883  0.7698  0.6283  0.2219
  317MOL0     C41719   1.102   7.985   0.914 -0.1728 -0.4498  0.3532
  317MOL0     O41720   1.008   7.996   1.004 -0.1501 -0.6185 -0.2055
  317MOL0     C41721   0.913   8.094   0.969  0.3853 -0.7500  0.4198
  317MOL0     C41722   0.803   8.098   1.069  0.4842  1.0127  0.0235
  317MOL0     C41723   0.688   8.188   1.024  0.1743 -0.1482  0.8274
  317MOL0     C41724   0.595   8.231   1.143 -0.0286  0.6230 -0.4062
  317MOL0     C41725   0.473   8.312   1.109 -0.8341  0.3663 -0.1492
  317MOL0     C41726   0.409   8.383   1.229 -0.8232  1.4098 -0.7938
  317MOL0     C41727   0.280   8.446   1.191 -0.1925 -0.0398  0.6453
  317MOL0     C41728   0.238   8.529   1.306  0.4846 -0.2676  0.3764
  317MOL0     N41729   0.111   8.596   1.271 -0.4060  0.4315  0.2439
  317MOL0     C41730  -0.017   8.534   1.258 -0.5344  0.2110 -0.7490
  317MOL0     C41731  -0.101   8.637   1.228 -0.8243 -0.4004  0.1122
  317MOL0     C41732  -0.246   8.615   1.211 -0.0900  0.0852 -0.3470
  317MOL0     C41733  -0.333   8.624   1.337 -0.9942 -0.6938  0.2720
  317MOL0     C41734  -0.482   8.597   1.307 -0.1833  0.1219 -0.5262
  317MOL0     C41735  -0.510   8.448   1.264  0.0569  0.2736  0.1248
  317MOL0     O41736  -0.635   8.395   1.286  0.3961  0.9207 -0.0710
  317MOL0     C41737  -0.710   8.413   1.403 -0.4419  0.1476  0.2451
  317MOL0     C41738  -0.851   8.396   1.385 -0.9603 -0.2228  0.7874
  317MOL0     C41739  -0.941   8.370   1.493 -0.7485  0.6507  0.9106
  317MOL0     C41740  -0.891   8.372   1.627  0.6618 -0.0797 -0.0643
  317MOL0     C41741  -0.979   8.334   1.744 -0.1059  0.4575 -0.3642
  317MOL0     O41742  -1.107   8.326   1.722 -1.1155 -0.4800 -0.5107
  317MOL0     C41743  -1.204   8.296   1.812  0.0969  0.6802 -0.8029
  317MOL0     C41744  -1.290   8.194   1.771 -1.2733  0.1416 -0.3352
  317MOL0     C41745  -1.388   8.143   1.851 -0.0237 -0.2383  0.2968
  317MOL0     C41746  -1.408   8.191   1.978 -0.3755 -0.2196  0.0057
  317MOL0     O41747  -1.505   8.138   2.058  0.3358 -0.2882 -0.0006
  317MOL0     C41748  -1.512   8.158   2.202 -0.6568  0.6880  1.8915
  317MOL0     C41749  -1.631   8.089   2.265 -0.1802 -0.3923  0.1088
  317MOL0     C41750  -1.762   8.130   2.197 -0.0247 -0.0017 -0.8078
  317MOL0     C41751  -1.892   8.051   2.244 -0.2562  0.7272 -0.7204
  317MOL0     C41752  -1.924   8.100   2.386 -0.7418 -0.1012  0.3619
  317MOL0     C41753  -2.062   8.046   2.438 -0.9371  0.4991  0.4268
  317MOL0     C41754  -2.079   7.892   2.446 -0.8144 -0.7442  0.9167
  317MOL0     C41755  -2.193   7.838   2.520  0.1846  0.5072 -0.2622
  317MOL0    Cl41756  -2.348   7.912   2.461 -0.7037 -0.4568  0.1921
  317MOL0     C41757  -1.320   8.296   2.025 -0.0464 -0.9002  0.7256
  317MOL0     C41758  -1.217   8.345   1.942  0.6515 -0.1698  0.8602
  317MOL0     O41759  -0.925   8.313   1.853  0.6486 -0.0940 -0.9394
  317MOL0     C41760  -0.751   8.401   1.648 -0.1592  0.2724 -1.0311
  317MOL0     C41761  -0.660   8.413   1.535  0.1839  0.2270 -0.9595
  317MOL0     N41762  -0.026   8.755   1.241 -0.1634 -0.4412 -0.1063
  317MOL0     N41763   0.095   8.730   1.262  0.1786 -0.0525  0.9163
  317MOL0     C41764   1.110   7.870   0.834  0.0961  0.6567 -0.5947
  317MOL0     C41765   1.208   7.852   0.736  0.4940 -0.5098 -0.2313
  317MOL0     C41766   1.662   7.929   0.582 -0.3745  0.0920  0.4381
  317MOL0     C41767   1.641   7.953   0.440  0.8038 -0.4435 -0.6634
  317MOL0     C41768   1.759   7.981   0.361  0.4240  0.0140  0.0425
  317MOL0     C41769   1.885   7.967   0.422 -0.3016 -0.0260  0.1047
  317MOL0     O41770   1.993   7.996   0.345 -0.2730  0.0080  0.4829
  317MOL0     C41771   2.005   7.958   0.207 -0.1982 -0.7311 -0.5572
  317MOL0     C41772   2.148   7.932   0.182  0.3109 -0.4500 -0.1219
  317MOL0     C41773   2.190   7.883   0.046  0.2746 -0.2000  0.2383
  317MOL0     C41774   2.346   7.882   0.033  0.1455 -0.8703  0.1330
  317MOL0     C41775   2.406   7.996  -0.034  0.1601 -0.0370 -0.4463
  317MOL0     C41776   2.459   8.065  -0.119  0.6386 -0.3496 -0.9379
  317MOL0     C41777   1.903   7.933   0.549 -0.3521 -0.9362 -0.4495
  317MOL0     C41778   1.793   7.912   0.633 -1.1763 -0.0993  0.6775
  317MOL0     H41779   1.389   8.130   0.777 -0.4290  1.5671  1.5083
  317MOL0     H41780   1.194   8.179   0.940 -0.4210 -0.4973  2.0947
  317MOL0     H41781   0.869   8.073   0.871 -2.1907 -0.4959  1.4364
  317MOL0     H41782   0.953   8.196   0.973  1.6840 -1.2382  0.5608
  317MOL0     H41783   0.847   8.131   1.163  0.2018 -0.1965  0.6095
  317MOL0     H41784   0.767   7.995   1.076 -1.2194  1.4834 -1.2032
  317MOL0     H41785   0.638   8.138   0.941  0.9110  0.0280  0.2666
  317MOL0     H41786   0.732   8.280   0.984 -0.2616 -1.2811 -2.5826
  317MOL0     H41787   0.546   8.147   1.192  1.4941 -0.3889 -0.5470
  317MOL0     H41788   0.666   8.278   1.211 -1.9478  1.3191  1.2105
  317MOL0     H41789   0.399   8.247   1.061  0.1395 -0.0498 -1.1442
  317MOL0     H41790   0.507   8.384   1.034 -1.0041 -0.9612 -1.5606
  317MOL0     H41791   0.472   8.461   1.273 -1.0361  0.9622  0.3527
  317MOL0     H41792   0.389   8.305   1.303 -0.4639  0.2966 -1.8488
  317MOL0     H41793   0.282   8.513   1.105 -0.5030 -2.4534 -1.3486
  317MOL0     H41794   0.201   8.376   1.163  0.0912  0.4561 -1.5261
  317MOL0     H41795   0.319   8.597   1.334 -0.2075  0.2473  1.1799
  317MOL0     H41796   0.227   8.464   1.393  1.5956 -1.2281 -0.1767
  317MOL0     H41797  -0.040   8.430   1.282  1.6406 -0.2538 -0.5258
  317MOL0     H41798  -0.256   8.511   1.179 -2.2314  0.0295  0.3399
  317MOL0     H41799  -0.282   8.680   1.131  2.2931  1.5982 -0.2902
  317MOL0     H41800  -0.308   8.717   1.389 -2.0122  0.2933 -0.9370
  317MOL0     H41801  -0.295   8.545   1.403  3.0125  1.6777  1.1082
  317MOL0     H41802  -0.538   8.610   1.401  1.4483 -2.3146  0.9144
  317MOL0     H41803  -0.524   8.670   1.237 -0.3424  0.1174 -0.4365
  317MOL0     H41804  -0.445   8.382   1.320 -1.9509 -0.6224  1.5027
  317MOL0     H41805  -0.494   8.437   1.156  0.8442 -1.2456  0.3769
  317MOL0     H41806  -0.892   8.386   1.285  3.4845 -2.3900 -1.1088
  317MOL0     H41807  -1.040   8.343   1.458  0.7198 -1.4926 -2.0177
  317MOL0     H41808  -1.273   8.152   1.672 -2.0118 -2.5199  0.5972
  317MOL0     H41809  -1.441   8.059   1.807  0.2477 -1.1566  1.6433
  317MOL0     H41810  -1.517   8.266   2.219 -0.8539  0.7346  1.5567
  317MOL0     H41811  -1.418   8.122   2.246  0.9093 -0.6593 -2.0740
  317MOL0     H41812  -1.633   8.115   2.372  1.1963  0.7768 -0.1173
  317MOL0     H41813  -1.613   7.982   2.252  2.1754  0.0695 -0.9087
  317MOL0     H41814  -1.746   8.115   2.090  1.0634  2.7190 -1.1056
  317MOL0     H41815  -1.770   8.239   2.203 -1.9086 -0.1097 -0.8422
  317MOL0     H41816  -1.972   8.072   2.173  0.9469 -0.9819 -2.6946
  317MOL0     H41817  -1.880   7.942   2.247  0.8392  0.8561  1.6337
  317MOL0     H41818  -1.932   8.208   2.370  4.0170  0.0521 -3.3838
  317MOL0     H41819  -1.844   8.087   2.460 -0.4678 -0.7105 -0.0313
  317MOL0     H41820  -2.142   8.080   2.371 -1.5745  1.2623  1.5546
  317MOL0     H41821  -2.086   8.091   2.534 -5.2377 -0.5133  0.0395
  317MOL0     H41822  -2.079   7.852   2.344 -3.3694 -0.0331  0.5803
  317MOL0     H41823  -1.988   7.851   2.491  2.5640  2.2768 -2.4606
  317MOL0     H41824  -2.178   7.863   2.626 -0.3699 -3.6399  0.9862
  317MOL0     H41825  -2.200   7.729   2.526  1.1342  0.2886 -2.2583
  317MOL0     H41826  -1.322   8.341   2.124  0.7508 -0.7827  0.6890
  317MOL0     H41827  -1.143   8.417   1.977  0.7886  0.1143  0.0099
  317MOL0     H41828  -0.708   8.397   1.747 -1.9585 -1.3859 -0.2496
  317MOL0     H41829  -0.555   8.436   1.549  0.1212  0.5294 -0.9642
  317MOL0     H41830   1.041   7.787   0.850  0.9079 -0.5104 -2.6978
  317MOL0     H41831   1.200   7.757   0.685  1.9908 -0.4163 -0.6961
  317MOL0     H41832   1.543   7.953   0.393 -0.2930  3.6019  1.1722
  317MOL0     H41833   1.750   7.995   0.253  0.6047 -2.6115 -0.3726
  317MOL0     H41834   1.954   8.036   0.149 -1.7231 -1.9426 -0.9236
  317MOL0     H41835   1.953   7.865   0.183 -1.6981  1.1844 -6.5573
  317MOL0     H41836   2.205   8.023   0.203 -0.3299  0.3133 -1.5745
  317MOL0     H41837   2.182   7.862   0.258 -0.6517  1.1962  1.9535
  317MOL0     H41838   2.146   7.949  -0.029  0.5209  1.0794  1.1860
  317MOL0     H41839   2.169   7.777   0.029 -2.1495  0.0909  1.1148
  317MOL0     H41840   2.388   7.861   0.132 -0.6713 -0.9862  0.4600
  317MOL0     H41841   2.374   7.794  -0.024 -0.3828  1.1792 -3.5925
  317MOL0     H41842   2.493   8.139  -0.188 -0.5001 -1.5619 -2.9214
  317MOL0     H41843   2.002   7.911   0.587  0.6542  2.6880 -0.6329
  317MOL0     H41844   1.817   7.897   0.738 -0.1537 -1.0882  0.3223
  318MOL0     O41845   5.847   4.586  10.658 -0.1856 -0.0378  0.0979
  318MOL0     C41846   5.849   4.491  10.741  0.7068 -0.9374  0.8544
  318MOL0     O41847   5.732   4.439  10.793 -0.6636  0.5254 -0.2558
  318MOL0     C41848   5.619   4.476  10.710 -0.2785  0.6192 -0.8393
  318MOL0     C41849   5.573   4.380  10.626  0.4229 -0.6391  0.6334
  318MOL0     C41850   5.461   4.406  10.548  0.2080 -0.5659  0.6523
  318MOL0     C41851   5.382   4.520  10.575  0.5290 -0.4975  0.4805
  318MOL0     O41852   5.281   4.535  10.484 -0.0440  0.8005 -0.0162
  318MOL0     C41853   5.170   4.617  10.516 -0.1252  0.7964  0.2424
  318MOL0     C41854   5.056   4.622  10.407 -0.0976 -0.0185  0.3426
  318MOL0     C41855   4.994   4.480  10.377  0.6071 -0.5157 -0.3071
  318MOL0     C41856   4.871   4.457  10.471  0.1069  0.0741  0.1159
  318MOL0     C41857   4.799   4.338  10.411 -0.3575 -1.1666 -0.6099
  318MOL0     C41858   4.697   4.283  10.504  0.2203 -0.2115  0.0134
  318MOL0     C41859   4.592   4.377  10.579 -0.7300  0.4904 -0.0594
  318MOL0     C41860   4.497   4.298  10.664  0.1793 -0.1715  0.9833
  318MOL0     N41861   4.398   4.215  10.591 -0.0069  0.0724  0.5023
  318MOL0     C41862   4.309   4.270  10.501  0.2590 -0.3786 -1.0416
  318MOL0     C41863   4.257   4.158  10.437  0.5948 -0.3994 -0.8167
  318MOL0     C41864   4.160   4.164  10.323 -0.0225 -0.2092  0.9140
  318MOL0     C41865   4.018   4.178  10.376 -0.5235 -0.2537 -0.4238
  318MOL0     C41866   3.943   4.057  10.439 -0.3036 -0.7519  0.2312
  318MOL0     C41867   3.793   4.066  10.462 -0.4758 -0.9001  0.3309
  318MOL0     O41868   3.712   4.087  10.339  0.0966  0.1637 -0.1691
  318MOL0     C41869   3.587   4.021  10.340 -0.5944 -0.8580  0.1428
  318MOL0     C41870   3.541   3.990  10.213 -0.0168 -0.2038 -0.5815
  318MOL0     C41871   3.408   3.949  10.186  0.7447  0.0232 -0.1287
  318MOL0     C41872   3.324   3.921  10.300 -0.5664 -0.3253 -0.2375
  318MOL0     C41873   3.186   3.890  10.287 -0.0988 -0.5845  0.3626
  318MOL0     O41874   3.144   3.852  10.160 -0.0853 -0.2118  0.1033
  318MOL0     C41875   3.015   3.817  10.139  0.4936  0.1182  0.0413
  318MOL0     C41876   2.922   3.925  10.119 -0.9189 -0.0757  0.0387
  318MOL0     C41877   2.782   3.902  10.129  0.6553  0.7444  0.3426
  318MOL0     C41878   2.737   3.767  10.118  0.3093 -0.5886  0.9366
  318MOL0     O41879   2.601   3.763  10.093 -0.2457  0.0132 -0.1420
  318MOL0     C41880   2.553   3.640  10.049  0.6090  0.4265  0.6930
  318MOL0     C41881   2.403   3.653  10.057  0.8948 -0.8951  0.2719
  318MOL0     C41882   2.354   3.723   9.926  0.4888  0.3519  0.1345
  318MOL0     C41883   2.214   3.788   9.946  0.5761  0.4731  0.2713
  318MOL0     C41884   2.168   3.855   9.815 -0.5837 -0.0800 -1.0375
  318MOL0     C41885   2.024   3.904   9.811 -0.1167 -0.7806 -0.7049
  318MOL0     C41886   1.918   3.785   9.814 -0.8454 -0.0166 -1.0153
  318MOL0     C41887   1.776   3.831   9.798  1.0906  0.2689 -0.4699
  318MOL0    Cl41888   1.749   3.899   9.626 -0.0300 -0.3942 -0.0923
  318MOL0     C41889   2.828   3.665  10.127 -1.0519  0.6607  0.3507
  318MOL0     C41890   2.959   3.683  10.148  0.1499  0.0686  0.5285
  318MOL0     O41891   3.114   3.901  10.382  0.6277 -0.5956 -0.0481
  318MOL0     C41892   3.379   3.942  10.431  0.0445 -0.5801 -0.2893
  318MOL0     C41893   3.513   3.984  10.454  0.4927  0.4637 -0.9401
  318MOL0     N41894   4.314   4.044  10.481 -0.3044 -0.7343  0.5828
  318MOL0     N41895   4.384   4.079  10.578  0.0632  0.1343 -0.0215
  318MOL0     C41896   5.420   4.619  10.657 -0.0095 -0.6678 -1.1490
  318MOL0     C41897   5.546   4.596  10.727  1.0183 -0.8666  0.1880
  318MOL0     C41898   5.982   4.433  10.770 -0.3277  0.2938 -0.9053
  318MOL0     C41899   5.994   4.347  10.872  0.2111  0.6145 -0.8183
  318MOL0     C41900   6.116   4.297  10.915 -1.1795  0.4886 -0.6373
  318MOL0     C41901   6.235   4.357  10.868 -0.4156  0.1868  0.3045
  318MOL0     O41902   6.365   4.323  10.909  0.0496 -0.7813 -0.0526
  318MOL0     C41903   6.389   4.260  11.033 -0.0473 -0.5493  0.8210
  318MOL0     C41904   6.538   4.253  11.049 -0.9049  0.4826  0.0316
  318MOL0     C41905   6.612   4.166  10.945  0.0170 -0.1833 -0.3562
  318MOL0     C41906   6.749   4.113  10.999  0.2811 -0.3195  0.2391
  318MOL0     C41907   6.835   4.228  11.026 -0.8387 -0.4559  1.2310
  318MOL0     C41908   6.908   4.319  11.061  0.6399 -0.2717  0.3384
  318MOL0     C41909   6.228   4.443  10.760 -0.8397  0.3981 -0.1935
  318MOL0     C41910   6.099   4.482  10.709 -0.8834 -0.0147 -0.1666
  318MOL0     H41911   5.627   4.289  10.604 -0.5215 -0.8670 -0.9308
  318MOL0     H41912   5.436   4.336  10.469 -0.8495 -1.9356  2.1359
  318MOL0     H41913   5.209   4.718  10.530  4.3097 -0.5996 -0.4464
  318MOL0     H41914   5.124   4.580  10.608 -0.4222  0.0750 -0.1871
  318MOL0     H41915   5.113   4.663  10.323 -1.5386  3.0202  0.7269
  318MOL0     H41916   4.974   4.691  10.429 -0.1099  0.1338 -0.1517
  318MOL0     H41917   5.076   4.409  10.382  0.6053 -0.4592  1.2526
  318MOL0     H41918   4.952   4.487  10.276 -0.4405  0.1284  0.1462
  318MOL0     H41919   4.898   4.421  10.571  0.1574 -0.7180 -0.1726
  318MOL0     H41920   4.816   4.550  10.487  1.6051  1.5987 -2.7982
  318MOL0     H41921   4.876   4.261  10.396 -0.1417 -1.1248  0.2567
  318MOL0     H41922   4.751   4.370  10.318  0.0280 -2.0577 -1.1330
  318MOL0     H41923   4.745   4.219  10.578 -0.6122  2.7513  3.3548
  318MOL0     H41924   4.646   4.221  10.429  0.3234  0.5805 -0.7227
  318MOL0     H41925   4.641   4.445  10.649  1.8527 -0.3764 -0.9042
  318MOL0     H41926   4.540   4.438  10.504  0.3468  0.1367 -1.1191
  318MOL0     H41927   4.451   4.375  10.726 -1.1562  1.1081 -1.4422
  318MOL0     H41928   4.558   4.235  10.730  0.5194 -2.6345 -1.4940
  318MOL0     H41929   4.298   4.375  10.477 -0.4215 -0.0920  0.4138
  318MOL0     H41930   4.164   4.074  10.262  0.3467  0.9554 -0.8686
  318MOL0     H41931   4.181   4.251  10.259 -1.8320 -0.5804 -0.2583
  318MOL0     H41932   3.967   4.198  10.282 -2.0132 -2.2441 -0.1223
  318MOL0     H41933   4.020   4.258  10.450  0.4301 -0.5517 -0.1000
  318MOL0     H41934   3.964   3.969  10.378 -1.8760 -0.8252 -0.2617
  318MOL0     H41935   3.988   4.024  10.533 -2.8147 -0.9230  1.4683
  318MOL0     H41936   3.773   4.148  10.531 -2.6903 -0.5129 -0.6883
  318MOL0     H41937   3.772   3.972  10.514  1.4576 -1.2689  0.5408
  318MOL0     H41938   3.604   4.012  10.128 -1.9049 -0.4310 -2.1088
  318MOL0     H41939   3.365   3.943  10.086  0.5904  0.3738 -0.0882
  318MOL0     H41940   2.941   4.032  10.125 -5.4132  0.8566  1.1585
  318MOL0     H41941   2.708   3.981  10.129  1.6693  1.8282 -2.6671
  318MOL0     H41942   2.584   3.562  10.119  2.0056 -0.0501 -0.4203
  318MOL0     H41943   2.591   3.615   9.949 -0.7792  0.3380  0.1725
  318MOL0     H41944   2.372   3.707  10.147  0.6547  1.1340 -0.9744
  318MOL0     H41945   2.341   3.562  10.060 -1.4709  0.6358  0.4491
  318MOL0     H41946   2.353   3.644   9.849  2.5743 -1.5441  1.9083
  318MOL0     H41947   2.413   3.808   9.891 -0.9677  1.0449 -0.7055
  318MOL0     H41948   2.141   3.713   9.979 -0.2752  1.3205  0.3758
  318MOL0     H41949   2.228   3.863  10.024  2.4627 -1.0027  1.4244
  318MOL0     H41950   2.178   3.770   9.746 -1.1456 -1.5292  0.5921
  318MOL0     H41951   2.242   3.930   9.785 -0.2468  0.8723  1.8781
  318MOL0     H41952   2.008   3.937   9.708 -1.9470 -1.6165 -0.7264
  318MOL0     H41953   2.007   3.991   9.875  2.0011  1.1065 -2.5535
  318MOL0     H41954   1.929   3.720   9.727 -1.8755  0.4574 -1.5228
  318MOL0     H41955   1.927   3.731   9.909  3.5066 -0.3258 -1.4026
  318MOL0     H41956   1.745   3.904   9.873 -1.3480 -0.2405 -0.8895
  318MOL0     H41957   1.707   3.746   9.795 -0.5551  1.5265  0.4032
  318MOL0     H41958   2.792   3.563  10.132  1.3686 -0.3077 -0.1513
  318MOL0     H41959   3.019   3.593  10.158  1.2846  1.0182  2.9271
  318MOL0     H41960   3.332   3.922  10.527  3.7600  0.3966  1.9202
  318MOL0     H41961   3.555   4.021  10.548 -0.0562 -0.1009 -0.4673
  318MOL0     H41962   5.352   4.698  10.685  0.9240 -0.4230  0.5458
  318MOL0     H41963   5.590   4.660  10.803  3.7575 -5.4144  2.9759
  318MOL0     H41964   5.908   4.303  10.923  1.6230 -0.6520  0.5837
  318MOL0     H41965   6.114   4.223  10.994  2.0112  0.5029 -0.4283
  318MOL0     H41966   6.335   4.165  11.024 -0.4194 -0.3928  1.3317
  318MOL0     H41967   6.342   4.309  11.119  0.1367  2.2677 -0.5868
  318MOL0     H41968   6.586   4.351  11.057  0.1663 -0.1590  2.0146
  318MOL0     H41969   6.557   4.213  11.149 -1.5967  3.9546  1.7072
  318MOL0     H41970   6.629   4.233  10.860 -1.1539 -0.2251 -0.6415
  318MOL0     H41971   6.545   4.084  10.918 -1.2230  0.5987  0.2498
  318MOL0     H41972   6.740   4.061  11.095  1.8283 -2.4325 -0.6850
  318MOL0     H41973   6.796   4.042  10.931  0.1650 -0.6915  0.5457
  318MOL0     H41974   6.957   4.402  11.109 -0.2643 -0.8771  2.3994
  318MOL0     H41975   6.322   4.492  10.739 -0.0925 -0.1949  1.5216
  318MOL0     H41976   6.093   4.552  10.627  0.0154  0.6986  0.3618
  319MOL0     O41977   0.452   1.171   9.615  0.5973 -0.1247  0.1853
  319MOL0     C41978   0.524   1.088   9.566  0.0936 -0.5176 -0.3811
  319MOL0     O41979   0.496   0.952   9.557  0.8092 -0.8297 -0.1816
  319MOL0     C41980   0.365   0.918   9.590 -0.0353  0.0383 -0.4589
  319MOL0     C41981   0.264   0.948   9.507  0.7442 -0.3884 -0.3257
  319MOL0     C41982   0.132   0.913   9.546 -0.0183  0.8163 -0.4187
  319MOL0     C41983   0.098   0.843   9.658  0.5029  0.0201  0.5209
  319MOL0     O41984  -0.028   0.800   9.684 -0.1876 -0.1708 -0.6900
  319MOL0     C41985  -0.080   0.774   9.819  0.0505  0.4482 -0.2882
  319MOL0     C41986  -0.232   0.801   9.813  1.0428  0.8707 -0.1773
  319MOL0     C41987  -0.298   0.781   9.948 -0.4584 -0.2512  1.0393
  319MOL0     C41988  -0.444   0.759   9.948  0.1001  0.0709 -0.5310
  319MOL0     C41989  -0.522   0.856   9.864 -0.0267  0.7637 -0.2629
  319MOL0     C41990  -0.668   0.805   9.877  0.4174 -0.1462 -0.5391
  319MOL0     C41991  -0.764   0.895   9.790  0.4297  0.5447  0.7212
  319MOL0     C41992  -0.896   0.925   9.860 -0.5185  0.4626  0.6186
  319MOL0     N41993  -0.983   1.002   9.753  0.0875  0.7589 -0.0320
  319MOL0     C41994  -1.087   0.956   9.681 -0.5711  0.7020 -0.2123
  319MOL0     C41995  -1.142   1.057   9.614  0.2652 -0.9938 -0.1893
  319MOL0     C41996  -1.252   1.036   9.516 -0.0337 -0.3230  0.2751
  319MOL0     C41997  -1.203   1.041   9.371  1.4544  0.3887 -0.0331
  319MOL0     C41998  -1.262   1.168   9.305  0.4484  0.5005 -0.1261
  319MOL0     C41999  -1.408   1.209   9.315  0.8588 -0.5826 -0.3191
  319MOL0     O42000  -1.486   1.099   9.267  0.1975  0.4164 -0.0472
  319MOL0     C42001  -1.623   1.130   9.255 -0.5016  0.4721  0.5224
  319MOL0     C42002  -1.695   1.243   9.293 -0.5803 -0.1625 -1.0446
  319MOL0     C42003  -1.840   1.250   9.269 -0.5974  0.4680 -0.1021
  319MOL0     C42004  -1.905   1.144   9.208  0.0140 -1.3356  0.5045
  319MOL0     C42005  -2.045   1.163   9.159 -0.8109 -0.0507 -0.2576
  319MOL0     O42006  -2.126   1.239   9.242 -0.5866  0.2364  0.1487
  319MOL0     C42007  -2.266   1.243   9.240 -0.1067 -0.1164  0.6877
  319MOL0     C42008  -2.339   1.271   9.363 -0.1739 -0.1637  0.3404
  319MOL0     C42009  -2.474   1.296   9.360 -1.0608  0.9620 -0.2965
  319MOL0     C42010  -2.553   1.274   9.246  0.2016 -0.4955 -0.2356
  319MOL0     O42011  -2.688   1.286   9.255  0.5340  0.5405 -0.6476
  319MOL0     C42012  -2.773   1.208   9.175  0.5808  0.6625 -0.2613
  319MOL0     C42013  -2.895   1.221   9.255  0.1854 -0.0298  0.5625
  319MOL0     C42014  -3.012   1.153   9.170 -1.3654  0.6149  0.1374
  319MOL0     C42015  -3.150   1.148   9.239  0.2817  0.2128  0.4878
  319MOL0     C42016  -3.250   1.099   9.133 -0.0207 -0.2959  0.3968
  319MOL0     C42017  -3.382   1.066   9.199 -0.6501  0.2703  0.4256
  319MOL0     C42018  -3.481   1.007   9.105  0.0776 -0.5220  0.6109
  319MOL0     C42019  -3.600   0.952   9.176  0.4251  0.3458  0.4759
  319MOL0    Cl42020  -3.744   0.945   9.056 -0.0154  0.3953 -0.4203
  319MOL0     C42021  -2.485   1.242   9.125 -0.2198  0.2870 -0.7432
  319MOL0     C42022  -2.348   1.232   9.123 -0.5615 -0.3801  0.7442
  319MOL0     O42023  -2.078   1.094   9.066 -0.1434 -0.4172 -1.7205
  319MOL0     C42024  -1.827   1.032   9.171 -0.1138  0.6873 -0.2501
  319MOL0     C42025  -1.689   1.028   9.197  0.4371 -1.1400 -0.7362
  319MOL0     N42026  -1.079   1.180   9.655  0.0841  0.1602  0.6403
  319MOL0     N42027  -0.984   1.142   9.738  0.5363 -0.4257 -0.4825
  319MOL0     C42028   0.204   0.808   9.745  0.1296 -0.2197 -0.0678
  319MOL0     C42029   0.337   0.842   9.709  0.3407  0.5744  0.0702
  319MOL0     C42030   0.648   1.141   9.490  0.4410 -0.5949  0.7852
  319MOL0     C42031   0.734   1.062   9.409  0.4454 -0.2361  1.0028
  319MOL0     C42032   0.844   1.116   9.336 -0.2226 -0.3486  0.2159
  319MOL0     C42033   0.870   1.252   9.338  0.1718 -0.8568 -0.3198
  319MOL0     O42034   0.969   1.312   9.257  0.1487  0.2952  0.2041
  319MOL0     C42035   1.096   1.243   9.248  0.1272  0.3524  0.4937
  319MOL0     C42036   1.206   1.350   9.218 -0.0418  0.4836  0.7085
  319MOL0     C42037   1.246   1.419   9.354  0.3200  0.3629  0.1583
  319MOL0     C42038   1.368   1.516   9.361  0.1350  0.2596 -1.3903
  319MOL0     C42039   1.370   1.582   9.496 -0.0131 -0.2725 -0.9957
  319MOL0     C42040   1.363   1.641   9.606  0.2444 -0.7048  0.2648
  319MOL0     C42041   0.785   1.333   9.417  0.0185  0.1066  0.2494
  319MOL0     C42042   0.677   1.278   9.492 -0.2361 -0.6399 -0.0720
  319MOL0     H42043   0.292   1.009   9.421  4.0971 -3.2276 -1.5070
  319MOL0     H42044   0.048   0.938   9.481 -1.9897 -0.6915  1.3863
  319MOL0     H42045  -0.033   0.842   9.891  1.9895  1.4810 -2.4100
  319MOL0     H42046  -0.067   0.669   9.844  3.9324  0.4976 -1.4474
  319MOL0     H42047  -0.269   0.739   9.731  3.3903  2.2345 -2.4378
  319MOL0     H42048  -0.260   0.898   9.771  0.1980 -0.3823 -2.7273
  319MOL0     H42049  -0.268   0.880   9.984  2.7520 -0.8189  0.2739
  319MOL0     H42050  -0.247   0.695   9.991  0.9098  0.1405  0.2727
  319MOL0     H42051  -0.478   0.656   9.933 -2.7781  0.7600  0.4692
  319MOL0     H42052  -0.477   0.781  10.050 -0.5416 -0.4061 -0.6242
  319MOL0     H42053  -0.483   0.862   9.762  3.1194  0.5491  0.8123
  319MOL0     H42054  -0.511   0.952   9.915 -3.4105  0.3390  1.5851
  319MOL0     H42055  -0.681   0.811   9.985  0.3789  1.5885 -0.6072
  319MOL0     H42056  -0.673   0.705   9.834 -0.4486 -0.4126  0.1523
  319MOL0     H42057  -0.716   0.987   9.756  0.3550  0.6073  0.7821
  319MOL0     H42058  -0.786   0.831   9.705  1.2942  0.3552  0.6334
  319MOL0     H42059  -0.882   0.990   9.947  0.0047  1.6135 -0.2873
  319MOL0     H42060  -0.942   0.829   9.884  0.8357 -0.2367  0.4720
  319MOL0     H42061  -1.105   0.849   9.674 -0.4015  0.5213  1.6343
  319MOL0     H42062  -1.327   1.113   9.537  0.1315  0.1236 -0.7283
  319MOL0     H42063  -1.296   0.939   9.538  1.7741 -2.0773 -3.1516
  319MOL0     H42064  -1.226   0.948   9.319 -2.3084  1.9201 -1.5476
  319MOL0     H42065  -1.095   1.055   9.360  1.1483  2.8331 -0.5540
  319MOL0     H42066  -1.203   1.248   9.351 -2.2649  2.6185 -0.1001
  319MOL0     H42067  -1.242   1.175   9.197  1.3707 -0.3107 -0.0256
  319MOL0     H42068  -1.424   1.298   9.254 -1.7317 -0.2980  0.6718
  319MOL0     H42069  -1.444   1.230   9.416 -2.1089  0.6427 -1.5266
  319MOL0     H42070  -1.640   1.328   9.332 -2.0615  1.2515 -1.8942
  319MOL0     H42071  -1.896   1.342   9.282  1.5801  1.5704  2.5868
  319MOL0     H42072  -2.288   1.284   9.458 -2.9429 -0.7762  2.0314
  319MOL0     H42073  -2.530   1.315   9.451  0.4718  0.1055  0.8782
  319MOL0     H42074  -2.731   1.107   9.161  1.7580  0.8179  1.7220
  319MOL0     H42075  -2.784   1.256   9.077  1.1190  1.8842  0.2652
  319MOL0     H42076  -2.925   1.324   9.274  1.3665  0.3594  0.3840
  319MOL0     H42077  -2.881   1.167   9.349 -1.3376 -0.0259  0.8095
  319MOL0     H42078  -2.983   1.051   9.144 -0.7452 -0.4093  4.2248
  319MOL0     H42079  -3.016   1.210   9.077 -3.0013 -2.5098 -1.9001
  319MOL0     H42080  -3.150   1.084   9.328 -1.9844  1.2917  1.3385
  319MOL0     H42081  -3.193   1.242   9.276 -2.1268 -1.4249  2.2114
  319MOL0     H42082  -3.216   1.004   9.092 -1.2747 -0.6105  0.0569
  319MOL0     H42083  -3.253   1.173   9.052 -1.5878 -0.3973  0.3342
  319MOL0     H42084  -3.424   1.151   9.254  0.7754  0.1437  1.7773
  319MOL0     H42085  -3.374   0.992   9.279 -1.4822  1.7184  1.9091
  319MOL0     H42086  -3.511   1.091   9.041  2.5239  0.1303  0.1825
  319MOL0     H42087  -3.435   0.930   9.043  0.0154  2.2136 -3.2346
  319MOL0     H42088  -3.628   1.013   9.262  0.3451  0.9671  0.0123
  319MOL0     H42089  -3.577   0.857   9.224  0.8041  1.2296  2.1101
  319MOL0     H42090  -2.533   1.232   9.028 -2.5355  0.5589  0.3084
  319MOL0     H42091  -2.310   1.216   9.022  2.2329 -1.3309  1.8539
  319MOL0     H42092  -1.862   0.944   9.117  0.8570  0.7119 -0.9396
  319MOL0     H42093  -1.637   0.938   9.167  0.7491 -0.2886 -2.9142
  319MOL0     H42094   0.196   0.732   9.823  0.3207 -0.3582 -0.1808
  319MOL0     H42095   0.424   0.813   9.767  0.2883 -0.2481 -0.2484
  319MOL0     H42096   0.699   0.959   9.399 -4.0614  1.0143  1.7687
  319MOL0     H42097   0.912   1.051   9.281 -1.5565  0.4559 -2.5606
  319MOL0     H42098   1.105   1.173   9.165  1.8643  0.1544  0.8125
  319MOL0     H42099   1.118   1.187   9.340 -1.5152  0.3939  0.9443
  319MOL0     H42100   1.294   1.291   9.194 -0.5861 -0.6637  1.4201
  319MOL0     H42101   1.174   1.414   9.135 -2.3543 -1.2350  0.1729
  319MOL0     H42102   1.265   1.335   9.421 -0.5290 -1.1488 -1.4060
  319MOL0     H42103   1.158   1.480   9.379  2.8795  4.7272 -0.5200
  319MOL0     H42104   1.449   1.445   9.338  1.0595  0.6443  0.5207
  319MOL0     H42105   1.359   1.595   9.286 -0.3316 -0.2482 -1.8760
  319MOL0     H42106   1.358   1.683   9.704  1.1393 -0.3432  0.1706
  319MOL0     H42107   0.811   1.437   9.434  3.0912 -0.9592  3.3696
  319MOL0     H42108   0.623   1.345   9.558  4.7454  1.4149  2.4611
  320MOL0     O42109   2.165   9.800   7.281 -0.0086 -0.0218 -0.4398
  320MOL0     C42110   2.077   9.888   7.269 -0.2607  0.0526  0.0060
  320MOL0     O42111   2.005   9.942   7.374 -0.3843 -0.4314 -0.6114
  320MOL0     C42112   2.025   9.902   7.508 -1.0209 -0.0103  0.0888
  320MOL0     C42113   2.146   9.871   7.575  0.1103 -0.3700  0.4517
  320MOL0     C42114   2.152   9.846   7.707 -0.4555 -0.0757  1.1682
  320MOL0     C42115   2.041   9.838   7.792  0.1180 -0.5531  1.2418
  320MOL0     O42116   2.051   9.799   7.923  0.4717  0.3372 -0.3669
  320MOL0     C42117   2.129   9.870   8.018  0.8040 -1.4191  0.1181
  320MOL0     C42118   2.105   9.839   8.166 -0.2115  0.0986 -0.0934
  320MOL0     C42119   2.210   9.913   8.250 -0.0618 -0.6454 -0.1627
  320MOL0     C42120   2.172   9.895   8.400  0.1883  0.8813  0.8931
  320MOL0     C42121   2.236  10.006   8.489  0.3896 -0.2035  0.2886
  320MOL0     C42122   2.160  10.019   8.615 -0.3530 -0.4832 -0.2606
  320MOL0     C42123   2.181  10.144   8.683  0.5067 -0.2052  0.4943
  320MOL0     C42124   2.100  10.157   8.811  0.1002 -1.1627 -0.7029
  320MOL0     N42125   1.952  10.174   8.792  0.3444 -0.3047 -0.3310
  320MOL0     C42126   1.903  10.270   8.700 -0.9125 -0.3915 -1.1252
  320MOL0     C42127   1.774  10.249   8.695  0.5003 -0.2663 -0.2561
  320MOL0     C42128   1.670  10.334   8.635  0.3457 -0.6117 -0.0495
  320MOL0     C42129   1.574  10.396   8.740  0.0909  0.0914  0.2804
  320MOL0     C42130   1.494  10.520   8.683  1.4292  0.2624  0.1880
  320MOL0     C42131   1.443  10.607   8.802 -0.6727 -0.3163  1.0344
  320MOL0     O42132   1.372  10.530   8.901 -1.0589  0.9094 -0.2302
  320MOL0     C42133   1.242  10.493   8.875  0.0961 -0.2556  0.1901
  320MOL0     C42134   1.165  10.555   8.775 -0.4627  0.5016  0.3590
  320MOL0     C42135   1.036  10.513   8.753 -0.1056 -0.0412  0.2564
  320MOL0     C42136   0.974  10.406   8.825  0.3676  0.2610  0.4937
  320MOL0     C42137   0.848  10.345   8.790  0.2730  0.2619 -0.0794
  320MOL0     O42138   0.779  10.416   8.696  0.6013  0.0410 -0.1247
  320MOL0     C42139   0.650  10.392   8.639  0.3744 -0.1810 -1.6191
  320MOL0     C42140   0.573  10.277   8.660  1.0744 -1.9276  0.7584
  320MOL0     C42141   0.442  10.272   8.606  0.5058 -0.1467 -0.7666
  320MOL0     C42142   0.393  10.389   8.535 -0.3874 -0.6125  0.8973
  320MOL0     O42143   0.266  10.389   8.494  0.1242  0.3630  0.3205
  320MOL0     C42144   0.215  10.272   8.434 -0.2557  0.1269  0.4339
  320MOL0     C42145   0.113  10.312   8.332  0.3511  0.4177  0.3354
  320MOL0     C42146  -0.023  10.343   8.404  0.1459 -0.0395  0.1663
  320MOL0     C42147  -0.096  10.216   8.459  0.0120 -0.6051 -0.2872
  320MOL0     C42148  -0.116  10.234   8.616  0.0456  0.1253  0.6713
  320MOL0     C42149  -0.202  10.357   8.647  0.5658 -0.8886 -0.7388
  320MOL0     C42150  -0.254  10.372   8.794 -0.2872 -0.3762 -0.4020
  320MOL0     C42151  -0.340  10.263   8.843  0.5435  0.8033  0.5831
  320MOL0    Cl42152  -0.245  10.121   8.904 -0.1228 -0.3995  0.0298
  320MOL0     C42153   0.474  10.498   8.513  0.6809  0.1940 -1.0868
  320MOL0     C42154   0.602  10.504   8.572  0.5180 -0.5129 -0.0410
  320MOL0     O42155   0.811  10.237   8.840  0.4972  0.2068 -0.3924
  320MOL0     C42156   1.052  10.349   8.926  0.4023  0.2068 -0.5098
  320MOL0     C42157   1.183  10.393   8.952  0.6096  0.1230  0.9295
  320MOL0     N42158   1.744  10.141   8.782 -0.0765  0.6967 -0.5443
  320MOL0     N42159   1.851  10.100   8.852  0.2974  0.0902  0.5747
  320MOL0     C42160   1.915   9.865   7.726  0.5445 -0.8799 -0.0794
  320MOL0     C42161   1.913   9.903   7.584  0.0066 -0.3871  0.1633
  320MOL0     C42162   2.022   9.909   7.124  0.4421 -0.6539 -0.1539
  320MOL0     C42163   1.910   9.997   7.110  0.3701 -0.3775  0.2337
  320MOL0     C42164   1.850  10.008   6.983  0.0672 -0.0175 -0.4046
  320MOL0     C42165   1.897   9.936   6.869 -0.1516 -0.4407 -0.1045
  320MOL0     O42166   1.833   9.969   6.751  0.0568 -0.3316  0.4458
  320MOL0     C42167   1.859   9.893   6.634 -0.3575  0.1760  0.4180
  320MOL0     C42168   1.764   9.935   6.515 -0.7139 -0.4242 -0.3411
  320MOL0     C42169   1.637   9.860   6.522  0.6546  0.3972 -0.0859
  320MOL0     C42170   1.533   9.920   6.423 -0.0683 -0.3795 -0.4256
  320MOL0     C42171   1.392   9.888   6.460 -0.3519  0.0623  0.3326
  320MOL0     C42172   1.276   9.853   6.476 -0.2472 -0.4070 -0.1571
  320MOL0     C42173   2.005   9.855   6.885 -0.7887  0.1462  0.2827
  320MOL0     C42174   2.067   9.835   7.013  0.4352  0.3068  0.0611
  320MOL0     H42175   2.241   9.877   7.524  0.6054 -0.7506  1.3061
  320MOL0     H42176   2.250   9.823   7.748  0.8712  2.1587 -0.4927
  320MOL0     H42177   2.105   9.976   8.005  1.9775 -1.0241  0.9823
  320MOL0     H42178   2.235   9.861   7.992  0.3282  1.3530 -3.4664
  320MOL0     H42179   2.110   9.731   8.184 -1.6824 -0.3232 -1.8672
  320MOL0     H42180   2.001   9.858   8.195  0.7345  2.1334  2.3314
  320MOL0     H42181   2.192  10.019   8.233 -1.3017 -0.5331  1.6297
  320MOL0     H42182   2.306   9.874   8.213  0.1161 -0.6759  0.3250
  320MOL0     H42183   2.063   9.888   8.406  0.1330  1.9827  1.2547
  320MOL0     H42184   2.211   9.796   8.427  0.2310  0.8077  0.5686
  320MOL0     H42185   2.247  10.097   8.430 -0.2891  0.6439  1.4300
  320MOL0     H42186   2.331   9.961   8.520  1.5156  1.2193 -0.9587
  320MOL0     H42187   2.181   9.937   8.683 -2.7189 -0.9448  0.0199
  320MOL0     H42188   2.051  10.007   8.606 -0.2440 -1.0820 -0.8610
  320MOL0     H42189   2.287  10.169   8.696  0.1956  2.1993 -0.9268
  320MOL0     H42190   2.155  10.220   8.609  3.3801  0.0870 -0.3327
  320MOL0     H42191   2.136  10.240   8.872 -0.4235 -0.3723 -1.4475
  320MOL0     H42192   2.109  10.063   8.868  0.4401 -2.0181 -2.1276
  320MOL0     H42193   1.969  10.332   8.640  2.4798 -3.0597 -0.5001
  320MOL0     H42194   1.608  10.291   8.556 -1.7536  2.4119 -0.2322
  320MOL0     H42195   1.718  10.418   8.585 -1.1933  0.3054 -0.0524
  320MOL0     H42196   1.638  10.428   8.822 -2.9725  1.2265  2.4256
  320MOL0     H42197   1.511  10.315   8.778  0.2740  1.1318  3.0063
  320MOL0     H42198   1.561  10.578   8.619  3.3453 -0.3040  1.6054
  320MOL0     H42199   1.402  10.496   8.627  1.4446  0.5643  0.0312
  320MOL0     H42200   1.382  10.690   8.765  0.5228  1.6904  3.2390
  320MOL0     H42201   1.519  10.663   8.858 -2.0716 -0.0571  2.7746
  320MOL0     H42202   1.193  10.641   8.716 -0.2732  0.5324  0.4924
  320MOL0     H42203   0.984  10.565   8.673 -2.4767 -2.6844 -0.1157
  320MOL0     H42204   0.607  10.186   8.708  0.3750 -3.6413 -1.8014
  320MOL0     H42205   0.376  10.190   8.634  3.5374 -2.3797  0.4885
  320MOL0     H42206   0.184  10.202   8.512 -1.0882 -2.0948 -1.7672
  320MOL0     H42207   0.287  10.214   8.376 -0.9584  0.3609 -0.6965
  320MOL0     H42208   0.093  10.229   8.263 -0.8115 -1.9829  3.3002
  320MOL0     H42209   0.157  10.395   8.277  1.7982 -1.7109 -1.9589
  320MOL0     H42210  -0.095  10.389   8.335 -1.0879  2.5563  2.8928
  320MOL0     H42211  -0.007  10.424   8.476 -2.7604  2.2040 -1.4765
  320MOL0     H42212  -0.193  10.205   8.410  0.8431  0.1918 -2.2012
  320MOL0     H42213  -0.039  10.124   8.445 -0.3582 -1.0021  0.7523
  320MOL0     H42214  -0.023  10.236   8.673  1.0267 -1.9294 -0.7422
  320MOL0     H42215  -0.175  10.149   8.650 -1.8299  1.4164  0.8108
  320MOL0     H42216  -0.291  10.360   8.584  0.5963  0.7740 -0.7560
  320MOL0     H42217  -0.144  10.446   8.617 -2.2132  1.8337  1.3882
  320MOL0     H42218  -0.164  10.367   8.857 -0.7324  0.2978  0.3138
  320MOL0     H42219  -0.307  10.467   8.803 -1.9154 -1.0703 -2.0896
  320MOL0     H42220  -0.404  10.226   8.762 -0.5078  0.2085  1.6489
  320MOL0     H42221  -0.413  10.308   8.912 -0.3813  0.2363  0.0007
  320MOL0     H42222   0.442  10.586   8.459  2.9345  0.5457 -1.9484
  320MOL0     H42223   0.659  10.596   8.569 -0.1931 -0.0544 -3.2172
  320MOL0     H42224   1.031  10.260   8.983 -1.4682 -2.5028 -4.9378
  320MOL0     H42225   1.243  10.340   9.025  3.4248 -1.4372 -2.2703
  320MOL0     H42226   1.816   9.853   7.771  1.6885 -0.9246  2.6216
  320MOL0     H42227   1.830   9.932   7.520  2.6753 -1.4611 -4.1709
  320MOL0     H42228   1.868  10.050   7.195 -5.0098 -0.7982 -1.7794
  320MOL0     H42229   1.778  10.088   6.974  1.3828  1.3873  0.9452
  320MOL0     H42230   1.849   9.790   6.668  1.9179  0.1353  1.1547
  320MOL0     H42231   1.960   9.915   6.598 -0.4433 -1.6992 -1.0901
  320MOL0     H42232   1.728  10.038   6.520 -3.4826 -1.2675  5.5367
  320MOL0     H42233   1.824   9.907   6.428 -0.0655 -0.6393  0.1663
  320MOL0     H42234   1.592   9.868   6.622 -2.2806 -0.9181 -1.1619
  320MOL0     H42235   1.663   9.757   6.495  1.0255  0.7368 -1.0816
  320MOL0     H42236   1.532  10.029   6.434 -2.7219 -0.4473  0.6676
  320MOL0     H42237   1.545   9.902   6.316 -3.1401  0.9662 -1.1214
  320MOL0     H42238   1.174   9.821   6.482 -0.3324  0.0521  1.1453
  320MOL0     H42239   2.036   9.798   6.798 -0.6560  0.6069  0.0245
  320MOL0     H42240   2.136   9.751   7.024  1.1422  0.7475 -0.8195
  321MOL0     O42241   9.375   7.416  11.053 -0.1552 -0.1591 -0.4819
  321MOL0     C42242   9.315   7.314  11.085  0.1275  0.3768  0.5909
  321MOL0     O42243   9.346   7.230  11.182  0.0714  0.2845  0.5920
  321MOL0     C42244   9.456   7.252  11.265 -0.7804  1.0261  0.4948
  321MOL0     C42245   9.461   7.163  11.372  1.4088 -1.2077 -0.2961
  321MOL0     C42246   9.558   7.163  11.472  0.6385  0.1658 -0.8489
  321MOL0     C42247   9.662   7.254  11.462  0.7680 -0.3205  0.0939
  321MOL0     O42248   9.763   7.237  11.551  0.3257  0.3677 -0.2202
  321MOL0     C42249   9.870   7.334  11.557  0.4781  0.6363 -0.5800
  321MOL0     C42250   9.964   7.341  11.437 -0.2928 -0.4005  0.1529
  321MOL0     C42251  10.046   7.476  11.450 -0.2106  0.0467  0.0291
  321MOL0     C42252  10.144   7.479  11.327  0.5081 -0.3581 -1.1841
  321MOL0     C42253  10.237   7.602  11.329 -0.7658  0.5111  0.4444
  321MOL0     C42254  10.327   7.600  11.211 -0.4468 -0.0806  0.2312
  321MOL0     C42255  10.445   7.699  11.229 -0.9614  0.0362  0.2048
  321MOL0     C42256  10.410   7.842  11.259  0.3030  0.0362  0.6198
  321MOL0     N42257  10.327   7.911  11.153 -0.4271  0.2086 -0.3212
  321MOL0     C42258  10.196   7.947  11.171  0.3560  0.6255 -0.2545
  321MOL0     C42259  10.160   8.015  11.062  0.5305  0.7599  0.4817
  321MOL0     C42260  10.029   8.079  11.029 -0.4335 -0.0727  0.4595
  321MOL0     C42261   9.949   7.987  10.938  0.0870  0.8809  0.4961
  321MOL0     C42262   9.812   8.046  10.876 -0.0045  0.2526 -0.5358
  321MOL0     C42263   9.685   8.044  10.971 -0.3054 -0.9350 -0.2111
  321MOL0     O42264   9.636   7.917  10.997 -0.7840 -0.0989 -0.2017
  321MOL0     C42265   9.502   7.901  11.018 -0.0495 -0.2825  0.3466
  321MOL0     C42266   9.418   8.011  11.053 -0.8320 -0.2073  1.0322
  321MOL0     C42267   9.281   7.982  11.058 -0.3725 -0.6760  0.2428
  321MOL0     C42268   9.222   7.857  11.031 -0.0097 -0.5720 -0.1178
  321MOL0     C42269   9.077   7.846  11.021 -0.6596 -0.5920  0.5023
  321MOL0     O42270   9.010   7.960  11.008  0.1492 -0.3320  0.2947
  321MOL0     C42271   8.876   7.947  11.017 -1.0348 -0.3985  0.5653
  321MOL0     C42272   8.798   7.955  11.136  0.8738  0.8114  0.8912
  321MOL0     C42273   8.659   7.948  11.125  0.4277  0.4367  1.1807
  321MOL0     C42274   8.593   7.929  11.003  0.5130 -0.8641  0.0936
  321MOL0     O42275   8.462   7.967  11.011  0.1017 -0.1990  0.1911
  321MOL0     C42276   8.376   7.893  10.925  0.8194  0.2922  0.0880
  321MOL0     C42277   8.234   7.896  10.981 -0.1204 -0.4150  0.9332
  321MOL0     C42278   8.234   7.823  11.116  0.8885  0.4773 -0.2297
  321MOL0     C42279   8.098   7.838  11.187 -0.0851 -0.6303 -1.1032
  321MOL0     C42280   8.095   7.764  11.324 -0.6368  0.4570 -0.7806
  321MOL0     C42281   7.957   7.783  11.400  0.2269 -0.0091  0.3069
  321MOL0     C42282   7.921   7.919  11.457  0.5438 -0.3978 -0.0650
  321MOL0     C42283   7.788   7.914  11.539  0.3880  0.2491 -0.5421
  321MOL0    Cl42284   7.642   7.855  11.441 -0.2777  0.2841 -0.8313
  321MOL0     C42285   8.669   7.923  10.886  0.3948 -0.0337 -0.0356
  321MOL0     C42286   8.810   7.924  10.895  0.2023  0.1984 -0.4662
  321MOL0     O42287   9.031   7.739  11.045 -0.3545 -0.5382 -0.5266
  321MOL0     C42288   9.314   7.749  11.022  0.2733  0.2061  0.4990
  321MOL0     C42289   9.446   7.771  11.003  0.3863 -0.6828 -0.3579
  321MOL0     N42290  10.264   8.000  10.973 -0.1231 -0.7193  0.1200
  321MOL0     N42291  10.366   7.945  11.026 -0.1669  0.9241 -0.2592
  321MOL0     C42292   9.654   7.356  11.351  0.2397  0.1688 -1.4348
  321MOL0     C42293   9.552   7.351  11.261 -0.0171  0.2909  0.3622
  321MOL0     C42294   9.181   7.277  11.019 -0.7117  0.1967  0.4375
  321MOL0     C42295   9.106   7.371  10.949 -0.0633 -0.2747 -0.5160
  321MOL0     C42296   8.978   7.338  10.895 -0.3339 -0.5894 -0.0794
  321MOL0     C42297   8.926   7.207  10.909 -1.1680 -1.1302  0.0090
  321MOL0     O42298   8.795   7.196  10.864 -0.4586  0.2706 -0.7887
  321MOL0     C42299   8.710   7.109  10.930  0.2434 -0.1936  0.2322
  321MOL0     C42300   8.684   6.974  10.866 -0.2678  0.2422  0.3036
  321MOL0     C42301   8.612   6.988  10.735  0.2993 -0.2693  0.5311
  321MOL0     C42302   8.536   6.861  10.695  0.4678 -0.3894 -0.5446
  321MOL0     C42303   8.469   6.879  10.570  0.1287  0.0054 -0.1355
  321MOL0     C42304   8.425   6.907  10.462 -0.7294  0.1524  0.8219
  321MOL0     C42305   9.008   7.113  10.971  0.7400  0.8056  0.1413
  321MOL0     C42306   9.134   7.145  11.022 -0.5170 -0.5891 -0.6361
  321MOL0     H42307   9.405   7.071  11.353 -1.8280  0.6956 -0.6706
  321MOL0     H42308   9.569   7.079  11.540  0.2724  0.6696 -0.1546
  321MOL0     H42309   9.923   7.314  11.651 -0.7880  1.2820  0.2960
  321MOL0     H42310   9.817   7.427  11.576 -1.9997 -0.8684  0.3808
  321MOL0     H42311   9.925   7.329  11.336 -1.3468  1.0415  0.3630
  321MOL0     H42312  10.025   7.252  11.457 -0.5479 -0.8130 -0.8715
  321MOL0     H42313  10.112   7.476  11.537 -0.8883  2.0445  0.5903
  321MOL0     H42314   9.974   7.557  11.439  0.2006  0.3838 -0.1771
  321MOL0     H42315  10.210   7.392  11.330  2.0218  0.7541 -0.9440
  321MOL0     H42316  10.086   7.481  11.234 -1.1987  1.2705 -0.1595
  321MOL0     H42317  10.301   7.609  11.418  0.1010 -1.8887  0.0649
  321MOL0     H42318  10.175   7.692  11.322 -2.3894 -0.3761  2.3168
  321MOL0     H42319  10.289   7.626  11.112 -0.9141  0.9035  0.6607
  321MOL0     H42320  10.369   7.499  11.198  1.1047  0.4674  0.7398
  321MOL0     H42321  10.496   7.656  11.316 -3.1292 -1.5912  0.7796
  321MOL0     H42322  10.503   7.686  11.138 -0.8565 -2.6306  0.5702
  321MOL0     H42323  10.504   7.896  11.270  0.5256 -0.8481  4.7149
  321MOL0     H42324  10.359   7.844  11.356 -0.5604 -1.0818  0.2142
  321MOL0     H42325  10.141   7.937  11.263  0.9595  0.4389  0.0949
  321MOL0     H42326  10.043   8.173  10.976 -0.5728  1.7021  3.3124
  321MOL0     H42327   9.968   8.111  11.115  0.6830  3.3554  0.1415
  321MOL0     H42328   9.920   7.893  10.986 -1.2755  0.3322 -1.2861
  321MOL0     H42329  10.011   7.950  10.856  1.3268  1.3307  1.1935
  321MOL0     H42330   9.831   8.148  10.842  0.9228  1.1642  2.4282
  321MOL0     H42331   9.791   7.987  10.787 -0.2149 -1.5225  0.6413
  321MOL0     H42332   9.600   8.089  10.918  0.3433  0.1202 -0.3835
  321MOL0     H42333   9.696   8.112  11.056 -0.7822 -0.0423 -0.8394
  321MOL0     H42334   9.458   8.109  11.075  0.3410 -0.2363 -0.7456
  321MOL0     H42335   9.227   8.074  11.078  3.2962  1.4572  1.3975
  321MOL0     H42336   8.836   7.978  11.235 -0.3125  2.4773  1.0089
  321MOL0     H42337   8.598   7.957  11.214 -1.2651  1.2556  0.0119
  321MOL0     H42338   8.411   7.790  10.917 -0.2700 -0.3099  2.2361
  321MOL0     H42339   8.374   7.929  10.822 -4.2215 -2.6836 -1.2205
  321MOL0     H42340   8.171   7.844  10.909 -0.1561  0.2634  0.4635
  321MOL0     H42341   8.195   7.998  10.976  0.4454 -0.2264  0.0058
  321MOL0     H42342   8.307   7.873  11.180 -0.6071  1.9006  0.4310
  321MOL0     H42343   8.257   7.716  11.113  0.0701  0.2304  1.0495
  321MOL0     H42344   8.067   7.940  11.213  1.1097 -0.5004 -0.1059
  321MOL0     H42345   8.011   7.808  11.127 -1.6307 -0.5622  0.9848
  321MOL0     H42346   8.160   7.800  11.403 -0.0162 -1.9960 -0.1001
  321MOL0     H42347   8.129   7.662  11.303 -1.3014  0.4054 -1.7375
  321MOL0     H42348   7.962   7.702  11.474  3.1144 -0.7458 -0.5688
  321MOL0     H42349   7.876   7.760  11.329  1.3909 -1.1219 -0.7097
  321MOL0     H42350   7.996   7.948  11.531  0.8818 -1.9033  0.2112
  321MOL0     H42351   7.909   8.007  11.393  1.0483 -1.3514 -1.5020
  321MOL0     H42352   7.762   8.010  11.583  3.0330  1.4637 -1.4257
  321MOL0     H42353   7.805   7.848  11.625 -2.4928  0.0710 -0.0151
  321MOL0     H42354   8.609   7.906  10.797 -0.3981  0.7731  0.3215
  321MOL0     H42355   8.869   7.932  10.804 -0.7625  2.4408 -0.9542
  321MOL0     H42356   9.276   7.648  11.024 -1.7222  0.8968  0.3534
  321MOL0     H42357   9.519   7.698  10.970  2.8478  2.1299 -1.5327
  321MOL0     H42358   9.733   7.430  11.350  1.7398 -1.2927  0.3650
  321MOL0     H42359   9.544   7.426  11.183  1.8865 -2.0118 -2.2427
  321MOL0     H42360   9.142   7.474  10.945  1.6694 -0.8692 -1.1987
  321MOL0     H42361   8.909   7.407  10.848 -1.7557 -3.4230 -2.4240
  321MOL0     H42362   8.614   7.159  10.918  0.8123  0.9048  0.1672
  321MOL0     H42363   8.721   7.109  11.039  0.1519 -1.3363  0.2601
  321MOL0     H42364   8.780   6.924  10.852  0.0241  1.3936 -2.4434
  321MOL0     H42365   8.618   6.915  10.931 -0.2461 -1.5048 -1.1769
  321MOL0     H42366   8.675   7.026  10.654 -3.1933  1.6952 -1.5015
  321MOL0     H42367   8.539   7.070  10.734 -0.6312 -1.0684 -0.8471
  321MOL0     H42368   8.611   6.782  10.683  2.1080  0.6788  1.6969
  321MOL0     H42369   8.457   6.851  10.771  1.2162 -0.4826  0.2407
  321MOL0     H42370   8.394   6.914  10.359  2.8968 -3.5107 -0.8240
  321MOL0     H42371   8.975   7.010  10.980  0.7055  0.8823  0.9384
  321MOL0     H42372   9.177   7.068  11.085  0.0120  0.1598 -0.0825
  322MOL0     O42373  11.241   2.818   5.625 -0.2932 -0.0817 -0.3118
  322MOL0     C42374  11.222   2.811   5.747 -0.7123 -0.9350 -0.6361
  322MOL0     O42375  11.134   2.889   5.820  0.6350  0.0884  0.0668
  322MOL0     C42376  11.072   2.990   5.754 -0.0910 -0.3560 -0.4878
  322MOL0     C42377  11.145   3.097   5.714  0.4148 -0.1965 -0.2809
  322MOL0     C42378  11.083   3.201   5.643 -0.0971 -0.2763  0.3489
  322MOL0     C42379  10.944   3.210   5.623  0.7951  0.6019 -0.1489
  322MOL0     O42380  10.868   3.306   5.557 -0.1052 -0.7641  0.6101
  322MOL0     C42381  10.921   3.399   5.465 -0.5580 -0.2941 -0.1620
  322MOL0     C42382  11.023   3.506   5.517  0.5358  0.1232 -0.5911
  322MOL0     C42383  11.027   3.640   5.450 -0.5520  0.7037  0.0273
  322MOL0     C42384  11.078   3.636   5.303 -0.5551 -0.2264  0.0235
  322MOL0     C42385  11.041   3.753   5.212  0.1204  0.1594 -0.1761
  322MOL0     C42386  11.125   3.876   5.240  0.3856 -0.0319  0.7947
  322MOL0     C42387  11.063   3.997   5.166  0.0309  1.0844 -0.0491
  322MOL0     C42388  11.170   4.101   5.156  0.4549  0.5799 -0.1034
  322MOL0     N42389  11.112   4.239   5.137  0.0583  0.2367  0.9430
  322MOL0     C42390  11.028   4.280   5.040 -0.8363 -0.1549  0.3805
  322MOL0     C42391  11.014   4.415   5.053 -0.6342 -0.1830 -0.1656
  322MOL0     C42392  10.921   4.506   4.977 -0.1014 -0.2153 -0.4614
  322MOL0     C42393  10.768   4.470   4.975 -0.6686  0.6825 -0.0642
  322MOL0     C42394  10.735   4.471   5.125 -0.3675 -0.0687 -0.3912
  322MOL0     C42395  10.586   4.482   5.143  0.5852 -0.3009  0.9048
  322MOL0     O42396  10.551   4.614   5.087  0.4253  0.8136 -0.0883
  322MOL0     C42397  10.439   4.677   5.120 -0.3103 -0.0824 -0.2456
  322MOL0     C42398  10.418   4.785   5.044  0.8659  0.7041  0.4685
  322MOL0     C42399  10.297   4.856   5.054 -1.0177  0.1899  0.2452
  322MOL0     C42400  10.206   4.824   5.154 -0.0834  0.5488 -0.1078
  322MOL0     C42401  10.080   4.900   5.164 -0.0162 -0.0267 -0.7931
  322MOL0     O42402   9.996   4.852   5.262 -0.6630  0.9725  0.0005
  322MOL0     C42403   9.864   4.901   5.283  0.6356  0.1335  1.6171
  322MOL0     C42404   9.820   4.978   5.387 -0.0184 -0.2081  0.3067
  322MOL0     C42405   9.684   5.019   5.388  0.4609  0.3110  0.4287
  322MOL0     C42406   9.588   4.980   5.284 -0.6078 -0.3984 -0.2198
  322MOL0     O42407   9.467   5.043   5.286  0.6515  0.0795  0.1504
  322MOL0     C42408   9.384   5.001   5.396  0.2173  0.1674 -0.7935
  322MOL0     C42409   9.328   4.861   5.394  0.1491 -0.7206  0.3086
  322MOL0     C42410   9.237   4.843   5.261  0.2041 -0.3604  0.6665
  322MOL0     C42411   9.089   4.889   5.277 -0.2000 -0.0933 -0.2176
  322MOL0     C42412   8.995   4.889   5.154  0.1357  0.3806 -0.0515
  322MOL0     C42413   8.867   4.945   5.194  0.0651 -0.2969  0.1779
  322MOL0     C42414   8.739   4.913   5.112  0.3978  0.8273 -1.0213
  322MOL0     C42415   8.757   4.938   4.964  0.5054 -0.7791  0.4072
  322MOL0    Cl42416   8.604   4.913   4.880  0.0331 -0.2077  0.3210
  322MOL0     C42417   9.630   4.884   5.190  0.1111  0.0740  0.0937
  322MOL0     C42418   9.769   4.851   5.189  0.2535 -0.9606 -0.8173
  322MOL0     O42419  10.055   4.979   5.081  0.3256 -0.3605 -1.2252
  322MOL0     C42420  10.243   4.727   5.248  0.2313 -0.0904 -0.6201
  322MOL0     C42421  10.354   4.655   5.230 -0.5096  0.6433 -0.1189
  322MOL0     N42422  11.090   4.460   5.154 -0.0916 -0.3402  1.0827
  322MOL0     N42423  11.148   4.351   5.204  1.7828  0.2239  0.2503
  322MOL0     C42424  10.867   3.107   5.683 -0.0581  0.3213  0.1884
  322MOL0     C42425  10.934   2.997   5.742  0.4361 -0.6006  0.1151
  322MOL0     C42426  11.305   2.714   5.823  0.1585  0.7678 -0.0380
  322MOL0     C42427  11.426   2.656   5.773  0.9744  1.0325  0.0301
  322MOL0     C42428  11.489   2.552   5.850 -0.5058 -0.4521 -0.0832
  322MOL0     C42429  11.442   2.518   5.977 -0.1240 -0.3992  0.0714
  322MOL0     O42430  11.501   2.414   6.045 -0.6792  0.2075 -0.0587
  322MOL0     C42431  11.479   2.399   6.187  0.0027 -0.2619 -0.4616
  322MOL0     C42432  11.529   2.505   6.282 -0.6337 -0.3457  0.2860
  322MOL0     C42433  11.684   2.533   6.254 -0.1394  0.2252  0.2962
  322MOL0     C42434  11.757   2.602   6.368  0.0795  0.1785  0.4009
  322MOL0     C42435  11.745   2.750   6.354  0.2055  0.2782  0.4603
  322MOL0     C42436  11.740   2.872   6.328  0.4880  0.0607 -0.7946
  322MOL0     C42437  11.333   2.581   6.030 -1.1135 -0.5318 -0.7977
  322MOL0     C42438  11.255   2.667   5.949 -0.0780 -0.7607  0.1178
  322MOL0     H42439  11.254   3.094   5.716  0.4071 -0.2638  0.0865
  322MOL0     H42440  11.149   3.269   5.589 -0.2135  2.9781  3.8825
  322MOL0     H42441  10.843   3.457   5.416 -0.0419 -0.1421 -0.8188
  322MOL0     H42442  10.961   3.334   5.386  0.9792 -1.4099  1.4532
  322MOL0     H42443  11.126   3.469   5.507  0.6724  0.7837 -1.8280
  322MOL0     H42444  11.007   3.518   5.624 -1.3347  1.9949 -1.0339
  322MOL0     H42445  11.083   3.714   5.508 -2.6275  0.6943  2.1927
  322MOL0     H42446  10.925   3.679   5.456 -0.0143  2.3426 -0.8347
  322MOL0     H42447  11.183   3.604   5.303  0.8405  3.6738  1.2152
  322MOL0     H42448  11.024   3.552   5.260 -0.6545 -0.6479  0.9458
  322MOL0     H42449  10.935   3.762   5.238 -1.0901 -2.3068 -3.5517
  322MOL0     H42450  11.038   3.715   5.110  1.6500  1.4661 -0.7401
  322MOL0     H42451  11.228   3.862   5.207  0.5248 -3.1052  2.1743
  322MOL0     H42452  11.121   3.891   5.348 -0.2850 -0.9149  0.9044
  322MOL0     H42453  11.026   3.961   5.069 -1.0939 -0.7976  1.0362
  322MOL0     H42454  10.977   4.032   5.224  0.2083 -2.5922  2.7975
  322MOL0     H42455  11.229   4.080   5.067 -1.5499 -1.4302 -1.0571
  322MOL0     H42456  11.232   4.089   5.245 -0.7412  0.7052  0.7812
  322MOL0     H42457  10.967   4.219   4.975 -3.7247  1.4007  1.4396
  322MOL0     H42458  10.941   4.511   4.870  0.0507  1.9105 -0.3714
  322MOL0     H42459  10.931   4.610   5.008 -3.1378  0.3197 -0.9504
  322MOL0     H42460  10.753   4.371   4.931  2.1762 -2.3821  4.8637
  322MOL0     H42461  10.715   4.546   4.917  0.0869  1.1252 -0.1888
  322MOL0     H42462  10.784   4.386   5.173  0.9009  1.2671  0.7832
  322MOL0     H42463  10.762   4.568   5.170  0.6895  0.4491 -2.0537
  322MOL0     H42464  10.572   4.470   5.251 -3.7158  1.1925  0.7029
  322MOL0     H42465  10.527   4.405   5.092  4.1384 -1.3386 -2.1955
  322MOL0     H42466  10.491   4.814   4.969 -2.0314  1.0921 -2.4143
  322MOL0     H42467  10.270   4.933   4.983 -0.0334  2.3613  2.1085
  322MOL0     H42468   9.871   5.021   5.472 -1.4598 -2.1137  2.2731
  322MOL0     H42469   9.643   5.083   5.466 -1.4503  0.4837 -0.6727
  322MOL0     H42470   9.306   5.074   5.416  0.3739 -0.1047  0.9150
  322MOL0     H42471   9.442   5.013   5.488 -2.4349  0.9774  0.8622
  322MOL0     H42472   9.269   4.834   5.482  2.9252 -1.1702  2.1730
  322MOL0     H42473   9.405   4.784   5.401  1.2635  0.4452  1.4940
  322MOL0     H42474   9.237   4.737   5.236  1.3240  0.2298 -2.2317
  322MOL0     H42475   9.295   4.890   5.181  1.3745 -0.6887  1.2998
  322MOL0     H42476   9.052   4.814   5.348  1.2006 -0.2305  0.3989
  322MOL0     H42477   9.089   4.990   5.319 -3.4687 -1.0782  2.6802
  322MOL0     H42478   8.973   4.790   5.114  2.0519  1.0664 -3.1680
  322MOL0     H42479   9.041   4.946   5.073  1.6595  0.8227  1.0751
  322MOL0     H42480   8.891   5.052   5.188  2.1410 -0.4932  2.7455
  322MOL0     H42481   8.858   4.924   5.301 -0.8011  1.9203  0.6064
  322MOL0     H42482   8.732   4.806   5.133  3.6131  0.5204 -1.1105
  322MOL0     H42483   8.655   4.966   5.157  0.1018  1.8695 -2.7130
  322MOL0     H42484   8.836   4.873   4.925 -0.8266 -1.0867 -2.0013
  322MOL0     H42485   8.795   5.038   4.940 -0.8259 -0.8296 -2.2726
  322MOL0     H42486   9.559   4.859   5.113  0.9355 -0.1827 -0.5924
  322MOL0     H42487   9.804   4.785   5.110 -0.2092 -1.1580 -0.8641
  322MOL0     H42488  10.177   4.719   5.333 -0.2433  1.8772 -0.7469
  322MOL0     H42489  10.384   4.569   5.290  1.2040  1.4275  0.2063
  322MOL0     H42490  10.760   3.098   5.668  0.3195 -2.6357 -1.6631
  322MOL0     H42491  10.872   2.916   5.778  3.3488 -3.4695 -0.8564
  322MOL0     H42492  11.461   2.674   5.672  2.2305  0.9242  0.4367
  322MOL0     H42493  11.583   2.505   5.826  0.2456  1.1171 -0.3416
  322MOL0     H42494  11.524   2.304   6.218  0.7494 -0.5961 -2.3900
  322MOL0     H42495  11.370   2.395   6.191 -0.1355  1.5373 -1.2559
  322MOL0     H42496  11.465   2.593   6.271 -1.3692 -0.6805  1.6115
  322MOL0     H42497  11.516   2.474   6.386  0.9332 -0.2326  0.5346
  322MOL0     H42498  11.702   2.583   6.158  0.0653 -2.9771 -1.4604
  322MOL0     H42499  11.732   2.435   6.254  1.1552  0.7746 -2.1484
  322MOL0     H42500  11.707   2.568   6.460 -2.1806 -3.3711 -1.9026
  322MOL0     H42501  11.858   2.562   6.360  0.7502  2.2005 -4.8604
  322MOL0     H42502  11.751   2.978   6.327 -1.3069  0.3614  2.0660
  322MOL0     H42503  11.283   2.562   6.125 -1.6672  0.5902 -0.8405
  322MOL0     H42504  11.159   2.706   5.981 -0.3738  1.6961 -3.2297
  323MOL0     O42505   4.509   6.445   7.141 -0.1431 -0.1774 -0.3516
  323MOL0     C42506   4.415   6.392   7.196  0.6764  0.1361  0.5389
  323MOL0     O42507   4.424   6.271   7.264  0.3298  0.1397  0.9187
  323MOL0     C42508   4.551   6.212   7.287  0.2327 -0.5056  0.1309
  323MOL0     C42509   4.643   6.177   7.186  0.7734 -0.5090 -0.8615
  323MOL0     C42510   4.763   6.128   7.219 -0.4251 -0.3085 -0.6816
  323MOL0     C42511   4.810   6.110   7.351  0.5407 -0.4756  0.5094
  323MOL0     O42512   4.937   6.064   7.378  0.7890 -0.5830  0.3019
  323MOL0     C42513   5.041   6.113   7.295  0.1416  0.0643  0.3897
  323MOL0     C42514   5.159   6.148   7.371  0.1863  0.8257 -0.0139
  323MOL0     C42515   5.254   6.226   7.271  0.6258  0.1511 -0.9113
  323MOL0     C42516   5.311   6.154   7.145 -0.3590 -0.4572  0.1685
  323MOL0     C42517   5.438   6.074   7.177  0.2695  0.2152 -0.0036
  323MOL0     C42518   5.503   5.976   7.073  0.3503 -0.0199 -0.4330
  323MOL0     C42519   5.556   6.046   6.949  0.0883  0.5315 -0.1667
  323MOL0     C42520   5.653   5.952   6.880  0.3867 -0.3595  0.6928
  323MOL0     N42521   5.782   5.957   6.961  0.8493  0.6245  0.1479
  323MOL0     C42522   5.838   5.846   7.011 -0.2126  0.5982  0.8644
  323MOL0     C42523   5.928   5.892   7.102  0.1029 -1.0476  0.2606
  323MOL0     C42524   6.010   5.826   7.215 -0.3221 -0.3342  0.3868
  323MOL0     C42525   6.146   5.778   7.163  0.5598 -0.0128 -0.9894
  323MOL0     C42526   6.124   5.653   7.071 -0.3172 -0.1355  0.2076
  323MOL0     C42527   6.078   5.536   7.157 -0.3706 -0.2865  0.3399
  323MOL0     O42528   6.178   5.502   7.255  0.0931 -0.5415 -0.3613
  323MOL0     C42529   6.274   5.413   7.223  0.3998  0.6331 -1.4448
  323MOL0     C42530   6.359   5.381   7.330 -0.1030  0.7383  0.6535
  323MOL0     C42531   6.477   5.317   7.302  0.9039  0.7598  0.8737
  323MOL0     C42532   6.512   5.255   7.179  0.1855  0.0047 -0.9937
  323MOL0     C42533   6.632   5.178   7.156 -0.7699 -0.1607  0.0817
  323MOL0     O42534   6.676   5.117   7.268  0.1436  0.6765 -1.2397
  323MOL0     C42535   6.805   5.068   7.277  0.3965 -0.5811 -0.5867
  323MOL0     C42536   6.874   5.090   7.400  0.5290 -0.0750 -0.7230
  323MOL0     C42537   7.007   5.050   7.415  0.4082  0.3282  0.0815
  323MOL0     C42538   7.083   4.997   7.313  0.2996 -0.7549  0.3229
  323MOL0     O42539   7.216   4.974   7.341  0.1841  0.4563 -0.4294
  323MOL0     C42540   7.316   4.991   7.243 -0.0899 -0.1813  0.2773
  323MOL0     C42541   7.385   5.131   7.258  0.6278 -0.1201  0.2409
  323MOL0     C42542   7.525   5.152   7.195  0.2128 -0.4799 -0.6126
  323MOL0     C42543   7.581   5.305   7.216 -0.1318  1.3055  0.5351
  323MOL0     C42544   7.729   5.314   7.158  0.0804  0.1806  0.1140
  323MOL0     C42545   7.746   5.314   7.003  0.0950  0.1876 -0.1221
  323MOL0     C42546   7.888   5.342   6.952 -0.4404  0.2789 -1.2398
  323MOL0     C42547   7.910   5.493   6.976 -0.8091 -0.0453  0.0447
  323MOL0    Cl42548   8.082   5.531   6.932  0.1851 -0.5530 -0.2915
  323MOL0     C42549   7.010   4.969   7.194 -0.9245  0.7030 -0.8444
  323MOL0     C42550   6.878   5.001   7.176  0.5158  0.6303 -0.4663
  323MOL0     O42551   6.689   5.181   7.050 -0.0757 -0.2927  0.1234
  323MOL0     C42552   6.413   5.267   7.087 -0.3331 -1.1888  0.9107
  323MOL0     C42553   6.296   5.350   7.103  0.2936  0.0530 -0.0892
  323MOL0     N42554   5.932   6.027   7.093  0.1553 -0.4907  0.3348
  323MOL0     N42555   5.850   6.066   7.005 -0.0613 -0.1450  0.2026
  323MOL0     C42556   4.718   6.147   7.449  0.6428 -0.1452 -0.3513
  323MOL0     C42557   4.599   6.207   7.420  0.6636  0.1971  0.1854
  323MOL0     C42558   4.275   6.443   7.169 -0.1462 -0.1007 -0.2979
  323MOL0     C42559   4.258   6.581   7.147  0.0626  1.3289  0.2516
  323MOL0     C42560   4.135   6.641   7.119  0.9091 -0.3320 -0.1901
  323MOL0     C42561   4.014   6.567   7.130  1.2844  1.5881 -0.0246
  323MOL0     O42562   3.894   6.636   7.102  0.3357  0.6030 -0.7244
  323MOL0     C42563   3.776   6.559   7.058 -0.3059 -0.6230 -0.2319
  323MOL0     C42564   3.666   6.650   7.022  1.4449  1.0364  0.5413
  323MOL0     C42565   3.547   6.557   6.980 -0.2917  0.1560 -0.3037
  323MOL0     C42566   3.420   6.646   6.959 -0.0719 -0.0596 -0.5005
  323MOL0     C42567   3.300   6.558   6.960 -0.1629 -0.1929  0.0214
  323MOL0     C42568   3.210   6.476   6.968  0.0606 -0.2027 -0.5223
  323MOL0     C42569   4.035   6.432   7.167  0.3652  0.5611  0.1760
  323MOL0     C42570   4.160   6.371   7.183 -0.0557 -0.7779 -0.3916
  323MOL0     H42571   4.615   6.177   7.082 -2.3114 -0.6313 -0.1352
  323MOL0     H42572   4.828   6.103   7.136  0.0706 -2.3147  0.2319
  323MOL0     H42573   5.009   6.202   7.240  0.6622  1.6716  2.5570
  323MOL0     H42574   5.073   6.028   7.234 -0.7034 -0.3327  0.4800
  323MOL0     H42575   5.200   6.059   7.420 -0.6607  0.9790  1.0011
  323MOL0     H42576   5.135   6.216   7.454 -1.2821  2.2144 -1.4986
  323MOL0     H42577   5.341   6.261   7.328 -0.8499  1.6185  0.5766
  323MOL0     H42578   5.205   6.313   7.226  1.7828  0.8811 -0.8105
  323MOL0     H42579   5.237   6.095   7.091 -1.8755  0.6966  0.9234
  323MOL0     H42580   5.344   6.226   7.069 -2.2061 -0.5672 -0.7833
  323MOL0     H42581   5.408   6.018   7.266 -0.1774  1.1138  0.4278
  323MOL0     H42582   5.514   6.146   7.206  0.3871 -1.1963  3.6987
  323MOL0     H42583   5.426   5.908   7.036  0.2307 -0.4317  0.5553
  323MOL0     H42584   5.587   5.924   7.120 -0.0911 -1.1299 -0.8403
  323MOL0     H42585   5.472   6.060   6.881  0.8979  3.2149 -0.7048
  323MOL0     H42586   5.602   6.143   6.969  0.0654  0.8157 -1.4353
  323MOL0     H42587   5.687   5.987   6.782 -0.1427 -0.6546  0.4008
  323MOL0     H42588   5.607   5.855   6.863  1.1318 -0.2197 -3.0561
  323MOL0     H42589   5.820   5.740   6.994  0.2687  0.5353  0.7410
  323MOL0     H42590   5.943   5.755   7.264  1.5079 -1.8145  0.8355
  323MOL0     H42591   6.039   5.898   7.293 -1.5030  1.9539 -1.1574
  323MOL0     H42592   6.207   5.752   7.250 -0.5087  2.4237  0.5941
  323MOL0     H42593   6.193   5.861   7.109  1.6609 -0.0936 -0.2157
  323MOL0     H42594   6.043   5.675   7.000  0.0268  2.4273  0.5160
  323MOL0     H42595   6.218   5.623   7.026  1.1880  0.9062  2.4753
  323MOL0     H42596   6.060   5.449   7.093  0.7908 -0.0664 -0.3103
  323MOL0     H42597   5.988   5.575   7.204  0.0483  2.3959 -0.9029
  323MOL0     H42598   6.338   5.412   7.432 -1.9118 -0.8214  0.7970
  323MOL0     H42599   6.545   5.310   7.387  0.6673 -2.2408  0.9183
  323MOL0     H42600   6.825   5.151   7.476 -3.4888 -2.0105 -1.4973
  323MOL0     H42601   7.053   5.057   7.513  1.2347 -0.3428 -0.2527
  323MOL0     H42602   7.277   4.987   7.141  1.8875 -3.2929 -0.5055
  323MOL0     H42603   7.387   4.907   7.245  0.1058 -0.0137  0.3822
  323MOL0     H42604   7.393   5.154   7.364  0.9408 -0.7259  0.3553
  323MOL0     H42605   7.323   5.211   7.216  0.7329 -0.4596 -0.5843
  323MOL0     H42606   7.524   5.135   7.087  1.8871  0.2982 -0.7866
  323MOL0     H42607   7.586   5.079   7.249  1.1728  0.2289 -0.7090
  323MOL0     H42608   7.519   5.380   7.167 -2.8534 -0.6437  0.7930
  323MOL0     H42609   7.574   5.323   7.324  0.9467 -1.2689  1.1042
  323MOL0     H42610   7.792   5.233   7.197  3.3967  1.5633 -1.9542
  323MOL0     H42611   7.769   5.401   7.211  0.3109 -0.3173  0.7735
  323MOL0     H42612   7.675   5.381   6.954 -2.7001 -0.6376  2.5078
  323MOL0     H42613   7.709   5.219   6.964  3.5881 -0.7058 -1.6449
  323MOL0     H42614   7.955   5.287   7.020 -0.1782 -0.6274 -2.1956
  323MOL0     H42615   7.915   5.302   6.854  0.8883  0.6658 -1.0581
  323MOL0     H42616   7.892   5.519   7.080 -1.2120  1.9611 -0.4683
  323MOL0     H42617   7.843   5.555   6.915  0.7856  0.0775 -1.6784
  323MOL0     H42618   7.063   4.917   7.115 -0.9698 -2.7258  1.1949
  323MOL0     H42619   6.837   4.978   7.078 -1.4601 -0.9186  0.6512
  323MOL0     H42620   6.428   5.209   6.997  0.4655  1.8468 -1.0778
  323MOL0     H42621   6.235   5.366   7.015 -1.4332  1.9767  1.3464
  323MOL0     H42622   4.750   6.140   7.552  1.0700 -1.2149 -0.5344
  323MOL0     H42623   4.530   6.245   7.495 -1.2448 -1.0557 -0.8788
  323MOL0     H42624   4.334   6.658   7.139 -0.7785  2.0024 -1.8164
  323MOL0     H42625   4.127   6.748   7.104  0.5565 -0.1297  1.3030
  323MOL0     H42626   3.743   6.495   7.140  0.7935  1.0240  1.5776
  323MOL0     H42627   3.801   6.501   6.968 -0.8293  0.4516 -1.1045
  323MOL0     H42628   3.639   6.720   7.102  0.1457  1.3071 -0.0970
  323MOL0     H42629   3.689   6.714   6.937 -0.9975 -1.1874 -2.0314
  323MOL0     H42630   3.526   6.471   7.045  0.9726 -1.1842 -1.5722
  323MOL0     H42631   3.578   6.508   6.887  5.0437  0.6049  0.9043
  323MOL0     H42632   3.407   6.723   7.036 -0.1750  0.4888 -1.0633
  323MOL0     H42633   3.425   6.705   6.867  0.3900  1.3043  0.3780
  323MOL0     H42634   3.131   6.409   6.996  0.8252 -0.2298  1.8439
  323MOL0     H42635   3.945   6.373   7.182  1.2260 -0.9383 -0.4319
  323MOL0     H42636   4.163   6.272   7.228  3.4883  0.4999  2.7253
  324MOL0     O42637  10.245   0.544   5.474 -0.0668 -0.8626  0.9016
  324MOL0     C42638  10.225   0.426   5.443  0.5066 -0.4006  0.0295
  324MOL0     O42639  10.109   0.369   5.411  0.2276 -0.7059 -0.4431
  324MOL0     C42640  10.003   0.459   5.390 -0.2750 -0.0367 -0.5145
  324MOL0     C42641   9.980   0.502   5.255 -0.6012  0.0409  1.2760
  324MOL0     C42642   9.893   0.603   5.231  1.1283 -0.0010 -0.6742
  324MOL0     C42643   9.821   0.660   5.339 -0.3011 -0.8695  0.1813
  324MOL0     O42644   9.734   0.758   5.298 -0.7708  1.4167  0.9849
  324MOL0     C42645   9.689   0.852   5.394 -0.0351  0.4953 -0.1508
  324MOL0     C42646   9.631   0.970   5.325  0.1474  0.3941 -0.6881
  324MOL0     C42647   9.737   1.077   5.277  0.1651  0.8103 -0.3291
  324MOL0     C42648   9.669   1.222   5.244 -0.7245  0.4335  0.0783
  324MOL0     C42649   9.764   1.333   5.189 -0.8284 -0.0772  0.2505
  324MOL0     C42650   9.679   1.444   5.125  0.5424 -0.1270 -0.6322
  324MOL0     C42651   9.642   1.407   4.980 -0.0293 -0.4283  0.8353
  324MOL0     C42652   9.500   1.465   4.946  0.1631 -0.0746 -0.3507
  324MOL0     N42653   9.402   1.395   5.026 -0.0268  0.8501  0.4032
  324MOL0     C42654   9.385   1.258   5.011  0.6468 -0.1546  0.0691
  324MOL0     C42655   9.276   1.232   5.091 -0.7016 -0.3903  0.6670
  324MOL0     C42656   9.212   1.105   5.124 -0.2619  0.3334 -1.0099
  324MOL0     C42657   9.150   1.037   5.003  0.2175  0.3757  0.6269
  324MOL0     C42658   9.021   1.099   4.935 -0.9313 -0.4205 -0.0696
  324MOL0     C42659   8.925   0.988   4.889 -0.3147  0.2301 -0.4163
  324MOL0     O42660   8.789   1.031   4.865 -0.3351 -0.3184 -0.2157
  324MOL0     C42661   8.710   0.937   4.804 -0.0658  1.0382 -0.0322
  324MOL0     C42662   8.578   0.968   4.758  0.4756 -0.3899 -0.3940
  324MOL0     C42663   8.493   0.871   4.714 -0.6623 -0.5313 -0.5155
  324MOL0     C42664   8.541   0.741   4.687  1.2298  0.3090  0.0966
  324MOL0     C42665   8.462   0.643   4.602 -0.4024 -0.1738 -0.7237
  324MOL0     O42666   8.336   0.642   4.619 -0.7321 -0.2285  1.1478
  324MOL0     C42667   8.240   0.559   4.556 -0.0936 -1.4985  0.0550
  324MOL0     C42668   8.106   0.608   4.560 -0.5141 -0.2808 -0.6590
  324MOL0     C42669   8.006   0.524   4.504 -0.0652  1.2875 -0.6099
  324MOL0     C42670   8.030   0.408   4.424 -1.7487 -0.3805  0.5758
  324MOL0     O42671   7.922   0.343   4.374  0.5982 -0.2753 -0.4520
  324MOL0     C42672   7.949   0.228   4.297  0.6895  0.4224 -0.1381
  324MOL0     C42673   7.812   0.180   4.235  0.8711  0.1037 -0.6023
  324MOL0     C42674   7.811   0.032   4.198 -0.2427  0.1065 -0.0599
  324MOL0     C42675   7.691   0.011   4.094  0.8024 -0.3380  0.8305
  324MOL0     C42676   7.643  -0.139   4.087  0.2870  0.7009 -0.7042
  324MOL0     C42677   7.752  -0.248   4.081  0.6205  0.2102  0.2246
  324MOL0     C42678   7.670  -0.380   4.070 -0.5468 -0.0255 -0.1306
  324MOL0     C42679   7.750  -0.500   4.109  0.1884 -0.2156 -1.0370
  324MOL0    Cl42680   7.664  -0.653   4.091 -0.0595  0.0458  0.6099
  324MOL0     C42681   8.158   0.358   4.436 -1.0214  0.1764 -0.4913
  324MOL0     C42682   8.263   0.438   4.494 -0.4770  0.6107  1.1049
  324MOL0     O42683   8.529   0.570   4.537 -0.0656  0.1669  0.0096
  324MOL0     C42684   8.664   0.704   4.748  1.1673 -0.3461  0.0319
  324MOL0     C42685   8.749   0.795   4.800 -0.1538 -0.4085  0.2846
  324MOL0     N42686   9.238   1.351   5.155 -0.0975  0.0048  0.1116
  324MOL0     N42687   9.316   1.448   5.126 -0.4516  0.5677 -0.2525
  324MOL0     C42688   9.842   0.615   5.469 -0.5300  0.1247  0.6596
  324MOL0     C42689   9.935   0.518   5.502  1.2069  0.2505  1.1131
  324MOL0     C42690  10.341   0.335   5.438  0.0936 -0.4566 -0.2328
  324MOL0     C42691  10.332   0.219   5.366 -0.0374  0.0344  0.4891
  324MOL0     C42692  10.436   0.130   5.367 -0.3586  0.9055 -0.2871
  324MOL0     C42693  10.554   0.149   5.438 -0.7978 -0.0958 -0.8486
  324MOL0     O42694  10.661   0.062   5.444  0.0198  0.0456 -0.0747
  324MOL0     C42695  10.702   0.014   5.315  0.3712  0.0375 -0.2560
  324MOL0     C42696  10.771   0.121   5.229  0.8507 -0.0655 -0.0889
  324MOL0     C42697  10.771   0.083   5.079 -0.6393 -0.9283 -0.3982
  324MOL0     C42698  10.820  -0.060   5.043  0.1274  0.7492 -0.3078
  324MOL0     C42699  10.959  -0.072   5.071  0.8244 -0.9308 -0.6695
  324MOL0     C42700  11.069  -0.064   5.093 -0.3683  0.6464  0.0845
  324MOL0     C42701  10.571   0.276   5.511 -0.0778  1.0190  0.6587
  324MOL0     C42702  10.461   0.370   5.507  0.6448  0.5235  0.2398
  324MOL0     H42703  10.045   0.465   5.177  0.6196  0.5901  2.0016
  324MOL0     H42704   9.869   0.629   5.129  4.1144 -0.1505 -1.5064
  324MOL0     H42705   9.757   0.894   5.468 -2.2833  1.2412  1.5939
  324MOL0     H42706   9.610   0.810   5.457  0.6664  0.4788  0.7283
  324MOL0     H42707   9.575   1.020   5.404 -0.5129 -2.0954  0.5399
  324MOL0     H42708   9.570   0.940   5.239  1.7084 -3.7382 -0.6220
  324MOL0     H42709   9.793   1.038   5.191 -1.0453 -3.4519  0.5730
  324MOL0     H42710   9.815   1.085   5.353  1.1873 -0.6097 -1.1666
  324MOL0     H42711   9.584   1.206   5.177 -1.1775 -0.2770  0.7973
  324MOL0     H42712   9.632   1.254   5.342 -0.0962  0.4702  0.3054
  324MOL0     H42713   9.837   1.291   5.120 -2.7568 -1.2686 -1.1673
  324MOL0     H42714   9.802   1.389   5.275 -0.6504  0.2669 -0.0510
  324MOL0     H42715   9.738   1.536   5.124 -1.5867  1.3430  0.8631
  324MOL0     H42716   9.595   1.473   5.188 -1.0051 -0.8975 -2.2551
  324MOL0     H42717   9.718   1.461   4.923  1.4203 -1.2134  1.9483
  324MOL0     H42718   9.636   1.301   4.956 -1.0405 -0.0341 -0.7609
  324MOL0     H42719   9.484   1.451   4.839  1.0306  0.2177 -0.5340
  324MOL0     H42720   9.478   1.572   4.961 -3.1658 -0.7329  0.2414
  324MOL0     H42721   9.433   1.185   4.948 -1.4399 -1.1354 -0.4648
  324MOL0     H42722   9.136   1.107   5.203 -1.9289  0.3741 -2.5422
  324MOL0     H42723   9.297   1.050   5.164 -0.7784  0.4666  0.3129
  324MOL0     H42724   9.118   0.935   5.027  1.7333  0.1017  1.6441
  324MOL0     H42725   9.218   1.023   4.918 -0.8179  0.6067 -0.2652
  324MOL0     H42726   8.967   1.152   5.014 -2.2669  0.0895 -1.2815
  324MOL0     H42727   9.044   1.165   4.851  0.4394 -0.0280  0.5931
  324MOL0     H42728   8.918   0.913   4.968  3.5808 -0.7871 -0.8078
  324MOL0     H42729   8.970   0.949   4.797  1.8156  2.2970 -0.3570
  324MOL0     H42730   8.537   1.068   4.769  4.0810  1.3377 -1.1997
  324MOL0     H42731   8.395   0.899   4.678 -0.9510 -1.6697 -0.6694
  324MOL0     H42732   8.077   0.693   4.621 -4.1986 -0.2496 -2.1845
  324MOL0     H42733   7.900   0.546   4.517 -0.1206 -0.4130  2.9871
  324MOL0     H42734   7.991   0.146   4.357  3.3121  1.3030 -0.6472
  324MOL0     H42735   8.025   0.252   4.223  0.5119  2.1640  0.2039
  324MOL0     H42736   7.803   0.232   4.140  2.0890 -1.1455 -1.4503
  324MOL0     H42737   7.726   0.207   4.297 -0.6590  0.5193 -2.7788
  324MOL0     H42738   7.783  -0.022   4.289  0.5382  2.3608  1.6054
  324MOL0     H42739   7.904  -0.005   4.153 -0.0198 -1.1586  1.3754
  324MOL0     H42740   7.598   0.059   4.125  1.1455  0.3013  0.8987
  324MOL0     H42741   7.731   0.032   3.994  0.2229  0.9717  0.8609
  324MOL0     H42742   7.571  -0.149   4.005 -1.1381  0.2291  0.5689
  324MOL0     H42743   7.583  -0.155   4.177  0.5746 -1.1318 -0.7993
  324MOL0     H42744   7.814  -0.253   4.171  0.3146  3.3343  0.7197
  324MOL0     H42745   7.821  -0.226   3.999 -0.3757 -1.4827 -1.1426
  324MOL0     H42746   7.580  -0.379   4.133 -0.6146 -2.7664 -0.0894
  324MOL0     H42747   7.621  -0.390   3.972 -1.0382  1.1577 -0.0237
  324MOL0     H42748   7.780  -0.499   4.215 -0.4704 -1.1338 -0.8280
  324MOL0     H42749   7.838  -0.492   4.045 -0.1154  0.2731 -1.4063
  324MOL0     H42750   8.178   0.255   4.408 -0.5130 -1.1882  4.1918
  324MOL0     H42751   8.363   0.395   4.491 -0.4334  0.5466  2.4616
  324MOL0     H42752   8.695   0.600   4.748 -0.4182 -0.8381  0.4310
  324MOL0     H42753   8.846   0.761   4.834 -1.1098 -3.6365  0.0733
  324MOL0     H42754   9.772   0.636   5.549 -0.8051 -0.9191  0.7053
  324MOL0     H42755   9.935   0.489   5.606  0.3800  2.5313  1.7960
  324MOL0     H42756  10.242   0.194   5.311  0.9573  0.9996 -1.6975
  324MOL0     H42757  10.422   0.037   5.312 -0.5539 -0.2789  1.6576
  324MOL0     H42758  10.618  -0.030   5.261  0.3390 -2.3839  1.6225
  324MOL0     H42759  10.775  -0.065   5.331 -1.5434 -1.8332 -0.3549
  324MOL0     H42760  10.722   0.218   5.245  3.2801  0.7666  3.7054
  324MOL0     H42761  10.871   0.135   5.270  0.1517 -0.3027  1.8430
  324MOL0     H42762  10.839   0.149   5.025  0.0444  0.6775  2.2704
  324MOL0     H42763  10.669   0.089   5.039 -2.3346 -6.2492  2.1851
  324MOL0     H42764  10.752  -0.130   5.094  1.8676  1.2390  2.9638
  324MOL0     H42765  10.808  -0.073   4.935  1.1468  0.5038 -0.4012
  324MOL0     H42766  11.172  -0.064   5.125 -0.1804  2.5244 -0.4281
  324MOL0     H42767  10.654   0.290   5.580 -0.1422 -0.2523  1.0151
  324MOL0     H42768  10.464   0.465   5.558 -0.0620  0.9485 -0.5082
  325MOL0     O42769   6.964   7.215   6.003  0.2986 -0.2822 -0.4687
  325MOL0     C42770   6.985   7.303   6.088 -0.8936  0.5264  0.1810
  325MOL0     O42771   7.110   7.342   6.127 -0.2097 -0.5668 -0.1049
  325MOL0     C42772   7.222   7.268   6.094  0.0506 -0.5252 -0.3193
  325MOL0     C42773   7.234   7.129   6.071 -0.8462 -0.4403  1.0065
  325MOL0     C42774   7.367   7.074   6.033  1.5791 -0.3517 -0.6467
  325MOL0     C42775   7.473   7.163   6.029 -0.5140  0.3332  0.1660
  325MOL0     O42776   7.601   7.116   6.003 -0.5483 -0.0173 -0.3763
  325MOL0     C42777   7.641   6.993   6.075 -0.2526  0.3348 -0.0094
  325MOL0     C42778   7.790   6.980   6.071  0.2911  0.7413 -0.9696
  325MOL0     C42779   7.848   7.084   6.181 -0.3585  0.2147  0.0155
  325MOL0     C42780   7.995   7.085   6.167 -0.6670  0.5075  0.3040
  325MOL0     C42781   8.079   7.168   6.261  0.3256 -0.2871 -0.1611
  325MOL0     C42782   8.074   7.312   6.203  0.4957  0.8770 -0.1369
  325MOL0     C42783   8.166   7.409   6.275 -1.3707  0.9447  0.6642
  325MOL0     C42784   8.321   7.378   6.256 -0.6943  0.1860  0.2827
  325MOL0     N42785   8.364   7.434   6.125  0.3986 -0.0481  0.5237
  325MOL0     C42786   8.398   7.369   6.011 -0.2646 -0.1829 -0.3476
  325MOL0     C42787   8.446   7.463   5.926  1.3841 -0.3301 -0.2746
  325MOL0     C42788   8.528   7.448   5.802 -0.3131  0.0362 -0.2318
  325MOL0     C42789   8.650   7.357   5.818 -0.3820  0.6958  0.0963
  325MOL0     C42790   8.774   7.438   5.860  0.2607 -1.0086  0.0610
  325MOL0     C42791   8.900   7.367   5.849 -1.0524  0.3186 -0.2567
  325MOL0     O42792   9.008   7.448   5.899  0.2974 -0.6103  0.1419
  325MOL0     C42793   9.137   7.384   5.892  0.3549  0.3307  0.1779
  325MOL0     C42794   9.241   7.435   5.968  1.1480  0.0837  0.4659
  325MOL0     C42795   9.365   7.374   5.970  0.0714  0.2194 -0.1875
  325MOL0     C42796   9.393   7.254   5.899 -0.3537 -0.6558  0.2794
  325MOL0     C42797   9.518   7.183   5.913  0.2170  0.5201 -0.2546
  325MOL0     O42798   9.530   7.061   5.865  1.3156 -0.0456 -0.4181
  325MOL0     C42799   9.645   6.986   5.867  1.1073  0.2638  0.7519
  325MOL0     C42800   9.779   7.038   5.858  0.6396  0.3998  0.8115
  325MOL0     C42801   9.883   6.939   5.852 -0.4001 -0.3627  0.0044
  325MOL0     C42802   9.862   6.806   5.866 -0.7319  0.4441  0.5929
  325MOL0     O42803   9.975   6.733   5.895 -0.5822  0.6030  0.1006
  325MOL0     C42804   9.956   6.595   5.886 -0.2639 -0.3341  0.3664
  325MOL0     C42805  10.096   6.547   5.893 -0.5723 -0.9819  0.5173
  325MOL0     C42806  10.184   6.580   5.775  0.5979  0.6566  0.5687
  325MOL0     C42807  10.309   6.493   5.767 -0.4538 -0.2790 -0.5762
  325MOL0     C42808  10.390   6.506   5.637 -0.4424 -0.6590  0.1081
  325MOL0     C42809  10.499   6.400   5.644  0.6641 -1.1062 -0.1429
  325MOL0     C42810  10.572   6.417   5.515  0.1029 -0.3182  0.5860
  325MOL0     C42811  10.697   6.334   5.494  0.7263  0.2188 -0.6777
  325MOL0    Cl42812  10.810   6.377   5.624  0.1214  0.1311  0.1954
  325MOL0     C42813   9.732   6.760   5.872  0.8982 -0.4498 -0.4745
  325MOL0     C42814   9.626   6.847   5.856 -0.0068  0.6143 -0.3550
  325MOL0     O42815   9.606   7.248   5.959  0.0055  0.1098 -0.7123
  325MOL0     C42816   9.295   7.199   5.827  0.3502  0.4337 -0.6783
  325MOL0     C42817   9.163   7.257   5.820  0.6448 -0.8403 -0.4596
  325MOL0     N42818   8.434   7.587   5.985  0.0954  0.9355  1.0613
  325MOL0     N42819   8.382   7.571   6.105  0.4787  0.3568 -0.1570
  325MOL0     C42820   7.456   7.298   6.042  0.1528 -0.5666  0.0523
  325MOL0     C42821   7.334   7.353   6.075  0.2126 -0.2837 -0.1005
  325MOL0     C42822   6.871   7.378   6.139  1.2788 -0.4024 -0.3205
  325MOL0     C42823   6.885   7.440   6.258 -0.8490 -0.7842  0.0444
  325MOL0     C42824   6.778   7.505   6.323 -0.2384  0.1669  0.2715
  325MOL0     C42825   6.652   7.494   6.278 -0.4599  0.1481  1.8064
  325MOL0     O42826   6.558   7.579   6.330 -0.8658 -0.4392 -0.4504
  325MOL0     C42827   6.439   7.618   6.257  0.1154 -0.6728  0.3410
  325MOL0     C42828   6.398   7.760   6.294 -0.3714  0.4049  0.3442
  325MOL0     C42829   6.258   7.781   6.241 -0.0234  0.6536 -0.0874
  325MOL0     C42830   6.195   7.922   6.268  0.8281  0.2631  0.3719
  325MOL0     C42831   6.253   8.029   6.190 -0.4548 -0.0526  0.4983
  325MOL0     C42832   6.305   8.121   6.127  0.4032 -0.3696 -0.3898
  325MOL0     C42833   6.629   7.402   6.173  0.1529  0.6012  1.4782
  325MOL0     C42834   6.739   7.352   6.097  0.2740 -1.3421 -0.2205
  325MOL0     H42835   7.153   7.057   6.069 -1.4524  0.2405  0.5482
  325MOL0     H42836   7.378   6.968   6.013  2.4753 -0.3994  0.0687
  325MOL0     H42837   7.603   6.900   6.031 -1.2010  2.0305 -3.0605
  325MOL0     H42838   7.608   7.004   6.179 -1.4666 -0.4339 -0.2867
  325MOL0     H42839   7.829   6.990   5.970 -0.8789 -0.1531 -1.5279
  325MOL0     H42840   7.807   6.876   6.100 -0.8969  0.8415  0.2377
  325MOL0     H42841   7.826   7.060   6.286  2.1285 -2.0873  0.1085
  325MOL0     H42842   7.800   7.180   6.161  2.2262  1.4681 -0.5229
  325MOL0     H42843   8.032   6.984   6.184  2.3341  1.0792 -1.9260
  325MOL0     H42844   8.022   7.108   6.064  1.7048  1.5024  1.0634
  325MOL0     H42845   8.184   7.140   6.251  0.7266  1.6835 -2.2377
  325MOL0     H42846   8.047   7.150   6.364 -0.2722  0.1157 -0.2710
  325MOL0     H42847   7.968   7.335   6.219  0.3776  0.4373 -0.2541
  325MOL0     H42848   8.094   7.301   6.096  0.6001 -3.3268  0.1539
  325MOL0     H42849   8.154   7.506   6.225 -0.9024 -0.4748 -2.4321
  325MOL0     H42850   8.139   7.422   6.380  1.4850  1.1753  1.4593
  325MOL0     H42851   8.335   7.270   6.273 -0.4481  0.4812  2.1819
  325MOL0     H42852   8.384   7.429   6.329  0.0369  2.2868 -1.7182
  325MOL0     H42853   8.403   7.262   5.998 -0.7587 -0.8851  3.8067
  325MOL0     H42854   8.546   7.549   5.765 -1.1937  0.6279  0.8988
  325MOL0     H42855   8.461   7.396   5.732  0.3505  1.5046 -2.0579
  325MOL0     H42856   8.664   7.297   5.727 -1.0375  0.7647 -0.0530
  325MOL0     H42857   8.639   7.279   5.894  0.2608 -0.9594 -1.4176
  325MOL0     H42858   8.786   7.521   5.790 -0.8827 -1.1999 -0.3761
  325MOL0     H42859   8.753   7.475   5.961 -2.4893  0.6446 -1.0228
  325MOL0     H42860   8.931   7.353   5.745  0.8642  0.8091  0.1983
  325MOL0     H42861   8.902   7.273   5.905 -1.3179 -0.0686 -0.8814
  325MOL0     H42862   9.234   7.532   6.016  1.8795  1.3888 -1.9054
  325MOL0     H42863   9.442   7.423   6.028  1.8968 -2.4675 -0.1819
  325MOL0     H42864   9.804   7.143   5.849  0.3512  0.4723  0.8639
  325MOL0     H42865   9.986   6.972   5.850 -0.6034  0.2960  0.0723
  325MOL0     H42866   9.903   6.562   5.796  1.0055 -0.4134 -0.3822
  325MOL0     H42867   9.909   6.555   5.976 -2.3042 -1.4392 -1.1353
  325MOL0     H42868  10.090   6.438   5.885  0.8406 -0.9278 -2.7571
  325MOL0     H42869  10.153   6.579   5.981 -0.0245  0.1160 -0.2141
  325MOL0     H42870  10.213   6.685   5.785  1.4437  0.2923  2.5378
  325MOL0     H42871  10.132   6.565   5.680 -0.8430  0.8524  1.2936
  325MOL0     H42872  10.380   6.511   5.848  0.6964  0.0944 -1.6423
  325MOL0     H42873  10.279   6.389   5.778 -1.4500  0.0723  0.2051
  325MOL0     H42874  10.423   6.607   5.609  1.7268 -2.1081 -3.2018
  325MOL0     H42875  10.330   6.483   5.549 -0.9871 -1.9383  0.7842
  325MOL0     H42876  10.442   6.306   5.638 -1.3644 -0.2034  2.7043
  325MOL0     H42877  10.562   6.404   5.733  0.7127  1.0299 -0.2346
  325MOL0     H42878  10.502   6.400   5.432  0.1990  1.1176  0.1870
  325MOL0     H42879  10.607   6.520   5.503  2.2405 -0.7720  2.3332
  325MOL0     H42880  10.747   6.345   5.397  0.9955  0.1931 -0.5433
  325MOL0     H42881  10.670   6.228   5.498 -0.5395  0.5478  0.6618
  325MOL0     H42882   9.707   6.659   5.902  1.6707 -0.3052  0.6946
  325MOL0     H42883   9.528   6.806   5.878 -1.0046  2.1441 -1.7418
  325MOL0     H42884   9.297   7.102   5.779 -2.1832  1.8351 -3.9813
  325MOL0     H42885   9.096   7.213   5.747 -1.9659  1.1081  0.6101
  325MOL0     H42886   7.548   7.353   6.022  0.4070 -2.0497 -3.6802
  325MOL0     H42887   7.300   7.455   6.087  1.0768  0.0170 -0.1534
  325MOL0     H42888   6.983   7.460   6.300 -0.5046 -1.5308 -0.3813
  325MOL0     H42889   6.798   7.564   6.412 -1.0676 -0.0315  0.5950
  325MOL0     H42890   6.358   7.548   6.279  0.2056 -1.5385 -1.8280
  325MOL0     H42891   6.449   7.607   6.149  0.8606 -2.7529  0.5705
  325MOL0     H42892   6.390   7.762   6.403 -0.5516 -0.1056  0.3439
  325MOL0     H42893   6.461   7.837   6.248 -1.5894  1.9912  1.2116
  325MOL0     H42894   6.187   7.705   6.275 -2.0353  1.3771 -2.4153
  325MOL0     H42895   6.261   7.770   6.133 -2.4396  0.9699 -0.2582
  325MOL0     H42896   6.091   7.918   6.233  0.8530  4.6296 -0.7841
  325MOL0     H42897   6.187   7.944   6.375  0.2599  2.2731 -0.0397
  325MOL0     H42898   6.361   8.191   6.068  1.9985 -0.1383  1.3138
  325MOL0     H42899   6.527   7.385   6.140  0.7368  0.4368 -0.3487
  325MOL0     H42900   6.727   7.283   6.014  2.6241 -4.0657  1.5100
  326MOL0     O42901   1.655   9.424   0.218  0.2334 -0.4952  0.5251
  326MOL0     C42902   1.593   9.320   0.215 -0.1808 -0.0675 -1.0577
  326MOL0     O42903   1.647   9.198   0.197  0.4823 -0.5783 -0.0027
  326MOL0     C42904   1.779   9.187   0.179  0.0166  0.4558 -1.0343
  326MOL0     C42905   1.861   9.188   0.289  0.1914  0.0491  0.2883
  326MOL0     C42906   1.997   9.205   0.273 -0.0838 -0.1594 -0.5838
  326MOL0     C42907   2.048   9.218   0.143 -0.3276 -0.4745 -0.1748
  326MOL0     O42908   2.178   9.236   0.139 -0.4931  0.4318 -0.7131
  326MOL0     C42909   2.237   9.257   0.010 -0.6366 -0.1999  0.0294
  326MOL0     C42910   2.388   9.287   0.038  0.0719 -0.8995 -0.4138
  326MOL0     C42911   2.478   9.163   0.068 -0.3270  0.1097 -0.3904
  326MOL0     C42912   2.484   9.068  -0.062  0.3655  0.2943  0.0674
  326MOL0     C42913   2.601   8.973  -0.040  0.3286  0.3404 -0.5331
  326MOL0     C42914   2.635   8.882  -0.162 -0.6209 -0.2629 -0.3078
  326MOL0     C42915   2.710   8.964  -0.274 -0.0494  0.0587  0.1857
  326MOL0     C42916   2.864   8.955  -0.267  0.0553 -0.0121  0.1254
  326MOL0     N42917   2.929   8.837  -0.328  0.5732 -0.3574  0.5604
  326MOL0     C42918   2.906   8.709  -0.286  0.2352 -0.3939  0.8673
  326MOL0     C42919   2.944   8.639  -0.393 -0.0153  0.2808 -0.4664
  326MOL0     C42920   2.964   8.497  -0.406 -0.3994 -0.1952 -0.4752
  326MOL0     C42921   3.102   8.448  -0.365 -0.7037  0.4659  0.1702
  326MOL0     C42922   3.213   8.478  -0.474 -0.3864  0.4452 -0.5092
  326MOL0     C42923   3.347   8.491  -0.407 -0.0390 -0.4544  0.2635
  326MOL0     O42924   3.382   8.369  -0.336  1.0692 -0.1196 -0.4346
  326MOL0     C42925   3.507   8.371  -0.277 -1.0535 -0.4256 -0.6327
  326MOL0     C42926   3.582   8.488  -0.254 -1.1320 -0.0515  0.3655
  326MOL0     C42927   3.700   8.464  -0.179  0.1775  1.3540 -0.2662
  326MOL0     C42928   3.751   8.340  -0.151 -0.3078 -0.0002  0.0286
  326MOL0     C42929   3.881   8.321  -0.081 -0.1241 -1.0202 -0.3388
  326MOL0     O42930   3.915   8.419   0.011  0.8027 -0.8949 -0.7876
  326MOL0     C42931   4.042   8.436   0.061 -0.0634  0.4526 -0.4346
  326MOL0     C42932   4.157   8.407  -0.015  0.1359 -0.0289 -0.3773
  326MOL0     C42933   4.292   8.415   0.028 -0.4088 -0.5240 -0.7939
  326MOL0     C42934   4.308   8.451   0.161 -0.2717  0.4578 -0.7488
  326MOL0     O42935   4.425   8.455   0.242  0.0923  0.3652 -0.1966
  326MOL0     C42936   4.550   8.457   0.168 -0.5831 -0.2454 -0.2953
  326MOL0     C42937   4.654   8.481   0.280  0.5640  0.1959  0.2160
  326MOL0     C42938   4.789   8.517   0.206  0.0029 -0.2915  0.0795
  326MOL0     C42939   4.906   8.560   0.305  0.6447 -0.3139 -0.3478
  326MOL0     C42940   5.035   8.582   0.222  0.3704  1.1977 -0.4280
  326MOL0     C42941   5.146   8.638   0.306  0.4270  0.7724 -0.3147
  326MOL0     C42942   5.280   8.621   0.226 -0.9247 -0.4753  0.2081
  326MOL0     C42943   5.399   8.673   0.303  0.8366  0.1865 -0.3201
  326MOL0    Cl42944   5.412   8.608   0.471 -0.0790  0.0722  0.3334
  326MOL0     C42945   4.196   8.477   0.245  0.1688  0.6369 -0.2540
  326MOL0     C42946   4.065   8.457   0.195  0.1836 -0.0425  0.3430
  326MOL0     O42947   3.948   8.218  -0.103  0.1066  0.7153 -0.8754
  326MOL0     C42948   3.682   8.224  -0.183  0.0550  0.0968 -0.7785
  326MOL0     C42949   3.556   8.246  -0.247  0.0765 -0.3545  0.4545
  326MOL0     N42950   2.980   8.723  -0.493 -1.0393  0.8025  0.2615
  326MOL0     N42951   2.971   8.841  -0.455  0.4963 -0.2396 -0.1794
  326MOL0     C42952   1.973   9.194   0.032  0.3535  0.6380  0.1049
  326MOL0     C42953   1.833   9.193   0.043  0.4858  0.5729 -0.5094
  326MOL0     C42954   1.447   9.334   0.234 -1.0323 -0.4808 -0.5020
  326MOL0     C42955   1.391   9.454   0.183 -0.5616  0.3138 -0.1084
  326MOL0     C42956   1.251   9.469   0.177  0.4037 -0.5560  0.0156
  326MOL0     C42957   1.164   9.366   0.221 -0.1938 -0.5278  0.0653
  326MOL0     O42958   1.026   9.371   0.201 -0.4617  0.5203 -0.5917
  326MOL0     C42959   0.977   9.488   0.140  0.1239 -0.6746  0.4190
  326MOL0     C42960   0.820   9.476   0.130 -0.1162  0.2919 -0.2009
  326MOL0     C42961   0.766   9.449   0.271  0.0061  0.1147 -0.7760
  326MOL0     C42962   0.622   9.399   0.269 -0.5236  0.5319  0.4034
  326MOL0     C42963   0.530   9.472   0.175 -1.4748 -0.1417 -0.2279
  326MOL0     C42964   0.462   9.526   0.094 -0.2114 -0.0383  1.5280
  326MOL0     C42965   1.220   9.251   0.287 -0.0896 -0.4374  0.2076
  326MOL0     C42966   1.361   9.240   0.295 -0.0336  0.5680  0.1911
  326MOL0     H42967   1.807   9.186   0.383 -1.8993  1.6294 -0.7842
  326MOL0     H42968   2.065   9.191   0.356 -0.5601 -1.2582 -0.3627
  326MOL0     H42969   2.190   9.345  -0.034 -1.9508 -0.7694  0.2462
  326MOL0     H42970   2.221   9.171  -0.056 -0.3086  1.3545 -2.1974
  326MOL0     H42971   2.395   9.348   0.128 -1.4539 -3.3662  1.4926
  326MOL0     H42972   2.425   9.352  -0.042 -0.1648  0.7389  0.7653
  326MOL0     H42973   2.428   9.108   0.148 -1.9531  1.7202 -0.2357
  326MOL0     H42974   2.577   9.200   0.099 -0.8097  1.1597 -0.0564
  326MOL0     H42975   2.396   9.007  -0.081  0.6054 -0.3814  1.0537
  326MOL0     H42976   2.499   9.129  -0.151 -2.7024 -0.5250 -1.1475
  326MOL0     H42977   2.581   8.906   0.045 -0.4923 -0.1471 -1.0911
  326MOL0     H42978   2.682   9.038  -0.006 -1.3866  2.1920  0.2101
  326MOL0     H42979   2.558   8.810  -0.191 -2.2157  1.2644 -0.0162
  326MOL0     H42980   2.705   8.817  -0.109 -0.4521  0.0665 -0.1267
  326MOL0     H42981   2.690   8.923  -0.374  3.2193 -0.4896 -0.3590
  326MOL0     H42982   2.672   9.067  -0.279 -0.1840 -0.0322 -2.4020
  326MOL0     H42983   2.892   8.958  -0.162 -2.3577 -1.2643  0.8836
  326MOL0     H42984   2.903   9.031  -0.335 -0.4785 -0.2806 -0.5048
  326MOL0     H42985   2.867   8.662  -0.196 -0.8359 -2.5546 -0.6276
  326MOL0     H42986   2.940   8.464  -0.508 -3.6297  2.5938 -0.7905
  326MOL0     H42987   2.893   8.458  -0.332  0.8656 -1.0419  0.3454
  326MOL0     H42988   3.106   8.344  -0.333 -0.6836  0.4803  0.2153
  326MOL0     H42989   3.122   8.499  -0.270 -0.9652  2.7404 -0.9210
  326MOL0     H42990   3.219   8.393  -0.542  1.2170  0.2426 -0.1615
  326MOL0     H42991   3.193   8.570  -0.530  1.8891  1.8407  0.7988
  326MOL0     H42992   3.329   8.574  -0.339 -1.7483  0.4606 -1.2369
  326MOL0     H42993   3.425   8.529  -0.474  1.0359 -1.0476  1.1363
  326MOL0     H42994   3.546   8.589  -0.274 -1.5623 -0.6159 -2.0079
  326MOL0     H42995   3.765   8.544  -0.147  3.1826 -0.4737 -1.4205
  326MOL0     H42996   4.145   8.360  -0.112 -1.1808  1.2639 -0.8892
  326MOL0     H42997   4.379   8.394  -0.034 -0.4561 -0.0166 -1.0433
  326MOL0     H42998   4.551   8.539   0.096  2.1149  0.1643  0.1389
  326MOL0     H42999   4.569   8.360   0.121 -1.2354  0.6267 -2.4830
  326MOL0     H43000   4.662   8.394   0.347  0.0763  0.5956  0.8122
  326MOL0     H43001   4.632   8.569   0.341  1.3158  0.7157 -0.2632
  326MOL0     H43002   4.781   8.607   0.144  1.7180  0.9455  1.5161
  326MOL0     H43003   4.824   8.431   0.149  0.6673 -0.9003  1.3684
  326MOL0     H43004   4.864   8.657   0.333  0.5008  1.0771 -4.5348
  326MOL0     H43005   4.918   8.491   0.388  2.6188  0.8019  0.3754
  326MOL0     H43006   5.013   8.645   0.136  0.6105 -1.3734 -2.4852
  326MOL0     H43007   5.052   8.478   0.194 -2.2156  0.2360  1.1982
  326MOL0     H43008   5.148   8.578   0.397 -0.9690  1.1422 -0.0131
  326MOL0     H43009   5.129   8.741   0.337 -2.8345  0.1000  0.4612
  326MOL0     H43010   5.302   8.514   0.212  2.7289  0.0353  1.1896
  326MOL0     H43011   5.270   8.660   0.124  0.7139  0.5592  0.4145
  326MOL0     H43012   5.389   8.782   0.308  0.2344  0.0860  3.6667
  326MOL0     H43013   5.486   8.640   0.246  0.9448 -1.4072  0.6942
  326MOL0     H43014   4.221   8.504   0.347 -0.1499 -0.2167  0.0590
  326MOL0     H43015   3.980   8.460   0.261  1.0053  0.5902  1.4070
  326MOL0     H43016   3.711   8.120  -0.175  0.3779  0.2046 -0.5572
  326MOL0     H43017   3.487   8.168  -0.278 -0.9383 -0.5816  3.0419
  326MOL0     H43018   2.005   9.198  -0.071  3.3644  3.0776  0.9709
  326MOL0     H43019   1.775   9.196  -0.048  2.7724  0.7092 -2.0230
  326MOL0     H43020   1.457   9.531   0.143 -1.0108 -0.1125 -1.7083
  326MOL0     H43021   1.209   9.557   0.130  2.1138 -0.0083 -0.5785
  326MOL0     H43022   1.019   9.510   0.042 -2.4264  2.6725 -0.1126
  326MOL0     H43023   1.004   9.573   0.204 -0.8638 -0.5800  0.7397
  326MOL0     H43024   0.773   9.558   0.074  3.7449  2.6704 -0.3257
  326MOL0     H43025   0.802   9.385   0.073 -0.2021  0.1069  0.1225
  326MOL0     H43026   0.783   9.540   0.330  1.8210 -0.4471 -0.3546
  326MOL0     H43027   0.829   9.377   0.324  1.9358  3.8350  2.5738
  326MOL0     H43028   0.615   9.297   0.230  0.6872  0.8888 -0.7886
  326MOL0     H43029   0.587   9.396   0.373  0.4237 -1.1111  0.7206
  326MOL0     H43030   0.403   9.584   0.025  2.9412  0.2708 -1.1606
  326MOL0     H43031   1.147   9.178   0.321 -0.1616 -0.0871  0.8047
  326MOL0     H43032   1.404   9.155   0.346 -1.6017 -0.5643 -0.3083
  327MOL0     O43033  10.800   4.095   9.393  0.1568  0.2574  0.1457
  327MOL0     C43034  10.824   4.175   9.482  0.5588 -1.0166  0.8056
  327MOL0     O43035  10.730   4.257   9.537 -0.2413  0.7156  0.1260
  327MOL0     C43036  10.598   4.249   9.500 -0.1696  0.0898  0.7700
  327MOL0     C43037  10.523   4.151   9.560  0.2434  0.2867  0.5639
  327MOL0     C43038  10.383   4.145   9.524  0.7219  0.5926  0.2943
  327MOL0     C43039  10.329   4.212   9.412  1.1161  0.9660  0.3924
  327MOL0     O43040  10.199   4.193   9.358 -0.4631  0.5201 -0.4904
  327MOL0     C43041  10.139   4.281   9.263 -0.0105 -0.0440  0.0554
  327MOL0     C43042  10.003   4.240   9.209 -0.4793  0.6120 -1.1326
  327MOL0     C43043   9.881   4.291   9.297  0.5242 -0.0600 -0.3935
  327MOL0     C43044   9.751   4.210   9.263  1.3518  0.0089 -0.2937
  327MOL0     C43045   9.646   4.213   9.384  0.7461 -0.3876  0.0033
  327MOL0     C43046   9.564   4.340   9.393 -0.5875 -0.1240 -0.4503
  327MOL0     C43047   9.412   4.315   9.408 -0.0287 -1.1237  0.0435
  327MOL0     C43048   9.333   4.453   9.416 -0.8126  0.2733  0.0418
  327MOL0     N43049   9.204   4.414   9.365  0.6045 -0.6064  0.0162
  327MOL0     C43050   9.158   4.438   9.234 -0.6190  0.1391  0.0665
  327MOL0     C43051   9.030   4.399   9.240  0.1059  0.0978 -0.1197
  327MOL0     C43052   8.945   4.396   9.118  0.8190 -0.7330 -0.5497
  327MOL0     C43053   8.844   4.517   9.123  0.6140 -0.4286 -0.2520
  327MOL0     C43054   8.786   4.538   8.978 -0.0542 -0.3623  0.2070
  327MOL0     C43055   8.729   4.676   8.973  0.2600 -0.3875  0.5035
  327MOL0     O43056   8.686   4.709   8.838  0.4489  0.2952  0.4771
  327MOL0     C43057   8.558   4.753   8.797 -0.5322  0.0438 -0.0685
  327MOL0     C43058   8.463   4.760   8.893  0.1440  0.2501 -0.6309
  327MOL0     C43059   8.334   4.788   8.858 -0.3762 -0.4532  0.1397
  327MOL0     C43060   8.308   4.816   8.722 -0.5626  0.2839 -0.7361
  327MOL0     C43061   8.173   4.845   8.673  0.9819 -0.5806 -0.2650
  327MOL0     O43062   8.158   4.876   8.536  0.8152  0.7797 -0.1929
  327MOL0     C43063   8.034   4.888   8.492  0.9639 -0.7761  0.2008
  327MOL0     C43064   7.952   5.001   8.527 -0.1641 -0.2778  0.0984
  327MOL0     C43065   7.817   5.015   8.492  0.1800 -0.6202 -0.6392
  327MOL0     C43066   7.756   4.929   8.403 -0.3705 -0.7676 -0.4377
  327MOL0     O43067   7.618   4.939   8.393 -0.6646 -0.7496  0.2606
  327MOL0     C43068   7.550   4.829   8.322  0.1649 -0.5474  1.0556
  327MOL0     C43069   7.406   4.848   8.349 -1.0288 -0.0776 -0.2981
  327MOL0     C43070   7.333   4.732   8.292 -0.6089 -0.1672  0.3884
  327MOL0     C43071   7.188   4.772   8.261  0.2116  0.5227 -0.8749
  327MOL0     C43072   7.125   4.686   8.151  0.2734  0.1284  0.1347
  327MOL0     C43073   7.119   4.530   8.175 -1.1556 -0.6186 -0.8945
  327MOL0     C43074   7.044   4.495   8.301  0.0488 -0.9676  0.6291
  327MOL0     C43075   6.900   4.545   8.304 -0.3092  0.8090 -0.6371
  327MOL0    Cl43076   6.801   4.496   8.158 -0.1991  0.0465 -0.6996
  327MOL0     C43077   7.836   4.824   8.360  0.0991  0.8306 -0.6248
  327MOL0     C43078   7.976   4.800   8.396 -0.4853 -0.0111 -0.1972
  327MOL0     O43079   8.075   4.834   8.757  0.2874  0.2045  0.1140
  327MOL0     C43080   8.416   4.801   8.633  0.0213 -0.0523  0.5835
  327MOL0     C43081   8.538   4.772   8.665 -0.4460 -0.1069 -0.2947
  327MOL0     N43082   8.995   4.350   9.366  0.1418  0.0591  0.5271
  327MOL0     N43083   9.100   4.347   9.426 -0.3132 -0.8798  0.6758
  327MOL0     C43084  10.416   4.302   9.351  0.3664  0.4400  0.5019
  327MOL0     C43085  10.551   4.324   9.386 -0.4823  0.5404  0.4206
  327MOL0     C43086  10.966   4.162   9.533 -0.3530  0.1428 -1.0054
  327MOL0     C43087  11.051   4.054   9.498 -0.0411  0.3423  0.5409
  327MOL0     C43088  11.187   4.058   9.531  0.2918 -0.3400  1.3515
  327MOL0     C43089  11.231   4.161   9.611 -1.1479  0.1748  0.1102
  327MOL0     O43090  11.365   4.155   9.646 -0.1424  0.5414 -0.4238
  327MOL0     C43091  11.467   4.231   9.577 -0.3939  0.3921 -0.0191
  327MOL0     C43092  11.586   4.286   9.658 -0.4003  0.6801  0.1805
  327MOL0     C43093  11.662   4.175   9.732 -0.3158 -0.2887  0.0337
  327MOL0     C43094  11.816   4.217   9.765 -0.0120 -0.9039 -0.8268
  327MOL0     C43095  11.885   4.121   9.853 -0.1496 -0.0226 -0.7829
  327MOL0     C43096  11.934   4.054   9.939  0.3045 -0.3921  0.4775
  327MOL0     C43097  11.146   4.267   9.651 -0.1649  0.5860 -0.3057
  327MOL0     C43098  11.010   4.267   9.621 -0.3556  0.2251 -0.0318
  327MOL0     H43099  10.568   4.093   9.639  2.6602  0.9909 -0.2135
  327MOL0     H43100  10.314   4.080   9.577  0.9555  1.1061  1.2367
  327MOL0     H43101  10.194   4.299   9.171 -0.5212 -2.3931 -0.7662
  327MOL0     H43102  10.133   4.379   9.313  1.2039  0.8791 -1.5402
  327MOL0     H43103  10.004   4.131   9.197  2.9882 -0.0307  2.6660
  327MOL0     H43104   9.977   4.276   9.110 -0.1029  4.9361  0.1474
  327MOL0     H43105   9.861   4.395   9.270  1.2387 -0.3348 -2.1218
  327MOL0     H43106   9.902   4.276   9.403  0.7743 -1.2308 -0.5968
  327MOL0     H43107   9.706   4.256   9.175 -0.1754  0.7999  0.8554
  327MOL0     H43108   9.777   4.106   9.239  1.0852  0.6028 -3.6320
  327MOL0     H43109   9.699   4.191   9.477  2.3160 -1.3274 -1.0675
  327MOL0     H43110   9.569   4.136   9.369 -2.0119  2.2137 -0.0613
  327MOL0     H43111   9.575   4.401   9.303 -0.3677 -0.1987 -0.4755
  327MOL0     H43112   9.591   4.402   9.478 -0.9008  0.4287 -0.7518
  327MOL0     H43113   9.390   4.263   9.314 -0.1853 -0.3491 -0.3576
  327MOL0     H43114   9.399   4.250   9.496 -2.2065  0.7850  1.2451
  327MOL0     H43115   9.373   4.524   9.343 -1.6353 -0.5309 -1.2341
  327MOL0     H43116   9.323   4.505   9.511 -3.0653  0.5827 -0.3056
  327MOL0     H43117   9.202   4.483   9.146  0.5108  0.9832  1.0298
  327MOL0     H43118   8.885   4.305   9.111 -1.6227  0.7634 -0.2739
  327MOL0     H43119   8.997   4.393   9.022 -0.6864  1.5553 -1.5241
  327MOL0     H43120   8.887   4.612   9.157 -2.0575  2.0131 -3.1191
  327MOL0     H43121   8.760   4.494   9.189 -0.5969  2.0330 -0.8132
  327MOL0     H43122   8.874   4.541   8.913 -1.9553  1.1005 -2.5098
  327MOL0     H43123   8.717   4.460   8.947 -1.3981  1.5816 -2.0494
  327MOL0     H43124   8.804   4.747   9.008  2.1672 -2.9656  2.0166
  327MOL0     H43125   8.655   4.688   9.052  0.2353 -0.7322  0.5332
  327MOL0     H43126   8.481   4.736   8.998  2.5378 -0.2051 -1.0799
  327MOL0     H43127   8.253   4.801   8.929 -2.7670  0.5377 -2.5789
  327MOL0     H43128   7.991   5.076   8.595 -3.8731  0.5648  1.5640
  327MOL0     H43129   7.761   5.092   8.546  2.5628  0.9798 -0.3167
  327MOL0     H43130   7.578   4.728   8.354 -0.7018 -0.4126  2.3104
  327MOL0     H43131   7.572   4.844   8.216 -3.3336  1.7058  0.4933
  327MOL0     H43132   7.371   4.946   8.316 -4.1536 -1.1968 -0.6912
  327MOL0     H43133   7.396   4.849   8.458 -2.3091 -1.4389 -0.3593
  327MOL0     H43134   7.328   4.643   8.356  1.7240 -0.4794  0.2217
  327MOL0     H43135   7.381   4.702   8.198 -0.4565 -2.8308  1.2323
  327MOL0     H43136   7.137   4.772   8.357  2.2861  0.1475  0.2756
  327MOL0     H43137   7.184   4.875   8.223 -1.5580  0.9178  0.2533
  327MOL0     H43138   7.182   4.707   8.060  2.1962 -1.5162  0.9147
  327MOL0     H43139   7.021   4.716   8.135 -0.1255 -1.3428 -0.1843
  327MOL0     H43140   7.223   4.494   8.177 -0.9952 -0.2757  2.6468
  327MOL0     H43141   7.060   4.479   8.098 -2.6897  1.4762 -1.1759
  327MOL0     H43142   7.037   4.386   8.312  1.6728 -1.1295  0.3410
  327MOL0     H43143   7.093   4.524   8.394 -2.3345  1.3348  1.2698
  327MOL0     H43144   6.902   4.653   8.318 -1.6463  0.4809  3.4056
  327MOL0     H43145   6.848   4.497   8.388  1.8446  1.8721  1.4033
  327MOL0     H43146   7.796   4.756   8.285  1.4216  0.8312 -1.3652
  327MOL0     H43147   8.027   4.712   8.358 -0.3076 -0.3835  0.8633
  327MOL0     H43148   8.403   4.826   8.528  0.7724 -2.3356 -0.0997
  327MOL0     H43149   8.614   4.764   8.588  0.3899 -0.8036  0.5830
  327MOL0     H43150  10.388   4.372   9.273 -1.0121 -0.3132  0.2953
  327MOL0     H43151  10.621   4.378   9.323  0.4023 -2.2011 -1.1107
  327MOL0     H43152  11.008   3.975   9.437 -1.2358  1.9971 -0.8327
  327MOL0     H43153  11.267   3.993   9.497 -0.9916 -0.6943 -1.2576
  327MOL0     H43154  11.412   4.313   9.528 -2.1872 -0.0398  1.1855
  327MOL0     H43155  11.508   4.173   9.493 -0.3026  0.1372  0.2016
  327MOL0     H43156  11.655   4.340   9.593  0.6096 -1.0067 -0.2044
  327MOL0     H43157  11.549   4.355   9.734 -1.9516 -1.1458  1.1946
  327MOL0     H43158  11.680   4.087   9.669 -0.5461 -3.0282  3.5172
  327MOL0     H43159  11.618   4.166   9.832 -0.1345  1.5015  0.3169
  327MOL0     H43160  11.886   4.224   9.681  2.2725  0.9950  1.0881
  327MOL0     H43161  11.821   4.309   9.824  0.4797 -2.2455  1.3265
  327MOL0     H43162  11.972   4.000  10.023  2.3310  1.6180  0.9373
  327MOL0     H43163  11.170   4.351   9.715 -2.3739  0.3382  0.9612
  327MOL0     H43164  10.948   4.355   9.636  0.2595  0.6540  0.0295
  328MOL0     O43165   1.993   0.960   4.507 -0.0986 -0.0148  0.2164
  328MOL0     C43166   2.020   0.853   4.558  0.3534  0.3185  0.1337
  328MOL0     O43167   1.935   0.749   4.583  0.3083  0.4220  0.8867
  328MOL0     C43168   1.807   0.785   4.547  0.8616 -0.0366 -1.0857
  328MOL0     C43169   1.735   0.895   4.595 -0.3573 -0.0573 -0.1845
  328MOL0     C43170   1.612   0.935   4.552 -0.8927  0.2822 -0.5149
  328MOL0     C43171   1.546   0.857   4.457  0.1079  0.1164 -0.0359
  328MOL0     O43172   1.423   0.883   4.404  0.1522  0.0775  0.1242
  328MOL0     C43173   1.327   0.785   4.454  0.6412  0.5619 -0.1155
  328MOL0     C43174   1.237   0.745   4.336 -0.5712 -0.0889  0.0804
  328MOL0     C43175   1.083   0.749   4.359  0.0621  0.2813 -0.2693
  328MOL0     C43176   1.011   0.704   4.233  0.5859  0.0259  1.1954
  328MOL0     C43177   0.862   0.679   4.266 -0.1663 -0.5421 -0.7125
  328MOL0     C43178   0.787   0.638   4.138 -0.4159  0.5499 -0.2333
  328MOL0     C43179   0.633   0.627   4.175 -0.5317 -0.4702  0.2210
  328MOL0     C43180   0.556   0.611   4.040 -0.5293 -0.1519 -0.3169
  328MOL0     N43181   0.416   0.617   4.062  0.0394 -0.2227  0.0646
  328MOL0     C43182   0.338   0.716   4.015 -0.9830 -0.3763  0.4164
  328MOL0     C43183   0.223   0.714   4.086 -0.0214 -0.5846  0.0671
  328MOL0     C43184   0.092   0.793   4.066  0.1707  1.1277 -0.7394
  328MOL0     C43185   0.063   0.799   3.919 -0.9970 -0.0569 -0.1903
  328MOL0     C43186  -0.006   0.670   3.876 -0.0778 -0.1021  0.5010
  328MOL0     C43187  -0.063   0.671   3.736 -0.2066  0.0176  0.6021
  328MOL0     O43188  -0.194   0.730   3.729  0.5080  0.5499 -0.4903
  328MOL0     C43189  -0.302   0.681   3.656  0.2123 -0.5878 -0.1098
  328MOL0     C43190  -0.430   0.720   3.701 -0.4962 -0.8893  0.4817
  328MOL0     C43191  -0.550   0.659   3.661 -0.7446  0.6555  0.1717
  328MOL0     C43192  -0.532   0.570   3.548 -0.8114  0.2654  0.0961
  328MOL0     C43193  -0.637   0.507   3.468 -0.6669  0.2546 -0.5811
  328MOL0     O43194  -0.764   0.538   3.506  0.4993 -0.0514  0.1496
  328MOL0     C43195  -0.876   0.483   3.456 -0.6661 -0.1618 -0.0515
  328MOL0     C43196  -0.910   0.486   3.316  0.0192 -0.1454 -0.2800
  328MOL0     C43197  -1.036   0.434   3.280 -0.7289  0.4645 -0.0295
  328MOL0     C43198  -1.123   0.361   3.371  0.1571  0.1330 -0.1160
  328MOL0     O43199  -1.235   0.309   3.308 -0.0547  0.3239 -0.1201
  328MOL0     C43200  -1.335   0.231   3.383 -0.0568 -0.2993 -0.4319
  328MOL0     C43201  -1.431   0.327   3.458 -0.3490  0.1763  0.6423
  328MOL0     C43202  -1.553   0.248   3.503 -0.4524 -0.0734 -0.1662
  328MOL0     C43203  -1.648   0.345   3.575  0.0969  0.1870 -0.9366
  328MOL0     C43204  -1.771   0.269   3.637 -0.5097  0.0879  0.0146
  328MOL0     C43205  -1.881   0.247   3.534  0.5627  0.6291  0.3690
  328MOL0     C43206  -2.011   0.186   3.590 -0.3355 -0.3885  0.3834
  328MOL0     C43207  -2.110   0.163   3.482  1.1052  0.2508 -0.1358
  328MOL0    Cl43208  -2.133   0.296   3.365 -0.2261 -0.3187 -0.3449
  328MOL0     C43209  -1.091   0.364   3.513  0.8531 -0.0003 -0.0128
  328MOL0     C43210  -0.972   0.433   3.555  0.4872  0.7783  0.0857
  328MOL0     O43211  -0.605   0.453   3.360  0.3334 -0.1997  0.4498
  328MOL0     C43212  -0.401   0.534   3.504  0.3190 -1.1125  0.0468
  328MOL0     C43213  -0.289   0.587   3.556 -0.0718  0.3944  0.0561
  328MOL0     N43214   0.229   0.615   4.178 -0.8647  0.0858  1.3418
  328MOL0     N43215   0.350   0.568   4.167 -0.0633 -0.5493 -0.7455
  328MOL0     C43216   1.612   0.747   4.404 -0.1793 -0.1619  0.7985
  328MOL0     C43217   1.737   0.703   4.447  0.4754 -0.0862 -0.3213
  328MOL0     C43218   2.163   0.827   4.587  0.4421  0.9809  0.1668
  328MOL0     C43219   2.211   0.696   4.607 -0.5898  0.4479 -1.0910
  328MOL0     C43220   2.349   0.678   4.640 -0.1181  0.0032  0.5698
  328MOL0     C43221   2.434   0.795   4.647 -0.3471  0.2283 -0.1003
  328MOL0     O43222   2.564   0.764   4.688  0.0207 -0.3163 -0.0376
  328MOL0     C43223   2.655   0.870   4.709  0.3985  0.4632 -0.3677
  328MOL0     C43224   2.801   0.805   4.717  0.6425 -0.5976  0.6502
  328MOL0     C43225   2.875   0.802   4.582  1.2085 -0.4431 -0.8305
  328MOL0     C43226   2.922   0.940   4.534  0.0961  0.4121 -0.7724
  328MOL0     C43227   3.033   0.981   4.626 -0.3942  0.3169 -0.1545
  328MOL0     C43228   3.141   0.983   4.680 -0.2039 -1.1038 -0.5042
  328MOL0     C43229   2.382   0.926   4.621 -0.1650  0.3579 -0.7856
  328MOL0     C43230   2.250   0.940   4.589  0.1120  0.7204  0.0542
  328MOL0     H43231   1.787   0.957   4.667  1.5463  0.3198 -1.8228
  328MOL0     H43232   1.575   1.031   4.586 -1.4401  0.6598 -2.1112
  328MOL0     H43233   1.285   0.841   4.537  1.9487  0.6661  0.4984
  328MOL0     H43234   1.380   0.698   4.493 -0.9643 -0.4152 -0.0252
  328MOL0     H43235   1.275   0.650   4.299  1.1660  0.9907 -1.0425
  328MOL0     H43236   1.256   0.822   4.261  2.2141  0.7790  1.5394
  328MOL0     H43237   1.045   0.848   4.386 -0.7431  0.0603 -0.5925
  328MOL0     H43238   1.051   0.684   4.441  0.4295  2.0255  1.3497
  328MOL0     H43239   1.009   0.779   4.153 -3.4821  1.4260  2.3561
  328MOL0     H43240   1.059   0.616   4.190 -0.0899  0.7444 -1.2186
  328MOL0     H43241   0.815   0.775   4.287 -2.0426 -1.0105 -2.4031
  328MOL0     H43242   0.855   0.603   4.345 -4.4177 -3.9434 -3.8697
  328MOL0     H43243   0.816   0.538   4.103  1.1372  0.9283 -0.1089
  328MOL0     H43244   0.801   0.706   4.053 -2.1971 -0.7682 -1.6409
  328MOL0     H43245   0.608   0.547   4.246 -1.2289 -0.0223  0.4987
  328MOL0     H43246   0.601   0.720   4.224  2.8853  1.7708 -1.4915
  328MOL0     H43247   0.569   0.507   4.008 -1.1517 -0.5991  0.8243
  328MOL0     H43248   0.593   0.675   3.959 -4.1910 -1.2516 -3.0884
  328MOL0     H43249   0.353   0.791   3.939 -2.4895 -0.2260  0.2339
  328MOL0     H43250   0.105   0.893   4.110  1.6486  0.6977 -0.1254
  328MOL0     H43251   0.014   0.739   4.120 -1.2046  1.9614 -1.8279
  328MOL0     H43252   0.157   0.817   3.866 -1.0709  1.4646  0.1586
  328MOL0     H43253   0.001   0.883   3.887 -1.6616 -1.5775 -3.2654
  328MOL0     H43254   0.065   0.587   3.887 -1.2410 -0.9022  2.6948
  328MOL0     H43255  -0.091   0.645   3.941  1.3342  0.6021  2.7227
  328MOL0     H43256  -0.045   0.573   3.691  1.8982 -0.5608  2.5398
  328MOL0     H43257  -0.009   0.752   3.685 -3.8265  3.4005  1.5848
  328MOL0     H43258  -0.429   0.782   3.790  2.6570 -1.4371  0.9393
  328MOL0     H43259  -0.649   0.693   3.690 -0.9367  0.4683 -0.2501
  328MOL0     H43260  -0.844   0.518   3.237 -0.5092 -0.2112 -0.7569
  328MOL0     H43261  -1.057   0.458   3.176 -0.7334 -2.0294 -0.6681
  328MOL0     H43262  -1.289   0.163   3.456  0.6001 -1.9383 -2.2841
  328MOL0     H43263  -1.393   0.168   3.314 -0.5892  0.9178 -1.1182
  328MOL0     H43264  -1.448   0.411   3.391 -1.4212 -0.8551 -0.4234
  328MOL0     H43265  -1.381   0.366   3.547 -0.7802  0.7756  0.6291
  328MOL0     H43266  -1.526   0.164   3.568 -1.4358 -0.5149 -0.3106
  328MOL0     H43267  -1.595   0.196   3.416 -0.3481 -0.6214  0.1050
  328MOL0     H43268  -1.602   0.394   3.661  1.3732  0.2979 -1.6694
  328MOL0     H43269  -1.680   0.419   3.501  0.4145  0.2258 -1.0367
  328MOL0     H43270  -1.824   0.340   3.701  0.0361  2.4006 -1.9161
  328MOL0     H43271  -1.730   0.179   3.684  0.0337  0.8397  1.0157
  328MOL0     H43272  -1.833   0.180   3.461  0.2830 -1.0989  1.6950
  328MOL0     H43273  -1.902   0.336   3.475 -0.5737 -0.5796 -1.1608
  328MOL0     H43274  -1.993   0.090   3.639  0.0772 -0.9223 -0.7717
  328MOL0     H43275  -2.053   0.248   3.670 -0.7719  1.0485 -0.9038
  328MOL0     H43276  -2.205   0.131   3.527  1.2952  0.1151  0.1732
  328MOL0     H43277  -2.069   0.084   3.419  0.9474 -0.3174  0.4640
  328MOL0     H43278  -1.158   0.312   3.581  0.9590 -1.8762 -1.2570
  328MOL0     H43279  -0.949   0.441   3.660  1.9705  2.0396 -0.2939
  328MOL0     H43280  -0.383   0.469   3.419  0.1002  0.3574 -1.1614
  328MOL0     H43281  -0.203   0.529   3.523 -1.2771 -2.5895  1.7148
  328MOL0     H43282   1.577   0.695   4.315 -2.3906  0.5104  1.2116
  328MOL0     H43283   1.781   0.609   4.418  1.9122  0.3781  0.2650
  328MOL0     H43284   2.141   0.614   4.607 -1.8698  1.4238  1.5020
  328MOL0     H43285   2.392   0.583   4.670 -1.3121 -1.5166 -2.1856
  328MOL0     H43286   2.625   0.921   4.800  0.8036 -1.0634  0.6636
  328MOL0     H43287   2.664   0.942   4.627  1.7433  0.1366 -0.5488
  328MOL0     H43288   2.863   0.863   4.786  2.2374 -0.9527 -0.4388
  328MOL0     H43289   2.797   0.698   4.740 -0.0535 -1.7407 -3.9093
  328MOL0     H43290   2.802   0.765   4.509 -2.0545  2.9283  0.3790
  328MOL0     H43291   2.958   0.731   4.589  1.4531 -0.1541 -0.7623
  328MOL0     H43292   2.967   0.945   4.434 -0.4703  3.2654 -0.9768
  328MOL0     H43293   2.838   1.011   4.527 -0.2442  0.1443  0.3830
  328MOL0     H43294   3.245   0.962   4.695 -0.3406 -2.1709 -0.9882
  328MOL0     H43295   2.451   1.008   4.638 -0.5318  0.2180  1.7197
  328MOL0     H43296   2.203   1.037   4.583 -2.9249 -0.6895 -1.5230
  329MOL0     O43297  10.706   7.777   2.270  0.2460 -0.5254 -0.3928
  329MOL0     C43298  10.691   7.793   2.388 -0.1490  1.0199  0.8818
  329MOL0     O43299  10.791   7.830   2.475 -0.0887  0.0025  0.0023
  329MOL0     C43300  10.899   7.893   2.414 -0.0733 -0.1939 -0.4236
  329MOL0     C43301  10.996   7.828   2.333  0.7227 -0.1509  0.7224
  329MOL0     C43302  11.108   7.904   2.286  0.6511 -0.2880 -0.3548
  329MOL0     C43303  11.133   8.035   2.322  0.1862  0.0954  0.0204
  329MOL0     O43304  11.245   8.100   2.283 -0.1234 -0.8485  0.1753
  329MOL0     C43305  11.275   8.155   2.154 -0.1547  0.6807 -0.5818
  329MOL0     C43306  11.415   8.223   2.155  1.1287 -0.3108 -0.3310
  329MOL0     C43307  11.456   8.278   2.021 -0.8721  0.4916 -0.5786
  329MOL0     C43308  11.352   8.362   1.944 -1.0908 -0.2580  0.1734
  329MOL0     C43309  11.415   8.414   1.803 -0.0135  0.0261  0.3134
  329MOL0     C43310  11.410   8.300   1.703 -0.4537 -0.5107 -0.6969
  329MOL0     C43311  11.276   8.259   1.643  0.1528 -0.2374 -0.4142
  329MOL0     C43312  11.306   8.166   1.523 -0.3965 -0.0782  0.4759
  329MOL0     N43313  11.188   8.115   1.456  0.2484  0.7526 -0.1533
  329MOL0     C43314  11.090   8.018   1.494 -0.0268 -0.7540  0.1082
  329MOL0     C43315  10.989   8.035   1.405  0.3342 -0.1830 -0.5420
  329MOL0     C43316  10.851   7.964   1.414  0.4859 -0.3382  0.6986
  329MOL0     C43317  10.764   7.996   1.530 -0.0237  0.4234  0.5927
  329MOL0     C43318  10.617   7.959   1.520 -0.1496 -0.3279  0.2690
  329MOL0     C43319  10.533   8.053   1.440 -0.4069  0.3873  0.5917
  329MOL0     O43320  10.395   8.043   1.482 -0.2200  0.2185 -0.0265
  329MOL0     C43321  10.288   8.066   1.397  0.0094 -0.0940  0.0407
  329MOL0     C43322  10.164   8.018   1.449 -0.2663  0.0798  0.5641
  329MOL0     C43323  10.041   8.028   1.384 -0.0968 -0.5604  0.2678
  329MOL0     C43324  10.051   8.069   1.254  0.8953 -0.6293  0.4480
  329MOL0     C43325   9.925   8.073   1.171 -1.3504  0.1032 -0.0861
  329MOL0     O43326   9.803   8.045   1.227 -0.5953  0.3893 -0.1025
  329MOL0     C43327   9.692   8.072   1.157  0.5319  1.0057 -0.2915
  329MOL0     C43328   9.661   8.199   1.108  0.5255  0.3589 -0.8467
  329MOL0     C43329   9.541   8.224   1.034  1.0523  0.4551 -0.5678
  329MOL0     C43330   9.451   8.114   0.997  0.3157  0.2407 -0.3103
  329MOL0     O43331   9.326   8.118   0.925 -0.8134  0.1289 -0.0427
  329MOL0     C43332   9.257   8.249   0.910  0.2040  0.8761  0.4041
  329MOL0     C43333   9.207   8.309   1.042  0.4283  1.5665  0.1775
  329MOL0     C43334   9.109   8.422   1.027  0.6470  0.3263  0.6528
  329MOL0     C43335   8.966   8.386   0.995  0.4600 -0.9375 -0.2334
  329MOL0     C43336   8.876   8.507   0.968 -0.3304  0.4394  0.5819
  329MOL0     C43337   8.861   8.606   1.094 -0.3260 -0.0483  0.4274
  329MOL0     C43338   8.773   8.539   1.194  0.2883  1.0860 -1.0841
  329MOL0     C43339   8.746   8.629   1.312  0.5926 -0.1182 -0.1044
  329MOL0    Cl43340   8.891   8.672   1.406 -0.1884  0.2883  0.2799
  329MOL0     C43341   9.485   7.986   1.058 -0.2018 -0.6476  0.2943
  329MOL0     C43342   9.604   7.967   1.139 -0.2677  0.7154 -0.5516
  329MOL0     O43343   9.945   8.118   1.060 -0.1661 -0.2765 -0.2208
  329MOL0     C43344  10.168   8.116   1.192 -0.2405 -0.5991 -0.2826
  329MOL0     C43345  10.290   8.118   1.274  0.5072  0.5108  0.7263
  329MOL0     N43346  11.022   8.135   1.313  0.7856  0.4862 -0.2116
  329MOL0     N43347  11.141   8.170   1.345  0.5495 -0.5954  0.3533
  329MOL0     C43348  11.029   8.101   2.386  0.2586 -0.5059 -0.3552
  329MOL0     C43349  10.922   8.032   2.442  0.7154 -0.1778 -0.7317
  329MOL0     C43350  10.555   7.763   2.432 -0.4652 -0.5482 -0.2196
  329MOL0     C43351  10.454   7.720   2.352 -0.0883  0.2985  0.5069
  329MOL0     C43352  10.333   7.687   2.399 -0.8373  0.3831  0.3714
  329MOL0     C43353  10.305   7.680   2.533  0.4613  0.6045  0.6142
  329MOL0     O43354  10.176   7.643   2.566 -0.1000  0.0894  0.1804
  329MOL0     C43355  10.173   7.518   2.650 -0.0337  0.4298  0.5998
  329MOL0     C43356  10.030   7.461   2.655 -0.2053 -0.3822 -0.1381
  329MOL0     C43357   9.946   7.467   2.528  0.6513 -0.5252 -0.9116
  329MOL0     C43358   9.828   7.371   2.535  0.1000  0.2221 -0.2074
  329MOL0     C43359   9.766   7.383   2.670  0.2838 -0.1467 -0.0421
  329MOL0     C43360   9.707   7.414   2.771  0.8607  0.2483 -0.9179
  329MOL0     C43361  10.399   7.734   2.623 -0.0913  0.0552  0.3306
  329MOL0     C43362  10.520   7.779   2.567  0.1605 -0.4376 -0.3960
  329MOL0     H43363  10.995   7.722   2.308 -0.8947  0.4814 -2.3797
  329MOL0     H43364  11.178   7.848   2.224 -1.5115 -2.6969 -0.7761
  329MOL0     H43365  11.199   8.232   2.137  0.9362  2.2779  1.3260
  329MOL0     H43366  11.273   8.069   2.086 -0.7561 -0.8648  1.3177
  329MOL0     H43367  11.497   8.153   2.175  1.2265  0.0253  0.4903
  329MOL0     H43368  11.411   8.310   2.220 -0.4828  0.8689 -1.9162
  329MOL0     H43369  11.480   8.195   1.953 -0.2545 -0.7255  1.0337
  329MOL0     H43370  11.546   8.339   2.029 -1.7462  2.0606 -2.0568
  329MOL0     H43371  11.257   8.314   1.918 -1.2965 -0.6707  1.5896
  329MOL0     H43372  11.313   8.442   2.008 -1.5783 -0.0733 -0.3451
  329MOL0     H43373  11.517   8.441   1.833  0.2689 -1.6300  0.9735
  329MOL0     H43374  11.366   8.505   1.768  0.7939  0.3037 -0.1349
  329MOL0     H43375  11.463   8.213   1.744 -0.8100 -0.9958 -1.2578
  329MOL0     H43376  11.473   8.331   1.619 -0.6106  0.0385 -0.6140
  329MOL0     H43377  11.210   8.201   1.708  0.2111 -0.8154 -0.8653
  329MOL0     H43378  11.220   8.352   1.631 -0.4311  0.4510  5.1503
  329MOL0     H43379  11.362   8.076   1.550 -1.7036 -0.9461  0.3765
  329MOL0     H43380  11.356   8.224   1.445 -1.1600  0.2016  0.1846
  329MOL0     H43381  11.087   7.947   1.577 -0.4898 -0.9628 -0.0812
  329MOL0     H43382  10.873   7.857   1.411  1.8201 -0.0412 -1.1054
  329MOL0     H43383  10.804   7.977   1.316 -0.0603 -0.1834  0.9751
  329MOL0     H43384  10.774   8.104   1.537 -0.1002  0.3807  1.4730
  329MOL0     H43385  10.805   7.946   1.619  1.3422  0.4497 -0.0000
  329MOL0     H43386  10.615   7.864   1.466  0.0153 -0.8180  1.1055
  329MOL0     H43387  10.584   7.945   1.623  0.4689 -0.8237  0.4020
  329MOL0     H43388  10.553   8.037   1.334 -1.5533  3.0816 -0.1222
  329MOL0     H43389  10.570   8.153   1.465  2.2778 -0.3463 -0.0187
  329MOL0     H43390  10.162   7.965   1.544 -1.1453  1.0955  1.1399
  329MOL0     H43391   9.949   7.989   1.427  1.8091 -4.6273  1.1776
  329MOL0     H43392   9.729   8.282   1.123  3.3288 -1.8802 -0.2519
  329MOL0     H43393   9.527   8.325   0.997 -3.6379 -0.0943 -0.8299
  329MOL0     H43394   9.169   8.226   0.849  0.7233 -0.2261  0.0414
  329MOL0     H43395   9.312   8.323   0.852 -0.0339  0.6053 -0.1720
  329MOL0     H43396   9.297   8.345   1.092  1.3191 -1.2302  0.7872
  329MOL0     H43397   9.158   8.229   1.099  1.9393  0.5026  0.0481
  329MOL0     H43398   9.149   8.483   0.945  2.3858 -3.0899 -1.2966
  329MOL0     H43399   9.103   8.473   1.124  1.0948 -0.3169  1.0246
  329MOL0     H43400   8.965   8.314   0.912  0.6523 -1.8478  0.5351
  329MOL0     H43401   8.928   8.320   1.073  2.4060 -1.6541  0.1692
  329MOL0     H43402   8.776   8.479   0.934  0.8261  1.1608 -3.9444
  329MOL0     H43403   8.915   8.566   0.885 -1.2340  0.3174  0.0528
  329MOL0     H43404   8.822   8.704   1.068 -0.3015  0.3569  1.8191
  329MOL0     H43405   8.955   8.628   1.145 -0.0291  0.6945 -0.4175
  329MOL0     H43406   8.678   8.508   1.148  0.1835 -3.0145  1.3701
  329MOL0     H43407   8.819   8.446   1.229 -0.4454 -0.4594 -3.8914
  329MOL0     H43408   8.673   8.577   1.375 -0.9756  0.8542 -1.0683
  329MOL0     H43409   8.685   8.713   1.279 -0.5136 -1.5339 -1.7986
  329MOL0     H43410   9.440   7.891   1.035  0.4296 -0.2795 -2.8061
  329MOL0     H43411   9.629   7.867   1.174 -1.0982  0.4298 -0.7477
  329MOL0     H43412  10.170   8.142   1.087  0.3832  0.5824  0.0093
  329MOL0     H43413  10.383   8.158   1.235 -0.5028 -0.7087 -3.4405
  329MOL0     H43414  11.044   8.206   2.411 -0.7360 -0.4693  0.1241
  329MOL0     H43415  10.850   8.070   2.513  0.1545  1.2709 -2.0076
  329MOL0     H43416  10.468   7.703   2.246  0.2118  0.3392  0.5383
  329MOL0     H43417  10.257   7.649   2.331 -1.2959  0.1531  1.0023
  329MOL0     H43418  10.207   7.531   2.753 -1.8459 -0.1576  1.3159
  329MOL0     H43419  10.247   7.444   2.617 -1.1877  0.3007 -1.9539
  329MOL0     H43420  10.035   7.355   2.681  3.3640  0.2479  2.6680
  329MOL0     H43421   9.984   7.515   2.739  1.6305  0.5446  0.3503
  329MOL0     H43422  10.010   7.438   2.444  0.0400 -2.6364 -0.7000
  329MOL0     H43423   9.914   7.571   2.522 -0.0894 -0.7459 -0.8198
  329MOL0     H43424   9.751   7.373   2.458 -3.1897 -0.8934  2.7889
  329MOL0     H43425   9.874   7.275   2.510 -1.8591 -0.2195 -2.4376
  329MOL0     H43426   9.660   7.449   2.860 -0.0614  1.8139 -1.9687
  329MOL0     H43427  10.361   7.751   2.723 -1.9039 -2.2690  0.1194
  329MOL0     H43428  10.575   7.843   2.636  0.2690 -0.8155 -0.1242
  330MOL0     O43429   2.257   1.472  11.023 -0.2905 -0.0525  0.0412
  330MOL0     C43430   2.260   1.369  10.956  0.7574  0.4022 -0.1139
  330MOL0     O43431   2.166   1.335  10.867  0.1821  0.0541 -0.4347
  330MOL0     C43432   2.034   1.379  10.878  0.3716 -0.7994  0.6575
  330MOL0     C43433   1.957   1.356  10.763 -0.1933  0.1477 -0.0621
  330MOL0     C43434   1.818   1.379  10.764 -0.4838  1.1090  0.5568
  330MOL0     C43435   1.750   1.420  10.881 -1.5442  0.0002  0.2183
  330MOL0     O43436   1.615   1.426  10.877  0.2848 -0.2126 -0.3191
  330MOL0     C43437   1.535   1.489  10.975  1.1286 -0.8949  0.0014
  330MOL0     C43438   1.387   1.504  10.943 -0.3992 -1.4099  0.3577
  330MOL0     C43439   1.358   1.614  10.830  0.5446  1.0040 -0.7294
  330MOL0     C43440   1.209   1.598  10.791 -0.5480 -0.3494 -0.0877
  330MOL0     C43441   1.175   1.705  10.690  0.2057 -0.0052  0.3625
  330MOL0     C43442   1.044   1.671  10.634  0.1302  0.3968 -0.4490
  330MOL0     C43443   0.996   1.770  10.522 -0.0944 -0.6082 -0.2713
  330MOL0     C43444   0.854   1.774  10.494 -0.3697  0.6049 -0.5395
  330MOL0     N43445   0.816   1.650  10.430  0.1630  0.4049  0.4694
  330MOL0     C43446   0.875   1.606  10.313 -0.8918 -0.7737  0.5932
  330MOL0     C43447   0.843   1.476  10.299 -0.8862  0.5353 -0.3499
  330MOL0     C43448   0.901   1.392  10.187 -0.2630 -0.1923 -0.0029
  330MOL0     C43449   0.966   1.264  10.251 -0.7718  0.3847 -0.3298
  330MOL0     C43450   1.074   1.286  10.354 -1.5933 -0.4838  0.9243
  330MOL0     C43451   1.165   1.410  10.343 -0.0357 -0.6153 -0.3769
  330MOL0     O43452   1.269   1.397  10.430 -0.4728  0.5066 -0.1297
  330MOL0     C43453   1.383   1.454  10.387  0.5041 -0.6487 -0.5505
  330MOL0     C43454   1.503   1.397  10.411 -0.4692 -0.0358 -0.6323
  330MOL0     C43455   1.629   1.458  10.403 -0.0544  0.9542 -0.1010
  330MOL0     C43456   1.643   1.592  10.360  0.5414 -0.2572 -0.0167
  330MOL0     C43457   1.770   1.662  10.332 -0.5713  1.1262  0.4768
  330MOL0     O43458   1.766   1.795  10.302  0.2997  0.0536 -0.5493
  330MOL0     C43459   1.880   1.868  10.271 -0.3005  1.0338  0.6193
  330MOL0     C43460   1.980   1.882  10.367 -0.4326 -0.7009 -0.1939
  330MOL0     C43461   2.104   1.935  10.329  0.1943 -0.0895 -0.7134
  330MOL0     C43462   2.126   1.980  10.193  0.1678 -1.5136 -0.3331
  330MOL0     O43463   2.247   2.027  10.167  0.2283  0.2864  1.0822
  330MOL0     C43464   2.289   2.092  10.045 -0.2636  0.6348 -0.6315
  330MOL0     C43465   2.438   2.066  10.033  0.8237 -0.8269  0.8571
  330MOL0     C43466   2.486   2.129   9.903  0.3276 -0.3350  0.9562
  330MOL0     C43467   2.414   2.083   9.775 -0.4315  0.5381 -0.0869
  330MOL0     C43468   2.513   2.058   9.665  0.6155 -0.2776  0.6838
  330MOL0     C43469   2.422   2.000   9.546 -1.4065  0.1201  0.0865
  330MOL0     C43470   2.513   1.973   9.423  0.3703  0.7957  0.6025
  330MOL0     C43471   2.445   1.899   9.308  0.7044 -0.1801  0.6980
  330MOL0    Cl43472   2.394   1.734   9.375  0.3854  0.6330  0.1581
  330MOL0     C43473   2.023   1.967  10.100 -0.2857 -0.3289  1.3636
  330MOL0     C43474   1.909   1.901  10.141  0.9228 -0.6501  0.0158
  330MOL0     O43475   1.872   1.597  10.340 -0.7410 -0.1818  0.0315
  330MOL0     C43476   1.524   1.654  10.323  0.5180 -0.1134  0.7518
  330MOL0     C43477   1.395   1.586  10.345  0.1759  0.7325 -0.7079
  330MOL0     N43478   0.753   1.432  10.400 -0.2082  0.1244 -0.2956
  330MOL0     N43479   0.741   1.537  10.471 -0.5774  0.2485  0.4135
  330MOL0     C43480   1.827   1.466  10.990  0.8369  0.3915  0.0675
  330MOL0     C43481   1.968   1.438  10.994 -0.1631  0.0098 -0.2026
  330MOL0     C43482   2.367   1.274  10.983  0.2822 -0.3020  0.0340
  330MOL0     C43483   2.436   1.285  11.104  0.1991  0.4793  0.1055
  330MOL0     C43484   2.532   1.188  11.141  0.1539 -0.9531  0.1112
  330MOL0     C43485   2.566   1.085  11.058 -0.0102  0.0669 -0.6344
  330MOL0     O43486   2.667   1.006  11.101  0.8538 -0.1982  0.2977
  330MOL0     C43487   2.742   0.918  11.010  0.4437 -0.2882  0.7530
  330MOL0     C43488   2.880   0.907  11.078  0.6267  1.0731 -0.3043
  330MOL0     C43489   2.984   0.822  11.001  0.4291 -0.1472  0.0765
  330MOL0     C43490   3.133   0.836  11.054  0.3741  0.0049 -0.3978
  330MOL0     C43491   3.201   0.935  10.975  0.3585  0.0888 -0.0672
  330MOL0     C43492   3.247   1.023  10.909 -0.2332  0.4348 -0.1169
  330MOL0     C43493   2.501   1.080  10.931 -0.5192  0.9665 -0.1131
  330MOL0     C43494   2.409   1.177  10.895 -0.7287  0.4996  0.2055
  330MOL0     H43495   1.990   1.313  10.669 -1.6060 -0.7126 -0.1880
  330MOL0     H43496   1.766   1.360  10.671  0.2043  1.1998  0.1468
  330MOL0     H43497   1.566   1.593  10.983  0.2322 -0.3904 -2.3032
  330MOL0     H43498   1.548   1.436  11.070 -0.2508 -3.7420 -1.2449
  330MOL0     H43499   1.328   1.540  11.028 -2.4596 -0.4687 -1.3829
  330MOL0     H43500   1.341   1.409  10.914 -1.7775 -1.0242  1.1662
  330MOL0     H43501   1.419   1.600  10.740 -1.2173 -1.0765 -1.7133
  330MOL0     H43502   1.359   1.718  10.863 -1.0513  0.2703  1.9946
  330MOL0     H43503   1.187   1.501  10.746  2.7379 -1.4268  0.3731
  330MOL0     H43504   1.143   1.616  10.876 -1.6516  0.0999 -1.0034
  330MOL0     H43505   1.243   1.696  10.605 -3.7823 -3.7416 -2.8628
  330MOL0     H43506   1.167   1.804  10.736 -1.1849 -0.3864  0.9815
  330MOL0     H43507   0.972   1.678  10.716  2.5646  0.5712  1.8008
  330MOL0     H43508   1.038   1.568  10.596  1.0917 -0.3512  1.2870
  330MOL0     H43509   1.009   1.874  10.552 -0.2709  0.6513 -4.0563
  330MOL0     H43510   1.061   1.767  10.434  2.6172  1.8156  1.4419
  330MOL0     H43511   0.839   1.864  10.434  4.0903  0.5949 -2.0795
  330MOL0     H43512   0.803   1.792  10.589 -2.0802  0.0465 -1.3075
  330MOL0     H43513   0.946   1.664  10.255 -0.3235 -0.7971  1.2470
  330MOL0     H43514   0.980   1.449  10.138 -0.9029 -0.0121 -0.8505
  330MOL0     H43515   0.818   1.370  10.118 -0.5169 -1.9369  0.8008
  330MOL0     H43516   1.014   1.212  10.168  1.2802  0.0973  0.9657
  330MOL0     H43517   0.890   1.204  10.301  0.0403  0.3934  0.9470
  330MOL0     H43518   1.026   1.284  10.452 -0.9119 -0.2517  1.2671
  330MOL0     H43519   1.146   1.204  10.355 -1.1160 -0.1070 -0.1598
  330MOL0     H43520   1.106   1.497  10.374  1.5385 -0.1356  1.4179
  330MOL0     H43521   1.199   1.418  10.239  0.9993  0.7166  0.0402
  330MOL0     H43522   1.513   1.298  10.454 -3.5428 -1.4813 -2.8714
  330MOL0     H43523   1.719   1.400  10.415 -1.5457 -2.1198 -2.3534
  330MOL0     H43524   1.979   1.836  10.465 -0.4124  1.4699  0.8719
  330MOL0     H43525   2.189   1.953  10.394 -0.1218 -3.3324  0.7774
  330MOL0     H43526   2.271   2.200  10.052 -1.2418  0.6184 -2.3081
  330MOL0     H43527   2.228   2.057   9.961  0.2995 -0.8322 -0.4530
  330MOL0     H43528   2.459   1.958  10.033  0.0814 -0.9810  1.2593
  330MOL0     H43529   2.490   2.119  10.113 -0.3454  4.2495 -1.3940
  330MOL0     H43530   2.588   2.092   9.897  0.7035  0.7420  0.3953
  330MOL0     H43531   2.486   2.239   9.900 -0.6399 -0.2206  3.1928
  330MOL0     H43532   2.374   1.982   9.795  4.6015 -1.9446 -0.9275
  330MOL0     H43533   2.339   2.159   9.755 -0.9252  0.3742  1.0317
  330MOL0     H43534   2.594   1.991   9.695  1.3059  0.9930  1.7832
  330MOL0     H43535   2.558   2.152   9.632 -1.8366  0.3879 -0.9669
  330MOL0     H43536   2.336   2.066   9.530 -2.0544  0.6803  4.5619
  330MOL0     H43537   2.387   1.902   9.582 -1.3425  0.1532  0.2389
  330MOL0     H43538   2.553   2.070   9.394 -0.0861  1.3005  1.6082
  330MOL0     H43539   2.588   1.906   9.466 -0.8552 -2.0084 -1.3498
  330MOL0     H43540   2.518   1.896   9.227  2.6666 -0.9153  2.4245
  330MOL0     H43541   2.354   1.955   9.287  0.1707  0.2864  3.8020
  330MOL0     H43542   2.023   2.013  10.001  1.3778 -3.3687 -0.2045
  330MOL0     H43543   1.820   1.910  10.079  1.0449  2.8248  0.1213
  330MOL0     H43544   1.516   1.761  10.306 -0.8903 -0.5529 -1.9106
  330MOL0     H43545   1.300   1.635  10.326  0.5054  0.6215 -2.9151
  330MOL0     H43546   1.772   1.502  11.077  2.5591 -0.9784  1.8286
  330MOL0     H43547   2.018   1.466  11.086 -0.7458  3.6504 -0.8579
  330MOL0     H43548   2.405   1.358  11.177 -1.3803 -1.1392  1.1324
  330MOL0     H43549   2.581   1.203  11.237 -0.6171  0.5839  0.2877
  330MOL0     H43550   2.747   0.959  10.909 -2.8292 -0.3706  0.4442
  330MOL0     H43551   2.694   0.819  11.010  2.1872 -1.2205  3.1532
  330MOL0     H43552   2.916   1.010  11.094  0.2547  1.1151  0.2820
  330MOL0     H43553   2.867   0.855  11.173 -0.3170 -1.2851 -1.6584
  330MOL0     H43554   2.980   0.861  10.898  1.5954 -1.9632 -0.7171
  330MOL0     H43555   2.970   0.714  10.991  1.2629 -0.1496 -1.5081
  330MOL0     H43556   3.137   0.870  11.158  1.9807  1.3681 -0.8622
  330MOL0     H43557   3.181   0.738  11.044  1.3113  0.5297 -1.1890
  330MOL0     H43558   3.285   1.110  10.860  0.7383 -1.2689 -2.5874
  330MOL0     H43559   2.513   0.992  10.868 -2.8794  0.1728  0.4448
  330MOL0     H43560   2.364   1.145  10.802 -0.4821  0.2890  0.1582
  331MOL0     O43561   9.695   7.881   5.421  1.2121 -0.2024  0.0273
  331MOL0     C43562   9.759   7.885   5.315 -0.0008 -0.1579  0.1839
  331MOL0     O43563   9.722   7.915   5.188 -0.3883 -0.3870 -0.5414
  331MOL0     C43564   9.598   7.955   5.163  0.1999  0.1704 -0.2379
  331MOL0     C43565   9.537   8.058   5.229 -0.0461  0.5351 -0.6010
  331MOL0     C43566   9.400   8.073   5.222 -0.1262 -0.4874 -0.5307
  331MOL0     C43567   9.319   8.000   5.135  0.1852  0.2500 -0.3973
  331MOL0     O43568   9.187   8.025   5.132  0.4244 -0.3966 -0.3546
  331MOL0     C43569   9.096   7.947   5.054 -0.3763  0.7841 -0.5483
  331MOL0     C43570   8.967   8.036   5.068  0.1476  0.2828  0.1121
  331MOL0     C43571   8.903   8.059   4.936  0.5808  0.4872 -0.5350
  331MOL0     C43572   8.829   7.933   4.874 -0.0703 -0.4535 -0.2143
  331MOL0     C43573   8.800   7.935   4.728 -0.3886 -0.3091  0.1110
  331MOL0     C43574   8.725   7.806   4.687 -0.6818  0.2689 -0.2907
  331MOL0     C43575   8.567   7.808   4.709 -0.0176  0.7231  1.2317
  331MOL0     C43576   8.510   7.910   4.806 -1.4007  0.2286 -0.5107
  331MOL0     N43577   8.367   7.918   4.784 -0.2782  0.8583 -0.0009
  331MOL0     C43578   8.303   7.975   4.675  0.4956 -0.6220 -0.9722
  331MOL0     C43579   8.176   7.994   4.710  0.6767 -0.3374  0.2749
  331MOL0     C43580   8.067   8.069   4.625 -0.8927 -0.3990  0.3787
  331MOL0     C43581   7.942   8.079   4.712 -0.6354 -0.5208 -0.0246
  331MOL0     C43582   7.826   8.131   4.627  0.0878 -0.5770  0.4160
  331MOL0     C43583   7.712   8.191   4.710 -0.0231  0.5138  0.0920
  331MOL0     O43584   7.620   8.244   4.612  0.5745 -0.1460  0.3249
  331MOL0     C43585   7.507   8.317   4.659 -0.5514 -0.0845  0.3911
  331MOL0     C43586   7.455   8.319   4.786 -0.8114  0.9069 -0.6568
  331MOL0     C43587   7.334   8.373   4.812  1.1533 -0.1158  0.0576
  331MOL0     C43588   7.265   8.447   4.718 -0.2267 -0.1893  0.3689
  331MOL0     C43589   7.144   8.527   4.743  0.4372  0.4857  0.7486
  331MOL0     O43590   7.096   8.593   4.633  0.3362 -0.1514 -1.8003
  331MOL0     C43591   6.978   8.661   4.653  0.2227 -0.8587  0.5950
  331MOL0     C43592   6.976   8.787   4.709  0.1604 -0.1061  0.7498
  331MOL0     C43593   6.850   8.854   4.708 -0.2221  0.3409 -0.0422
  331MOL0     C43594   6.730   8.801   4.665  0.1021 -0.4349 -1.2545
  331MOL0     O43595   6.604   8.869   4.663 -0.2248  0.1752 -0.4245
  331MOL0     C43596   6.530   8.885   4.788  0.0287  1.0101  0.4996
  331MOL0     C43597   6.427   8.995   4.790 -0.3896  0.3837  0.4576
  331MOL0     C43598   6.301   8.936   4.715 -0.6446 -0.0719  0.0066
  331MOL0     C43599   6.200   9.048   4.691 -0.9829 -0.1143 -0.2623
  331MOL0     C43600   6.065   8.990   4.646  0.4324  0.2195  0.1776
  331MOL0     C43601   5.969   9.118   4.619 -0.4823  0.2891  0.7269
  331MOL0     C43602   5.823   9.082   4.623 -0.1045  0.6912  0.0451
  331MOL0     C43603   5.779   8.959   4.543 -0.4925 -0.4457 -0.8799
  331MOL0    Cl43604   5.606   8.973   4.555  0.0792  0.3415  0.0206
  331MOL0     C43605   6.733   8.674   4.619 -0.2738  0.1947  0.3888
  331MOL0     C43606   6.857   8.602   4.613  0.2102 -0.2487 -0.0485
  331MOL0     O43607   7.094   8.531   4.857 -1.0497  0.4747  0.5713
  331MOL0     C43608   7.317   8.438   4.585 -0.4785  0.8699 -0.1297
  331MOL0     C43609   7.442   8.379   4.561  0.1372  0.0353  0.0424
  331MOL0     N43610   8.166   7.934   4.836  0.1750  0.0659  1.1465
  331MOL0     N43611   8.278   7.888   4.880  0.6359  0.3817  0.0503
  331MOL0     C43612   9.384   7.905   5.050  0.2978 -0.2188  0.4024
  331MOL0     C43613   9.520   7.886   5.067  0.2182  1.2441 -0.3429
  331MOL0     C43614   9.904   7.866   5.332  0.7403 -0.2230 -0.0457
  331MOL0     C43615   9.957   7.789   5.439 -0.6109  0.3885  0.1780
  331MOL0     C43616  10.089   7.743   5.427  0.4690  0.3163  0.3977
  331MOL0     C43617  10.179   7.780   5.328  0.2932  0.0189  0.0348
  331MOL0     O43618  10.303   7.730   5.316  0.0274  0.1019 -0.3934
  331MOL0     C43619  10.341   7.632   5.413  0.1024 -0.0939 -0.4600
  331MOL0     C43620  10.493   7.598   5.413 -0.3897 -0.7901  0.6421
  331MOL0     C43621  10.523   7.488   5.518  0.0857  0.4712  0.3327
  331MOL0     C43622  10.673   7.458   5.543  0.0462 -0.1521  0.1636
  331MOL0     C43623  10.746   7.416   5.422  0.6903  0.5463 -0.4329
  331MOL0     C43624  10.789   7.401   5.306  0.6288  0.2119  0.0395
  331MOL0     C43625  10.125   7.878   5.236 -0.0985 -0.5304 -0.5991
  331MOL0     C43626   9.991   7.924   5.230  0.4642 -0.0192  0.1842
  331MOL0     H43627   9.596   8.122   5.294 -0.2401  2.7634 -2.5017
  331MOL0     H43628   9.342   8.149   5.275  1.2928  0.0846  0.2549
  331MOL0     H43629   9.084   7.857   5.114  0.4892  0.5544 -0.7067
  331MOL0     H43630   9.130   7.920   4.954 -3.1360 -1.8147 -0.9116
  331MOL0     H43631   9.004   8.129   5.112  1.6255 -0.9117  1.5162
  331MOL0     H43632   8.894   7.999   5.141 -0.0568  0.2437 -0.1110
  331MOL0     H43633   8.976   8.097   4.865  2.3005 -1.5437  0.0119
  331MOL0     H43634   8.835   8.143   4.947 -2.0385 -1.5011 -0.4532
  331MOL0     H43635   8.892   7.846   4.893  1.0890  0.7382  1.8661
  331MOL0     H43636   8.734   7.916   4.925 -0.1065 -1.1377 -0.5081
  331MOL0     H43637   8.894   7.944   4.673 -0.2893 -0.6440  0.2243
  331MOL0     H43638   8.729   8.012   4.696 -3.8135 -3.9722 -1.9530
  331MOL0     H43639   8.757   7.725   4.753  3.3861  3.2659  1.8359
  331MOL0     H43640   8.746   7.774   4.584  0.6263 -0.3013  0.1274
  331MOL0     H43641   8.539   7.833   4.606  3.5615 -0.4036 -0.1730
  331MOL0     H43642   8.528   7.710   4.740 -0.1438  0.3641  0.0053
  331MOL0     H43643   8.545   8.013   4.796 -3.2571  0.9791  0.3425
  331MOL0     H43644   8.531   7.878   4.908 -0.5222 -0.5201 -0.9054
  331MOL0     H43645   8.351   8.014   4.586  0.3572 -1.2451 -1.3233
  331MOL0     H43646   8.038   8.008   4.539 -4.6349 -1.4884  2.2425
  331MOL0     H43647   8.106   8.164   4.587  2.2817  0.0941  4.1368
  331MOL0     H43648   7.956   8.144   4.799  0.6079 -3.1767  1.9299
  331MOL0     H43649   7.911   7.982   4.752 -1.8139 -0.1431  0.0228
  331MOL0     H43650   7.864   8.212   4.564 -3.5706  2.2467  1.5159
  331MOL0     H43651   7.782   8.049   4.570  1.0446 -3.2382  3.1772
  331MOL0     H43652   7.736   8.277   4.773  0.0611  0.3381  0.2990
  331MOL0     H43653   7.673   8.109   4.771 -1.6653 -0.6894 -2.4064
  331MOL0     H43654   7.520   8.268   4.857 -2.3779 -0.6056 -0.2291
  331MOL0     H43655   7.304   8.374   4.916 -2.5591  1.4457 -0.8669
  331MOL0     H43656   7.070   8.828   4.743  1.7511 -1.3737 -1.8491
  331MOL0     H43657   6.850   8.954   4.750  0.2983  1.1213 -1.8135
  331MOL0     H43658   6.618   8.886   4.853  0.5585 -2.3225 -0.0166
  331MOL0     H43659   6.484   8.791   4.819 -0.2247  1.7668  2.5965
  331MOL0     H43660   6.468   9.078   4.731 -3.0910  0.9514 -0.7595
  331MOL0     H43661   6.402   9.030   4.891 -0.5494  2.0778 -0.1244
  331MOL0     H43662   6.256   8.867   4.787  0.9538 -1.0532  0.1163
  331MOL0     H43663   6.328   8.871   4.631  1.8598 -0.8578  1.3359
  331MOL0     H43664   6.195   9.113   4.778  1.7134 -2.5399  1.9432
  331MOL0     H43665   6.249   9.107   4.613  0.9629 -0.9728  0.2312
  331MOL0     H43666   6.030   8.921   4.723  0.4424 -0.4328 -0.3908
  331MOL0     H43667   6.079   8.937   4.552 -2.6026  1.5726 -1.1568
  331MOL0     H43668   5.994   9.182   4.534 -4.9314  1.7030  0.2093
  331MOL0     H43669   5.976   9.187   4.703  2.7802  0.6254  0.2998
  331MOL0     H43670   5.795   9.063   4.727  2.2718 -4.8736 -0.0062
  331MOL0     H43671   5.769   9.168   4.583  1.7934  2.0880  0.2837
  331MOL0     H43672   5.812   8.866   4.590  1.4327  0.3448 -0.5880
  331MOL0     H43673   5.804   8.971   4.437  1.6503  0.2120 -0.3513
  331MOL0     H43674   6.640   8.633   4.584  0.0366 -0.0147 -0.2056
  331MOL0     H43675   6.852   8.496   4.593 -0.7680  0.0232 -1.3405
  331MOL0     H43676   7.276   8.492   4.500 -0.3430  1.4338  0.1545
  331MOL0     H43677   7.485   8.363   4.463  1.2729  2.9536 -0.0302
  331MOL0     H43678   9.339   7.838   4.978  1.6739 -2.2709  1.3809
  331MOL0     H43679   9.574   7.807   5.016  0.5665  0.3116  1.3854
  331MOL0     H43680   9.891   7.763   5.521  0.1552  1.7064  1.2613
  331MOL0     H43681  10.106   7.669   5.504 -1.3045  0.0924  0.6195
  331MOL0     H43682  10.272   7.547   5.414 -1.3582  0.9574  2.7590
  331MOL0     H43683  10.329   7.674   5.513  0.3177 -1.9909  0.4206
  331MOL0     H43684  10.519   7.567   5.312 -2.2176  0.2535 -0.1962
  331MOL0     H43685  10.547   7.691   5.436 -1.4569 -0.7940  3.5834
  331MOL0     H43686  10.492   7.390   5.480 -0.4205  0.3932  0.9372
  331MOL0     H43687  10.465   7.501   5.609 -2.3086 -0.1554 -1.0190
  331MOL0     H43688  10.720   7.547   5.585 -0.8519  2.1391 -3.2384
  331MOL0     H43689  10.678   7.379   5.619 -0.2440 -2.0890 -1.7178
  331MOL0     H43690  10.828   7.383   5.208 -2.1489 -0.9805 -0.9499
  331MOL0     H43691  10.194   7.917   5.162 -0.0334 -0.2660 -0.4003
  331MOL0     H43692   9.956   7.992   5.153 -0.3237 -2.0383 -1.2996
  332MOL0     O43693   3.152   5.085   4.385 -0.0202  0.2193  0.3552
  332MOL0     C43694   3.162   5.026   4.277 -0.3136 -0.1592 -0.2275
  332MOL0     O43695   3.265   4.948   4.239 -0.5369 -0.2992  0.0856
  332MOL0     C43696   3.383   4.952   4.306  1.2659 -0.2181 -0.5430
  332MOL0     C43697   3.448   4.837   4.350 -0.6077 -0.9066  0.1375
  332MOL0     C43698   3.580   4.852   4.407 -0.6151  0.0583 -0.8705
  332MOL0     C43699   3.636   4.976   4.420 -0.7255 -0.1115  0.4501
  332MOL0     O43700   3.761   4.988   4.482 -0.3840  0.3701 -0.0667
  332MOL0     C43701   3.851   5.104   4.470  0.5029  0.6117  0.4861
  332MOL0     C43702   3.978   5.066   4.540  0.2194  0.3264  0.2006
  332MOL0     C43703   4.051   4.950   4.484  0.0994 -0.8333  0.0025
  332MOL0     C43704   4.160   4.891   4.583  0.0754 -0.0610 -0.1487
  332MOL0     C43705   4.302   4.947   4.567  0.2362 -0.3034  1.2001
  332MOL0     C43706   4.385   4.906   4.687 -0.7384  1.0064 -0.8911
  332MOL0     C43707   4.534   4.886   4.647 -0.3383 -0.3626  0.1005
  332MOL0     C43708   4.599   5.000   4.564  0.3760  0.1059  0.5313
  332MOL0     N43709   4.735   4.991   4.508 -0.3552 -1.2534 -0.6996
  332MOL0     C43710   4.852   5.013   4.585  0.3371  0.1514  0.4704
  332MOL0     C43711   4.957   4.983   4.493 -0.1295 -0.2771 -0.6725
  332MOL0     C43712   5.100   5.007   4.508  0.7343 -0.2359 -0.7566
  332MOL0     C43713   5.119   5.160   4.513 -0.4515 -0.1824 -0.9134
  332MOL0     C43714   5.263   5.192   4.551 -0.2380 -1.0565  0.5084
  332MOL0     C43715   5.294   5.345   4.545  1.2441 -0.6424  0.6542
  332MOL0     O43716   5.424   5.376   4.495 -0.0896  0.1237  0.1358
  332MOL0     C43717   5.538   5.334   4.563 -0.1320 -0.6708  0.7247
  332MOL0     C43718   5.658   5.354   4.483  0.1018 -0.4540 -0.1676
  332MOL0     C43719   5.788   5.357   4.541  0.8764  0.0797  0.2863
  332MOL0     C43720   5.804   5.307   4.670  0.3329  0.8611  0.1673
  332MOL0     C43721   5.941   5.300   4.739  0.1640 -0.6320 -0.1782
  332MOL0     O43722   6.051   5.321   4.659 -0.0675  0.0598  0.5793
  332MOL0     C43723   6.175   5.355   4.711 -0.2092 -0.4318  0.1319
  332MOL0     C43724   6.197   5.430   4.826  0.1701 -0.4993 -0.8289
  332MOL0     C43725   6.322   5.452   4.872  0.2361 -0.8263  0.6048
  332MOL0     C43726   6.432   5.411   4.802  0.2843  0.3933  0.2319
  332MOL0     O43727   6.556   5.432   4.845 -0.0820 -0.2215  0.7389
  332MOL0     C43728   6.587   5.396   4.980  0.1923  0.0444  0.0735
  332MOL0     C43729   6.722   5.336   4.991  0.2540  0.1635 -0.8255
  332MOL0     C43730   6.730   5.201   4.917 -0.0670  0.6485 -0.7300
  332MOL0     C43731   6.876   5.135   4.924 -0.5439  0.8240 -0.0994
  332MOL0     C43732   6.921   5.077   5.057  0.3306 -0.2155  0.3919
  332MOL0     C43733   6.812   4.980   5.123  0.4533  0.3186  0.3696
  332MOL0     C43734   6.862   4.922   5.255  0.4852  0.8322  0.3757
  332MOL0     C43735   6.942   4.800   5.241 -0.0274  0.3603 -0.4820
  332MOL0    Cl43736   6.862   4.672   5.144  0.0279  0.1583  0.3902
  332MOL0     C43737   6.416   5.340   4.677  0.7029 -0.4849 -0.4979
  332MOL0     C43738   6.289   5.311   4.631 -0.5342 -1.0498  0.5186
  332MOL0     O43739   5.938   5.282   4.861  0.3028 -0.4131  0.3240
  332MOL0     C43740   5.682   5.277   4.740 -0.2310 -1.3682 -0.1892
  332MOL0     C43741   5.551   5.293   4.692 -0.2362  0.3652  0.2098
  332MOL0     N43742   4.901   4.944   4.377  0.0248 -0.3688  0.0528
  332MOL0     N43743   4.770   4.948   4.388 -0.4099  0.8882 -0.0432
  332MOL0     C43744   3.565   5.089   4.377  1.0052  0.1042  0.0464
  332MOL0     C43745   3.444   5.070   4.319  0.0917  0.0678  0.1466
  332MOL0     C43746   3.045   5.023   4.194 -0.1990 -0.9920  0.0342
  332MOL0     C43747   3.048   4.962   4.060 -0.0175  0.0684  0.0661
  332MOL0     C43748   2.924   4.962   3.987 -0.5814 -0.2749  0.2169
  332MOL0     C43749   2.804   4.997   4.043 -0.1516 -0.8578  0.3967
  332MOL0     O43750   2.691   4.977   3.966  0.1832 -0.0497  0.0421
  332MOL0     C43751   2.561   4.981   4.029 -0.1236 -0.5250 -0.3530
  332MOL0     C43752   2.512   5.129   4.041 -0.7860  0.3383  0.9195
  332MOL0     C43753   2.385   5.144   4.114 -0.1665  0.4839 -0.5174
  332MOL0     C43754   2.322   5.280   4.102 -0.0943 -0.5738 -0.7490
  332MOL0     C43755   2.244   5.308   3.980  0.9458 -0.3554  0.5768
  332MOL0     C43756   2.189   5.339   3.872 -0.2182 -0.3179  0.6403
  332MOL0     C43757   2.803   5.055   4.173  0.0717 -0.0255  0.1558
  332MOL0     C43758   2.918   5.074   4.246 -0.3248  0.3423 -0.3494
  332MOL0     H43759   3.410   4.739   4.326 -1.5807 -1.2664  2.8073
  332MOL0     H43760   3.651   4.772   4.426 -0.0049  0.5605 -0.9994
  332MOL0     H43761   3.806   5.194   4.513 -0.7557  0.7561 -1.0328
  332MOL0     H43762   3.879   5.133   4.369  0.8617  1.5967  0.8582
  332MOL0     H43763   3.959   5.035   4.643 -0.0578 -0.9149 -0.2069
  332MOL0     H43764   4.050   5.148   4.542 -0.2090  0.6949  1.2609
  332MOL0     H43765   4.091   4.974   4.384  0.6681  2.1325  0.8449
  332MOL0     H43766   3.979   4.869   4.475 -3.5906  1.5447  4.1919
  332MOL0     H43767   4.117   4.910   4.682  0.1938 -0.2400 -0.0613
  332MOL0     H43768   4.159   4.783   4.567  0.7575 -0.1420  0.2970
  332MOL0     H43769   4.299   5.056   4.568  2.9991 -0.0797 -1.0919
  332MOL0     H43770   4.343   4.914   4.471 -2.3515 -0.6850  0.1394
  332MOL0     H43771   4.348   4.811   4.727 -1.1269  1.8036  0.7319
  332MOL0     H43772   4.373   4.977   4.770 -0.8817 -0.6135  0.5285
  332MOL0     H43773   4.596   4.855   4.731 -1.5951 -3.7430 -0.0349
  332MOL0     H43774   4.536   4.800   4.579 -2.6884 -1.1099  0.8970
  332MOL0     H43775   4.598   5.084   4.635  0.0215  0.0437  0.5980
  332MOL0     H43776   4.538   5.043   4.484  2.4262  3.6887  0.6350
  332MOL0     H43777   4.855   5.052   4.687 -0.2669  0.4090  0.3935
  332MOL0     H43778   5.164   4.964   4.430  1.3541  2.0635 -1.6096
  332MOL0     H43779   5.125   4.969   4.607 -1.6666  2.6430  1.1410
  332MOL0     H43780   5.066   5.203   4.599  2.3879 -0.0048  0.8547
  332MOL0     H43781   5.098   5.208   4.417  0.7365 -0.4367 -1.3095
  332MOL0     H43782   5.297   5.162   4.650  2.6625  1.7292  0.5531
  332MOL0     H43783   5.329   5.145   4.477 -1.1597  0.0711 -1.1182
  332MOL0     H43784   5.283   5.390   4.644 -1.7608  1.7296 -0.5977
  332MOL0     H43785   5.221   5.398   4.482  2.5981  1.9762  1.1354
  332MOL0     H43786   5.656   5.397   4.383 -0.2690 -0.9984 -0.3976
  332MOL0     H43787   5.873   5.390   4.482 -0.5609  4.5662  0.3763
  332MOL0     H43788   6.104   5.451   4.879 -0.4962 -2.8087 -0.9621
  332MOL0     H43789   6.336   5.510   4.963  0.6798 -2.1276  1.4009
  332MOL0     H43790   6.516   5.326   5.025 -0.6733  0.7714 -0.1401
  332MOL0     H43791   6.591   5.486   5.043 -1.8753 -1.1543  2.0836
  332MOL0     H43792   6.750   5.321   5.096  1.5695 -0.5018 -1.2416
  332MOL0     H43793   6.790   5.408   4.946  0.3495  1.3472  1.0732
  332MOL0     H43794   6.692   5.217   4.816 -0.5734 -0.3950 -0.7151
  332MOL0     H43795   6.663   5.121   4.950  2.2265 -1.6834 -1.3879
  332MOL0     H43796   6.890   5.051   4.856  0.3688  0.9554 -0.0901
  332MOL0     H43797   6.953   5.204   4.891 -2.6997  2.8443 -1.2208
  332MOL0     H43798   6.943   5.157   5.129 -1.6088 -0.0379  0.8281
  332MOL0     H43799   7.012   5.017   5.047  0.2292 -0.4069  0.5954
  332MOL0     H43800   6.788   4.904   5.048  0.5734 -0.7514  1.3938
  332MOL0     H43801   6.725   5.044   5.139 -0.9028 -1.0489 -1.1557
  332MOL0     H43802   6.916   5.001   5.309 -0.6270  1.2765  0.8670
  332MOL0     H43803   6.769   4.899   5.308  1.0748 -0.3147  0.9371
  332MOL0     H43804   6.963   4.754   5.337 -2.0349  1.8081  0.7265
  332MOL0     H43805   7.030   4.825   5.181  1.6858 -0.6668  1.5067
  332MOL0     H43806   6.506   5.331   4.618  0.8917 -1.4602 -0.0744
  332MOL0     H43807   6.294   5.263   4.534  3.8795 -1.8775  0.9571
  332MOL0     H43808   5.694   5.256   4.846  1.1522  1.4297  0.2958
  332MOL0     H43809   5.464   5.268   4.752  0.6798 -1.7822  0.7507
  332MOL0     H43810   3.599   5.192   4.380 -2.0441  1.4306 -3.2880
  332MOL0     H43811   3.381   5.148   4.279  1.1886  2.0708  2.0689
  332MOL0     H43812   3.134   4.926   4.004 -0.4486 -0.0126 -0.5560
  332MOL0     H43813   2.933   4.919   3.887  3.7042  1.1905 -0.2526
  332MOL0     H43814   2.570   4.931   4.126 -0.6801  0.7176  0.3636
  332MOL0     H43815   2.488   4.928   3.967 -2.1917  2.4998 -0.7468
  332MOL0     H43816   2.582   5.186   4.102 -1.6220  0.6056  1.6466
  332MOL0     H43817   2.497   5.163   3.938 -0.6698 -1.6749  0.1857
  332MOL0     H43818   2.402   5.125   4.221  2.3971 -0.1665 -0.9787
  332MOL0     H43819   2.311   5.073   4.077 -1.4852  1.1478  0.7603
  332MOL0     H43820   2.251   5.284   4.184 -0.4576 -3.8811 -0.7539
  332MOL0     H43821   2.400   5.356   4.106 -0.0608 -0.4675 -2.4488
  332MOL0     H43822   2.137   5.371   3.784 -1.9781 -0.0096  1.7315
  332MOL0     H43823   2.713   5.082   4.229  0.9977  0.2372  1.5786
  332MOL0     H43824   2.920   5.117   4.346 -1.6826 -1.8133  0.6666
  333MOL0     O43825  10.894  10.250   9.199 -0.5482 -0.7146  0.2000
  333MOL0     C43826  10.994  10.321   9.218  0.2615 -0.4405  0.1782
  333MOL0     O43827  10.998  10.463   9.225  0.2982  0.2429 -0.3407
  333MOL0     C43828  10.875  10.534   9.225  1.4222 -0.0557 -0.3478
  333MOL0     C43829  10.788  10.538   9.120 -0.2287 -0.4576  1.7387
  333MOL0     C43830  10.662  10.598   9.123 -0.7621 -0.2721  0.2428
  333MOL0     C43831  10.620  10.664   9.240  0.0838 -0.2919 -0.0208
  333MOL0     O43832  10.503  10.740   9.227  0.3687  0.0163 -0.2117
  333MOL0     C43833  10.477  10.832   9.340 -0.4384  1.3611 -0.1183
  333MOL0     C43834  10.584  10.944   9.348  0.4466  1.0360 -0.4263
  333MOL0     C43835  10.568  11.049   9.237 -0.2818 -0.2114 -0.0216
  333MOL0     C43836  10.541  11.182   9.294 -0.1827  0.6137 -0.3595
  333MOL0     C43837  10.409  11.188   9.380  0.0769  0.1120  0.4259
  333MOL0     C43838  10.383  11.339   9.418  0.3886  0.0850  0.0273
  333MOL0     C43839  10.239  11.360   9.473  0.9409  0.6875 -0.7093
  333MOL0     C43840  10.200  11.503   9.508 -0.5615  0.3535 -0.0626
  333MOL0     N43841  10.062  11.507   9.565 -0.2510 -0.3063  0.1277
  333MOL0     C43842   9.963  11.566   9.483 -0.0938  0.5792  0.2234
  333MOL0     C43843   9.848  11.524   9.546  0.2947  0.0283 -0.2819
  333MOL0     C43844   9.710  11.556   9.509  0.2204  0.4816  0.8321
  333MOL0     C43845   9.683  11.487   9.366 -0.0736 -0.0510 -0.6040
  333MOL0     C43846   9.529  11.455   9.348  0.5930 -0.3693 -0.7197
  333MOL0     C43847   9.427  11.577   9.356  0.2563 -0.6811  1.0735
  333MOL0     O43848   9.377  11.578   9.490 -0.3084  0.2371 -0.4384
  333MOL0     C43849   9.314  11.687   9.549 -0.0388 -0.7519  0.0323
  333MOL0     C43850   9.182  11.728   9.521  0.4568  0.2692  0.3644
  333MOL0     C43851   9.123  11.836   9.584  0.4041 -0.3869 -0.3664
  333MOL0     C43852   9.198  11.913   9.676 -0.1628 -1.4668 -0.3338
  333MOL0     C43853   9.146  12.046   9.734  0.8953 -0.0140  0.7630
  333MOL0     O43854   9.022  12.092   9.695  0.1448 -0.0698  0.1596
  333MOL0     C43855   8.975  12.220   9.728 -0.8840  0.7347  0.0395
  333MOL0     C43856   9.048  12.338   9.719 -0.8401  0.4315  0.4769
  333MOL0     C43857   8.994  12.466   9.739  0.3512 -1.4300 -0.0212
  333MOL0     C43858   8.860  12.474   9.768 -0.7625 -0.3059 -0.8626
  333MOL0     O43859   8.823  12.601   9.804 -0.0577  0.3401 -0.2493
  333MOL0     C43860   8.685  12.628   9.839  1.2263 -0.0364 -0.0268
  333MOL0     C43861   8.660  12.588   9.983 -0.4011  1.2999  0.6279
  333MOL0     C43862   8.513  12.619  10.035  1.0158  0.0644 -0.0191
  333MOL0     C43863   8.412  12.556   9.934  0.6044 -0.3075  0.5607
  333MOL0     C43864   8.262  12.567   9.980 -0.6466  0.8037 -0.1875
  333MOL0     C43865   8.166  12.500   9.886  0.5547  0.1926 -0.0041
  333MOL0     C43866   8.018  12.535   9.918  0.6446 -0.1663  0.6581
  333MOL0     C43867   7.963  12.524  10.060  0.9637  0.1060 -0.1671
  333MOL0    Cl43868   7.790  12.549  10.043  0.0549 -0.0221  0.4034
  333MOL0     C43869   8.790  12.355   9.774  0.5740 -0.4391 -0.0339
  333MOL0     C43870   8.839  12.232   9.749 -0.0242  0.3279 -0.2395
  333MOL0     O43871   9.222  12.101   9.814 -0.0821 -0.4244  0.0480
  333MOL0     C43872   9.325  11.872   9.714  0.5927  0.4056  1.1122
  333MOL0     C43873   9.383  11.756   9.656 -0.2737 -0.0728 -0.7031
  333MOL0     N43874   9.882  11.439   9.653 -0.1463 -0.1217 -0.3056
  333MOL0     N43875  10.007  11.420   9.655  0.6159 -0.0805 -0.0120
  333MOL0     C43876  10.704  10.650   9.350 -0.1701  0.3209 -0.7185
  333MOL0     C43877  10.832  10.595   9.340  0.0229 -0.3895 -0.1889
  333MOL0     C43878  11.127  10.247   9.215  0.0029  0.0013 -0.1019
  333MOL0     C43879  11.247  10.307   9.216 -0.3675  0.1930  0.0461
  333MOL0     C43880  11.371  10.235   9.239  0.5140 -0.6578  1.4033
  333MOL0     C43881  11.367  10.104   9.258  0.2723  0.3485  0.3226
  333MOL0     O43882  11.479  10.040   9.287 -0.0662  0.3367 -0.0098
  333MOL0     C43883  11.564  10.090   9.392 -0.3720  0.2716 -0.9115
  333MOL0     C43884  11.494  10.099   9.530 -0.0427  0.1807 -0.1828
  333MOL0     C43885  11.460   9.963   9.594 -0.9399 -0.4173  0.0412
  333MOL0     C43886  11.317   9.975   9.640  0.4814 -0.0940 -0.3078
  333MOL0     C43887  11.277   9.852   9.711 -0.4887  0.4332 -0.3487
  333MOL0     C43888  11.238   9.751   9.770 -0.2845  0.1425 -0.9738
  333MOL0     C43889  11.244  10.038   9.247 -1.2928  0.7408 -0.2446
  333MOL0     C43890  11.125  10.103   9.221  0.2097  0.5505 -0.3406
  333MOL0     H43891  10.811  10.494   9.023  0.1183  1.6070  0.8345
  333MOL0     H43892  10.591  10.592   9.041 -0.8942 -0.2612  0.3557
  333MOL0     H43893  10.459  10.771   9.429 -2.3287 -2.9522 -3.0786
  333MOL0     H43894  10.378  10.867   9.308 -1.3107 -0.3299  0.5847
  333MOL0     H43895  10.686  10.905   9.342 -0.3021 -1.7525  2.4764
  333MOL0     H43896  10.566  10.987   9.447 -1.6185 -1.9223  0.6125
  333MOL0     H43897  10.488  11.036   9.164  1.0643  1.9759 -2.0137
  333MOL0     H43898  10.667  11.054   9.190 -0.5305 -2.4198 -0.9244
  333MOL0     H43899  10.622  11.222   9.355  1.1702 -0.1563 -1.5925
  333MOL0     H43900  10.529  11.255   9.213  1.0942  0.9012 -0.3098
  333MOL0     H43901  10.424  11.135   9.474  2.5428 -2.9112 -1.5084
  333MOL0     H43902  10.320  11.149   9.330  0.1865 -0.3227  0.5734
  333MOL0     H43903  10.379  11.387   9.319 -0.2703  1.1136  0.5360
  333MOL0     H43904  10.456  11.385   9.485 -0.3457  3.0906 -1.0810
  333MOL0     H43905  10.169  11.331   9.395 -4.5490  1.4262  3.3763
  333MOL0     H43906  10.213  11.298   9.559 -2.0057  0.5589 -1.5774
  333MOL0     H43907  10.213  11.574   9.427 -1.9167 -1.5248 -2.0299
  333MOL0     H43908  10.260  11.521   9.598 -0.9770 -1.7037  0.6941
  333MOL0     H43909   9.966  11.644   9.409 -2.4702 -0.3136 -0.9036
  333MOL0     H43910   9.699  11.665   9.506 -0.1824  0.4320  0.3270
  333MOL0     H43911   9.651  11.524   9.595  0.8715  0.2064  1.1811
  333MOL0     H43912   9.741  11.397   9.349 -2.2204 -1.4508 -0.9383
  333MOL0     H43913   9.706  11.560   9.287 -2.3073 -0.0964 -1.3642
  333MOL0     H43914   9.516  11.416   9.247 -2.3751 -0.1081 -0.5439
  333MOL0     H43915   9.494  11.386   9.426  3.0847  0.7447  1.5351
  333MOL0     H43916   9.338  11.578   9.292  1.2623 -2.5339 -0.4514
  333MOL0     H43917   9.481  11.671   9.339  2.4034 -1.4951  2.8368
  333MOL0     H43918   9.125  11.672   9.447 -1.2653  2.7919 -0.3647
  333MOL0     H43919   9.017  11.851   9.568 -0.3688 -0.9746  3.3565
  333MOL0     H43920   9.153  12.334   9.694 -1.0652 -0.0143 -0.4759
  333MOL0     H43921   9.059  12.552   9.747 -1.9442  0.2169  2.6456
  333MOL0     H43922   8.623  12.578   9.765  0.9071 -2.0403  1.4942
  333MOL0     H43923   8.670  12.736   9.847 -0.7279 -0.3398  1.1155
  333MOL0     H43924   8.740  12.632  10.043  2.9060 -1.2396 -1.5816
  333MOL0     H43925   8.674  12.481   9.997  1.1622  1.5201  0.9065
  333MOL0     H43926   8.491  12.726  10.030 -2.8046 -0.4553  1.8483
  333MOL0     H43927   8.500  12.575  10.134  0.6365  0.9169  0.3153
  333MOL0     H43928   8.412  12.607   9.837 -2.2168 -1.6294 -0.2347
  333MOL0     H43929   8.446  12.455   9.913  2.7448 -0.1074  2.6721
  333MOL0     H43930   8.240  12.671  10.005  0.5725  1.6764 -2.4359
  333MOL0     H43931   8.262  12.511  10.074 -0.2872  2.7081  0.9803
  333MOL0     H43932   8.174  12.392   9.894  1.7958  0.2575 -0.1984
  333MOL0     H43933   8.195  12.523   9.783 -1.3160 -1.5704 -0.9987
  333MOL0     H43934   8.011  12.641   9.893  2.7077 -0.2971 -0.7237
  333MOL0     H43935   7.956  12.487   9.842 -0.2965  1.3607  0.4347
  333MOL0     H43936   7.993  12.602  10.131  0.3293  0.7150 -0.5565
  333MOL0     H43937   7.972  12.421  10.098 -2.0174  0.6634  2.4579
  333MOL0     H43938   8.686  12.376   9.796  1.0233  0.6559  1.2334
  333MOL0     H43939   8.775  12.144   9.754  2.0378 -1.1741  2.3861
  333MOL0     H43940   9.391  11.917   9.787  0.2774  2.0663  0.4278
  333MOL0     H43941   9.483  11.734   9.694 -0.7552  0.4759  0.9803
  333MOL0     H43942  10.676  10.694   9.446  3.4389 -1.6131  1.4368
  333MOL0     H43943  10.884  10.579   9.434  0.6392 -1.7196 -0.7303
  333MOL0     H43944  11.244  10.412   9.189 -0.3104  0.2479  0.2518
  333MOL0     H43945  11.460  10.298   9.232  0.4017 -0.4821  1.5596
  333MOL0     H43946  11.609  10.185   9.360  4.0907 -1.7589 -1.4514
  333MOL0     H43947  11.656  10.031   9.393 -1.1925 -1.0413 -0.4344
  333MOL0     H43948  11.568  10.138   9.602 -0.4630 -2.7941  2.0402
  333MOL0     H43949  11.416  10.175   9.524 -1.3116 -1.0471  0.1843
  333MOL0     H43950  11.525   9.947   9.681 -2.1541 -1.9500  0.7233
  333MOL0     H43951  11.480   9.880   9.526  1.8897  0.1502  0.0557
  333MOL0     H43952  11.301  10.062   9.704  0.4687 -0.2635 -0.0765
  333MOL0     H43953  11.256   9.971   9.550  2.4140 -1.6319 -1.6329
  333MOL0     H43954  11.189   9.672   9.823  3.0129 -2.0955 -0.9235
  333MOL0     H43955  11.248   9.930   9.247  0.4131  0.7361  2.2615
  333MOL0     H43956  11.036  10.041   9.223 -0.6289  1.6823 -1.2298
  334MOL0     O43957   7.021   0.264   8.292  0.4855 -0.1382 -0.0809
  334MOL0     C43958   7.087   0.162   8.272 -0.5688  0.0902  0.2939
  334MOL0     O43959   7.041   0.027   8.289  0.6755 -0.6775 -0.0335
  334MOL0     C43960   6.909   0.010   8.328  0.2577  0.2635  0.7649
  334MOL0     C43961   6.794   0.081   8.264 -1.3143 -0.4819  0.0636
  334MOL0     C43962   6.662   0.066   8.305  1.2114  1.1657  0.6460
  334MOL0     C43963   6.635  -0.035   8.396 -0.6078 -0.2689 -0.3224
  334MOL0     O43964   6.509  -0.078   8.422  0.9871  0.0056 -0.2296
  334MOL0     C43965   6.394  -0.022   8.356 -0.9726 -0.8761 -0.4519
  334MOL0     C43966   6.281  -0.111   8.397  0.7330 -0.7419 -0.2218
  334MOL0     C43967   6.148  -0.077   8.339 -0.4069 -0.6921  0.0974
  334MOL0     C43968   6.046  -0.164   8.388 -0.6061  1.4512  0.0794
  334MOL0     C43969   5.906  -0.113   8.365 -0.3153  0.2627 -0.0367
  334MOL0     C43970   5.815  -0.154   8.479  0.6428 -0.5986  0.0382
  334MOL0     C43971   5.664  -0.132   8.452 -1.0039 -0.0039 -0.3804
  334MOL0     C43972   5.571  -0.187   8.558  0.1337 -0.4246  0.7579
  334MOL0     N43973   5.589  -0.327   8.585 -0.9293  0.2940 -0.1550
  334MOL0     C43974   5.580  -0.374   8.710 -0.3245 -0.7978  0.3843
  334MOL0     C43975   5.561  -0.504   8.699 -1.1472  0.0856 -0.1570
  334MOL0     C43976   5.530  -0.587   8.815 -0.0544  0.5869  0.7309
  334MOL0     C43977   5.390  -0.643   8.793 -0.6594 -0.4067 -0.0686
  334MOL0     C43978   5.273  -0.573   8.862 -0.0299  0.1881 -0.4799
  334MOL0     C43979   5.137  -0.593   8.816  0.0473 -0.2246  0.5546
  334MOL0     O43980   5.040  -0.528   8.899 -0.2040  0.6764  0.2501
  334MOL0     C43981   4.916  -0.500   8.839 -0.2406 -0.2986 -0.2920
  334MOL0     C43982   4.829  -0.417   8.910 -0.0389  0.9404 -0.0288
  334MOL0     C43983   4.707  -0.394   8.855  0.8148  0.8651  0.8665
  334MOL0     C43984   4.675  -0.433   8.725  0.8376 -0.3908  0.3237
  334MOL0     C43985   4.542  -0.392   8.662 -0.3260 -0.1604 -0.1644
  334MOL0     O43986   4.541  -0.367   8.523  0.1699 -0.0059 -0.4930
  334MOL0     C43987   4.428  -0.346   8.446 -1.1792  0.1907 -0.2715
  334MOL0     C43988   4.309  -0.419   8.469  0.5154  0.1188 -1.1867
  334MOL0     C43989   4.202  -0.398   8.384  0.1159 -0.3172  0.1703
  334MOL0     C43990   4.230  -0.315   8.268  0.6183 -0.2511 -0.7848
  334MOL0     O43991   4.134  -0.302   8.171  0.5258  0.1113  0.0777
  334MOL0     C43992   4.001  -0.312   8.204  0.7135  0.1190  1.4002
  334MOL0     C43993   3.924  -0.226   8.103 -0.0544 -0.9062  1.1011
  334MOL0     C43994   3.775  -0.223   8.125  0.2259  0.2240  0.0944
  334MOL0     C43995   3.703  -0.355   8.134 -0.2206  0.4494  0.3828
  334MOL0     C43996   3.566  -0.345   8.187 -0.4148 -0.2277 -0.2077
  334MOL0     C43997   3.473  -0.476   8.174  0.3546 -0.2767 -0.2492
  334MOL0     C43998   3.523  -0.577   8.280 -0.2218  0.1602  0.3155
  334MOL0     C43999   3.416  -0.682   8.299  0.4187 -0.1779  0.0307
  334MOL0    Cl44000   3.396  -0.780   8.146  0.2460  0.1825 -0.2725
  334MOL0     C44001   4.350  -0.245   8.248 -1.0634 -0.3848  0.1540
  334MOL0     C44002   4.450  -0.263   8.335  0.7948  0.4347 -0.1269
  334MOL0     O44003   4.447  -0.362   8.737  0.1980  0.0417  0.7717
  334MOL0     C44004   4.763  -0.516   8.662  0.2846 -0.2840  0.5266
  334MOL0     C44005   4.883  -0.554   8.713  0.7439 -0.0350  0.3299
  334MOL0     N44006   5.581  -0.533   8.564 -0.2830 -0.1913 -0.3819
  334MOL0     N44007   5.591  -0.429   8.493  0.0334 -0.5105 -0.6669
  334MOL0     C44008   6.742  -0.110   8.455 -0.1415  1.0277 -0.1985
  334MOL0     C44009   6.876  -0.088   8.423 -0.1548 -0.1168 -0.1925
  334MOL0     C44010   7.225   0.182   8.225  0.5165  0.1460 -1.8407
  334MOL0     C44011   7.283   0.313   8.234 -0.8416  0.4052 -0.1640
  334MOL0     C44012   7.418   0.330   8.184 -0.1398 -0.3148  1.1509
  334MOL0     C44013   7.480   0.228   8.121 -0.0864  0.5439 -0.4696
  334MOL0     O44014   7.620   0.253   8.103  0.5251  0.4115 -0.0418
  334MOL0     C44015   7.703   0.150   8.042  0.1823  1.0806  0.8205
  334MOL0     C44016   7.847   0.201   8.028  0.1137  0.2553 -0.8709
  334MOL0     C44017   7.863   0.323   7.928  0.2664 -0.0732 -0.6971
  334MOL0     C44018   7.984   0.413   7.932 -0.1926  0.8412 -0.7349
  334MOL0     C44019   8.111   0.336   7.930  0.6668 -0.3057 -0.4790
  334MOL0     C44020   8.219   0.287   7.927  0.6654 -0.1324  0.2716
  334MOL0     C44021   7.414   0.105   8.115  0.0443  0.0913  0.0423
  334MOL0     C44022   7.287   0.079   8.165 -1.0278  0.2564  0.3137
  334MOL0     H44023   6.814   0.153   8.185 -2.9125  0.5003  0.5011
  334MOL0     H44024   6.586   0.126   8.257  1.3169 -0.1711 -1.3114
  334MOL0     H44025   6.397  -0.017   8.247  1.8654  2.8810 -0.3953
  334MOL0     H44026   6.383   0.079   8.397  0.0759 -0.9447  0.0296
  334MOL0     H44027   6.273  -0.093   8.505  2.2309  1.0711 -0.3776
  334MOL0     H44028   6.301  -0.218   8.386 -1.7449 -1.5418  2.0321
  334MOL0     H44029   6.153  -0.088   8.230 -1.2648  0.5043 -0.0849
  334MOL0     H44030   6.120   0.027   8.359 -1.8238 -1.0795  0.2851
  334MOL0     H44031   6.054  -0.263   8.343 -0.8040  1.0784  0.8558
  334MOL0     H44032   6.059  -0.177   8.495 -1.2542 -0.4796 -0.0452
  334MOL0     H44033   5.874  -0.162   8.273 -0.8818  0.6427 -0.0484
  334MOL0     H44034   5.901  -0.004   8.350 -1.1154  0.1859 -0.3311
  334MOL0     H44035   5.843  -0.095   8.567  2.2978 -2.3706  0.7785
  334MOL0     H44036   5.844  -0.256   8.506  2.9122 -0.7273 -2.4087
  334MOL0     H44037   5.645  -0.027   8.427  0.2790  0.0284 -1.3172
  334MOL0     H44038   5.647  -0.208   8.375 -0.6216 -0.9704  0.4539
  334MOL0     H44039   5.467  -0.175   8.525  0.9808 -3.6350 -3.9840
  334MOL0     H44040   5.587  -0.122   8.645 -0.9380  2.2874 -0.9315
  334MOL0     H44041   5.588  -0.311   8.798 -0.4102  0.8188 -0.7096
  334MOL0     H44042   5.525  -0.538   8.913  2.5852 -0.6618  1.5647
  334MOL0     H44043   5.610  -0.661   8.826  1.1491  2.0909  2.7919
  334MOL0     H44044   5.400  -0.746   8.828 -0.0900 -0.5310 -0.5773
  334MOL0     H44045   5.366  -0.647   8.686  2.3471 -1.0960 -0.7979
  334MOL0     H44046   5.266  -0.619   8.961  3.4480 -0.7784 -0.5280
  334MOL0     H44047   5.289  -0.465   8.871  0.4513  0.0118  1.0820
  334MOL0     H44048   5.115  -0.700   8.816  2.0662 -0.6828  0.0550
  334MOL0     H44049   5.141  -0.559   8.712 -0.3996  0.1376  0.6546
  334MOL0     H44050   4.860  -0.400   9.012 -0.6133 -0.5038  0.4207
  334MOL0     H44051   4.623  -0.351   8.909  1.0433  2.8773 -0.2490
  334MOL0     H44052   4.297  -0.480   8.558  0.0451  2.0663  0.1416
  334MOL0     H44053   4.109  -0.450   8.406 -0.5357  0.3753 -0.8796
  334MOL0     H44054   3.975  -0.280   8.305 -3.2507  0.2882  0.5087
  334MOL0     H44055   3.965  -0.414   8.184  0.3192  0.5645 -0.4409
  334MOL0     H44056   3.937  -0.268   8.003 -2.1624 -2.2895  1.3340
  334MOL0     H44057   3.962  -0.124   8.112 -1.0298 -0.6794  3.2709
  334MOL0     H44058   3.718  -0.160   8.056 -0.2046  1.3181  1.4096
  334MOL0     H44059   3.762  -0.178   8.224 -1.8448  0.7157 -0.3572
  334MOL0     H44060   3.702  -0.390   8.030  1.5352 -1.1301  0.8390
  334MOL0     H44061   3.754  -0.432   8.192  1.7410  1.9421  0.7570
  334MOL0     H44062   3.515  -0.266   8.131 -0.2539 -0.9685 -1.4370
  334MOL0     H44063   3.574  -0.302   8.287 -1.7726 -0.2742 -0.0575
  334MOL0     H44064   3.489  -0.515   8.074  0.3364 -1.9244  0.3613
  334MOL0     H44065   3.366  -0.456   8.189 -0.2914 -0.9266 -3.3488
  334MOL0     H44066   3.610  -0.632   8.244 -1.3014 -0.3046 -1.7634
  334MOL0     H44067   3.535  -0.530   8.378 -0.3619 -0.2046  0.5068
  334MOL0     H44068   3.319  -0.642   8.331  1.2269  1.0066  1.1073
  334MOL0     H44069   3.441  -0.748   8.383 -0.9804 -0.1071  0.5352
  334MOL0     H44070   4.368  -0.179   8.164  1.3762 -1.1710 -0.0249
  334MOL0     H44071   4.542  -0.210   8.316 -0.2961  1.3759 -3.4412
  334MOL0     H44072   4.714  -0.563   8.578 -0.7686  1.8544 -0.1312
  334MOL0     H44073   4.943  -0.629   8.662  0.1806  1.6894 -3.1274
  334MOL0     H44074   6.726  -0.184   8.533  4.3332 -0.8741 -0.8020
  334MOL0     H44075   6.952  -0.136   8.484  1.6056  2.9095  0.2076
  334MOL0     H44076   7.238   0.398   8.283  0.5297 -0.9624  3.8948
  334MOL0     H44077   7.466   0.427   8.179  0.3246 -0.4873  2.1224
  334MOL0     H44078   7.655   0.141   7.945  1.0510  0.0692  0.4645
  334MOL0     H44079   7.711   0.054   8.094 -0.0295  1.0400  0.7787
  334MOL0     H44080   7.869   0.243   8.126 -0.8259  5.4029 -2.5476
  334MOL0     H44081   7.910   0.114   8.006 -0.4263 -0.4441  0.2787
  334MOL0     H44082   7.782   0.393   7.951  1.5996  1.3780 -0.2213
  334MOL0     H44083   7.854   0.296   7.823  4.4101  1.1108 -1.5242
  334MOL0     H44084   7.984   0.466   7.836  0.1509  1.5014 -0.3726
  334MOL0     H44085   7.982   0.491   8.008  0.8092  4.0004 -3.6806
  334MOL0     H44086   8.312   0.239   7.905  0.6291  0.8928 -2.6045
  334MOL0     H44087   7.467   0.020   8.074  1.5557  0.4523  1.1651
  334MOL0     H44088   7.245  -0.021   8.173  0.9648 -0.7739 -1.2915
  335MOL0     O44089   2.339   0.800  10.249 -0.2207  0.1618 -0.0689
  335MOL0     C44090   2.406   0.695  10.230  0.2643  0.2841 -1.2266
  335MOL0     O44091   2.348   0.571  10.218  0.6283  0.0187  0.2647
  335MOL0     C44092   2.213   0.553  10.247  0.4506 -0.4590  0.2349
  335MOL0     C44093   2.140   0.457  10.172  0.1216  0.2906  0.1487
  335MOL0     C44094   2.005   0.430  10.199  0.3139  0.3149 -0.0659
  335MOL0     C44095   1.936   0.515  10.287 -0.0221  0.3187 -0.4877
  335MOL0     O44096   1.801   0.527  10.297 -0.0686 -0.7824  0.1641
  335MOL0     C44097   1.720   0.446  10.227  0.6681  0.9050  0.2110
  335MOL0     C44098   1.595   0.425  10.314  0.3693 -0.5611  1.5174
  335MOL0     C44099   1.472   0.366  10.238  0.2971  0.4579  0.7793
  335MOL0     C44100   1.368   0.471  10.189  0.2692  0.8370  0.1845
  335MOL0     C44101   1.249   0.405  10.114  0.2756  0.1652 -0.1450
  335MOL0     C44102   1.200   0.297  10.211  0.3162 -0.2584  0.5697
  335MOL0     C44103   1.045   0.282  10.204 -0.2410 -0.0483  0.7759
  335MOL0     C44104   1.000   0.177  10.310  0.2409 -0.1715  0.8516
  335MOL0     N44105   0.859   0.140  10.300 -0.2770 -0.5521 -0.0733
  335MOL0     C44106   0.764   0.231  10.268  0.4286  0.1962 -0.1754
  335MOL0     C44107   0.651   0.154  10.235 -0.0179  0.0984  0.0305
  335MOL0     C44108   0.511   0.193  10.191  0.4264  0.1406  0.2930
  335MOL0     C44109   0.410   0.137  10.293  0.3231  1.1415 -0.3369
  335MOL0     C44110   0.267   0.156  10.238  0.6415  0.4420 -0.1137
  335MOL0     C44111   0.175   0.066  10.327  0.4213  0.3819  0.1098
  335MOL0     O44112   0.043   0.068  10.271  0.2213 -0.8594  0.5580
  335MOL0     C44113  -0.066   0.072  10.352  0.3869  0.8883 -0.8463
  335MOL0     C44114  -0.190   0.127  10.306 -1.4276  0.7208 -0.0240
  335MOL0     C44115  -0.301   0.138  10.387  0.2829 -1.7015 -0.5667
  335MOL0     C44116  -0.304   0.090  10.518 -0.4100 -0.4085 -0.2413
  335MOL0     C44117  -0.421   0.110  10.606 -0.2571  0.1217 -0.2505
  335MOL0     O44118  -0.420   0.073  10.741  0.4135 -0.4055  0.3678
  335MOL0     C44119  -0.536   0.063  10.810 -0.5482 -0.2739 -0.1112
  335MOL0     C44120  -0.610  -0.058  10.803  0.0161 -0.7271  0.9806
  335MOL0     C44121  -0.726  -0.073  10.889 -0.8329  0.9915  0.0767
  335MOL0     C44122  -0.769   0.038  10.965  0.5341 -0.4044 -0.6152
  335MOL0     O44123  -0.881   0.034  11.039 -0.1195  0.9302 -0.0904
  335MOL0     C44124  -0.994   0.019  10.947  0.0649  0.1778 -0.0001
  335MOL0     C44125  -1.054   0.157  10.915 -0.4377 -0.0821 -0.2971
  335MOL0     C44126  -1.170   0.148  10.816 -0.3339  0.3907  0.1758
  335MOL0     C44127  -1.224   0.287  10.767 -0.4750 -0.1036  0.6732
  335MOL0     C44128  -1.319   0.264  10.643  1.0958  0.2429 -0.8299
  335MOL0     C44129  -1.443   0.189  10.684  0.0756 -0.3118  0.1817
  335MOL0     C44130  -1.545   0.215  10.575 -0.0651  1.1998  0.7066
  335MOL0     C44131  -1.682   0.162  10.621  0.5273  0.3305  0.4039
  335MOL0    Cl44132  -1.805   0.161  10.497  0.2607  1.0494  0.2135
  335MOL0     C44133  -0.694   0.152  10.982  0.7696 -0.3642 -0.2038
  335MOL0     C44134  -0.575   0.166  10.896  0.1364  0.8288  0.1388
  335MOL0     O44135  -0.522   0.145  10.547  0.3141  0.0958 -0.2863
  335MOL0     C44136  -0.186   0.039  10.572  0.3747  1.1862  0.1585
  335MOL0     C44137  -0.070   0.034  10.493  0.0854 -0.5097  0.1648
  335MOL0     N44138   0.684   0.021  10.259 -0.3715 -0.0327 -0.3825
  335MOL0     N44139   0.805   0.013  10.294  0.2873 -0.2197 -0.3566
  335MOL0     C44140   2.007   0.603  10.359 -0.4046 -0.7126  0.6067
  335MOL0     C44141   2.143   0.615  10.347 -1.2534 -0.6517 -0.2247
  335MOL0     C44142   2.557   0.715  10.239  0.7188  0.0490  0.0956
  335MOL0     C44143   2.629   0.838  10.245  0.5656 -0.8905  0.2205
  335MOL0     C44144   2.768   0.845  10.259 -0.4667 -0.6051  0.5225
  335MOL0     C44145   2.844   0.731  10.297 -0.3797  0.5254  1.1117
  335MOL0     O44146   2.977   0.720  10.308 -0.5832 -0.4388  0.0351
  335MOL0     C44147   3.051   0.841  10.314 -0.5067 -0.4409  0.3657
  335MOL0     C44148   3.193   0.811  10.349 -1.0290 -0.2897 -0.3222
  335MOL0     C44149   3.286   0.928  10.386 -0.1006  0.2549  0.6153
  335MOL0     C44150   3.275   1.052  10.289 -0.0773  0.0449 -0.1919
  335MOL0     C44151   3.183   1.150  10.342 -0.4306  0.2809  0.6708
  335MOL0     C44152   3.125   1.249  10.363  0.4199 -0.1993  0.0236
  335MOL0     C44153   2.772   0.612  10.281 -0.0465 -0.5903 -1.1783
  335MOL0     C44154   2.635   0.604  10.248 -0.0939 -0.0840  0.4909
  335MOL0     H44155   2.191   0.414  10.086 -1.8677 -1.6423 -0.1629
  335MOL0     H44156   1.958   0.352  10.140 -1.6297 -0.8881  2.8655
  335MOL0     H44157   1.767   0.356  10.184 -2.0310  0.6062 -2.4455
  335MOL0     H44158   1.680   0.494  10.138  2.5529  0.4037 -0.9682
  335MOL0     H44159   1.564   0.527  10.339 -0.7126 -1.1369  2.6655
  335MOL0     H44160   1.623   0.364  10.400 -2.0087 -2.3204  1.1584
  335MOL0     H44161   1.437   0.287  10.305  2.9370 -2.5440 -1.0986
  335MOL0     H44162   1.495   0.303  10.151  2.9303 -2.0518  3.0974
  335MOL0     H44163   1.323   0.515  10.279 -1.5833  2.3054 -1.3501
  335MOL0     H44164   1.414   0.544  10.121  0.8430 -0.2787 -0.6646
  335MOL0     H44165   1.276   0.364  10.016 -1.4536 -2.1182  0.2545
  335MOL0     H44166   1.168   0.475  10.095 -1.9968 -2.0757  0.7154
  335MOL0     H44167   1.211   0.336  10.313  2.1175 -1.1064  0.7459
  335MOL0     H44168   1.253   0.202  10.197 -0.0343 -0.5448  1.1600
  335MOL0     H44169   0.996   0.379  10.217 -1.8137 -0.7794  0.3947
  335MOL0     H44170   1.014   0.247  10.106 -0.5651  2.0961  0.0496
  335MOL0     H44171   1.021   0.206  10.413 -1.3174 -3.0070  2.0786
  335MOL0     H44172   1.067   0.090  10.302  2.1754  1.3810 -1.0081
  335MOL0     H44173   0.760   0.339  10.262  1.4669  0.2975  0.7702
  335MOL0     H44174   0.493   0.146  10.094 -3.2314 -0.5163  1.1262
  335MOL0     H44175   0.491   0.298  10.173  1.3394  0.3388  0.3924
  335MOL0     H44176   0.418   0.181  10.393 -0.2060  4.1695 -1.5500
  335MOL0     H44177   0.431   0.030  10.306  0.5162  0.8026 -2.9705
  335MOL0     H44178   0.241   0.262  10.251  3.2929  1.1469 -0.1015
  335MOL0     H44179   0.255   0.120  10.135 -1.5779 -0.2108  0.3243
  335MOL0     H44180   0.168   0.101  10.431 -3.6270  0.6477 -0.1269
  335MOL0     H44181   0.213  -0.037  10.324  0.0110  0.1743  1.3574
  335MOL0     H44182  -0.193   0.161  10.203 -0.1219 -1.2305 -0.7614
  335MOL0     H44183  -0.394   0.170  10.343  0.0199 -2.1583 -0.3490
  335MOL0     H44184  -0.580  -0.135  10.732 -1.3045 -0.0149 -0.4099
  335MOL0     H44185  -0.784  -0.164  10.881 -0.4469  0.8096 -0.6580
  335MOL0     H44186  -1.057  -0.049  11.004  1.7850 -0.3551  1.3801
  335MOL0     H44187  -0.965  -0.040  10.859  1.1941  1.0107 -0.2091
  335MOL0     H44188  -0.981   0.222  10.868  2.6655 -2.3896  0.9882
  335MOL0     H44189  -1.086   0.212  11.005 -0.2472  0.6131 -0.6448
  335MOL0     H44190  -1.249   0.093  10.869 -0.8566 -1.2614 -2.1564
  335MOL0     H44191  -1.131   0.089  10.732 -4.0965 -1.8150 -0.2508
  335MOL0     H44192  -1.278   0.340  10.845 -1.1801  2.7971 -1.5859
  335MOL0     H44193  -1.149   0.358  10.729 -1.6182  0.4641 -0.6175
  335MOL0     H44194  -1.267   0.201  10.569  1.2120 -1.3993  0.5878
  335MOL0     H44195  -1.341   0.357  10.591  1.3308  0.7836  0.0244
  335MOL0     H44196  -1.486   0.227  10.777 -0.5062  2.9393 -1.2643
  335MOL0     H44197  -1.426   0.085  10.712 -0.5163 -0.3336  0.4734
  335MOL0     H44198  -1.554   0.324  10.577  1.7969  1.4092  3.4694
  335MOL0     H44199  -1.517   0.159  10.486 -0.4076 -1.7511  2.3324
  335MOL0     H44200  -1.718   0.219  10.707  2.4940  2.3262 -0.0091
  335MOL0     H44201  -1.648   0.065  10.660  0.8709 -0.5392 -1.8683
  335MOL0     H44202  -0.743   0.220  11.050 -1.7830 -0.5140 -1.7467
  335MOL0     H44203  -0.504   0.247  10.905 -1.5514  2.1809  2.8027
  335MOL0     H44204  -0.175  -0.011  10.668  3.7164  0.2683 -0.5491
  335MOL0     H44205   0.021  -0.004  10.539 -0.5979  0.4233  2.4564
  335MOL0     H44206   1.958   0.681  10.417  1.3387  1.8141 -1.0818
  335MOL0     H44207   2.187   0.694  10.407 -1.0182 -0.2214 -0.9585
  335MOL0     H44208   2.587   0.938  10.239  2.9821  0.1149 -1.1342
  335MOL0     H44209   2.819   0.940  10.271 -0.5958 -0.5581  0.7206
  335MOL0     H44210   3.020   0.915  10.389 -0.3877  1.0232 -0.9942
  335MOL0     H44211   3.043   0.894  10.219 -0.4721 -1.5374 -0.2744
  335MOL0     H44212   3.196   0.738  10.430  0.9734 -1.5074 -1.3973
  335MOL0     H44213   3.243   0.774  10.259  2.4082  3.5613 -0.2762
  335MOL0     H44214   3.390   0.893  10.387 -0.9800 -2.7117  3.0791
  335MOL0     H44215   3.263   0.950  10.490 -1.9244  2.0192 -0.1171
  335MOL0     H44216   3.374   1.095  10.268  0.7046 -1.8095 -0.5321
  335MOL0     H44217   3.227   1.027  10.194  1.4048 -2.1894 -0.4296
  335MOL0     H44218   3.082   1.342  10.397 -0.3594 -0.6625  0.3451
  335MOL0     H44219   2.823   0.517  10.293  0.7722  0.1214  2.3997
  335MOL0     H44220   2.604   0.501  10.233  2.1026 -0.9519  1.4685
  336MOL0     O44221   7.143   8.439   5.244 -0.1416  0.6423  0.1850
  336MOL0     C44222   7.168   8.542   5.303  0.8255 -0.8897  0.0228
  336MOL0     O44223   7.084   8.614   5.379  0.5212 -0.2412  0.1054
  336MOL0     C44224   6.944   8.627   5.346 -0.4682  0.6589 -0.6159
  336MOL0     C44225   6.897   8.621   5.209 -0.5088  0.6796  0.4561
  336MOL0     C44226   6.765   8.657   5.181  0.6756  0.1447 -0.5262
  336MOL0     C44227   6.679   8.712   5.287  0.1380 -0.3632  0.2837
  336MOL0     O44228   6.555   8.767   5.272  0.3424  0.6614 -0.0416
  336MOL0     C44229   6.553   8.891   5.197 -0.8414 -0.7174 -0.7157
  336MOL0     C44230   6.420   8.951   5.203 -0.1647 -0.3695 -0.1474
  336MOL0     C44231   6.310   8.878   5.144 -0.1341  0.4674  0.4298
  336MOL0     C44232   6.182   8.947   5.134 -0.3297 -0.2146  0.6432
  336MOL0     C44233   6.062   8.846   5.124  1.0428 -0.2640 -0.3718
  336MOL0     C44234   5.933   8.922   5.069  0.2342 -0.3195  0.4708
  336MOL0     C44235   5.890   9.028   5.172  0.8396 -0.1696 -0.0215
  336MOL0     C44236   5.743   9.042   5.148  0.6696 -0.4030  0.5520
  336MOL0     N44237   5.686   9.144   5.242 -0.5934  0.4463 -0.6387
  336MOL0     C44238   5.641   9.139   5.370 -0.4876 -0.6856  1.1003
  336MOL0     C44239   5.628   9.266   5.412 -0.1683  0.6450  0.8006
  336MOL0     C44240   5.600   9.312   5.546  0.1005  0.0562 -0.0989
  336MOL0     C44241   5.454   9.317   5.588 -0.2133  0.3745  0.5001
  336MOL0     C44242   5.392   9.459   5.559  0.7059 -0.8366  0.4410
  336MOL0     C44243   5.243   9.474   5.570 -1.1486 -0.8087  0.3932
  336MOL0     O44244   5.190   9.402   5.459 -0.1147 -0.2934 -1.2038
  336MOL0     C44245   5.056   9.418   5.437 -0.4600 -0.1690  0.1550
  336MOL0     C44246   4.962   9.476   5.524  0.0740 -0.0459 -0.3680
  336MOL0     C44247   4.828   9.466   5.503 -0.3755  0.1472  0.0120
  336MOL0     C44248   4.776   9.389   5.396 -0.4692  1.0440  0.0015
  336MOL0     C44249   4.629   9.367   5.371  0.7221 -0.1993  0.1242
  336MOL0     O44250   4.548   9.379   5.476 -0.3688 -0.2695  0.2659
  336MOL0     C44251   4.415   9.370   5.450  0.2149  0.2336 -0.0932
  336MOL0     C44252   4.330   9.415   5.351 -0.1484 -1.8306 -0.6018
  336MOL0     C44253   4.185   9.399   5.362  0.0483 -0.0559  1.5963
  336MOL0     C44254   4.133   9.334   5.471 -0.0355  0.8271  0.2964
  336MOL0     O44255   3.996   9.314   5.474 -0.3689 -0.1466  0.1955
  336MOL0     C44256   3.940   9.198   5.541 -0.1392 -0.1113 -0.2018
  336MOL0     C44257   3.805   9.178   5.492  0.3519  0.0826 -0.3627
  336MOL0     C44258   3.700   9.253   5.568  1.1976 -0.4281 -0.4024
  336MOL0     C44259   3.731   9.406   5.572 -0.6476 -0.0422  0.9291
  336MOL0     C44260   3.597   9.466   5.638 -0.2058 -0.8544  0.1224
  336MOL0     C44261   3.583   9.622   5.622  0.6111  0.2966  0.0212
  336MOL0     C44262   3.512   9.663   5.487 -0.3988 -0.2155  0.1842
  336MOL0     C44263   3.444   9.805   5.506  0.5129 -0.4969  0.6970
  336MOL0    Cl44264   3.268   9.797   5.572  0.0630 -0.8213 -0.2583
  336MOL0     C44265   4.216   9.289   5.573 -0.1354 -0.0435  0.2168
  336MOL0     C44266   4.353   9.314   5.560  0.7137 -0.2745 -0.5048
  336MOL0     O44267   4.591   9.340   5.250 -0.3861  0.1888 -0.7061
  336MOL0     C44268   4.870   9.338   5.307  0.0854  0.4116 -0.0159
  336MOL0     C44269   5.005   9.343   5.332  0.2107  0.1136 -0.4292
  336MOL0     N44270   5.649   9.349   5.306  0.4925 -0.1741  0.1350
  336MOL0     N44271   5.687   9.276   5.203 -0.2145 -0.2641 -0.9083
  336MOL0     C44272   6.726   8.710   5.418 -0.0112 -0.6898 -1.1328
  336MOL0     C44273   6.862   8.681   5.445  0.2917 -0.5713  0.5737
  336MOL0     C44274   7.323   8.568   5.309 -0.2817  0.4828 -0.0610
  336MOL0     C44275   7.411   8.506   5.220  0.7550 -0.5480 -0.1714
  336MOL0     C44276   7.552   8.525   5.227  0.4555 -0.0564 -0.1983
  336MOL0     C44277   7.599   8.609   5.318 -0.3619 -0.2063  0.8461
  336MOL0     O44278   7.729   8.620   5.345 -0.0327  0.0982 -0.0412
  336MOL0     C44279   7.830   8.565   5.270  0.3359 -0.5769 -1.1034
  336MOL0     C44280   7.968   8.610   5.313  0.3723 -0.5670  1.1097
  336MOL0     C44281   7.985   8.755   5.299 -0.4972  0.3146  0.0849
  336MOL0     C44282   8.063   8.779   5.162  0.3749 -0.5986 -1.6033
  336MOL0     C44283   8.203   8.748   5.157  0.2551  0.3055 -0.1911
  336MOL0     C44284   8.323   8.721   5.157  0.2222  0.6255  1.0320
  336MOL0     C44285   7.514   8.657   5.416 -0.6292 -0.2261  0.0501
  336MOL0     C44286   7.375   8.649   5.409  0.3939  0.7681  0.5478
  336MOL0     H44287   6.962   8.598   5.125  2.3562 -1.6739  3.0584
  336MOL0     H44288   6.724   8.650   5.080  0.3404  3.4010 -0.7285
  336MOL0     H44289   6.580   8.872   5.092  1.0279  1.3022 -0.6607
  336MOL0     H44290   6.613   8.963   5.253  0.2960 -0.7553 -1.8347
  336MOL0     H44291   6.441   9.052   5.167  1.0015  0.2376  2.0980
  336MOL0     H44292   6.390   8.964   5.307  0.3042 -0.4840  0.0036
  336MOL0     H44293   6.294   8.787   5.203 -1.2419 -0.0228 -0.5685
  336MOL0     H44294   6.349   8.853   5.045  0.6018  2.2699  0.2295
  336MOL0     H44295   6.176   9.009   5.224  1.4550  1.8827 -0.5899
  336MOL0     H44296   6.188   9.011   5.046  3.0336  0.6008  1.3240
  336MOL0     H44297   6.045   8.814   5.227  1.1360 -0.4435 -0.4109
  336MOL0     H44298   6.091   8.760   5.062  1.3885 -0.5528  0.1884
  336MOL0     H44299   5.863   8.843   5.042 -0.3097 -0.0263  0.9957
  336MOL0     H44300   5.954   8.974   4.975 -1.6981 -1.5218 -0.7040
  336MOL0     H44301   5.908   9.006   5.277  0.8190 -0.8579 -0.1564
  336MOL0     H44302   5.934   9.127   5.156  0.9535  0.2158  2.4098
  336MOL0     H44303   5.696   8.948   5.179 -0.2234 -0.6403 -1.3839
  336MOL0     H44304   5.732   9.073   5.044  2.7281  1.5829  0.8398
  336MOL0     H44305   5.615   9.045   5.418 -3.1282 -0.9369 -0.6146
  336MOL0     H44306   5.632   9.416   5.564 -0.0116  0.1825 -0.6162
  336MOL0     H44307   5.656   9.253   5.619 -1.0646  1.0465  1.6961
  336MOL0     H44308   5.455   9.291   5.694 -2.8963 -2.3099  0.0094
  336MOL0     H44309   5.404   9.239   5.529 -0.4401  0.3822  0.6833
  336MOL0     H44310   5.439   9.519   5.637  2.5251 -0.0595 -1.2009
  336MOL0     H44311   5.421   9.500   5.462 -0.5230  2.5611  1.3552
  336MOL0     H44312   5.233   9.583   5.563  0.7317 -0.6941 -1.8294
  336MOL0     H44313   5.201   9.436   5.663 -1.4093 -2.9086 -0.5091
  336MOL0     H44314   4.988   9.524   5.618  0.8449 -2.1635  0.5726
  336MOL0     H44315   4.756   9.506   5.573 -0.4422 -0.3782  0.2492
  336MOL0     H44316   4.387   9.445   5.264  1.9387 -1.1199  0.9353
  336MOL0     H44317   4.117   9.432   5.285 -0.3323 -0.2869  1.8308
  336MOL0     H44318   3.948   9.202   5.650 -0.4141 -1.1483 -0.1348
  336MOL0     H44319   3.997   9.109   5.513  2.3862  1.4139 -0.2102
  336MOL0     H44320   3.790   9.070   5.496 -2.1566  0.3572 -0.3782
  336MOL0     H44321   3.792   9.201   5.386 -2.8241 -2.2362 -0.6125
  336MOL0     H44322   3.706   9.219   5.671  1.6579  0.2973 -0.1853
  336MOL0     H44323   3.601   9.229   5.526  1.9424 -3.5953 -0.5929
  336MOL0     H44324   3.817   9.437   5.633 -0.8614 -1.2044  1.8445
  336MOL0     H44325   3.725   9.448   5.471 -3.3637  0.1517  1.0957
  336MOL0     H44326   3.608   9.452   5.746  1.2529 -2.6909 -0.2267
  336MOL0     H44327   3.512   9.407   5.604 -1.6295  0.4708  1.2123
  336MOL0     H44328   3.684   9.665   5.618 -0.2748  2.3933 -1.5901
  336MOL0     H44329   3.532   9.663   5.710  1.2532 -0.9943  1.0370
  336MOL0     H44330   3.595   9.665   5.416 -0.5986 -1.7376 -0.1229
  336MOL0     H44331   3.437   9.590   5.456 -0.1035 -0.1961 -0.5977
  336MOL0     H44332   3.434   9.850   5.407 -1.6564 -1.7170  0.2870
  336MOL0     H44333   3.510   9.865   5.568 -0.5669  0.7522  0.6727
  336MOL0     H44334   4.182   9.236   5.661 -2.1843  1.2486  0.2625
  336MOL0     H44335   4.408   9.272   5.643 -2.0455  0.1289  1.6671
  336MOL0     H44336   4.834   9.289   5.217 -1.8322 -1.3282  1.5979
  336MOL0     H44337   5.060   9.282   5.261 -2.5158 -1.0022 -1.7350
  336MOL0     H44338   6.660   8.724   5.503 -0.6168 -0.5467 -1.6208
  336MOL0     H44339   6.895   8.697   5.548 -0.3214 -0.8857  0.8207
  336MOL0     H44340   7.369   8.432   5.153 -1.3652  0.2781  0.1861
  336MOL0     H44341   7.622   8.471   5.164  1.4359 -2.0868  2.4746
  336MOL0     H44342   7.807   8.583   5.164 -1.1589  1.0731 -0.5656
  336MOL0     H44343   7.832   8.460   5.298  1.0787 -0.4659 -0.7237
  336MOL0     H44344   7.979   8.582   5.418  2.3476 -0.0117  1.0940
  336MOL0     H44345   8.041   8.554   5.254  0.6196 -0.8124  1.6435
  336MOL0     H44346   8.058   8.789   5.373  3.0423 -2.3667 -1.8081
  336MOL0     H44347   7.896   8.819   5.298  0.6979  2.1596 -2.5603
  336MOL0     H44348   8.004   8.723   5.089 -1.3739 -3.3330  1.5955
  336MOL0     H44349   8.070   8.881   5.125  2.4646 -0.8523 -2.0027
  336MOL0     H44350   8.426   8.691   5.161  0.6582  2.0209  0.6148
  336MOL0     H44351   7.554   8.728   5.488  0.8783 -0.9837 -0.0242
  336MOL0     H44352   7.320   8.692   5.492  1.1555  1.4597  0.7069
  337MOL0     O44353   6.608   4.725   4.458  0.1122  0.0204  0.0407
  337MOL0     C44354   6.654   4.806   4.539  0.0048  0.1290 -0.1494
  337MOL0     O44355   6.596   4.930   4.566  0.1827  0.2073  0.0477
  337MOL0     C44356   6.488   4.954   4.493 -0.1934 -0.3154  0.7154
  337MOL0     C44357   6.493   5.055   4.400  0.8770  0.1209  0.4576
  337MOL0     C44358   6.387   5.105   4.323  0.8591 -0.1706  0.2809
  337MOL0     C44359   6.262   5.043   4.348 -0.1801  1.0168  0.7928
  337MOL0     O44360   6.148   5.109   4.295  0.5293 -0.1015 -0.6988
  337MOL0     C44361   6.018   5.081   4.347  0.1001 -0.4383 -0.3598
  337MOL0     C44362   5.899   5.129   4.263  0.0828  0.0324  0.4891
  337MOL0     C44363   5.773   5.068   4.313  0.7799  0.8921  0.5027
  337MOL0     C44364   5.655   5.085   4.220  0.3305  0.0798 -0.0678
  337MOL0     C44365   5.523   5.003   4.261 -0.3592  0.4284 -0.1996
  337MOL0     C44366   5.415   4.998   4.149  0.0774 -0.5810 -0.9579
  337MOL0     C44367   5.327   5.122   4.155  0.0923 -0.4421  0.7783
  337MOL0     C44368   5.248   5.142   4.021 -0.2892 -0.1300 -0.5280
  337MOL0     N44369   5.164   5.025   3.985  0.0369 -0.3476  0.0906
  337MOL0     C44370   5.072   4.957   4.061  0.5642  0.5005 -0.6890
  337MOL0     C44371   4.998   4.879   3.977  0.3821  0.0081  0.0373
  337MOL0     C44372   4.892   4.792   4.013  0.7339  0.1494 -0.1718
  337MOL0     C44373   4.777   4.762   3.913 -0.0052  0.5810 -0.5912
  337MOL0     C44374   4.645   4.712   3.985  0.3084  0.2925  0.5306
  337MOL0     C44375   4.519   4.715   3.886  0.2585  0.7211 -0.6310
  337MOL0     O44376   4.492   4.844   3.842 -0.8003 -0.4721  0.0258
  337MOL0     C44377   4.374   4.872   3.789  0.8667 -0.3155 -0.7779
  337MOL0     C44378   4.302   4.785   3.708  0.3338 -0.0901  0.0290
  337MOL0     C44379   4.182   4.817   3.648 -1.0532  0.3478  0.0734
  337MOL0     C44380   4.125   4.944   3.665 -0.7138 -0.6043  0.9014
  337MOL0     C44381   3.999   4.981   3.605  0.8332 -0.3890  0.2448
  337MOL0     O44382   3.933   4.886   3.529  0.1567  1.1621 -0.1457
  337MOL0     C44383   3.810   4.922   3.479  0.5524  0.1204  0.3835
  337MOL0     C44384   3.809   4.991   3.355  0.1615 -0.2639  1.3237
  337MOL0     C44385   3.692   5.030   3.289  0.0963 -1.0248  0.2580
  337MOL0     C44386   3.569   5.024   3.354 -0.0124  0.1374 -0.2468
  337MOL0     O44387   3.466   5.102   3.298 -0.1162 -0.1830 -0.0211
  337MOL0     C44388   3.354   5.125   3.370  0.5087  0.1735  0.7456
  337MOL0     C44389   3.257   5.232   3.307 -1.3736  0.2677  0.5341
  337MOL0     C44390   3.166   5.182   3.197 -0.8503  1.0512  1.1164
  337MOL0     C44391   3.046   5.272   3.178 -0.1823 -0.5123  0.1095
  337MOL0     C44392   2.947   5.206   3.081 -0.2974 -0.3752  0.2333
  337MOL0     C44393   2.814   5.285   3.066 -0.6525  0.6514  0.3229
  337MOL0     C44394   2.718   5.231   2.957 -0.2743  0.3073  0.0895
  337MOL0     C44395   2.591   5.317   2.959 -0.9755 -0.4574  0.3513
  337MOL0    Cl44396   2.486   5.275   3.096 -0.4171 -0.6291  0.1827
  337MOL0     C44397   3.568   4.955   3.476  0.9625  0.2102  0.2077
  337MOL0     C44398   3.678   4.904   3.537 -0.6804  0.1889  0.0244
  337MOL0     O44399   3.948   5.092   3.636 -0.4195 -0.6743  0.0602
  337MOL0     C44400   4.204   5.035   3.755  0.1340 -0.6464  0.0834
  337MOL0     C44401   4.320   4.999   3.813  0.3926  0.5376 -0.2082
  337MOL0     N44402   5.050   4.905   3.848  0.8283 -0.9866 -0.0156
  337MOL0     N44403   5.151   4.985   3.858 -0.1905 -0.5011  0.5397
  337MOL0     C44404   6.258   4.931   4.435 -0.4190  0.0490 -0.4910
  337MOL0     C44405   6.368   4.888   4.505  0.9155  0.2009 -0.6654
  337MOL0     C44406   6.780   4.758   4.611 -0.3448 -1.7410 -1.5725
  337MOL0     C44407   6.867   4.670   4.554 -0.5239 -0.4388  0.7026
  337MOL0     C44408   6.983   4.625   4.624 -0.3784  1.2160  0.3831
  337MOL0     C44409   7.002   4.678   4.749 -0.0568 -0.5385 -0.4022
  337MOL0     O44410   7.106   4.633   4.826  0.3600 -0.1742 -1.2808
  337MOL0     C44411   7.235   4.604   4.767 -0.2196  0.0858  0.3501
  337MOL0     C44412   7.342   4.605   4.879  0.2668 -0.0870  0.0430
  337MOL0     C44413   7.480   4.629   4.816  0.2194 -0.4674 -0.0880
  337MOL0     C44414   7.578   4.670   4.928  0.0425  0.5686  0.3031
  337MOL0     C44415   7.708   4.700   4.872  0.1123 -0.3092 -0.0712
  337MOL0     C44416   7.817   4.702   4.830  0.2169  0.7318 -0.5146
  337MOL0     C44417   6.913   4.770   4.808  0.5641  0.5805 -0.9725
  337MOL0     C44418   6.804   4.808   4.741  0.6416  1.2587 -0.6575
  337MOL0     H44419   6.587   5.109   4.387 -0.3756  2.0979 -0.9430
  337MOL0     H44420   6.373   5.197   4.268 -0.1214 -0.0017  0.7887
  337MOL0     H44421   6.011   5.132   4.444 -0.7931  2.6019 -1.9034
  337MOL0     H44422   6.004   4.972   4.342 -4.5903 -0.0315 -0.1170
  337MOL0     H44423   5.912   5.107   4.156  0.3582  2.5355 -0.0520
  337MOL0     H44424   5.888   5.238   4.254 -1.9578 -0.1840 -0.4135
  337MOL0     H44425   5.764   5.103   4.416  3.0362 -0.9363  1.4108
  337MOL0     H44426   5.776   4.959   4.305  1.2054  1.0162 -2.3388
  337MOL0     H44427   5.646   5.193   4.204 -2.7337  0.0833  1.0350
  337MOL0     H44428   5.692   5.054   4.122  2.1205  3.6825 -0.7099
  337MOL0     H44429   5.477   5.033   4.355 -0.7213 -3.0801  0.9147
  337MOL0     H44430   5.557   4.900   4.278 -1.3412  0.3982  1.8784
  337MOL0     H44431   5.351   4.910   4.161 -0.6450 -0.2557 -2.2136
  337MOL0     H44432   5.472   5.003   4.056  2.8907 -0.6923  0.6517
  337MOL0     H44433   5.248   5.112   4.230  1.8058 -2.1625  2.4912
  337MOL0     H44434   5.388   5.208   4.184  2.6896 -1.0152 -2.3686
  337MOL0     H44435   5.320   5.161   3.942  1.5957 -0.6648  0.9735
  337MOL0     H44436   5.178   5.223   4.042 -0.9522 -0.9974  0.7989
  337MOL0     H44437   5.049   4.962   4.167  0.3312  3.5642 -0.7980
  337MOL0     H44438   4.850   4.845   4.099  1.9602  0.8259  0.0311
  337MOL0     H44439   4.920   4.690   4.042 -3.0431 -0.4525  1.9998
  337MOL0     H44440   4.811   4.675   3.854 -0.2356 -0.6526  1.0365
  337MOL0     H44441   4.748   4.844   3.847 -2.6143  0.0221 -0.2296
  337MOL0     H44442   4.664   4.611   4.021  1.2115  1.2594  2.9654
  337MOL0     H44443   4.621   4.771   4.074 -1.5943 -1.6256  1.3539
  337MOL0     H44444   4.431   4.667   3.931  0.9085  1.4568  1.5675
  337MOL0     H44445   4.542   4.663   3.793 -2.3009  2.3228 -2.2622
  337MOL0     H44446   4.347   4.688   3.689  2.1498  0.7024  0.0737
  337MOL0     H44447   4.137   4.740   3.586  2.1614  0.6341 -2.9056
  337MOL0     H44448   3.909   5.014   3.319  0.4494  3.6439  3.9973
  337MOL0     H44449   3.699   5.085   3.196 -0.3870 -0.4482  0.5614
  337MOL0     H44450   3.380   5.163   3.469 -1.3407 -0.0147  1.3452
  337MOL0     H44451   3.306   5.028   3.388  3.9948 -1.3498  2.7378
  337MOL0     H44452   3.333   5.306   3.280  1.5061 -2.2949  0.9222
  337MOL0     H44453   3.197   5.281   3.384 -2.0890 -1.2518  0.9811
  337MOL0     H44454   3.129   5.083   3.227  3.6346 -1.2752 -0.2073
  337MOL0     H44455   3.220   5.163   3.105  0.4010 -1.0218  2.2133
  337MOL0     H44456   2.998   5.282   3.276  5.2137  1.0200  3.0014
  337MOL0     H44457   3.058   5.368   3.129  0.3700 -1.9965 -2.8763
  337MOL0     H44458   2.912   5.109   3.117  0.9728  0.4392  4.1167
  337MOL0     H44459   3.002   5.187   2.988 -0.8371  1.6505 -0.5516
  337MOL0     H44460   2.845   5.389   3.056 -1.7451  0.9920  0.3938
  337MOL0     H44461   2.758   5.282   3.160  2.8490  2.6846  2.7335
  337MOL0     H44462   2.769   5.224   2.861 -0.5464 -1.9021  0.0557
  337MOL0     H44463   2.689   5.128   2.980  0.3734  0.2065  0.4954
  337MOL0     H44464   2.541   5.301   2.863  0.0006 -1.5733  0.0079
  337MOL0     H44465   2.613   5.424   2.954 -0.4979 -0.6099 -1.7944
  337MOL0     H44466   3.473   4.929   3.522  1.9778  0.0777  2.3355
  337MOL0     H44467   3.657   4.852   3.630 -1.8093  0.7820  0.1195
  337MOL0     H44468   4.176   5.139   3.765 -1.6610 -1.0033 -0.8957
  337MOL0     H44469   4.366   5.078   3.870 -0.5052  0.0206  1.2879
  337MOL0     H44470   6.170   4.873   4.461  0.9286 -2.1718 -0.6671
  337MOL0     H44471   6.362   4.811   4.582 -0.5255  2.9893  2.2372
  337MOL0     H44472   6.848   4.662   4.447  0.3493 -0.2827  0.5199
  337MOL0     H44473   7.053   4.551   4.587  1.9310  2.3811  2.1920
  337MOL0     H44474   7.265   4.680   4.695  0.9315 -0.5748  0.1115
  337MOL0     H44475   7.224   4.505   4.722 -0.6891  0.4245 -0.2958
  337MOL0     H44476   7.326   4.686   4.952 -0.9964  0.6089 -0.9643
  337MOL0     H44477   7.329   4.514   4.939 -1.1339  0.0988  0.0645
  337MOL0     H44478   7.488   4.704   4.736 -0.0419  0.7561  1.0053
  337MOL0     H44479   7.518   4.537   4.769  0.2567 -0.4221 -0.1470
  337MOL0     H44480   7.535   4.755   4.980 -0.3411 -0.2272  1.3311
  337MOL0     H44481   7.573   4.585   4.997 -2.8977 -1.0863 -1.7238
  337MOL0     H44482   7.914   4.727   4.793  1.0305 -0.2960  0.8118
  337MOL0     H44483   6.933   4.819   4.903  0.7871 -0.1270 -0.6461
  337MOL0     H44484   6.728   4.871   4.786 -0.7346  0.1312 -1.3397
  338MOL0     O44485   0.655   4.211   7.697  0.2991 -0.0432  0.8126
  338MOL0     C44486   0.713   4.100   7.685 -0.2237 -0.1524  0.2275
  338MOL0     O44487   0.803   4.044   7.779 -0.3422 -0.9429  0.1770
  338MOL0     C44488   0.841   4.115   7.890  0.5663  0.8583 -0.2714
  338MOL0     C44489   0.746   4.144   7.988 -1.0606  0.5971  0.2535
  338MOL0     C44490   0.778   4.217   8.099  0.1503  0.5386 -0.2186
  338MOL0     C44491   0.906   4.269   8.120 -0.5198 -0.3488  0.1680
  338MOL0     O44492   0.952   4.324   8.238 -0.0552  0.4892  0.2516
  338MOL0     C44493   1.072   4.391   8.240 -0.1118 -0.5861 -0.2414
  338MOL0     C44494   1.107   4.432   8.387  0.4966  0.2468  0.7791
  338MOL0     C44495   1.041   4.564   8.432  0.3567 -0.1002 -0.9208
  338MOL0     C44496   1.086   4.603   8.575  0.6972  0.0372 -0.3420
  338MOL0     C44497   1.053   4.751   8.596  0.3741  0.2056 -0.9600
  338MOL0     C44498   1.069   4.806   8.740 -0.5420 -0.3260  0.3991
  338MOL0     C44499   1.210   4.779   8.797  0.0363 -0.4143 -0.7531
  338MOL0     C44500   1.250   4.888   8.900  1.1686  0.6402 -0.9034
  338MOL0     N44501   1.165   4.859   9.032  0.5281 -0.0321 -0.1494
  338MOL0     C44502   1.060   4.936   9.076  0.3179 -0.2774 -0.3281
  338MOL0     C44503   1.032   4.891   9.202 -0.7260 -0.6647 -0.0233
  338MOL0     C44504   0.938   4.962   9.294  1.0177  0.2085 -0.2375
  338MOL0     C44505   0.794   4.897   9.277  0.2883  0.4929  0.1214
  338MOL0     C44506   0.703   4.944   9.387 -0.5423  0.3772 -0.2400
  338MOL0     C44507   0.566   4.952   9.337 -0.4668  0.5414 -0.2416
  338MOL0     O44508   0.478   4.975   9.445  0.1241 -0.2020  0.2267
  338MOL0     C44509   0.350   4.995   9.416  0.6763  0.3969  0.4383
  338MOL0     C44510   0.289   5.026   9.295 -0.1331 -0.5685 -0.5235
  338MOL0     C44511   0.154   5.055   9.281  1.4899  0.4207 -0.5781
  338MOL0     C44512   0.079   5.075   9.407 -0.0572 -0.3421  0.8317
  338MOL0     C44513  -0.065   5.119   9.412 -0.2229 -0.2279 -0.2857
  338MOL0     O44514  -0.128   5.119   9.535  0.0704 -0.3041  1.0794
  338MOL0     C44515  -0.252   5.187   9.535 -0.1321  0.3024  0.2848
  338MOL0     C44516  -0.272   5.313   9.480  0.2043  0.1600 -0.9039
  338MOL0     C44517  -0.389   5.387   9.498  0.2845  0.2574  0.1088
  338MOL0     C44518  -0.493   5.338   9.574  0.3468  0.4868  0.2391
  338MOL0     O44519  -0.616   5.399   9.565  0.2766 -0.0078  0.4845
  338MOL0     C44520  -0.739   5.330   9.589 -0.6066 -0.5338  0.0513
  338MOL0     C44521  -0.836   5.440   9.565 -0.5265  0.1755 -0.2050
  338MOL0     C44522  -0.973   5.391   9.619 -0.2067 -0.3666 -0.3927
  338MOL0     C44523  -1.069   5.504   9.611  0.4917 -0.4918 -0.4410
  338MOL0     C44524  -1.212   5.458   9.620  0.2492 -0.3173 -0.3223
  338MOL0     C44525  -1.255   5.432   9.769  1.1598  0.6757 -0.2510
  338MOL0     C44526  -1.281   5.561   9.851  0.8728 -0.1770 -0.8662
  338MOL0     C44527  -1.170   5.593   9.951 -0.1206 -0.9023 -1.2122
  338MOL0    Cl44528  -1.172   5.766   9.999  0.4885 -0.3917 -0.0859
  338MOL0     C44529  -0.470   5.211   9.623  0.0209 -0.6763 -0.6527
  338MOL0     C44530  -0.354   5.137   9.617  0.0640  0.6079 -0.1229
  338MOL0     O44531  -0.121   5.143   9.303  0.4227 -0.8978 -0.2189
  338MOL0     C44532   0.135   5.033   9.525  0.2228  0.4967 -0.0922
  338MOL0     C44533   0.265   4.996   9.529 -0.4308 -0.1666 -0.0401
  338MOL0     N44534   1.131   4.797   9.235  0.3214 -1.0150  0.4720
  338MOL0     N44535   1.202   4.774   9.127 -0.4315  0.0805 -0.4577
  338MOL0     C44536   0.996   4.256   8.013 -0.0740 -0.6026 -1.0319
  338MOL0     C44537   0.960   4.177   7.900 -1.0382  0.0535 -0.3268
  338MOL0     C44538   0.702   4.026   7.555 -0.2492  1.2744  0.0150
  338MOL0     C44539   0.765   3.905   7.530  0.2483  0.8894 -0.1481
  338MOL0     C44540   0.752   3.837   7.411 -0.5786  0.4010  0.6344
  338MOL0     C44541   0.670   3.888   7.316  0.1114 -0.0921  1.0430
  338MOL0     O44542   0.651   3.803   7.210  0.3120 -0.7158 -0.2305
  338MOL0     C44543   0.576   3.846   7.092 -0.9494 -0.3478 -0.7472
  338MOL0     C44544   0.574   3.727   7.002 -0.5706 -0.5842 -0.1225
  338MOL0     C44545   0.477   3.746   6.884  0.1230 -0.6099  0.5759
  338MOL0     C44546   0.352   3.683   6.927  0.0008  0.4014 -0.1329
  338MOL0     C44547   0.242   3.701   6.832  0.3422 -0.0965  0.6977
  338MOL0     C44548   0.161   3.729   6.738 -0.4831  0.5702 -0.4720
  338MOL0     C44549   0.616   4.013   7.330  0.4002 -0.4275  0.3186
  338MOL0     C44550   0.630   4.081   7.449 -0.0151  0.4793 -1.1087
  338MOL0     H44551   0.647   4.116   7.953 -0.0494 -3.6873  0.3613
  338MOL0     H44552   0.689   4.224   8.160 -3.3072 -1.4746 -4.4419
  338MOL0     H44553   1.073   4.481   8.177  0.1752 -0.9906 -0.8285
  338MOL0     H44554   1.155   4.331   8.201 -1.0624 -1.9358 -0.2353
  338MOL0     H44555   1.217   4.425   8.387  0.4275 -2.0602 -0.4124
  338MOL0     H44556   1.076   4.352   8.455 -0.1131  0.0374  0.2615
  338MOL0     H44557   0.933   4.564   8.416  0.7041  0.9663 -4.0072
  338MOL0     H44558   1.073   4.641   8.361  1.8420  0.7059  0.5449
  338MOL0     H44559   1.023   4.543   8.641 -0.7297  0.9785 -0.8008
  338MOL0     H44560   1.194   4.589   8.591  0.6221  0.7677  0.8630
  338MOL0     H44561   0.948   4.769   8.569 -0.0627 -0.1601  0.4398
  338MOL0     H44562   1.114   4.813   8.529 -0.3308 -1.6744 -3.5067
  338MOL0     H44563   0.991   4.756   8.797 -2.1499 -0.1458 -1.5540
  338MOL0     H44564   1.046   4.913   8.739 -0.0558 -0.2098 -1.3915
  338MOL0     H44565   1.209   4.681   8.846  1.4869 -0.0322  0.1076
  338MOL0     H44566   1.277   4.781   8.711 -0.4159  2.6249 -1.1624
  338MOL0     H44567   1.228   4.988   8.861 -1.0236  1.8328  2.7682
  338MOL0     H44568   1.357   4.890   8.922  1.3466  2.0744 -1.7452
  338MOL0     H44569   1.005   5.012   9.022  1.6159  2.3850  1.8377
  338MOL0     H44570   0.923   5.068   9.275 -1.7704  0.0156  0.4226
  338MOL0     H44571   0.969   4.951   9.398 -0.1907 -2.4355 -0.0630
  338MOL0     H44572   0.803   4.789   9.264 -2.3094  0.5780 -5.7826
  338MOL0     H44573   0.757   4.932   9.180  2.9794  0.3683 -1.0399
  338MOL0     H44574   0.717   4.895   9.484  1.8871 -1.1902 -1.2714
  338MOL0     H44575   0.735   5.048   9.402 -2.2966  1.4427 -2.9984
  338MOL0     H44576   0.546   4.855   9.290  1.7367 -1.4822  2.6873
  338MOL0     H44577   0.541   5.027   9.261 -5.2326  1.4236  1.8273
  338MOL0     H44578   0.353   5.041   9.209  2.3694 -1.0133  1.1628
  338MOL0     H44579   0.108   5.090   9.189 -1.4803  0.7214  0.8893
  338MOL0     H44580  -0.195   5.367   9.426  3.2630 -0.2013  2.6893
  338MOL0     H44581  -0.394   5.486   9.452 -0.0985  0.1152 -0.1586
  338MOL0     H44582  -0.748   5.295   9.692 -1.4855 -0.1877  0.1008
  338MOL0     H44583  -0.748   5.239   9.529  0.0512 -1.5286  1.4103
  338MOL0     H44584  -0.845   5.452   9.457  0.7830  3.4356 -0.0366
  338MOL0     H44585  -0.804   5.536   9.606 -1.4336  0.0765  0.7977
  338MOL0     H44586  -0.961   5.355   9.721 -0.4298  3.1035  0.9974
  338MOL0     H44587  -1.008   5.316   9.548 -0.8425 -0.1990 -0.2617
  338MOL0     H44588  -1.044   5.587   9.678  2.2060 -1.3633  0.0590
  338MOL0     H44589  -1.046   5.546   9.513  3.6710 -0.8545  0.0419
  338MOL0     H44590  -1.227   5.368   9.561 -0.0684  0.0578 -0.8207
  338MOL0     H44591  -1.285   5.530   9.580 -0.9463 -1.1190  0.3412
  338MOL0     H44592  -1.182   5.376   9.828  3.4648  2.8254 -0.8971
  338MOL0     H44593  -1.350   5.377   9.763  1.3921  0.3066 -0.5245
  338MOL0     H44594  -1.289   5.636   9.772 -2.6250  0.5993  0.0410
  338MOL0     H44595  -1.379   5.544   9.897  0.1176 -0.9083 -2.6398
  338MOL0     H44596  -1.073   5.574   9.906 -0.5098 -2.4876 -1.4397
  338MOL0     H44597  -1.188   5.546  10.048 -1.1045  0.0939 -0.8853
  338MOL0     H44598  -0.547   5.175   9.691 -0.3929 -1.3539 -1.4633
  338MOL0     H44599  -0.339   5.049   9.679  1.8789  0.0380 -1.3126
  338MOL0     H44600   0.068   5.023   9.609 -0.4742 -0.0165 -0.6938
  338MOL0     H44601   0.307   4.978   9.627 -0.0190  1.6935  0.1507
  338MOL0     H44602   1.100   4.287   8.009  0.9788 -2.9059  2.8465
  338MOL0     H44603   1.041   4.163   7.828  0.6366 -1.5900  1.7584
  338MOL0     H44604   0.833   3.845   7.590 -2.2556 -0.2604  1.7815
  338MOL0     H44605   0.783   3.733   7.405 -0.7120  0.4450 -2.0175
  338MOL0     H44606   0.618   3.929   7.034 -2.1321 -1.0912 -2.8006
  338MOL0     H44607   0.476   3.875   7.126 -0.1895 -0.8316  2.1485
  338MOL0     H44608   0.675   3.715   6.962  0.0919  1.1364  0.9602
  338MOL0     H44609   0.547   3.631   7.048 -0.7413 -0.1968  0.5908
  338MOL0     H44610   0.514   3.706   6.789 -0.1444  1.2377 -0.3452
  338MOL0     H44611   0.464   3.854   6.879  4.0952 -0.0613 -3.9017
  338MOL0     H44612   0.361   3.575   6.941  1.0863  0.4146 -0.6084
  338MOL0     H44613   0.317   3.742   7.012 -1.1621 -1.3023  0.6172
  338MOL0     H44614   0.078   3.754   6.675  0.2796  5.2861  0.0343
  338MOL0     H44615   0.555   4.049   7.248  4.2451  2.8646 -1.4412
  338MOL0     H44616   0.586   4.180   7.456  2.4915  1.7025 -1.3439
  339MOL0     O44617   5.845   1.415   2.161 -0.4208  0.1542  0.3456
  339MOL0     C44618   5.917   1.512   2.177 -1.2906  0.8743 -0.2230
  339MOL0     O44619   5.887   1.641   2.163 -0.1337 -0.0604 -0.3228
  339MOL0     C44620   5.760   1.690   2.135  0.4476 -0.8239 -0.8084
  339MOL0     C44621   5.636   1.633   2.185 -1.0437 -0.5599 -0.5480
  339MOL0     C44622   5.513   1.699   2.172  0.0083 -0.0695 -0.3628
  339MOL0     C44623   5.506   1.825   2.114 -0.5418 -0.0390  0.4873
  339MOL0     O44624   5.391   1.900   2.095 -0.1962 -0.1237  0.5579
  339MOL0     C44625   5.261   1.836   2.114 -0.5925  1.1579 -0.0503
  339MOL0     C44626   5.144   1.924   2.090 -0.1271  0.0996  0.4543
  339MOL0     C44627   5.153   2.001   1.958 -0.0845 -0.1755  0.3637
  339MOL0     C44628   5.041   2.101   1.927  0.0893  0.5384 -0.6654
  339MOL0     C44629   4.909   2.035   1.872  1.1069  0.7576 -0.4556
  339MOL0     C44630   4.790   2.134   1.864 -0.4919  0.0367 -0.4042
  339MOL0     C44631   4.727   2.116   2.004 -1.1554 -0.3360  0.7950
  339MOL0     C44632   4.611   2.225   2.045 -0.1704  0.1913  0.0610
  339MOL0     N44633   4.510   2.242   1.951 -0.2523  0.6124  0.1070
  339MOL0     C44634   4.437   2.357   1.949 -0.4232  1.0194  0.1103
  339MOL0     C44635   4.317   2.323   1.886  0.2319  0.1502  0.2599
  339MOL0     C44636   4.197   2.415   1.859 -0.2274  0.4767  0.2868
  339MOL0     C44637   4.104   2.441   1.979  0.0361  0.3774 -0.4944
  339MOL0     C44638   4.038   2.312   2.017 -0.2403 -0.2385 -0.5310
  339MOL0     C44639   3.946   2.336   2.132  0.5297  0.0339 -0.4818
  339MOL0     O44640   3.859   2.223   2.148 -0.3193 -0.1630  0.1602
  339MOL0     C44641   3.728   2.245   2.115  0.3219  0.4490  1.1924
  339MOL0     C44642   3.682   2.238   1.984 -0.4648  0.2612 -0.5565
  339MOL0     C44643   3.541   2.249   1.957  0.0842  0.5997  0.7291
  339MOL0     C44644   3.450   2.282   2.055  0.5442  0.7542 -0.4815
  339MOL0     C44645   3.310   2.304   2.027 -0.1804 -0.2141 -0.4601
  339MOL0     O44646   3.226   2.314   2.132  0.9242  1.1982 -0.6736
  339MOL0     C44647   3.092   2.341   2.113  0.3827  0.0058  0.6331
  339MOL0     C44648   3.035   2.437   2.193  0.6790  0.4930 -0.0230
  339MOL0     C44649   2.899   2.462   2.184 -0.0983 -1.2772 -1.0037
  339MOL0     C44650   2.811   2.401   2.094  0.4959 -0.6678  0.8864
  339MOL0     O44651   2.672   2.439   2.076  0.0823 -0.1240 -0.4275
  339MOL0     C44652   2.617   2.538   2.166  0.3934 -0.5682  0.1057
  339MOL0     C44653   2.473   2.539   2.151  1.2188  0.1382  0.7136
  339MOL0     C44654   2.415   2.639   2.250  0.0955  0.2126  0.2364
  339MOL0     C44655   2.268   2.609   2.264 -0.8558 -0.1945  0.3864
  339MOL0     C44656   2.213   2.729   2.324 -0.7969  0.6257 -0.0672
  339MOL0     C44657   2.062   2.718   2.343  0.2442  0.5997 -0.3235
  339MOL0     C44658   2.019   2.654   2.477 -1.0961  0.7732  0.4557
  339MOL0     C44659   2.006   2.752   2.587  0.4808 -0.0408  0.2246
  339MOL0    Cl44660   1.959   2.666   2.747 -0.1201  0.1355  0.0210
  339MOL0     C44661   2.867   2.295   2.020  0.4682  0.6960  0.2092
  339MOL0     C44662   3.001   2.274   2.026  0.6012 -0.0013  0.4733
  339MOL0     O44663   3.277   2.331   1.911 -0.3487 -0.5878  0.4980
  339MOL0     C44664   3.496   2.279   2.198 -0.4480  0.2017  0.1135
  339MOL0     C44665   3.636   2.260   2.212  0.0302 -0.4831 -0.0168
  339MOL0     N44666   4.339   2.191   1.832 -0.7502  0.1308  0.3263
  339MOL0     N44667   4.446   2.144   1.876 -0.2603  0.6855 -0.8243
  339MOL0     C44668   5.630   1.885   2.072  1.5623  0.1579 -0.3056
  339MOL0     C44669   5.748   1.814   2.069  0.1574  0.1477 -0.1250
  339MOL0     C44670   6.055   1.472   2.228  0.4699 -1.0146 -0.4182
  339MOL0     C44671   6.136   1.564   2.301  0.0619 -0.4624  0.3382
  339MOL0     C44672   6.265   1.542   2.348  0.1516  0.4882  0.1610
  339MOL0     C44673   6.318   1.413   2.330 -0.2320 -0.5259  0.9463
  339MOL0     O44674   6.435   1.385   2.380  0.2354 -0.2195  0.0285
  339MOL0     C44675   6.531   1.374   2.273  0.0641 -0.2097 -0.8223
  339MOL0     C44676   6.647   1.468   2.309 -0.5621 -0.9183 -0.2852
  339MOL0     C44677   6.768   1.449   2.212 -0.2122  0.0247  0.5658
  339MOL0     C44678   6.888   1.512   2.289 -0.5775  0.2465 -0.9319
  339MOL0     C44679   7.014   1.491   2.221  0.2602 -0.0122 -0.4367
  339MOL0     C44680   7.123   1.478   2.175 -0.0167 -0.2259  0.8588
  339MOL0     C44681   6.238   1.313   2.282  0.2603 -0.2477 -0.4763
  339MOL0     C44682   6.110   1.347   2.232  0.8962  0.6641  0.0872
  339MOL0     H44683   5.631   1.541   2.243  0.3930 -0.5917 -0.4340
  339MOL0     H44684   5.423   1.647   2.202 -0.6298 -0.0276 -2.1003
  339MOL0     H44685   5.259   1.793   2.214 -1.8866 -0.8964 -0.8914
  339MOL0     H44686   5.255   1.751   2.045  1.8777  1.0668 -0.2554
  339MOL0     H44687   5.135   1.997   2.171 -1.6532  0.5412 -0.0662
  339MOL0     H44688   5.046   1.874   2.095  0.9061 -1.9925  0.9956
  339MOL0     H44689   5.154   1.930   1.875 -1.2639  0.2116 -0.0012
  339MOL0     H44690   5.252   2.047   1.951  0.3267 -1.2034 -0.8658
  339MOL0     H44691   5.018   2.159   2.016  1.9347  0.7858 -0.3077
  339MOL0     H44692   5.083   2.177   1.860 -0.8486  3.2291  1.6293
  339MOL0     H44693   4.888   1.942   1.925 -1.3938  1.6486  0.2323
  339MOL0     H44694   4.918   2.001   1.768  2.8042 -0.5304  0.0602
  339MOL0     H44695   4.720   2.110   1.784  1.4909  2.0597 -2.9494
  339MOL0     H44696   4.822   2.237   1.845 -0.0168  0.4981  2.3914
  339MOL0     H44697   4.702   2.012   2.024  1.5638 -1.5582 -1.5068
  339MOL0     H44698   4.803   2.135   2.081  0.0134  1.9350 -0.8066
  339MOL0     H44699   4.662   2.321   2.059 -1.4925  0.8072  0.8857
  339MOL0     H44700   4.552   2.203   2.134 -2.9781 -0.9730 -1.9589
  339MOL0     H44701   4.450   2.448   2.007 -2.3120  1.4185 -0.0128
  339MOL0     H44702   4.129   2.374   1.784 -1.5869  0.5293  1.4377
  339MOL0     H44703   4.240   2.512   1.830 -1.9637  1.4976  0.9774
  339MOL0     H44704   4.028   2.515   1.953  1.4177  1.2275 -2.3819
  339MOL0     H44705   4.154   2.478   2.069 -3.1705  2.0506  0.7597
  339MOL0     H44706   3.984   2.269   1.932 -0.4528 -1.7839  0.3484
  339MOL0     H44707   4.112   2.236   2.046  0.6452  0.7650 -0.1186
  339MOL0     H44708   3.882   2.423   2.114  0.3068  0.6360  2.6089
  339MOL0     H44709   4.016   2.356   2.215  0.8983  0.1018 -0.8073
  339MOL0     H44710   3.760   2.236   1.909 -0.7123 -2.2311 -0.8420
  339MOL0     H44711   3.518   2.244   1.852  0.1217  2.9138  0.5732
  339MOL0     H44712   3.085   2.499   2.267 -1.4677  2.3315  0.0017
  339MOL0     H44713   2.858   2.542   2.245 -0.1231 -1.3635 -0.9079
  339MOL0     H44714   2.657   2.638   2.147 -1.6897  0.7077  2.0136
  339MOL0     H44715   2.637   2.506   2.268 -0.6302 -2.2464 -0.1867
  339MOL0     H44716   2.429   2.442   2.178 -0.6181  0.9619  0.7775
  339MOL0     H44717   2.444   2.573   2.051 -0.7229  0.5722  1.3979
  339MOL0     H44718   2.438   2.739   2.210 -0.4815 -0.0086 -0.6867
  339MOL0     H44719   2.466   2.628   2.346 -1.2602  0.3764  0.9966
  339MOL0     H44720   2.223   2.579   2.169 -2.2596  0.2691  0.8827
  339MOL0     H44721   2.260   2.527   2.337 -5.5891 -0.6156 -0.3245
  339MOL0     H44722   2.246   2.818   2.269  1.3426 -0.9147 -1.4234
  339MOL0     H44723   2.263   2.745   2.420  0.0552 -1.2687 -0.1575
  339MOL0     H44724   2.001   2.665   2.270  0.8671  0.4575 -0.7423
  339MOL0     H44725   2.006   2.812   2.338 -2.7573 -1.0098 -5.9468
  339MOL0     H44726   1.924   2.601   2.466 -1.6257  1.6607  0.6341
  339MOL0     H44727   2.102   2.585   2.495 -2.0592 -1.2156 -2.1084
  339MOL0     H44728   1.923   2.818   2.560 -0.9640 -1.2436  1.4850
  339MOL0     H44729   2.096   2.813   2.599  0.3823  0.1695 -0.1163
  339MOL0     H44730   2.810   2.253   1.938  0.2169  0.6786  0.3903
  339MOL0     H44731   3.035   2.197   1.958 -2.3713  0.0278 -1.2586
  339MOL0     H44732   3.432   2.296   2.283  1.6125  1.0190  1.5710
  339MOL0     H44733   3.682   2.264   2.311  0.6846  0.0423 -0.3395
  339MOL0     H44734   5.613   1.987   2.037 -2.9645  0.8112  2.8394
  339MOL0     H44735   5.840   1.849   2.024  0.0124 -0.1658 -0.6668
  339MOL0     H44736   6.096   1.662   2.324 -2.5765 -0.4554 -3.3494
  339MOL0     H44737   6.325   1.617   2.399 -0.4774  1.4254 -0.4537
  339MOL0     H44738   6.485   1.402   2.177  0.9379 -2.4651 -1.9816
  339MOL0     H44739   6.567   1.271   2.266 -0.5650 -0.4710 -0.2439
  339MOL0     H44740   6.623   1.574   2.313  0.0482 -0.7970  0.2378
  339MOL0     H44741   6.676   1.429   2.407  2.7488 -1.0860 -1.2219
  339MOL0     H44742   6.759   1.501   2.116  1.1895 -0.9087 -0.1145
  339MOL0     H44743   6.777   1.340   2.199  2.5270  0.3502 -1.1219
  339MOL0     H44744   6.871   1.619   2.297 -1.9327 -0.0682  1.9046
  339MOL0     H44745   6.891   1.473   2.391 -1.1541 -0.6060 -1.2247
  339MOL0     H44746   7.224   1.464   2.143  0.1641  1.0941  0.8072
  339MOL0     H44747   6.286   1.215   2.278  2.8483  0.9005 -0.0859
  339MOL0     H44748   6.040   1.273   2.195 -0.1356  3.2899 -3.8500
  340MOL0     O44749   4.639   2.500   1.781 -0.2326 -0.7674  0.3623
  340MOL0     C44750   4.710   2.558   1.695 -0.2045  0.3182 -0.2327
  340MOL0     O44751   4.672   2.613   1.587 -0.2722 -0.5929  0.0792
  340MOL0     C44752   4.537   2.646   1.563  0.4176 -0.2780 -0.3123
  340MOL0     C44753   4.516   2.753   1.479  0.0767  0.1592  0.5381
  340MOL0     C44754   4.395   2.807   1.443 -0.8805  0.1932  0.3378
  340MOL0     C44755   4.279   2.754   1.490 -0.3452 -0.5564 -0.2065
  340MOL0     O44756   4.164   2.818   1.448  0.1854 -0.3100  0.3416
  340MOL0     C44757   4.071   2.730   1.377 -0.3863  0.1003 -0.8930
  340MOL0     C44758   3.939   2.792   1.344 -0.1617  0.2535 -0.3336
  340MOL0     C44759   3.867   2.696   1.254  0.0852  0.3211 -0.6086
  340MOL0     C44760   3.910   2.696   1.104  0.2785 -0.3940  0.2480
  340MOL0     C44761   3.799   2.635   1.024  0.3829  0.0862  0.2706
  340MOL0     C44762   3.860   2.584   0.896  0.1560  0.2715  0.2955
  340MOL0     C44763   3.945   2.463   0.905 -0.1760  0.4327 -0.3742
  340MOL0     C44764   4.016   2.433   0.771 -0.2731 -0.1938  0.3024
  340MOL0     N44765   3.916   2.389   0.667 -0.5352  0.2632 -0.5067
  340MOL0     C44766   3.832   2.284   0.683 -0.0524 -0.3207  0.2716
  340MOL0     C44767   3.762   2.289   0.566  0.4364  0.6698 -0.6880
  340MOL0     C44768   3.655   2.190   0.532 -0.0059 -1.1703  0.1249
  340MOL0     C44769   3.532   2.201   0.626  0.1369  1.4242 -0.8520
  340MOL0     C44770   3.546   2.176   0.772 -0.2414  0.1327 -0.1713
  340MOL0     C44771   3.409   2.150   0.847 -0.5688  0.0261 -0.5677
  340MOL0     O44772   3.331   2.262   0.842 -0.4984  0.3703 -0.1376
  340MOL0     C44773   3.214   2.262   0.916 -0.4009 -0.2347 -0.2627
  340MOL0     C44774   3.199   2.194   1.038 -0.1952 -0.8877 -0.1629
  340MOL0     C44775   3.084   2.218   1.116 -0.0607 -0.7868 -0.1240
  340MOL0     C44776   2.985   2.311   1.067  0.2877  1.3753 -0.6611
  340MOL0     C44777   2.862   2.339   1.144 -0.4552  0.0880  0.1287
  340MOL0     O44778   2.833   2.239   1.233 -0.1295  0.1391 -0.7748
  340MOL0     C44779   2.749   2.274   1.331 -0.1034 -0.1822  0.4209
  340MOL0     C44780   2.651   2.185   1.352  0.1764 -0.4146 -0.8320
  340MOL0     C44781   2.554   2.218   1.446 -0.1639 -0.3774 -0.2729
  340MOL0     C44782   2.559   2.338   1.521  0.1722  0.0121  0.1345
  340MOL0     O44783   2.466   2.381   1.614  0.5868  0.1839 -0.4938
  340MOL0     C44784   2.378   2.271   1.674 -0.6612 -0.6542 -0.1978
  340MOL0     C44785   2.284   2.340   1.779 -0.2693 -0.0666  0.8531
  340MOL0     C44786   2.204   2.460   1.712 -0.2511 -0.1396  0.1335
  340MOL0     C44787   2.113   2.529   1.815  0.4128 -1.1547 -0.3505
  340MOL0     C44788   2.013   2.609   1.737 -0.5131 -0.1535 -0.3273
  340MOL0     C44789   1.945   2.713   1.832 -0.5460 -0.5777 -0.2048
  340MOL0     C44790   1.818   2.778   1.763 -0.2366  0.2936 -0.4048
  340MOL0     C44791   1.691   2.692   1.753 -0.0372  0.1576  0.4961
  340MOL0    Cl44792   1.666   2.635   1.581  0.0359  0.3823 -0.1621
  340MOL0     C44793   2.672   2.427   1.503  0.3761  0.2568 -0.4805
  340MOL0     C44794   2.758   2.391   1.402 -0.1072 -0.4943 -0.1465
  340MOL0     O44795   2.797   2.442   1.126 -0.6957 -0.3509 -1.0455
  340MOL0     C44796   2.999   2.364   0.942  0.1003  0.2092  0.3926
  340MOL0     C44797   3.114   2.342   0.869  0.4349  0.0188 -0.6971
  340MOL0     N44798   3.800   2.393   0.482 -0.2901  0.0616 -0.1261
  340MOL0     N44799   3.886   2.463   0.551 -0.2972  1.0906 -1.0788
  340MOL0     C44800   4.284   2.635   1.565  0.0731 -0.1058  0.1391
  340MOL0     C44801   4.411   2.584   1.603  0.4309 -0.1853 -0.4841
  340MOL0     C44802   4.849   2.575   1.738  0.1316 -0.0103 -0.1040
  340MOL0     C44803   4.946   2.609   1.645 -0.1681  0.0584  1.0591
  340MOL0     C44804   5.080   2.620   1.683 -0.6958 -1.1322  0.0783
  340MOL0     C44805   5.119   2.567   1.805  0.1209 -0.3599 -0.2231
  340MOL0     O44806   5.250   2.539   1.843 -0.5338 -0.2988 -0.0103
  340MOL0     C44807   5.357   2.543   1.742  0.0895 -0.0576 -0.1025
  340MOL0     C44808   5.493   2.501   1.798 -0.3381 -0.4587 -0.4914
  340MOL0     C44809   5.483   2.367   1.867  0.3188  0.1360 -1.0445
  340MOL0     C44810   5.613   2.290   1.895  0.4717 -0.4799 -0.1087
  340MOL0     C44811   5.701   2.385   1.950 -0.9322  0.1709  0.6146
  340MOL0     C44812   5.774   2.469   2.000  1.7369 -0.7209  0.3279
  340MOL0     C44813   5.016   2.528   1.891  0.0243 -0.4342  0.4616
  340MOL0     C44814   4.887   2.538   1.863 -0.2283 -0.0540 -0.3587
  340MOL0     H44815   4.603   2.802   1.437 -0.2446  3.2534  3.1398
  340MOL0     H44816   4.394   2.902   1.391 -0.6930  1.4088  2.4400
  340MOL0     H44817   4.036   2.651   1.444  1.6999  0.3500  0.5913
  340MOL0     H44818   4.122   2.679   1.294  1.5312  0.7193 -0.1308
  340MOL0     H44819   3.951   2.886   1.288  3.0127 -1.3204 -2.6248
  340MOL0     H44820   3.899   2.821   1.442 -0.2804  3.1092 -1.1146
  340MOL0     H44821   3.760   2.717   1.260  0.1438  1.3555 -2.5084
  340MOL0     H44822   3.876   2.598   1.302  0.3468  0.8354  0.4243
  340MOL0     H44823   3.914   2.802   1.078 -2.0959 -0.9527 -3.0470
  340MOL0     H44824   4.005   2.644   1.090  1.7983  2.8768 -2.9552
  340MOL0     H44825   3.719   2.705   0.997  1.6052  0.8235 -1.6908
  340MOL0     H44826   3.752   2.550   1.075 -0.2321  0.1745 -0.1307
  340MOL0     H44827   3.916   2.667   0.852 -0.3211 -0.0941 -1.0479
  340MOL0     H44828   3.775   2.568   0.829 -1.5687 -0.3238  2.4861
  340MOL0     H44829   4.014   2.453   0.990 -1.2374 -0.1845  0.4395
  340MOL0     H44830   3.868   2.391   0.932 -0.9423  0.2756 -2.7476
  340MOL0     H44831   4.102   2.367   0.782  0.5038  0.7957  0.3260
  340MOL0     H44832   4.061   2.523   0.726  0.0305 -0.6298 -0.2715
  340MOL0     H44833   3.818   2.223   0.771  2.9791 -0.3877  0.8108
  340MOL0     H44834   3.703   2.092   0.527  2.0759 -0.1685 -3.2418
  340MOL0     H44835   3.623   2.202   0.428 -0.8955  2.6227  0.6957
  340MOL0     H44836   3.451   2.138   0.588 -0.2900  0.5197  1.3855
  340MOL0     H44837   3.484   2.299   0.621 -2.9113  0.1346  0.4256
  340MOL0     H44838   3.610   2.091   0.799  1.4531  2.3803  3.8127
  340MOL0     H44839   3.592   2.258   0.829  3.3074 -3.3065  2.4450
  340MOL0     H44840   3.430   2.107   0.946 -1.2397 -2.4814 -1.4448
  340MOL0     H44841   3.354   2.064   0.806 -2.6105 -1.5860  4.7184
  340MOL0     H44842   3.279   2.140   1.087 -0.5901 -0.0009  1.5417
  340MOL0     H44843   3.063   2.144   1.193 -2.5671  0.6151  0.6731
  340MOL0     H44844   2.631   2.099   1.290 -1.5729  0.2276 -1.2272
  340MOL0     H44845   2.477   2.142   1.450  0.7649 -1.4137 -1.2585
  340MOL0     H44846   2.438   2.196   1.726  1.7007  1.9623  1.1477
  340MOL0     H44847   2.326   2.220   1.593 -0.2409  1.4653 -1.9075
  340MOL0     H44848   2.352   2.362   1.861 -3.6277 -0.1089  3.8714
  340MOL0     H44849   2.203   2.273   1.808  2.3027 -2.5024  3.0126
  340MOL0     H44850   2.143   2.434   1.624 -0.6817  0.6161  0.1979
  340MOL0     H44851   2.276   2.536   1.680 -2.1907  2.1378  0.8710
  340MOL0     H44852   2.062   2.455   1.879  1.6150 -0.7827  1.0925
  340MOL0     H44853   2.176   2.586   1.883  0.8539 -1.8413 -0.1702
  340MOL0     H44854   1.936   2.539   1.704 -0.6363 -1.3165  2.2174
  340MOL0     H44855   2.057   2.662   1.652  1.8299  1.1957  1.5977
  340MOL0     H44856   2.017   2.793   1.848  0.1033 -1.2037  0.0945
  340MOL0     H44857   1.909   2.658   1.919 -2.0668 -0.0058 -0.4542
  340MOL0     H44858   1.791   2.867   1.820  0.2184  0.7105 -0.8305
  340MOL0     H44859   1.850   2.793   1.660 -0.8165 -6.3333 -1.9797
  340MOL0     H44860   1.595   2.739   1.780 -3.1355 -3.5092 -2.8822
  340MOL0     H44861   1.691   2.607   1.822  0.5165 -0.4570 -0.2492
  340MOL0     H44862   2.683   2.522   1.554 -0.8742 -0.0987  0.5133
  340MOL0     H44863   2.838   2.458   1.371 -2.8298  2.4893 -1.1667
  340MOL0     H44864   2.922   2.420   0.890  0.4710  1.1298  0.8153
  340MOL0     H44865   3.123   2.378   0.767 -0.9490  2.1396 -0.1371
  340MOL0     H44866   4.194   2.585   1.600  1.2964 -0.8663  2.3991
  340MOL0     H44867   4.422   2.491   1.657 -0.4969 -0.9531 -1.5703
  340MOL0     H44868   4.910   2.625   1.543 -0.9146 -1.3142  1.0654
  340MOL0     H44869   5.160   2.659   1.621 -1.8549  2.3951  0.5535
  340MOL0     H44870   5.379   2.647   1.714  2.0647 -0.5958 -0.7091
  340MOL0     H44871   5.337   2.497   1.645 -1.1438 -1.7100  0.8933
  340MOL0     H44872   5.561   2.504   1.713 -1.9596  2.2171 -1.8284
  340MOL0     H44873   5.535   2.577   1.865 -0.1408 -1.6081  0.7298
  340MOL0     H44874   5.414   2.295   1.823  1.9336 -1.0254 -1.7740
  340MOL0     H44875   5.436   2.391   1.963  0.7564 -0.4792 -0.6738
  340MOL0     H44876   5.592   2.208   1.965 -2.0209  0.8918  0.8552
  340MOL0     H44877   5.659   2.262   1.800  3.0556  2.2929  0.1647
  340MOL0     H44878   5.835   2.548   2.040 -0.7818  1.0388  0.9142
  340MOL0     H44879   5.047   2.488   1.987 -0.1038 -2.6078 -0.3485
  340MOL0     H44880   4.816   2.507   1.939  0.3021 -2.0555 -0.6217
  341MOL0     O44881   6.027   0.251   4.375  0.1778  0.0488  0.1755
  341MOL0     C44882   6.064   0.279   4.491  0.4486 -0.0084  0.6383
  341MOL0     O44883   5.989   0.321   4.592  0.4568  0.6373  0.3665
  341MOL0     C44884   5.851   0.316   4.591 -0.0290  0.8839  1.0710
  341MOL0     C44885   5.777   0.225   4.512  1.0056  1.0213 -0.4940
  341MOL0     C44886   5.637   0.217   4.520  0.2419 -0.2129 -0.0019
  341MOL0     C44887   5.568   0.308   4.606  0.4861 -0.0733 -0.4893
  341MOL0     O44888   5.433   0.311   4.627 -0.0977 -1.0874  0.5718
  341MOL0     C44889   5.344   0.215   4.561  0.3305  0.2370 -0.8224
  341MOL0     C44890   5.321   0.088   4.652 -0.2308 -0.8786  0.5809
  341MOL0     C44891   5.264   0.119   4.795  0.2545  1.3542  0.3466
  341MOL0     C44892   5.206  -0.021   4.834  0.5270  0.4690 -0.1687
  341MOL0     C44893   5.165  -0.039   4.992  0.4224 -0.0570 -0.0903
  341MOL0     C44894   5.076   0.063   5.066 -0.1744 -0.0075 -0.4784
  341MOL0     C44895   4.940   0.059   4.997 -0.2215  0.7868 -0.2739
  341MOL0     C44896   4.856  -0.055   5.052 -0.1500  0.1465  0.5922
  341MOL0     N44897   4.733  -0.061   4.975 -0.1099 -0.2206  0.2502
  341MOL0     C44898   4.720  -0.135   4.854 -0.1064  0.5637  0.0508
  341MOL0     C44899   4.599  -0.096   4.807 -0.2162  0.1819  0.0954
  341MOL0     C44900   4.530  -0.138   4.682 -1.2401  0.3526 -0.3191
  341MOL0     C44901   4.511  -0.016   4.600  0.2330 -0.1917  0.3059
  341MOL0     C44902   4.405  -0.033   4.491 -0.2452 -0.9568 -0.3849
  341MOL0     C44903   4.429  -0.149   4.390  0.3177 -0.1975 -0.6152
  341MOL0     O44904   4.333  -0.137   4.280  0.1428  0.2159  0.0586
  341MOL0     C44905   4.217  -0.208   4.295  0.0411  0.2318  1.4951
  341MOL0     C44906   4.182  -0.289   4.411 -0.2339  0.6124  0.3136
  341MOL0     C44907   4.051  -0.333   4.427  0.3627  0.1793  0.0120
  341MOL0     C44908   3.950  -0.314   4.327  0.3575 -0.2420 -0.8483
  341MOL0     C44909   3.805  -0.353   4.360 -0.0087  0.3502 -0.1090
  341MOL0     O44910   3.729  -0.366   4.254  0.5503 -0.0053 -0.1969
  341MOL0     C44911   3.601  -0.415   4.276  0.0912  0.6092  0.2992
  341MOL0     C44912   3.584  -0.537   4.344 -0.7582  0.3213  0.4755
  341MOL0     C44913   3.450  -0.590   4.364 -0.6688 -0.8516  0.0735
  341MOL0     C44914   3.342  -0.522   4.305 -0.4696 -0.4694  0.3193
  341MOL0     O44915   3.212  -0.544   4.317  0.5173 -0.3139  0.1159
  341MOL0     C44916   3.158  -0.633   4.419 -0.9426 -0.1668 -0.1849
  341MOL0     C44917   3.011  -0.635   4.400 -0.2663 -0.1284  0.5092
  341MOL0     C44918   2.950  -0.754   4.485 -0.5360  0.4064 -0.1857
  341MOL0     C44919   2.802  -0.727   4.514 -0.8430 -0.1903 -0.5171
  341MOL0     C44920   2.741  -0.855   4.593  0.4734 -0.1678  1.0819
  341MOL0     C44921   2.599  -0.831   4.641 -0.3598  1.3040  0.1783
  341MOL0     C44922   2.553  -0.947   4.729 -0.3326 -0.8242  0.3434
  341MOL0     C44923   2.426  -0.907   4.799  0.8712 -0.0885 -0.2773
  341MOL0    Cl44924   2.289  -0.900   4.683  0.0940  0.0138  0.0466
  341MOL0     C44925   3.361  -0.400   4.232  0.3552  0.8022 -0.7426
  341MOL0     C44926   3.491  -0.347   4.219  0.0061  0.9061  0.1810
  341MOL0     O44927   3.768  -0.341   4.474 -0.4305 -0.6894  0.0236
  341MOL0     C44928   3.985  -0.246   4.209  0.3891  0.3821 -0.8400
  341MOL0     C44929   4.113  -0.187   4.204 -0.2634 -0.2985 -0.5226
  341MOL0     N44930   4.541  -0.011   4.901 -0.1447 -0.4587  0.2010
  341MOL0     N44931   4.627   0.015   4.991  0.4949 -0.6172 -0.2057
  341MOL0     C44932   5.646   0.392   4.688  0.8199  0.0849  0.4205
  341MOL0     C44933   5.788   0.388   4.685  0.6656 -0.1383 -0.5869
  341MOL0     C44934   6.207   0.299   4.515  0.1735  1.3946 -0.5996
  341MOL0     C44935   6.281   0.339   4.410 -0.2438 -0.0604 -0.0436
  341MOL0     C44936   6.415   0.373   4.416  0.5631  1.2376 -0.6238
  341MOL0     C44937   6.481   0.357   4.536 -0.2610  0.4596  0.8524
  341MOL0     O44938   6.616   0.386   4.553 -0.2002  0.2835  0.7712
  341MOL0     C44939   6.715   0.312   4.487 -0.4679  0.0950  0.1051
  341MOL0     C44940   6.845   0.394   4.449  0.0944  0.3119  0.2677
  341MOL0     C44941   6.817   0.541   4.390 -1.0486  0.8948 -0.6166
  341MOL0     C44942   6.945   0.615   4.355 -0.0004 -0.4595  0.3591
  341MOL0     C44943   6.999   0.667   4.472 -1.1202  0.0397 -0.1237
  341MOL0     C44944   7.061   0.744   4.545  0.4749 -0.2326 -0.1477
  341MOL0     C44945   6.409   0.299   4.640 -0.8066 -0.1923  0.5103
  341MOL0     C44946   6.272   0.269   4.634 -0.5424 -0.5179 -0.6811
  341MOL0     H44947   5.824   0.160   4.439 -0.6943 -1.2134  0.2612
  341MOL0     H44948   5.594   0.140   4.456 -2.7874 -0.1040  1.7019
  341MOL0     H44949   5.371   0.173   4.464 -1.8832  0.7532 -1.7193
  341MOL0     H44950   5.248   0.265   4.542  0.3663  1.6541  2.0889
  341MOL0     H44951   5.418   0.038   4.658  0.8353  1.0646  0.6141
  341MOL0     H44952   5.249   0.024   4.601 -0.5543  0.4414 -0.7028
  341MOL0     H44953   5.184   0.193   4.790 -1.7229 -0.7229 -1.0598
  341MOL0     H44954   5.349   0.141   4.860 -0.1219 -3.2732  2.8600
  341MOL0     H44955   5.122  -0.052   4.772 -0.4955  1.8030  0.4980
  341MOL0     H44956   5.283  -0.098   4.825  0.6158 -0.1216  3.9706
  341MOL0     H44957   5.259  -0.053   5.046  0.7599 -0.9546 -0.8792
  341MOL0     H44958   5.114  -0.135   4.997 -1.5961  0.9941  0.6157
  341MOL0     H44959   5.109   0.165   5.044 -0.7388  0.4712  0.7938
  341MOL0     H44960   5.063   0.045   5.173  0.9027 -1.1438 -0.5212
  341MOL0     H44961   4.893   0.155   5.017  3.8213  2.7185  1.0981
  341MOL0     H44962   4.960   0.051   4.890 -1.8191  0.6716 -0.5893
  341MOL0     H44963   4.822  -0.030   5.153 -1.0220 -1.2625  0.6790
  341MOL0     H44964   4.907  -0.152   5.048 -1.6142 -0.6462  0.5884
  341MOL0     H44965   4.784  -0.211   4.812  0.1181  0.6302  0.2678
  341MOL0     H44966   4.433  -0.186   4.695 -0.2119 -1.6776  0.1636
  341MOL0     H44967   4.594  -0.215   4.640  0.9612  0.2712  2.8074
  341MOL0     H44968   4.604   0.011   4.548 -0.8170  3.4368  0.0762
  341MOL0     H44969   4.483   0.069   4.662 -0.7764 -0.8622  0.7907
  341MOL0     H44970   4.303  -0.038   4.530 -1.9147  1.7404 -3.8810
  341MOL0     H44971   4.416   0.062   4.437 -2.1471  1.5935  3.2936
  341MOL0     H44972   4.414  -0.242   4.446 -1.9271  1.8484  2.5659
  341MOL0     H44973   4.532  -0.148   4.352  0.6591  2.3025  0.2045
  341MOL0     H44974   4.245  -0.327   4.491 -1.9490 -0.8514  1.0559
  341MOL0     H44975   4.008  -0.388   4.511 -3.5415  1.2409 -1.0762
  341MOL0     H44976   3.675  -0.588   4.374  0.2462  2.5813  1.4776
  341MOL0     H44977   3.434  -0.680   4.422 -2.5705  0.0591  1.0719
  341MOL0     H44978   3.179  -0.598   4.521 -0.5950 -2.0796  0.4345
  341MOL0     H44979   3.194  -0.735   4.407 -1.2111 -0.3417  0.4309
  341MOL0     H44980   2.990  -0.650   4.294  0.7020  0.3358  0.2451
  341MOL0     H44981   2.966  -0.538   4.421  0.3216 -0.4432  3.7316
  341MOL0     H44982   3.002  -0.767   4.580 -0.2284  1.5881 -0.1727
  341MOL0     H44983   2.972  -0.847   4.432  3.0192 -0.7092  2.7703
  341MOL0     H44984   2.788  -0.632   4.568  4.1151  2.3084 -2.9224
  341MOL0     H44985   2.750  -0.729   4.418  0.3565 -0.4210 -1.1720
  341MOL0     H44986   2.811  -0.864   4.676  2.6759  1.0965 -0.5438
  341MOL0     H44987   2.748  -0.946   4.532 -1.9961  0.6183 -0.5491
  341MOL0     H44988   2.528  -0.830   4.557 -1.1266  0.4983  0.7846
  341MOL0     H44989   2.606  -0.734   4.691  0.5812  1.4111 -0.1461
  341MOL0     H44990   2.549  -1.038   4.670  0.9048 -0.4897 -0.2825
  341MOL0     H44991   2.624  -0.963   4.811  0.7429  3.9323  0.6238
  341MOL0     H44992   2.442  -0.809   4.846  1.8352 -0.4683  0.2092
  341MOL0     H44993   2.396  -0.981   4.874 -2.7304  0.2252 -1.2010
  341MOL0     H44994   3.284  -0.337   4.187 -0.2323 -0.1975 -1.1765
  341MOL0     H44995   3.509  -0.245   4.187 -1.4741  0.5172 -2.1415
  341MOL0     H44996   3.901  -0.218   4.146 -0.3062 -3.2846 -1.7722
  341MOL0     H44997   4.128  -0.111   4.129  2.5158 -1.0822 -0.8810
  341MOL0     H44998   5.597   0.455   4.762 -0.7207  0.0253 -0.4877
  341MOL0     H44999   5.836   0.460   4.750 -0.0904  0.9287 -1.1740
  341MOL0     H45000   6.232   0.352   4.313 -2.0493 -0.8760  0.7058
  341MOL0     H45001   6.474   0.403   4.329  0.6621 -2.2343 -1.9305
  341MOL0     H45002   6.675   0.268   4.395  0.8338 -0.6850 -0.1160
  341MOL0     H45003   6.745   0.228   4.549 -0.1002 -2.0280 -2.7188
  341MOL0     H45004   6.920   0.401   4.528  1.6020 -0.8769 -0.9897
  341MOL0     H45005   6.894   0.329   4.376 -2.0995 -1.1282  0.0114
  341MOL0     H45006   6.757   0.604   4.456  1.3254  1.2496  1.3784
  341MOL0     H45007   6.761   0.530   4.296 -3.1846  3.5214  0.2118
  341MOL0     H45008   7.013   0.544   4.309 -0.4779  1.1446 -3.2024
  341MOL0     H45009   6.920   0.698   4.288  1.2613  0.4062  0.9299
  341MOL0     H45010   7.099   0.814   4.616 -0.7991  2.3885 -1.8745
  341MOL0     H45011   6.469   0.295   4.730  0.1100  3.5274  0.2198
  341MOL0     H45012   6.227   0.235   4.727 -0.9464 -0.9633 -1.0359
  342MOL0     O45013  10.626   4.003   0.181 -0.3093  0.5536 -0.1345
  342MOL0     C45014  10.734   3.953   0.134 -0.6694 -0.7227  0.4522
  342MOL0     O45015  10.770   3.957   0.001  0.2411 -0.0206 -0.0583
  342MOL0     C45016  10.686   3.998  -0.096  1.2381  0.4034 -1.6725
  342MOL0     C45017  10.655   4.131  -0.106 -0.7842 -0.5133  0.1787
  342MOL0     C45018  10.560   4.172  -0.200  0.0565 -0.3620  0.3628
  342MOL0     C45019  10.482   4.089  -0.281  0.4361  0.0043 -0.5369
  342MOL0     O45020  10.385   4.137  -0.369  0.0853  0.4708 -0.5052
  342MOL0     C45021  10.330   4.056  -0.475 -0.6072 -0.3533  0.8539
  342MOL0     C45022  10.211   3.981  -0.435  0.9659 -0.2989 -0.3337
  342MOL0     C45023  10.096   4.067  -0.387  0.4061  0.7722 -0.7489
  342MOL0     C45024   9.968   3.987  -0.361  1.0769 -0.0246  0.2535
  342MOL0     C45025   9.839   4.071  -0.332 -0.6063 -0.1029  0.4031
  342MOL0     C45026   9.851   4.167  -0.212  1.3857  0.0002  0.8614
  342MOL0     C45027   9.717   4.245  -0.189  0.3520 -0.3616  0.6266
  342MOL0     C45028   9.719   4.303  -0.050 -0.2145 -0.5578  0.0462
  342MOL0     N45029   9.604   4.396  -0.047 -0.2317  0.2740  0.1284
  342MOL0     C45030   9.470   4.359  -0.067  0.6970  0.1892 -0.2160
  342MOL0     C45031   9.402   4.476  -0.082 -0.0905 -0.0795  0.1550
  342MOL0     C45032   9.267   4.495  -0.121 -0.3534 -0.2020  0.2552
  342MOL0     C45033   9.253   4.477  -0.275 -0.8196  0.2143  0.5824
  342MOL0     C45034   9.128   4.405  -0.325 -0.7345 -0.0387  0.2907
  342MOL0     C45035   9.005   4.496  -0.323  0.5782  0.2628  0.1552
  342MOL0     O45036   8.891   4.421  -0.374 -0.3071 -0.3326 -0.1588
  342MOL0     C45037   8.764   4.474  -0.354  0.7074  0.2546  0.6980
  342MOL0     C45038   8.648   4.401  -0.384 -0.3679 -0.4967 -0.3342
  342MOL0     C45039   8.527   4.458  -0.361  1.0936  0.0605  0.6007
  342MOL0     C45040   8.503   4.594  -0.338 -0.0274  0.2270  0.5366
  342MOL0     C45041   8.372   4.660  -0.341 -0.3739  1.2777 -0.0072
  342MOL0     O45042   8.263   4.587  -0.387 -0.6650  1.0627 -0.2163
  342MOL0     C45043   8.135   4.634  -0.414 -0.3930  1.3520 -0.5412
  342MOL0     C45044   8.056   4.565  -0.501  0.6951 -0.3791 -0.1995
  342MOL0     C45045   7.920   4.602  -0.531  0.5332  0.0017  0.0720
  342MOL0     C45046   7.879   4.727  -0.488 -0.1931 -1.4337 -0.4252
  342MOL0     O45047   7.760   4.787  -0.512 -0.0861  0.1523  0.5556
  342MOL0     C45048   7.680   4.735  -0.616  0.4703  1.1509 -0.5245
  342MOL0     C45049   7.572   4.831  -0.652  0.7656 -0.3031 -0.2426
  342MOL0     C45050   7.622   4.956  -0.720 -0.2094  0.0628  0.1139
  342MOL0     C45051   7.505   5.042  -0.767 -0.4364 -0.1710 -0.2272
  342MOL0     C45052   7.533   5.146  -0.875  0.2287 -0.4227  0.0437
  342MOL0     C45053   7.408   5.229  -0.903 -0.0778  0.6561  1.0947
  342MOL0     C45054   7.286   5.138  -0.950 -0.0017  0.0615 -0.3614
  342MOL0     C45055   7.150   5.195  -0.918  0.1201  0.4653  0.1962
  342MOL0    Cl45056   7.133   5.223  -0.746 -0.4054 -0.2190 -0.1387
  342MOL0     C45057   7.961   4.799  -0.394  0.5780 -0.0020  0.7365
  342MOL0     C45058   8.081   4.744  -0.358  0.3190 -0.1543 -0.7214
  342MOL0     O45059   8.365   4.781  -0.313 -0.0776  0.9621 -0.1449
  342MOL0     C45060   8.618   4.670  -0.322  0.3512 -1.2026 -0.4710
  342MOL0     C45061   8.744   4.612  -0.325  0.4621  0.3325 -0.0786
  342MOL0     N45062   9.490   4.580  -0.082  0.0226 -0.3820  0.2005
  342MOL0     N45063   9.611   4.533  -0.056  0.3821 -0.8974  0.0416
  342MOL0     C45064  10.522   3.954  -0.271  0.2125  0.3738  0.1548
  342MOL0     C45065  10.614   3.909  -0.175 -0.2434 -0.0790 -0.2474
  342MOL0     C45066  10.850   3.938   0.218 -1.1133 -0.0726 -0.0089
  342MOL0     C45067  10.924   3.818   0.198 -0.2397 -0.2933 -0.0091
  342MOL0     C45068  11.036   3.788   0.275  0.3272  0.5655 -0.0609
  342MOL0     C45069  11.087   3.883   0.348 -0.1259 -0.1533  0.0018
  342MOL0     O45070  11.197   3.843   0.414 -0.1145 -0.1824  0.7202
  342MOL0     C45071  11.316   3.919   0.394 -0.1873 -0.3135 -0.1709
  342MOL0     C45072  11.424   3.832   0.460  0.4646 -1.2609  0.0480
  342MOL0     C45073  11.555   3.880   0.418 -0.7162 -0.2579  0.6300
  342MOL0     C45074  11.676   3.829   0.502 -0.7721  0.2000  1.1150
  342MOL0     C45075  11.791   3.882   0.430 -0.8793  0.2605  0.4797
  342MOL0     C45076  11.901   3.907   0.375  0.3222  0.0417  0.1315
  342MOL0     C45077  11.028   4.002   0.358  0.9904  0.6966 -0.4029
  342MOL0     C45078  10.898   4.032   0.303  0.0814  0.7569 -1.0422
  342MOL0     H45079  10.705   4.206  -0.045 -0.7751  1.5420 -2.1798
  342MOL0     H45080  10.547   4.280  -0.203  3.2689  0.0924 -1.0120
  342MOL0     H45081  10.410   3.991  -0.512 -1.1169  1.0709 -3.3933
  342MOL0     H45082  10.304   4.122  -0.559  1.0045 -1.1526 -0.3419
  342MOL0     H45083  10.239   3.917  -0.351  0.7413 -1.5157 -1.1560
  342MOL0     H45084  10.167   3.915  -0.511 -1.8735  1.2268 -0.1592
  342MOL0     H45085  10.063   4.143  -0.458  0.5514  1.6201  0.0715
  342MOL0     H45086  10.118   4.117  -0.292 -0.8887 -2.4477  1.4299
  342MOL0     H45087   9.949   3.930  -0.452  1.1498  1.8223 -0.9777
  342MOL0     H45088   9.985   3.913  -0.282  1.6507 -1.2147 -0.9464
  342MOL0     H45089   9.758   3.999  -0.320 -1.3947  0.4448 -1.2804
  342MOL0     H45090   9.812   4.131  -0.419 -3.6502  1.5271  2.2870
  342MOL0     H45091   9.928   4.240  -0.238 -1.1562  2.4974 -0.2445
  342MOL0     H45092   9.870   4.115  -0.118 -1.7838 -0.9725  1.0831
  342MOL0     H45093   9.723   4.322  -0.267  0.4550 -1.9138 -0.9622
  342MOL0     H45094   9.635   4.175  -0.207  1.0557 -0.2903 -4.3008
  342MOL0     H45095   9.811   4.356  -0.021 -2.2302  2.7803  0.8850
  342MOL0     H45096   9.697   4.220   0.017 -1.7557 -1.5306 -1.5826
  342MOL0     H45097   9.421   4.263  -0.079 -0.1626  0.5406  0.3918
  342MOL0     H45098   9.234   4.599  -0.113  0.2239  0.0037  0.0460
  342MOL0     H45099   9.203   4.420  -0.074 -0.7348 -2.9559 -4.0693
  342MOL0     H45100   9.340   4.416  -0.297  1.4913  2.4490  2.8291
  342MOL0     H45101   9.265   4.571  -0.330  0.1347 -0.2317  0.0241
  342MOL0     H45102   9.148   4.376  -0.428 -0.0920 -2.0341  0.9270
  342MOL0     H45103   9.096   4.316  -0.269 -4.7169  0.6280 -0.6144
  342MOL0     H45104   9.010   4.582  -0.390  0.1342 -0.9557 -1.5035
  342MOL0     H45105   8.980   4.520  -0.219  0.1329 -2.4180  0.7573
  342MOL0     H45106   8.668   4.295  -0.392  0.9137 -0.8000  4.0648
  342MOL0     H45107   8.440   4.395  -0.377  1.3034  0.0023 -0.3633
  342MOL0     H45108   8.105   4.474  -0.536  0.5738 -0.3993 -0.3194
  342MOL0     H45109   7.869   4.545  -0.608  1.5013  1.4697 -1.7585
  342MOL0     H45110   7.623   4.645  -0.592  1.7798 -0.4774 -3.0503
  342MOL0     H45111   7.740   4.717  -0.705  0.7054 -2.1642  0.1509
  342MOL0     H45112   7.526   4.877  -0.564  0.7390  0.9460 -0.8943
  342MOL0     H45113   7.504   4.778  -0.720  0.4446  0.0001 -0.1617
  342MOL0     H45114   7.678   4.924  -0.808 -1.5076 -0.1680 -0.6669
  342MOL0     H45115   7.692   5.017  -0.663  1.3643  0.2303 -1.8903
  342MOL0     H45116   7.425   4.972  -0.794 -0.9463  0.8233 -1.4595
  342MOL0     H45117   7.466   5.091  -0.677  4.2218  0.6959  1.6019
  342MOL0     H45118   7.555   5.092  -0.968  1.0520  2.4322 -1.5166
  342MOL0     H45119   7.613   5.208  -0.835  1.3771 -1.4878 -0.5329
  342MOL0     H45120   7.432   5.296  -0.986 -0.7486  1.3369  1.4432
  342MOL0     H45121   7.384   5.287  -0.814  1.3668  0.9556  1.3059
  342MOL0     H45122   7.298   5.138  -1.059  2.3941 -0.7764 -0.1548
  342MOL0     H45123   7.287   5.033  -0.919  0.8672 -0.5814 -2.3794
  342MOL0     H45124   7.074   5.141  -0.976  3.5773 -2.4704 -1.9966
  342MOL0     H45125   7.145   5.294  -0.965 -1.0586  0.4032  0.1452
  342MOL0     H45126   7.928   4.897  -0.362 -1.7108 -0.7053  0.7690
  342MOL0     H45127   8.137   4.805  -0.288  2.8254 -0.9693 -1.8877
  342MOL0     H45128   8.608   4.776  -0.302 -4.5432 -0.8344 -3.1603
  342MOL0     H45129   8.829   4.678  -0.317 -0.7971  1.9832  0.2807
  342MOL0     H45130  10.482   3.877  -0.337  1.0922  2.5206 -3.1619
  342MOL0     H45131  10.626   3.802  -0.161  0.7248  0.2367  1.6105
  342MOL0     H45132  10.873   3.742   0.140 -3.0016  0.1780  1.6467
  342MOL0     H45133  11.104   3.708   0.246  1.0819  1.7438 -1.7119
  342MOL0     H45134  11.313   4.022   0.431  2.1737  0.3246 -1.5620
  342MOL0     H45135  11.333   3.933   0.287 -0.8543  2.6864  0.0308
  342MOL0     H45136  11.402   3.838   0.567  0.8737  0.3644  0.0616
  342MOL0     H45137  11.421   3.728   0.424 -1.7277 -1.4808  0.7160
  342MOL0     H45138  11.548   3.989   0.419 -2.7752 -0.3236 -0.5887
  342MOL0     H45139  11.570   3.853   0.313  0.4412  1.9414  0.1779
  342MOL0     H45140  11.668   3.874   0.601 -1.8484 -1.2671  1.7173
  342MOL0     H45141  11.679   3.720   0.509  0.5942  0.0093 -1.1244
  342MOL0     H45142  12.001   3.916   0.336  1.5458 -3.4629  2.0076
  342MOL0     H45143  11.085   4.075   0.415  0.4459  1.1896 -0.4856
  342MOL0     H45144  10.868   4.136   0.307 -0.6145  0.7550 -4.0426
  343MOL0     O45145   9.628   7.469   7.098  0.2517 -0.4867  0.0470
  343MOL0     C45146   9.553   7.481   6.995 -1.0540 -0.3452  1.0620
  343MOL0     O45147   9.602   7.516   6.867  0.5147  0.6936 -0.4726
  343MOL0     C45148   9.725   7.567   6.855  0.3331  0.4539 -0.6314
  343MOL0     C45149   9.799   7.516   6.743  0.6319 -1.0904 -0.3855
  343MOL0     C45150   9.921   7.553   6.711 -0.6332  0.0896  0.0862
  343MOL0     C45151   9.982   7.656   6.783 -0.3269  0.4782 -0.4547
  343MOL0     O45152  10.106   7.711   6.756 -0.5870 -0.0382 -0.2448
  343MOL0     C45153  10.186   7.633   6.655  0.3398  0.3554 -0.2193
  343MOL0     C45154  10.330   7.685   6.632 -0.5836  0.9561  1.0332
  343MOL0     C45155  10.419   7.577   6.572  0.2145  0.4774 -0.6423
  343MOL0     C45156  10.471   7.472   6.677 -0.5402 -0.4632 -0.7751
  343MOL0     C45157  10.592   7.393   6.621  0.7208  0.4811 -0.4407
  343MOL0     C45158  10.638   7.284   6.708 -0.7181  0.0670 -0.3262
  343MOL0     C45159  10.704   7.331   6.843  1.0237  0.9084 -0.3217
  343MOL0     C45160  10.758   7.205   6.915  0.1663  0.8371  0.8526
  343MOL0     N45161  10.770   7.249   7.059 -0.7505  0.4181  0.1781
  343MOL0     C45162  10.689   7.197   7.156 -0.4566  0.2900  0.8180
  343MOL0     C45163  10.751   7.217   7.277 -0.4895 -0.1269  0.5036
  343MOL0     C45164  10.699   7.170   7.404 -0.8177  0.2343 -0.7410
  343MOL0     C45165  10.620   7.284   7.473 -0.0033 -0.0124 -0.8581
  343MOL0     C45166  10.563   7.213   7.602 -0.1701  0.5470 -0.1999
  343MOL0     C45167  10.497   7.309   7.684 -0.2534 -0.4120 -0.0084
  343MOL0     O45168  10.390   7.374   7.622 -0.1668  1.0332 -0.1787
  343MOL0     C45169  10.283   7.425   7.689 -0.2728 -0.0553 -0.8479
  343MOL0     C45170  10.168   7.453   7.614 -0.6161 -0.9359  0.7982
  343MOL0     C45171  10.048   7.498   7.674  0.5261  0.4910 -0.6534
  343MOL0     C45172  10.051   7.534   7.812  0.1621 -0.5121  1.0613
  343MOL0     C45173   9.931   7.577   7.881  0.5216  0.2564 -0.1203
  343MOL0     O45174   9.808   7.549   7.818 -0.1068 -0.6234 -0.2251
  343MOL0     C45175   9.679   7.610   7.855  0.0362  0.0261 -0.8700
  343MOL0     C45176   9.644   7.684   7.971  0.8490 -0.6143 -0.1291
  343MOL0     C45177   9.515   7.724   7.985 -0.1857  0.2334  0.5759
  343MOL0     C45178   9.413   7.706   7.891 -0.2956 -0.7787  0.0540
  343MOL0     O45179   9.291   7.767   7.930 -0.2796  0.1300  0.0118
  343MOL0     C45180   9.185   7.732   7.854  0.3119  0.6992  0.3399
  343MOL0     C45181   9.067   7.810   7.891 -0.1975  0.1313 -0.2201
  343MOL0     C45182   8.970   7.825   7.770  0.2915  0.8695 -0.8545
  343MOL0     C45183   8.887   7.948   7.766 -0.5235 -0.0836  0.3870
  343MOL0     C45184   8.749   7.922   7.843 -0.4389 -0.4376  0.2268
  343MOL0     C45185   8.662   7.814   7.790 -0.0055  0.1360 -0.7426
  343MOL0     C45186   8.514   7.810   7.844  0.4260 -1.1409  0.2891
  343MOL0     C45187   8.435   7.941   7.788  1.1136  0.2300  0.7465
  343MOL0    Cl45188   8.262   7.899   7.786  0.0812 -0.1532  0.2304
  343MOL0     C45189   9.443   7.633   7.780  0.1588 -1.4333  0.3000
  343MOL0     C45190   9.577   7.599   7.754  0.1807 -0.3425 -1.0470
  343MOL0     O45191   9.939   7.620   7.992 -0.0071 -0.4226 -0.0880
  343MOL0     C45192  10.173   7.538   7.874  0.2036  0.9033  0.4725
  343MOL0     C45193  10.286   7.476   7.822 -0.5735  0.6926  1.4006
  343MOL0     N45194  10.863   7.278   7.239 -0.5382  0.4927  0.2220
  343MOL0     N45195  10.879   7.307   7.113  0.3045 -0.7568 -0.6864
  343MOL0     C45196   9.916   7.699   6.901 -0.5394  0.4891 -0.2647
  343MOL0     C45197   9.791   7.657   6.942 -0.1217 -0.2483  1.2367
  343MOL0     C45198   9.411   7.444   7.010  0.0448 -0.4382 -0.3782
  343MOL0     C45199   9.368   7.376   7.129  0.3107 -0.2195 -1.2673
  343MOL0     C45200   9.238   7.326   7.146  0.0563  1.2575 -0.1478
  343MOL0     C45201   9.151   7.326   7.040  0.2413 -0.2736 -0.4221
  343MOL0     O45202   9.027   7.275   7.068 -0.0138 -0.1263  0.3149
  343MOL0     C45203   8.921   7.277   6.975 -0.7251  0.5453 -0.8773
  343MOL0     C45204   8.935   7.175   6.851 -0.2347 -0.6795  0.0384
  343MOL0     C45205   8.832   7.219   6.748 -0.7991 -0.1167 -1.0632
  343MOL0     C45206   8.868   7.347   6.681  0.1628 -0.3178  0.9009
  343MOL0     C45207   8.986   7.314   6.605 -0.6593 -0.8837  0.3618
  343MOL0     C45208   9.067   7.293   6.516 -0.2802 -0.5744 -0.2704
  343MOL0     C45209   9.194   7.404   6.928  0.0732  0.3138  0.6403
  343MOL0     C45210   9.318   7.459   6.909  0.0281 -0.3956 -0.9467
  343MOL0     H45211   9.746   7.454   6.673  0.3366  0.6453 -1.7644
  343MOL0     H45212   9.963   7.493   6.630 -1.6710  0.9538 -1.1340
  343MOL0     H45213  10.132   7.644   6.561  0.0244  3.5043  0.1961
  343MOL0     H45214  10.185   7.533   6.700 -0.8545  0.7489  0.6742
  343MOL0     H45215  10.381   7.713   6.725  0.6429  1.1347  0.3339
  343MOL0     H45216  10.323   7.770   6.563  2.5201  0.2983 -0.2710
  343MOL0     H45217  10.506   7.626   6.530  2.0945 -0.4524  1.8851
  343MOL0     H45218  10.369   7.528   6.488 -2.0267  0.2188  0.7389
  343MOL0     H45219  10.505   7.524   6.767  0.4463  1.7980 -2.3680
  343MOL0     H45220  10.395   7.404   6.717 -0.5729 -0.1967 -0.3803
  343MOL0     H45221  10.677   7.459   6.603 -0.4083  1.0981 -4.6614
  343MOL0     H45222  10.568   7.353   6.522 -0.0856  0.2203 -0.1485
  343MOL0     H45223  10.715   7.231   6.653 -1.3697 -1.9203  0.5919
  343MOL0     H45224  10.553   7.219   6.729 -1.3486  0.8690 -0.3214
  343MOL0     H45225  10.788   7.400   6.839  2.6284 -0.7455  2.0359
  343MOL0     H45226  10.624   7.375   6.902 -0.7516 -0.2928 -1.7308
  343MOL0     H45227  10.857   7.172   6.884  0.5284  1.2364  1.5563
  343MOL0     H45228  10.696   7.119   6.890  2.5877 -0.3634 -1.4997
  343MOL0     H45229  10.610   7.124   7.144  0.9396 -1.1214 -0.0052
  343MOL0     H45230  10.780   7.135   7.470 -1.8508 -3.4851 -1.1967
  343MOL0     H45231  10.641   7.078   7.389 -0.4317  0.0457 -1.1052
  343MOL0     H45232  10.543   7.329   7.411  0.1922  1.8858  0.2047
  343MOL0     H45233  10.683   7.366   7.507 -0.6434 -0.3582  1.3279
  343MOL0     H45234  10.491   7.133   7.579  0.0351 -0.2013  1.6058
  343MOL0     H45235  10.648   7.165   7.652  0.9343  2.1880 -0.4437
  343MOL0     H45236  10.572   7.383   7.712  1.6945 -2.1786 -0.3048
  343MOL0     H45237  10.467   7.257   7.775 -0.9979 -1.8247 -1.0267
  343MOL0     H45238  10.183   7.417   7.513  1.4972 -1.0432  1.1073
  343MOL0     H45239   9.959   7.490   7.614  0.8882 -1.2596 -1.0059
  343MOL0     H45240   9.715   7.711   8.048 -0.2652 -0.2950  0.8091
  343MOL0     H45241   9.487   7.775   8.076 -0.1307  1.7520 -0.2374
  343MOL0     H45242   9.166   7.626   7.874 -0.4165  1.1011  1.9828
  343MOL0     H45243   9.207   7.738   7.747 -1.4267  1.2494 -0.0313
  343MOL0     H45244   9.100   7.912   7.914 -2.0709  0.7724 -0.2387
  343MOL0     H45245   9.015   7.766   7.976  0.8772  1.5164  1.2164
  343MOL0     H45246   8.922   7.727   7.758  2.9964 -0.6462 -0.1378
  343MOL0     H45247   9.028   7.827   7.678  1.0895 -1.7268 -0.5039
  343MOL0     H45248   8.941   8.028   7.817 -1.5454  0.9361 -0.0769
  343MOL0     H45249   8.861   7.982   7.666  1.7103  1.6285  0.2982
  343MOL0     H45250   8.690   8.013   7.828  0.4096 -0.0390 -0.8251
  343MOL0     H45251   8.758   7.909   7.951 -1.5074 -1.4957  0.2104
  343MOL0     H45252   8.695   7.713   7.815 -1.3108  0.2328  1.7350
  343MOL0     H45253   8.658   7.814   7.681 -1.2532 -1.9254 -0.7368
  343MOL0     H45254   8.457   7.728   7.799  0.4477  1.1708 -4.5618
  343MOL0     H45255   8.509   7.814   7.953 -0.8873 -0.6763  0.2374
  343MOL0     H45256   8.472   7.965   7.687 -0.0825  0.9474  0.4640
  343MOL0     H45257   8.451   8.027   7.853  1.7014  0.1401  0.7309
  343MOL0     H45258   9.371   7.591   7.710  0.7355 -0.3601 -0.9782
  343MOL0     H45259   9.597   7.535   7.668  0.4799 -1.7660  0.0486
  343MOL0     H45260  10.166   7.577   7.975 -1.9026  1.1635  0.2815
  343MOL0     H45261  10.377   7.454   7.877  0.7246  0.7525 -0.6374
  343MOL0     H45262   9.976   7.764   6.964 -1.0709 -0.5861  1.4107
  343MOL0     H45263   9.748   7.681   7.039 -1.4058 -0.3804  0.7165
  343MOL0     H45264   9.432   7.367   7.217 -0.9330 -1.7010 -0.4739
  343MOL0     H45265   9.214   7.267   7.233  2.1403  1.6657  0.7735
  343MOL0     H45266   8.909   7.382   6.945 -0.6503  1.5135  2.0821
  343MOL0     H45267   8.832   7.239   7.027 -1.3554  1.9636 -0.8784
  343MOL0     H45268   9.035   7.179   6.806 -1.1324  0.4818 -1.9548
  343MOL0     H45269   8.922   7.070   6.877 -1.7933 -0.1344  1.6391
  343MOL0     H45270   8.732   7.234   6.790 -1.0034 -3.3072 -0.1524
  343MOL0     H45271   8.824   7.143   6.669 -3.3659 -0.9026 -0.1277
  343MOL0     H45272   8.782   7.386   6.627 -1.4817  0.6271  3.9841
  343MOL0     H45273   8.896   7.426   6.752 -1.6960  1.1860  0.0464
  343MOL0     H45274   9.137   7.272   6.438 -1.5557  0.1289 -1.6435
  343MOL0     H45275   9.111   7.413   6.859  0.2216  3.6667  0.7377
  343MOL0     H45276   9.336   7.498   6.809 -3.1865 -1.6104 -2.1145
  344MOL0     O45277   1.023   8.081   4.008 -0.4295  0.5388  0.2869
  344MOL0     C45278   1.126   8.050   4.057  0.7008 -0.4331  0.6747
  344MOL0     O45279   1.142   7.965   4.163 -0.1597  0.5447  0.6421
  344MOL0     C45280   1.045   7.873   4.203  0.1033 -0.1716  0.2370
  344MOL0     C45281   1.013   7.845   4.335 -0.5594  0.1960 -0.4443
  344MOL0     C45282   0.922   7.746   4.373  0.0315 -0.3215  0.0235
  344MOL0     C45283   0.859   7.671   4.270  0.0434  0.7446  0.2044
  344MOL0     O45284   0.779   7.557   4.307 -0.3346 -0.5314  0.3052
  344MOL0     C45285   0.730   7.467   4.214 -0.2509  0.3130 -0.1587
  344MOL0     C45286   0.637   7.376   4.300 -0.0121 -0.8841  1.0901
  344MOL0     C45287   0.515   7.447   4.361  0.1538 -0.2063  0.3286
  344MOL0     C45288   0.427   7.338   4.441 -0.5950  0.1927  0.0866
  344MOL0     C45289   0.312   7.413   4.506  0.1838  0.1300  0.0474
  344MOL0     C45290   0.222   7.319   4.590  0.5359  0.6282  0.8290
  344MOL0     C45291   0.096   7.395   4.648 -0.7059 -0.3840  0.6834
  344MOL0     C45292   0.014   7.296   4.733  0.0778  0.6068  0.7335
  344MOL0     N45293  -0.088   7.371   4.801  0.7546 -0.4359  0.1186
  344MOL0     C45294  -0.084   7.423   4.928 -0.0614 -0.5913  0.1040
  344MOL0     C45295  -0.211   7.456   4.972  0.3120  0.1756  0.4557
  344MOL0     C45296  -0.243   7.528   5.108  0.2388 -0.4326  0.9753
  344MOL0     C45297  -0.249   7.683   5.100  0.2541 -0.0276 -0.6459
  344MOL0     C45298  -0.333   7.737   5.210 -0.7321 -0.8316 -0.0237
  344MOL0     C45299  -0.318   7.892   5.211  0.0229  0.1374  0.0630
  344MOL0     O45300  -0.441   7.963   5.244 -0.3909  0.1961 -0.4492
  344MOL0     C45301  -0.484   7.954   5.371 -0.0384  0.6205 -0.1203
  344MOL0     C45302  -0.616   7.995   5.394  0.4683 -0.2512 -0.4790
  344MOL0     C45303  -0.681   7.967   5.516 -0.6353  0.7106 -0.4544
  344MOL0     C45304  -0.611   7.909   5.622  0.2911 -0.5819  0.5442
  344MOL0     C45305  -0.681   7.881   5.746 -0.7177  0.3447  0.4972
  344MOL0     O45306  -0.779   7.969   5.787  0.2204  0.2866 -0.3039
  344MOL0     C45307  -0.883   7.907   5.862 -0.0804 -0.0276 -0.3259
  344MOL0     C45308  -0.968   7.801   5.820  1.1846  0.8083 -0.1567
  344MOL0     C45309  -1.083   7.774   5.898  0.3523  0.0107 -1.4794
  344MOL0     C45310  -1.088   7.829   6.027 -0.1242 -0.7357  0.1966
  344MOL0     O45311  -1.193   7.813   6.120 -0.7056  0.3512  0.3400
  344MOL0     C45312  -1.319   7.809   6.051  0.0458 -1.2184 -0.4014
  344MOL0     C45313  -1.436   7.809   6.145  0.5438  1.0205  0.3393
  344MOL0     C45314  -1.559   7.763   6.062 -0.5592 -0.5173 -0.2418
  344MOL0     C45315  -1.665   7.707   6.156 -0.5216  0.7345  0.5290
  344MOL0     C45316  -1.782   7.674   6.069  0.6392  0.4105  0.8432
  344MOL0     C45317  -1.845   7.804   6.009  0.6712 -0.9696  0.0221
  344MOL0     C45318  -1.987   7.796   5.946  0.8003  0.0216 -0.8138
  344MOL0     C45319  -2.040   7.939   5.921  0.7142  0.3963 -0.4630
  344MOL0    Cl45320  -2.141   7.981   6.059  0.1214 -0.1037 -0.5954
  344MOL0     C45321  -0.976   7.904   6.081  0.4336 -0.0585  0.7843
  344MOL0     C45322  -0.877   7.950   5.993  0.2067 -0.0624  0.3967
  344MOL0     O45323  -0.653   7.777   5.808  0.3245 -0.1794 -0.5309
  344MOL0     C45324  -0.473   7.863   5.596  0.4940  0.1212  0.2347
  344MOL0     C45325  -0.414   7.890   5.478 -0.3716  0.8288  0.5858
  344MOL0     N45326  -0.300   7.430   4.863 -0.5533  0.1010  0.2763
  344MOL0     N45327  -0.221   7.384   4.771  0.8006 -0.2049  0.4143
  344MOL0     C45328   0.899   7.689   4.139 -0.2948 -0.4303  0.8234
  344MOL0     C45329   0.989   7.794   4.100  0.4147 -0.1505 -0.2080
  344MOL0     C45330   1.250   8.119   4.004 -0.0269 -0.0968  0.1145
  344MOL0     C45331   1.238   8.242   3.950  0.0665  0.6842 -0.0198
  344MOL0     C45332   1.352   8.313   3.910  0.2321  0.3670 -0.1387
  344MOL0     C45333   1.480   8.271   3.937  0.4265 -0.2353 -0.4984
  344MOL0     O45334   1.600   8.343   3.910 -0.9969  0.5026  0.9799
  344MOL0     C45335   1.588   8.468   3.842  0.4868 -0.4449 -0.0752
  344MOL0     C45336   1.718   8.534   3.800  0.3917  0.4974 -0.0136
  344MOL0     C45337   1.761   8.485   3.660  0.5648 -0.1488 -0.4816
  344MOL0     C45338   1.826   8.600   3.574  1.1152 -0.1527 -0.0080
  344MOL0     C45339   1.963   8.635   3.618  0.1672  1.0546  0.3370
  344MOL0     C45340   2.078   8.656   3.648  0.0597  0.5451  0.2821
  344MOL0     C45341   1.489   8.145   4.013 -0.0516  0.1933 -0.9298
  344MOL0     C45342   1.378   8.070   4.035  0.5383  0.5120 -0.0563
  344MOL0     H45343   1.069   7.905   4.407  0.2138 -1.9420  0.8421
  344MOL0     H45344   0.899   7.716   4.474  2.9783  1.6374  1.4060
  344MOL0     H45345   0.822   7.418   4.180  0.3051  2.5341 -2.1111
  344MOL0     H45346   0.680   7.512   4.128 -0.8515  1.6907  0.8628
  344MOL0     H45347   0.698   7.341   4.384  0.7821  0.4635  1.0996
  344MOL0     H45348   0.599   7.289   4.246  1.2213 -0.5982 -0.2870
  344MOL0     H45349   0.457   7.474   4.272 -0.8964 -1.1091  0.7155
  344MOL0     H45350   0.537   7.542   4.409  0.7558 -0.5779  0.8046
  344MOL0     H45351   0.387   7.255   4.381  0.2097 -1.6732  1.9964
  344MOL0     H45352   0.486   7.292   4.521 -1.7107  1.6110  1.7982
  344MOL0     H45353   0.247   7.451   4.427 -0.7349 -2.0672 -0.3163
  344MOL0     H45354   0.359   7.496   4.560  4.4296  1.4133 -4.8494
  344MOL0     H45355   0.284   7.279   4.670  1.0593 -2.3458 -0.9258
  344MOL0     H45356   0.198   7.235   4.525  1.9797 -0.4356  1.6175
  344MOL0     H45357   0.145   7.476   4.702  3.1469 -0.4270 -2.3447
  344MOL0     H45358   0.037   7.442   4.568  0.7299  0.9937  0.4017
  344MOL0     H45359   0.076   7.246   4.808 -0.5214  0.1382  0.9283
  344MOL0     H45360  -0.021   7.207   4.680  2.0483  1.0191 -1.4335
  344MOL0     H45361   0.005   7.426   4.990  1.1737 -1.8596 -1.4990
  344MOL0     H45362  -0.168   7.499   5.182  3.5323  1.6667 -1.2980
  344MOL0     H45363  -0.345   7.493   5.127 -0.0882 -1.1174 -1.7463
  344MOL0     H45364  -0.292   7.700   5.000 -0.2095 -0.5966 -0.5503
  344MOL0     H45365  -0.150   7.729   5.104  0.1772  0.0561  0.8552
  344MOL0     H45366  -0.440   7.714   5.204 -1.5739  2.3812  0.7546
  344MOL0     H45367  -0.294   7.695   5.304 -0.1454  0.4889  0.3466
  344MOL0     H45368  -0.306   7.931   5.109  0.3253  2.2464  0.8509
  344MOL0     H45369  -0.231   7.913   5.274  0.4790 -2.9818  0.6200
  344MOL0     H45370  -0.669   8.038   5.309 -0.7683 -0.1780  0.2906
  344MOL0     H45371  -0.786   7.996   5.524 -0.6145  1.0832 -1.4609
  344MOL0     H45372  -0.953   7.747   5.728  0.2305  1.4331 -0.7004
  344MOL0     H45373  -1.170   7.731   5.848 -2.8327  2.8723  1.0777
  344MOL0     H45374  -1.327   7.719   5.989  2.5755 -1.6154 -0.2537
  344MOL0     H45375  -1.329   7.894   5.982 -2.8472 -0.2199  1.0848
  344MOL0     H45376  -1.447   7.914   6.172  1.9758  2.0287 -2.6043
  344MOL0     H45377  -1.413   7.740   6.227 -0.2479  1.5973  1.0559
  344MOL0     H45378  -1.529   7.691   5.985 -2.8859 -2.0415  0.1531
  344MOL0     H45379  -1.587   7.853   6.005 -0.0078  0.6343  1.2450
  344MOL0     H45380  -1.631   7.618   6.209 -5.5235  0.1657  3.4789
  344MOL0     H45381  -1.688   7.784   6.230  0.1711 -1.5825  3.3456
  344MOL0     H45382  -1.855   7.618   6.128  0.6057 -0.8824 -0.3722
  344MOL0     H45383  -1.749   7.614   5.984 -2.5568 -1.3311  0.6799
  344MOL0     H45384  -1.779   7.838   5.929  0.1222  1.4875  0.5170
  344MOL0     H45385  -1.838   7.876   6.091 -1.3047  0.8311 -1.2900
  344MOL0     H45386  -1.964   7.743   5.853  3.2746 -4.9534  2.2119
  344MOL0     H45387  -2.043   7.734   6.017  2.8836  0.3260  1.2147
  344MOL0     H45388  -2.101   7.950   5.831 -0.6642 -0.3212  0.3545
  344MOL0     H45389  -1.956   8.009   5.911  1.6593 -0.5123  0.7625
  344MOL0     H45390  -0.974   7.924   6.188  1.3136 -0.8879  0.9359
  344MOL0     H45391  -0.804   8.024   6.023  0.6268  0.9319 -2.6974
  344MOL0     H45392  -0.417   7.812   5.673  1.0964 -1.7173 -1.3381
  344MOL0     H45393  -0.312   7.854   5.478 -1.0603 -1.2159  0.4620
  344MOL0     H45394   0.866   7.624   4.059 -0.0624 -0.5139  0.7969
  344MOL0     H45395   1.018   7.801   3.995 -1.0150 -0.6815 -0.6514
  344MOL0     H45396   1.139   8.286   3.957 -0.0457  0.2492  1.4714
  344MOL0     H45397   1.344   8.405   3.854 -2.0983  1.2480  1.4501
  344MOL0     H45398   1.545   8.540   3.912 -0.0704 -1.9284  1.1573
  344MOL0     H45399   1.520   8.474   3.757 -0.8015 -2.2221  0.7605
  344MOL0     H45400   1.718   8.644   3.803 -1.8077  0.5347  0.1207
  344MOL0     H45401   1.794   8.504   3.874 -1.6738 -0.6742  1.7599
  344MOL0     H45402   1.682   8.443   3.598  2.2838  0.0581 -2.9548
  344MOL0     H45403   1.841   8.413   3.679  0.6966 -0.3746 -1.8032
  344MOL0     H45404   1.815   8.571   3.468  1.0957  1.2058 -0.3911
  344MOL0     H45405   1.762   8.688   3.565 -1.8333 -1.9711  1.4904
  344MOL0     H45406   2.181   8.682   3.660  0.0672 -0.0089  1.5553
  344MOL0     H45407   1.589   8.106   4.029 -0.8210 -1.9170 -0.9619
  344MOL0     H45408   1.381   7.970   4.079 -1.4976 -0.3233 -1.6656
  345MOL0     O45409   9.857   6.118   5.688  0.3429  0.8967  0.3531
  345MOL0     C45410   9.927   6.168   5.780 -0.4107  0.3860 -0.4367
  345MOL0     O45411   9.874   6.229   5.892 -0.4108 -0.7416  0.1909
  345MOL0     C45412   9.751   6.285   5.883  0.7501 -0.1628  0.1249
  345MOL0     C45413   9.700   6.350   5.770 -0.4925 -0.2278  0.1604
  345MOL0     C45414   9.585   6.420   5.772 -0.6781  0.2112  0.6901
  345MOL0     C45415   9.507   6.436   5.890 -0.1701  0.4126 -0.3794
  345MOL0     O45416   9.397   6.521   5.917  0.2394  0.7022  0.1174
  345MOL0     C45417   9.312   6.546   5.808  0.4205  0.2564 -0.4292
  345MOL0     C45418   9.185   6.615   5.864  0.0430  0.5539 -0.5941
  345MOL0     C45419   9.213   6.747   5.932 -0.7004  0.2966  0.3976
  345MOL0     C45420   9.084   6.831   5.958  0.4690  0.0082 -0.5787
  345MOL0     C45421   9.109   6.942   6.062  0.1592  0.7355 -0.8117
  345MOL0     C45422   8.996   7.036   6.068 -0.5095  0.0504 -0.1648
  345MOL0     C45423   8.998   7.124   6.198  0.3039 -0.0356  0.5604
  345MOL0     C45424   8.886   7.225   6.202  0.0578  0.0664  0.1864
  345MOL0     N45425   8.745   7.180   6.217 -0.7848  1.3830  0.2437
  345MOL0     C45426   8.696   7.130   6.333 -0.5969  0.3105  0.3009
  345MOL0     C45427   8.595   7.055   6.304 -0.5079  0.7491 -0.5550
  345MOL0     C45428   8.527   6.958   6.403  0.4624 -0.4346 -0.3208
  345MOL0     C45429   8.419   6.854   6.345  0.0524  0.3836  0.3610
  345MOL0     C45430   8.412   6.725   6.436  0.2140  0.1623  0.0962
  345MOL0     C45431   8.299   6.631   6.402 -0.0611 -0.0054 -0.2595
  345MOL0     O45432   8.184   6.714   6.436 -0.7341  0.1230 -0.8226
  345MOL0     C45433   8.062   6.674   6.396 -0.1480 -0.0489 -0.1849
  345MOL0     C45434   7.956   6.765   6.382 -0.5353 -0.4099  0.9358
  345MOL0     C45435   7.827   6.720   6.353  0.3725  0.6893  0.6226
  345MOL0     C45436   7.792   6.583   6.344 -0.3342 -0.4641  0.0551
  345MOL0     C45437   7.659   6.538   6.311  0.5218 -0.3871 -0.4453
  345MOL0     O45438   7.558   6.636   6.308 -0.2738  0.0243  0.0565
  345MOL0     C45439   7.428   6.611   6.267  0.9305  0.1622 -0.2340
  345MOL0     C45440   7.397   6.508   6.174  1.2777 -0.1823  0.5371
  345MOL0     C45441   7.263   6.501   6.122  0.2746  0.3871  0.3860
  345MOL0     C45442   7.173   6.595   6.160  0.2141 -0.2489  0.5137
  345MOL0     O45443   7.039   6.581   6.129 -0.3041 -0.4551 -0.6005
  345MOL0     C45444   6.997   6.567   5.999 -0.9274 -0.8480  0.2444
  345MOL0     C45445   6.853   6.552   5.982  0.9746 -0.7039  1.0676
  345MOL0     C45446   6.771   6.634   6.081  0.2399  0.2933 -0.1238
  345MOL0     C45447   6.695   6.546   6.192 -0.3242 -0.4441  0.0646
  345MOL0     C45448   6.608   6.649   6.283 -0.3759  1.1378  0.7027
  345MOL0     C45449   6.494   6.711   6.213  0.3136  0.1283 -0.4671
  345MOL0     C45450   6.388   6.614   6.152 -0.1358 -0.4996 -0.2447
  345MOL0     C45451   6.243   6.642   6.173 -0.3136 -0.1460  1.2373
  345MOL0    Cl45452   6.186   6.803   6.113 -0.3359 -0.0762 -0.1833
  345MOL0     C45453   7.207   6.691   6.252 -0.8852 -1.0190 -0.8365
  345MOL0     C45454   7.334   6.700   6.305 -0.0776 -0.3007  0.7498
  345MOL0     O45455   7.635   6.416   6.303  0.1430  0.0993  0.4372
  345MOL0     C45456   7.902   6.496   6.348 -0.0710  0.0896  0.4423
  345MOL0     C45457   8.031   6.535   6.362  0.6246 -0.4410 -0.2110
  345MOL0     N45458   8.575   7.059   6.172 -0.0937 -1.1721  0.8999
  345MOL0     N45459   8.670   7.127   6.114 -0.0204 -0.2369 -0.3582
  345MOL0     C45460   9.551   6.362   6.005  0.7313  0.6933  0.6656
  345MOL0     C45461   9.672   6.287   5.999 -0.7929  0.4503  0.2695
  345MOL0     C45462  10.067   6.123   5.790 -0.2787  0.3906 -0.4122
  345MOL0     C45463  10.132   6.094   5.668 -0.3051 -0.4098  0.0634
  345MOL0     C45464  10.262   6.044   5.672 -0.4683  0.2120  0.6855
  345MOL0     C45465  10.337   6.033   5.787 -0.7433  0.1532  0.2656
  345MOL0     O45466  10.459   5.978   5.805  0.8130 -0.4776 -0.3458
  345MOL0     C45467  10.530   5.935   5.684  1.0080 -0.5285 -0.6401
  345MOL0     C45468  10.677   5.918   5.720 -0.6116 -0.5598  0.0995
  345MOL0     C45469  10.738   6.055   5.767 -0.9560  0.0139 -0.0823
  345MOL0     C45470  10.881   6.079   5.727 -0.5390  0.9167 -0.0030
  345MOL0     C45471  10.969   5.974   5.770 -0.0560 -0.3156 -0.9025
  345MOL0     C45472  11.051   5.883   5.793  0.8091  0.5791 -0.2323
  345MOL0     C45473  10.283   6.074   5.908  0.7504 -0.3356 -0.5463
  345MOL0     C45474  10.140   6.108   5.911  0.2705 -0.6614 -0.4457
  345MOL0     H45475   9.754   6.349   5.676  1.3339  1.0354  1.1432
  345MOL0     H45476   9.535   6.470   5.690  2.2092 -0.9898 -2.0082
  345MOL0     H45477   9.286   6.458   5.748  0.2509 -0.8542  1.2131
  345MOL0     H45478   9.366   6.619   5.746  3.6149 -0.2641  1.5189
  345MOL0     H45479   9.143   6.548   5.939  0.8451  1.0444  0.3281
  345MOL0     H45480   9.114   6.634   5.784  0.9859  2.9449 -0.9468
  345MOL0     H45481   9.266   6.805   5.856 -1.1721 -0.8155 -0.8182
  345MOL0     H45482   9.281   6.731   6.016 -1.4180 -1.3303  0.7081
  345MOL0     H45483   9.037   6.862   5.864  1.7036  3.0974 -0.2961
  345MOL0     H45484   9.013   6.755   5.991 -0.9895  0.5017 -2.4042
  345MOL0     H45485   9.201   6.997   6.042  0.1076  0.5105 -1.6773
  345MOL0     H45486   9.116   6.895   6.161  0.8169  3.1894  0.3877
  345MOL0     H45487   8.905   6.976   6.069  1.4193 -3.0644  0.0328
  345MOL0     H45488   8.998   7.096   5.977  0.8373 -0.3620 -0.4269
  345MOL0     H45489   8.995   7.059   6.286  1.1500  0.1682  0.7461
  345MOL0     H45490   9.097   7.169   6.205 -0.3365  1.6918 -0.8829
  345MOL0     H45491   8.906   7.282   6.111 -0.4087 -0.2928 -0.1480
  345MOL0     H45492   8.914   7.296   6.281 -1.4335  2.3550 -1.2322
  345MOL0     H45493   8.744   7.149   6.428  0.5807 -1.8117  0.2031
  345MOL0     H45494   8.493   7.009   6.494  0.3134 -0.0571 -0.5839
  345MOL0     H45495   8.599   6.886   6.442 -2.1591 -2.5507  1.0172
  345MOL0     H45496   8.440   6.840   6.238  0.0661 -0.7927  0.5097
  345MOL0     H45497   8.319   6.899   6.349 -0.5126 -0.9079  2.2482
  345MOL0     H45498   8.504   6.666   6.430  0.4678  0.3900  1.3165
  345MOL0     H45499   8.399   6.774   6.533  1.5136  1.2052 -0.2471
  345MOL0     H45500   8.307   6.540   6.462 -0.5828  0.2601  0.2274
  345MOL0     H45501   8.306   6.600   6.297  1.5375  1.8048 -0.7530
  345MOL0     H45502   7.969   6.869   6.410 -1.2128 -0.6482  2.2040
  345MOL0     H45503   7.752   6.796   6.332 -0.2858  1.2449  4.2691
  345MOL0     H45504   7.469   6.435   6.139 -1.7995 -2.4127 -1.7025
  345MOL0     H45505   7.230   6.418   6.059  0.1827 -0.4137  1.4621
  345MOL0     H45506   7.041   6.480   5.949  1.2876 -0.8360  1.9973
  345MOL0     H45507   7.044   6.657   5.958  1.8661 -2.4629 -0.4067
  345MOL0     H45508   6.835   6.444   5.974 -0.2477 -0.4225 -0.5942
  345MOL0     H45509   6.830   6.589   5.882  0.9187 -3.0403  0.1393
  345MOL0     H45510   6.695   6.680   6.016 -2.6195  0.0250  2.7548
  345MOL0     H45511   6.814   6.718   6.136 -3.5043  0.3141  3.2651
  345MOL0     H45512   6.628   6.471   6.149  0.5584  0.2629 -2.7960
  345MOL0     H45513   6.767   6.501   6.261  0.1024  0.5451  0.2896
  345MOL0     H45514   6.664   6.736   6.318  2.8940 -0.2407 -0.7058
  345MOL0     H45515   6.564   6.600   6.371 -3.6314  1.8749 -0.3640
  345MOL0     H45516   6.519   6.778   6.129  1.4715  1.1429  0.6398
  345MOL0     H45517   6.444   6.772   6.289  0.4957 -0.2042 -0.0819
  345MOL0     H45518   6.414   6.586   6.049 -1.2933 -1.1323 -0.3816
  345MOL0     H45519   6.397   6.522   6.210  2.3928 -0.3444 -0.2654
  345MOL0     H45520   6.220   6.640   6.279  0.0839 -0.1358  1.3237
  345MOL0     H45521   6.181   6.566   6.124 -0.6369 -0.2535  1.8153
  345MOL0     H45522   7.134   6.770   6.265  1.0224  0.8498 -0.9776
  345MOL0     H45523   7.359   6.791   6.358  0.3231  0.1750 -0.2446
  345MOL0     H45524   7.894   6.388   6.341  1.4814  0.0533 -1.9368
  345MOL0     H45525   8.101   6.453   6.370  1.0038  0.0388  1.8226
  345MOL0     H45526   9.503   6.372   6.102  2.7113 -1.2603  1.9476
  345MOL0     H45527   9.695   6.239   6.093 -1.8136  0.0307  0.3188
  345MOL0     H45528  10.086   6.104   5.570 -1.3740 -3.8021  0.0656
  345MOL0     H45529  10.301   5.997   5.583  0.8622  1.9661  0.2963
  345MOL0     H45530  10.515   6.004   5.600 -0.2574 -2.2651 -1.9025
  345MOL0     H45531  10.493   5.836   5.656  1.7669 -1.1380  0.4599
  345MOL0     H45532  10.688   5.843   5.798  1.1212 -1.4230 -0.9111
  345MOL0     H45533  10.727   5.886   5.629  0.7408  2.4131 -0.3352
  345MOL0     H45534  10.730   6.072   5.875 -2.3707  2.2986 -0.4829
  345MOL0     H45535  10.690   6.145   5.727 -0.7079 -0.3874 -1.3133
  345MOL0     H45536  10.883   6.084   5.617 -2.6649  2.6320 -0.0401
  345MOL0     H45537  10.929   6.167   5.770  4.0905 -1.6187  0.5698
  345MOL0     H45538  11.116   5.798   5.787 -1.6478 -1.3804 -0.9193
  345MOL0     H45539  10.328   6.052   6.004  0.6559 -1.2085 -0.6999
  345MOL0     H45540  10.095   6.126   6.008 -1.0381  1.1381 -1.3394
  346MOL0     O45541   4.447  10.645   5.456  0.0192  0.1291 -0.9038
  346MOL0     C45542   4.412  10.582   5.557  0.4998 -0.2941 -0.0112
  346MOL0     O45543   4.494  10.492   5.628 -0.4387  0.5864 -0.0897
  346MOL0     C45544   4.613  10.433   5.587  0.0002  0.2986  0.4382
  346MOL0     C45545   4.702  10.389   5.681  0.1865 -0.1251 -0.9458
  346MOL0     C45546   4.827  10.336   5.653  0.4733 -0.2389  0.6578
  346MOL0     C45547   4.863  10.316   5.521 -0.0850  0.5082 -0.9572
  346MOL0     O45548   4.985  10.260   5.490 -0.2314 -0.5781 -0.4680
  346MOL0     C45549   5.035  10.159   5.580  0.0331 -0.4366 -1.0053
  346MOL0     C45550   5.169  10.118   5.516 -0.8873  0.2519 -0.8261
  346MOL0     C45551   5.239  10.000   5.581  0.2133  0.1941  1.1343
  346MOL0     C45552   5.377   9.977   5.515 -0.6497 -0.3055 -0.2897
  346MOL0     C45553   5.463   9.858   5.581  0.8838  0.3756 -0.1522
  346MOL0     C45554   5.600   9.854   5.515 -0.3097  0.4015 -0.3964
  346MOL0     C45555   5.663   9.713   5.539  1.0521  0.9393  0.8654
  346MOL0     C45556   5.807   9.725   5.480  0.4589  0.9629  0.1366
  346MOL0     N45557   5.887   9.607   5.507 -0.0628  0.3691  0.5723
  346MOL0     C45558   5.897   9.493   5.433 -0.1501  0.5970  0.7233
  346MOL0     C45559   5.966   9.403   5.505 -0.6942  1.3168 -0.4309
  346MOL0     C45560   6.005   9.263   5.475  0.9690  0.0923 -0.4337
  346MOL0     C45561   6.141   9.253   5.420 -0.7619  0.3544 -0.2352
  346MOL0     C45562   6.267   9.286   5.497  0.0251  0.1766  0.4305
  346MOL0     C45563   6.401   9.249   5.439  1.0789 -0.4281  0.4738
  346MOL0     O45564   6.483   9.195   5.541 -1.1718  0.3898 -0.4825
  346MOL0     C45565   6.613   9.162   5.503 -0.2667 -0.1502  0.1590
  346MOL0     C45566   6.696   9.100   5.595 -0.4869  0.7567  0.6344
  346MOL0     C45567   6.826   9.051   5.563  0.2390  0.0758  0.5877
  346MOL0     C45568   6.886   9.094   5.444  0.6575 -0.2142  1.0220
  346MOL0     C45569   7.015   9.057   5.393 -0.1420  0.0993  0.2315
  346MOL0     O45570   7.049   9.076   5.262  1.1468  0.3549 -0.3123
  346MOL0     C45571   7.148   9.000   5.203 -0.7459 -0.9143  0.0154
  346MOL0     C45572   7.286   9.020   5.234 -0.2015  0.1555  0.0028
  346MOL0     C45573   7.386   8.963   5.159  0.2884 -0.1661  0.0415
  346MOL0     C45574   7.358   8.869   5.056  0.3025  0.8733 -0.0559
  346MOL0     O45575   7.467   8.817   4.990 -0.3859 -0.4440 -0.2382
  346MOL0     C45576   7.438   8.708   4.891  0.0763  0.3646  0.3251
  346MOL0     C45577   7.567   8.697   4.806  0.4101  0.1542 -0.1047
  346MOL0     C45578   7.676   8.609   4.877  0.2889 -1.4664 -0.7739
  346MOL0     C45579   7.790   8.569   4.777 -0.3777  0.0667 -0.2252
  346MOL0     C45580   7.903   8.493   4.852  0.8898  0.1269 -0.4605
  346MOL0     C45581   8.007   8.447   4.765  0.4892 -0.1788 -1.1191
  346MOL0     C45582   8.098   8.568   4.730 -0.1308  1.2885  0.1676
  346MOL0     C45583   8.233   8.517   4.666  0.4312  0.3135 -1.0293
  346MOL0    Cl45584   8.326   8.436   4.799 -0.5299 -0.5479 -0.3689
  346MOL0     C45585   7.228   8.846   5.027  0.0650  0.8574  0.3410
  346MOL0     C45586   7.121   8.918   5.096 -0.5835  0.5912 -0.0760
  346MOL0     O45587   7.080   8.991   5.470 -0.9822  0.0795 -0.0102
  346MOL0     C45588   6.801   9.164   5.350 -0.6330 -0.5884 -0.4060
  346MOL0     C45589   6.674   9.202   5.383 -0.1102 -0.0198  0.0210
  346MOL0     N45590   5.998   9.469   5.626 -0.4723  0.2098 -0.3980
  346MOL0     N45591   5.944   9.587   5.627 -0.6019  0.1303 -0.6241
  346MOL0     C45592   4.771  10.356   5.420 -0.4328  0.8440 -0.9453
  346MOL0     C45593   4.649  10.420   5.452  0.1846  0.9414  0.5140
  346MOL0     C45594   4.269  10.580   5.594 -0.2700  0.0282 -0.8855
  346MOL0     C45595   4.201  10.474   5.667  0.2088 -0.4626  1.1421
  346MOL0     C45596   4.069  10.493   5.702 -0.2210  0.2419 -1.2984
  346MOL0     C45597   4.000  10.615   5.668  0.3355  0.0606 -0.4512
  346MOL0     O45598   3.864  10.629   5.691  0.7589  0.1218 -0.0005
  346MOL0     C45599   3.796  10.532   5.763  0.8275  0.0176 -0.4347
  346MOL0     C45600   3.651  10.575   5.797  0.0808 -0.6698  0.5184
  346MOL0     C45601   3.577  10.474   5.885  0.2789  0.0746  0.2924
  346MOL0     C45602   3.613  10.488   6.033  0.2627 -0.5136  0.4311
  346MOL0     C45603   3.621  10.361   6.101 -0.6636 -0.3338 -0.1046
  346MOL0     C45604   3.624  10.263   6.181  0.5886  0.4438  0.2005
  346MOL0     C45605   4.063  10.716   5.600 -0.5296  0.3948 -0.6454
  346MOL0     C45606   4.197  10.696   5.559  0.1093 -0.1916 -0.3223
  346MOL0     H45607   4.681  10.396   5.787  3.5959  1.1140 -0.2383
  346MOL0     H45608   4.890  10.310   5.738  1.8363  3.4657  0.9621
  346MOL0     H45609   4.962  10.079   5.589 -1.7431  1.2345  0.3669
  346MOL0     H45610   5.057  10.189   5.684  0.4789  0.3457 -1.3154
  346MOL0     H45611   5.242  10.200   5.513  0.2774 -0.5847  1.4882
  346MOL0     H45612   5.140  10.097   5.413  2.5023 -1.5726 -1.5896
  346MOL0     H45613   5.178   9.910   5.568  0.1020  0.3902  0.1851
  346MOL0     H45614   5.251  10.017   5.688  2.8894 -0.1366  0.9459
  346MOL0     H45615   5.361   9.958   5.408 -0.4375 -1.4250 -0.1272
  346MOL0     H45616   5.423  10.075   5.530  1.1037 -1.2665  0.9473
  346MOL0     H45617   5.414   9.760   5.578  1.6705 -0.1518  2.0989
  346MOL0     H45618   5.485   9.874   5.687  2.9505  4.5831 -1.0252
  346MOL0     H45619   5.673   9.924   5.557  0.2309 -0.8958  0.9054
  346MOL0     H45620   5.598   9.862   5.406 -0.3894 -2.3832 -0.6778
  346MOL0     H45621   5.661   9.684   5.645 -1.0126  0.2226  0.6806
  346MOL0     H45622   5.599   9.637   5.493  1.4426 -1.0835  3.4019
  346MOL0     H45623   5.869   9.804   5.524  3.4545 -1.3208  0.3609
  346MOL0     H45624   5.799   9.737   5.371  0.7037 -0.2521 -0.0260
  346MOL0     H45625   5.869   9.487   5.328 -3.6733  2.2839  1.4158
  346MOL0     H45626   5.935   9.232   5.398  0.7323  3.1137 -1.5687
  346MOL0     H45627   6.001   9.193   5.559 -0.0002 -3.5340 -3.2267
  346MOL0     H45628   6.136   9.315   5.330 -2.2919  1.7808  0.7847
  346MOL0     H45629   6.155   9.149   5.387  0.3702  0.7479 -1.0516
  346MOL0     H45630   6.263   9.394   5.513 -0.9192 -0.2675  4.1295
  346MOL0     H45631   6.265   9.234   5.594  1.1471  0.5777  0.6816
  346MOL0     H45632   6.440   9.341   5.394 -1.9911  0.6467 -0.2365
  346MOL0     H45633   6.388   9.173   5.360  0.8387  1.4426 -1.3712
  346MOL0     H45634   6.651   9.062   5.686  2.2377 -0.5581  1.5533
  346MOL0     H45635   6.882   8.980   5.623  3.2606 -1.4477 -3.5343
  346MOL0     H45636   7.313   9.094   5.309 -1.1266  0.6794 -0.1607
  346MOL0     H45637   7.489   8.973   5.191 -0.5910  0.7688  2.8067
  346MOL0     H45638   7.355   8.738   4.827  1.3292  0.2574 -1.4202
  346MOL0     H45639   7.412   8.614   4.940 -2.5308  0.6974 -0.3071
  346MOL0     H45640   7.604   8.797   4.782 -0.5367  0.8334  1.1673
  346MOL0     H45641   7.543   8.642   4.714  1.5950  2.8888 -2.1884
  346MOL0     H45642   7.624   8.514   4.898  1.4672 -2.7714 -3.3072
  346MOL0     H45643   7.728   8.658   4.959 -0.9581 -0.5271 -0.5042
  346MOL0     H45644   7.752   8.495   4.706  0.4715 -0.2018 -0.4090
  346MOL0     H45645   7.811   8.661   4.722 -1.1744  3.0351  3.9390
  346MOL0     H45646   7.858   8.400   4.887 -2.2858  1.2413 -1.2435
  346MOL0     H45647   7.944   8.550   4.935 -1.4266  1.2254  0.0147
  346MOL0     H45648   7.970   8.401   4.673 -1.7015 -1.5417  0.3650
  346MOL0     H45649   8.065   8.368   4.814 -2.8741 -4.6849 -3.6629
  346MOL0     H45650   8.039   8.622   4.655  1.3584  0.5805 -1.6223
  346MOL0     H45651   8.123   8.636   4.812  2.6262  1.4654 -0.6971
  346MOL0     H45652   8.301   8.591   4.623  1.5928  0.2258  0.5675
  346MOL0     H45653   8.203   8.451   4.584 -4.0761  0.5309  0.2004
  346MOL0     H45654   7.199   8.777   4.949  0.5856 -0.8611  1.6095
  346MOL0     H45655   7.017   8.897   5.074 -0.2286  0.2525 -1.5826
  346MOL0     H45656   6.845   9.188   5.253  0.6568  1.4553  0.6121
  346MOL0     H45657   6.635   9.260   5.300  3.8900 -0.9422 -2.7610
  346MOL0     H45658   4.803  10.339   5.318 -1.2709 -1.5306 -0.8873
  346MOL0     H45659   4.581  10.453   5.374 -0.3549 -0.4262  0.3970
  346MOL0     H45660   4.259  10.384   5.685  1.0267 -0.3291 -0.6497
  346MOL0     H45661   4.030  10.419   5.771  0.2725  0.3370 -0.9092
  346MOL0     H45662   3.836  10.501   5.860 -1.6757 -1.2275  0.2907
  346MOL0     H45663   3.787  10.445   5.698 -1.4287 -1.4995  1.6917
  346MOL0     H45664   3.665  10.671   5.848  4.2762  1.2574 -3.5144
  346MOL0     H45665   3.602  10.593   5.702  1.6458 -2.4228 -0.6937
  346MOL0     H45666   3.602  10.377   5.842 -0.1151  1.1751 -2.6148
  346MOL0     H45667   3.471  10.496   5.869  0.9076  3.1670 -0.2226
  346MOL0     H45668   3.719  10.511   6.045  1.7840 -5.7795 -0.3338
  346MOL0     H45669   3.550  10.561   6.086  1.5205  1.0200 -0.0992
  346MOL0     H45670   3.632  10.175   6.242 -2.7085 -2.1372 -2.6728
  346MOL0     H45671   3.995  10.792   5.560 -4.0077 -1.7915  0.6433
  346MOL0     H45672   4.247  10.761   5.487 -0.1234 -0.6070 -0.8661
  347MOL0     O45673   5.014   9.681   0.856  0.2895  0.0538  0.0915
  347MOL0     C45674   4.945   9.757   0.931 -0.1243 -0.9266  0.7734
  347MOL0     O45675   4.991   9.874   0.983 -0.2756  1.4434  1.1806
  347MOL0     C45676   5.119   9.897   0.999  0.0374  0.1569 -0.4795
  347MOL0     C45677   5.212   9.895   0.891 -0.5885  0.8973 -0.0545
  347MOL0     C45678   5.346   9.940   0.907 -0.3116  0.1236 -0.1019
  347MOL0     C45679   5.402   9.973   1.031  0.4130 -1.0557 -0.7215
  347MOL0     O45680   5.534  10.020   1.031  0.4170 -0.9238  0.6116
  347MOL0     C45681   5.598  10.047   1.155  0.5480  0.4592  0.1896
  347MOL0     C45682   5.744  10.101   1.132 -0.3323 -0.3270  0.0355
  347MOL0     C45683   5.857  10.056   1.234 -0.1357 -0.2083 -0.3896
  347MOL0     C45684   5.990  10.118   1.194  0.8339 -0.1411  1.1109
  347MOL0     C45685   6.111  10.091   1.278 -1.6645 -0.5181  0.5115
  347MOL0     C45686   6.239  10.166   1.229 -0.1739  0.3737 -0.4576
  347MOL0     C45687   6.341  10.169   1.346  0.7492  0.1612 -0.5514
  347MOL0     C45688   6.486  10.174   1.309 -0.2114 -1.3200 -0.2005
  347MOL0     N45689   6.513  10.293   1.222 -0.4593  0.5720  0.5334
  347MOL0     C45690   6.524  10.420   1.277 -0.0013  0.6528 -0.1223
  347MOL0     C45691   6.492  10.503   1.173  0.5099  0.6038  0.1422
  347MOL0     C45692   6.481  10.649   1.165 -0.2158  0.3246 -0.3835
  347MOL0     C45693   6.340  10.705   1.190 -0.0394  0.9333 -0.7762
  347MOL0     C45694   6.253  10.680   1.062 -0.4568 -1.2488 -0.8858
  347MOL0     C45695   6.110  10.719   1.090  0.0625  0.5527  0.7911
  347MOL0     O45696   6.048  10.613   1.162  0.7318  0.4565  0.6481
  347MOL0     C45697   5.909  10.609   1.165 -0.3342 -0.2413 -0.7610
  347MOL0     C45698   5.853  10.513   1.258  0.6769  0.5506 -0.3913
  347MOL0     C45699   5.714  10.494   1.262  0.3668 -0.3446 -0.2051
  347MOL0     C45700   5.628  10.570   1.178 -0.1371 -0.1638 -0.1051
  347MOL0     C45701   5.483  10.537   1.173 -0.2868  0.4489 -0.8202
  347MOL0     O45702   5.438  10.449   1.276  0.0449  0.3671  0.6673
  347MOL0     C45703   5.302  10.429   1.285 -0.8040 -0.7736  0.8404
  347MOL0     C45704   5.216  10.510   1.354  0.6575 -1.0785 -0.5966
  347MOL0     C45705   5.083  10.479   1.369 -0.0634 -0.2879 -0.9165
  347MOL0     C45706   5.028  10.373   1.302  0.5828 -0.2650 -0.0221
  347MOL0     O45707   4.900  10.318   1.320  0.4799  0.1061 -0.2245
  347MOL0     C45708   4.807  10.405   1.394  0.1577  0.7165 -0.0269
  347MOL0     C45709   4.683  10.333   1.436  0.3792 -0.1131  1.2901
  347MOL0     C45710   4.584  10.309   1.317  0.7948 -0.4089  0.4164
  347MOL0     C45711   4.649  10.261   1.190  0.8251  0.1876 -0.5086
  347MOL0     C45712   4.535  10.250   1.090 -0.3447 -0.2118 -0.2722
  347MOL0     C45713   4.583  10.215   0.951  0.6194  0.4141  0.7397
  347MOL0     C45714   4.457  10.167   0.869 -0.3563  0.0182  0.0775
  347MOL0     C45715   4.489  10.108   0.734  0.6668  0.6430 -1.0505
  347MOL0    Cl45716   4.342  10.028   0.671 -0.7015  0.3748 -0.0129
  347MOL0     C45717   5.114  10.297   1.222  0.1839 -0.1555 -0.3248
  347MOL0     C45718   5.252  10.314   1.222 -0.8019 -0.2571  0.0988
  347MOL0     O45719   5.412  10.594   1.091  0.1305 -0.2333 -0.1474
  347MOL0     C45720   5.680  10.672   1.109  0.1339 -0.1867  1.3865
  347MOL0     C45721   5.820  10.695   1.098 -1.4705  0.4927  1.1233
  347MOL0     N45722   6.475  10.418   1.059 -0.1110  0.3574  0.2523
  347MOL0     N45723   6.491  10.296   1.089  0.2051  0.3324 -0.2185
  347MOL0     C45724   5.306   9.987   1.137 -0.0096  0.4467 -0.1604
  347MOL0     C45725   5.172   9.939   1.125  0.0595  0.5684  0.1850
  347MOL0     C45726   4.793   9.754   0.919  0.6090 -0.8798 -1.0628
  347MOL0     C45727   4.745   9.641   0.859  1.6032 -0.2619  0.7547
  347MOL0     C45728   4.608   9.628   0.843  0.9309  0.7675 -0.2684
  347MOL0     C45729   4.516   9.722   0.897 -0.5160 -0.1458 -0.4958
  347MOL0     O45730   4.377   9.690   0.906 -0.5012 -0.2322  0.3053
  347MOL0     C45731   4.317   9.563   0.865  0.9475  0.7971  0.6194
  347MOL0     C45732   4.294   9.572   0.714  0.0245 -0.2224  0.6893
  347MOL0     C45733   4.170   9.665   0.677 -0.1992  0.5248  0.1990
  347MOL0     C45734   4.130   9.663   0.535 -0.2694 -0.4252  0.3181
  347MOL0     C45735   4.039   9.555   0.486  0.3893  0.6968  1.2721
  347MOL0     C45736   3.958   9.473   0.448  0.1664  0.2211 -0.8581
  347MOL0     C45737   4.565   9.838   0.957 -0.6778  0.0643 -0.3039
  347MOL0     C45738   4.703   9.850   0.967  0.8028  0.0180 -0.5985
  347MOL0     H45739   5.166   9.869   0.797 -3.2767 -2.6773  2.0245
  347MOL0     H45740   5.419   9.939   0.826 -0.0625  2.7370  0.0147
  347MOL0     H45741   5.589   9.958   1.217 -1.1477 -0.1608 -0.8751
  347MOL0     H45742   5.538  10.126   1.201 -2.7948 -2.9332  2.1009
  347MOL0     H45743   5.730  10.209   1.130 -0.6263 -0.3407 -3.2816
  347MOL0     H45744   5.769  10.079   1.028 -3.0771  1.9566 -1.2427
  347MOL0     H45745   5.869   9.950   1.257 -2.4785 -0.0579  2.0460
  347MOL0     H45746   5.833  10.094   1.334  2.1749 -2.5781  1.2106
  347MOL0     H45747   6.010  10.094   1.089 -2.1175  0.4640  0.2994
  347MOL0     H45748   5.965  10.224   1.189 -1.7739 -0.6224  2.2617
  347MOL0     H45749   6.133   9.984   1.274 -0.9366 -0.3356 -0.8239
  347MOL0     H45750   6.083  10.127   1.378  0.5264  2.1237  0.2686
  347MOL0     H45751   6.218  10.268   1.194 -1.3827 -0.9994 -4.2916
  347MOL0     H45752   6.276  10.112   1.141  0.3293 -1.2819  0.7320
  347MOL0     H45753   6.329  10.254   1.413 -1.3585  1.8451 -2.9069
  347MOL0     H45754   6.328  10.074   1.400  0.6819 -0.4959 -1.6857
  347MOL0     H45755   6.498  10.081   1.253  1.2095 -0.3008 -1.6630
  347MOL0     H45756   6.553  10.176   1.396 -3.4926  0.9658  2.5144
  347MOL0     H45757   6.544  10.441   1.382  0.9200 -4.9664  1.1069
  347MOL0     H45758   6.516  10.696   1.072  1.7403  0.9612  0.6157
  347MOL0     H45759   6.554  10.688   1.236 -0.5541  0.0240  0.1327
  347MOL0     H45760   6.356  10.812   1.211 -1.0961  1.7189 -3.4990
  347MOL0     H45761   6.295  10.648   1.271  1.5142 -1.2563 -1.3921
  347MOL0     H45762   6.289  10.746   0.984  0.9913  1.8577  2.1472
  347MOL0     H45763   6.263  10.579   1.021 -4.1894 -1.3060 -2.0753
  347MOL0     H45764   6.062  10.744   0.995  1.0862 -2.8844 -0.7653
  347MOL0     H45765   6.111  10.807   1.156 -0.8850 -0.0715  1.6843
  347MOL0     H45766   5.928  10.454   1.309 -0.9805  0.0459  1.6095
  347MOL0     H45767   5.661  10.431   1.333 -2.2641 -0.5652 -2.2054
  347MOL0     H45768   5.251  10.601   1.402  0.4341 -0.4032 -1.6734
  347MOL0     H45769   5.024  10.542   1.435  0.9105  1.4942 -1.6686
  347MOL0     H45770   4.774  10.489   1.332  0.0584  1.4427  0.9883
  347MOL0     H45771   4.852  10.444   1.485 -0.9140 -1.3038  1.4429
  347MOL0     H45772   4.630  10.393   1.511 -1.9783  1.9734 -1.7810
  347MOL0     H45773   4.697  10.232   1.476  1.3276 -0.6473 -0.3215
  347MOL0     H45774   4.534  10.404   1.295  3.5540  0.5090 -2.7175
  347MOL0     H45775   4.504  10.240   1.348  0.4771 -1.1199 -1.7775
  347MOL0     H45776   4.726  10.331   1.156  1.5653  0.4054  1.4691
  347MOL0     H45777   4.701  10.169   1.220 -1.7642 -0.6333  1.8859
  347MOL0     H45778   4.473  10.340   1.089  0.8400  0.6582  1.1199
  347MOL0     H45779   4.480  10.163   1.128 -1.8361 -0.6736 -3.1755
  347MOL0     H45780   4.655  10.132   0.961  0.5825  0.0818 -1.3145
  347MOL0     H45781   4.628  10.301   0.902 -0.5607  0.3963 -0.4219
  347MOL0     H45782   4.397  10.102   0.934  0.4844  1.9983  3.0143
  347MOL0     H45783   4.391  10.250   0.845  0.3745  0.6467  0.2169
  347MOL0     H45784   4.567  10.032   0.748 -1.0395 -0.6578  2.6180
  347MOL0     H45785   4.523  10.183   0.662  1.9260  2.7638  1.5549
  347MOL0     H45786   5.063  10.210   1.184 -0.2735  0.6589 -1.6463
  347MOL0     H45787   5.327  10.248   1.180  0.3098  0.2864  1.1561
  347MOL0     H45788   5.623  10.748   1.056  3.4996 -0.0447 -2.6268
  347MOL0     H45789   5.860  10.773   1.035  1.2094 -0.6906  1.2053
  347MOL0     H45790   5.336  10.024   1.234  0.3318 -1.2144  0.3888
  347MOL0     H45791   5.112   9.939   1.215  0.2222  0.5772  0.2947
  347MOL0     H45792   4.812   9.564   0.822 -0.3561 -3.1822  2.7959
  347MOL0     H45793   4.565   9.547   0.785 -1.6302  2.2885 -0.6627
  347MOL0     H45794   4.226   9.561   0.926  1.0489  0.2570  0.7516
  347MOL0     H45795   4.373   9.472   0.886 -1.4411 -1.4257 -1.9691
  347MOL0     H45796   4.383   9.595   0.655 -1.5699 -2.0719 -2.6893
  347MOL0     H45797   4.265   9.473   0.679  1.9818 -0.0409 -1.6976
  347MOL0     H45798   4.203   9.768   0.693  2.2423 -0.2605  0.7071
  347MOL0     H45799   4.089   9.634   0.743 -0.2528 -2.7040 -1.1769
  347MOL0     H45800   4.071   9.755   0.525  0.6855  0.0536 -1.2948
  347MOL0     H45801   4.224   9.665   0.478 -1.1244 -1.5553 -1.2189
  347MOL0     H45802   3.889   9.398   0.414  0.0717  0.0361 -0.2868
  347MOL0     H45803   4.504   9.907   1.014 -1.2480  0.2942 -1.1683
  347MOL0     H45804   4.737   9.947   1.004  0.5803 -0.3570  0.6310
  348MOL0     O45805   6.660   4.881  10.445 -0.8397  1.0162 -0.2128
  348MOL0     C45806   6.664   4.932  10.333 -0.0398 -0.2276 -0.1110
  348MOL0     O45807   6.563   4.994  10.279 -0.3203  0.9307  0.2067
  348MOL0     C45808   6.457   5.022  10.359 -0.0421 -0.4347 -0.1091
  348MOL0     C45809   6.334   4.985  10.321 -0.2467 -0.3028  0.3959
  348MOL0     C45810   6.224   5.022  10.390  0.0234  0.0900  0.1169
  348MOL0     C45811   6.234   5.089  10.508  0.6254 -0.3898 -0.3457
  348MOL0     O45812   6.130   5.094  10.595  0.2519  0.3748 -0.3799
  348MOL0     C45813   6.005   5.120  10.522 -0.1542  0.0643  0.6182
  348MOL0     C45814   5.900   5.208  10.591  0.9691 -0.9160  0.7128
  348MOL0     C45815   5.760   5.194  10.518 -0.1490 -0.3410  0.1197
  348MOL0     C45816   5.664   5.305  10.565  1.0325 -0.4463  0.2265
  348MOL0     C45817   5.524   5.284  10.506 -0.5088 -0.6219 -0.3376
  348MOL0     C45818   5.441   5.413  10.526 -0.9963 -0.5204  0.1186
  348MOL0     C45819   5.291   5.418  10.505 -0.5121 -0.7639 -0.4231
  348MOL0     C45820   5.219   5.333  10.603  0.1607 -0.3895  0.7960
  348MOL0     N45821   5.081   5.382  10.623 -0.3433  0.8708  0.0385
  348MOL0     C45822   5.049   5.495  10.689  0.4485  0.7940  0.3479
  348MOL0     C45823   4.913   5.506  10.669 -0.1178 -0.1916 -0.3920
  348MOL0     C45824   4.826   5.621  10.701  0.1570 -0.2762 -0.3331
  348MOL0     C45825   4.682   5.565  10.718 -0.5364  0.4341  0.0624
  348MOL0     C45826   4.582   5.680  10.747  0.4876 -0.3075 -0.2282
  348MOL0     C45827   4.430   5.647  10.758 -0.2891  0.2961 -0.9743
  348MOL0     O45828   4.369   5.599  10.638  0.3351 -0.7232  0.2733
  348MOL0     C45829   4.297   5.476  10.642 -0.6238  0.2195 -0.5637
  348MOL0     C45830   4.357   5.353  10.680  1.0846 -0.2327  0.6424
  348MOL0     C45831   4.271   5.239  10.701 -0.5776  0.0213  0.7791
  348MOL0     C45832   4.127   5.248  10.697  0.2980  0.5122  0.7311
  348MOL0     C45833   4.039   5.130  10.721  0.4817  0.2716 -0.1920
  348MOL0     O45834   3.911   5.143  10.685  0.3679 -0.1379  0.7651
  348MOL0     C45835   3.811   5.054  10.718 -0.1648  0.2329 -0.9609
  348MOL0     C45836   3.831   4.924  10.770  0.0099 -0.2011  0.3438
  348MOL0     C45837   3.732   4.840  10.808 -0.5513  0.4037 -1.3702
  348MOL0     C45838   3.601   4.879  10.800 -0.1148 -0.2563 -0.0584
  348MOL0     O45839   3.518   4.791  10.844 -0.0195 -0.0244  0.3293
  348MOL0     C45840   3.378   4.802  10.830  0.9262  0.3056  0.4482
  348MOL0     C45841   3.329   4.781  10.683  0.5863 -0.7993  0.2410
  348MOL0     C45842   3.171   4.771  10.658 -0.1207  0.9745 -0.0065
  348MOL0     C45843   3.100   4.687  10.767 -0.6315  0.5527  0.1756
  348MOL0     C45844   2.950   4.678  10.760 -0.0543 -0.4262 -0.1635
  348MOL0     C45845   2.902   4.639  10.623 -0.3368  1.0734 -0.0489
  348MOL0     C45846   2.745   4.646  10.603  0.1387  0.2696  0.3229
  348MOL0     C45847   2.698   4.502  10.607  0.3949 -0.4487  0.0229
  348MOL0    Cl45848   2.513   4.474  10.579 -0.0087  0.3059 -0.1778
  348MOL0     C45849   3.572   5.013  10.748  1.3764 -0.2945 -0.8698
  348MOL0     C45850   3.677   5.096  10.716 -0.2244 -0.4676 -0.3037
  348MOL0     O45851   4.084   5.038  10.786 -0.6138  1.2901  1.2279
  348MOL0     C45852   4.069   5.376  10.677 -0.4651 -0.1160  0.5427
  348MOL0     C45853   4.156   5.487  10.649  0.7562 -0.1430  0.0294
  348MOL0     N45854   4.874   5.406  10.580  0.1161 -0.2320  0.5276
  348MOL0     N45855   4.971   5.334  10.555 -0.6151  0.3949 -0.4979
  348MOL0     C45856   6.359   5.140  10.548 -0.5193  1.2023 -0.4862
  348MOL0     C45857   6.468   5.094  10.477 -0.6734 -0.3360  0.3132
  348MOL0     C45858   6.789   4.942  10.258 -0.5875 -0.1267  0.0158
  348MOL0     C45859   6.789   4.988  10.129 -0.0092 -0.9836  0.3123
  348MOL0     C45860   6.899   4.979  10.050  0.3444 -0.3840  0.8010
  348MOL0     C45861   7.019   4.929  10.099 -0.0825 -0.8217 -0.1808
  348MOL0     O45862   7.127   4.925  10.004  0.5801 -0.0474 -0.1286
  348MOL0     C45863   7.250   4.906  10.066  0.1222  0.3977  0.6203
  348MOL0     C45864   7.360   4.947   9.967  0.7631  0.4471  0.0312
  348MOL0     C45865   7.500   4.920  10.024 -0.2658  1.1284 -0.4718
  348MOL0     C45866   7.609   4.980   9.928  0.1548 -0.0679  0.3355
  348MOL0     C45867   7.747   4.926   9.958  0.0783 -0.1809  0.3795
  348MOL0     C45868   7.845   4.869   9.985  0.6310  0.9645 -0.9588
  348MOL0     C45869   7.023   4.890  10.235 -1.0136 -0.2111  0.1534
  348MOL0     C45870   6.905   4.891  10.312 -0.4879  0.5696 -0.2575
  348MOL0     H45871   6.314   4.934  10.228  0.6008  1.2856 -0.7123
  348MOL0     H45872   6.132   4.980  10.348  2.0720 -2.2984 -2.3931
  348MOL0     H45873   5.955   5.023  10.509 -1.1398  0.5497  0.6473
  348MOL0     H45874   6.024   5.157  10.422  2.2543 -0.1948  0.9263
  348MOL0     H45875   5.940   5.307  10.567 -1.0503 -0.6414 -1.9869
  348MOL0     H45876   5.904   5.188  10.699  1.0504 -4.8314  0.1318
  348MOL0     H45877   5.715   5.097  10.540 -1.3928 -0.1437 -1.3449
  348MOL0     H45878   5.767   5.183  10.410  0.6517  2.0702 -0.1261
  348MOL0     H45879   5.662   5.309  10.675 -0.9361 -2.5980  0.3689
  348MOL0     H45880   5.695   5.401  10.525 -1.3497  1.5137  2.7056
  348MOL0     H45881   5.471   5.203  10.556  1.7748 -1.6510  0.5737
  348MOL0     H45882   5.534   5.262  10.400 -0.7372  3.9481 -1.5301
  348MOL0     H45883   5.493   5.480  10.458 -1.5570 -0.3222 -0.1237
  348MOL0     H45884   5.467   5.469  10.617 -4.5587  2.1164 -0.2395
  348MOL0     H45885   5.275   5.524  10.524  2.5600 -0.2048 -0.4484
  348MOL0     H45886   5.262   5.386  10.405 -1.5214 -3.5383  0.6266
  348MOL0     H45887   5.281   5.337  10.693  1.9387  0.6798 -0.4108
  348MOL0     H45888   5.209   5.227  10.577 -0.2702 -0.6367  1.8868
  348MOL0     H45889   5.125   5.554  10.741  1.5696  0.1439 -0.4968
  348MOL0     H45890   4.833   5.691  10.617 -2.7321 -1.2696 -1.5385
  348MOL0     H45891   4.847   5.677  10.793  2.6211 -0.9883 -0.4083
  348MOL0     H45892   4.680   5.491  10.798 -1.2464  1.9830  1.5316
  348MOL0     H45893   4.644   5.516  10.628 -1.1367  1.9893 -0.5688
  348MOL0     H45894   4.616   5.716  10.845 -0.2891 -0.4303  0.0934
  348MOL0     H45895   4.610   5.759  10.678 -2.1343 -0.4880 -1.6160
  348MOL0     H45896   4.388   5.748  10.772 -1.2589 -0.1283 -0.6919
  348MOL0     H45897   4.411   5.583  10.844  0.3058  0.6676 -0.5660
  348MOL0     H45898   4.465   5.346  10.688  1.0230 -0.7359  1.2250
  348MOL0     H45899   4.311   5.142  10.730  0.6214  0.1486 -0.3619
  348MOL0     H45900   3.933   4.890  10.780  0.3492  1.2043  2.3127
  348MOL0     H45901   3.756   4.738  10.836 -0.9074  0.1614 -1.9128
  348MOL0     H45902   3.348   4.900  10.866  1.2973  0.3147  0.7347
  348MOL0     H45903   3.337   4.728  10.899 -0.3781  0.5515 -0.0414
  348MOL0     H45904   3.380   4.695  10.639 -0.2100 -0.2359 -1.9499
  348MOL0     H45905   3.360   4.871  10.629 -2.8338 -0.2868 -1.1425
  348MOL0     H45906   3.157   4.737  10.555 -0.1787  3.2127 -0.7907
  348MOL0     H45907   3.129   4.872  10.658 -1.0639  0.5939 -0.6588
  348MOL0     H45908   3.139   4.587  10.749 -1.5640  0.1864  0.1604
  348MOL0     H45909   3.126   4.738  10.861  0.0580  1.7988 -0.6531
  348MOL0     H45910   2.906   4.772  10.794 -0.7903 -0.7126 -0.2995
  348MOL0     H45911   2.904   4.606  10.829 -1.5841  1.4247  0.8444
  348MOL0     H45912   2.937   4.542  10.587 -3.2177  0.7323 -2.2821
  348MOL0     H45913   2.939   4.709  10.547 -0.8522  2.2332  0.7439
  348MOL0     H45914   2.687   4.683  10.689 -1.6833  0.0527 -0.7572
  348MOL0     H45915   2.711   4.683  10.506  3.1128 -2.2151 -1.8510
  348MOL0     H45916   2.718   4.463  10.708  1.5092  0.4002  0.1498
  348MOL0     H45917   2.749   4.442  10.531 -1.8704  0.4852 -2.3602
  348MOL0     H45918   3.475   5.055  10.723  3.0078  4.4078 -0.2999
  348MOL0     H45919   3.659   5.198  10.683  1.0372  0.3561  1.3698
  348MOL0     H45920   3.961   5.382  10.689 -0.3047  0.2678  1.9377
  348MOL0     H45921   4.117   5.585  10.624  0.0901 -0.6606 -1.0207
  348MOL0     H45922   6.369   5.190  10.644  2.4501 -1.3132  0.6586
  348MOL0     H45923   6.566   5.118  10.516 -0.3376  0.1861 -0.7994
  348MOL0     H45924   6.694   5.019  10.085 -0.8377 -1.3379  1.8028
  348MOL0     H45925   6.892   5.003   9.945 -3.9055  3.8778  1.6852
  348MOL0     H45926   7.254   4.799  10.088 -0.4979 -0.0399 -1.2139
  348MOL0     H45927   7.247   4.969  10.155 -2.1506  3.1013 -1.1900
  348MOL0     H45928   7.351   4.886   9.876  0.2030  1.9494 -0.9480
  348MOL0     H45929   7.350   5.053   9.944  3.8077  1.4710  2.6309
  348MOL0     H45930   7.503   4.813  10.046 -2.3486  1.3772  1.3512
  348MOL0     H45931   7.499   4.970  10.120 -2.0344  1.0556 -0.4158
  348MOL0     H45932   7.584   4.951   9.825 -2.1153 -2.5567  1.4600
  348MOL0     H45933   7.595   5.088   9.940 -2.1249 -0.2957  0.1175
  348MOL0     H45934   7.934   4.830  10.029 -0.2754 -1.2281 -0.9720
  348MOL0     H45935   7.116   4.847  10.271  1.3610  1.9118 -2.8461
  348MOL0     H45936   6.911   4.842  10.408  2.1635 -2.2525 -1.6619
  349MOL0     O45937   4.076   3.512   6.645  0.2626 -0.1262  0.5571
  349MOL0     C45938   4.103   3.537   6.763  0.3990  1.3292 -0.0564
  349MOL0     O45939   4.238   3.579   6.809  0.5586  0.4769  0.3889
  349MOL0     C45940   4.326   3.635   6.721  0.4671  0.3662  0.2004
  349MOL0     C45941   4.447   3.576   6.680  0.2840 -0.2181 -0.5428
  349MOL0     C45942   4.531   3.644   6.592  0.3536 -0.1575 -0.1510
  349MOL0     C45943   4.498   3.769   6.539 -0.1511 -0.7695 -0.3785
  349MOL0     O45944   4.594   3.827   6.466  0.4920 -0.2525 -0.1228
  349MOL0     C45945   4.589   3.972   6.449  0.3742  0.2763  0.6934
  349MOL0     C45946   4.708   4.022   6.368 -0.5508 -0.2764  0.2558
  349MOL0     C45947   4.837   4.015   6.444 -0.6262  0.5647  0.2204
  349MOL0     C45948   4.946   4.082   6.362  0.7817  0.5902  0.8900
  349MOL0     C45949   5.093   4.059   6.398  0.3576 -0.5284 -0.5281
  349MOL0     C45950   5.187   4.149   6.323 -0.7712 -0.5172 -0.3587
  349MOL0     C45951   5.338   4.110   6.351 -0.2381 -0.2155 -0.9175
  349MOL0     C45952   5.391   4.150   6.489  0.6978  0.5773  0.4906
  349MOL0     N45953   5.535   4.151   6.491  0.3306  0.1652 -0.2615
  349MOL0     C45954   5.615   4.240   6.554 -0.6678  1.1544 -0.1924
  349MOL0     C45955   5.743   4.200   6.531  0.2062  0.3367 -0.2929
  349MOL0     C45956   5.874   4.241   6.577 -0.2553 -0.3679 -0.4493
  349MOL0     C45957   5.860   4.308   6.712  0.2332 -1.6769 -0.6692
  349MOL0     C45958   5.993   4.348   6.765 -0.7933 -0.1252  0.2483
  349MOL0     C45959   6.081   4.235   6.817 -0.0095  0.0454 -0.3109
  349MOL0     O45960   6.217   4.278   6.813 -0.2705 -0.3020  0.0257
  349MOL0     C45961   6.310   4.213   6.892 -0.2436 -0.2627  0.0897
  349MOL0     C45962   6.304   4.081   6.935  0.4461  0.4677 -0.2658
  349MOL0     C45963   6.411   4.018   6.996 -0.0145 -0.3234  0.3470
  349MOL0     C45964   6.524   4.092   7.021 -0.3063  0.0144  0.0679
  349MOL0     C45965   6.635   4.040   7.103  0.3928  0.6988 -0.4917
  349MOL0     O45966   6.622   3.908   7.150  0.0500 -0.0508  0.2824
  349MOL0     C45967   6.719   3.842   7.230 -0.8290 -0.6846  0.5003
  349MOL0     C45968   6.849   3.840   7.181  0.4490 -1.0848 -0.0553
  349MOL0     C45969   6.952   3.774   7.241 -0.1958  0.2227  0.0564
  349MOL0     C45970   6.929   3.694   7.355 -0.1102 -0.0577 -0.0010
  349MOL0     O45971   7.010   3.597   7.409 -0.2380  0.0153  0.0376
  349MOL0     C45972   7.159   3.614   7.401  0.4536 -0.0076  0.5091
  349MOL0     C45973   7.212   3.546   7.527  0.7659 -0.4588  1.5095
  349MOL0     C45974   7.360   3.575   7.560 -0.3893  0.5186 -0.2890
  349MOL0     C45975   7.376   3.696   7.639  0.4422  0.0046 -0.5763
  349MOL0     C45976   7.522   3.724   7.684  0.1847  0.5126  0.4778
  349MOL0     C45977   7.571   3.630   7.791 -0.0733 -0.1544 -1.1358
  349MOL0     C45978   7.709   3.666   7.860 -0.8675 -0.7803 -0.7381
  349MOL0     C45979   7.780   3.541   7.922 -0.7161  0.1524 -0.9503
  349MOL0    Cl45980   7.715   3.512   8.082  0.0009 -0.1929  0.0219
  349MOL0     C45981   6.798   3.715   7.410 -0.2948 -0.7548 -0.2509
  349MOL0     C45982   6.689   3.781   7.350  0.1007 -0.3811 -0.0044
  349MOL0     O45983   6.721   4.118   7.141 -0.1901  0.3312 -0.8780
  349MOL0     C45984   6.534   4.225   6.977 -0.1314  0.5270  0.1285
  349MOL0     C45985   6.429   4.282   6.913 -0.5502  0.1595 -0.5941
  349MOL0     N45986   5.730   4.084   6.460 -0.5801  0.0303 -0.2088
  349MOL0     N45987   5.612   4.050   6.442 -0.4213  0.4106  0.3237
  349MOL0     C45988   4.384   3.831   6.591 -0.0727 -0.0728  0.1490
  349MOL0     C45989   4.294   3.755   6.665 -0.0491 -0.2821 -1.1420
  349MOL0     C45990   4.003   3.528   6.869  0.2691  0.5707  0.2774
  349MOL0     C45991   3.865   3.519   6.841 -1.3808 -0.9051  0.3366
  349MOL0     C45992   3.760   3.531   6.931 -0.4452 -0.2001  0.0972
  349MOL0     C45993   3.783   3.570   7.062 -0.8886 -0.2106 -0.4865
  349MOL0     O45994   3.679   3.596   7.143 -0.4561 -0.3658  0.5124
  349MOL0     C45995   3.680   3.642   7.275 -0.3091  0.7135  0.1895
  349MOL0     C45996   3.553   3.716   7.289 -0.8080 -1.2496  0.5680
  349MOL0     C45997   3.533   3.781   7.433  0.6793 -0.4848  0.2052
  349MOL0     C45998   3.400   3.864   7.451 -0.5082 -0.1690 -0.3635
  349MOL0     C45999   3.427   3.943   7.567 -0.9468  0.1903  0.4843
  349MOL0     C46000   3.450   4.017   7.657 -0.7713  0.0353 -0.4210
  349MOL0     C46001   3.918   3.583   7.095 -0.2209 -0.4307 -0.6201
  349MOL0     C46002   4.027   3.562   7.003 -0.0944 -0.3282 -0.3259
  349MOL0     H46003   4.473   3.478   6.720  0.8275  0.6296  1.2378
  349MOL0     H46004   4.634   3.610   6.582 -0.5473 -3.3633  0.4233
  349MOL0     H46005   4.575   4.027   6.543 -1.2915  2.4487 -0.7289
  349MOL0     H46006   4.501   4.010   6.396 -0.2460  3.2038  3.4760
  349MOL0     H46007   4.686   4.129   6.358 -4.1422 -0.7624  1.4192
  349MOL0     H46008   4.713   3.969   6.273  0.1427 -0.0818  0.1777
  349MOL0     H46009   4.860   3.910   6.460  1.2926  1.0029  0.5887
  349MOL0     H46010   4.831   4.078   6.533 -0.7496  3.6979 -1.8294
  349MOL0     H46011   4.930   4.056   6.257  0.0204 -0.0398  1.1454
  349MOL0     H46012   4.926   4.188   6.378  1.0192  0.2982  3.6239
  349MOL0     H46013   5.118   3.956   6.372 -0.0196 -0.7285 -0.1137
  349MOL0     H46014   5.102   4.081   6.505 -0.3724  0.7311 -0.7108
  349MOL0     H46015   5.172   4.255   6.345 -0.5823 -0.4369 -0.6261
  349MOL0     H46016   5.162   4.134   6.218  0.0088 -1.2255 -0.4526
  349MOL0     H46017   5.352   4.005   6.323  3.0026 -0.0755 -0.1103
  349MOL0     H46018   5.405   4.161   6.282 -1.7217  2.9912 -0.1701
  349MOL0     H46019   5.354   4.069   6.554 -2.5971 -0.2607 -2.1113
  349MOL0     H46020   5.341   4.243   6.517  0.8522  0.7383  0.2359
  349MOL0     H46021   5.583   4.327   6.611 -1.6358 -0.2761  1.5973
  349MOL0     H46022   5.921   4.294   6.493  1.9084 -1.2315  0.1821
  349MOL0     H46023   5.928   4.148   6.596  2.9602  1.4394 -0.0512
  349MOL0     H46024   5.807   4.233   6.772  1.1381 -1.9828 -0.2431
  349MOL0     H46025   5.792   4.393   6.706  2.6584  0.4963  0.9015
  349MOL0     H46026   6.044   4.398   6.681 -2.5571 -0.4317 -1.0676
  349MOL0     H46027   5.978   4.416   6.849 -0.0379 -3.0365  2.9350
  349MOL0     H46028   6.061   4.140   6.767 -1.2743  0.1200  0.0366
  349MOL0     H46029   6.050   4.225   6.922 -1.6237  2.0502 -0.5354
  349MOL0     H46030   6.213   4.027   6.914  1.6352 -1.3131 -1.0546
  349MOL0     H46031   6.400   3.915   7.029 -1.8002 -0.3286 -0.1698
  349MOL0     H46032   6.870   3.884   7.084  0.0318 -2.0682 -0.6036
  349MOL0     H46033   7.054   3.787   7.207 -0.4706  0.4447 -0.7255
  349MOL0     H46034   7.177   3.722   7.406  1.9236 -0.2763  1.8016
  349MOL0     H46035   7.196   3.561   7.313 -0.9700  0.3960 -0.3681
  349MOL0     H46036   7.201   3.439   7.507 -0.4227 -0.2049  0.7405
  349MOL0     H46037   7.152   3.573   7.615  0.5663  0.8883  0.9779
  349MOL0     H46038   7.411   3.591   7.464  0.8960  0.0197  0.2874
  349MOL0     H46039   7.407   3.493   7.615 -0.3979  1.0316  0.4785
  349MOL0     H46040   7.333   3.776   7.577 -1.9964 -1.6725 -1.1984
  349MOL0     H46041   7.306   3.686   7.722  0.3381 -1.9315 -0.8494
  349MOL0     H46042   7.514   3.828   7.715 -2.9592  1.7411 -3.5535
  349MOL0     H46043   7.601   3.731   7.609 -0.7454  1.1094 -0.4637
  349MOL0     H46044   7.572   3.528   7.750 -1.5472 -1.4985  1.8223
  349MOL0     H46045   7.508   3.622   7.880  2.5667 -0.7489  0.8202
  349MOL0     H46046   7.778   3.711   7.788 -0.4946 -4.5533 -2.9928
  349MOL0     H46047   7.707   3.734   7.946  2.6188 -3.2041  1.5540
  349MOL0     H46048   7.887   3.554   7.934 -0.6659 -1.2912  0.5893
  349MOL0     H46049   7.764   3.451   7.861  2.1865 -0.9312 -0.2505
  349MOL0     H46050   6.775   3.663   7.503 -0.4687 -0.1097  0.0723
  349MOL0     H46051   6.586   3.796   7.381  0.3311  2.5859 -0.3760
  349MOL0     H46052   6.611   4.299   6.996 -1.4513  2.1490 -0.5934
  349MOL0     H46053   6.444   4.379   6.868 -0.3750 -0.9991 -3.2079
  349MOL0     H46054   4.358   3.931   6.556  1.4076 -0.5959 -2.7376
  349MOL0     H46055   4.193   3.788   6.683  0.7434  2.2648 -1.0166
  349MOL0     H46056   3.834   3.489   6.741  0.1135 -2.6370  0.3339
  349MOL0     H46057   3.655   3.530   6.906 -0.3990 -0.4695 -0.0848
  349MOL0     H46058   3.765   3.709   7.291 -1.8652  2.5307  1.3383
  349MOL0     H46059   3.687   3.563   7.351 -0.6734 -0.5092 -1.0125
  349MOL0     H46060   3.554   3.790   7.208 -1.9966 -2.1746 -0.3354
  349MOL0     H46061   3.473   3.646   7.265 -2.3548  1.3751 -2.7382
  349MOL0     H46062   3.615   3.853   7.435 -0.4343  1.2395 -4.1834
  349MOL0     H46063   3.548   3.705   7.510  0.0551  0.5823  1.4156
  349MOL0     H46064   3.384   3.925   7.362 -0.3731  0.6981  0.1982
  349MOL0     H46065   3.311   3.800   7.464 -0.4384 -0.0875  0.6465
  349MOL0     H46066   3.481   4.078   7.740  1.7323 -2.0377  0.3153
  349MOL0     H46067   3.932   3.620   7.196 -3.2403  0.7992 -0.5517
  349MOL0     H46068   4.129   3.574   7.040  0.1555 -0.6648 -0.8870
  350MOL0     O46069   6.309   5.230   1.992  0.0509 -0.0068  0.2328
  350MOL0     C46070   6.322   5.329   2.069  0.3329  0.4849  0.9802
  350MOL0     O46071   6.218   5.392   2.130  0.1014 -0.9385  0.1676
  350MOL0     C46072   6.084   5.370   2.098 -0.3007 -0.4162  1.0686
  350MOL0     C46073   5.997   5.479   2.072 -0.4672 -0.1650 -0.2277
  350MOL0     C46074   5.863   5.470   2.033  0.6278 -0.4345 -0.0904
  350MOL0     C46075   5.810   5.340   2.018 -0.6024 -0.4914 -0.2004
  350MOL0     O46076   5.676   5.322   1.985  0.2525  0.5420 -0.1780
  350MOL0     C46077   5.650   5.208   1.896 -0.0525  0.0379 -0.1230
  350MOL0     C46078   5.551   5.248   1.783 -0.1340  0.4221 -0.7728
  350MOL0     C46079   5.413   5.257   1.855 -1.2638 -0.0704  0.3979
  350MOL0     C46080   5.293   5.284   1.767 -0.8673 -0.4835 -0.2792
  350MOL0     C46081   5.287   5.422   1.706 -0.5438 -1.2029 -0.4148
  350MOL0     C46082   5.167   5.443   1.601 -0.3814  1.4175 -0.0638
  350MOL0     C46083   5.161   5.591   1.553  0.7670  0.5163  0.0238
  350MOL0     C46084   5.055   5.597   1.443  0.6219 -0.3630  0.5574
  350MOL0     N46085   4.921   5.613   1.503  0.0816  0.7019 -0.3039
  350MOL0     C46086   4.851   5.730   1.527 -0.0332 -0.8193 -0.2737
  350MOL0     C46087   4.740   5.690   1.589 -0.7514  0.3943 -1.1894
  350MOL0     C46088   4.623   5.784   1.617 -0.3571  0.5167  0.6616
  350MOL0     C46089   4.488   5.731   1.578  0.1829 -0.4991  0.5657
  350MOL0     C46090   4.370   5.826   1.590 -0.4508 -1.1428 -1.0009
  350MOL0     C46091   4.238   5.781   1.533  0.1187  0.8686  0.4122
  350MOL0     O46092   4.129   5.830   1.608 -0.6252  0.9338 -0.4168
  350MOL0     C46093   4.038   5.884   1.528 -0.0877 -0.0097  0.4783
  350MOL0     C46094   4.055   6.021   1.484 -0.1488  1.3209 -0.9959
  350MOL0     C46095   3.972   6.064   1.383 -0.3445  0.5147 -0.3551
  350MOL0     C46096   3.877   5.982   1.317  0.0489  0.7982 -0.5943
  350MOL0     C46097   3.782   6.034   1.227  0.0122  0.0153  0.6296
  350MOL0     O46098   3.655   6.005   1.234  0.4292 -0.4323  0.4684
  350MOL0     C46099   3.552   6.071   1.184  0.3621  0.6476 -0.2102
  350MOL0     C46100   3.557   6.203   1.148 -0.2802 -0.3545 -0.8378
  350MOL0     C46101   3.439   6.257   1.100 -0.4825 -0.1060 -0.4446
  350MOL0     C46102   3.318   6.193   1.084 -0.6972 -0.4149  0.9446
  350MOL0     O46103   3.200   6.251   1.033  0.2968  0.3786 -0.4455
  350MOL0     C46104   3.201   6.383   0.976 -0.2221 -0.9216 -0.0151
  350MOL0     C46105   3.068   6.422   0.916 -0.1158  0.4258  0.7073
  350MOL0     C46106   3.058   6.356   0.782  0.1234  0.4166  0.1714
  350MOL0     C46107   2.908   6.357   0.755  0.0122  0.4576 -0.0928
  350MOL0     C46108   2.883   6.317   0.617 -0.2207 -0.6594  0.0713
  350MOL0     C46109   2.742   6.332   0.563  0.1661  0.5614 -0.2174
  350MOL0     C46110   2.723   6.283   0.425 -0.6114  0.5092  0.0999
  350MOL0     C46111   2.610   6.372   0.366  0.1987 -0.0378 -0.1040
  350MOL0    Cl46112   2.653   6.532   0.312  0.5489 -0.0157  0.1114
  350MOL0     C46113   3.319   6.060   1.126  0.4510 -0.5589  0.4396
  350MOL0     C46114   3.437   5.998   1.171  0.7066 -1.0505  0.0065
  350MOL0     O46115   3.831   6.108   1.138  0.2151 -0.3738  0.1640
  350MOL0     C46116   3.855   5.860   1.385 -0.0315 -0.1130  0.1575
  350MOL0     C46117   3.935   5.814   1.480 -0.2147 -0.3224  0.3859
  350MOL0     N46118   4.726   5.555   1.587 -0.1584  0.5711  0.6890
  350MOL0     N46119   4.836   5.505   1.542 -0.9427  0.4270  0.0929
  350MOL0     C46120   5.901   5.238   2.030 -0.9809  0.1284 -0.1197
  350MOL0     C46121   6.025   5.244   2.082 -0.3727  0.0836 -0.4528
  350MOL0     C46122   6.458   5.383   2.102  0.5450  0.2368 -0.1393
  350MOL0     C46123   6.479   5.510   2.160  0.3649  0.1622  0.2355
  350MOL0     C46124   6.605   5.561   2.176 -0.6792 -0.3941 -0.0095
  350MOL0     C46125   6.720   5.487   2.138 -0.2860 -0.3746  0.0982
  350MOL0     O46126   6.847   5.539   2.166  1.0353  0.2592  0.2660
  350MOL0     C46127   6.964   5.472   2.120  0.5833  0.4838 -0.2842
  350MOL0     C46128   7.076   5.552   2.191 -0.0469 -0.0721  0.3101
  350MOL0     C46129   7.209   5.518   2.115  0.3891 -0.2201  0.2698
  350MOL0     C46130   7.316   5.630   2.119 -0.3925  0.2262 -0.0668
  350MOL0     C46131   7.352   5.674   2.248 -0.9306 -0.0610  0.0600
  350MOL0     C46132   7.375   5.722   2.351  0.2244  0.5921 -0.2280
  350MOL0     C46133   6.700   5.364   2.083 -0.3986  0.4602 -0.2297
  350MOL0     C46134   6.572   5.311   2.059 -0.3476  0.4521  0.0435
  350MOL0     H46135   6.032   5.577   2.103  1.3549 -1.1979  1.2120
  350MOL0     H46136   5.816   5.568   2.023  1.2327  0.1145  2.0502
  350MOL0     H46137   5.619   5.118   1.949  0.4364  0.5667  1.1059
  350MOL0     H46138   5.745   5.188   1.845  0.5285  0.8137  0.6141
  350MOL0     H46139   5.557   5.171   1.706 -0.6114 -1.0935  0.6379
  350MOL0     H46140   5.569   5.344   1.734 -5.3290  1.7372 -0.6381
  350MOL0     H46141   5.421   5.338   1.927  0.8677  0.4978 -0.4114
  350MOL0     H46142   5.392   5.167   1.913 -1.4710 -0.3185 -0.0497
  350MOL0     H46143   5.278   5.203   1.695  2.7478 -1.0738 -0.5541
  350MOL0     H46144   5.213   5.281   1.841 -0.9260 -1.2981 -0.3690
  350MOL0     H46145   5.373   5.442   1.642  1.3353  2.3552  2.8408
  350MOL0     H46146   5.280   5.497   1.785  1.4181  0.0744 -1.3875
  350MOL0     H46147   5.073   5.421   1.652  0.1597 -0.3425  0.2314
  350MOL0     H46148   5.182   5.371   1.520 -1.6434  0.8137  0.2266
  350MOL0     H46149   5.130   5.644   1.643 -0.8435 -0.0738 -0.1418
  350MOL0     H46150   5.260   5.621   1.517  0.7572 -0.3204 -0.7579
  350MOL0     H46151   5.056   5.512   1.375  1.7369  1.4736 -1.8843
  350MOL0     H46152   5.069   5.692   1.390  0.7658 -1.5435 -1.6629
  350MOL0     H46153   4.876   5.835   1.511 -4.6354  0.4459 -0.7323
  350MOL0     H46154   4.638   5.876   1.561 -0.8542 -1.5192 -3.1455
  350MOL0     H46155   4.628   5.793   1.726 -0.5483  2.0288  0.5657
  350MOL0     H46156   4.461   5.636   1.624  1.5376 -0.6995  1.0043
  350MOL0     H46157   4.501   5.709   1.472  1.7656 -1.1570  0.8709
  350MOL0     H46158   4.350   5.852   1.695 -4.7991  0.0917 -1.9216
  350MOL0     H46159   4.392   5.925   1.549 -1.5476 -0.6337 -0.4029
  350MOL0     H46160   4.232   5.672   1.534 -0.1811  0.8806  0.2213
  350MOL0     H46161   4.238   5.814   1.428  1.6117 -0.2291  0.0196
  350MOL0     H46162   4.135   6.082   1.524 -2.1694  2.9525  0.7736
  350MOL0     H46163   3.986   6.167   1.351 -0.0225  0.1560 -1.3895
  350MOL0     H46164   3.646   6.265   1.148 -0.6503  0.2685 -3.3799
  350MOL0     H46165   3.433   6.360   1.067  0.5589  0.1867  0.2196
  350MOL0     H46166   3.277   6.393   0.897  1.6313  3.4046  2.0255
  350MOL0     H46167   3.221   6.460   1.051 -4.0562  1.1260 -0.8456
  350MOL0     H46168   3.050   6.529   0.909 -1.4376  0.1531 -0.6322
  350MOL0     H46169   2.989   6.374   0.977 -0.7571  0.5634 -0.0034
  350MOL0     H46170   3.090   6.251   0.784  0.1556  0.4295  2.0470
  350MOL0     H46171   3.130   6.412   0.722 -0.1385  1.2769  0.6513
  350MOL0     H46172   2.852   6.285   0.815  2.7879 -2.5941 -0.9301
  350MOL0     H46173   2.865   6.456   0.777 -1.3716  0.1428 -1.2180
  350MOL0     H46174   2.919   6.214   0.606  3.0445  0.1419  1.9543
  350MOL0     H46175   2.942   6.379   0.550  1.2701 -1.1064  0.9330
  350MOL0     H46176   2.718   6.438   0.570 -0.2705  0.7956 -3.5976
  350MOL0     H46177   2.670   6.284   0.630  1.2727  0.0634  0.6580
  350MOL0     H46178   2.816   6.291   0.367 -1.5327 -2.3585 -2.0239
  350MOL0     H46179   2.707   6.175   0.428 -1.0177  0.5394 -0.6936
  350MOL0     H46180   2.534   6.370   0.446 -0.8324 -1.2298 -1.0793
  350MOL0     H46181   2.578   6.321   0.275 -0.0592  1.0442 -0.6444
  350MOL0     H46182   3.240   5.986   1.125  3.0152 -3.5209 -0.8371
  350MOL0     H46183   3.436   5.894   1.200 -1.1425 -1.4818 -1.4044
  350MOL0     H46184   3.762   5.806   1.370 -0.5538  0.6348  0.6353
  350MOL0     H46185   3.927   5.712   1.518 -0.7573 -0.7858 -0.9322
  350MOL0     H46186   5.860   5.138   2.014 -0.0314 -0.2324 -0.3693
  350MOL0     H46187   6.069   5.145   2.087  0.1577 -0.1428 -5.1398
  350MOL0     H46188   6.399   5.580   2.182  0.7561  1.8584 -3.0500
  350MOL0     H46189   6.607   5.646   2.243  1.2158 -2.1400  2.3526
  350MOL0     H46190   6.960   5.470   2.011 -1.1971 -0.9212 -0.2241
  350MOL0     H46191   6.957   5.369   2.154 -1.4601  0.8247  0.4825
  350MOL0     H46192   7.051   5.658   2.187  0.4763  0.0693  0.6549
  350MOL0     H46193   7.073   5.523   2.296 -1.0853 -0.1287  0.2687
  350MOL0     H46194   7.205   5.504   2.006 -2.3284  0.3717  0.2250
  350MOL0     H46195   7.246   5.431   2.170 -2.4069 -0.6951  1.5813
  350MOL0     H46196   7.405   5.616   2.057  1.1001 -0.4127  2.1262
  350MOL0     H46197   7.273   5.718   2.069  3.6477  0.7235 -3.1540
  350MOL0     H46198   7.401   5.760   2.447 -0.0779 -0.5181  0.3147
  350MOL0     H46199   6.779   5.300   2.045 -1.3179 -1.3314  0.7449
  350MOL0     H46200   6.558   5.215   2.009  1.0603 -0.8566  2.0109
  351MOL0     O46201   8.175  10.648   8.886  0.0447  0.0023  0.4203
  351MOL0     C46202   8.225  10.657   8.998 -0.2117 -0.4076  0.7196
  351MOL0     O46203   8.162  10.655   9.112  0.0662  0.0899  0.0882
  351MOL0     C46204   8.030  10.646   9.108 -0.2825 -1.2317  0.0124
  351MOL0     C46205   7.957  10.533   9.071 -0.4348 -0.1380  0.1304
  351MOL0     C46206   7.822  10.516   9.098  0.9693  1.1500  0.0771
  351MOL0     C46207   7.758  10.625   9.150 -0.0418  1.2972 -0.2325
  351MOL0     O46208   7.625  10.616   9.190 -0.7818 -0.3521  0.3060
  351MOL0     C46209   7.545  10.526   9.116  0.0757  0.6128 -0.1636
  351MOL0     C46210   7.401  10.542   9.170 -0.1662 -1.0801  0.3150
  351MOL0     C46211   7.306  10.470   9.079  0.3485 -0.1776 -0.2949
  351MOL0     C46212   7.166  10.456   9.144 -0.5847 -0.1236 -0.2642
  351MOL0     C46213   7.073  10.364   9.068  0.5762  0.1613 -0.4187
  351MOL0     C46214   6.933  10.355   9.127 -0.5725 -0.3479  0.3018
  351MOL0     C46215   6.839  10.249   9.058  0.3956  1.0453  0.9889
  351MOL0     C46216   6.865  10.101   9.097  0.4766 -0.7552  0.6835
  351MOL0     N46217   6.758  10.009   9.061  0.1122 -0.1833  0.1518
  351MOL0     C46218   6.679   9.937   9.150  0.1995  0.1023 -0.3027
  351MOL0     C46219   6.599   9.872   9.064 -0.3057 -0.4727  0.4075
  351MOL0     C46220   6.483   9.791   9.108  0.2815 -0.5571  1.8112
  351MOL0     C46221   6.501   9.714   9.232  0.9067 -0.4169  1.4367
  351MOL0     C46222   6.375   9.624   9.264 -0.3472  0.2575  0.0540
  351MOL0     C46223   6.245   9.703   9.258 -1.0826 -0.5581 -0.1757
  351MOL0     O46224   6.227   9.791   9.368  0.2167 -0.2949 -0.0230
  351MOL0     C46225   6.101   9.833   9.391 -0.2154 -0.0214  0.6184
  351MOL0     C46226   6.018   9.874   9.285  0.1796 -0.0950  0.3286
  351MOL0     C46227   5.884   9.913   9.310 -0.4568  0.0426 -0.1194
  351MOL0     C46228   5.830   9.912   9.439  0.3904 -0.0744  0.4576
  351MOL0     C46229   5.688   9.956   9.450  0.2779  1.0674  0.5717
  351MOL0     O46230   5.617   9.914   9.562  0.2300  0.8652 -0.3327
  351MOL0     C46231   5.498   9.980   9.586 -0.0636 -0.1876 -0.3481
  351MOL0     C46232   5.376   9.957   9.510 -0.7488  0.1958  0.3504
  351MOL0     C46233   5.269  10.037   9.541 -0.2355 -0.6554 -0.2297
  351MOL0     C46234   5.272  10.134   9.645 -0.3744  0.0214 -0.4046
  351MOL0     O46235   5.164  10.216   9.650 -0.2964  0.0189 -0.2241
  351MOL0     C46236   5.178  10.312   9.760 -0.0274 -0.2753  0.5785
  351MOL0     C46237   5.050  10.387   9.779 -0.0572 -0.6092 -0.0498
  351MOL0     C46238   5.077  10.527   9.838  0.8442 -0.3175 -0.5195
  351MOL0     C46239   4.943  10.606   9.852 -0.4329  0.5520 -0.6412
  351MOL0     C46240   4.935  10.655  10.000  0.5171  0.2866 -1.3871
  351MOL0     C46241   4.791  10.676  10.036  0.1082  0.7250 -0.8381
  351MOL0     C46242   4.741  10.806   9.955  0.1002 -0.1929 -0.1185
  351MOL0     C46243   4.615  10.858  10.025 -0.3309  0.5720 -0.3666
  351MOL0    Cl46244   4.512  10.976   9.927  0.2861  0.1277 -0.0464
  351MOL0     C46245   5.389  10.132   9.730  1.0912 -0.2174  0.0201
  351MOL0     C46246   5.496  10.053   9.701  0.6303  0.6203 -0.8832
  351MOL0     O46247   5.639  10.015   9.355  0.1491 -0.0304 -0.3697
  351MOL0     C46248   5.917   9.869   9.543  0.8124  0.4395 -0.0984
  351MOL0     C46249   6.046   9.821   9.519 -1.1504  0.5987 -0.2042
  351MOL0     N46250   6.636   9.901   8.937  0.2984  0.1458  0.1887
  351MOL0     N46251   6.734   9.980   8.931 -0.6574  0.2549 -0.0093
  351MOL0     C46252   7.824  10.745   9.173  0.5304  0.0042 -0.3921
  351MOL0     C46253   7.963  10.754   9.154 -0.1799 -0.0667  0.3588
  351MOL0     C46254   8.371  10.645   8.995 -0.0745  0.4108 -0.5519
  351MOL0     C46255   8.437  10.649   9.114 -0.0506 -0.6476 -0.2827
  351MOL0     C46256   8.576  10.630   9.109 -0.4420  0.0111  0.0160
  351MOL0     C46257   8.635  10.590   8.992  0.4139 -0.8470 -0.0676
  351MOL0     O46258   8.776  10.574   8.995 -0.0737  0.2736 -0.4141
  351MOL0     C46259   8.833  10.491   8.894  0.4278  0.6690 -0.6605
  351MOL0     C46260   8.972  10.443   8.947 -0.1633 -0.7891  0.0334
  351MOL0     C46261   9.079  10.540   8.905 -1.7373 -0.1146  0.0458
  351MOL0     C46262   9.218  10.501   8.954  0.0844  0.1310 -0.6102
  351MOL0     C46263   9.279  10.637   8.974  0.0899  0.0909  0.0172
  351MOL0     C46264   9.317  10.752   8.964 -0.0264  0.3135  0.9447
  351MOL0     C46265   8.571  10.598   8.873  0.7765  0.2317  0.4720
  351MOL0     C46266   8.434  10.624   8.879 -0.3510  0.5207 -1.3054
  351MOL0     H46267   8.016  10.446   9.042  0.1620  0.0512  0.7491
  351MOL0     H46268   7.779  10.418   9.081  3.5783 -0.0871 -0.0115
  351MOL0     H46269   7.568  10.421   9.136 -1.6002  0.3942  0.8392
  351MOL0     H46270   7.562  10.538   9.008  1.4833 -1.2639 -0.2134
  351MOL0     H46271   7.378  10.649   9.175 -1.4778 -1.3654  0.8377
  351MOL0     H46272   7.387  10.501   9.270  0.5437  0.1642  0.9454
  351MOL0     H46273   7.351  10.374   9.052 -0.7459 -0.0395 -2.9134
  351MOL0     H46274   7.300  10.521   8.982 -1.2369 -0.0534 -0.1460
  351MOL0     H46275   7.185  10.413   9.243  0.2270  0.2485 -0.2469
  351MOL0     H46276   7.124  10.556   9.158  1.6941  0.6686  1.7846
  351MOL0     H46277   7.107  10.261   9.079 -2.2108 -0.9359 -1.4318
  351MOL0     H46278   7.079  10.384   8.960 -0.6107 -2.7423 -1.1174
  351MOL0     H46279   6.886  10.453   9.137 -1.2828 -0.6654  0.0997
  351MOL0     H46280   6.946  10.316   9.228  0.5202  0.1083  0.3508
  351MOL0     H46281   6.741  10.287   9.088  0.6118  1.8278  0.7215
  351MOL0     H46282   6.846  10.269   8.950  1.0899  0.2765  0.8755
  351MOL0     H46283   6.878  10.091   9.205  1.0353  0.0137  0.6935
  351MOL0     H46284   6.955  10.063   9.048  0.4273  2.0679 -1.8772
  351MOL0     H46285   6.693   9.947   9.257  2.7972 -0.2615 -0.5410
  351MOL0     H46286   6.460   9.721   9.027 -2.0691  4.1327 -2.1231
  351MOL0     H46287   6.408   9.870   9.097 -0.3161 -1.2832  0.4093
  351MOL0     H46288   6.516   9.789   9.311 -0.7397  1.9991 -0.3983
  351MOL0     H46289   6.590   9.653   9.212 -0.4559 -1.2713 -3.0106
  351MOL0     H46290   6.382   9.541   9.193  2.2233 -0.8667  1.4937
  351MOL0     H46291   6.385   9.575   9.361  1.2000 -0.1206 -0.2621
  351MOL0     H46292   6.160   9.635   9.249  0.3408 -2.2127 -2.0857
  351MOL0     H46293   6.236   9.761   9.166 -1.1541 -1.1630 -0.5586
  351MOL0     H46294   6.044   9.884   9.180 -1.3654  0.7070 -0.0229
  351MOL0     H46295   5.818   9.948   9.231  1.2279  2.1596 -0.6731
  351MOL0     H46296   5.381   9.886   9.428  0.1696 -1.0136  1.4117
  351MOL0     H46297   5.184  10.041   9.474  0.4030  0.1658 -1.0221
  351MOL0     H46298   5.252  10.388   9.730  0.5088 -1.2834 -0.7968
  351MOL0     H46299   5.200  10.252   9.849  1.2308 -0.1315  0.3804
  351MOL0     H46300   4.989  10.343   9.859 -0.9466  1.0445  0.2178
  351MOL0     H46301   4.998  10.389   9.683 -1.9191 -1.2896  0.8908
  351MOL0     H46302   5.140  10.587   9.772 -0.1138 -2.0626 -3.2100
  351MOL0     H46303   5.122  10.508   9.936 -2.8713 -2.5727  0.9723
  351MOL0     H46304   4.954  10.692   9.784  1.1380  0.8311 -0.0640
  351MOL0     H46305   4.853  10.546   9.836  1.0286 -1.7581 -0.6069
  351MOL0     H46306   5.006  10.731  10.035 -2.1453  0.5873  4.7504
  351MOL0     H46307   4.957  10.559  10.049 -1.4665  0.1717 -0.6374
  351MOL0     H46308   4.793  10.700  10.143  1.4709  1.4427 -1.0001
  351MOL0     H46309   4.735  10.583  10.023  1.6924 -0.5182  0.6516
  351MOL0     H46310   4.821  10.880   9.951 -0.2238  0.1270 -0.7113
  351MOL0     H46311   4.716  10.786   9.851  1.3080  0.7984 -0.6134
  351MOL0     H46312   4.647  10.902  10.120 -0.8364  0.4090 -0.1195
  351MOL0     H46313   4.549  10.776  10.052 -0.9778  0.9090 -0.9048
  351MOL0     H46314   5.403  10.197   9.815 -1.8346 -0.5115  0.8252
  351MOL0     H46315   5.581  10.049   9.769 -0.0361  0.9867 -0.0107
  351MOL0     H46316   5.880   9.873   9.645  2.2725  0.9720  0.4236
  351MOL0     H46317   6.108   9.787   9.601  0.3656  3.6810  0.0614
  351MOL0     H46318   7.768  10.829   9.213 -0.3404 -0.0656 -1.3962
  351MOL0     H46319   8.020  10.841   9.185  1.0965 -0.7377 -0.0236
  351MOL0     H46320   8.394  10.655   9.213 -0.0752 -0.5057 -0.3019
  351MOL0     H46321   8.639  10.612   9.196 -0.0720  0.7939 -0.0825
  351MOL0     H46322   8.843  10.542   8.798 -0.4445 -0.7206 -1.5182
  351MOL0     H46323   8.754  10.416   8.890 -0.8035  1.8688  0.2647
  351MOL0     H46324   8.966  10.434   9.055 -0.7048 -1.3962 -0.0477
  351MOL0     H46325   8.990  10.345   8.901  0.2291 -0.7958  0.1944
  351MOL0     H46326   9.051  10.643   8.929 -1.3074  0.0769 -0.2621
  351MOL0     H46327   9.080  10.536   8.796  2.9829 -0.5787 -0.1210
  351MOL0     H46328   9.213  10.455   9.053 -0.7033  1.0507 -0.2127
  351MOL0     H46329   9.274  10.438   8.883  1.2766  2.3662 -1.7632
  351MOL0     H46330   9.352  10.852   8.947  0.5792 -0.3208 -2.3002
  351MOL0     H46331   8.620  10.583   8.777 -3.9220  0.6087 -2.2813
  351MOL0     H46332   8.374  10.599   8.793 -0.8455 -2.1642 -0.2858
  352MOL0     O46333   9.786   2.289   6.026 -0.1002  0.5230 -0.4463
  352MOL0     C46334   9.687   2.253   5.966 -0.4159 -0.5192 -0.2439
  352MOL0     O46335   9.562   2.257   6.012  0.8669 -0.4873 -0.4600
  352MOL0     C46336   9.525   2.323   6.126  0.5685  0.1300 -0.4429
  352MOL0     C46337   9.563   2.457   6.143  0.4857 -0.0723 -0.6422
  352MOL0     C46338   9.524   2.525   6.261  0.5279 -0.5564 -0.0299
  352MOL0     C46339   9.456   2.460   6.364  0.2039  0.0222 -0.3542
  352MOL0     O46340   9.431   2.540   6.479 -0.0327  0.0916  0.8370
  352MOL0     C46341   9.373   2.483   6.596 -0.2104  0.5253 -0.0519
  352MOL0     C46342   9.377   2.586   6.704  0.4276  1.1363 -0.6277
  352MOL0     C46343   9.274   2.702   6.665  0.5043  0.0472  0.0832
  352MOL0     C46344   9.269   2.814   6.775 -0.2201 -0.1396  0.1171
  352MOL0     C46345   9.202   2.944   6.730 -0.1139 -0.3941  0.0804
  352MOL0     C46346   9.285   3.039   6.634  0.2339 -0.3346  0.3241
  352MOL0     C46347   9.195   3.157   6.578 -0.0498  0.3761 -0.2506
  352MOL0     C46348   9.169   3.274   6.669  0.3024  0.4108 -0.0943
  352MOL0     N46349   9.107   3.388   6.606  0.8552 -0.5752 -0.5245
  352MOL0     C46350   9.149   3.432   6.486 -0.4859  0.5287 -0.2453
  352MOL0     C46351   9.073   3.537   6.455  0.2008 -0.5878 -0.5219
  352MOL0     C46352   9.083   3.630   6.336  0.8636  0.0456  0.1412
  352MOL0     C46353   9.031   3.555   6.214  0.0787  0.4933 -0.6766
  352MOL0     C46354   9.136   3.475   6.142 -0.0136 -0.1222  0.5876
  352MOL0     C46355   9.214   3.559   6.032  0.1673  0.7297 -0.1757
  352MOL0     O46356   9.326   3.490   5.969 -0.7087  0.3462 -0.2989
  352MOL0     C46357   9.446   3.488   6.046 -0.7724  0.0279  0.2539
  352MOL0     C46358   9.476   3.575   6.162 -0.6828  0.1396  0.0535
  352MOL0     C46359   9.615   3.573   6.203 -0.4331 -1.3718  0.6641
  352MOL0     C46360   9.716   3.483   6.152  0.5218 -0.1369  0.6138
  352MOL0     C46361   9.854   3.489   6.202  1.0585 -0.8266 -0.5221
  352MOL0     O46362   9.896   3.572   6.303 -0.0332  0.0628  0.8373
  352MOL0     C46363  10.023   3.558   6.340  0.1998 -0.3230  0.3003
  352MOL0     C46364  10.132   3.623   6.277  0.2023  1.1245 -1.1127
  352MOL0     C46365  10.265   3.614   6.321  0.4829 -0.5754 -0.5439
  352MOL0     C46366  10.298   3.521   6.428  1.4658  0.0390  0.3134
  352MOL0     O46367  10.421   3.507   6.490  0.3515  0.2874  0.6774
  352MOL0     C46368  10.527   3.589   6.441 -0.0899  0.4165  0.4079
  352MOL0     C46369  10.656   3.572   6.502  0.9865  0.4998 -0.9517
  352MOL0     C46370  10.662   3.579   6.658 -0.2442  0.1935  0.5964
  352MOL0     C46371  10.814   3.560   6.695 -0.2699  0.0517  1.2452
  352MOL0     C46372  10.837   3.577   6.846  0.2070  0.4349 -0.2131
  352MOL0     C46373  10.967   3.497   6.885  0.1238 -0.1091  0.7281
  352MOL0     C46374  11.095   3.565   6.830  0.1184 -0.3279 -0.2702
  352MOL0     C46375  11.219   3.475   6.855  0.6157 -0.0454  0.3273
  352MOL0    Cl46376  11.244   3.451   7.032 -0.2017  0.3056 -0.4413
  352MOL0     C46377  10.192   3.453   6.483  0.3619 -0.0021  0.4769
  352MOL0     C46378  10.057   3.466   6.438 -0.7066 -0.1188 -0.4345
  352MOL0     O46379   9.931   3.408   6.148  0.0402 -0.1761  0.4766
  352MOL0     C46380   9.679   3.399   6.044  0.1982 -0.6446  0.5855
  352MOL0     C46381   9.549   3.399   5.989  0.6580 -0.1646 -0.1154
  352MOL0     N46382   8.980   3.549   6.557 -0.0175  0.8106 -0.9747
  352MOL0     N46383   8.998   3.458   6.641  0.3605 -0.3044 -0.4065
  352MOL0     C46384   9.420   2.320   6.343 -0.7323 -0.4389  0.5918
  352MOL0     C46385   9.447   2.253   6.218 -0.2145 -0.3790  0.2283
  352MOL0     C46386   9.698   2.176   5.845 -0.7704  0.9698 -0.5000
  352MOL0     C46387   9.800   2.188   5.754 -0.9389  0.5863 -0.3250
  352MOL0     C46388   9.791   2.113   5.631 -0.2551 -0.2659  0.6996
  352MOL0     C46389   9.687   2.020   5.605 -0.9698 -0.2355  0.2300
  352MOL0     O46390   9.704   1.957   5.484 -0.7847 -0.3926  0.0122
  352MOL0     C46391   9.612   1.863   5.441  0.0580  0.1419  0.1359
  352MOL0     C46392   9.598   1.739   5.529 -0.0887 -0.6156 -0.2959
  352MOL0     C46393   9.503   1.641   5.462  0.1152  0.1057  0.4577
  352MOL0     C46394   9.356   1.687   5.452 -0.0614  0.0373 -1.2134
  352MOL0     C46395   9.300   1.704   5.591  0.4850 -0.0389  0.7650
  352MOL0     C46396   9.266   1.723   5.707  0.5553 -0.0672  0.1848
  352MOL0     C46397   9.579   2.015   5.701 -0.9687  0.4770 -0.9957
  352MOL0     C46398   9.593   2.084   5.820 -0.1453 -0.1581 -0.1928
  352MOL0     H46399   9.617   2.502   6.061 -0.9362 -2.2322 -2.9062
  352MOL0     H46400   9.536   2.631   6.283  1.8027 -0.1469 -2.3883
  352MOL0     H46401   9.427   2.393   6.627 -1.2273  0.5953  2.1025
  352MOL0     H46402   9.270   2.449   6.577  0.4599 -1.8151  0.1955
  352MOL0     H46403   9.477   2.630   6.709  0.0327  1.9786  0.4754
  352MOL0     H46404   9.352   2.545   6.803  1.2038 -0.2320 -0.9894
  352MOL0     H46405   9.182   2.644   6.672  1.4769 -1.4687  0.9359
  352MOL0     H46406   9.296   2.740   6.565  1.6222 -0.7385  0.0036
  352MOL0     H46407   9.205   2.781   6.857  0.0632 -0.3890  0.2399
  352MOL0     H46408   9.371   2.833   6.811  0.9630 -0.0780 -2.9562
  352MOL0     H46409   9.174   3.001   6.818 -1.0351 -0.9799  0.1846
  352MOL0     H46410   9.112   2.905   6.682 -0.2310  1.7471 -1.5936
  352MOL0     H46411   9.341   2.979   6.562  2.0142  0.8981  0.6210
  352MOL0     H46412   9.358   3.090   6.697 -1.4855  2.2719  0.3917
  352MOL0     H46413   9.245   3.183   6.485 -1.4924  3.0292 -0.3895
  352MOL0     H46414   9.099   3.112   6.550  0.9758 -3.0023  1.2093
  352MOL0     H46415   9.267   3.301   6.710 -0.6798  1.7698  1.4722
  352MOL0     H46416   9.101   3.246   6.750 -0.8098 -0.3168 -1.2390
  352MOL0     H46417   9.240   3.404   6.433 -0.0191 -0.6365  1.1349
  352MOL0     H46418   9.182   3.674   6.324 -0.3173  2.3838 -1.7653
  352MOL0     H46419   9.020   3.719   6.341 -0.3641 -0.7308 -0.7353
  352MOL0     H46420   8.996   3.624   6.136 -0.5683  0.6237 -0.2864
  352MOL0     H46421   8.958   3.480   6.248  2.3529 -1.4183  0.2324
  352MOL0     H46422   9.212   3.432   6.209  0.0431 -0.6148  0.2112
  352MOL0     H46423   9.082   3.401   6.083  1.6973 -1.0435  0.0904
  352MOL0     H46424   9.246   3.653   6.077 -0.3192 -0.7537  3.6923
  352MOL0     H46425   9.137   3.582   5.958 -1.4549 -1.2643  0.7924
  352MOL0     H46426   9.416   3.654   6.206  1.7815  2.5006 -0.5322
  352MOL0     H46427   9.667   3.642   6.269  2.7173 -0.0547 -2.8739
  352MOL0     H46428  10.105   3.683   6.190 -1.1946  2.3579  0.1118
  352MOL0     H46429  10.341   3.684   6.287  2.8989 -1.6696  2.1587
  352MOL0     H46430  10.496   3.691   6.464 -0.6507  0.0715  1.2303
  352MOL0     H46431  10.548   3.573   6.335  2.6204 -1.2280  1.0616
  352MOL0     H46432  10.731   3.640   6.461  0.5445  1.5856 -0.0320
  352MOL0     H46433  10.684   3.468   6.485 -1.3713 -0.3381 -0.1710
  352MOL0     H46434  10.607   3.492   6.695  2.1151 -1.2056  0.9831
  352MOL0     H46435  10.621   3.667   6.709 -0.9411 -0.7996  1.7910
  352MOL0     H46436  10.849   3.463   6.660 -2.2515  0.0544 -1.0185
  352MOL0     H46437  10.866   3.641   6.643 -0.2068 -2.8073 -3.7794
  352MOL0     H46438  10.751   3.534   6.898  1.4432 -3.1874 -0.8763
  352MOL0     H46439  10.855   3.681   6.877  0.2061  0.2706  0.3495
  352MOL0     H46440  10.965   3.395   6.846  0.4281  0.1201  0.1065
  352MOL0     H46441  10.969   3.484   6.994  2.2524 -0.3533  0.6959
  352MOL0     H46442  11.089   3.591   6.723 -0.6559  1.7966  0.2341
  352MOL0     H46443  11.111   3.661   6.880  1.3097 -0.3976 -0.4738
  352MOL0     H46444  11.299   3.521   6.796  0.3530  0.0280  0.0259
  352MOL0     H46445  11.192   3.381   6.808  0.2063 -0.4930  1.4162
  352MOL0     H46446  10.212   3.384   6.565  2.3273 -1.5979 -1.2517
  352MOL0     H46447   9.983   3.394   6.473  0.4401 -0.7933  0.6711
  352MOL0     H46448   9.757   3.336   6.003 -0.7140 -2.6157  1.7040
  352MOL0     H46449   9.522   3.344   5.899  1.4354 -1.7984  0.6159
  352MOL0     H46450   9.374   2.263   6.423  1.8462 -3.5546  0.0390
  352MOL0     H46451   9.421   2.148   6.203  0.5157 -0.1345 -3.6157
  352MOL0     H46452   9.876   2.264   5.768  0.1856 -0.1913 -1.8732
  352MOL0     H46453   9.873   2.120   5.561 -0.4309 -0.0962  0.5097
  352MOL0     H46454   9.638   1.835   5.338  4.6021  0.1181  1.0946
  352MOL0     H46455   9.513   1.910   5.432 -1.1212 -2.4212 -1.7274
  352MOL0     H46456   9.700   1.699   5.529  0.3130  0.3619  0.2135
  352MOL0     H46457   9.578   1.758   5.634 -0.7370 -1.4063 -0.2679
  352MOL0     H46458   9.507   1.547   5.517  1.9503  0.7670  1.5623
  352MOL0     H46459   9.534   1.622   5.359 -0.0264 -2.9636  0.8984
  352MOL0     H46460   9.347   1.785   5.403  3.7636  1.8981  1.3142
  352MOL0     H46461   9.308   1.605   5.399  1.6886 -1.2767 -0.8673
  352MOL0     H46462   9.246   1.737   5.812 -1.4821 -0.8721 -0.0503
  352MOL0     H46463   9.494   1.949   5.691 -1.1674  0.6814 -0.6764
  352MOL0     H46464   9.515   2.058   5.890  0.9534 -0.7927  0.8393
  353MOL0     O46465   4.520   8.507   9.222  0.0662  0.2403 -0.3547
  353MOL0     C46466   4.522   8.522   9.343 -1.1880 -0.8163 -0.2592
  353MOL0     O46467   4.461   8.443   9.431  0.6099 -0.6804 -0.1025
  353MOL0     C46468   4.380   8.339   9.405  0.4334 -0.3196  0.6438
  353MOL0     C46469   4.322   8.299   9.275  0.3519  0.5773  0.1134
  353MOL0     C46470   4.247   8.180   9.273  0.4067  0.1806 -0.0414
  353MOL0     C46471   4.231   8.102   9.388 -0.5537 -0.1225 -0.5455
  353MOL0     O46472   4.157   7.985   9.386  0.3752 -0.9236  0.5176
  353MOL0     C46473   4.021   7.992   9.433  0.3840 -0.1933  0.6400
  353MOL0     C46474   3.946   7.866   9.404 -0.0702  0.4608  0.6871
  353MOL0     C46475   3.875   7.888   9.267  0.0971  0.5932  0.5081
  353MOL0     C46476   3.811   7.745   9.224  0.3591  0.7211  0.5902
  353MOL0     C46477   3.765   7.748   9.083 -0.7276 -0.4103  0.3773
  353MOL0     C46478   3.661   7.852   9.046  0.7648 -0.0009  0.6002
  353MOL0     C46479   3.636   7.844   8.892 -0.0877 -0.2051  0.2049
  353MOL0     C46480   3.528   7.953   8.851  0.5830  0.9464  0.0405
  353MOL0     N46481   3.402   7.929   8.920  0.0480 -0.3758  0.5079
  353MOL0     C46482   3.314   7.832   8.892  0.0049  0.1805 -0.4330
  353MOL0     C46483   3.204   7.870   8.961  0.2714 -0.3131 -0.3541
  353MOL0     C46484   3.085   7.782   8.960 -0.2824 -0.7888 -0.3922
  353MOL0     C46485   2.977   7.827   9.059  0.4063 -0.6272 -0.0877
  353MOL0     C46486   2.877   7.717   9.060 -0.0060  0.6232  0.2552
  353MOL0     C46487   2.761   7.761   9.135  0.3693  0.6085  0.3979
  353MOL0     O46488   2.649   7.665   9.115 -0.3675  0.8260 -0.3671
  353MOL0     C46489   2.528   7.701   9.173  0.9493 -0.6251 -1.1222
  353MOL0     C46490   2.440   7.601   9.213 -0.0461  0.1773 -0.1643
  353MOL0     C46491   2.317   7.626   9.269  0.3260 -0.3569 -0.7471
  353MOL0     C46492   2.271   7.755   9.289  0.1688  0.5357 -0.7252
  353MOL0     C46493   2.126   7.777   9.314  0.1064 -0.6587 -0.2357
  353MOL0     O46494   2.043   7.669   9.315 -0.1589  0.6270 -0.6469
  353MOL0     C46495   1.907   7.676   9.332  0.1612  0.1505 -0.0481
  353MOL0     C46496   1.840   7.559   9.372 -0.2249 -0.2449 -0.3164
  353MOL0     C46497   1.712   7.561   9.410  0.7783  0.3882 -0.8740
  353MOL0     C46498   1.633   7.673   9.403 -0.2988 -0.7813 -1.8844
  353MOL0     O46499   1.494   7.673   9.411 -0.7280 -0.1518  0.7277
  353MOL0     C46500   1.439   7.536   9.423 -0.1638  1.0468  0.7873
  353MOL0     C46501   1.295   7.547   9.404  0.7447  0.6304  0.1260
  353MOL0     C46502   1.241   7.406   9.384  0.2208 -0.5264 -0.2572
  353MOL0     C46503   1.095   7.414   9.348  0.2765 -0.4087  0.6917
  353MOL0     C46504   1.062   7.432   9.201 -0.0478  0.0299  0.7926
  353MOL0     C46505   0.917   7.431   9.178 -0.5311 -0.2151  0.7419
  353MOL0     C46506   0.884   7.467   9.035 -0.2272 -0.3473 -0.5704
  353MOL0     C46507   0.741   7.432   8.993 -0.8860  0.2799  0.4668
  353MOL0    Cl46508   0.617   7.498   9.096 -0.7092 -0.3595  0.0013
  353MOL0     C46509   1.685   7.788   9.352 -0.6189  0.3169  0.4061
  353MOL0     C46510   1.824   7.798   9.317 -0.5921 -0.1903  0.4260
  353MOL0     O46511   2.103   7.890   9.349  0.2622  0.7141  0.2521
  353MOL0     C46512   2.368   7.862   9.277 -0.7075 -0.0291  0.1858
  353MOL0     C46513   2.498   7.831   9.223 -0.3178 -0.3092  0.0554
  353MOL0     N46514   3.238   7.977   9.039 -0.0686 -0.5875  0.3754
  353MOL0     N46515   3.357   8.016   9.014 -0.1017 -0.0139 -0.1229
  353MOL0     C46516   4.272   8.154   9.505 -0.9692 -0.1463  0.3606
  353MOL0     C46517   4.345   8.263   9.516 -0.4138  1.0434  0.2618
  353MOL0     C46518   4.607   8.617   9.417 -0.9484  0.1155 -0.1051
  353MOL0     C46519   4.613   8.640   9.553  0.2770  0.2685 -0.2405
  353MOL0     C46520   4.707   8.720   9.623 -0.0970  0.4494  0.2282
  353MOL0     C46521   4.808   8.783   9.549  0.4661 -0.0148  0.3782
  353MOL0     O46522   4.911   8.833   9.619 -0.1103  0.7264 -0.7761
  353MOL0     C46523   5.045   8.853   9.566 -0.4004 -0.7640 -0.1520
  353MOL0     C46524   5.130   8.730   9.524  0.5958  0.7318 -0.3664
  353MOL0     C46525   5.116   8.615   9.624  0.2360 -0.7894 -0.2582
  353MOL0     C46526   5.119   8.656   9.770  0.7717  0.3637 -0.5545
  353MOL0     C46527   5.250   8.710   9.810  0.2333 -0.5721  0.2068
  353MOL0     C46528   5.366   8.734   9.809 -0.3815  0.3284 -0.3278
  353MOL0     C46529   4.813   8.770   9.407 -0.5290 -0.2542 -0.4639
  353MOL0     C46530   4.707   8.694   9.352 -0.4269  0.2429 -0.3656
  353MOL0     H46531   4.334   8.357   9.184  1.7513  2.2885  1.3101
  353MOL0     H46532   4.206   8.144   9.180  1.0287  0.3106 -0.3761
  353MOL0     H46533   3.969   8.079   9.392  0.2447  0.8661  2.9148
  353MOL0     H46534   4.002   8.005   9.539 -2.1776 -2.6869  0.6037
  353MOL0     H46535   3.863   7.847   9.473 -0.0543  1.5722  1.0245
  353MOL0     H46536   4.011   7.778   9.405 -2.3677 -1.4084 -1.2483
  353MOL0     H46537   3.947   7.909   9.188 -0.4550 -1.7180 -0.6945
  353MOL0     H46538   3.804   7.972   9.264  1.5140  1.8159 -1.2026
  353MOL0     H46539   3.894   7.674   9.223  0.7553  1.1692  1.1476
  353MOL0     H46540   3.736   7.705   9.293 -0.2190  1.3466  0.3411
  353MOL0     H46541   3.724   7.651   9.054  0.2620 -0.4447 -1.0163
  353MOL0     H46542   3.853   7.772   9.022 -0.9529  3.8700  1.4465
  353MOL0     H46543   3.686   7.952   9.081 -0.1193  0.2668  0.5012
  353MOL0     H46544   3.569   7.819   9.095  1.5388 -2.1734  0.7019
  353MOL0     H46545   3.724   7.868   8.831  0.6749 -0.3076  1.2459
  353MOL0     H46546   3.609   7.743   8.861  2.4461 -1.3018  1.3124
  353MOL0     H46547   3.504   7.937   8.746 -1.0150  0.5385  0.4452
  353MOL0     H46548   3.574   8.050   8.874 -0.5231  1.2604  1.0248
  353MOL0     H46549   3.332   7.751   8.822  0.1563 -0.6397  0.5544
  353MOL0     H46550   3.115   7.684   8.997  1.1262 -0.6967 -1.2520
  353MOL0     H46551   3.051   7.758   8.859 -1.7746  0.7065 -0.2922
  353MOL0     H46552   2.927   7.922   9.039 -2.3439 -1.8582  0.3724
  353MOL0     H46553   3.011   7.835   9.163 -1.2325 -0.5006  0.4720
  353MOL0     H46554   2.846   7.700   8.956  0.1243 -2.2838  0.6112
  353MOL0     H46555   2.920   7.625   9.099  1.8096  0.5332 -1.7828
  353MOL0     H46556   2.743   7.868   9.117  0.9988  0.5237 -0.8040
  353MOL0     H46557   2.795   7.745   9.237  1.0598 -0.1619  0.0570
  353MOL0     H46558   2.470   7.497   9.208  0.5486  0.2653  1.2702
  353MOL0     H46559   2.253   7.540   9.285 -3.2752  2.4728  1.5895
  353MOL0     H46560   1.898   7.468   9.387 -2.8777 -1.6959  2.0174
  353MOL0     H46561   1.660   7.471   9.444 -1.1156  1.7277 -0.0670
  353MOL0     H46562   1.472   7.494   9.519  0.3604 -0.2127  0.0886
  353MOL0     H46563   1.486   7.476   9.345  1.5415  3.1203  0.1505
  353MOL0     H46564   1.271   7.625   9.331  2.9096 -0.0948 -1.4497
  353MOL0     H46565   1.252   7.586   9.497 -0.0547  1.0284 -0.4014
  353MOL0     H46566   1.264   7.345   9.472  2.0553  0.9552  0.3402
  353MOL0     H46567   1.290   7.361   9.297 -1.6891 -4.0178  0.2789
  353MOL0     H46568   1.041   7.332   9.397 -4.1007  1.0580 -1.2100
  353MOL0     H46569   1.052   7.498   9.403  1.7400 -0.6410  2.3022
  353MOL0     H46570   1.118   7.362   9.138  1.1900 -1.0451  2.9658
  353MOL0     H46571   1.100   7.534   9.188 -1.1864  0.5614  1.4570
  353MOL0     H46572   0.865   7.488   9.255 -2.5784 -1.5559  0.4269
  353MOL0     H46573   0.884   7.328   9.193 -2.7524  0.8073  3.7589
  353MOL0     H46574   0.912   7.571   9.013  0.2240 -0.2056  0.5972
  353MOL0     H46575   0.945   7.408   8.967 -1.8072  0.2204 -2.5797
  353MOL0     H46576   0.726   7.324   8.980  1.0394  0.1016 -0.5809
  353MOL0     H46577   0.729   7.471   8.892  0.0825  0.3747  0.3846
  353MOL0     H46578   1.628   7.877   9.328 -2.0794 -0.8310 -0.5756
  353MOL0     H46579   1.868   7.891   9.283 -3.3578  0.0971 -2.8858
  353MOL0     H46580   2.333   7.963   9.298  0.1678  0.3164  0.0326
  353MOL0     H46581   2.559   7.920   9.209  0.2553 -0.4765  1.3275
  353MOL0     H46582   4.249   8.094   9.592 -1.1341  0.5553  0.8159
  353MOL0     H46583   4.383   8.292   9.613  1.0389  3.2592 -0.8710
  353MOL0     H46584   4.528   8.599   9.608 -0.0140 -0.1014 -0.9529
  353MOL0     H46585   4.702   8.727   9.731  3.3727  0.3907  0.5099
  353MOL0     H46586   5.103   8.911   9.638  1.5435 -3.3519  0.4986
  353MOL0     H46587   5.030   8.924   9.484 -1.3565 -0.1030  0.5674
  353MOL0     H46588   5.099   8.690   9.427 -1.0619  2.0613 -0.4282
  353MOL0     H46589   5.234   8.760   9.508  1.0445  2.1361  3.8089
  353MOL0     H46590   5.195   8.540   9.611 -0.4535 -1.2637 -1.8879
  353MOL0     H46591   5.016   8.573   9.614 -0.3624  0.8996 -1.8727
  353MOL0     H46592   5.034   8.716   9.803 -0.7597 -2.1023  0.1917
  353MOL0     H46593   5.119   8.565   9.830  0.4085  1.4724  1.1852
  353MOL0     H46594   5.469   8.759   9.825  0.6239 -2.7298 -1.2316
  353MOL0     H46595   4.886   8.816   9.342 -0.1809 -1.6901 -1.1368
  353MOL0     H46596   4.714   8.683   9.244 -0.5258  0.4951 -0.3968
  354MOL0     O46597   1.631   6.197   7.404  0.0457 -0.4604 -0.1382
  354MOL0     C46598   1.718   6.267   7.462  0.6877 -0.3077 -0.0697
  354MOL0     O46599   1.705   6.312   7.593 -0.3113  0.5327 -0.3711
  354MOL0     C46600   1.585   6.294   7.653 -0.5178  0.5999 -0.6135
  354MOL0     C46601   1.479   6.382   7.636 -0.2678  0.5340  0.1972
  354MOL0     C46602   1.344   6.352   7.682 -0.2181 -0.3564  0.0295
  354MOL0     C46603   1.316   6.237   7.762 -0.3799  0.4191 -0.9948
  354MOL0     O46604   1.196   6.195   7.811  0.6120  0.1085 -0.7521
  354MOL0     C46605   1.077   6.273   7.781  0.1498  0.6157 -0.7666
  354MOL0     C46606   0.945   6.205   7.822 -0.0215 -0.5646  0.1023
  354MOL0     C46607   0.823   6.272   7.747  0.4232 -0.5956  0.0835
  354MOL0     C46608   0.777   6.408   7.795 -0.0510  0.6319 -0.2236
  354MOL0     C46609   0.682   6.474   7.707 -0.2584  0.3527  0.7840
  354MOL0     C46610   0.533   6.435   7.732  0.3858 -0.2902 -0.1114
  354MOL0     C46611   0.480   6.526   7.844  0.1322  0.0996 -0.3965
  354MOL0     C46612   0.339   6.492   7.906  0.3788 -0.3279 -0.3407
  354MOL0     N46613   0.227   6.517   7.808 -0.1218 -0.1846  0.2184
  354MOL0     C46614   0.203   6.647   7.774  0.1759  0.2568  0.2327
  354MOL0     C46615   0.086   6.641   7.713 -0.3543 -0.5367  0.5378
  354MOL0     C46616   0.014   6.763   7.665 -0.2254 -0.5096  0.6929
  354MOL0     C46617  -0.070   6.827   7.779  0.4789  0.5516 -0.2877
  354MOL0     C46618  -0.208   6.754   7.791 -0.4604  0.1658 -0.4090
  354MOL0     C46619  -0.309   6.842   7.868 -0.8182  0.0246  0.1884
  354MOL0     O46620  -0.345   6.949   7.779 -0.2516 -0.0730 -0.1113
  354MOL0     C46621  -0.417   7.057   7.824 -0.3360  0.8851 -0.6524
  354MOL0     C46622  -0.484   7.053   7.952 -0.2888  0.4176 -1.3800
  354MOL0     C46623  -0.562   7.159   7.990 -0.1732 -0.2823 -0.2996
  354MOL0     C46624  -0.562   7.278   7.918  0.7266  0.1944 -0.6262
  354MOL0     C46625  -0.627   7.391   7.970 -0.4151  0.2139  0.0409
  354MOL0     O46626  -0.732   7.356   8.058 -0.5671  0.1794  0.4110
  354MOL0     C46627  -0.826   7.442   8.103  0.1338 -0.6452  0.5097
  354MOL0     C46628  -0.831   7.582   8.105 -0.0722  0.3711  0.6139
  354MOL0     C46629  -0.939   7.651   8.157 -0.5578 -0.8724  0.7177
  354MOL0     C46630  -1.044   7.585   8.212  0.2016 -0.1833  0.6598
  354MOL0     O46631  -1.154   7.647   8.270  0.4007  0.3280 -0.1119
  354MOL0     C46632  -1.203   7.769   8.211  0.2552 -0.2430  0.6872
  354MOL0     C46633  -1.342   7.815   8.267 -0.2017  0.4479  0.1476
  354MOL0     C46634  -1.316   7.861   8.412 -0.1135  0.3413  0.4369
  354MOL0     C46635  -1.441   7.894   8.487  0.7441 -0.2351 -0.5228
  354MOL0     C46636  -1.413   7.916   8.640 -0.9938  0.2009 -0.2132
  354MOL0     C46637  -1.312   8.032   8.668 -0.6412 -0.0507 -0.1026
  354MOL0     C46638  -1.289   8.056   8.817 -0.0641 -0.6310  0.0566
  354MOL0     C46639  -1.413   8.116   8.879 -0.8351 -0.0172  0.2928
  354MOL0    Cl46640  -1.364   8.239   9.003  0.0192  0.3141  0.1116
  354MOL0     C46641  -1.031   7.452   8.230  0.7594  0.4589 -0.2215
  354MOL0     C46642  -0.925   7.381   8.178  0.2838 -1.2987  0.2758
  354MOL0     O46643  -0.596   7.503   7.933  0.4959  0.7995  0.2398
  354MOL0     C46644  -0.478   7.282   7.810  0.1725 -0.2072  1.2080
  354MOL0     C46645  -0.418   7.174   7.750 -0.2012  0.6231 -0.2988
  354MOL0     N46646   0.036   6.513   7.719  0.5141 -0.6440 -0.7260
  354MOL0     N46647   0.121   6.440   7.778  0.4422 -0.6526  0.2746
  354MOL0     C46648   1.423   6.169   7.800 -0.1208  0.1499 -0.4560
  354MOL0     C46649   1.558   6.184   7.750 -1.1166  0.4832  0.8835
  354MOL0     C46650   1.832   6.321   7.380 -0.1132  0.2365 -0.2256
  354MOL0     C46651   1.928   6.407   7.444 -0.2089  0.7472  0.1628
  354MOL0     C46652   2.048   6.443   7.379  0.2593  0.2811 -0.0652
  354MOL0     C46653   2.069   6.408   7.249 -0.1086 -0.2089  0.3735
  354MOL0     O46654   2.185   6.447   7.198  0.6357 -0.1135  0.1729
  354MOL0     C46655   2.300   6.384   7.234 -0.2408 -0.5440  0.2298
  354MOL0     C46656   2.419   6.453   7.150  0.4351 -0.6309  0.6197
  354MOL0     C46657   2.560   6.394   7.191  0.9894 -0.3377 -0.0957
  354MOL0     C46658   2.662   6.463   7.109 -0.1845 -0.3255 -0.6605
  354MOL0     C46659   2.807   6.438   7.137 -0.1447 -1.5708  0.6568
  354MOL0     C46660   2.923   6.407   7.163  1.0901  0.3333  0.3577
  354MOL0     C46661   1.977   6.326   7.185 -0.3481 -0.5569 -1.1786
  354MOL0     C46662   1.862   6.280   7.248  0.6101 -0.8518 -0.1608
  354MOL0     H46663   1.502   6.468   7.575 -1.1701  0.2144 -0.6198
  354MOL0     H46664   1.269   6.411   7.630 -1.0433 -1.9079 -0.6094
  354MOL0     H46665   1.085   6.307   7.677  2.7554 -1.9348 -1.5106
  354MOL0     H46666   1.085   6.356   7.852 -0.0749  0.7034 -0.8413
  354MOL0     H46667   0.918   6.210   7.928 -1.5896  3.1786 -0.3347
  354MOL0     H46668   0.949   6.099   7.797  2.7128 -0.1041 -1.9451
  354MOL0     H46669   0.740   6.202   7.754  0.1199 -0.1185  1.8870
  354MOL0     H46670   0.851   6.267   7.642  0.3127  3.9784 -0.3895
  354MOL0     H46671   0.734   6.386   7.894 -0.8002 -2.1253 -1.0687
  354MOL0     H46672   0.863   6.472   7.813 -0.1422  0.1076  2.6412
  354MOL0     H46673   0.714   6.457   7.603  1.9922 -0.1519  1.5191
  354MOL0     H46674   0.689   6.581   7.726 -1.3567  0.3189  1.4411
  354MOL0     H46675   0.519   6.335   7.777 -3.5917  1.2185  2.6224
  354MOL0     H46676   0.467   6.447   7.646 -0.2517  3.3391  0.7201
  354MOL0     H46677   0.554   6.537   7.923  0.1115  2.6087 -0.6506
  354MOL0     H46678   0.473   6.625   7.798 -0.6511 -0.2719 -1.1175
  354MOL0     H46679   0.313   6.541   8.000 -1.7420 -0.0200 -1.0438
  354MOL0     H46680   0.330   6.387   7.933 -0.7494 -0.1364  0.0579
  354MOL0     H46681   0.271   6.730   7.794 -1.5615  1.9377 -0.4600
  354MOL0     H46682  -0.043   6.752   7.572  0.9506  2.3877 -0.4852
  354MOL0     H46683   0.092   6.836   7.644 -0.1272 -0.4724  1.1852
  354MOL0     H46684  -0.088   6.932   7.758  2.2473  1.3418  1.8103
  354MOL0     H46685  -0.020   6.822   7.876 -4.4559  1.2088  2.6135
  354MOL0     H46686  -0.251   6.724   7.696 -1.0580 -3.0187  0.7356
  354MOL0     H46687  -0.209   6.659   7.845  0.4461 -0.6545 -1.7789
  354MOL0     H46688  -0.257   6.882   7.956 -0.3843 -1.0690  0.4380
  354MOL0     H46689  -0.393   6.784   7.908  1.8696 -3.7901  0.7995
  354MOL0     H46690  -0.478   6.964   8.013 -0.0071  0.4208 -1.4004
  354MOL0     H46691  -0.624   7.145   8.078  2.4992 -3.2543  1.3484
  354MOL0     H46692  -0.754   7.639   8.053  0.0697  0.1601  0.5896
  354MOL0     H46693  -0.939   7.759   8.156  0.4480 -0.8401 -1.3807
  354MOL0     H46694  -1.209   7.751   8.103  1.8962  0.0952  0.5224
  354MOL0     H46695  -1.136   7.855   8.221 -1.9838  1.9299 -1.5547
  354MOL0     H46696  -1.418   7.736   8.266 -0.8754  1.0824 -0.2023
  354MOL0     H46697  -1.370   7.906   8.213 -2.2761 -0.9602 -1.3395
  354MOL0     H46698  -1.249   7.945   8.395 -0.0877 -0.1992 -2.7605
  354MOL0     H46699  -1.262   7.781   8.462  0.0636 -1.1065 -1.9407
  354MOL0     H46700  -1.486   7.982   8.440  0.3042 -1.0306 -1.6453
  354MOL0     H46701  -1.518   7.816   8.482 -0.3004  0.6336  1.0047
  354MOL0     H46702  -1.379   7.825   8.691 -1.3007  1.0419  1.5757
  354MOL0     H46703  -1.512   7.940   8.681 -0.6168 -1.8949  2.1874
  354MOL0     H46704  -1.339   8.122   8.612 -0.0328  1.2692  1.6288
  354MOL0     H46705  -1.213   8.000   8.634 -0.9139 -1.3541  0.2690
  354MOL0     H46706  -1.271   7.960   8.866 -0.2229 -1.9222 -2.2490
  354MOL0     H46707  -1.207   8.125   8.840 -0.7826  0.2211  0.0891
  354MOL0     H46708  -1.482   8.039   8.918  0.5278 -2.4414 -1.7776
  354MOL0     H46709  -1.470   8.169   8.802 -0.0872 -0.0970 -0.3228
  354MOL0     H46710  -1.114   7.401   8.278  1.8583  0.9678  2.4147
  354MOL0     H46711  -0.930   7.273   8.186  0.0169 -1.2684  0.5292
  354MOL0     H46712  -0.455   7.375   7.759  1.4930 -0.5173  1.2030
  354MOL0     H46713  -0.358   7.185   7.660 -1.9356 -0.8822 -1.7246
  354MOL0     H46714   1.417   6.087   7.872  2.2315  0.0636 -0.2935
  354MOL0     H46715   1.639   6.116   7.776  0.2934  2.3489  1.5778
  354MOL0     H46716   1.923   6.442   7.546 -0.1271 -0.4311  0.5819
  354MOL0     H46717   2.130   6.503   7.417  0.4070  0.6603 -0.9672
  354MOL0     H46718   2.310   6.276   7.223  3.8655 -0.6093  2.4383
  354MOL0     H46719   2.314   6.394   7.342  0.6835 -1.2816  0.1919
  354MOL0     H46720   2.410   6.436   7.042  3.3128  1.7155 -0.1168
  354MOL0     H46721   2.401   6.560   7.164 -1.2803 -0.9100  0.8242
  354MOL0     H46722   2.560   6.287   7.170 -4.0150 -0.7435  0.8273
  354MOL0     H46723   2.576   6.412   7.298 -0.1591  0.8464 -0.1013
  354MOL0     H46724   2.647   6.441   7.003 -1.2903 -2.5346 -0.1169
  354MOL0     H46725   2.654   6.570   7.127  1.0645 -0.6150  2.3529
  354MOL0     H46726   3.025   6.381   7.182  0.6245 -1.6174  0.4379
  354MOL0     H46727   1.996   6.289   7.085  2.5925 -3.3149  0.2225
  354MOL0     H46728   1.788   6.227   7.189  0.4728 -0.4175 -0.3862
  355MOL0     O46729   0.221   5.586   3.116  0.7506  0.1857  0.7078
  355MOL0     C46730   0.135   5.512   3.063 -0.0457  0.6170  0.1607
  355MOL0     O46731   0.161   5.422   2.971 -0.1464  0.2463  0.6690
  355MOL0     C46732   0.284   5.374   2.944  0.7525  0.5007  0.0145
  355MOL0     C46733   0.334   5.382   2.815  0.0065  0.7470  0.0701
  355MOL0     C46734   0.453   5.314   2.783 -0.2750  0.5662  0.3205
  355MOL0     C46735   0.519   5.235   2.875 -0.8443 -0.0730 -0.8194
  355MOL0     O46736   0.622   5.158   2.824  0.2411 -0.9397 -1.3101
  355MOL0     C46737   0.694   5.076   2.908 -0.2405 -0.1651 -0.4060
  355MOL0     C46738   0.833   5.056   2.845 -0.3183 -0.2133  0.1182
  355MOL0     C46739   0.906   5.196   2.844 -0.1040 -0.5415 -0.4012
  355MOL0     C46740   1.042   5.194   2.769  0.8162  0.6320 -0.1016
  355MOL0     C46741   1.123   5.309   2.782 -0.8096 -0.3204  0.6667
  355MOL0     C46742   1.218   5.321   2.662  0.7153  0.4205 -0.5568
  355MOL0     C46743   1.320   5.204   2.666  0.5308 -0.0754  0.2978
  355MOL0     C46744   1.437   5.236   2.581  0.0977  0.2702 -0.3663
  355MOL0     N46745   1.535   5.117   2.581  0.3695  0.8233 -0.3593
  355MOL0     C46746   1.674   5.137   2.552  0.1819 -0.8732  0.3279
  355MOL0     C46747   1.730   5.014   2.570 -0.5272  0.1711 -0.5350
  355MOL0     C46748   1.882   4.995   2.546  0.3700  0.4277  0.7398
  355MOL0     C46749   1.907   4.970   2.397  0.1115 -0.3597 -0.1523
  355MOL0     C46750   2.063   4.959   2.373  0.5616  0.2740  0.1348
  355MOL0     C46751   2.149   5.089   2.407  0.9396  0.4449  0.3368
  355MOL0     O46752   2.209   5.079   2.540 -0.1239  0.4458  0.2304
  355MOL0     C46753   2.342   5.038   2.542 -0.9486  0.6683  0.3791
  355MOL0     C46754   2.396   4.927   2.479 -0.5138  0.7447 -0.6087
  355MOL0     C46755   2.531   4.889   2.497 -0.6586 -0.8764  0.0565
  355MOL0     C46756   2.623   4.977   2.563 -0.7195  0.1758  1.1643
  355MOL0     C46757   2.767   4.941   2.580  1.9824  0.1462  0.0485
  355MOL0     O46758   2.827   4.999   2.689 -0.3656  0.4483 -0.6070
  355MOL0     C46759   2.962   4.962   2.708 -0.0570 -0.4103  0.1221
  355MOL0     C46760   2.980   4.934   2.844 -0.2457  0.5207  0.3265
  355MOL0     C46761   3.108   4.903   2.900 -1.3776 -0.6093 -0.7038
  355MOL0     C46762   3.221   4.913   2.820 -0.3987  0.4704 -0.1683
  355MOL0     O46763   3.348   4.882   2.859  0.0130  0.2134  0.1528
  355MOL0     C46764   3.371   4.881   3.002  0.4925 -0.3793 -0.0892
  355MOL0     C46765   3.520   4.868   3.050  0.2741  0.3771 -0.3737
  355MOL0     C46766   3.568   4.733   2.985 -0.3087 -0.7753  0.7938
  355MOL0     C46767   3.708   4.690   3.013 -0.6983 -0.3211  0.3642
  355MOL0     C46768   3.741   4.665   3.164  1.1128 -0.2522  0.1556
  355MOL0     C46769   3.883   4.609   3.188 -0.0966  0.1447 -0.2487
  355MOL0     C46770   3.993   4.699   3.120 -0.1099  0.6283  0.6960
  355MOL0     C46771   4.130   4.637   3.146 -0.3711  0.1398  1.1040
  355MOL0    Cl46772   4.187   4.645   3.321  0.2104 -0.2435 -0.1116
  355MOL0     C46773   3.206   4.957   2.686  1.0752  0.7258 -1.4721
  355MOL0     C46774   3.081   4.986   2.633 -0.4286  0.0812 -0.2497
  355MOL0     O46775   2.815   4.861   2.493  0.0545 -0.7037 -0.5414
  355MOL0     C46776   2.571   5.093   2.625  0.6969  0.1184  0.1967
  355MOL0     C46777   2.431   5.119   2.613 -0.1894  0.0073 -1.5331
  355MOL0     N46778   1.634   4.923   2.615  0.4535  0.2740  0.3517
  355MOL0     N46779   1.519   4.980   2.612  0.2196 -0.6686 -0.4190
  355MOL0     C46780   0.470   5.225   3.006  0.0337 -0.0048 -0.2406
  355MOL0     C46781   0.360   5.306   3.043 -0.0057 -0.0127 -0.0745
  355MOL0     C46782  -0.001   5.541   3.100  1.2256  0.8202  0.2207
  355MOL0     C46783  -0.116   5.538   3.007 -0.3974 -0.2458  0.6214
  355MOL0     C46784  -0.248   5.566   3.043  0.5703  0.0109 -0.1743
  355MOL0     C46785  -0.272   5.604   3.176 -0.3817  0.1237 -0.3834
  355MOL0     O46786  -0.392   5.651   3.216 -0.1566 -0.1627  0.8939
  355MOL0     C46787  -0.461   5.627   3.342 -0.3871 -0.2684 -0.0530
  355MOL0     C46788  -0.513   5.485   3.333 -0.0841  1.7477  0.0314
  355MOL0     C46789  -0.619   5.455   3.438  0.0284  0.6187 -0.1932
  355MOL0     C46790  -0.640   5.301   3.464  0.1663 -0.2496  0.7333
  355MOL0     C46791  -0.734   5.274   3.577  1.3697 -0.8540 -0.5741
  355MOL0     C46792  -0.797   5.254   3.678  0.6783 -0.1019 -0.7056
  355MOL0     C46793  -0.163   5.587   3.271  1.1648 -0.9671  0.4122
  355MOL0     C46794  -0.033   5.551   3.234 -0.7498 -0.1702 -0.8056
  355MOL0     H46795   0.279   5.441   2.743  2.2773  4.2634  0.9536
  355MOL0     H46796   0.494   5.313   2.682  2.4502 -0.1734  1.3524
  355MOL0     H46797   0.638   4.982   2.920 -2.1454  0.9859  0.2185
  355MOL0     H46798   0.727   5.130   2.997  0.7992 -0.7374 -0.4327
  355MOL0     H46799   0.814   5.031   2.740  2.0226  4.5341 -1.7396
  355MOL0     H46800   0.888   4.978   2.899 -0.9653 -2.2559 -2.0032
  355MOL0     H46801   0.906   5.231   2.947  1.4379  3.4841 -1.6099
  355MOL0     H46802   0.848   5.275   2.794  1.1265  0.8186  0.2592
  355MOL0     H46803   1.105   5.111   2.803 -1.2185  0.0791  2.6051
  355MOL0     H46804   1.014   5.175   2.665 -2.6204  0.4196  0.7337
  355MOL0     H46805   1.184   5.312   2.873  4.8194 -0.8618 -2.6144
  355MOL0     H46806   1.063   5.401   2.790  1.3918  1.2686 -0.0842
  355MOL0     H46807   1.257   5.422   2.681 -1.1117  1.0903 -0.1269
  355MOL0     H46808   1.161   5.321   2.569  0.7102 -2.2093 -0.6233
  355MOL0     H46809   1.367   5.183   2.762  0.2700 -0.3226  0.3713
  355MOL0     H46810   1.268   5.113   2.634 -2.0097  0.9930  1.1481
  355MOL0     H46811   1.479   5.322   2.634 -2.7514  1.0807  0.7494
  355MOL0     H46812   1.407   5.262   2.479 -0.6527 -1.1910 -0.5581
  355MOL0     H46813   1.728   5.223   2.514  2.3526 -1.7908  1.1783
  355MOL0     H46814   1.908   4.899   2.592 -3.1974 -2.9138 -3.2560
  355MOL0     H46815   1.938   5.080   2.585  0.7068  0.3002  0.5407
  355MOL0     H46816   1.862   5.051   2.340  0.3411  1.7702  2.4863
  355MOL0     H46817   1.861   4.876   2.365  2.8425 -1.8890  0.1270
  355MOL0     H46818   2.100   4.869   2.422  0.1941  0.2304  0.3415
  355MOL0     H46819   2.082   4.935   2.268  0.8445  2.1349 -0.2677
  355MOL0     H46820   2.087   5.180   2.405 -0.0970 -0.1511  2.7847
  355MOL0     H46821   2.224   5.107   2.329  0.2378 -0.0563 -0.4803
  355MOL0     H46822   2.337   4.863   2.414 -0.0767  1.8570 -2.1571
  355MOL0     H46823   2.574   4.802   2.448 -0.5159 -0.1648 -1.1299
  355MOL0     H46824   2.899   4.932   2.916 -1.3769 -0.9701 -0.9013
  355MOL0     H46825   3.118   4.899   3.008  1.8346 -0.1173 -0.9013
  355MOL0     H46826   3.325   4.792   3.046  0.1432 -0.1843 -0.0533
  355MOL0     H46827   3.331   4.971   3.049  0.1969 -0.4316 -0.2411
  355MOL0     H46828   3.520   4.859   3.159  1.0446  1.0857 -0.2989
  355MOL0     H46829   3.584   4.950   3.015  2.5726 -0.6337  1.2154
  355MOL0     H46830   3.544   4.740   2.878 -0.1958  1.5992  0.8678
  355MOL0     H46831   3.501   4.654   3.018 -2.0111 -0.2751 -1.2067
  355MOL0     H46832   3.735   4.597   2.961  2.5343  0.7128 -0.0297
  355MOL0     H46833   3.774   4.774   2.988 -0.0294 -0.7351  0.6894
  355MOL0     H46834   3.685   4.576   3.193  2.5160 -0.5628  2.0805
  355MOL0     H46835   3.724   4.751   3.229 -3.0525  0.7510 -1.8616
  355MOL0     H46836   3.882   4.513   3.136 -3.8031 -1.5152  2.4535
  355MOL0     H46837   3.910   4.591   3.292 -0.4098 -2.6106 -0.5848
  355MOL0     H46838   3.975   4.691   3.013  3.2913 -3.8176  0.1451
  355MOL0     H46839   3.997   4.803   3.154  3.9742  0.3679  1.5802
  355MOL0     H46840   4.213   4.664   3.081  0.6056  1.0586  2.6513
  355MOL0     H46841   4.118   4.531   3.123  2.4862 -0.3324  1.4636
  355MOL0     H46842   3.291   4.976   2.621  1.1160  1.7521 -1.1434
  355MOL0     H46843   3.080   5.040   2.539  2.2180  0.0535 -0.3647
  355MOL0     H46844   2.624   5.160   2.692  0.1515  1.9395 -1.1254
  355MOL0     H46845   2.388   5.201   2.669 -4.5158 -1.9857 -1.5045
  355MOL0     H46846   0.520   5.182   3.092 -2.7452 -0.7113  1.1701
  355MOL0     H46847   0.331   5.300   3.147 -1.7410  2.5329 -0.3265
  355MOL0     H46848  -0.087   5.515   2.904  1.0257  0.1443  0.9047
  355MOL0     H46849  -0.321   5.570   2.964 -1.2195 -1.4937  1.3116
  355MOL0     H46850  -0.541   5.696   3.368  0.5271  0.4713  0.8839
  355MOL0     H46851  -0.401   5.629   3.433 -1.2832 -6.1555  1.0823
  355MOL0     H46852  -0.567   5.460   3.241 -0.5820 -0.1704  0.8048
  355MOL0     H46853  -0.428   5.418   3.338 -1.1210  0.3409 -0.5928
  355MOL0     H46854  -0.716   5.491   3.401 -0.1746 -1.6042 -2.0030
  355MOL0     H46855  -0.584   5.491   3.535 -2.6090 -1.1462  1.5353
  355MOL0     H46856  -0.684   5.275   3.367  0.6380  0.7702  0.2184
  355MOL0     H46857  -0.543   5.254   3.485  0.9277  1.5387  1.4983
  355MOL0     H46858  -0.846   5.239   3.772  0.2049 -1.6961 -1.1798
  355MOL0     H46859  -0.181   5.609   3.376 -0.3352  0.1435 -0.0371
  355MOL0     H46860   0.043   5.534   3.310  0.2221  0.0040 -1.7059
  356MOL0     O46861   7.707  10.355   3.466 -0.4814  0.2367  0.4893
  356MOL0     C46862   7.626  10.445   3.446 -0.1383  0.4182 -0.1111
  356MOL0     O46863   7.653  10.550   3.363 -0.0548 -0.5250 -0.6858
  356MOL0     C46864   7.776  10.596   3.327  1.1982 -0.6035 -0.1083
  356MOL0     C46865   7.776  10.689   3.220 -0.7479  0.3561 -0.5539
  356MOL0     C46866   7.892  10.749   3.169  0.1609  0.6784  0.7171
  356MOL0     C46867   8.018  10.703   3.215  0.2869  1.0974 -0.6552
  356MOL0     O46868   8.135  10.746   3.169 -0.3531  0.4479 -0.0826
  356MOL0     C46869   8.143  10.842   3.058 -1.3315 -0.1791 -0.3787
  356MOL0     C46870   8.296  10.880   3.039  0.3975  0.3238 -0.2917
  356MOL0     C46871   8.309  10.940   2.890 -0.8427  1.0552 -0.3723
  356MOL0     C46872   8.451  11.012   2.871  0.2573  0.0602 -0.4102
  356MOL0     C46873   8.480  11.121   2.976 -0.7130  0.7012 -0.4346
  356MOL0     C46874   8.598  11.216   2.926  0.1375  0.5777  0.0763
  356MOL0     C46875   8.562  11.349   2.854 -1.3383 -0.3235  0.1447
  356MOL0     C46876   8.681  11.407   2.773  0.8968  0.5181 -0.5645
  356MOL0     N46877   8.639  11.519   2.689 -0.7773 -0.0631 -0.5007
  356MOL0     C46878   8.583  11.510   2.561 -0.1753 -0.7875 -0.1278
  356MOL0     C46879   8.595  11.637   2.508  1.0881 -0.2146  0.4854
  356MOL0     C46880   8.557  11.676   2.367  0.6163  0.7247 -0.2903
  356MOL0     C46881   8.430  11.764   2.357 -0.8037  0.3031 -0.4905
  356MOL0     C46882   8.420  11.827   2.218 -0.9906 -0.4709 -0.7506
  356MOL0     C46883   8.367  11.743   2.104  1.0386  0.0972  0.5901
  356MOL0     O46884   8.269  11.636   2.144  0.1062 -1.1137  0.4549
  356MOL0     C46885   8.137  11.629   2.111 -0.6505  0.1885  0.0905
  356MOL0     C46886   8.070  11.715   2.022 -0.1148 -0.1701 -0.1799
  356MOL0     C46887   7.935  11.685   1.978 -1.0910  0.0259 -0.0098
  356MOL0     C46888   7.862  11.579   2.043  0.1913  1.1053  0.1310
  356MOL0     C46889   7.720  11.541   2.004 -0.3144 -0.4548  0.6277
  356MOL0     O46890   7.672  11.435   2.075 -0.6454  0.5849 -0.1080
  356MOL0     C46891   7.544  11.440   2.123 -0.4684 -0.4149 -0.2539
  356MOL0     C46892   7.469  11.563   2.166 -0.7567  0.5765  0.0682
  356MOL0     C46893   7.333  11.551   2.202 -0.4982 -0.1724  0.9320
  356MOL0     C46894   7.272  11.428   2.208 -0.5011 -0.2469  0.4465
  356MOL0     O46895   7.142  11.400   2.250  0.8389  0.9020 -0.5659
  356MOL0     C46896   7.065  11.511   2.307 -0.7804 -0.7358  0.1597
  356MOL0     C46897   6.926  11.457   2.329 -0.3186 -0.4241 -0.6465
  356MOL0     C46898   6.918  11.352   2.443 -0.2000  0.7741  0.8480
  356MOL0     C46899   6.775  11.281   2.462  0.6943 -0.3877  0.0160
  356MOL0     C46900   6.786  11.141   2.528 -0.2962 -0.1432  0.0572
  356MOL0     C46901   6.646  11.081   2.560  0.3156 -0.1293  0.3923
  356MOL0     C46902   6.634  10.936   2.609 -0.2366  0.6410 -0.2037
  356MOL0     C46903   6.491  10.915   2.667 -0.1590 -0.1893  0.3641
  356MOL0    Cl46904   6.473  10.990   2.830  0.5320  0.2110  0.0997
  356MOL0     C46905   7.343  11.310   2.171 -0.3142 -0.1065  0.6179
  356MOL0     C46906   7.475  11.321   2.132 -0.0238 -0.3281  1.1615
  356MOL0     O46907   7.668  11.591   1.905 -0.2198 -0.6658 -1.1498
  356MOL0     C46908   7.924  11.503   2.149  0.0235 -0.0912 -0.1551
  356MOL0     C46909   8.063  11.528   2.169  0.1966  0.4465 -0.3286
  356MOL0     N46910   8.654  11.716   2.601  0.0756  0.0357 -0.7002
  356MOL0     N46911   8.692  11.640   2.703 -1.1671  0.0566  0.1625
  356MOL0     C46912   8.022  10.606   3.313  0.0049 -0.1955 -0.6256
  356MOL0     C46913   7.900  10.549   3.367 -0.2172  0.6580  0.1498
  356MOL0     C46914   7.496  10.437   3.507 -0.3528 -0.1242 -0.5407
  356MOL0     C46915   7.439  10.313   3.523 -0.1712 -0.3770  0.6139
  356MOL0     C46916   7.319  10.307   3.593 -0.3794  0.3365 -0.4322
  356MOL0     C46917   7.262  10.415   3.649 -0.6685  0.5142 -0.1952
  356MOL0     O46918   7.149  10.392   3.721 -0.7009  0.7451  0.1608
  356MOL0     C46919   7.073  10.499   3.773  0.4832  0.2283 -0.1709
  356MOL0     C46920   6.942  10.431   3.814 -0.5058 -0.4377  0.1073
  356MOL0     C46921   6.944  10.392   3.961  0.3888 -0.4915 -0.5713
  356MOL0     C46922   6.801  10.348   4.000 -0.2096 -0.0302  0.1923
  356MOL0     C46923   6.812  10.302   4.139  0.6424  0.1647 -0.3615
  356MOL0     C46924   6.817  10.261   4.253  1.0451 -1.3303 -0.0406
  356MOL0     C46925   7.311  10.544   3.627 -0.5068 -1.0892 -0.7568
  356MOL0     C46926   7.431  10.556   3.554 -0.7994  0.4314  0.1105
  356MOL0     H46927   7.679  10.725   3.187 -0.0425  2.2011 -0.7572
  356MOL0     H46928   7.882  10.827   3.095  2.2124  0.2964 -0.0294
  356MOL0     H46929   8.089  10.926   3.104  1.2595  0.3496  1.9356
  356MOL0     H46930   8.100  10.807   2.963 -0.0252 -2.6947 -0.1021
  356MOL0     H46931   8.355  10.788   3.027  1.7603  1.2439 -0.8912
  356MOL0     H46932   8.320  10.950   3.118 -3.4011  0.8933  0.5591
  356MOL0     H46933   8.231  11.015   2.872  0.0533  2.9080  2.5992
  356MOL0     H46934   8.299  10.853   2.826 -0.2728  0.6480  0.0845
  356MOL0     H46935   8.527  10.934   2.876  0.6086  0.4823  2.6301
  356MOL0     H46936   8.464  11.061   2.774 -0.1599  0.3303 -0.3326
  356MOL0     H46937   8.505  11.080   3.074  0.1698  1.9026 -0.1321
  356MOL0     H46938   8.385  11.172   2.995  0.6263  2.8197  0.9723
  356MOL0     H46939   8.656  11.152   2.859 -1.2482 -2.0833  1.2619
  356MOL0     H46940   8.674  11.236   3.002 -0.3090 -1.6798  1.1799
  356MOL0     H46941   8.471  11.327   2.797 -1.6893 -2.3445  1.3837
  356MOL0     H46942   8.547  11.422   2.934 -1.8613 -2.4376  2.0637
  356MOL0     H46943   8.725  11.324   2.716  0.3851 -1.7354  2.1164
  356MOL0     H46944   8.757  11.428   2.849 -0.2386  1.1596  0.4086
  356MOL0     H46945   8.560  11.419   2.507  2.5981 -0.1806 -2.6616
  356MOL0     H46946   8.541  11.585   2.309  0.9758  0.1314  0.5219
  356MOL0     H46947   8.642  11.729   2.324  1.8964 -1.3556 -0.4716
  356MOL0     H46948   8.422  11.843   2.433 -5.8615 -1.1394  0.8946
  356MOL0     H46949   8.338  11.711   2.386 -1.4511  1.9050  0.5169
  356MOL0     H46950   8.352  11.911   2.233 -0.7829 -0.5558  0.9315
  356MOL0     H46951   8.516  11.873   2.192 -0.5306 -0.4904  0.8241
  356MOL0     H46952   8.461  11.695   2.075  0.7801 -0.0140 -0.0710
  356MOL0     H46953   8.330  11.804   2.021  0.8475 -0.1016  0.5292
  356MOL0     H46954   8.109  11.810   1.986 -0.4088  0.0383  0.0458
  356MOL0     H46955   7.897  11.734   1.889  0.9426  1.1882 -0.2752
  356MOL0     H46956   7.516  11.660   2.151 -2.5111  1.0801 -2.7152
  356MOL0     H46957   7.283  11.638   2.243 -2.0171 -1.1901  1.3193
  356MOL0     H46958   7.061  11.588   2.229  3.9803  0.8445  1.1600
  356MOL0     H46959   7.104  11.560   2.397  0.5394  1.1880 -1.3843
  356MOL0     H46960   6.886  11.409   2.239  1.6070 -0.3190 -1.5916
  356MOL0     H46961   6.864  11.539   2.367  2.1916  0.7883  1.0940
  356MOL0     H46962   6.935  11.401   2.539 -1.0273  0.5789  1.1038
  356MOL0     H46963   7.004  11.285   2.428  1.0297  2.0646  1.9303
  356MOL0     H46964   6.710  11.349   2.518 -2.2984 -0.9447 -2.4465
  356MOL0     H46965   6.734  11.272   2.361 -1.2787 -0.4251  0.7735
  356MOL0     H46966   6.848  11.150   2.618  1.3189  0.8123 -1.0959
  356MOL0     H46967   6.852  11.081   2.464  1.5350 -0.9557  2.5204
  356MOL0     H46968   6.595  11.096   2.464 -0.2777 -4.7246 -0.2622
  356MOL0     H46969   6.608  11.146   2.639 -3.7427 -0.1906 -1.2693
  356MOL0     H46970   6.650  10.861   2.531  2.2635  0.3107  0.5536
  356MOL0     H46971   6.712  10.905   2.679 -0.4227  2.4278  0.8383
  356MOL0     H46972   6.457  10.811   2.667 -3.3856  0.6883  2.5999
  356MOL0     H46973   6.434  10.980   2.600  1.8892  2.1866  0.7894
  356MOL0     H46974   7.290  11.215   2.171 -2.2528  0.9061 -0.4391
  356MOL0     H46975   7.513  11.225   2.100 -0.6267 -0.2203  0.1129
  356MOL0     H46976   7.871  11.422   2.199 -3.3015  1.8563 -0.2352
  356MOL0     H46977   8.116  11.473   2.246 -0.3569 -0.2888 -0.4564
  356MOL0     H46978   8.119  10.571   3.345 -0.8581 -1.1235  1.0917
  356MOL0     H46979   7.908  10.478   3.449  0.1931  0.0061 -0.4349
  356MOL0     H46980   7.494  10.228   3.484  1.3101 -0.1927  2.1819
  356MOL0     H46981   7.266  10.214   3.612 -2.2728  2.0051  3.8328
  356MOL0     H46982   7.054  10.568   3.690  0.7726 -0.4944 -0.8575
  356MOL0     H46983   7.131  10.549   3.851 -0.6929  4.2072 -1.6257
  356MOL0     H46984   6.861  10.501   3.792 -0.6979 -0.9828 -0.9931
  356MOL0     H46985   6.927  10.342   3.752  2.0898  0.2585 -1.7128
  356MOL0     H46986   6.968  10.473   4.030 -2.5669  0.3285 -0.3563
  356MOL0     H46987   7.012  10.307   3.973  2.1285  0.8695 -0.3210
  356MOL0     H46988   6.729  10.430   3.998 -2.3339 -1.7336  1.8009
  356MOL0     H46989   6.762  10.267   3.938 -1.2546 -1.9901  3.1809
  356MOL0     H46990   6.826  10.224   4.353 -0.6118 -2.3003 -0.2164
  356MOL0     H46991   7.261  10.622   3.685  1.5764 -2.5218  3.3362
  356MOL0     H46992   7.491  10.647   3.554 -1.0245  0.5807  0.1486
  357MOL0     O46993   9.235   5.263  10.517 -0.6409  0.2161 -0.5435
  357MOL0     C46994   9.154   5.342  10.484  0.6531 -0.1534  0.0734
  357MOL0     O46995   9.143   5.402  10.367 -0.1051 -0.1552  0.0631
  357MOL0     C46996   9.234   5.366  10.264 -0.4510 -0.7314  0.0039
  357MOL0     C46997   9.221   5.250  10.185 -0.4870  0.5654 -0.6807
  357MOL0     C46998   9.304   5.232  10.072  0.0758 -0.0499  1.1945
  357MOL0     C46999   9.410   5.327  10.046  0.1552 -0.0588 -0.5546
  357MOL0     O47000   9.474   5.315   9.934 -0.9687 -0.3191  0.6180
  357MOL0     C47001   9.616   5.312   9.936 -0.7700  0.1853  0.1925
  357MOL0     C47002   9.647   5.163   9.947 -0.0403 -0.2579  0.9548
  357MOL0     C47003   9.794   5.116   9.973  0.9226  0.1994  0.6065
  357MOL0     C47004   9.855   5.155  10.105  0.0390 -0.5153 -0.1394
  357MOL0     C47005   9.755   5.132  10.223 -0.0392 -0.5239  0.3103
  357MOL0     C47006   9.830   5.151  10.359  0.0964 -1.3194 -0.3619
  357MOL0     C47007   9.967   5.081  10.380 -0.2608  0.2173  0.2683
  357MOL0     C47008   9.985   5.039  10.530  0.1118 -0.3077 -0.4945
  357MOL0     N47009  10.117   4.968  10.536 -0.2818  0.0999  0.2626
  357MOL0     C47010  10.146   4.847  10.474  0.7088  0.3691  0.8792
  357MOL0     C47011  10.277   4.836  10.487  0.3357 -0.3711  0.7322
  357MOL0     C47012  10.363   4.724  10.434 -0.0642  0.2322 -0.7752
  357MOL0     C47013  10.512   4.753  10.485 -0.0808  0.5243 -0.3104
  357MOL0     C47014  10.623   4.665  10.414 -0.5690 -0.5034  0.6093
  357MOL0     C47015  10.759   4.698  10.481  0.1749  0.5630 -0.0770
  357MOL0     O47016  10.806   4.824  10.444 -0.4435  0.3590  0.4772
  357MOL0     C47017  10.941   4.829  10.427 -1.1872  0.3347 -0.3417
  357MOL0     C47018  10.976   4.956  10.377  0.0490  0.4195 -0.8069
  357MOL0     C47019  11.107   4.988  10.364 -0.9214 -0.5283  0.0337
  357MOL0     C47020  11.217   4.898  10.389 -0.9474  1.0546 -0.7819
  357MOL0     C47021  11.364   4.930  10.379 -0.0473 -0.1655 -0.3435
  357MOL0     O47022  11.459   4.836  10.392 -0.4347 -0.0799  0.8164
  357MOL0     C47023  11.596   4.848  10.392  0.4321 -0.3035 -0.2127
  357MOL0     C47024  11.669   4.964  10.380 -0.9722 -0.1004 -0.0279
  357MOL0     C47025  11.806   4.968  10.395  0.2992 -0.2031  0.3886
  357MOL0     C47026  11.881   4.850  10.400  0.8412 -0.0885 -0.0658
  357MOL0     O47027  12.021   4.856  10.390  0.0002 -0.5262  0.0462
  357MOL0     C47028  12.094   4.733  10.352  1.0892  0.0536 -0.3068
  357MOL0     C47029  12.241   4.749  10.348  0.2691  0.3723 -0.9385
  357MOL0     C47030  12.274   4.862  10.257  0.6017 -0.0647  0.2087
  357MOL0     C47031  12.420   4.900  10.281 -0.6358  0.7131  0.3220
  357MOL0     C47032  12.480   4.961  10.154 -1.2718  0.5600  0.0098
  357MOL0     C47033  12.629   4.952  10.166 -0.9511 -1.0060 -0.9901
  357MOL0     C47034  12.692   5.008  10.042 -0.6260  0.3935  0.4196
  357MOL0     C47035  12.833   4.956  10.049  0.6216  0.4992 -0.8695
  357MOL0    Cl47036  12.929   5.044   9.917  0.0271 -0.2867  0.5425
  357MOL0     C47037  11.801   4.730  10.394 -0.2308 -0.5383  1.0187
  357MOL0     C47038  11.664   4.726  10.406  0.4054 -0.2209  0.0007
  357MOL0     O47039  11.386   5.049  10.367  0.4109  0.2980 -0.0244
  357MOL0     C47040  11.178   4.768  10.432  0.3470 -0.0575  0.3614
  357MOL0     C47041  11.038   4.737  10.466 -0.3280 -0.0030  0.5910
  357MOL0     N47042  10.329   4.948  10.545  0.4421  0.9033 -1.0077
  357MOL0     N47043  10.234   5.024  10.586 -0.2427  0.5348  0.6668
  357MOL0     C47044   9.426   5.443  10.133  0.5326  0.2075  0.5803
  357MOL0     C47045   9.336   5.462  10.241  0.0098  0.8276  0.0514
  357MOL0     C47046   9.043   5.374  10.578 -0.1056 -0.2406 -0.4593
  357MOL0     C47047   8.934   5.455  10.533  0.2535 -0.3791 -0.5142
  357MOL0     C47048   8.822   5.482  10.617 -0.4621  0.4862  0.7432
  357MOL0     C47049   8.822   5.428  10.746 -0.6031 -0.0392  0.9065
  357MOL0     O47050   8.702   5.458  10.806 -1.2189  0.1570  0.3051
  357MOL0     C47051   8.690   5.415  10.942 -0.3071 -0.5414 -0.2108
  357MOL0     C47052   8.766   5.504  11.036 -1.4522 -0.7516 -0.5237
  357MOL0     C47053   8.751   5.473  11.179 -0.0766 -0.0970 -0.1250
  357MOL0     C47054   8.782   5.325  11.207 -0.8808  0.0464  0.0325
  357MOL0     C47055   8.915   5.287  11.170 -0.1490  0.7763 -0.2710
  357MOL0     C47056   9.029   5.251  11.136  0.0225  0.1032 -0.0307
  357MOL0     C47057   8.936   5.362  10.792 -0.4782 -0.2434 -0.6578
  357MOL0     C47058   9.049   5.339  10.715  0.1503  1.0449 -0.3642
  357MOL0     H47059   9.138   5.183  10.206 -0.7961 -0.1051 -3.6383
  357MOL0     H47060   9.285   5.152  10.001  0.8366  0.0746  0.8433
  357MOL0     H47061   9.656   5.371  10.019 -1.0856 -0.3469  0.7289
  357MOL0     H47062   9.662   5.346   9.843  0.0581 -1.5320 -0.0583
  357MOL0     H47063   9.608   5.112   9.858  0.5705 -1.4035  1.3106
  357MOL0     H47064   9.584   5.130  10.030  1.7522 -1.1428  2.0342
  357MOL0     H47065   9.858   5.171   9.903  0.8575  0.1141  0.4810
  357MOL0     H47066   9.786   5.009   9.953  1.8621 -0.0761  1.5938
  357MOL0     H47067   9.942   5.088  10.108  1.6230  1.2421 -2.8167
  357MOL0     H47068   9.891   5.258  10.095 -2.1214  0.2053 -1.0104
  357MOL0     H47069   9.709   5.033  10.221 -0.1309 -0.4988 -1.9637
  357MOL0     H47070   9.673   5.204  10.218 -0.7310 -1.3450 -0.6030
  357MOL0     H47071   9.761   5.111  10.434 -0.5442 -0.8562 -0.6880
  357MOL0     H47072   9.847   5.256  10.384 -1.8400 -0.7780 -1.1043
  357MOL0     H47073   9.979   4.996  10.313 -0.3961  1.0858 -0.9038
  357MOL0     H47074  10.045   5.153  10.352  0.4753 -0.3545  0.8210
  357MOL0     H47075   9.901   4.980  10.568 -1.5543  2.0351 -0.2622
  357MOL0     H47076   9.991   5.125  10.598 -1.7479 -3.4615  4.1287
  357MOL0     H47077  10.077   4.775  10.431  2.0872 -0.9573  0.8174
  357MOL0     H47078  10.365   4.715  10.325 -0.2221 -0.2099 -0.7439
  357MOL0     H47079  10.332   4.624  10.468 -3.2761  1.6932  1.0401
  357MOL0     H47080  10.509   4.736  10.593 -0.5332  2.2574 -0.0113
  357MOL0     H47081  10.540   4.859  10.481  2.5577  0.0480  2.2341
  357MOL0     H47082  10.609   4.559  10.437 -0.9308 -0.6697 -0.3708
  357MOL0     H47083  10.626   4.674  10.305 -0.0529 -1.4151  0.5399
  357MOL0     H47084  10.816   4.605  10.467 -0.5925 -0.8570  4.3357
  357MOL0     H47085  10.754   4.699  10.591  0.1056  0.8640 -0.0836
  357MOL0     H47086  10.902   5.035  10.363  1.3419  2.0552  1.0460
  357MOL0     H47087  11.122   5.090  10.330 -1.8331 -0.4588 -0.1870
  357MOL0     H47088  11.629   5.064  10.366  0.3103  0.4716  0.2620
  357MOL0     H47089  11.859   5.062  10.384  0.6926 -0.3392  1.0628
  357MOL0     H47090  12.056   4.685  10.261 -2.2697 -0.0682  1.0043
  357MOL0     H47091  12.068   4.660  10.430 -2.5286 -0.2856 -1.6279
  357MOL0     H47092  12.300   4.659  10.325  0.5202 -0.3594  2.1133
  357MOL0     H47093  12.264   4.778  10.451 -1.6348 -2.0197  0.2659
  357MOL0     H47094  12.210   4.947  10.280  2.2907  1.5690 -0.8297
  357MOL0     H47095  12.258   4.829  10.154 -1.1395  0.4502  0.2830
  357MOL0     H47096  12.423   4.958  10.373  4.0018 -1.0663  1.5993
  357MOL0     H47097  12.482   4.816  10.314  0.1373  2.4798  3.6940
  357MOL0     H47098  12.448   5.065  10.144 -1.8889  0.2359 -1.6306
  357MOL0     H47099  12.456   4.909  10.061  1.6937 -1.7269  0.3676
  357MOL0     H47100  12.649   4.847  10.188 -1.7568 -1.6873 -3.2665
  357MOL0     H47101  12.671   5.008  10.250 -1.6456 -0.1148 -1.2153
  357MOL0     H47102  12.652   4.973   9.946  1.5196  1.1406 -0.8336
  357MOL0     H47103  12.693   5.118  10.039 -0.0571  0.3983 -2.2194
  357MOL0     H47104  12.839   4.848  10.032  0.7330  0.4709 -0.6482
  357MOL0     H47105  12.884   4.986  10.141  1.4068  1.8949 -1.7285
  357MOL0     H47106  11.845   4.632  10.403 -1.1799 -1.4844 -2.8658
  357MOL0     H47107  11.617   4.629  10.415  2.1181 -0.9052  2.5033
  357MOL0     H47108  11.246   4.694  10.473 -0.3265 -0.1669  1.3245
  357MOL0     H47109  11.020   4.635  10.498  2.8305 -0.4900  1.1152
  357MOL0     H47110   9.500   5.520  10.116  0.6838 -0.1349 -0.3184
  357MOL0     H47111   9.343   5.554  10.298  1.9881  1.8821 -1.7811
  357MOL0     H47112   8.925   5.489  10.430 -1.1510 -0.6695 -0.5016
  357MOL0     H47113   8.739   5.540  10.577 -1.0442 -0.4366  0.6044
  357MOL0     H47114   8.709   5.309  10.963  1.4350 -0.6030 -1.7562
  357MOL0     H47115   8.588   5.430  10.978 -0.5741 -0.8334 -0.8340
  357MOL0     H47116   8.870   5.513  11.003 -0.9944  3.5983  1.4153
  357MOL0     H47117   8.738   5.609  11.029 -0.5311 -0.6073 -3.0136
  357MOL0     H47118   8.644   5.487  11.197 -0.1605 -1.4297  0.5299
  357MOL0     H47119   8.798   5.534  11.257 -1.9091 -1.7208  2.3999
  357MOL0     H47120   8.786   5.312  11.316 -2.2592 -0.5414  0.0396
  357MOL0     H47121   8.707   5.255  11.168 -0.0024 -2.1454  2.0227
  357MOL0     H47122   9.116   5.217  11.084 -1.8066 -4.4414 -0.5868
  357MOL0     H47123   8.940   5.333  10.896  3.0198  1.8582 -0.0361
  357MOL0     H47124   9.135   5.287  10.755  1.6101  3.0264 -0.7862
  358MOL0     O47125   5.547   3.036   1.381 -0.2800 -0.1790  0.0360
  358MOL0     C47126   5.565   2.997   1.495 -0.5845  0.7719 -0.5890
  358MOL0     O47127   5.482   2.905   1.548 -0.6603  0.0649 -0.0787
  358MOL0     C47128   5.373   2.870   1.476  0.1097 -0.1169  0.1922
  358MOL0     C47129   5.363   2.748   1.410  0.7247 -0.1824  0.0504
  358MOL0     C47130   5.241   2.699   1.367 -0.0114  0.0542 -0.3738
  358MOL0     C47131   5.126   2.771   1.368 -0.2005  0.4946 -1.2934
  358MOL0     O47132   5.002   2.718   1.333  0.3543 -0.1681 -0.0689
  358MOL0     C47133   4.906   2.802   1.271 -0.5888  0.2315 -0.7626
  358MOL0     C47134   4.815   2.708   1.194  1.0348  0.0331 -0.1663
  358MOL0     C47135   4.712   2.785   1.124  0.4341 -0.0393 -0.8988
  358MOL0     C47136   4.766   2.855   1.009  0.4993 -0.1015  0.2597
  358MOL0     C47137   4.650   2.929   0.922  1.1017  0.5288 -0.7042
  358MOL0     C47138   4.705   3.051   0.842  0.8693 -0.4455  0.1756
  358MOL0     C47139   4.597   3.082   0.725 -0.0126  0.3175  0.5551
  358MOL0     C47140   4.621   3.212   0.658 -0.8328 -0.4392 -0.3013
  358MOL0     N47141   4.505   3.253   0.574  0.3187 -0.5282 -0.0901
  358MOL0     C47142   4.403   3.179   0.521  0.0717  0.2504 -0.8295
  358MOL0     C47143   4.339   3.263   0.435  0.0174  0.0087  0.3738
  358MOL0     C47144   4.223   3.219   0.356  0.5567 -0.5194  0.2702
  358MOL0     C47145   4.089   3.243   0.430  0.4727 -0.0914 -0.2493
  358MOL0     C47146   3.975   3.176   0.354  0.4686  0.4931  0.3560
  358MOL0     C47147   3.848   3.199   0.416  1.0746  0.4206  0.4321
  358MOL0     O47148   3.763   3.106   0.346  0.8415 -0.1012  1.5035
  358MOL0     C47149   3.626   3.129   0.369 -0.0284 -0.3220  0.0559
  358MOL0     C47150   3.575   3.201   0.471  0.7378  0.0958 -0.2947
  358MOL0     C47151   3.440   3.213   0.500 -0.0800 -0.6003 -0.1990
  358MOL0     C47152   3.347   3.149   0.409 -0.0501 -0.5625 -0.8131
  358MOL0     C47153   3.205   3.153   0.426 -0.3799 -0.0651  0.7522
  358MOL0     O47154   3.132   3.098   0.315 -0.1784  0.2796 -0.6174
  358MOL0     C47155   2.993   3.090   0.321  0.3745  0.6182 -0.2437
  358MOL0     C47156   2.928   2.970   0.307 -0.4265 -0.2787 -0.1655
  358MOL0     C47157   2.790   2.959   0.331 -0.4142  0.8577 -0.5521
  358MOL0     C47158   2.711   3.078   0.344  0.3484  0.4482 -0.5503
  358MOL0     O47159   2.572   3.063   0.363 -0.6160  0.5036 -1.4612
  358MOL0     C47160   2.479   3.167   0.388  0.6286 -0.6750 -0.5352
  358MOL0     C47161   2.346   3.103   0.397  0.6319 -1.0094 -0.0965
  358MOL0     C47162   2.260   3.190   0.489 -0.2232  0.7149  0.5657
  358MOL0     C47163   2.119   3.134   0.475  0.5423  1.0258  0.5535
  358MOL0     C47164   2.009   3.226   0.534  0.3005 -0.4269 -0.8439
  358MOL0     C47165   1.867   3.176   0.514  0.6438 -0.5975  0.2222
  358MOL0     C47166   1.824   3.040   0.570  0.6337  0.4654  0.3574
  358MOL0     C47167   1.678   3.021   0.552  1.0311  0.1830 -0.2256
  358MOL0    Cl47168   1.572   3.164   0.597 -0.6172 -0.0932 -0.1103
  358MOL0     C47169   2.773   3.201   0.338 -0.4798  0.6207 -1.3002
  358MOL0     C47170   2.912   3.206   0.330  0.2142  0.2250  0.3609
  358MOL0     O47171   3.153   3.212   0.517 -1.1082 -0.2280  0.0904
  358MOL0     C47172   3.398   3.064   0.308  0.0877 -0.1465 -0.0183
  358MOL0     C47173   3.540   3.063   0.280 -1.0173  0.4421 -0.3236
  358MOL0     N47174   4.389   3.392   0.443 -0.1754  0.5490 -0.2184
  358MOL0     N47175   4.485   3.378   0.522 -1.0413  0.2621 -0.2473
  358MOL0     C47176   5.134   2.908   1.421  0.1855 -0.5760 -0.0231
  358MOL0     C47177   5.255   2.952   1.479 -0.2950 -0.3974  0.4308
  358MOL0     C47178   5.691   3.032   1.574  0.2977  0.0378 -0.0690
  358MOL0     C47179   5.787   3.120   1.529 -0.2753 -0.1263  0.0236
  358MOL0     C47180   5.905   3.147   1.607 -1.3318  0.4036  0.1116
  358MOL0     C47181   5.918   3.096   1.734 -0.1046 -0.2755 -0.4907
  358MOL0     O47182   6.018   3.130   1.822  0.9853  0.0215  0.1946
  358MOL0     C47183   6.133   3.211   1.782 -0.2777  0.0499  0.6865
  358MOL0     C47184   6.254   3.179   1.864  0.0396 -0.2612  0.1747
  358MOL0     C47185   6.224   3.204   2.014 -0.0947 -0.0888  0.2975
  358MOL0     C47186   6.192   3.074   2.088 -0.9388 -0.0200 -0.4208
  358MOL0     C47187   6.305   2.989   2.122 -0.0188 -0.2299  0.5151
  358MOL0     C47188   6.390   2.906   2.149  0.6860 -0.3467  0.0986
  358MOL0     C47189   5.827   3.005   1.785  0.1210 -0.4240  0.4193
  358MOL0     C47190   5.714   2.976   1.708 -0.1671  0.6087 -0.4572
  358MOL0     H47191   5.454   2.691   1.394  1.7648  1.6795 -0.9721
  358MOL0     H47192   5.236   2.601   1.320 -3.9339  1.0645 -2.5349
  358MOL0     H47193   4.961   2.872   1.208  2.4541 -0.2434  1.1717
  358MOL0     H47194   4.839   2.852   1.342  1.8164  1.1425  0.9810
  358MOL0     H47195   4.781   2.631   1.265  0.7538  1.7685  1.6783
  358MOL0     H47196   4.868   2.660   1.111  1.7225 -0.1451  0.3631
  358MOL0     H47197   4.659   2.850   1.194  0.2814 -0.6704 -0.4264
  358MOL0     H47198   4.629   2.723   1.087  0.9726  0.4957 -3.1369
  358MOL0     H47199   4.842   2.932   1.027  0.0527  0.0451  1.5988
  358MOL0     H47200   4.801   2.781   0.937 -1.0267 -0.7890  0.1773
  358MOL0     H47201   4.564   2.970   0.977 -1.5259 -2.4113 -2.3100
  358MOL0     H47202   4.611   2.849   0.858 -1.2819  0.7560  0.3525
  358MOL0     H47203   4.796   3.026   0.788 -0.1838 -2.1481 -0.8799
  358MOL0     H47204   4.710   3.134   0.914 -0.3671 -1.6032  1.6707
  358MOL0     H47205   4.598   2.997   0.656 -0.4554 -0.4075  1.4275
  358MOL0     H47206   4.495   3.084   0.763 -0.6537 -0.2106 -1.0847
  358MOL0     H47207   4.712   3.208   0.598  0.6216  1.1424  1.6378
  358MOL0     H47208   4.638   3.289   0.734 -0.1439 -0.6400 -0.2441
  358MOL0     H47209   4.384   3.074   0.538 -0.0550 -0.0194 -2.5276
  358MOL0     H47210   4.234   3.112   0.339 -0.9987 -0.2649 -3.0863
  358MOL0     H47211   4.219   3.265   0.257  2.1300 -0.3617  0.2643
  358MOL0     H47212   4.061   3.348   0.424 -0.8205 -0.4841 -2.0916
  358MOL0     H47213   4.102   3.202   0.530  2.7311 -1.1842 -0.9113
  358MOL0     H47214   3.975   3.205   0.248  3.1788  1.1600  0.4542
  358MOL0     H47215   4.006   3.071   0.355  1.3296  0.7397  1.0775
  358MOL0     H47216   3.813   3.301   0.399  3.5188  1.2293 -0.1098
  358MOL0     H47217   3.848   3.181   0.524 -1.7241 -1.1656  0.2756
  358MOL0     H47218   3.642   3.246   0.544  0.2418 -0.4130  0.4883
  358MOL0     H47219   3.405   3.271   0.583  0.5617  1.7683 -1.4991
  358MOL0     H47220   2.993   2.887   0.280  0.2980  0.3713 -0.5061
  358MOL0     H47221   2.743   2.861   0.336 -0.3791  0.8555 -0.2783
  358MOL0     H47222   2.479   3.252   0.320 -0.6967  0.7695  1.1697
  358MOL0     H47223   2.509   3.205   0.486 -1.0846  1.0050 -0.5991
  358MOL0     H47224   2.348   2.999   0.433 -2.2313 -0.7200  1.1436
  358MOL0     H47225   2.310   3.104   0.294  2.4119  0.8362 -0.7574
  358MOL0     H47226   2.254   3.294   0.454 -0.2505  0.2491 -0.8351
  358MOL0     H47227   2.293   3.184   0.593  0.4610 -0.6030  0.2811
  358MOL0     H47228   2.095   3.118   0.369 -2.0334  0.5787  1.1240
  358MOL0     H47229   2.114   3.029   0.505 -2.1386  0.6771 -0.7485
  358MOL0     H47230   2.017   3.327   0.492  0.8404 -0.3159 -0.4947
  358MOL0     H47231   2.030   3.253   0.639 -0.4454 -1.4231 -0.4247
  358MOL0     H47232   1.835   3.191   0.411  0.1590 -0.5572  0.3782
  358MOL0     H47233   1.800   3.247   0.563 -0.7027 -1.1314 -0.7749
  358MOL0     H47234   1.874   2.953   0.527 -4.1188 -1.7262 -1.3372
  358MOL0     H47235   1.843   3.029   0.677 -3.8303  1.0022  1.3781
  358MOL0     H47236   1.646   2.938   0.616  2.7100 -1.0408 -0.8885
  358MOL0     H47237   1.664   2.991   0.448  0.5798 -6.5965  1.3260
  358MOL0     H47238   2.721   3.294   0.359  1.0724  1.8609 -2.6974
  358MOL0     H47239   2.968   3.300   0.332  3.5622 -1.5198 -1.7855
  358MOL0     H47240   3.328   3.008   0.246  1.6655 -1.3109 -0.8178
  358MOL0     H47241   3.587   3.019   0.193  1.1912 -0.2651  1.1628
  358MOL0     H47242   5.051   2.978   1.429  0.9062  0.1086  2.7489
  358MOL0     H47243   5.268   3.048   1.528 -2.4795 -1.6137  3.6895
  358MOL0     H47244   5.772   3.171   1.434 -1.4916 -2.6646 -1.2513
  358MOL0     H47245   5.982   3.197   1.549 -3.5399 -0.6305 -4.1411
  358MOL0     H47246   6.096   3.313   1.789 -0.9824 -0.1764  0.3690
  358MOL0     H47247   6.157   3.182   1.679  2.6239  2.0732  0.6749
  358MOL0     H47248   6.283   3.075   1.853  0.6095 -0.1731  0.7907
  358MOL0     H47249   6.338   3.238   1.827  1.6962 -2.5665  0.0960
  358MOL0     H47250   6.137   3.271   2.014  0.5842  0.9263 -2.0809
  358MOL0     H47251   6.316   3.249   2.051 -0.1907  1.0823 -0.8251
  358MOL0     H47252   6.145   3.109   2.181  1.9173  0.4613  0.9235
  358MOL0     H47253   6.123   3.014   2.027 -0.7662 -0.1716 -0.4660
  358MOL0     H47254   6.460   2.827   2.170  0.0025 -0.6455  1.3246
  358MOL0     H47255   5.844   2.957   1.880  0.3861  0.3270  0.7626
  358MOL0     H47256   5.648   2.898   1.745  4.0622 -2.3166  1.7858
  359MOL0     O47257   0.106  10.602   9.680  0.3202 -0.3251  0.5263
  359MOL0     C47258   0.167  10.502   9.724 -0.1477 -0.1623 -0.5560
  359MOL0     O47259   0.104  10.389   9.763  0.9168  0.2384  0.1139
  359MOL0     C47260  -0.034  10.370   9.735 -0.2013  0.2838  0.9301
  359MOL0     C47261  -0.102  10.330   9.844  1.3658 -0.9109  0.0757
  359MOL0     C47262  -0.233  10.285   9.830  0.1851 -0.3419 -0.0913
  359MOL0     C47263  -0.297  10.295   9.702  0.7404 -0.6040 -0.9137
  359MOL0     O47264  -0.429  10.259   9.687 -0.5924 -0.5707 -0.1162
  359MOL0     C47265  -0.475  10.165   9.781 -0.3101  0.6427 -0.2193
  359MOL0     C47266  -0.598  10.092   9.724  1.0184  0.3847 -0.1822
  359MOL0     C47267  -0.569  10.006   9.602 -0.3066 -0.1766  0.1977
  359MOL0     C47268  -0.679   9.908   9.557  0.3576  0.9787 -0.8022
  359MOL0     C47269  -0.631   9.819   9.438  0.3871  0.5194  0.7560
  359MOL0     C47270  -0.714   9.703   9.406  1.0885  0.1618 -0.1304
  359MOL0     C47271  -0.673   9.633   9.274  0.8041  0.2197  0.2932
  359MOL0     C47272  -0.539   9.563   9.307 -0.6963 -0.1391 -0.4882
  359MOL0     N47273  -0.504   9.475   9.199 -0.7396  1.8529 -0.7577
  359MOL0     C47274  -0.529   9.492   9.065  0.0181  0.3266 -0.0368
  359MOL0     C47275  -0.493   9.371   9.012  0.6303  1.0042 -0.2167
  359MOL0     C47276  -0.512   9.344   8.870  0.7926  0.7158 -0.9060
  359MOL0     C47277  -0.666   9.319   8.834 -0.3494  0.2456 -1.3355
  359MOL0     C47278  -0.702   9.344   8.686  0.0377 -0.3835 -0.3527
  359MOL0     C47279  -0.597   9.275   8.595  0.2944  0.0700 -0.8430
  359MOL0     O47280  -0.638   9.273   8.457  1.1416 -0.0274 -0.0991
  359MOL0     C47281  -0.545   9.218   8.371  0.4222  0.1586  0.1047
  359MOL0     C47282  -0.590   9.209   8.236 -0.2317 -0.4263  0.1687
  359MOL0     C47283  -0.504   9.170   8.141 -0.1303  1.2527 -0.1857
  359MOL0     C47284  -0.389   9.095   8.174 -0.1457 -0.6212  0.3395
  359MOL0     C47285  -0.304   9.045   8.066 -0.5170 -0.3038  0.0982
  359MOL0     O47286  -0.178   9.003   8.092 -0.4190 -0.1995 -0.6258
  359MOL0     C47287  -0.092   8.923   8.025  0.9749 -0.0455 -0.3989
  359MOL0     C47288   0.036   8.925   8.071  0.1625 -0.4795 -0.1237
  359MOL0     C47289   0.134   8.838   8.018 -0.1358  0.0296  0.4915
  359MOL0     C47290   0.101   8.745   7.916 -0.4395 -0.0980 -0.2546
  359MOL0     O47291   0.190   8.651   7.874 -0.0161 -0.2496  0.0479
  359MOL0     C47292   0.332   8.670   7.882 -0.4382 -0.3935  0.8271
  359MOL0     C47293   0.395   8.537   7.829  1.6699  0.2877 -0.4249
  359MOL0     C47294   0.545   8.552   7.810 -0.2895  0.1490  0.0201
  359MOL0     C47295   0.612   8.441   7.736  0.4010 -0.8796  0.3737
  359MOL0     C47296   0.729   8.496   7.646  0.4296  0.4735  0.3678
  359MOL0     C47297   0.800   8.387   7.577  0.1641  0.7493  0.6006
  359MOL0     C47298   0.931   8.437   7.513  0.1369  0.1801  0.4236
  359MOL0     C47299   1.019   8.315   7.495 -0.1040  0.7793 -0.0548
  359MOL0    Cl47300   1.152   8.353   7.377 -0.1359 -0.0569 -0.4200
  359MOL0     C47301  -0.027   8.751   7.867  1.0599 -0.8470  0.2046
  359MOL0     C47302  -0.126   8.841   7.919 -0.1667  1.4242 -0.6250
  359MOL0     O47303  -0.360   9.032   7.955  0.4942  0.2258  0.6258
  359MOL0     C47304  -0.352   9.089   8.309 -0.2680  0.1712  0.0405
  359MOL0     C47305  -0.428   9.156   8.408 -0.1142  1.1978 -0.0005
  359MOL0     N47306  -0.447   9.287   9.096  0.4234 -0.2953 -0.1537
  359MOL0     N47307  -0.450   9.350   9.212  0.7636 -0.5010  0.9408
  359MOL0     C47308  -0.223  10.347   9.591  0.5685  0.5462 -0.6916
  359MOL0     C47309  -0.095  10.391   9.614 -0.8521 -0.4820 -0.6596
  359MOL0     C47310   0.311  10.510   9.743 -0.4507 -0.4377 -0.8323
  359MOL0     C47311   0.384  10.395   9.789  0.3915  0.3549  0.0409
  359MOL0     C47312   0.524  10.397   9.810  0.1628 -0.3505 -0.2721
  359MOL0     C47313   0.590  10.515   9.794 -0.5954 -0.5286  0.7899
  359MOL0     O47314   0.725  10.516   9.823 -0.0904  0.3985  0.3133
  359MOL0     C47315   0.809  10.626   9.772  0.3275 -0.5541 -0.9632
  359MOL0     C47316   0.934  10.618   9.862 -0.4910 -0.2761  0.4269
  359MOL0     C47317   1.048  10.699   9.798  0.2855 -0.1623 -0.3411
  359MOL0     C47318   1.159  10.735   9.899 -0.0362  0.3259  1.2065
  359MOL0     C47319   1.244  10.837   9.835 -0.0608 -0.7394  0.8309
  359MOL0     C47320   1.291  10.938   9.771  0.6275  0.4657  0.2618
  359MOL0     C47321   0.525  10.633   9.757 -0.2799  0.1154 -0.6404
  359MOL0     C47322   0.383  10.628   9.743  1.0354 -0.3734  0.4006
  359MOL0     H47323  -0.060  10.341   9.944 -2.5734  2.6468  1.6578
  359MOL0     H47324  -0.285  10.252   9.919 -0.9805 -0.6345 -0.8615
  359MOL0     H47325  -0.509  10.205   9.877 -2.7535 -0.6109 -0.4637
  359MOL0     H47326  -0.400  10.093   9.816  0.5452  1.1986 -0.8613
  359MOL0     H47327  -0.679  10.163   9.708  0.4864  0.0240  0.7997
  359MOL0     H47328  -0.637  10.022   9.799  0.1817  3.3651  2.3573
  359MOL0     H47329  -0.483   9.945   9.632  0.6475  0.3681 -1.3057
  359MOL0     H47330  -0.543  10.063   9.512 -0.4724 -1.9978 -1.0538
  359MOL0     H47331  -0.705   9.855   9.649 -1.0758  0.8650 -1.2360
  359MOL0     H47332  -0.767   9.967   9.527  1.3463  2.6575 -0.4910
  359MOL0     H47333  -0.533   9.773   9.457  0.0203 -0.4026  0.4580
  359MOL0     H47334  -0.603   9.881   9.352  2.5979  2.3303  2.6367
  359MOL0     H47335  -0.817   9.736   9.389 -1.1732 -3.6816  4.0188
  359MOL0     H47336  -0.713   9.636   9.493 -1.7895  1.6477  1.1725
  359MOL0     H47337  -0.750   9.559   9.255  2.1286 -1.8446  2.4264
  359MOL0     H47338  -0.665   9.710   9.196  0.8800  0.2202  0.3025
  359MOL0     H47339  -0.565   9.502   9.395  2.1992  0.2800  0.7415
  359MOL0     H47340  -0.461   9.637   9.325  1.6355 -2.4870 -0.2320
  359MOL0     H47341  -0.557   9.583   9.013  2.1769  1.3411  0.4575
  359MOL0     H47342  -0.457   9.257   8.836 -1.8894 -1.5635  0.1820
  359MOL0     H47343  -0.480   9.426   8.805  0.3364 -1.2221 -3.7751
  359MOL0     H47344  -0.718   9.398   8.890 -0.0525  1.0029 -2.0905
  359MOL0     H47345  -0.699   9.223   8.874 -0.1315  0.2714 -1.0909
  359MOL0     H47346  -0.805   9.319   8.656 -0.9651  4.0503 -1.3258
  359MOL0     H47347  -0.709   9.452   8.675  1.6676 -0.3072 -0.8087
  359MOL0     H47348  -0.586   9.174   8.636  1.3712  0.2841 -0.5887
  359MOL0     H47349  -0.508   9.336   8.613 -0.7067  1.0999  1.0264
  359MOL0     H47350  -0.681   9.261   8.208  1.6665  2.9003 -0.2679
  359MOL0     H47351  -0.531   9.195   8.039  2.5992 -0.5272 -1.4301
  359MOL0     H47352   0.050   8.998   8.150  0.9601  1.8175 -2.2642
  359MOL0     H47353   0.235   8.842   8.058 -0.4658 -4.8936  2.5062
  359MOL0     H47354   0.374   8.687   7.982  2.9009 -0.0361 -0.4937
  359MOL0     H47355   0.359   8.761   7.827 -1.8455 -0.0852  0.6292
  359MOL0     H47356   0.346   8.514   7.734  0.7527  1.7723 -0.3471
  359MOL0     H47357   0.358   8.457   7.895 -1.6574  0.2258 -2.1348
  359MOL0     H47358   0.589   8.562   7.910 -0.9216 -0.6197  0.3915
  359MOL0     H47359   0.560   8.646   7.757 -1.7747  0.9520  0.9572
  359MOL0     H47360   0.661   8.368   7.802  3.0864 -0.2685 -0.8072
  359MOL0     H47361   0.540   8.381   7.678 -1.0888 -0.0252  1.2663
  359MOL0     H47362   0.797   8.554   7.709  0.4374 -1.3884  2.1732
  359MOL0     H47363   0.687   8.568   7.576  0.8145  0.3574  0.0182
  359MOL0     H47364   0.736   8.353   7.495 -1.0935  0.8725  1.5058
  359MOL0     H47365   0.816   8.303   7.646 -0.2546  1.3465  1.4385
  359MOL0     H47366   0.911   8.476   7.413  0.7845  0.1323  0.2739
  359MOL0     H47367   0.987   8.508   7.574 -3.1256  1.1799  2.5186
  359MOL0     H47368   0.974   8.232   7.440 -0.6404  0.3818  0.9483
  359MOL0     H47369   1.056   8.280   7.592 -0.8814 -1.1373 -0.4107
  359MOL0     H47370  -0.060   8.696   7.779 -1.4761  1.4950 -0.4413
  359MOL0     H47371  -0.228   8.832   7.883 -0.2117  0.6535 -0.3320
  359MOL0     H47372  -0.262   9.033   8.330 -0.2147 -0.4634 -1.6808
  359MOL0     H47373  -0.394   9.157   8.511  1.2562  1.7792 -0.4346
  359MOL0     H47374  -0.290  10.348   9.505 -0.4813  0.5812  0.1054
  359MOL0     H47375  -0.031  10.422   9.533  1.1215 -2.8982 -0.1350
  359MOL0     H47376   0.340  10.300   9.818  3.7892 -1.2159  0.5595
  359MOL0     H47377   0.579  10.318   9.859  1.4363  1.3892  1.2134
  359MOL0     H47378   0.772  10.726   9.797 -0.9292 -1.5775  1.6318
  359MOL0     H47379   0.833  10.626   9.665 -0.7074  0.0873 -1.2063
  359MOL0     H47380   0.919  10.634   9.969  0.9691 -1.8265  0.9192
  359MOL0     H47381   0.964  10.512   9.866 -0.4865 -0.2598  0.8713
  359MOL0     H47382   1.003  10.795   9.767  0.0185 -0.2513 -0.2320
  359MOL0     H47383   1.092  10.649   9.711  0.1750 -2.6409  0.9438
  359MOL0     H47384   1.115  10.796   9.979 -2.1895  0.0580  0.2830
  359MOL0     H47385   1.203  10.644   9.940  1.6326  1.0296  1.0637
  359MOL0     H47386   1.316  11.028   9.719  0.3892  0.4543  0.1286
  359MOL0     H47387   0.559  10.736   9.751  0.4845  0.3007  3.8609
  359MOL0     H47388   0.326  10.720   9.738 -2.2047 -2.1996  0.6249
  360MOL0     O47389   7.513   7.512   2.315  0.9638 -0.0194 -0.9290
  360MOL0     C47390   7.536   7.615   2.378  0.2461 -0.0887 -0.1586
  360MOL0     O47391   7.470   7.663   2.491 -0.1469 -0.4384  0.3993
  360MOL0     C47392   7.345   7.613   2.535 -0.7886 -0.9616 -0.6687
  360MOL0     C47393   7.258   7.706   2.590  0.3340 -0.3327 -0.9593
  360MOL0     C47394   7.132   7.659   2.642 -0.6575 -0.0522  0.2251
  360MOL0     C47395   7.092   7.531   2.627  1.4879  1.1416  0.0857
  360MOL0     O47396   6.958   7.494   2.642 -0.7716  0.7393  0.1856
  360MOL0     C47397   6.853   7.593   2.653  1.2342 -0.4150  0.2756
  360MOL0     C47398   6.711   7.535   2.661 -0.2240 -0.5730 -0.5700
  360MOL0     C47399   6.613   7.641   2.712  0.3503  0.1652  0.4608
  360MOL0     C47400   6.468   7.597   2.676 -0.0422 -0.6742 -0.4646
  360MOL0     C47401   6.413   7.493   2.777 -0.2573  0.4450 -0.1610
  360MOL0     C47402   6.375   7.552   2.914  0.5514 -0.0406 -0.0073
  360MOL0     C47403   6.322   7.434   3.002 -0.3371  0.2294  0.0054
  360MOL0     C47404   6.179   7.390   2.978 -0.0860 -0.6641 -0.1263
  360MOL0     N47405   6.086   7.498   3.013  0.4773 -1.0643 -0.3459
  360MOL0     C47406   6.012   7.575   2.925  0.3205  0.0910 -0.6877
  360MOL0     C47407   5.923   7.644   3.008  0.1981  0.5543 -1.1147
  360MOL0     C47408   5.801   7.707   2.948  0.1219  0.2266 -0.1646
  360MOL0     C47409   5.825   7.852   2.955 -0.2657 -0.4322 -0.7868
  360MOL0     C47410   5.807   7.930   3.091 -0.7693  0.5987  0.2998
  360MOL0     C47411   5.833   8.089   3.072 -0.4175  0.7135 -0.0337
  360MOL0     O47412   5.742   8.134   2.962 -1.0262 -0.3477  0.4468
  360MOL0     C47413   5.611   8.172   2.985  0.3084 -0.1986 -0.3978
  360MOL0     C47414   5.547   8.174   3.115 -0.1243  0.8820  0.4183
  360MOL0     C47415   5.409   8.200   3.124 -0.4513 -0.2061  0.0373
  360MOL0     C47416   5.324   8.224   3.015 -0.0129 -0.4476 -0.0982
  360MOL0     C47417   5.181   8.259   3.030 -1.2885 -1.5509 -0.3466
  360MOL0     O47418   5.120   8.324   2.921  0.6997  0.4716  0.4433
  360MOL0     C47419   4.983   8.321   2.900 -0.4039  0.3699 -0.3044
  360MOL0     C47420   4.887   8.249   2.972 -0.1446  0.4589  0.1761
  360MOL0     C47421   4.751   8.242   2.937  0.4471 -0.0967  1.0504
  360MOL0     C47422   4.709   8.315   2.826 -0.6934 -0.3716  0.2219
  360MOL0     O47423   4.583   8.329   2.786  0.4340  0.4488 -0.4487
  360MOL0     C47424   4.479   8.260   2.861 -0.3220  0.2016 -0.1857
  360MOL0     C47425   4.375   8.220   2.767 -0.6519 -0.6374  0.2426
  360MOL0     C47426   4.406   8.079   2.710  0.1654  0.1517  0.1137
  360MOL0     C47427   4.308   8.033   2.600 -0.0674  0.7147 -0.9586
  360MOL0     C47428   4.372   7.923   2.517  0.4607  0.5736  0.2626
  360MOL0     C47429   4.423   7.800   2.601  0.5322 -0.4637  0.1023
  360MOL0     C47430   4.478   7.697   2.509 -0.0779 -0.3515  0.3144
  360MOL0     C47431   4.477   7.553   2.576  0.6998 -0.2847 -0.5613
  360MOL0    Cl47432   4.619   7.457   2.501 -0.2087 -0.2050 -0.0622
  360MOL0     C47433   4.807   8.384   2.755  0.9510 -0.7449  0.6285
  360MOL0     C47434   4.939   8.389   2.790 -0.6453 -0.0889 -0.7007
  360MOL0     O47435   5.126   8.235   3.132  0.7567 -0.1794  0.6427
  360MOL0     C47436   5.386   8.240   2.896  0.2173 -0.9749  0.1853
  360MOL0     C47437   5.521   8.195   2.877 -0.3051  0.2247  0.5481
  360MOL0     N47438   5.945   7.613   3.141  0.9298 -0.0121  0.0440
  360MOL0     N47439   6.045   7.535   3.131 -0.0425 -0.6098 -0.6466
  360MOL0     C47440   7.184   7.435   2.578  0.3646 -0.3056 -0.6506
  360MOL0     C47441   7.312   7.475   2.541  0.6313  0.1732  0.6147
  360MOL0     C47442   7.640   7.704   2.328  0.6116  0.6387  0.5012
  360MOL0     C47443   7.712   7.667   2.215 -0.0607  0.0239  0.5520
  360MOL0     C47444   7.820   7.741   2.175 -0.0453  0.5764  0.0450
  360MOL0     C47445   7.863   7.858   2.248 -0.2161  0.7012  0.1400
  360MOL0     O47446   7.982   7.924   2.202 -0.0633  0.7547 -0.3605
  360MOL0     C47447   8.037   8.026   2.284  0.3985 -0.4707 -0.9887
  360MOL0     C47448   8.173   8.068   2.231  0.1864  0.5080 -1.0229
  360MOL0     C47449   8.242   8.145   2.345  0.0264  0.0907  0.0285
  360MOL0     C47450   8.290   8.050   2.458 -0.7942  0.2958 -0.4287
  360MOL0     C47451   8.347   8.136   2.567  0.4004 -0.2275  0.5640
  360MOL0     C47452   8.381   8.223   2.639 -0.9485 -0.1899 -0.2335
  360MOL0     C47453   7.781   7.899   2.353 -0.2244 -0.3259 -0.4372
  360MOL0     C47454   7.673   7.821   2.394 -0.1651  0.0174  0.4396
  360MOL0     H47455   7.269   7.813   2.599  1.3074 -0.4952  0.1594
  360MOL0     H47456   7.072   7.741   2.680  0.1603  1.2957 -1.2415
  360MOL0     H47457   6.848   7.654   2.562  0.3403  0.0247  0.6008
  360MOL0     H47458   6.879   7.660   2.734  1.8785  2.8365 -2.3909
  360MOL0     H47459   6.715   7.447   2.725 -0.6105 -1.2581 -1.4606
  360MOL0     H47460   6.692   7.493   2.561 -2.7594 -1.5890  0.2500
  360MOL0     H47461   6.619   7.728   2.646  1.8997 -1.3960 -1.6001
  360MOL0     H47462   6.632   7.658   2.818  3.4792 -0.6158  0.1136
  360MOL0     H47463   6.402   7.685   2.683  0.7932  0.5429 -4.9273
  360MOL0     H47464   6.472   7.556   2.575  0.1124  1.5009 -1.3813
  360MOL0     H47465   6.478   7.406   2.790 -2.1131 -0.8095  1.2615
  360MOL0     H47466   6.323   7.455   2.727  1.2212 -0.5171 -2.2891
  360MOL0     H47467   6.302   7.633   2.920  0.3908 -0.2807  2.1902
  360MOL0     H47468   6.466   7.595   2.958  0.3720  2.3269 -1.7664
  360MOL0     H47469   6.390   7.349   3.004  0.8878  1.2062  1.1457
  360MOL0     H47470   6.328   7.488   3.097  0.8846  0.5389 -0.2294
  360MOL0     H47471   6.164   7.308   3.050 -2.0736 -0.3255 -0.0799
  360MOL0     H47472   6.176   7.357   2.874 -0.1625 -0.1796 -0.2816
  360MOL0     H47473   6.020   7.571   2.817  1.2823  0.4914 -0.6432
  360MOL0     H47474   5.712   7.677   3.003 -0.0565  1.1544  0.0795
  360MOL0     H47475   5.802   7.676   2.843 -0.4000 -0.1560 -0.0582
  360MOL0     H47476   5.759   7.902   2.883 -0.5064  2.7947  1.4560
  360MOL0     H47477   5.929   7.861   2.921  0.8076 -4.5368  0.7475
  360MOL0     H47478   5.706   7.914   3.128 -1.7531  2.4623 -1.3715
  360MOL0     H47479   5.882   7.900   3.165 -1.3703 -0.8898  0.3375
  360MOL0     H47480   5.939   8.106   3.050  0.3894 -0.1865  2.7244
  360MOL0     H47481   5.815   8.136   3.169  1.7027  0.3127  0.6157
  360MOL0     H47482   5.617   8.172   3.199  2.3365  4.0191 -1.3462
  360MOL0     H47483   5.361   8.217   3.219 -1.1621  1.3451 -0.5675
  360MOL0     H47484   4.911   8.193   3.061  0.2913 -0.6166 -0.5986
  360MOL0     H47485   4.677   8.197   3.003 -1.1792  0.2257 -0.4879
  360MOL0     H47486   4.453   8.321   2.948  3.3920  0.5163  0.8494
  360MOL0     H47487   4.508   8.165   2.906 -2.8340  1.0113  3.6855
  360MOL0     H47488   4.377   8.296   2.688  1.0343 -1.3037 -0.3973
  360MOL0     H47489   4.275   8.226   2.809 -1.1627  0.5529 -1.0472
  360MOL0     H47490   4.406   8.009   2.794  0.8883  1.4502  1.2326
  360MOL0     H47491   4.507   8.090   2.670  0.2748  2.1672  0.8384
  360MOL0     H47492   4.214   7.997   2.642  0.1173  2.0144  0.6792
  360MOL0     H47493   4.283   8.115   2.533  1.7495  2.9106  0.8927
  360MOL0     H47494   4.459   7.955   2.459  1.2078 -1.4779  0.1643
  360MOL0     H47495   4.307   7.877   2.441 -0.6241 -1.9185  2.5413
  360MOL0     H47496   4.342   7.750   2.656  2.1347 -4.4057 -0.7745
  360MOL0     H47497   4.502   7.834   2.668  0.9461 -1.7946  0.3202
  360MOL0     H47498   4.420   7.697   2.416  0.1175  1.4935  0.1532
  360MOL0     H47499   4.582   7.709   2.477  0.4487 -1.6690  1.4167
  360MOL0     H47500   4.376   7.512   2.566  1.0906 -0.9854 -1.9378
  360MOL0     H47501   4.500   7.562   2.683  2.6787 -0.0712 -0.9689
  360MOL0     H47502   4.781   8.448   2.672  3.2149  0.6408  0.9016
  360MOL0     H47503   4.999   8.447   2.721  0.7267 -0.0987  0.4499
  360MOL0     H47504   5.336   8.275   2.806  1.2375  2.2303  0.7500
  360MOL0     H47505   5.562   8.193   2.777  1.0134  2.8069  0.9602
  360MOL0     H47506   7.160   7.329   2.586 -0.6421  0.0297  1.5082
  360MOL0     H47507   7.379   7.394   2.516 -0.2556  0.1453 -1.9849
  360MOL0     H47508   7.680   7.581   2.157 -2.4021 -0.0562  1.8048
  360MOL0     H47509   7.871   7.693   2.092 -4.6210 -2.1106 -1.6115
  360MOL0     H47510   8.038   7.980   2.384 -1.8614 -0.2417 -0.8118
  360MOL0     H47511   7.963   8.106   2.281  1.7327  0.8078 -0.5500
  360MOL0     H47512   8.228   7.975   2.212  1.5088  0.8402  0.9218
  360MOL0     H47513   8.162   8.128   2.140 -2.2036 -0.6248 -1.5581
  360MOL0     H47514   8.168   8.221   2.370  0.8684 -0.3085  4.4768
  360MOL0     H47515   8.330   8.198   2.306 -0.0005  0.7857  0.8942
  360MOL0     H47516   8.199   8.009   2.503 -1.0122  0.9644 -0.2501
  360MOL0     H47517   8.367   7.977   2.431  1.5018  0.7303  3.9789
  360MOL0     H47518   8.410   8.309   2.695 -0.5778  1.6066 -3.0212
  360MOL0     H47519   7.798   7.998   2.393 -0.7672 -0.8142  1.0418
  360MOL0     H47520   7.612   7.857   2.476  2.6870  0.7822  2.4030
  361MOL0     O47521   8.108   7.210   1.261  0.1032 -0.8714 -0.4503
  361MOL0     C47522   8.180   7.138   1.184  0.1080  0.2056 -0.1527
  361MOL0     O47523   8.170   7.009   1.183  0.4029 -0.3856  0.3621
  361MOL0     C47524   8.053   6.948   1.221  0.5307 -0.8119  0.3289
  361MOL0     C47525   7.958   6.889   1.133 -0.3298 -0.0783  0.0120
  361MOL0     C47526   7.839   6.834   1.180  0.5236 -0.1800 -0.3212
  361MOL0     C47527   7.804   6.845   1.314  0.7392  1.0210 -0.1897
  361MOL0     O47528   7.683   6.798   1.378 -0.2160 -0.8887  0.5651
  361MOL0     C47529   7.605   6.725   1.299 -0.1934 -0.1097 -0.2161
  361MOL0     C47530   7.507   6.651   1.386  0.4301  0.9645 -0.4922
  361MOL0     C47531   7.568   6.529   1.444 -0.7501  0.6439 -0.4270
  361MOL0     C47532   7.472   6.412   1.468  0.2012 -0.6215 -0.0496
  361MOL0     C47533   7.537   6.288   1.536 -0.4639  0.0306  0.1716
  361MOL0     C47534   7.435   6.222   1.626  0.2581  0.5346  0.2388
  361MOL0     C47535   7.319   6.168   1.547  0.8850 -0.0089 -0.6407
  361MOL0     C47536   7.209   6.104   1.635 -0.6470  0.3937 -0.9509
  361MOL0     N47537   7.132   6.195   1.723 -0.4716  0.4028 -0.2799
  361MOL0     C47538   7.059   6.300   1.684  0.3148 -0.3679  0.6719
  361MOL0     C47539   7.006   6.355   1.796 -0.5678 -0.3539  0.1041
  361MOL0     C47540   6.955   6.492   1.806  0.2553 -0.5529  0.4226
  361MOL0     C47541   6.940   6.525   1.957  0.0121 -0.2864  0.1853
  361MOL0     C47542   6.809   6.461   2.012  0.5886  0.1603 -0.5702
  361MOL0     C47543   6.683   6.539   1.970  0.6607  0.9036  0.3146
  361MOL0     O47544   6.557   6.481   2.014 -0.0542  0.3430 -0.1149
  361MOL0     C47545   6.442   6.517   1.947  0.1871 -0.3461 -0.5697
  361MOL0     C47546   6.427   6.627   1.860 -0.8515 -0.0540  0.4015
  361MOL0     C47547   6.306   6.682   1.825  0.3860  0.2785 -0.3284
  361MOL0     C47548   6.187   6.607   1.860 -0.6753  0.0433  0.5618
  361MOL0     C47549   6.054   6.654   1.817  0.2989 -0.3086 -0.1944
  361MOL0     O47550   5.958   6.587   1.875 -0.6293  0.8182 -0.4087
  361MOL0     C47551   5.828   6.618   1.873 -0.3683 -0.7782  0.2410
  361MOL0     C47552   5.756   6.597   1.987 -0.2947  0.7354  0.0118
  361MOL0     C47553   5.620   6.611   1.985  0.3749  0.2654 -0.3573
  361MOL0     C47554   5.542   6.653   1.872  0.6188 -0.8107  0.1928
  361MOL0     O47555   5.409   6.681   1.864  0.1675  0.0680 -0.3351
  361MOL0     C47556   5.337   6.647   1.987  0.4238  0.0935  0.1637
  361MOL0     C47557   5.191   6.647   1.949 -0.5439 -0.1418 -0.8847
  361MOL0     C47558   5.128   6.783   1.902  1.1803  0.0247  0.8491
  361MOL0     C47559   5.122   6.781   1.745 -1.1488 -0.5098 -0.1019
  361MOL0     C47560   5.045   6.902   1.694  0.0957 -0.7817  1.2538
  361MOL0     C47561   4.893   6.888   1.701 -0.4693  0.7978 -0.2410
  361MOL0     C47562   4.824   7.010   1.653 -0.1901 -0.1529  0.0400
  361MOL0     C47563   4.806   7.122   1.757 -0.8904 -0.7148  0.0586
  361MOL0    Cl47564   4.732   7.273   1.673  0.2840  0.6615  0.1216
  361MOL0     C47565   5.623   6.687   1.758 -0.1889  0.3495 -0.3269
  361MOL0     C47566   5.759   6.662   1.757 -0.2198 -0.2806  0.3121
  361MOL0     O47567   6.042   6.756   1.744  0.3456  0.2557 -0.2223
  361MOL0     C47568   6.200   6.490   1.937 -0.2302 -0.1899  0.5411
  361MOL0     C47569   6.327   6.450   1.975  1.2749 -0.0749 -0.3868
  361MOL0     N47570   7.051   6.270   1.893 -0.3262 -0.2566  0.5534
  361MOL0     N47571   7.130   6.181   1.856 -0.1315  0.9288  0.3835
  361MOL0     C47572   7.893   6.891   1.408 -0.2736  0.4595 -0.0331
  361MOL0     C47573   8.006   6.942   1.352 -0.3089  0.2303  0.0875
  361MOL0     C47574   8.274   7.208   1.093  0.0776 -0.4637  1.0133
  361MOL0     C47575   8.373   7.135   1.018 -0.1815  0.3903 -0.8097
  361MOL0     C47576   8.444   7.203   0.913 -0.0170  0.6947  0.4351
  361MOL0     C47577   8.432   7.345   0.889  0.3826 -0.0120  0.2364
  361MOL0     O47578   8.504   7.424   0.801 -0.3118  0.5063 -0.1117
  361MOL0     C47579   8.614   7.360   0.735 -0.3107  0.5533  0.5529
  361MOL0     C47580   8.680   7.451   0.633  0.0730  0.5405 -0.0587
  361MOL0     C47581   8.813   7.411   0.559  1.0040 -0.1028  0.5359
  361MOL0     C47582   8.870   7.269   0.585  0.1725 -0.2116  1.2212
  361MOL0     C47583   8.790   7.162   0.521 -0.3618 -0.2033  0.3818
  361MOL0     C47584   8.698   7.107   0.463 -1.3450 -0.3789  0.2377
  361MOL0     C47585   8.339   7.409   0.970 -0.2154  0.8657 -0.4269
  361MOL0     C47586   8.260   7.340   1.066  0.1621 -0.2657  0.0254
  361MOL0     H47587   7.977   6.896   1.027  4.4425 -0.2070  0.6302
  361MOL0     H47588   7.771   6.795   1.105  0.8146 -2.8953  0.7003
  361MOL0     H47589   7.657   6.659   1.229  0.8348  0.8308 -0.3707
  361MOL0     H47590   7.538   6.788   1.239  0.0883  0.8433  0.4463
  361MOL0     H47591   7.417   6.620   1.332  0.0376  1.3365 -0.0629
  361MOL0     H47592   7.468   6.715   1.466 -1.1905 -3.0707  2.2149
  361MOL0     H47593   7.620   6.552   1.537 -0.2797  0.5780 -0.6697
  361MOL0     H47594   7.637   6.490   1.369 -0.0971 -2.0265  1.4365
  361MOL0     H47595   7.401   6.450   1.543 -0.0374 -0.9445 -0.1094
  361MOL0     H47596   7.426   6.377   1.375 -1.5036  2.0511 -0.3001
  361MOL0     H47597   7.614   6.328   1.603  0.1216  1.0403 -1.0669
  361MOL0     H47598   7.574   6.215   1.464  0.5917 -2.3613  2.9192
  361MOL0     H47599   7.387   6.301   1.684 -0.9194  0.3882 -0.5052
  361MOL0     H47600   7.491   6.143   1.677 -0.7173 -1.0689 -1.0547
  361MOL0     H47601   7.276   6.254   1.495  2.1565  2.1916  1.7295
  361MOL0     H47602   7.351   6.099   1.468  2.8545  0.1988 -0.0779
  361MOL0     H47603   7.270   6.048   1.707  4.0587  3.5405 -2.0602
  361MOL0     H47604   7.129   6.065   1.571 -1.9556 -0.1734  0.9263
  361MOL0     H47605   7.062   6.346   1.586  1.6295 -0.7275  0.5280
  361MOL0     H47606   6.859   6.498   1.754 -2.0317  3.0876  4.4532
  361MOL0     H47607   7.034   6.557   1.767 -1.6258  1.6527  0.1092
  361MOL0     H47608   6.933   6.634   1.962 -2.6467 -0.3659  0.0335
  361MOL0     H47609   7.028   6.498   2.015 -0.8734 -1.2379  1.1326
  361MOL0     H47610   6.795   6.354   1.991 -0.0167 -0.6368  3.2113
  361MOL0     H47611   6.813   6.473   2.120 -2.2351  0.4633 -0.4131
  361MOL0     H47612   6.683   6.537   1.861 -1.4228 -2.5665  0.2417
  361MOL0     H47613   6.696   6.645   1.996 -2.3663  1.2978  0.6152
  361MOL0     H47614   6.516   6.678   1.823  0.6307 -0.7815  2.7321
  361MOL0     H47615   6.304   6.774   1.768  2.3809 -0.4585 -1.6815
  361MOL0     H47616   5.814   6.580   2.077  0.8761  0.5417 -0.7477
  361MOL0     H47617   5.582   6.585   2.084  1.0381  1.6620  0.2902
  361MOL0     H47618   5.359   6.722   2.064  0.8122  3.2221 -2.7563
  361MOL0     H47619   5.370   6.548   2.017  1.6351  0.4099 -0.0596
  361MOL0     H47620   5.130   6.616   2.034  0.5542  2.6736  1.1087
  361MOL0     H47621   5.179   6.575   1.868  0.3496  0.4632 -1.5776
  361MOL0     H47622   5.190   6.870   1.927  2.4158 -0.5933  0.0392
  361MOL0     H47623   5.023   6.797   1.929  0.5144 -1.4346 -0.7961
  361MOL0     H47624   5.223   6.797   1.706 -0.4228  0.5245  2.0517
  361MOL0     H47625   5.076   6.695   1.696  4.5555 -2.4703 -2.8780
  361MOL0     H47626   5.077   6.929   1.593  0.5716  3.3988  2.3385
  361MOL0     H47627   5.069   6.988   1.758 -0.4554 -1.0400  1.8178
  361MOL0     H47628   4.864   6.861   1.803  1.0551  1.9739  0.5426
  361MOL0     H47629   4.876   6.803   1.634  2.0433  0.5030 -0.5789
  361MOL0     H47630   4.867   7.051   1.561  0.8887 -3.3245 -1.0123
  361MOL0     H47631   4.722   6.979   1.625 -1.4404  1.5430  2.3954
  361MOL0     H47632   4.900   7.154   1.801 -1.9527  3.4546 -0.2959
  361MOL0     H47633   4.751   7.094   1.847  0.1909  0.1385  1.0120
  361MOL0     H47634   5.579   6.719   1.664  1.8332 -0.7837 -1.7394
  361MOL0     H47635   5.812   6.661   1.662 -0.3786  2.0576  0.1543
  361MOL0     H47636   6.116   6.433   1.977 -1.8247 -1.1339 -3.6037
  361MOL0     H47637   6.318   6.365   2.042  2.0443 -1.1568 -1.6134
  361MOL0     H47638   7.865   6.905   1.512  0.7726 -0.0326  0.3345
  361MOL0     H47639   8.068   6.969   1.437 -0.6649 -1.2121  0.8434
  361MOL0     H47640   8.373   7.027   1.018  1.3651  0.3734  0.1967
  361MOL0     H47641   8.499   7.138   0.846  0.3338  2.1419 -0.7260
  361MOL0     H47642   8.587   7.264   0.690 -1.5634 -0.9520  4.0944
  361MOL0     H47643   8.685   7.343   0.817 -0.8538  1.6154  1.2766
  361MOL0     H47644   8.601   7.449   0.558 -1.8270 -2.7973  1.8086
  361MOL0     H47645   8.695   7.555   0.663  0.5779 -0.3577  3.1611
  361MOL0     H47646   8.880   7.487   0.602 -0.8657  3.1943 -1.9460
  361MOL0     H47647   8.808   7.423   0.450 -0.7316  0.7206  0.6766
  361MOL0     H47648   8.967   7.261   0.535 -0.4837  0.4727 -0.2345
  361MOL0     H47649   8.879   7.258   0.693 -0.3282  0.0295  1.2885
  361MOL0     H47650   8.627   7.044   0.414  2.0575 -4.5809  0.0909
  361MOL0     H47651   8.336   7.517   0.956 -0.1251  1.1272  1.2865
  361MOL0     H47652   8.186   7.402   1.115  0.1488 -0.9208  0.8561
  362MOL0     O47653   3.703   3.666   7.762 -0.3166 -0.4047  0.0151
  362MOL0     C47654   3.824   3.647   7.790 -1.0153  0.3423 -0.2726
  362MOL0     O47655   3.915   3.749   7.804 -0.5256  1.0416 -0.6468
  362MOL0     C47656   3.849   3.871   7.808 -0.3964 -0.4524  0.2536
  362MOL0     C47657   3.805   3.946   7.693 -0.4770 -0.4950  0.9361
  362MOL0     C47658   3.758   4.079   7.709 -0.7770  0.6164  0.8046
  362MOL0     C47659   3.738   4.140   7.837 -0.1694 -0.3910  0.0255
  362MOL0     O47660   3.664   4.256   7.846  0.2859 -0.1839  1.1887
  362MOL0     C47661   3.583   4.266   7.955  0.3124  0.7739 -0.2299
  362MOL0     C47662   3.465   4.368   7.925  1.3960  0.0715  0.5974
  362MOL0     C47663   3.351   4.324   7.833 -0.9442  0.3045 -1.0313
  362MOL0     C47664   3.239   4.429   7.821  0.7691  0.0123  0.8911
  362MOL0     C47665   3.118   4.377   7.736  0.3007 -0.0533  0.0620
  362MOL0     C47666   2.986   4.433   7.792  0.1451 -0.4189  0.3617
  362MOL0     C47667   2.867   4.414   7.695 -0.1625  0.2213 -0.4721
  362MOL0     C47668   2.749   4.496   7.756 -0.0317  0.4213 -0.1965
  362MOL0     N47669   2.644   4.520   7.647  1.0297 -0.1279  0.5627
  362MOL0     C47670   2.618   4.643   7.590 -0.0184  0.5045  0.0490
  362MOL0     C47671   2.518   4.618   7.501 -0.9815  0.3799 -0.0380
  362MOL0     C47672   2.454   4.726   7.416  0.3943  0.1348  0.5508
  362MOL0     C47673   2.315   4.770   7.470  0.0506  0.4513  0.6958
  362MOL0     C47674   2.214   4.669   7.435  0.9936 -0.0685 -0.7648
  362MOL0     C47675   2.191   4.644   7.288 -0.4868 -0.5906  0.2724
  362MOL0     O47676   2.053   4.597   7.282 -0.6008 -0.0884  0.2429
  362MOL0     C47677   2.000   4.587   7.156 -0.1436  0.5761 -0.3146
  362MOL0     C47678   2.070   4.603   7.035  0.0223  0.1475  0.2580
  362MOL0     C47679   2.002   4.590   6.911  0.6838  0.0879  0.6668
  362MOL0     C47680   1.865   4.582   6.907  1.1283 -0.0905 -0.6374
  362MOL0     C47681   1.797   4.582   6.775 -0.0274  0.6295 -0.7503
  362MOL0     O47682   1.671   4.530   6.768 -0.5151 -0.2969 -0.4502
  362MOL0     C47683   1.595   4.552   6.654  0.3417 -0.0279  0.0526
  362MOL0     C47684   1.502   4.464   6.635 -1.3322 -0.1610 -0.2517
  362MOL0     C47685   1.407   4.482   6.532  0.4076 -0.0080 -0.1258
  362MOL0     C47686   1.398   4.597   6.456  1.1453  0.5076  0.1789
  362MOL0     O47687   1.306   4.599   6.353  0.0707  0.4350  0.4072
  362MOL0     C47688   1.271   4.734   6.312  0.9018  0.2539  0.8591
  362MOL0     C47689   1.253   4.743   6.158 -0.8303 -1.4304 -0.7507
  362MOL0     C47690   1.393   4.747   6.100  0.1912  0.4140  0.0521
  362MOL0     C47691   1.380   4.764   5.952  0.4554 -0.7943 -0.5574
  362MOL0     C47692   1.480   4.865   5.895 -0.1468  0.1450  0.3040
  362MOL0     C47693   1.463   4.866   5.744  0.7809 -0.0002  0.5273
  362MOL0     C47694   1.322   4.910   5.698  0.0829  0.1858  0.7777
  362MOL0     C47695   1.327   4.964   5.547 -0.4862  0.7694 -0.6291
  362MOL0    Cl47696   1.176   5.022   5.476  0.2209  0.1490 -0.6526
  362MOL0     C47697   1.496   4.692   6.475  0.6444 -0.1156 -0.3693
  362MOL0     C47698   1.589   4.675   6.581 -0.1381 -0.7634  0.2299
  362MOL0     O47699   1.865   4.604   6.675  0.2680 -0.3381  0.0677
  362MOL0     C47700   1.796   4.550   7.029  1.0138 -0.3847 -0.6197
  362MOL0     C47701   1.866   4.552   7.145  0.0456 -0.0180  0.9124
  362MOL0     N47702   2.472   4.487   7.512 -0.1729 -0.4301  1.1439
  362MOL0     N47703   2.558   4.432   7.585  0.4754  0.6712  0.1820
  362MOL0     C47704   3.788   4.063   7.946 -1.6056 -0.9634 -0.3060
  362MOL0     C47705   3.847   3.943   7.930 -0.6544  0.7708  0.6976
  362MOL0     C47706   3.873   3.503   7.786 -0.4723 -0.5509  0.3481
  362MOL0     C47707   3.992   3.472   7.847  0.3153 -1.1547  0.8106
  362MOL0     C47708   4.028   3.336   7.848  0.4749  0.1324 -0.1292
  362MOL0     C47709   3.954   3.236   7.776  0.0814  0.0452 -1.0399
  362MOL0     O47710   3.993   3.109   7.764 -0.4069  0.1611  0.3062
  362MOL0     C47711   3.926   3.012   7.845  0.9261 -0.3046 -0.1641
  362MOL0     C47712   4.020   3.008   7.968 -0.2571  0.5501  0.5723
  362MOL0     C47713   3.975   2.903   8.062 -0.6953 -0.0525 -0.3822
  362MOL0     C47714   3.985   2.758   8.017 -0.1868  0.3895  0.4450
  362MOL0     C47715   4.116   2.717   7.963 -0.6980  0.7242  0.2781
  362MOL0     C47716   4.227   2.676   7.924 -0.0517  0.2870 -1.0440
  362MOL0     C47717   3.850   3.279   7.702  0.0471  0.9065 -0.2067
  362MOL0     C47718   3.800   3.408   7.711 -1.0694 -0.4830 -0.3032
  362MOL0     H47719   3.829   3.906   7.595  1.9991 -0.0436  1.2838
  362MOL0     H47720   3.718   4.128   7.620 -2.5917 -2.0850  0.0144
  362MOL0     H47721   3.641   4.301   8.041  0.2410 -0.9628  0.5916
  362MOL0     H47722   3.530   4.171   7.973  0.7035  0.3680 -1.1736
  362MOL0     H47723   3.506   4.448   7.863 -1.4473  2.5240  1.6136
  362MOL0     H47724   3.426   4.400   8.022  1.6543 -1.7182  1.3365
  362MOL0     H47725   3.319   4.221   7.852 -0.8906  0.2777 -1.0871
  362MOL0     H47726   3.393   4.311   7.733 -0.9659 -1.6930 -0.8128
  362MOL0     H47727   3.212   4.478   7.915 -0.9201 -0.8194  0.8946
  362MOL0     H47728   3.268   4.521   7.769 -1.3858  0.9209  1.1663
  362MOL0     H47729   3.106   4.268   7.729  1.5935 -0.1773 -0.8015
  362MOL0     H47730   3.124   4.409   7.631 -1.4934 -0.3039 -0.1524
  362MOL0     H47731   3.012   4.536   7.818  1.3301  0.0396 -2.3225
  362MOL0     H47732   2.962   4.385   7.888  0.8802  3.2747  2.5913
  362MOL0     H47733   2.898   4.451   7.597 -0.8122  4.4901  0.7416
  362MOL0     H47734   2.840   4.308   7.694  1.6430 -0.3021  0.7283
  362MOL0     H47735   2.781   4.592   7.798  0.6913  0.2132 -0.2513
  362MOL0     H47736   2.708   4.449   7.846  2.6543  1.1099  1.5147
  362MOL0     H47737   2.677   4.734   7.590 -0.3805  0.8952 -3.9897
  362MOL0     H47738   2.473   4.702   7.311  0.8965 -3.5801  1.3653
  362MOL0     H47739   2.523   4.811   7.427  0.5291  0.0160  0.6309
  362MOL0     H47740   2.285   4.862   7.418 -0.9228  0.1265  0.6506
  362MOL0     H47741   2.323   4.787   7.578  0.0244 -0.1300  0.7876
  362MOL0     H47742   2.236   4.573   7.483  1.1665 -0.1305 -0.9700
  362MOL0     H47743   2.127   4.710   7.487 -0.0940  0.2037 -2.7176
  362MOL0     H47744   2.260   4.561   7.270 -1.1532 -0.5434 -3.1811
  362MOL0     H47745   2.210   4.734   7.229 -2.5399  0.8064  1.6409
  362MOL0     H47746   2.176   4.624   7.035  0.6144 -2.5081  0.2819
  362MOL0     H47747   2.064   4.587   6.822 -1.3000  3.6826 -1.0376
  362MOL0     H47748   1.511   4.383   6.707  1.3251  0.2327 -0.0634
  362MOL0     H47749   1.355   4.389   6.512 -0.5541  0.1537  1.4301
  362MOL0     H47750   1.332   4.817   6.347  1.2157 -0.0418  1.0176
  362MOL0     H47751   1.176   4.769   6.353  1.5446  1.7648  1.1125
  362MOL0     H47752   1.197   4.834   6.136  0.1873 -0.6181 -0.0405
  362MOL0     H47753   1.194   4.658   6.123 -0.5986 -1.4615 -1.0675
  362MOL0     H47754   1.453   4.661   6.130 -0.9495 -0.9574 -1.4904
  362MOL0     H47755   1.437   4.841   6.136 -2.1260  0.6870  2.5098
  362MOL0     H47756   1.389   4.666   5.903 -0.2486 -1.8173  1.2784
  362MOL0     H47757   1.279   4.797   5.923  1.0998 -0.2661 -2.3183
  362MOL0     H47758   1.586   4.855   5.918 -0.2813 -1.0257  0.4650
  362MOL0     H47759   1.450   4.962   5.937  1.4258 -0.3648  2.8131
  362MOL0     H47760   1.473   4.765   5.701  2.0991  0.1658  0.4023
  362MOL0     H47761   1.541   4.929   5.701 -0.0233  0.9265  0.3897
  362MOL0     H47762   1.259   4.821   5.692  2.0863 -1.2898  0.3984
  362MOL0     H47763   1.282   4.993   5.757  1.3909 -0.3928  2.5683
  362MOL0     H47764   1.375   4.880   5.496  1.6740  1.9754 -0.6675
  362MOL0     H47765   1.399   5.045   5.535 -3.4470  3.2543 -4.0173
  362MOL0     H47766   1.512   4.789   6.428  0.6726  0.0344 -0.0538
  362MOL0     H47767   1.656   4.757   6.604 -0.4754  0.6125 -3.1504
  362MOL0     H47768   1.689   4.529   7.030  1.1937 -1.3947  1.4557
  362MOL0     H47769   1.802   4.527   7.229 -2.0944 -0.8837 -0.8415
  362MOL0     H47770   3.787   4.105   8.046 -0.6161  0.8721 -1.0283
  362MOL0     H47771   3.890   3.893   8.016 -1.0972  0.2546  0.6265
  362MOL0     H47772   4.044   3.550   7.902  2.2928 -0.5794 -1.7104
  362MOL0     H47773   4.112   3.301   7.907  1.0534 -0.4812 -1.2796
  362MOL0     H47774   3.912   2.916   7.794  1.4340 -1.3428  1.5350
  362MOL0     H47775   3.820   3.025   7.871  0.4787 -0.7526 -1.6680
  362MOL0     H47776   4.123   2.993   7.932 -0.3843 -1.1506  0.8067
  362MOL0     H47777   4.020   3.098   8.029 -1.9084  2.1816 -1.6948
  362MOL0     H47778   3.866   2.905   8.070 -0.8111 -0.0499 -1.7418
  362MOL0     H47779   4.017   2.912   8.162 -4.4926 -1.0247  1.4902
  362MOL0     H47780   3.968   2.699   8.107  0.4267  3.4764  2.7384
  362MOL0     H47781   3.904   2.729   7.949  0.0715 -0.1374  0.3587
  362MOL0     H47782   4.318   2.639   7.882 -1.2378 -0.0535 -3.4609
  362MOL0     H47783   3.792   3.204   7.649  1.9056 -0.6237 -0.1770
  362MOL0     H47784   3.700   3.432   7.676 -2.1326 -0.8330  2.2449
  363MOL0     O47785   6.209   5.793   1.869  0.0169 -0.3555  0.6328
  363MOL0     C47786   6.225   5.917   1.895  0.1387  0.0677  0.0927
  363MOL0     O47787   6.128   6.009   1.921 -0.3469 -0.2170 -0.0381
  363MOL0     C47788   6.000   5.976   1.950  0.2653 -0.0847 -0.1335
  363MOL0     C47789   5.893   6.038   1.884 -0.5837  0.0014 -0.0208
  363MOL0     C47790   5.759   6.010   1.915 -0.2824  0.3241  0.2460
  363MOL0     C47791   5.723   5.910   2.000 -0.0219  0.4202  0.3240
  363MOL0     O47792   5.586   5.878   2.009 -0.4896 -0.2852  0.2035
  363MOL0     C47793   5.522   5.909   2.134  0.1445 -0.0023 -0.1828
  363MOL0     C47794   5.374   5.860   2.122  0.5018 -0.2047  0.0221
  363MOL0     C47795   5.294   5.863   2.257 -0.2813  0.5063  0.2043
  363MOL0     C47796   5.138   5.861   2.241  0.2203 -1.1614 -0.3306
  363MOL0     C47797   5.077   5.861   2.383  1.4714  0.2317 -1.0565
  363MOL0     C47798   4.922   5.837   2.377 -0.0240 -1.1567 -0.2369
  363MOL0     C47799   4.904   5.692   2.384  0.6987 -0.9763  0.2842
  363MOL0     C47800   4.755   5.649   2.404 -0.1501 -0.4774 -0.2539
  363MOL0     N47801   4.712   5.664   2.541 -0.2074 -0.5462 -0.8114
  363MOL0     C47802   4.676   5.784   2.599 -0.6316 -0.4136 -0.2121
  363MOL0     C47803   4.656   5.751   2.728  0.1319  0.4967 -0.3407
  363MOL0     C47804   4.622   5.850   2.820 -0.3931  0.3150 -0.0881
  363MOL0     C47805   4.479   5.888   2.811  0.4769 -0.8585 -0.5576
  363MOL0     C47806   4.427   5.987   2.918 -0.3498  0.6054 -0.7240
  363MOL0     C47807   4.427   6.130   2.878 -0.0569 -0.0574  0.2560
  363MOL0     O47808   4.438   6.205   2.996 -0.0695 -0.1479 -0.3248
  363MOL0     C47809   4.381   6.326   2.998  0.0293  0.4120 -0.2811
  363MOL0     C47810   4.302   6.350   3.110 -0.8732 -0.5671 -0.2388
  363MOL0     C47811   4.229   6.466   3.124 -0.3509 -0.7955 -0.6043
  363MOL0     C47812   4.250   6.576   3.032 -0.8212 -0.9068 -0.2511
  363MOL0     C47813   4.179   6.699   3.059  0.0667 -0.0997  0.2738
  363MOL0     O47814   4.152   6.762   2.943  1.1963  0.4495  0.5267
  363MOL0     C47815   4.087   6.881   2.951  0.4180 -0.1639  0.0730
  363MOL0     C47816   4.142   6.996   3.002 -0.3319 -0.7722 -0.0387
  363MOL0     C47817   4.068   7.114   3.015 -0.0953  0.3031  0.0787
  363MOL0     C47818   3.936   7.127   2.966  0.1634 -0.2694  0.0929
  363MOL0     O47819   3.853   7.229   2.988 -0.1829 -0.0076  0.1056
  363MOL0     C47820   3.891   7.352   3.039  0.6919  0.9273 -0.1987
  363MOL0     C47821   3.982   7.420   2.938 -0.4322  0.3784  0.2830
  363MOL0     C47822   3.911   7.432   2.799  0.5580  0.8808 -0.0179
  363MOL0     C47823   3.992   7.522   2.708 -0.6428 -0.3900  0.2052
  363MOL0     C47824   3.943   7.543   2.565 -0.4659  0.8454 -0.6395
  363MOL0     C47825   4.024   7.658   2.510 -0.5050 -0.6191 -0.0394
  363MOL0     C47826   3.963   7.702   2.379 -0.3679  0.3330  0.4206
  363MOL0     C47827   4.037   7.646   2.257 -0.6399  0.2977 -0.9358
  363MOL0    Cl47828   4.028   7.459   2.240 -0.4274  0.4286 -0.4390
  363MOL0     C47829   3.885   7.009   2.904 -0.4119 -0.8015 -0.0735
  363MOL0     C47830   3.958   6.893   2.895  0.4605 -0.6620 -0.2162
  363MOL0     O47831   4.156   6.737   3.173 -0.5224 -0.4304 -0.1792
  363MOL0     C47832   4.334   6.553   2.914 -0.0601  0.5936  0.5352
  363MOL0     C47833   4.390   6.425   2.900 -0.9267 -0.6105 -0.8344
  363MOL0     N47834   4.678   5.613   2.742 -0.1412 -0.4035 -0.6781
  363MOL0     N47835   4.712   5.562   2.629  0.0575  0.0453  0.3263
  363MOL0     C47836   5.833   5.844   2.072 -0.6701 -1.4201 -1.0390
  363MOL0     C47837   5.966   5.875   2.044 -0.1240 -0.3562 -0.0070
  363MOL0     C47838   6.368   5.948   1.926  0.1285 -0.6582  0.1264
  363MOL0     C47839   6.475   5.856   1.938  0.6753 -0.0986  1.0763
  363MOL0     C47840   6.609   5.894   1.955  0.1577  0.5291 -1.2818
  363MOL0     C47841   6.638   6.026   1.979  0.1460 -0.2292 -0.9885
  363MOL0     O47842   6.758   6.085   2.001 -0.0513 -0.3430  0.0863
  363MOL0     C47843   6.864   6.000   2.055  0.4703 -0.0049  0.4452
  363MOL0     C47844   6.973   6.069   2.134  0.7911  0.0772  0.0720
  363MOL0     C47845   7.111   5.994   2.138  0.5205 -0.6397  0.7995
  363MOL0     C47846   7.228   6.085   2.176 -0.1999  0.0839  0.4527
  363MOL0     C47847   7.337   6.093   2.077  0.2478 -0.6041  0.7968
  363MOL0     C47848   7.430   6.084   1.996 -0.4112  0.2004  0.0899
  363MOL0     C47849   6.532   6.119   1.972 -0.4011 -0.5784  0.1252
  363MOL0     C47850   6.393   6.083   1.942 -0.3762 -0.5277 -0.0407
  363MOL0     H47851   5.913   6.114   1.809  2.3235 -0.6601 -0.0271
  363MOL0     H47852   5.671   6.055   1.870 -1.4662 -1.9855  0.1052
  363MOL0     H47853   5.542   6.014   2.158  1.5972  0.2955 -2.3601
  363MOL0     H47854   5.574   5.852   2.212 -1.8993 -1.1989  0.3699
  363MOL0     H47855   5.366   5.757   2.085  0.3557 -0.6065  1.1337
  363MOL0     H47856   5.328   5.919   2.042 -0.6946 -0.7862  0.2577
  363MOL0     H47857   5.322   5.957   2.305 -1.9776  1.9214 -1.4365
  363MOL0     H47858   5.331   5.781   2.319  2.6064  0.6521 -1.1533
  363MOL0     H47859   5.107   5.950   2.186 -0.2804 -0.2524  1.3383
  363MOL0     H47860   5.117   5.772   2.181 -0.3657 -1.3620  0.1603
  363MOL0     H47861   5.102   5.959   2.425  1.2677  1.2746 -3.2658
  363MOL0     H47862   5.124   5.782   2.442  2.2621  1.6548  0.3129
  363MOL0     H47863   4.879   5.875   2.284 -1.2238  0.0073  0.7533
  363MOL0     H47864   4.891   5.893   2.466 -0.4302 -3.5968  1.2569
  363MOL0     H47865   4.939   5.644   2.292 -3.5198 -0.6197 -1.7234
  363MOL0     H47866   4.968   5.651   2.464  1.8152 -2.0272 -1.0985
  363MOL0     H47867   4.748   5.543   2.381  1.3939 -0.0637 -3.0698
  363MOL0     H47868   4.691   5.709   2.339 -0.7339 -2.2316 -1.3717
  363MOL0     H47869   4.663   5.880   2.550 -0.6633  0.5058  1.5078
  363MOL0     H47870   4.684   5.936   2.794  1.0974 -1.5476 -3.3026
  363MOL0     H47871   4.652   5.804   2.914  3.3947  0.4886 -1.0483
  363MOL0     H47872   4.429   5.791   2.823 -0.3020 -0.2874  1.1236
  363MOL0     H47873   4.457   5.937   2.716 -1.2908 -0.7151 -0.1099
  363MOL0     H47874   4.328   5.963   2.959  0.7147 -0.8049  1.1678
  363MOL0     H47875   4.496   5.975   3.001  1.4141  1.8545 -1.9514
  363MOL0     H47876   4.335   6.147   2.822 -1.4641 -0.7076  2.2738
  363MOL0     H47877   4.520   6.144   2.821  2.0432 -1.7996  2.9839
  363MOL0     H47878   4.297   6.269   3.183  1.0393  0.2750  0.8867
  363MOL0     H47879   4.182   6.496   3.218  1.0565  2.4429 -0.7841
  363MOL0     H47880   4.242   6.996   3.043 -0.5133  2.0123  0.5750
  363MOL0     H47881   4.100   7.188   3.089 -2.9426 -0.1853  1.9483
  363MOL0     H47882   3.945   7.343   3.134  0.2484  2.4307  0.2294
  363MOL0     H47883   3.804   7.410   3.070  1.1574  0.5919  1.9180
  363MOL0     H47884   4.078   7.368   2.937 -1.2706 -1.2281 -0.2022
  363MOL0     H47885   4.014   7.518   2.975 -1.4334  1.4519 -1.5549
  363MOL0     H47886   3.813   7.477   2.816 -0.8965 -1.8845 -0.3988
  363MOL0     H47887   3.884   7.335   2.757  3.8032 -0.3770  0.4487
  363MOL0     H47888   3.993   7.623   2.749  2.9396 -0.0344 -0.4697
  363MOL0     H47889   4.095   7.485   2.712 -0.7627 -0.6373  1.7093
  363MOL0     H47890   3.840   7.578   2.577 -0.7357 -0.1488  0.0724
  363MOL0     H47891   3.957   7.457   2.499  0.0563  0.0825  0.4271
  363MOL0     H47892   4.132   7.636   2.508  0.2904  2.7472  0.3682
  363MOL0     H47893   4.002   7.743   2.575 -0.4857 -0.6545  0.0133
  363MOL0     H47894   3.860   7.673   2.354 -0.4494 -1.0118  2.1283
  363MOL0     H47895   3.978   7.811   2.377  1.4903  0.0947 -0.1417
  363MOL0     H47896   4.140   7.682   2.266 -1.2830  2.1746 -0.4924
  363MOL0     H47897   3.996   7.694   2.168 -0.8549  2.1775  0.1160
  363MOL0     H47898   3.786   7.003   2.860  0.2708 -2.2853 -1.5284
  363MOL0     H47899   3.915   6.805   2.849 -0.5073 -0.4874  0.3318
  363MOL0     H47900   4.350   6.638   2.848  2.6673 -0.4784 -0.3095
  363MOL0     H47901   4.447   6.399   2.811 -1.7353 -3.1525 -0.6932
  363MOL0     H47902   5.807   5.776   2.152  2.1761  0.9099  2.1754
  363MOL0     H47903   6.049   5.830   2.098 -0.7326 -4.5022 -2.0848
  363MOL0     H47904   6.448   5.752   1.924 -0.4769  0.3558 -0.3003
  363MOL0     H47905   6.683   5.815   1.956 -0.2745  0.0417  1.6074
  363MOL0     H47906   6.908   5.964   1.962 -0.2644  0.7540 -0.2115
  363MOL0     H47907   6.834   5.909   2.109 -2.3493  0.2312 -0.5708
  363MOL0     H47908   6.998   6.168   2.096  1.4790 -0.4729 -0.9560
  363MOL0     H47909   6.937   6.081   2.237  0.5001 -1.8975  0.2472
  363MOL0     H47910   7.124   5.966   2.033 -1.2097  0.2334  0.3097
  363MOL0     H47911   7.101   5.903   2.197  3.1836 -1.6478 -0.1629
  363MOL0     H47912   7.188   6.183   2.204  1.7345  0.8968  0.5284
  363MOL0     H47913   7.266   6.039   2.267  0.9655 -0.6402 -0.3778
  363MOL0     H47914   7.509   6.066   1.927 -2.7695 -0.2443 -2.7010
  363MOL0     H47915   6.557   6.222   1.998  1.9473 -1.2441  0.6871
  363MOL0     H47916   6.319   6.162   1.938  1.3347  1.3890  2.7855
  364MOL0     O47917   1.149   1.394   8.434 -0.5814 -0.5109 -0.7524
  364MOL0     C47918   1.253   1.402   8.498 -0.6606 -0.4424  0.7098
  364MOL0     O47919   1.290   1.325   8.605 -0.2912  1.1904  1.1226
  364MOL0     C47920   1.190   1.244   8.645 -0.2816 -0.0217  0.3679
  364MOL0     C47921   1.130   1.281   8.764  0.5175  0.2509 -0.7128
  364MOL0     C47922   1.015   1.209   8.818  0.3546 -0.8869 -0.4125
  364MOL0     C47923   0.972   1.094   8.756 -0.0530  0.0876 -0.1490
  364MOL0     O47924   0.852   1.030   8.788  0.1756 -0.1759 -0.8078
  364MOL0     C47925   0.789   1.036   8.921  0.0476 -0.0627  0.1861
  364MOL0     C47926   0.683   0.916   8.924 -0.1929 -0.1707 -0.9809
  364MOL0     C47927   0.588   0.915   9.049 -0.7438 -0.0489 -0.0103
  364MOL0     C47928   0.486   0.799   9.047  0.3674 -0.2002  0.5485
  364MOL0     C47929   0.367   0.820   9.145  0.1710 -0.0712  0.3069
  364MOL0     C47930   0.272   0.933   9.115  0.5906 -0.5400 -0.0374
  364MOL0     C47931   0.225   0.951   8.974  0.3852 -0.2747  0.4256
  364MOL0     C47932   0.118   0.856   8.927  0.4532 -0.8931  0.6313
  364MOL0     N47933  -0.017   0.861   8.978  0.0439 -0.4176 -0.3822
  364MOL0     C47934  -0.067   0.756   9.052  0.3523  0.5582 -1.2521
  364MOL0     C47935  -0.184   0.806   9.102  0.3432 -0.5960 -0.5781
  364MOL0     C47936  -0.291   0.734   9.181 -0.0193  0.4070 -0.5120
  364MOL0     C47937  -0.263   0.729   9.340 -0.1767  0.4749  0.1186
  364MOL0     C47938  -0.322   0.860   9.400 -0.6479 -0.3496 -0.1784
  364MOL0     C47939  -0.483   0.860   9.399 -0.0949  0.9642 -0.0660
  364MOL0     O47940  -0.543   0.736   9.448 -0.3337  0.4584  0.1189
  364MOL0     C47941  -0.675   0.713   9.425  0.5587  0.2888  0.7954
  364MOL0     C47942  -0.709   0.574   9.422 -0.3202 -0.3345 -0.7548
  364MOL0     C47943  -0.848   0.543   9.407 -0.7825  0.5488 -0.2034
  364MOL0     C47944  -0.950   0.636   9.388 -0.3144  0.3066  0.3396
  364MOL0     C47945  -1.091   0.608   9.379  0.4581 -0.4407  0.5453
  364MOL0     O47946  -1.172   0.710   9.422  0.4557  0.3806  0.5334
  364MOL0     C47947  -1.304   0.686   9.411 -0.3865  0.1968 -0.0855
  364MOL0     C47948  -1.373   0.701   9.286  0.6614  0.2873 -0.1115
  364MOL0     C47949  -1.504   0.674   9.270 -0.5053 -1.2843  0.1295
  364MOL0     C47950  -1.575   0.655   9.387 -0.1608 -0.3016 -0.7209
  364MOL0     O47951  -1.709   0.632   9.394  0.1043 -0.0442 -0.3114
  364MOL0     C47952  -1.790   0.644   9.281 -0.4097  0.3830 -0.1913
  364MOL0     C47953  -1.938   0.638   9.327 -0.7527 -0.7524 -1.0417
  364MOL0     C47954  -2.034   0.712   9.251 -0.0645 -0.7081  0.2490
  364MOL0     C47955  -2.177   0.661   9.286 -0.5945 -0.4273  0.6337
  364MOL0     C47956  -2.273   0.761   9.219  0.4920  0.0213  0.3612
  364MOL0     C47957  -2.416   0.720   9.245  0.0098 -0.5899  1.0288
  364MOL0     C47958  -2.504   0.847   9.282 -0.0485  0.6171  0.0345
  364MOL0     C47959  -2.588   0.814   9.408  0.7828 -0.2632 -0.2074
  364MOL0    Cl47960  -2.672   0.965   9.441  0.2795  0.3407 -0.3476
  364MOL0     C47961  -1.509   0.639   9.517  0.4592 -0.4630  0.3496
  364MOL0     C47962  -1.372   0.650   9.528  0.6474  0.1239  0.5306
  364MOL0     O47963  -1.126   0.496   9.329 -0.7330 -0.0067 -0.0121
  364MOL0     C47964  -0.902   0.772   9.371  0.0296  0.1939  0.3374
  364MOL0     C47965  -0.772   0.809   9.401  0.1768  0.0317 -0.0250
  364MOL0     N47966  -0.203   0.934   9.057 -0.0545 -0.6423 -0.3870
  364MOL0     N47967  -0.107   0.966   8.980 -0.3873  0.1450 -0.3229
  364MOL0     C47968   1.028   1.053   8.637 -0.2795 -1.0603 -0.1681
  364MOL0     C47969   1.138   1.119   8.586  0.2803 -0.0455  0.0524
  364MOL0     C47970   1.344   1.501   8.444  1.1818  0.3020 -1.0689
  364MOL0     C47971   1.467   1.516   8.519 -0.7390 -0.3518 -0.8520
  364MOL0     C47972   1.558   1.611   8.472 -0.1126  0.3410  0.6039
  364MOL0     C47973   1.551   1.683   8.351 -0.0403  0.0792  1.0184
  364MOL0     O47974   1.656   1.769   8.325  0.0305 -0.1563 -0.0094
  364MOL0     C47975   1.671   1.817   8.189 -0.4402 -0.4605  0.6560
  364MOL0     C47976   1.666   1.971   8.190 -0.3152  0.2951 -0.7917
  364MOL0     C47977   1.531   2.020   8.243 -0.3629  1.1898 -0.1881
  364MOL0     C47978   1.422   2.035   8.133  0.6673 -0.1770 -0.2165
  364MOL0     C47979   1.338   2.151   8.166 -0.2787  1.1239  0.1671
  364MOL0     C47980   1.286   2.254   8.185 -0.9119  0.5302  0.5292
  364MOL0     C47981   1.426   1.667   8.287 -0.5776  0.2675  0.8316
  364MOL0     C47982   1.320   1.580   8.330  0.4553  0.0577  0.1551
  364MOL0     H47983   1.164   1.366   8.824 -2.2007 -0.0609  1.4501
  364MOL0     H47984   0.960   1.251   8.902  3.3219  1.8951  0.3060
  364MOL0     H47985   0.739   1.131   8.938 -2.2525 -1.1759 -0.0259
  364MOL0     H47986   0.867   1.030   8.998  0.0584 -0.9649  0.1193
  364MOL0     H47987   0.742   0.825   8.929 -1.3704 -0.9764 -1.3651
  364MOL0     H47988   0.612   0.926   8.841 -4.1966 -1.7256  1.9461
  364MOL0     H47989   0.548   1.017   9.055  0.1725  0.2349  3.7963
  364MOL0     H47990   0.648   0.909   9.140 -2.6163  1.4404  1.4238
  364MOL0     H47991   0.451   0.798   8.943  0.8005  6.4987 -0.0797
  364MOL0     H47992   0.532   0.701   9.066  0.4616 -0.6118 -1.5573
  364MOL0     H47993   0.401   0.825   9.249  0.1559  0.5488  0.2884
  364MOL0     H47994   0.299   0.735   9.140 -2.1898  1.7724 -1.4686
  364MOL0     H47995   0.324   1.026   9.139  1.9380 -1.8388  2.5366
  364MOL0     H47996   0.193   0.935   9.191  2.5366 -1.4658  2.1038
  364MOL0     H47997   0.188   1.054   8.964 -0.6777 -0.8271 -2.0115
  364MOL0     H47998   0.307   0.943   8.903  0.8292 -1.1106  1.0172
  364MOL0     H47999   0.151   0.752   8.935 -0.0651 -1.1139  0.0623
  364MOL0     H48000   0.104   0.877   8.820 -1.1921  2.1953  1.3383
  364MOL0     H48001  -0.026   0.658   9.073 -1.7105  0.1107  1.2000
  364MOL0     H48002  -0.287   0.631   9.146  1.5177 -0.3185  1.5586
  364MOL0     H48003  -0.388   0.780   9.158 -1.2716 -0.9908  1.5748
  364MOL0     H48004  -0.156   0.718   9.360  0.0839  0.1582 -1.3275
  364MOL0     H48005  -0.311   0.639   9.379 -2.6011  1.4259 -0.4570
  364MOL0     H48006  -0.284   0.869   9.502  3.0108 -0.9364 -1.3426
  364MOL0     H48007  -0.291   0.952   9.349 -3.8159  2.1823  1.9932
  364MOL0     H48008  -0.522   0.885   9.300  0.6183  2.3293 -0.0233
  364MOL0     H48009  -0.518   0.942   9.462 -0.6164 -0.7966  2.0810
  364MOL0     H48010  -0.627   0.504   9.430  0.5265  0.7624  0.5786
  364MOL0     H48011  -0.867   0.437   9.416  1.3475 -0.1621 -2.8387
  364MOL0     H48012  -1.319   0.733   9.198  3.3131 -3.7827 -0.2403
  364MOL0     H48013  -1.535   0.673   9.166  1.8426 -3.4378 -0.6744
  364MOL0     H48014  -1.769   0.552   9.226 -0.9511  0.0159  0.2019
  364MOL0     H48015  -1.766   0.732   9.220  3.1594 -1.9829 -2.5644
  364MOL0     H48016  -1.942   0.655   9.435  1.0280 -0.4525 -0.9797
  364MOL0     H48017  -1.987   0.541   9.334 -3.8489  0.7962  4.4740
  364MOL0     H48018  -2.022   0.694   9.144 -2.2518 -0.5336 -0.0552
  364MOL0     H48019  -2.024   0.820   9.260 -1.8460 -0.2280 -2.4982
  364MOL0     H48020  -2.191   0.558   9.252 -2.2542 -0.6992  2.0208
  364MOL0     H48021  -2.186   0.660   9.395 -0.8831  0.4693  0.6256
  364MOL0     H48022  -2.244   0.751   9.114  2.4043 -3.7859  1.0404
  364MOL0     H48023  -2.251   0.863   9.252  2.0514 -1.2324  3.7187
  364MOL0     H48024  -2.422   0.649   9.328  1.4214 -2.2861 -0.2577
  364MOL0     H48025  -2.456   0.657   9.166  0.5866 -2.6179  2.2858
  364MOL0     H48026  -2.455   0.944   9.289  0.1287  0.6166 -1.0033
  364MOL0     H48027  -2.582   0.862   9.207  0.6312 -0.6017 -0.9661
  364MOL0     H48028  -2.527   0.787   9.495  0.8187 -6.3313 -1.6692
  364MOL0     H48029  -2.651   0.728   9.383  1.6893 -0.2621 -2.7148
  364MOL0     H48030  -1.560   0.613   9.610  0.1479 -0.9083  0.0572
  364MOL0     H48031  -1.328   0.646   9.627 -0.5457  0.3797  1.0852
  364MOL0     H48032  -0.981   0.843   9.353  0.9705  0.9391 -1.0078
  364MOL0     H48033  -0.752   0.915   9.397 -1.1933  0.4978  2.8539
  364MOL0     H48034   0.993   0.961   8.590 -0.9453 -0.7426 -0.3091
  364MOL0     H48035   1.185   1.077   8.498  4.4547 -0.0591  2.0471
  364MOL0     H48036   1.477   1.479   8.621  0.2353  0.8434 -0.4882
  364MOL0     H48037   1.645   1.640   8.531 -0.3911  0.7335  0.8258
  364MOL0     H48038   1.597   1.772   8.122  0.2476  1.3701 -1.4872
  364MOL0     H48039   1.765   1.778   8.149  0.5580  2.5331 -0.2098
  364MOL0     H48040   1.753   2.018   8.236 -1.8057  1.2184  1.1923
  364MOL0     H48041   1.683   1.992   8.084  0.0443  0.9125 -0.6141
  364MOL0     H48042   1.541   2.117   8.293 -0.7551  0.6663  0.9291
  364MOL0     H48043   1.497   1.949   8.318 -1.2180 -0.6191 -2.1917
  364MOL0     H48044   1.468   2.053   8.036 -3.8077 -0.0426 -2.5626
  364MOL0     H48045   1.344   1.959   8.127  0.7170 -0.3612  1.1102
  364MOL0     H48046   1.244   2.350   8.210  0.7376  1.0649  1.4312
  364MOL0     H48047   1.400   1.714   8.192 -2.5731 -0.7180  0.8337
  364MOL0     H48048   1.226   1.578   8.277  0.3633  1.5638  0.2355
  365MOL0     O48049  10.897   7.354   9.027 -0.0122  0.2872  0.2748
  365MOL0     C48050  10.984   7.427   9.081 -0.3222  0.2275  0.0525
  365MOL0     O48051  10.957   7.551   9.126 -0.2323 -0.1104  0.8644
  365MOL0     C48052  10.833   7.612   9.133 -0.2437  0.4403  0.6037
  365MOL0     C48053  10.774   7.669   9.019  0.4598  0.2695 -0.6169
  365MOL0     C48054  10.649   7.725   9.030  0.4571 -0.1965  0.2517
  365MOL0     C48055  10.575   7.696   9.145  0.1818 -0.6955  0.3965
  365MOL0     O48056  10.447   7.740   9.145  0.1832 -0.6994 -0.5881
  365MOL0     C48057  10.390   7.784   9.269  0.1920  0.0940 -0.3282
  365MOL0     C48058  10.272   7.873   9.229  0.4842 -0.9180 -0.4551
  365MOL0     C48059  10.127   7.797   9.254 -0.0352 -0.4150 -0.2884
  365MOL0     C48060  10.006   7.897   9.262  0.7140  0.6884  0.5941
  365MOL0     C48061   9.867   7.840   9.213 -0.2644 -0.0300  0.8783
  365MOL0     C48062   9.748   7.946   9.222 -0.1644  0.0801  0.2084
  365MOL0     C48063   9.688   7.944   9.368  0.3464 -0.8350  0.9606
  365MOL0     C48064   9.557   8.026   9.375  0.1983 -0.0581  0.7522
  365MOL0     N48065   9.469   7.985   9.489  0.3118  0.5441  0.0085
  365MOL0     C48066   9.357   7.905   9.483  0.2097  0.1267 -0.1262
  365MOL0     C48067   9.322   7.871   9.608  0.4799 -0.6281  0.2250
  365MOL0     C48068   9.208   7.781   9.645 -0.4080  0.1179  0.2330
  365MOL0     C48069   9.077   7.854   9.689 -0.0922  0.0291 -0.8055
  365MOL0     C48070   8.989   7.898   9.574 -0.1475 -0.0721 -0.5230
  365MOL0     C48071   8.836   7.879   9.579 -1.3693  0.2806 -0.4438
  365MOL0     O48072   8.795   7.737   9.580 -0.4089 -0.5885 -0.6485
  365MOL0     C48073   8.660   7.703   9.575 -0.4943 -0.6242  0.2616
  365MOL0     C48074   8.638   7.568   9.592 -0.1873  0.3769 -0.4105
  365MOL0     C48075   8.505   7.524   9.579 -0.8459  0.3696  0.0253
  365MOL0     C48076   8.404   7.608   9.538  0.7263  0.0868  0.8061
  365MOL0     C48077   8.262   7.563   9.514  0.7661  0.3484 -0.5126
  365MOL0     O48078   8.222   7.443   9.552  0.4056  0.0489  0.3510
  365MOL0     C48079   8.080   7.427   9.564 -0.6391 -0.6849  0.5933
  365MOL0     C48080   8.023   7.385   9.691  0.7103 -0.1392  0.0851
  365MOL0     C48081   7.891   7.349   9.690 -0.1837  0.1765 -0.5051
  365MOL0     C48082   7.810   7.338   9.576 -0.5031 -0.1946 -0.5684
  365MOL0     O48083   7.683   7.285   9.594  0.2207 -0.7291  0.0131
  365MOL0     C48084   7.601   7.278   9.473 -0.7781  0.0408 -0.4014
  365MOL0     C48085   7.457   7.253   9.518 -0.1575  0.9048  0.2761
  365MOL0     C48086   7.439   7.116   9.583 -0.9280  0.5460  0.1423
  365MOL0     C48087   7.298   7.089   9.629  0.2108  0.1132 -1.0097
  365MOL0     C48088   7.233   6.977   9.531 -0.3564 -0.2847  0.6761
  365MOL0     C48089   7.087   6.936   9.570 -0.8670 -0.5667 -0.2752
  365MOL0     C48090   7.023   6.816   9.500 -0.7974 -0.1041  0.1715
  365MOL0     C48091   7.062   6.680   9.555 -0.0865  0.2652 -0.2573
  365MOL0    Cl48092   7.053   6.678   9.732 -0.0758 -0.2327 -0.6602
  365MOL0     C48093   7.869   7.361   9.452 -0.3687  0.4893  0.0724
  365MOL0     C48094   8.003   7.407   9.447  0.5195 -0.8483 -1.0487
  365MOL0     O48095   8.194   7.647   9.450 -0.1572  0.2060  0.2090
  365MOL0     C48096   8.437   7.741   9.517 -0.2331  0.0966 -0.8037
  365MOL0     C48097   8.567   7.790   9.529  0.4281 -0.2427  0.1244
  365MOL0     N48098   9.413   7.939   9.693 -0.1125 -0.0871  0.7662
  365MOL0     N48099   9.497   7.997   9.618  0.0078 -0.3197  0.6426
  365MOL0     C48100  10.633   7.653   9.261  0.4678 -0.7846 -0.5376
  365MOL0     C48101  10.763   7.605   9.249  0.5565  0.2935  0.5005
  365MOL0     C48102  11.119   7.380   9.105  0.0799  0.2941  0.4008
  365MOL0     C48103  11.149   7.245   9.117 -0.8049  0.0618 -0.6260
  365MOL0     C48104  11.279   7.202   9.129  0.3271 -0.3740  0.1064
  365MOL0     C48105  11.385   7.294   9.149  0.2776  0.2577 -0.2590
  365MOL0     O48106  11.506   7.244   9.183 -0.7044  0.5264  0.1262
  365MOL0     C48107  11.623   7.309   9.145 -0.2757  0.3959  0.1154
  365MOL0     C48108  11.741   7.227   9.110 -0.3554  0.2697 -0.2749
  365MOL0     C48109  11.814   7.167   9.244  0.0247 -1.0044 -0.3880
  365MOL0     C48110  11.903   7.044   9.199  0.2867 -0.2141  0.2030
  365MOL0     C48111  12.034   7.082   9.154 -0.4321 -0.5211  0.0849
  365MOL0     C48112  12.150   7.098   9.137 -0.1832 -0.2628  0.8676
  365MOL0     C48113  11.354   7.428   9.122  0.6227 -0.2261 -1.1989
  365MOL0     C48114  11.227   7.471   9.113 -0.1606  0.4967  0.8257
  365MOL0     H48115  10.839   7.669   8.932 -0.6407 -3.2501 -1.5747
  365MOL0     H48116  10.588   7.766   8.951  0.4555 -0.5276  0.0781
  365MOL0     H48117  10.461   7.845   9.326 -0.4709  1.0410 -0.4963
  365MOL0     H48118  10.367   7.693   9.326  2.4282 -1.3852 -1.6641
  365MOL0     H48119  10.280   7.891   9.121 -1.2446 -1.7063 -0.7578
  365MOL0     H48120  10.280   7.968   9.282  2.0702 -1.6492  0.6972
  365MOL0     H48121  10.120   7.724   9.335 -2.8880 -2.1693 -1.9215
  365MOL0     H48122  10.112   7.732   9.167  0.4043  0.1154 -0.7629
  365MOL0     H48123  10.002   7.915   9.370  2.2122 -1.7626  1.1434
  365MOL0     H48124  10.028   7.995   9.220 -1.9105  0.4445 -1.5845
  365MOL0     H48125   9.848   7.744   9.261  2.2560 -1.6755 -1.1455
  365MOL0     H48126   9.871   7.821   9.105 -1.5068 -1.5886  1.0658
  365MOL0     H48127   9.662   7.926   9.158 -0.7147  0.6960  0.7515
  365MOL0     H48128   9.795   8.041   9.194  0.4301 -0.0660  0.6993
  365MOL0     H48129   9.674   7.840   9.397 -0.8166 -2.0523 -3.2597
  365MOL0     H48130   9.770   7.976   9.434  1.2379 -3.3100  1.1516
  365MOL0     H48131   9.495   8.010   9.287 -0.6731 -2.1225  1.6929
  365MOL0     H48132   9.582   8.133   9.372  2.8710 -0.5760 -2.4309
  365MOL0     H48133   9.318   7.860   9.392  1.1076 -3.3217  1.0349
  365MOL0     H48134   9.238   7.711   9.723 -3.6492 -3.2575 -1.2516
  365MOL0     H48135   9.199   7.723   9.553 -0.2948  2.8601 -1.6612
  365MOL0     H48136   9.102   7.932   9.762  1.9637 -1.1556 -0.1713
  365MOL0     H48137   9.016   7.782   9.744  0.2714  0.3065 -0.0295
  365MOL0     H48138   8.997   8.006   9.561  0.4495  0.0308  0.5712
  365MOL0     H48139   9.023   7.856   9.479  4.8698  0.5595  0.6926
  365MOL0     H48140   8.797   7.918   9.484 -2.9285 -3.6763 -1.6400
  365MOL0     H48141   8.804   7.927   9.672 -3.7092 -2.8172  0.5247
  365MOL0     H48142   8.719   7.497   9.605 -0.2685  0.1630 -1.0408
  365MOL0     H48143   8.486   7.419   9.599  1.8233  0.0413  1.1977
  365MOL0     H48144   8.089   7.374   9.777 -0.5952  2.2984  1.5293
  365MOL0     H48145   7.849   7.292   9.771  0.7391  0.1178 -0.0603
  365MOL0     H48146   7.635   7.198   9.408  1.6692  1.4786 -1.0043
  365MOL0     H48147   7.611   7.373   9.419  1.4080  0.5282  0.7293
  365MOL0     H48148   7.392   7.251   9.430  1.4845 -0.3468 -0.9682
  365MOL0     H48149   7.428   7.328   9.593  0.6462  0.9755  0.5197
  365MOL0     H48150   7.497   7.128   9.676 -2.0207  1.4920  0.7430
  365MOL0     H48151   7.476   7.035   9.520 -0.5751 -0.8377  2.0268
  365MOL0     H48152   7.284   7.048   9.729 -2.3152 -1.1016 -1.7728
  365MOL0     H48153   7.237   7.180   9.624 -1.3946 -0.8940 -0.5793
  365MOL0     H48154   7.296   6.887   9.536 -0.8186 -0.6153  0.6394
  365MOL0     H48155   7.220   7.009   9.427 -0.8392 -1.3307  0.3937
  365MOL0     H48156   7.030   7.028   9.557 -0.3264  0.1254  1.8010
  365MOL0     H48157   7.072   6.931   9.678 -0.8783  1.3672 -0.1604
  365MOL0     H48158   6.915   6.835   9.505 -1.0942 -1.5818  0.0714
  365MOL0     H48159   7.055   6.819   9.396 -0.3020  0.6097  0.3381
  365MOL0     H48160   7.166   6.661   9.528  0.6176  2.0929  1.0357
  365MOL0     H48161   6.992   6.608   9.512  0.3003 -0.8940  0.9584
  365MOL0     H48162   7.835   7.345   9.351 -1.6371  1.5244  0.3186
  365MOL0     H48163   8.044   7.422   9.348  0.0111  0.7002 -1.0555
  365MOL0     H48164   8.357   7.801   9.473  0.8422  1.5932 -0.7865
  365MOL0     H48165   8.575   7.893   9.496 -2.1510  0.1452  0.4693
  365MOL0     H48166  10.590   7.643   9.360  0.1810 -1.5814 -0.7331
  365MOL0     H48167  10.812   7.563   9.336  1.5969 -0.9997 -0.6651
  365MOL0     H48168  11.074   7.170   9.095  2.4439 -4.0062  0.9321
  365MOL0     H48169  11.289   7.095   9.138  1.2595 -0.3573 -0.5667
  365MOL0     H48170  11.658   7.377   9.224  0.6279  1.2226 -0.9683
  365MOL0     H48171  11.604   7.361   9.051 -1.7825 -0.5655 -0.1453
  365MOL0     H48172  11.695   7.151   9.046 -1.4620  1.1608 -0.5806
  365MOL0     H48173  11.812   7.284   9.049 -1.4271  0.0960 -1.7427
  365MOL0     H48174  11.739   7.130   9.314  0.9541 -0.2795  1.0352
  365MOL0     H48175  11.878   7.241   9.292  2.1644 -2.4406 -0.8737
  365MOL0     H48176  11.915   6.990   9.293 -2.6915  1.1600  1.5177
  365MOL0     H48177  11.850   6.982   9.127  2.2449 -1.2297 -0.4209
  365MOL0     H48178  12.256   7.114   9.132 -0.0541 -1.4082 -1.2098
  365MOL0     H48179  11.427   7.508   9.131 -1.6747  1.7237  2.0001
  365MOL0     H48180  11.209   7.578   9.105 -1.2096  0.2003 -2.1335
  366MOL0     O48181   3.639   6.919   6.764 -0.3474 -0.1661 -0.1008
  366MOL0     C48182   3.662   6.993   6.856  0.0519 -0.9408  0.5343
  366MOL0     O48183   3.571   7.069   6.925 -0.3246 -0.4274 -0.3643
  366MOL0     C48184   3.446   7.076   6.874 -0.4444 -0.2497  0.0231
  366MOL0     C48185   3.346   7.063   6.967 -0.0619 -0.3625  0.3848
  366MOL0     C48186   3.216   7.083   6.939  0.0946 -0.5367  0.7256
  366MOL0     C48187   3.183   7.125   6.804 -0.3206  0.3041  0.2177
  366MOL0     O48188   3.055   7.162   6.792  0.5328  0.0976 -0.3860
  366MOL0     C48189   3.012   7.230   6.673 -0.0423 -0.4314  0.4197
  366MOL0     C48190   2.867   7.283   6.660  0.9439 -0.7448 -0.6619
  366MOL0     C48191   2.853   7.419   6.727 -0.2639  0.2882  0.3807
  366MOL0     C48192   2.720   7.489   6.698 -1.0802 -0.1233  0.4423
  366MOL0     C48193   2.698   7.615   6.777 -0.3592  0.2796 -0.0103
  366MOL0     C48194   2.552   7.669   6.755  0.4652  0.2441 -0.0772
  366MOL0     C48195   2.548   7.786   6.663  0.6996  1.1681  0.2201
  366MOL0     C48196   2.427   7.782   6.561 -1.2983 -0.0901  0.1322
  366MOL0     N48197   2.397   7.926   6.533  0.8390 -0.1467  0.3645
  366MOL0     C48198   2.479   8.018   6.468  0.0439  0.0695 -0.9088
  366MOL0     C48199   2.420   8.141   6.484 -0.6497 -0.0855  0.4409
  366MOL0     C48200   2.481   8.273   6.445  0.8185 -0.1559 -0.2586
  366MOL0     C48201   2.382   8.368   6.361 -0.0708  0.4360 -0.2556
  366MOL0     C48202   2.454   8.502   6.374 -0.4217  0.8576 -0.1261
  366MOL0     C48203   2.378   8.621   6.310 -0.1684 -0.9366  0.3070
  366MOL0     O48204   2.255   8.637   6.371 -0.3076  0.4535 -0.4272
  366MOL0     C48205   2.166   8.733   6.319 -0.3251 -0.0507 -0.6331
  366MOL0     C48206   2.055   8.764   6.404  1.1378  0.4693 -0.4800
  366MOL0     C48207   1.962   8.868   6.361 -0.5381 -0.5793 -0.3720
  366MOL0     C48208   1.993   8.949   6.247 -0.2831  0.6318  0.4812
  366MOL0     C48209   1.907   9.053   6.197  0.3881  0.6574  0.2687
  366MOL0     O48210   1.804   9.089   6.273 -0.2525  0.2098 -0.3621
  366MOL0     C48211   1.718   9.182   6.226  0.1038 -0.4323 -1.1973
  366MOL0     C48212   1.753   9.302   6.156 -0.3442  0.1033  0.4398
  366MOL0     C48213   1.656   9.389   6.105  0.2089  0.2290  0.2585
  366MOL0     C48214   1.522   9.357   6.117  0.0943  0.4547  0.0824
  366MOL0     O48215   1.440   9.443   6.058 -0.1893 -0.2053 -0.0020
  366MOL0     C48216   1.310   9.455   6.115 -0.1018  0.1961 -0.2025
  366MOL0     C48217   1.249   9.585   6.049 -0.0156  0.3680  0.1126
  366MOL0     C48218   1.118   9.633   6.099  0.8202 -0.7346 -0.1653
  366MOL0     C48219   1.105   9.683   6.246  0.0145 -0.0667  0.3183
  366MOL0     C48220   0.962   9.681   6.288 -0.2248  0.9924 -0.3181
  366MOL0     C48221   0.869   9.755   6.190  0.6029  0.5431  0.0062
  366MOL0     C48222   0.733   9.784   6.253  0.1685  1.0865  0.2399
  366MOL0     C48223   0.674   9.668   6.322  0.5186  0.4871  0.1910
  366MOL0    Cl48224   0.642   9.525   6.200 -0.1247  0.1835 -0.2166
  366MOL0     C48225   1.479   9.236   6.180  0.6801  0.6146  0.6969
  366MOL0     C48226   1.579   9.155   6.238 -1.0079  0.2055  1.0570
  366MOL0     O48227   1.914   9.091   6.075 -0.3272  0.2497 -0.6664
  366MOL0     C48228   2.112   8.920   6.166  0.9855 -0.3648  0.1840
  366MOL0     C48229   2.194   8.818   6.205 -0.2090 -0.0121 -0.2640
  366MOL0     N48230   2.295   8.111   6.535 -0.5651 -0.3131  0.2607
  366MOL0     N48231   2.284   7.988   6.568  0.3481  0.5957  0.6072
  366MOL0     C48232   3.282   7.140   6.710 -0.5326 -0.3935  0.5949
  366MOL0     C48233   3.417   7.113   6.742 -0.4374  0.0238 -0.1221
  366MOL0     C48234   3.801   6.996   6.907  0.4445  0.0901  0.4228
  366MOL0     C48235   3.892   6.903   6.857  0.4204  0.4383  0.9159
  366MOL0     C48236   4.015   6.917   6.906  0.0908  0.3782  0.7052
  366MOL0     C48237   4.067   7.011   7.003  0.8203  0.6073  0.6054
  366MOL0     O48238   4.190   6.995   7.052  0.0396  0.1755  1.1948
  366MOL0     C48239   4.231   7.095   7.140 -0.6627 -0.7023 -0.4119
  366MOL0     C48240   4.367   7.085   7.197 -0.0923 -0.1757  0.0230
  366MOL0     C48241   4.382   6.956   7.277 -0.4658  0.3898 -0.8309
  366MOL0     C48242   4.480   6.862   7.206 -0.7318 -0.3007  0.9632
  366MOL0     C48243   4.615   6.912   7.208 -0.4488 -0.1518  0.0712
  366MOL0     C48244   4.728   6.961   7.208 -0.1520  0.2414 -1.1336
  366MOL0     C48245   3.964   7.103   7.049 -0.4724  0.6712  0.8027
  366MOL0     C48246   3.836   7.094   6.996 -0.4533 -0.5927 -0.2595
  366MOL0     H48247   3.374   7.029   7.066  2.7891 -2.4027 -1.0002
  366MOL0     H48248   3.144   7.067   7.018 -0.8370  2.5450  0.6507
  366MOL0     H48249   3.035   7.168   6.586 -0.8029  0.6232 -0.5588
  366MOL0     H48250   3.072   7.321   6.660  0.7329 -0.8918  0.6918
  366MOL0     H48251   2.800   7.211   6.709 -0.5263  0.9188 -0.0915
  366MOL0     H48252   2.839   7.288   6.555 -1.4762  0.1513 -0.0405
  366MOL0     H48253   2.933   7.482   6.687  0.7767  0.1797  2.1731
  366MOL0     H48254   2.870   7.413   6.835  1.5387  0.6419  0.1373
  366MOL0     H48255   2.716   7.502   6.589  0.0549 -1.3411  0.2255
  366MOL0     H48256   2.650   7.415   6.736 -0.0588 -2.0374 -1.1797
  366MOL0     H48257   2.769   7.693   6.751 -0.5747  0.0413 -1.3672
  366MOL0     H48258   2.709   7.584   6.882 -0.2880  0.3353 -0.0016
  366MOL0     H48259   2.519   7.715   6.849  1.4493 -1.2344  1.0516
  366MOL0     H48260   2.485   7.588   6.724 -0.5941  1.1581 -0.2325
  366MOL0     H48261   2.541   7.876   6.725 -3.6472 -0.4739  2.5008
  366MOL0     H48262   2.643   7.803   6.610  1.8011  1.1109  2.0947
  366MOL0     H48263   2.342   7.733   6.611 -0.8780 -0.1262  0.8256
  366MOL0     H48264   2.453   7.722   6.474  1.0131  0.0833  0.6497
  366MOL0     H48265   2.580   8.011   6.429  0.8894  0.8535  0.9692
  366MOL0     H48266   2.567   8.252   6.381  0.2138  0.1761 -1.2127
  366MOL0     H48267   2.506   8.325   6.538 -3.2211 -0.5219  1.2213
  366MOL0     H48268   2.283   8.366   6.408 -1.8132 -1.6762 -3.5936
  366MOL0     H48269   2.384   8.345   6.254  2.5868 -0.3030 -0.1136
  366MOL0     H48270   2.472   8.534   6.477 -0.4841  0.1434  0.1112
  366MOL0     H48271   2.553   8.494   6.328 -0.6140 -0.1416 -0.3923
  366MOL0     H48272   2.378   8.609   6.201 -0.2900 -2.1407  0.4284
  366MOL0     H48273   2.431   8.713   6.336 -3.2283  0.3952  2.6400
  366MOL0     H48274   2.035   8.713   6.498 -1.4317  0.4421 -0.9806
  366MOL0     H48275   1.868   8.878   6.415  0.9936  3.3124  2.0127
  366MOL0     H48276   1.857   9.327   6.142 -0.4760  1.2600  1.3332
  366MOL0     H48277   1.689   9.472   6.043  0.0108 -0.4487 -0.7951
  366MOL0     H48278   1.323   9.451   6.224 -1.6828  0.8598  0.0368
  366MOL0     H48279   1.248   9.369   6.087 -2.4562  1.3130  1.2026
  366MOL0     H48280   1.232   9.574   5.942 -0.5847  1.7627  0.0488
  366MOL0     H48281   1.323   9.665   6.053 -1.0184  1.2670  2.9430
  366MOL0     H48282   1.041   9.558   6.082 -0.8557  1.0196 -0.5878
  366MOL0     H48283   1.089   9.714   6.031  0.4027  0.8602  1.8202
  366MOL0     H48284   1.170   9.634   6.319 -0.1259  1.5653  1.5783
  366MOL0     H48285   1.147   9.784   6.242 -0.2280  0.0589  0.8460
  366MOL0     H48286   0.970   9.730   6.386  1.6596  1.1069 -0.4964
  366MOL0     H48287   0.948   9.573   6.302  1.7576  0.5775 -1.1551
  366MOL0     H48288   0.844   9.696   6.101 -3.0887  1.6636  0.1507
  366MOL0     H48289   0.916   9.841   6.142  0.2118 -0.7837 -2.9401
  366MOL0     H48290   0.748   9.870   6.318 -1.9431  0.4569  1.6283
  366MOL0     H48291   0.656   9.807   6.179  1.5410 -2.6123 -2.6588
  366MOL0     H48292   0.576   9.689   6.365  1.7748  0.9804  3.0775
  366MOL0     H48293   0.734   9.646   6.411 -0.3557 -1.2144  0.3976
  366MOL0     H48294   1.375   9.206   6.188  0.8992 -0.5068 -0.3500
  366MOL0     H48295   1.543   9.061   6.279  3.3884 -2.2225 -0.0207
  366MOL0     H48296   2.131   8.981   6.078  0.0762 -2.2705 -1.4166
  366MOL0     H48297   2.294   8.811   6.165 -0.0643  2.2533 -0.4214
  366MOL0     H48298   3.270   7.170   6.607  0.2445 -0.2075  0.5453
  366MOL0     H48299   3.502   7.116   6.674  1.1893 -1.1848  1.7543
  366MOL0     H48300   3.862   6.836   6.777  0.1100  1.0817  0.4750
  366MOL0     H48301   4.088   6.840   6.887  2.0694  1.5679  2.9771
  366MOL0     H48302   4.151   7.095   7.216 -3.7639  2.4666 -3.2916
  366MOL0     H48303   4.229   7.189   7.084 -1.9836 -1.8718 -2.4645
  366MOL0     H48304   4.425   7.084   7.105 -0.0283  0.8975  0.0397
  366MOL0     H48305   4.405   7.167   7.257  1.9076 -0.8728 -0.2137
  366MOL0     H48306   4.287   6.911   7.306  0.0552  0.5754  1.3726
  366MOL0     H48307   4.424   6.975   7.377 -0.5652 -0.1794 -0.6793
  366MOL0     H48308   4.477   6.763   7.253 -4.9802 -0.5253  0.6160
  366MOL0     H48309   4.434   6.857   7.107 -0.5875  1.9690  0.7257
  366MOL0     H48310   4.813   7.027   7.206 -0.3598  0.8139  2.4351
  366MOL0     H48311   3.990   7.177   7.124 -0.8757  2.1053 -0.4231
  366MOL0     H48312   3.762   7.168   7.026  0.5739  0.3361  0.0820
  367MOL0     O48313   1.950   2.114   0.346 -0.4630 -1.1200 -0.5900
  367MOL0     C48314   1.933   2.073   0.230  0.3392  0.4361 -0.2932
  367MOL0     O48315   1.820   2.097   0.151 -0.0028  0.4192 -0.4112
  367MOL0     C48316   1.709   2.140   0.228 -0.0036 -0.6362  0.6641
  367MOL0     C48317   1.592   2.057   0.247 -0.7430 -0.7779  0.7385
  367MOL0     C48318   1.477   2.102   0.315 -0.0535  0.3620 -0.1881
  367MOL0     C48319   1.466   2.244   0.342 -0.9630  0.0781  0.4727
  367MOL0     O48320   1.361   2.301   0.405  0.2026 -0.7790  0.1202
  367MOL0     C48321   1.237   2.307   0.340  0.7352 -0.3361 -0.4950
  367MOL0     C48322   1.136   2.400   0.409 -0.4896  0.3590  0.3775
  367MOL0     C48323   1.013   2.421   0.319  0.4234  0.2932  0.5981
  367MOL0     C48324   0.908   2.490   0.398 -0.5017  0.3145  0.4751
  367MOL0     C48325   0.781   2.524   0.322  0.7144  0.1826  0.7149
  367MOL0     C48326   0.662   2.573   0.407  1.1487  0.0875 -1.3700
  367MOL0     C48327   0.544   2.626   0.314 -0.0812  0.2501  0.0331
  367MOL0     C48328   0.415   2.649   0.395  0.2696 -0.2644 -0.0085
  367MOL0     N48329   0.299   2.682   0.323 -0.5066 -0.2341 -0.2177
  367MOL0     C48330   0.268   2.805   0.272  0.4042 -0.0583  0.4485
  367MOL0     C48331   0.131   2.783   0.241  0.1048 -0.1982  0.7750
  367MOL0     C48332   0.044   2.883   0.179  0.0334 -0.4494  0.1017
  367MOL0     C48333  -0.101   2.842   0.182  0.3467 -0.8008  0.0549
  367MOL0     C48334  -0.173   2.855   0.309  0.5088  0.3169  0.1469
  367MOL0     C48335  -0.321   2.890   0.279  0.6438 -0.2847  0.1668
  367MOL0     O48336  -0.395   2.792   0.206  0.4884 -0.3266  0.1346
  367MOL0     C48337  -0.503   2.742   0.280 -0.1272 -0.6841  0.8621
  367MOL0     C48338  -0.631   2.789   0.249  0.7422 -0.4074 -0.1023
  367MOL0     C48339  -0.743   2.729   0.313  0.0235 -0.3814 -0.3512
  367MOL0     C48340  -0.715   2.638   0.420  0.0497 -0.0030  0.4015
  367MOL0     C48341  -0.836   2.576   0.482  0.1828  0.2829 -0.2235
  367MOL0     O48342  -0.808   2.466   0.552  0.8866 -0.8248  0.1398
  367MOL0     C48343  -0.901   2.435   0.655 -0.1634 -0.0989  0.1438
  367MOL0     C48344  -0.993   2.522   0.716 -0.4784  0.0219 -0.7689
  367MOL0     C48345  -1.061   2.470   0.831  1.0933 -0.5979  0.0702
  367MOL0     C48346  -1.044   2.337   0.882  0.2835  0.8134 -0.3752
  367MOL0     O48347  -1.106   2.280   0.988  0.5212  0.0968  0.1952
  367MOL0     C48348  -1.250   2.326   0.997 -0.2343 -0.2652 -0.1645
  367MOL0     C48349  -1.320   2.253   1.104  0.8057  0.0017 -0.3055
  367MOL0     C48350  -1.316   2.099   1.079 -0.5222  0.1580  0.7174
  367MOL0     C48351  -1.374   2.015   1.186 -0.6380 -0.5479 -0.0368
  367MOL0     C48352  -1.420   1.876   1.132 -0.1017 -0.8374 -0.1094
  367MOL0     C48353  -1.461   1.782   1.254 -0.8857 -0.1063 -0.3902
  367MOL0     C48354  -1.514   1.649   1.208 -0.6669 -0.0043  0.4434
  367MOL0     C48355  -1.403   1.554   1.196 -0.3540 -0.5180  0.0255
  367MOL0    Cl48356  -1.472   1.390   1.169  0.4691 -0.5047  0.0924
  367MOL0     C48357  -0.964   2.255   0.809 -1.0292  1.6942  0.7490
  367MOL0     C48358  -0.892   2.303   0.694  0.4708 -0.5160  0.1921
  367MOL0     O48359  -0.950   2.622   0.461 -0.9839 -1.1166 -0.3886
  367MOL0     C48360  -0.585   2.599   0.448  0.3192  0.2959 -0.0737
  367MOL0     C48361  -0.480   2.656   0.378  0.0797  0.4853  0.3015
  367MOL0     N48362   0.090   2.646   0.262 -0.3751  0.3567  0.7756
  367MOL0     N48363   0.194   2.593   0.317 -0.1192 -0.2690 -0.0768
  367MOL0     C48364   1.582   2.321   0.325  0.3337 -0.0158 -0.3754
  367MOL0     C48365   1.695   2.268   0.265 -0.5583  0.5793  1.0754
  367MOL0     C48366   2.041   1.983   0.170 -0.5752  0.3788 -0.3853
  367MOL0     C48367   2.166   1.975   0.234  0.2866  0.8272 -0.1926
  367MOL0     C48368   2.270   1.883   0.190 -0.3970 -0.3538 -0.6507
  367MOL0     C48369   2.248   1.800   0.076  0.5040 -0.2640 -0.6953
  367MOL0     O48370   2.345   1.717   0.036 -0.8323  0.0292 -0.0875
  367MOL0     C48371   2.336   1.624  -0.076  0.5039 -0.8125 -0.2694
  367MOL0     C48372   2.488   1.618  -0.117 -0.0119  0.8048 -0.7559
  367MOL0     C48373   2.591   1.562  -0.017  0.1463  0.0431  0.4041
  367MOL0     C48374   2.738   1.546  -0.076  0.7057 -0.0244  0.1336
  367MOL0     C48375   2.849   1.517   0.025  0.2862  0.2668 -0.4705
  367MOL0     C48376   2.939   1.495   0.105  0.1337 -0.4357  0.1101
  367MOL0     C48377   2.121   1.811   0.013  0.3292 -0.4002  0.0043
  367MOL0     C48378   2.021   1.896   0.059 -0.2209 -0.2326 -0.0838
  367MOL0     H48379   1.605   1.953   0.219 -3.5575 -0.8165 -0.7899
  367MOL0     H48380   1.411   2.037   0.371  1.1826 -0.0547  0.8528
  367MOL0     H48381   1.205   2.203   0.334  0.0353 -0.2631  1.3409
  367MOL0     H48382   1.248   2.347   0.239 -3.0189  1.4658 -0.3587
  367MOL0     H48383   1.178   2.500   0.427  1.0344 -0.5624  2.3890
  367MOL0     H48384   1.100   2.357   0.503 -0.1180 -0.5683  0.0982
  367MOL0     H48385   0.982   2.323   0.281 -0.6117  1.2745 -1.2539
  367MOL0     H48386   1.049   2.477   0.232 -0.2966  0.9109  0.6844
  367MOL0     H48387   0.883   2.412   0.470 -2.2887  0.3016 -0.1021
  367MOL0     H48388   0.953   2.579   0.443  0.9386  0.8796 -1.8950
  367MOL0     H48389   0.753   2.437   0.262 -0.0767  2.2423 -2.0698
  367MOL0     H48390   0.803   2.609   0.257  1.5474  0.0286  0.7777
  367MOL0     H48391   0.674   2.645   0.488 -3.4162  0.2083 -0.5202
  367MOL0     H48392   0.620   2.495   0.471  3.4902 -0.5692 -0.5288
  367MOL0     H48393   0.575   2.724   0.278  1.9862  0.5024  2.2544
  367MOL0     H48394   0.529   2.551   0.236  1.6494 -0.3379  0.2253
  367MOL0     H48395   0.434   2.735   0.461 -4.1895  2.7668 -2.1902
  367MOL0     H48396   0.383   2.568   0.460 -2.5803  4.1965  4.9752
  367MOL0     H48397   0.330   2.893   0.259 -0.4846  0.3441 -1.4360
  367MOL0     H48398   0.078   2.899   0.076  3.1010 -1.7429  0.7893
  367MOL0     H48399   0.061   2.977   0.231  3.1274  0.0288 -1.5584
  367MOL0     H48400  -0.109   2.742   0.137  2.2303 -0.5479 -0.9535
  367MOL0     H48401  -0.145   2.913   0.112  0.2573 -1.1908 -0.2870
  367MOL0     H48402  -0.166   2.763   0.369  1.6618 -0.9118 -1.7571
  367MOL0     H48403  -0.123   2.929   0.371  0.6919  0.8153 -0.5855
  367MOL0     H48404  -0.338   2.981   0.220 -3.5086  0.1979  1.7307
  367MOL0     H48405  -0.381   2.908   0.369 -1.2870  1.3732 -1.3611
  367MOL0     H48406  -0.641   2.861   0.168  1.6970 -0.5673 -0.3764
  367MOL0     H48407  -0.838   2.754   0.266  0.1763 -1.1758 -1.1081
  367MOL0     H48408  -1.006   2.625   0.686 -0.1138  1.3574  3.1429
  367MOL0     H48409  -1.130   2.532   0.886  0.9454 -0.5472 -0.1709
  367MOL0     H48410  -1.301   2.304   0.903  1.0189 -0.4383 -0.8129
  367MOL0     H48411  -1.253   2.432   1.025  0.6342 -0.6113  1.3266
  367MOL0     H48412  -1.420   2.297   1.107  0.1336 -1.5297  1.6784
  367MOL0     H48413  -1.285   2.281   1.204 -1.2416  0.4579  0.3249
  367MOL0     H48414  -1.214   2.068   1.054  0.4893  2.5864  1.5227
  367MOL0     H48415  -1.354   2.067   0.981  0.9686 -1.7375  0.7074
  367MOL0     H48416  -1.296   1.994   1.260 -0.9882  0.3722  0.6241
  367MOL0     H48417  -1.452   2.068   1.241 -0.0737 -0.6252  0.8651
  367MOL0     H48418  -1.332   1.833   1.084 -0.8529 -2.6066  0.0265
  367MOL0     H48419  -1.499   1.890   1.058  1.5147 -0.7187 -1.8905
  367MOL0     H48420  -1.547   1.827   1.305 -0.2081  0.4298  0.2993
  367MOL0     H48421  -1.386   1.789   1.333 -0.5774 -0.2946 -0.6653
  367MOL0     H48422  -1.577   1.604   1.285 -1.3303  3.6877  2.2431
  367MOL0     H48423  -1.572   1.664   1.116 -0.3746 -0.5255  0.1645
  367MOL0     H48424  -1.333   1.554   1.281  1.0799  0.5599 -1.1130
  367MOL0     H48425  -1.337   1.571   1.110  0.7148 -1.3843  0.6390
  367MOL0     H48426  -0.945   2.152   0.835 -1.0202  1.1232 -1.3141
  367MOL0     H48427  -0.821   2.243   0.638  1.0859  0.3304  0.0489
  367MOL0     H48428  -0.547   2.521   0.513 -3.0472 -0.0604  1.7192
  367MOL0     H48429  -0.380   2.625   0.405  0.6307  2.2342  0.4117
  367MOL0     H48430   1.604   2.418   0.370 -1.3344 -0.4567  1.5397
  367MOL0     H48431   1.783   2.331   0.251  1.5586 -1.7712  2.7689
  367MOL0     H48432   2.183   2.029   0.326  0.2188 -0.2659  0.4759
  367MOL0     H48433   2.360   1.890   0.249 -0.4809 -0.0388 -0.5588
  367MOL0     H48434   2.279   1.668  -0.158 -1.7449 -1.0767  1.0763
  367MOL0     H48435   2.296   1.528  -0.042 -2.1765  0.6220  0.8716
  367MOL0     H48436   2.486   1.560  -0.210 -1.1573 -2.4380  1.1145
  367MOL0     H48437   2.518   1.721  -0.139  0.0243  0.6858 -1.2690
  367MOL0     H48438   2.565   1.465   0.027  1.4394 -1.3454 -1.7521
  367MOL0     H48439   2.594   1.633   0.067  2.1453  1.3160 -0.6708
  367MOL0     H48440   2.739   1.458  -0.142 -0.3274 -0.5249  0.7563
  367MOL0     H48441   2.763   1.633  -0.136  0.3028  0.1422  0.2019
  367MOL0     H48442   3.011   1.489   0.184 -1.9906  0.9683  2.2854
  367MOL0     H48443   2.086   1.759  -0.076 -1.7575 -2.5018  1.9243
  367MOL0     H48444   1.934   1.889  -0.006  1.1086 -0.5563 -1.9158
  368MOL0     O48445   0.026   7.701   8.346  0.1694 -0.2505  0.4698
  368MOL0     C48446   0.041   7.812   8.290 -0.3110  0.5508  0.4048
  368MOL0     O48447  -0.051   7.915   8.285 -0.7562  0.4567  0.0291
  368MOL0     C48448  -0.171   7.900   8.350  1.0637  0.6439  0.1578
  368MOL0     C48449  -0.240   8.013   8.406  0.4830  0.5367  0.0574
  368MOL0     C48450  -0.363   8.006   8.467 -0.6231  0.1962  1.4245
  368MOL0     C48451  -0.434   7.888   8.462 -0.3334  0.0600  0.5813
  368MOL0     O48452  -0.557   7.877   8.521  0.1472  0.3757 -0.3175
  368MOL0     C48453  -0.664   7.895   8.422  0.1724 -1.2872 -0.4412
  368MOL0     C48454  -0.800   7.914   8.498 -0.2568  0.2238  1.1204
  368MOL0     C48455  -0.916   7.978   8.418 -0.2558  0.4015  0.1121
  368MOL0     C48456  -0.870   8.115   8.354 -0.4505  0.5725 -0.5143
  368MOL0     C48457  -0.986   8.198   8.315 -0.1512  0.4435  0.0739
  368MOL0     C48458  -1.067   8.156   8.199  0.2310 -0.2405  0.7432
  368MOL0     C48459  -1.168   8.277   8.163 -0.4642 -0.1579  0.3069
  368MOL0     C48460  -1.110   8.383   8.067  1.1479 -0.4708  0.3190
  368MOL0     N48461  -1.197   8.496   8.047 -0.3641 -0.1946 -0.4065
  368MOL0     C48462  -1.289   8.521   7.956  0.3493  0.3062  0.3337
  368MOL0     C48463  -1.318   8.647   7.971 -0.0761 -0.3182  1.3066
  368MOL0     C48464  -1.430   8.718   7.902 -0.3957  0.1511  0.9714
  368MOL0     C48465  -1.382   8.736   7.759 -0.7137 -0.3299 -0.2362
  368MOL0     C48466  -1.474   8.831   7.677  0.1177 -0.1985  0.3792
  368MOL0     C48467  -1.402   8.869   7.547  0.2368  0.7070 -0.1375
  368MOL0     O48468  -1.295   8.967   7.571  0.8241  0.1382 -0.5368
  368MOL0     C48469  -1.250   9.043   7.468  0.2847 -0.0029  0.8792
  368MOL0     C48470  -1.176   9.161   7.492 -0.6677  0.1010  0.3221
  368MOL0     C48471  -1.109   9.228   7.390  0.3941 -0.8180 -1.3541
  368MOL0     C48472  -1.107   9.177   7.258 -0.9228 -0.4910  0.0798
  368MOL0     C48473  -1.009   9.231   7.156  0.3371 -0.2391  0.0096
  368MOL0     O48474  -0.926   9.331   7.196 -0.2932  0.6714  0.0972
  368MOL0     C48475  -0.828   9.362   7.112 -0.6333  0.9865 -0.4120
  368MOL0     C48476  -0.849   9.404   6.982  0.2185  0.1661  0.5117
  368MOL0     C48477  -0.739   9.434   6.898 -0.3857 -0.2247 -0.2578
  368MOL0     C48478  -0.605   9.444   6.959  1.0066 -1.1154 -0.2707
  368MOL0     O48479  -0.494   9.477   6.887  0.2756 -0.1477  0.1558
  368MOL0     C48480  -0.511   9.489   6.744 -0.4341 -1.1833 -0.1319
  368MOL0     C48481  -0.396   9.546   6.667 -1.3144  0.0076  0.1362
  368MOL0     C48482  -0.257   9.519   6.744  0.2897 -0.1621 -0.5837
  368MOL0     C48483  -0.146   9.515   6.625  0.7017 -0.1993 -0.0604
  368MOL0     C48484  -0.007   9.502   6.675  0.5503  0.2012 -0.3112
  368MOL0     C48485   0.096   9.511   6.567  0.6349  0.6325  0.5243
  368MOL0     C48486   0.224   9.433   6.589  0.8453 -0.0982  0.1022
  368MOL0     C48487   0.310   9.479   6.467  0.1230  0.4038  0.5727
  368MOL0    Cl48488   0.475   9.438   6.496 -0.2150 -0.1431  0.0348
  368MOL0     C48489  -0.587   9.408   7.092 -0.1515  0.5174  0.2752
  368MOL0     C48490  -0.699   9.369   7.169  0.9183 -0.1616  0.0144
  368MOL0     O48491  -1.010   9.174   7.048  0.3617  0.0321  0.3959
  368MOL0     C48492  -1.174   9.052   7.235 -0.4865  0.6969 -0.1322
  368MOL0     C48493  -1.250   8.995   7.333  0.3758  0.0817 -0.1518
  368MOL0     N48494  -1.240   8.702   8.077  0.0961 -0.5353  0.3700
  368MOL0     N48495  -1.167   8.611   8.114  0.6583  1.2878 -0.2424
  368MOL0     C48496  -0.375   7.776   8.391  0.7815  0.0564 -0.3802
  368MOL0     C48497  -0.244   7.787   8.347 -0.4440 -0.8958 -0.7650
  368MOL0     C48498   0.167   7.819   8.206  0.3980  1.0019 -0.4306
  368MOL0     C48499   0.174   7.910   8.100  0.6693 -0.1915 -0.6277
  368MOL0     C48500   0.295   7.935   8.023  0.2311 -0.0252 -0.6638
  368MOL0     C48501   0.410   7.864   8.050  0.0283 -0.2011  0.3623
  368MOL0     O48502   0.528   7.892   7.998  0.3963  0.3724  0.7051
  368MOL0     C48503   0.553   8.031   7.963  0.3099 -0.4540  0.8683
  368MOL0     C48504   0.695   8.064   7.934 -0.3547 -0.5875 -0.4962
  368MOL0     C48505   0.777   8.060   8.065  0.3144  0.0795  0.1131
  368MOL0     C48506   0.921   8.100   8.044 -0.2758  0.7418  0.1523
  368MOL0     C48507   0.939   8.231   7.989 -0.1466 -0.5660 -0.1184
  368MOL0     C48508   0.952   8.341   7.935 -0.6992  0.1851 -0.3094
  368MOL0     C48509   0.396   7.761   8.150 -0.3917 -0.6457  0.5571
  368MOL0     C48510   0.283   7.746   8.229  1.1801  0.3464  1.0649
  368MOL0     H48511  -0.182   8.105   8.402 -1.4302  1.7407 -1.6511
  368MOL0     H48512  -0.413   8.096   8.501  0.7530  1.5654 -0.0523
  368MOL0     H48513  -0.683   7.816   8.348 -0.7944 -1.1225 -0.3932
  368MOL0     H48514  -0.645   7.988   8.368 -2.3102 -0.0873  0.5910
  368MOL0     H48515  -0.767   7.975   8.582  2.8571  0.4750 -0.1635
  368MOL0     H48516  -0.837   7.819   8.540 -0.9518 -0.3928 -0.7611
  368MOL0     H48517  -0.996   8.002   8.488 -0.3438 -3.9571  1.7708
  368MOL0     H48518  -0.950   7.905   8.344 -0.7375  0.2651  0.4640
  368MOL0     H48519  -0.818   8.170   8.434 -0.4779 -2.2184  1.6103
  368MOL0     H48520  -0.796   8.088   8.278 -1.9752 -3.0989 -0.9069
  368MOL0     H48521  -0.949   8.296   8.283  2.7816 -0.5690  0.1064
  368MOL0     H48522  -1.050   8.212   8.403  1.3716 -1.2125  1.5178
  368MOL0     H48523  -1.126   8.066   8.221  0.1196  0.2507  2.5605
  368MOL0     H48524  -1.011   8.120   8.112 -1.5545 -0.3612 -0.4178
  368MOL0     H48525  -1.253   8.225   8.118  1.6171 -2.7981 -0.8742
  368MOL0     H48526  -1.190   8.326   8.259  2.2664  5.2288 -1.4034
  368MOL0     H48527  -1.093   8.332   7.972 -1.4450 -0.6500 -0.1261
  368MOL0     H48528  -1.017   8.426   8.105  0.2963  2.1173 -0.3043
  368MOL0     H48529  -1.331   8.440   7.898  0.6700 -1.7208  2.7688
  368MOL0     H48530  -1.453   8.815   7.948  0.5721  1.8507 -1.8630
  368MOL0     H48531  -1.524   8.662   7.900 -0.1400 -0.3020 -1.3063
  368MOL0     H48532  -1.379   8.639   7.709 -3.4611  0.5697 -2.3819
  368MOL0     H48533  -1.283   8.783   7.764 -0.9387  0.4319 -2.3251
  368MOL0     H48534  -1.566   8.775   7.656  0.1145  0.3561 -1.1942
  368MOL0     H48535  -1.494   8.925   7.729 -2.5830  1.5555 -3.4297
  368MOL0     H48536  -1.473   8.914   7.478  1.0640  1.8824 -0.2398
  368MOL0     H48537  -1.360   8.778   7.502  3.4703  1.5921  0.8569
  368MOL0     H48538  -1.157   9.196   7.593  0.2862 -1.1015  0.5766
  368MOL0     H48539  -1.065   9.321   7.426 -0.8330 -1.1682  1.3099
  368MOL0     H48540  -0.949   9.386   6.944  0.7575 -1.8569 -0.1204
  368MOL0     H48541  -0.765   9.442   6.793 -2.0705  1.2699  0.2071
  368MOL0     H48542  -0.593   9.559   6.727 -0.0677 -0.2483  1.7158
  368MOL0     H48543  -0.529   9.389   6.703  2.9160 -1.1300 -2.1127
  368MOL0     H48544  -0.401   9.652   6.641 -1.1126 -0.0701 -0.2279
  368MOL0     H48545  -0.390   9.502   6.567  2.0750  3.7624 -1.5930
  368MOL0     H48546  -0.261   9.420   6.788 -0.3414  1.7093  4.1881
  368MOL0     H48547  -0.215   9.592   6.814 -0.7099  0.7412 -0.8933
  368MOL0     H48548  -0.170   9.427   6.565 -3.3236  0.0504  0.8957
  368MOL0     H48549  -0.162   9.601   6.561 -1.2159  0.9982  1.8800
  368MOL0     H48550   0.002   9.409   6.731 -0.0495  0.4020  0.1213
  368MOL0     H48551   0.012   9.578   6.751  1.7022  0.4905 -0.8575
  368MOL0     H48552   0.125   9.617   6.563 -0.4417  0.9558  0.9378
  368MOL0     H48553   0.055   9.493   6.467 -0.1971  1.8569  0.6303
  368MOL0     H48554   0.260   9.466   6.687  0.0730 -0.5697  0.5513
  368MOL0     H48555   0.210   9.325   6.580  2.5200 -0.2888 -0.6025
  368MOL0     H48556   0.305   9.587   6.452 -5.2543  0.3255 -0.0210
  368MOL0     H48557   0.273   9.433   6.375  0.0089  0.6515  0.4949
  368MOL0     H48558  -0.494   9.413   7.147 -0.5082 -1.8706  1.2087
  368MOL0     H48559  -0.693   9.344   7.274 -2.5585  1.6922  0.8050
  368MOL0     H48560  -1.156   8.995   7.145 -3.1264  0.6563 -0.7118
  368MOL0     H48561  -1.289   8.897   7.308  0.2513  0.6903 -2.6597
  368MOL0     H48562  -0.435   7.686   8.382 -0.0797  0.6798 -1.1390
  368MOL0     H48563  -0.209   7.703   8.288 -0.5073 -1.8042  0.4463
  368MOL0     H48564   0.083   7.967   8.079  1.9241  1.4823 -1.8705
  368MOL0     H48565   0.296   8.021   7.957  0.3875  1.1530  0.8475
  368MOL0     H48566   0.521   8.079   8.056  0.7275 -2.4451  2.0911
  368MOL0     H48567   0.482   8.065   7.887 -3.6314 -6.0276  1.4630
  368MOL0     H48568   0.740   7.999   7.858 -1.0760 -3.2963  1.2339
  368MOL0     H48569   0.701   8.163   7.888 -2.2330  0.3433  1.1138
  368MOL0     H48570   0.770   7.957   8.101  2.4451  0.2973  1.2989
  368MOL0     H48571   0.730   8.127   8.137 -2.5208  0.7291 -2.1229
  368MOL0     H48572   0.967   8.100   8.143 -4.0453  0.4114  2.1055
  368MOL0     H48573   0.972   8.029   7.979 -0.9259  1.7567 -1.5255
  368MOL0     H48574   0.963   8.437   7.889  3.3645  0.8103  1.5073
  368MOL0     H48575   0.488   7.714   8.183  1.9187  1.7200 -2.0072
  368MOL0     H48576   0.265   7.661   8.294 -0.4655 -0.3846 -0.2605
  369MOL0     O48577   8.106   6.569   3.032  0.2394  0.0458  0.3089
  369MOL0     C48578   8.176   6.661   3.070 -0.2633 -0.1122 -0.3075
  369MOL0     O48579   8.183   6.782   3.011  0.0124  0.8968 -0.0269
  369MOL0     C48580   8.090   6.809   2.908  0.3864  0.7689 -0.0517
  369MOL0     C48581   7.958   6.834   2.942 -0.2475  0.1521 -0.1228
  369MOL0     C48582   7.856   6.870   2.853 -0.8301  0.3503  1.1548
  369MOL0     C48583   7.894   6.883   2.720  0.4997 -0.2539  0.2180
  369MOL0     O48584   7.797   6.929   2.623 -0.3728  0.1542 -0.5572
  369MOL0     C48585   7.685   6.850   2.605 -0.4391  0.2359  0.7882
  369MOL0     C48586   7.560   6.928   2.554 -0.0010  0.2595 -0.1450
  369MOL0     C48587   7.472   6.991   2.667 -0.4352  0.2022  0.9054
  369MOL0     C48588   7.320   6.990   2.620 -0.0751 -0.2438 -0.9653
  369MOL0     C48589   7.228   7.036   2.740  0.2489 -0.4340  0.0216
  369MOL0     C48590   7.085   7.011   2.700  0.3358 -0.0732  0.4006
  369MOL0     C48591   6.970   7.019   2.806  0.1030 -1.1200 -0.4051
  369MOL0     C48592   6.949   7.160   2.854  0.1243  0.1294 -1.2126
  369MOL0     N48593   6.811   7.176   2.904  0.2394 -0.4269 -0.1786
  369MOL0     C48594   6.753   7.113   3.016  0.5229 -0.1448 -1.1809
  369MOL0     C48595   6.619   7.122   3.004  1.9289  0.5594  0.2639
  369MOL0     C48596   6.501   7.099   3.096 -0.1023  0.5407 -0.2078
  369MOL0     C48597   6.533   6.996   3.210 -0.0241  0.5903  0.3781
  369MOL0     C48598   6.416   6.992   3.308  0.7248 -1.2290 -0.3221
  369MOL0     C48599   6.289   6.930   3.251 -0.3669 -0.1778 -0.0037
  369MOL0     O48600   6.185   6.919   3.348 -0.5915  0.5688 -0.2239
  369MOL0     C48601   6.099   7.025   3.370 -0.0034 -0.0022 -0.6153
  369MOL0     C48602   5.991   7.006   3.457  0.2307 -0.4517 -0.6839
  369MOL0     C48603   5.889   7.092   3.479  0.6618 -0.5901  0.6619
  369MOL0     C48604   5.887   7.212   3.397  0.0310  0.3180 -0.6706
  369MOL0     C48605   5.770   7.301   3.393  0.8107 -0.3945  0.1735
  369MOL0     O48606   5.738   7.358   3.277  0.2356 -0.2110  0.1348
  369MOL0     C48607   5.653   7.464   3.270 -0.2201  0.2451  0.1052
  369MOL0     C48608   5.643   7.567   3.364  0.0847 -0.4073  0.6076
  369MOL0     C48609   5.538   7.666   3.352 -0.2097  0.4308 -0.6259
  369MOL0     C48610   5.456   7.670   3.237 -0.7939  0.3240  0.7102
  369MOL0     O48611   5.349   7.754   3.238 -0.0961  0.0565  0.0241
  369MOL0     C48612   5.290   7.783   3.112 -0.0371  0.0216  0.4131
  369MOL0     C48613   5.173   7.881   3.135  0.3914  0.4937  0.4369
  369MOL0     C48614   5.076   7.908   3.013 -0.1951  0.5355 -0.6814
  369MOL0     C48615   5.149   7.930   2.881 -0.4485  0.2841 -0.6693
  369MOL0     C48616   5.040   7.973   2.773  0.8252  0.0445 -0.1000
  369MOL0     C48617   4.951   7.854   2.738 -0.2559 -0.6955  0.5102
  369MOL0     C48618   4.883   7.862   2.597  0.1057 -0.4006 -1.1741
  369MOL0     C48619   4.768   7.969   2.596  0.0539  0.0562  0.2563
  369MOL0    Cl48620   4.694   7.974   2.421 -0.2268  0.6186 -0.0500
  369MOL0     C48621   5.477   7.565   3.141  0.4339 -0.0964 -0.8399
  369MOL0     C48622   5.575   7.463   3.163 -0.6656  0.3329  0.2049
  369MOL0     O48623   5.694   7.297   3.495 -0.5026  0.3790  1.1045
  369MOL0     C48624   5.997   7.239   3.319 -0.0055 -0.3906  0.0834
  369MOL0     C48625   6.104   7.146   3.307 -0.2627  0.0537  0.7829
  369MOL0     N48626   6.595   7.194   2.887  0.0092  0.5929 -0.5119
  369MOL0     N48627   6.704   7.226   2.822 -0.1512  0.1751  0.0134
  369MOL0     C48628   8.029   6.854   2.684  0.3284  0.3249  0.0717
  369MOL0     C48629   8.131   6.810   2.780  0.6796 -0.5308  0.0245
  369MOL0     C48630   8.247   6.631   3.203  0.6586  0.0774  0.7600
  369MOL0     C48631   8.218   6.509   3.271 -0.1855  0.2734  0.2792
  369MOL0     C48632   8.287   6.488   3.392  0.5247  0.4292  0.0753
  369MOL0     C48633   8.388   6.572   3.439 -0.9049 -0.5756  0.1890
  369MOL0     O48634   8.447   6.572   3.565 -0.7881 -0.3457 -0.5302
  369MOL0     C48635   8.429   6.461   3.651  0.2789 -0.1102  0.1426
  369MOL0     C48636   8.455   6.514   3.784  0.5038 -0.5537  1.4217
  369MOL0     C48637   8.603   6.531   3.803 -0.6445 -0.1277 -1.0062
  369MOL0     C48638   8.626   6.659   3.882  0.9784  0.1702 -0.6478
  369MOL0     C48639   8.772   6.660   3.913 -0.0630 -0.7184 -0.3583
  369MOL0     C48640   8.888   6.679   3.937  0.6700 -0.4693  0.4195
  369MOL0     C48641   8.413   6.690   3.370  0.1801 -0.2889  0.3740
  369MOL0     C48642   8.339   6.722   3.257  1.0653 -0.2539  0.2522
  369MOL0     H48643   7.939   6.822   3.048 -0.7487 -0.1342 -0.2415
  369MOL0     H48644   7.761   6.892   2.901 -1.7412  1.1099 -0.8826
  369MOL0     H48645   7.654   6.797   2.696 -2.9191 -0.1622 -0.2062
  369MOL0     H48646   7.714   6.781   2.525  1.8669  1.5471  0.4220
  369MOL0     H48647   7.500   6.847   2.511 -0.4274  1.1032 -1.1735
  369MOL0     H48648   7.584   6.998   2.473 -1.5548 -1.1583 -1.9178
  369MOL0     H48649   7.517   7.089   2.682 -0.2597  0.2500  0.1191
  369MOL0     H48650   7.489   6.930   2.756  1.3650  0.3238  0.6936
  369MOL0     H48651   7.316   7.047   2.527  1.5145  0.8728 -0.4064
  369MOL0     H48652   7.292   6.886   2.604  1.2549 -1.3368  2.6753
  369MOL0     H48653   7.224   7.143   2.761 -3.6183 -0.0557 -1.8216
  369MOL0     H48654   7.246   6.980   2.832 -0.6039  1.3815  1.3642
  369MOL0     H48655   7.084   6.914   2.650  3.2221  0.0402 -0.0201
  369MOL0     H48656   7.062   7.072   2.612  1.1086 -0.0340  0.2228
  369MOL0     H48657   6.877   6.977   2.765 -1.1803  0.5849  0.6104
  369MOL0     H48658   6.994   6.956   2.893  0.7628 -1.2096 -0.6486
  369MOL0     H48659   6.961   7.223   2.765 -0.7542  0.8619 -0.8349
  369MOL0     H48660   7.021   7.182   2.933 -1.7378 -2.1931  1.3102
  369MOL0     H48661   6.802   7.067   3.101 -0.5890 -1.2345 -1.1084
  369MOL0     H48662   6.413   7.065   3.040 -2.1229  3.3762  1.0013
  369MOL0     H48663   6.483   7.195   3.145  1.2156  0.5474  0.3083
  369MOL0     H48664   6.618   7.021   3.274  0.9457  0.6079 -0.8927
  369MOL0     H48665   6.536   6.893   3.173 -1.2565  0.6790 -0.0160
  369MOL0     H48666   6.448   6.944   3.401 -0.4544  2.4981  2.2620
  369MOL0     H48667   6.403   7.098   3.334  0.4807 -0.8467 -1.8721
  369MOL0     H48668   6.323   6.827   3.245  1.4863  0.2467  2.1059
  369MOL0     H48669   6.259   6.976   3.156  0.9832  0.0850 -0.3140
  369MOL0     H48670   5.970   6.911   3.504 -0.3674 -0.0880 -0.1943
  369MOL0     H48671   5.811   7.067   3.550  0.4625  1.1531  1.0934
  369MOL0     H48672   5.700   7.565   3.456 -0.4717  1.9061  1.0618
  369MOL0     H48673   5.528   7.741   3.430 -3.0719  1.0037 -1.3980
  369MOL0     H48674   5.266   7.693   3.056 -2.7430  2.0966 -2.0710
  369MOL0     H48675   5.364   7.839   3.054 -1.7941  0.8583 -1.1345
  369MOL0     H48676   5.208   7.979   3.172 -1.3725  1.9183 -1.4338
  369MOL0     H48677   5.109   7.830   3.208 -0.1945 -0.7584 -0.9274
  369MOL0     H48678   5.014   7.994   3.040 -0.1254  0.9638 -1.8250
  369MOL0     H48679   5.011   7.822   2.996  0.7937 -0.0704 -1.5295
  369MOL0     H48680   5.225   8.007   2.895  0.1777 -0.7857  2.7153
  369MOL0     H48681   5.204   7.841   2.848 -0.6342 -0.3428  0.6605
  369MOL0     H48682   5.102   8.009   2.691  1.0128  0.0606  0.0483
  369MOL0     H48683   4.976   8.055   2.809 -0.9967 -1.8885  1.3457
  369MOL0     H48684   4.871   7.841   2.812  0.7195 -1.4220  1.4802
  369MOL0     H48685   5.015   7.765   2.731 -0.0809 -0.4695 -1.0398
  369MOL0     H48686   4.959   7.892   2.524  0.7653  1.3285  0.1590
  369MOL0     H48687   4.839   7.770   2.558  0.3428 -0.0297 -2.3642
  369MOL0     H48688   4.810   8.069   2.615 -2.6769  1.2550  0.4037
  369MOL0     H48689   4.693   7.945   2.671 -1.8118 -0.6708 -1.7486
  369MOL0     H48690   5.423   7.556   3.047 -0.4120 -4.3351 -0.1561
  369MOL0     H48691   5.586   7.384   3.089 -0.2909 -2.0184  2.6216
  369MOL0     H48692   5.986   7.329   3.259  1.4003 -0.5395 -0.4184
  369MOL0     H48693   6.188   7.162   3.241 -0.4649  1.9267  0.9126
  369MOL0     H48694   8.039   6.860   2.576 -3.6271  1.3002 -0.4179
  369MOL0     H48695   8.234   6.778   2.769  0.9605  0.2225  0.4172
  369MOL0     H48696   8.149   6.429   3.244  2.0765 -1.6014 -0.2808
  369MOL0     H48697   8.263   6.398   3.447  0.2435  1.4468  1.6847
  369MOL0     H48698   8.500   6.383   3.620  0.7025  0.6817 -0.9793
  369MOL0     H48699   8.332   6.412   3.649  0.3688 -0.2821 -0.3705
  369MOL0     H48700   8.398   6.608   3.784 -1.8221 -1.8795  1.6663
  369MOL0     H48701   8.417   6.441   3.856 -0.0275 -2.0202 -0.2781
  369MOL0     H48702   8.660   6.536   3.709  1.2930 -2.1178 -0.0286
  369MOL0     H48703   8.647   6.444   3.853  0.2469  0.8586 -0.0222
  369MOL0     H48704   8.592   6.735   3.811 -1.0383  0.2680  0.3338
  369MOL0     H48705   8.573   6.657   3.978  2.2415 -1.7569  0.0688
  369MOL0     H48706   8.990   6.697   3.965  0.5929 -0.4157  0.6724
  369MOL0     H48707   8.484   6.766   3.402  1.6426 -1.6786  0.5707
  369MOL0     H48708   8.351   6.820   3.211  0.0983 -0.9483 -1.5604
  370MOL0     O48709  11.005   2.413   1.513  0.1862  0.3357  0.0782
  370MOL0     C48710  11.075   2.514   1.520  0.2640  0.4407 -0.1307
  370MOL0     O48711  11.037   2.638   1.491  0.5188  0.2757 -1.0418
  370MOL0     C48712  10.928   2.662   1.408 -0.9887  0.0161 -0.3221
  370MOL0     C48713  10.861   2.785   1.413 -1.0845  0.2462  1.0508
  370MOL0     C48714  10.744   2.808   1.332  0.2231 -0.0771  0.2604
  370MOL0     C48715  10.687   2.706   1.251 -0.8993 -0.1395 -0.3392
  370MOL0     O48716  10.572   2.729   1.174  1.3939  0.2376  0.6577
  370MOL0     C48717  10.518   2.857   1.174  0.7126 -0.4890 -0.4490
  370MOL0     C48718  10.385   2.835   1.111 -0.4708 -0.2505 -0.2671
  370MOL0     C48719  10.282   2.749   1.189 -0.0039  0.0817  0.0200
  370MOL0     C48720  10.144   2.759   1.114 -0.1153 -0.4003 -0.0515
  370MOL0     C48721  10.018   2.711   1.184 -0.5203 -0.2133  0.3410
  370MOL0     C48722   9.896   2.725   1.087 -0.1352 -1.1937 -0.1804
  370MOL0     C48723   9.763   2.701   1.165 -0.3900 -0.0218  0.0422
  370MOL0     C48724   9.753   2.552   1.194 -0.2058 -0.7453  0.7639
  370MOL0     N48725   9.623   2.503   1.169 -0.4633  0.0059 -0.5743
  370MOL0     C48726   9.526   2.495   1.270 -0.5774  0.3199 -0.0002
  370MOL0     C48727   9.410   2.480   1.210  0.9579  0.2992  0.0365
  370MOL0     C48728   9.273   2.478   1.267  0.5241 -0.4202 -0.1467
  370MOL0     C48729   9.162   2.428   1.171  0.6748 -0.0222  0.0502
  370MOL0     C48730   9.043   2.377   1.256 -0.0276  0.0195 -0.4278
  370MOL0     C48731   8.984   2.488   1.343 -0.0016  0.0814 -0.7591
  370MOL0     O48732   8.986   2.625   1.287 -0.4791 -0.6966  0.3651
  370MOL0     C48733   8.882   2.658   1.205 -0.0142 -0.0622 -0.5984
  370MOL0     C48734   8.770   2.585   1.161 -0.1233  0.3639  0.7084
  370MOL0     C48735   8.669   2.644   1.091 -0.0788  0.7266  0.3802
  370MOL0     C48736   8.684   2.766   1.027  0.0312 -0.1144  0.0053
  370MOL0     C48737   8.571   2.830   0.951  0.3041 -0.0338  0.0607
  370MOL0     O48738   8.600   2.945   0.880  0.7556 -0.4566  0.1158
  370MOL0     C48739   8.499   3.024   0.828  0.1012 -0.2150 -1.0695
  370MOL0     C48740   8.461   3.010   0.697  0.5579  0.1497  0.4479
  370MOL0     C48741   8.364   3.093   0.638 -0.2482 -0.2612  1.1333
  370MOL0     C48742   8.286   3.178   0.719 -0.2010 -0.5340 -0.2767
  370MOL0     O48743   8.191   3.262   0.664 -0.7831  1.3365  0.1082
  370MOL0     C48744   8.115   3.336   0.758 -0.0333 -0.6166 -0.8909
  370MOL0     C48745   8.009   3.428   0.684 -0.5138 -1.1090  0.2678
  370MOL0     C48746   7.889   3.356   0.630 -0.0568 -0.8853  0.7145
  370MOL0     C48747   7.784   3.447   0.559  0.2824  0.0741 -0.6720
  370MOL0     C48748   7.795   3.461   0.407  0.4434 -0.2391  0.0768
  370MOL0     C48749   7.671   3.438   0.321 -0.3319  0.5874  0.4059
  370MOL0     C48750   7.714   3.428   0.174 -0.1646  0.2458  0.8233
  370MOL0     C48751   7.751   3.288   0.121 -0.2942  0.2020  1.3123
  370MOL0    Cl48752   7.613   3.176   0.123 -0.2107  0.0694 -0.2614
  370MOL0     C48753   8.324   3.188   0.857  0.8643  0.6630  0.5685
  370MOL0     C48754   8.422   3.113   0.905 -0.9191  0.1974 -0.5252
  370MOL0     O48755   8.466   2.782   0.979  0.4725 -0.0218 -0.3784
  370MOL0     C48756   8.806   2.836   1.052 -0.1887 -0.6583  0.4590
  370MOL0     C48757   8.901   2.783   1.142 -0.2335 -0.7620  0.0527
  370MOL0     N48758   9.442   2.473   1.078 -0.5713  1.0372 -0.5089
  370MOL0     N48759   9.570   2.481   1.048  0.3995 -0.0480 -0.0049
  370MOL0     C48760  10.770   2.594   1.234 -0.0203 -0.2179  0.4508
  370MOL0     C48761  10.879   2.571   1.308 -0.7455  0.7188 -0.0470
  370MOL0     C48762  11.210   2.496   1.577  0.7318 -0.0459  0.2380
  370MOL0     C48763  11.245   2.363   1.622 -0.0998 -0.7207 -1.1391
  370MOL0     C48764  11.376   2.342   1.674  0.5373 -0.2657  0.2435
  370MOL0     C48765  11.470   2.448   1.688  1.3278 -0.4357  0.2732
  370MOL0     O48766  11.600   2.440   1.725  0.2326  0.6907  0.9206
  370MOL0     C48767  11.657   2.322   1.778  0.7631  0.2574 -1.0818
  370MOL0     C48768  11.795   2.330   1.828  0.5000 -0.1433  0.4486
  370MOL0     C48769  11.898   2.364   1.723 -0.6616 -0.2039  0.3248
  370MOL0     C48770  11.890   2.511   1.684  0.2774 -0.8653  0.8546
  370MOL0     C48771  12.016   2.547   1.609  0.1535  0.2663  0.7427
  370MOL0     C48772  12.115   2.579   1.546 -0.3026 -0.5598 -0.1515
  370MOL0     C48773  11.434   2.575   1.632  0.9671  0.4816 -0.4527
  370MOL0     C48774  11.305   2.594   1.577  0.1298 -0.5602  0.8897
  370MOL0     H48775  10.895   2.856   1.487  1.0695 -0.1768  0.5607
  370MOL0     H48776  10.699   2.905   1.347  1.5540  0.6515 -0.2142
  370MOL0     H48777  10.582   2.920   1.113  0.3989 -0.2650 -0.5487
  370MOL0     H48778  10.495   2.910   1.266 -0.9430  1.6653 -1.9960
  370MOL0     H48779  10.397   2.791   1.011 -4.9379 -2.7590  0.0218
  370MOL0     H48780  10.338   2.933   1.104 -0.2815 -0.2348 -1.7175
  370MOL0     H48781  10.263   2.789   1.289 -0.0117  1.7884 -0.6350
  370MOL0     H48782  10.313   2.644   1.186  0.8891  0.3602 -2.0389
  370MOL0     H48783  10.123   2.863   1.090 -0.6824 -0.3411  0.6554
  370MOL0     H48784  10.162   2.701   1.023  2.7295 -0.7701  0.6395
  370MOL0     H48785  10.006   2.779   1.269 -2.2126 -1.2460  0.9742
  370MOL0     H48786  10.029   2.610   1.224  0.6657 -0.5290 -0.7280
  370MOL0     H48787   9.914   2.660   1.000  1.7484 -3.3489  1.6988
  370MOL0     H48788   9.903   2.831   1.059  0.3141 -0.5789  2.0579
  370MOL0     H48789   9.754   2.766   1.252 -1.9299 -1.3849  0.9590
  370MOL0     H48790   9.686   2.729   1.092  0.2320 -1.8641 -1.4151
  370MOL0     H48791   9.779   2.531   1.299  3.0996  1.8247  0.6237
  370MOL0     H48792   9.807   2.487   1.125 -4.3647 -0.7102 -2.9574
  370MOL0     H48793   9.531   2.508   1.378  0.5570 -0.1656  0.0151
  370MOL0     H48794   9.246   2.578   1.300 -1.2139 -1.4464  1.7738
  370MOL0     H48795   9.284   2.417   1.357 -0.6927 -0.0518  0.2765
  370MOL0     H48796   9.196   2.340   1.115 -0.2084 -1.3406  1.4678
  370MOL0     H48797   9.125   2.507   1.105 -0.0879 -0.3396  0.0841
  370MOL0     H48798   8.979   2.330   1.180  0.1522 -0.1593 -0.4668
  370MOL0     H48799   9.073   2.294   1.320  0.4029  1.3170  1.1283
  370MOL0     H48800   9.026   2.487   1.444 -0.9730 -2.4308 -0.3073
  370MOL0     H48801   8.879   2.462   1.361  0.8717 -2.3944  1.4578
  370MOL0     H48802   8.737   2.486   1.188 -0.4429  1.1717  3.7426
  370MOL0     H48803   8.575   2.590   1.085  0.3298 -0.1375  1.3887
  370MOL0     H48804   8.524   2.946   0.636  2.4343  1.7936  0.5608
  370MOL0     H48805   8.352   3.096   0.530  0.2688  1.3171  1.0879
  370MOL0     H48806   8.171   3.403   0.823  0.1824 -1.2733 -0.3853
  370MOL0     H48807   8.055   3.271   0.822 -0.1075 -0.6039 -0.9471
  370MOL0     H48808   8.056   3.480   0.600  0.0951  1.8054  2.2576
  370MOL0     H48809   7.985   3.511   0.752 -1.8623  1.4375 -3.0537
  370MOL0     H48810   7.842   3.306   0.715 -1.3140 -0.7820  0.1043
  370MOL0     H48811   7.925   3.281   0.559 -0.4576 -0.4272  0.0135
  370MOL0     H48812   7.684   3.409   0.582  0.6238  0.0150  0.8014
  370MOL0     H48813   7.791   3.547   0.604  1.2495 -0.6998  0.9668
  370MOL0     H48814   7.865   3.382   0.378  3.4224  2.4854 -0.6353
  370MOL0     H48815   7.834   3.557   0.374  2.0849 -0.6381  0.7763
  370MOL0     H48816   7.606   3.524   0.337  0.3910  0.9952  1.2495
  370MOL0     H48817   7.629   3.341   0.352  0.8655 -0.4749 -1.1547
  370MOL0     H48818   7.625   3.456   0.117 -1.3227 -2.6642  1.0218
  370MOL0     H48819   7.790   3.504   0.158  0.3951 -0.3907  0.3926
  370MOL0     H48820   7.839   3.246   0.171  3.2929  1.9929 -2.8338
  370MOL0     H48821   7.776   3.301   0.015 -0.8450  2.9258  1.4626
  370MOL0     H48822   8.272   3.255   0.925 -0.6655  0.9477 -0.8198
  370MOL0     H48823   8.447   3.133   1.009 -1.5022 -0.6764 -0.1974
  370MOL0     H48824   8.834   2.926   0.999 -1.3300 -0.2487  0.5277
  370MOL0     H48825   8.985   2.850   1.158 -1.8814  1.1248  1.1619
  370MOL0     H48826  10.737   2.527   1.154  3.0521  0.2578 -1.3515
  370MOL0     H48827  10.939   2.481   1.299  0.9051  1.2574  3.6798
  370MOL0     H48828  11.180   2.276   1.618  0.4728 -1.2052 -0.2391
  370MOL0     H48829  11.418   2.247   1.704 -0.9566 -1.1749 -0.3757
  370MOL0     H48830  11.643   2.233   1.715  0.8768  0.1428 -0.9485
  370MOL0     H48831  11.607   2.291   1.871  3.0157 -0.3787 -0.0155
  370MOL0     H48832  11.795   2.412   1.900 -0.3705  0.7475 -0.5444
  370MOL0     H48833  11.824   2.240   1.883 -0.6542 -0.1804  1.0155
  370MOL0     H48834  11.889   2.303   1.633  1.5131 -0.3560  0.1660
  370MOL0     H48835  11.990   2.336   1.773 -0.2584 -4.2471 -2.2526
  370MOL0     H48836  11.810   2.534   1.613  0.3092 -2.6512  0.1975
  370MOL0     H48837  11.873   2.582   1.765 -3.1051  1.6935 -1.7721
  370MOL0     H48838  12.190   2.609   1.476 -2.0444 -1.2117 -2.4488
  370MOL0     H48839  11.498   2.662   1.641  1.4537  0.2433 -1.4236
  370MOL0     H48840  11.299   2.685   1.518  0.0232 -1.6272 -0.8237
  371MOL0     O48841   7.181   9.099   1.472  0.1368 -0.3342 -0.0090
  371MOL0     C48842   7.273   9.178   1.500 -0.2420  0.1040  0.1562
  371MOL0     O48843   7.269   9.317   1.490  0.3330 -0.7100 -0.3551
  371MOL0     C48844   7.168   9.381   1.428 -0.5485 -0.3067 -0.3244
  371MOL0     C48845   7.216   9.509   1.383 -0.1937  0.5399 -0.3080
  371MOL0     C48846   7.128   9.587   1.299  0.2520  0.2187 -0.1108
  371MOL0     C48847   7.004   9.536   1.262 -0.4844  0.2547 -0.5278
  371MOL0     O48848   6.924   9.615   1.183 -0.5444 -0.6706 -0.5170
  371MOL0     C48849   6.789   9.581   1.141 -0.2938  0.2870  0.8947
  371MOL0     C48850   6.718   9.681   1.049  0.2361 -0.3905 -1.1475
  371MOL0     C48851   6.681   9.814   1.130  0.0608  0.2904 -0.6613
  371MOL0     C48852   6.791   9.916   1.128  0.4215 -0.2251  0.7117
  371MOL0     C48853   6.797   9.997   1.013  0.0375 -0.7813 -0.5298
  371MOL0     C48854   6.893  10.122   1.044  0.6285 -0.1827  0.0408
  371MOL0     C48855   6.911  10.212   0.926 -1.1577  0.4257 -1.0111
  371MOL0     C48856   6.782  10.270   0.874  0.5137  0.3565  0.4559
  371MOL0     N48857   6.792  10.372   0.770  0.0304 -0.0888  0.1193
  371MOL0     C48858   6.680  10.448   0.718  0.3185  0.1191 -0.0026
  371MOL0     C48859   6.743  10.534   0.626 -0.0451  0.4596 -0.4306
  371MOL0     C48860   6.670  10.641   0.544 -0.4028 -0.9728 -0.3371
  371MOL0     C48861   6.574  10.590   0.436  0.0504 -0.0598  0.1866
  371MOL0     C48862   6.651  10.509   0.327  0.2633 -0.2150  0.8026
  371MOL0     C48863   6.778  10.570   0.257 -0.4644 -0.1998  0.2140
  371MOL0     O48864   6.755  10.703   0.212 -0.2573 -0.4075  0.1611
  371MOL0     C48865   6.860  10.785   0.185  0.0345 -0.0668  0.7707
  371MOL0     C48866   6.986  10.777   0.245 -0.4709  0.3421  0.4617
  371MOL0     C48867   7.082  10.878   0.233 -1.1075 -0.1164 -0.1807
  371MOL0     C48868   7.062  10.976   0.139 -0.0458 -0.8629 -0.0995
  371MOL0     C48869   7.171  11.075   0.110 -0.2730  0.0842 -0.8627
  371MOL0     O48870   7.295  11.054   0.171  0.0854 -0.9710  0.1051
  371MOL0     C48871   7.401  11.128   0.121  0.2217  0.7322  0.0887
  371MOL0     C48872   7.443  11.111  -0.008  0.4796  0.9684 -0.4024
  371MOL0     C48873   7.558  11.173  -0.068 -0.5752 -0.9593  0.1004
  371MOL0     C48874   7.638  11.252   0.024 -0.3596 -0.5001 -0.0206
  371MOL0     O48875   7.755  11.313  -0.008  0.3001  0.0426  0.3050
  371MOL0     C48876   7.777  11.340  -0.145  0.0934  0.3259  0.8958
  371MOL0     C48877   7.890  11.257  -0.211 -0.2326 -1.2176  0.5239
  371MOL0     C48878   8.018  11.276  -0.137 -1.0575 -0.3384  0.0802
  371MOL0     C48879   8.066  11.424  -0.108  0.4311  0.2921 -0.0107
  371MOL0     C48880   8.205  11.424  -0.055  0.1852 -0.6216 -0.0105
  371MOL0     C48881   8.249  11.570  -0.013  0.1807 -0.3314 -1.0541
  371MOL0     C48882   8.304  11.637  -0.133  0.1669 -0.2524  0.5434
  371MOL0     C48883   8.319  11.783  -0.118  0.0128 -0.8335  0.0549
  371MOL0    Cl48884   8.443  11.821   0.001 -0.3041  0.1316  0.7561
  371MOL0     C48885   7.597  11.259   0.160  0.2321  0.4767  0.4942
  371MOL0     C48886   7.482  11.196   0.205  0.4038  0.6188 -0.8368
  371MOL0     O48887   7.143  11.173   0.036 -0.1744  0.7827 -0.3966
  371MOL0     C48888   6.934  10.983   0.077 -0.0750  0.8279 -0.3352
  371MOL0     C48889   6.830  10.893   0.104  0.8566 -0.1957 -0.3794
  371MOL0     N48890   6.885  10.524   0.642  0.3343 -0.1079 -0.0608
  371MOL0     N48891   6.905  10.417   0.714  0.0930 -0.3505  0.4260
  371MOL0     C48892   6.965   9.415   1.312 -0.1829 -0.1801  0.0352
  371MOL0     C48893   7.045   9.342   1.401 -0.3840  0.1124  0.2526
  371MOL0     C48894   7.390   9.126   1.551 -0.9787  0.8714  0.5502
  371MOL0     C48895   7.525   9.162   1.505  0.5544 -0.0219 -0.0679
  371MOL0     C48896   7.636   9.106   1.569  0.3465  0.1155 -0.4557
  371MOL0     C48897   7.629   9.025   1.676 -0.1860  1.1392  0.2084
  371MOL0     O48898   7.755   8.986   1.734 -0.4148 -0.5648  0.1677
  371MOL0     C48899   7.756   8.937   1.871 -0.0488 -0.4423 -0.0545
  371MOL0     C48900   7.715   8.786   1.885 -0.3575  0.0450  0.2151
  371MOL0     C48901   7.818   8.700   1.814  0.0925 -0.2799 -0.3028
  371MOL0     C48902   7.798   8.548   1.835  0.0241 -0.7173 -0.2847
  371MOL0     C48903   7.929   8.483   1.861  0.2544 -0.3477  0.4553
  371MOL0     C48904   8.036   8.433   1.900  0.2232 -0.4920 -0.4281
  371MOL0     C48905   7.503   8.979   1.716  0.0836  0.1616  0.0792
  371MOL0     C48906   7.389   9.024   1.647  0.8339 -0.3692  0.0670
  371MOL0     H48907   7.319   9.535   1.402  0.9138 -1.8188 -2.5339
  371MOL0     H48908   7.161   9.683   1.260 -0.6446  0.0324 -1.3981
  371MOL0     H48909   6.721   9.560   1.225 -1.5024  1.4873  0.2546
  371MOL0     H48910   6.796   9.493   1.076  1.3596  1.1672 -0.1845
  371MOL0     H48911   6.635   9.635   0.994 -0.4721  1.6179 -1.8568
  371MOL0     H48912   6.788   9.702   0.968 -0.5381 -1.6085 -2.1575
  371MOL0     H48913   6.661   9.788   1.234  1.4416  3.5428  0.5311
  371MOL0     H48914   6.599   9.875   1.090 -2.0246 -2.2390 -0.5352
  371MOL0     H48915   6.776   9.986   1.212 -3.4433  0.9540 -0.7444
  371MOL0     H48916   6.883   9.858   1.120  0.0446 -0.8329  0.7210
  371MOL0     H48917   6.704  10.041   0.976  0.6037 -0.0531 -1.1048
  371MOL0     H48918   6.833   9.942   0.926  1.4842  2.8120 -2.4140
  371MOL0     H48919   6.993  10.084   1.066  1.6984  2.8900  1.0603
  371MOL0     H48920   6.861  10.178   1.133  0.7120  0.3189 -0.2421
  371MOL0     H48921   6.980  10.289   0.960 -0.0113 -0.9677 -0.0604
  371MOL0     H48922   6.947  10.160   0.836  2.1978  2.3823 -0.9740
  371MOL0     H48923   6.741  10.321   0.962 -4.2119  3.1110 -2.8790
  371MOL0     H48924   6.707  10.197   0.841 -0.2779  1.8726 -1.2219
  371MOL0     H48925   6.575  10.428   0.739  0.1341  2.4221  1.5616
  371MOL0     H48926   6.741  10.710   0.497 -1.2505 -0.9135 -1.5804
  371MOL0     H48927   6.615  10.699   0.618 -2.6652 -0.7331 -2.0671
  371MOL0     H48928   6.515  10.673   0.395  1.1557  1.4114  1.4164
  371MOL0     H48929   6.495  10.522   0.469 -1.7057  1.0200 -1.5674
  371MOL0     H48930   6.692  10.419   0.373 -1.9133 -2.1760 -0.8348
  371MOL0     H48931   6.585  10.484   0.243  2.7741 -2.8528 -0.5910
  371MOL0     H48932   6.796  10.511   0.167 -0.5059  0.1424 -0.0192
  371MOL0     H48933   6.857  10.565   0.333  1.3618  0.3152 -1.5846
  371MOL0     H48934   7.030  10.702   0.309  0.3025  0.5868  0.2286
  371MOL0     H48935   7.176  10.865   0.286  0.9820 -2.6559 -3.9956
  371MOL0     H48936   7.376  11.053  -0.071  0.0641 -0.4578  1.2671
  371MOL0     H48937   7.571  11.167  -0.175 -0.1234 -1.7253  0.1913
  371MOL0     H48938   7.808  11.443  -0.166 -0.3366  0.2680 -0.0647
  371MOL0     H48939   7.694  11.328  -0.215 -0.4476  0.1500  1.5628
  371MOL0     H48940   7.906  11.287  -0.315 -0.9502 -0.6309  0.5752
  371MOL0     H48941   7.860  11.152  -0.212 -2.7205 -0.6001 -2.1006
  371MOL0     H48942   8.105  11.233  -0.187  0.6550  1.9307  0.9049
  371MOL0     H48943   8.011  11.216  -0.046 -2.3867 -0.5407 -0.1341
  371MOL0     H48944   8.062  11.473  -0.206  1.3007 -3.6451 -2.2515
  371MOL0     H48945   7.997  11.473  -0.039 -0.8802 -1.3050 -0.1121
  371MOL0     H48946   8.274  11.380  -0.128 -0.4318 -1.9528  0.1861
  371MOL0     H48947   8.217  11.371   0.040  4.7745 -0.1190 -0.0459
  371MOL0     H48948   8.326  11.565   0.065 -0.3885 -1.0427 -0.5160
  371MOL0     H48949   8.159  11.623   0.022  0.1392 -1.6142  0.9367
  371MOL0     H48950   8.400  11.602  -0.170  0.7158 -2.5717  3.7126
  371MOL0     H48951   8.228  11.635  -0.212 -0.2051  1.9240  0.7698
  371MOL0     H48952   8.221  11.817  -0.082  0.3281  1.0219 -0.6984
  371MOL0     H48953   8.343  11.839  -0.209  0.8713  1.0758  1.4000
  371MOL0     H48954   7.656  11.320   0.228  1.9121 -1.6322  1.0491
  371MOL0     H48955   7.456  11.204   0.310  1.4607 -1.0307 -0.4166
  371MOL0     H48956   6.904  11.056   0.003 -5.0546  0.6364  1.0829
  371MOL0     H48957   6.730  10.905   0.062 -0.2659  0.4202  2.2580
  371MOL0     H48958   6.871   9.371   1.280 -1.2782  2.1049 -0.1264
  371MOL0     H48959   6.995   9.256   1.446  0.3328 -1.1945 -1.3393
  371MOL0     H48960   7.545   9.236   1.427  1.8175 -1.3246 -1.0371
  371MOL0     H48961   7.735   9.147   1.549 -0.2049  0.2374 -3.4489
  371MOL0     H48962   7.706   9.009   1.937  2.3523  2.0222 -0.7572
  371MOL0     H48963   7.859   8.942   1.907 -0.9925 -0.0726  2.9477
  371MOL0     H48964   7.712   8.755   1.990  1.1429  2.5881  1.1043
  371MOL0     H48965   7.613   8.775   1.846  0.0648  1.8076 -1.4884
  371MOL0     H48966   7.919   8.734   1.838  0.3619 -1.4968  0.3401
  371MOL0     H48967   7.817   8.727   1.708  2.2672  1.8393  0.1143
  371MOL0     H48968   7.738   8.531   1.926 -1.8255  1.7015 -0.9385
  371MOL0     H48969   7.742   8.504   1.752 -0.9707 -0.7397  0.3783
  371MOL0     H48970   8.118   8.391   1.953 -1.2290 -1.7564  0.9267
  371MOL0     H48971   7.493   8.922   1.808  0.6187 -0.1304 -0.0360
  371MOL0     H48972   7.297   8.981   1.685  1.6382 -2.2250  0.0234
  372MOL0     O48973   7.036   4.101   8.521 -0.0537 -0.6842 -0.3482
  372MOL0     C48974   7.073   4.212   8.567 -0.4633 -0.2284 -0.2591
  372MOL0     O48975   7.002   4.289   8.652 -0.0625 -0.6582 -0.2802
  372MOL0     C48976   6.875   4.248   8.692 -0.3861  0.0876  0.7477
  372MOL0     C48977   6.786   4.191   8.606  0.8186 -0.2712  0.2829
  372MOL0     C48978   6.653   4.173   8.647 -0.3928  1.2298 -0.5385
  372MOL0     C48979   6.601   4.211   8.781  0.4370  0.0518  0.0209
  372MOL0     O48980   6.464   4.223   8.805  0.5399 -0.4696 -0.1226
  372MOL0     C48981   6.414   4.160   8.930 -0.1369 -0.2695  0.0075
  372MOL0     C48982   6.271   4.125   8.908  0.1974 -0.5689  0.1409
  372MOL0     C48983   6.234   4.036   8.794  0.4784  0.4056 -0.7146
  372MOL0     C48984   6.079   4.042   8.792  0.0010  0.1635  0.2264
  372MOL0     C48985   6.023   3.915   8.724  0.2033  0.7278  0.8813
  372MOL0     C48986   5.868   3.896   8.755  0.1686 -0.1750  0.5037
  372MOL0     C48987   5.770   3.976   8.672  0.2926  0.3646  0.0395
  372MOL0     C48988   5.629   3.970   8.720 -0.0012  1.0309  0.3799
  372MOL0     N48989   5.532   4.009   8.613 -0.2870 -0.2621  0.1041
  372MOL0     C48990   5.550   4.126   8.547 -0.3622  0.7366  0.1882
  372MOL0     C48991   5.502   4.110   8.426  0.4844 -0.3759 -0.4262
  372MOL0     C48992   5.496   4.219   8.323 -0.1803 -0.1362 -0.6279
  372MOL0     C48993   5.343   4.260   8.305 -0.6040  0.6086 -0.0017
  372MOL0     C48994   5.346   4.369   8.204 -0.1503 -0.9837 -0.1954
  372MOL0     C48995   5.197   4.423   8.183 -0.0771 -0.1829 -0.4990
  372MOL0     O48996   5.166   4.510   8.293  0.6192  0.2059 -0.0981
  372MOL0     C48997   5.054   4.588   8.286  0.1256 -0.8508  0.2193
  372MOL0     C48998   5.011   4.647   8.406  0.8766  0.7386 -0.1522
  372MOL0     C48999   4.888   4.717   8.424 -0.5898  0.1973  0.0798
  372MOL0     C49000   4.812   4.752   8.307 -0.9275  0.4402 -0.0757
  372MOL0     C49001   4.677   4.818   8.323 -0.2594 -0.1144  0.6293
  372MOL0     O49002   4.613   4.874   8.216  0.2887 -0.3007 -0.2731
  372MOL0     C49003   4.535   4.985   8.245  0.9092 -1.1223  0.0518
  372MOL0     C49004   4.404   4.983   8.197 -0.7220  0.1676 -0.1797
  372MOL0     C49005   4.319   5.085   8.219  0.3538  0.1196 -0.4597
  372MOL0     C49006   4.354   5.180   8.310 -0.1752  0.6334 -0.8140
  372MOL0     O49007   4.265   5.279   8.333 -0.9975  0.5718 -0.1655
  372MOL0     C49008   4.155   5.240   8.411  0.6357  0.3408 -0.5308
  372MOL0     C49009   4.033   5.208   8.324 -0.4520  0.3788 -0.5959
  372MOL0     C49010   3.911   5.304   8.344  0.9819 -0.0300  0.1659
  372MOL0     C49011   3.784   5.246   8.285  0.0853 -0.6573 -0.7250
  372MOL0     C49012   3.649   5.305   8.287  0.6349 -0.1522 -0.3288
  372MOL0     C49013   3.525   5.204   8.270  0.1682 -0.3383 -1.1375
  372MOL0     C49014   3.399   5.272   8.296  0.6670  0.3902  0.6893
  372MOL0     C49015   3.306   5.159   8.340 -0.5838  0.2337  0.5899
  372MOL0    Cl49016   3.142   5.222   8.346 -0.3001 -0.2887  0.1811
  372MOL0     C49017   4.478   5.187   8.364  0.0764  0.3522  0.0318
  372MOL0     C49018   4.572   5.093   8.324 -1.3936  0.2257  0.2107
  372MOL0     O49019   4.626   4.806   8.441  0.3830 -0.1718  0.9493
  372MOL0     C49020   4.861   4.710   8.179 -0.3403  0.6337  0.5251
  372MOL0     C49021   4.975   4.628   8.176  1.0223 -0.4504  0.8102
  372MOL0     N49022   5.462   3.976   8.420  0.0270  0.7373  0.2618
  372MOL0     N49023   5.481   3.913   8.528  0.5051 -0.7337 -0.0660
  372MOL0     C49024   6.698   4.259   8.865 -0.1891  0.9716 -0.1610
  372MOL0     C49025   6.833   4.276   8.823 -0.2043  1.1327  0.3260
  372MOL0     C49026   7.206   4.273   8.531 -0.3563 -0.8663 -0.1437
  372MOL0     C49027   7.251   4.401   8.578 -0.2944  0.4085  0.2452
  372MOL0     C49028   7.366   4.461   8.536  0.6414  0.7557 -0.5636
  372MOL0     C49029   7.455   4.391   8.454 -0.4855 -0.4869  0.5958
  372MOL0     O49030   7.572   4.454   8.429  0.6361 -0.2822  0.3734
  372MOL0     C49031   7.670   4.382   8.353  0.0783  0.8574  0.3207
  372MOL0     C49032   7.641   4.375   8.208 -0.1537  0.7525  0.8857
  372MOL0     C49033   7.597   4.509   8.148 -0.4665  0.3874  0.4184
  372MOL0     C49034   7.607   4.491   7.994  0.1030  0.5148 -0.8597
  372MOL0     C49035   7.748   4.464   7.938 -0.1779 -0.4059 -0.6659
  372MOL0     C49036   7.867   4.435   7.911  0.4513 -0.0130  0.2707
  372MOL0     C49037   7.426   4.265   8.412  0.7241 -0.2193  0.3887
  372MOL0     C49038   7.303   4.206   8.447  0.4715 -0.8006 -0.0406
  372MOL0     H49039   6.797   4.174   8.499  2.2103  1.8729  0.0389
  372MOL0     H49040   6.577   4.154   8.573  0.5063 -0.0867 -1.1673
  372MOL0     H49041   6.419   4.220   9.021  1.1963 -1.4899  0.7805
  372MOL0     H49042   6.478   4.075   8.956  1.2787  0.3298 -1.3470
  372MOL0     H49043   6.221   4.221   8.892 -0.2442 -0.9837 -1.1002
  372MOL0     H49044   6.231   4.074   8.996 -0.6606 -0.5905 -0.2472
  372MOL0     H49045   6.267   3.935   8.820 -0.0637  0.2677 -0.5464
  372MOL0     H49046   6.289   4.061   8.703  2.5734  1.2917  0.7276
  372MOL0     H49047   6.023   4.045   8.886 -1.4804 -1.4517 -0.5510
  372MOL0     H49048   6.046   4.123   8.726 -2.9633 -1.8545 -0.9850
  372MOL0     H49049   6.086   3.836   8.766  1.0240  2.3573  2.8997
  372MOL0     H49050   6.049   3.919   8.618  0.2324  3.8027  0.9138
  372MOL0     H49051   5.848   3.934   8.855  1.1239 -0.5211  0.8378
  372MOL0     H49052   5.849   3.788   8.753 -2.0791  0.1611  0.9596
  372MOL0     H49053   5.810   4.077   8.659  1.4981 -0.3769 -2.4551
  372MOL0     H49054   5.756   3.936   8.572 -1.8924  3.5909 -1.1214
  372MOL0     H49055   5.619   4.030   8.810 -0.0809  0.9116  0.4511
  372MOL0     H49056   5.607   3.870   8.758 -0.9021  1.2354  0.4226
  372MOL0     H49057   5.599   4.211   8.593  1.8436 -1.3539  1.9607
  372MOL0     H49058   5.540   4.192   8.226  2.3873  0.0009  0.4273
  372MOL0     H49059   5.560   4.303   8.351 -1.2708 -0.3546  2.9824
  372MOL0     H49060   5.301   4.301   8.397 -2.9419  0.0208 -0.7558
  372MOL0     H49061   5.273   4.183   8.272 -1.5000  2.6936 -3.3907
  372MOL0     H49062   5.402   4.453   8.245 -2.8616  0.7903  0.0874
  372MOL0     H49063   5.401   4.344   8.113  3.0275 -0.2421  1.3959
  372MOL0     H49064   5.124   4.342   8.177 -0.2444 -0.3070  2.1277
  372MOL0     H49065   5.196   4.472   8.085  0.0656 -0.4800 -0.6499
  372MOL0     H49066   5.060   4.619   8.498  0.6883 -1.4355 -0.6639
  372MOL0     H49067   4.853   4.741   8.524 -1.2562  2.1223 -0.5684
  372MOL0     H49068   4.382   4.898   8.133  2.1160  0.7450 -2.1034
  372MOL0     H49069   4.223   5.081   8.168  0.7298  0.8160 -1.2463
  372MOL0     H49070   4.136   5.324   8.478 -1.5116  0.4018 -1.1514
  372MOL0     H49071   4.177   5.155   8.478  1.4542  1.6019  0.8550
  372MOL0     H49072   4.005   5.105   8.348  2.3407 -0.0201  1.5007
  372MOL0     H49073   4.057   5.203   8.217  0.6462  0.2217 -0.3522
  372MOL0     H49074   3.922   5.409   8.316 -2.2092  0.9240  2.0269
  372MOL0     H49075   3.897   5.309   8.452  0.1793 -0.9088  0.1119
  372MOL0     H49076   3.813   5.222   8.182  2.4223  0.0910 -0.2958
  372MOL0     H49077   3.767   5.151   8.336  3.4046  0.2621  2.5661
  372MOL0     H49078   3.636   5.390   8.219  0.8367 -0.5499 -0.8719
  372MOL0     H49079   3.618   5.339   8.386 -1.8700  3.1473 -2.0419
  372MOL0     H49080   3.533   5.108   8.321  0.0308 -0.1800 -0.8132
  372MOL0     H49081   3.528   5.157   8.171  1.7879 -1.9316 -0.3827
  372MOL0     H49082   3.395   5.356   8.367 -0.3696  0.4411  0.5981
  372MOL0     H49083   3.372   5.308   8.196  5.1938  1.3960 -0.3840
  372MOL0     H49084   3.321   5.124   8.442 -0.6572 -1.1069  0.1535
  372MOL0     H49085   3.311   5.076   8.269  0.8361  0.6256  0.2143
  372MOL0     H49086   4.500   5.257   8.444 -0.7260 -0.3794  0.9177
  372MOL0     H49087   4.671   5.105   8.366 -0.2451 -0.0517 -2.2765
  372MOL0     H49088   4.808   4.716   8.084  0.3505 -0.7711  0.0113
  372MOL0     H49089   4.999   4.592   8.076 -0.4500  1.3575 -0.2477
  372MOL0     H49090   6.676   4.292   8.966  2.1604 -2.1558  1.5716
  372MOL0     H49091   6.903   4.335   8.881 -0.1854 -0.1212  1.6283
  372MOL0     H49092   7.185   4.456   8.644  1.2472  3.1811 -0.3621
  372MOL0     H49093   7.400   4.562   8.559  0.3374  0.7941 -0.2740
  372MOL0     H49094   7.679   4.279   8.391 -2.6563  0.3614 -0.1569
  372MOL0     H49095   7.766   4.431   8.371  0.3305  0.2451  0.6899
  372MOL0     H49096   7.729   4.323   8.169 -0.7586 -0.5083  1.1542
  372MOL0     H49097   7.555   4.314   8.179  1.3578 -0.9726 -0.1778
  372MOL0     H49098   7.670   4.588   8.170 -0.1823  0.2792 -0.1345
  372MOL0     H49099   7.494   4.535   8.175 -0.6454 -0.8117  0.9689
  372MOL0     H49100   7.545   4.414   7.947 -1.2481  1.1513 -0.1578
  372MOL0     H49101   7.566   4.581   7.948 -1.8824 -1.4894 -3.3058
  372MOL0     H49102   7.966   4.398   7.891  0.2988 -0.5048  0.4096
  372MOL0     H49103   7.489   4.202   8.350  0.6698  2.3028 -2.4748
  372MOL0     H49104   7.285   4.106   8.410  0.3719 -0.5917 -0.5563
  373MOL0     O49105   0.256   8.754   9.745 -0.0616 -0.3018  0.4288
  373MOL0     C49106   0.199   8.757   9.643  0.2178 -0.7330  0.8127
  373MOL0     O49107   0.071   8.734   9.618 -0.3911 -0.8957  0.5141
  373MOL0     C49108  -0.021   8.732   9.716  0.1637  0.9646 -0.0974
  373MOL0     C49109  -0.132   8.806   9.700  0.0770  0.0796 -0.2552
  373MOL0     C49110  -0.245   8.811   9.788 -0.6318  0.0698 -0.2068
  373MOL0     C49111  -0.247   8.739   9.910  0.6724  0.0422  0.3631
  373MOL0     O49112  -0.368   8.737   9.983  0.1528  0.0005  0.7914
  373MOL0     C49113  -0.364   8.676  10.114  0.6189 -0.3108 -1.0789
  373MOL0     C49114  -0.481   8.731  10.196 -0.1207 -0.8776 -0.1048
  373MOL0     C49115  -0.611   8.760  10.108 -0.5286  0.0888 -0.0986
  373MOL0     C49116  -0.730   8.777  10.198  0.0583 -0.3380 -0.4863
  373MOL0     C49117  -0.860   8.797  10.122 -0.3985 -0.8189 -0.7954
  373MOL0     C49118  -0.856   8.915  10.032  0.2514 -0.2499 -0.2917
  373MOL0     C49119  -0.996   8.948   9.971 -0.4273 -0.9051  0.6978
  373MOL0     C49120  -1.008   8.890   9.836  0.6862 -0.3341  0.1231
  373MOL0     N49121  -1.092   8.961   9.734 -0.1646 -0.0510  0.0642
  373MOL0     C49122  -1.168   9.076   9.745 -0.2285 -0.2135  0.0136
  373MOL0     C49123  -1.198   9.106   9.616  0.7427  0.5453  0.7571
  373MOL0     C49124  -1.288   9.216   9.566 -0.0370 -0.0190 -0.5958
  373MOL0     C49125  -1.440   9.201   9.593 -0.9704  0.7405  0.0686
  373MOL0     C49126  -1.495   9.327   9.675 -0.3601  0.3692  0.2044
  373MOL0     C49127  -1.640   9.308   9.711 -0.3721  0.4791  0.0782
  373MOL0     O49128  -1.686   9.429   9.775 -0.1462 -0.0927  0.3324
  373MOL0     C49129  -1.822   9.454   9.794 -0.4179  0.1655  0.0693
  373MOL0     C49130  -1.857   9.578   9.838  0.2806  0.5144 -0.1216
  373MOL0     C49131  -1.993   9.621   9.854  0.7443  0.3331 -0.3115
  373MOL0     C49132  -2.097   9.531   9.820 -0.0594 -0.4405  0.5170
  373MOL0     C49133  -2.238   9.564   9.835 -0.2505  0.5058 -0.4330
  373MOL0     O49134  -2.272   9.673   9.911 -0.0730  0.4005  0.5146
  373MOL0     C49135  -2.400   9.711   9.935  0.5700 -1.2342  0.3878
  373MOL0     C49136  -2.513   9.699   9.848  0.1423  0.0934 -0.4266
  373MOL0     C49137  -2.644   9.737   9.886 -1.1196  0.3614  0.5635
  373MOL0     C49138  -2.669   9.788  10.011  0.4863 -0.2687  0.0636
  373MOL0     O49139  -2.792   9.838  10.053 -0.6162 -0.4965  0.5255
  373MOL0     C49140  -2.911   9.821   9.975  0.0358 -1.3973  0.6619
  373MOL0     C49141  -3.055   9.832  10.045 -0.4730 -1.1210  0.2351
  373MOL0     C49142  -3.071   9.717  10.145  0.0535  0.4823 -0.0572
  373MOL0     C49143  -3.215   9.717  10.187  0.6817  1.6933 -0.8986
  373MOL0     C49144  -3.243   9.601  10.286 -0.1885  0.4085 -0.9518
  373MOL0     C49145  -3.379   9.576  10.339 -1.0533  1.0870 -0.0509
  373MOL0     C49146  -3.439   9.685  10.421  0.8204 -0.1932  0.7967
  373MOL0     C49147  -3.587   9.664  10.471  0.5616  0.1045 -0.3273
  373MOL0    Cl49148  -3.600   9.572  10.618 -0.0239 -0.2565  0.4177
  373MOL0     C49149  -2.563   9.819  10.093  0.2812  0.1088 -0.3848
  373MOL0     C49150  -2.431   9.784  10.054 -0.7800 -0.6917 -0.7726
  373MOL0     O49151  -2.313   9.487   9.774 -0.1082 -0.2985  0.0206
  373MOL0     C49152  -2.061   9.407   9.766  0.0289  0.0729 -0.5626
  373MOL0     C49153  -1.929   9.366   9.759  0.0886  0.1724  0.8368
  373MOL0     N49154  -1.127   9.026   9.527  0.1059  0.2593 -1.0315
  373MOL0     N49155  -1.073   8.942   9.604  0.2805  0.0796 -0.7139
  373MOL0     C49156  -0.140   8.651   9.919 -0.7387  0.6529 -0.5733
  373MOL0     C49157  -0.016   8.651   9.831  0.0048  0.4673 -0.4957
  373MOL0     C49158   0.293   8.772   9.523 -0.0204 -0.2318  0.5991
  373MOL0     C49159   0.428   8.739   9.539 -0.2524  0.4041 -0.8663
  373MOL0     C49160   0.519   8.751   9.430  0.1227 -0.8791 -0.1923
  373MOL0     C49161   0.467   8.793   9.301 -0.5250  0.3320  0.4266
  373MOL0     O49162   0.559   8.793   9.198  0.7357 -0.3329 -0.5259
  373MOL0     C49163   0.523   8.753   9.068 -0.7371  0.0293  0.0036
  373MOL0     C49164   0.636   8.664   9.015  0.0646 -0.7964  0.1388
  373MOL0     C49165   0.630   8.514   9.021 -0.7517  0.8432  0.8293
  373MOL0     C49166   0.755   8.426   8.989  0.2452  0.1861 -0.1426
  373MOL0     C49167   0.792   8.431   8.847  0.3905  0.2192 -0.2552
  373MOL0     C49168   0.816   8.461   8.732  0.3256 -0.3333 -0.4244
  373MOL0     C49169   0.336   8.829   9.285  0.1112 -0.1615 -0.7828
  373MOL0     C49170   0.248   8.818   9.397 -0.5271 -0.0907 -1.0095
  373MOL0     H49171  -0.130   8.860   9.606 -1.0078 -2.2508 -1.7074
  373MOL0     H49172  -0.329   8.869   9.752 -0.9182 -0.4438 -0.3732
  373MOL0     H49173  -0.269   8.681  10.168  0.4335  1.4357 -0.8584
  373MOL0     H49174  -0.389   8.570  10.106 -0.3179 -0.3703  1.5718
  373MOL0     H49175  -0.448   8.820  10.250  2.3906  0.2899 -3.2344
  373MOL0     H49176  -0.521   8.660  10.269  1.7307 -1.9611 -0.0895
  373MOL0     H49177  -0.634   8.682  10.035  0.5537  0.7883 -1.2376
  373MOL0     H49178  -0.599   8.858  10.061  0.9410  2.0050  3.8038
  373MOL0     H49179  -0.742   8.690  10.263  1.3440 -0.0909  0.1114
  373MOL0     H49180  -0.715   8.860  10.268  0.2873  0.5055 -1.5182
  373MOL0     H49181  -0.940   8.818  10.193 -0.3679  0.6365 -1.1675
  373MOL0     H49182  -0.884   8.702  10.071  1.3694 -2.5054  1.3043
  373MOL0     H49183  -0.783   8.905   9.951  0.6612  1.5179 -0.1860
  373MOL0     H49184  -0.823   9.005  10.085 -1.9341  1.2422 -1.3075
  373MOL0     H49185  -1.081   8.911  10.029 -1.2866 -0.7444 -0.4204
  373MOL0     H49186  -1.008   9.056   9.955  3.1262 -0.5631 -0.4742
  373MOL0     H49187  -1.057   8.793   9.850  1.2543 -1.0593 -2.3210
  373MOL0     H49188  -0.910   8.873   9.788 -0.7800 -1.0380 -2.9019
  373MOL0     H49189  -1.199   9.128   9.835  2.5505  0.9496  0.4102
  373MOL0     H49190  -1.269   9.233   9.460 -0.5093  0.3425 -0.6224
  373MOL0     H49191  -1.247   9.305   9.613  1.6967 -1.3391  0.5478
  373MOL0     H49192  -1.451   9.108   9.649 -0.7147  0.8109  0.2388
  373MOL0     H49193  -1.496   9.192   9.499 -0.4286  2.6885 -0.4889
  373MOL0     H49194  -1.437   9.335   9.767  0.9526 -2.3410 -0.2781
  373MOL0     H49195  -1.490   9.409   9.602  1.0201  1.2613  1.2490
  373MOL0     H49196  -1.654   9.217   9.770 -1.2443  0.3460 -0.3110
  373MOL0     H49197  -1.696   9.304   9.617  1.3181  1.5316 -1.0268
  373MOL0     H49198  -1.774   9.636   9.878  2.2288 -2.3360  0.2856
  373MOL0     H49199  -2.023   9.718   9.894  0.1436  0.5040 -1.1534
  373MOL0     H49200  -2.505   9.650   9.751  2.8213  0.7881 -0.6334
  373MOL0     H49201  -2.714   9.747   9.804  0.4989  2.7911 -0.6476
  373MOL0     H49202  -2.902   9.719   9.937  2.3937 -1.5827  1.5479
  373MOL0     H49203  -2.904   9.880   9.884  0.8227 -1.6180  0.5711
  373MOL0     H49204  -3.122   9.824   9.959 -0.2263  1.1183 -0.2250
  373MOL0     H49205  -3.067   9.928  10.095  3.4020  0.0059 -0.7334
  373MOL0     H49206  -3.004   9.732  10.230 -0.2969 -1.7445  0.6593
  373MOL0     H49207  -3.044   9.621  10.102 -1.1215 -1.2040  2.6891
  373MOL0     H49208  -3.249   9.815  10.221  1.4346  1.7125 -0.1774
  373MOL0     H49209  -3.266   9.697  10.092 -0.5974  1.0135 -0.0977
  373MOL0     H49210  -3.180   9.624  10.372 -0.0846  2.0065 -1.4381
  373MOL0     H49211  -3.218   9.508  10.234  0.4129 -0.0125  0.0707
  373MOL0     H49212  -3.380   9.490  10.407  0.1549  0.7251 -0.4726
  373MOL0     H49213  -3.444   9.549  10.255  0.7150 -0.5733 -0.9664
  373MOL0     H49214  -3.372   9.703  10.506  0.4744  3.4252  0.4449
  373MOL0     H49215  -3.446   9.782  10.372  0.2553 -0.7908 -0.3422
  373MOL0     H49216  -3.648   9.627  10.388 -0.4576 -0.4390  0.6412
  373MOL0     H49217  -3.624   9.763  10.498  0.0499  0.1686 -1.2324
  373MOL0     H49218  -2.582   9.853  10.194  1.9408 -1.5896  0.5826
  373MOL0     H49219  -2.351   9.799  10.126 -0.4585 -1.2306 -0.9987
  373MOL0     H49220  -2.135   9.331   9.740 -0.6959  1.6221 -3.4186
  373MOL0     H49221  -1.911   9.264   9.727  2.1405  0.2709  1.5210
  373MOL0     H49222  -0.138   8.577   9.998 -0.9966  0.9834 -0.2561
  373MOL0     H49223   0.070   8.587   9.846  0.7989  1.5883 -0.1307
  373MOL0     H49224   0.472   8.703   9.631 -0.1464 -1.7881 -1.7161
  373MOL0     H49225   0.622   8.719   9.440  1.4443  2.4736 -1.7758
  373MOL0     H49226   0.511   8.837   9.000 -2.4624  0.9287  1.3535
  373MOL0     H49227   0.429   8.697   9.068 -0.9582  0.3707 -1.0411
  373MOL0     H49228   0.653   8.695   8.911  0.9525 -1.3742  0.1007
  373MOL0     H49229   0.725   8.686   9.075  0.0589  0.9086 -0.4301
  373MOL0     H49230   0.551   8.480   8.954 -0.1627 -0.6744  0.8742
  373MOL0     H49231   0.597   8.496   9.123  0.2023 -1.5019  0.7991
  373MOL0     H49232   0.834   8.460   9.057  0.8114  1.8118 -1.5241
  373MOL0     H49233   0.737   8.321   9.015 -2.7653  0.2899 -1.4381
  373MOL0     H49234   0.825   8.476   8.626 -3.6407 -1.8353 -1.1375
  373MOL0     H49235   0.290   8.852   9.189 -0.5362 -2.7948 -1.1703
  373MOL0     H49236   0.143   8.844   9.395 -0.2479  1.0775 -1.9635
  374MOL0     O49237   6.404   4.995   5.754 -0.2144 -0.1596  0.3144
  374MOL0     C49238   6.371   4.952   5.647  1.1320  0.5595 -0.0531
  374MOL0     O49239   6.448   4.880   5.563 -0.3137 -1.1117 -0.0223
  374MOL0     C49240   6.584   4.849   5.575 -0.0044 -0.4264 -0.4386
  374MOL0     C49241   6.683   4.939   5.626  1.0385 -0.6820  0.3904
  374MOL0     C49242   6.820   4.906   5.628 -0.0306  0.2224  0.0035
  374MOL0     C49243   6.868   4.781   5.582  0.7583 -0.0740 -0.0612
  374MOL0     O49244   6.988   4.731   5.570  0.6945  0.0645 -0.1167
  374MOL0     C49245   7.098   4.825   5.582  0.1380  0.8636 -0.2201
  374MOL0     C49246   7.226   4.742   5.569 -0.1086  0.2117  0.0040
  374MOL0     C49247   7.360   4.829   5.571  0.2621 -0.2875 -0.0175
  374MOL0     C49248   7.485   4.750   5.559 -0.3808 -0.6388  0.0428
  374MOL0     C49249   7.595   4.832   5.516 -0.8166 -0.1709 -0.1580
  374MOL0     C49250   7.730   4.774   5.562  0.0513  0.0387  0.6315
  374MOL0     C49251   7.839   4.868   5.510 -0.6732 -0.7416 -0.5987
  374MOL0     C49252   7.906   4.947   5.617  0.4874  1.1279 -0.8355
  374MOL0     N49253   7.827   5.072   5.635 -0.4809 -0.0905 -0.0386
  374MOL0     C49254   7.782   5.138   5.742 -0.2546  0.1048  0.3597
  374MOL0     C49255   7.719   5.248   5.693  0.1014  0.4221 -0.1847
  374MOL0     C49256   7.639   5.349   5.764  0.4893 -0.0210  0.2306
  374MOL0     C49257   7.489   5.323   5.755 -0.0083 -0.0196 -0.0913
  374MOL0     C49258   7.435   5.202   5.836 -0.3705 -0.2314  0.1936
  374MOL0     C49259   7.280   5.189   5.808  0.4123 -0.8345  0.0860
  374MOL0     O49260   7.257   5.188   5.662  0.6607 -0.6684  0.2425
  374MOL0     C49261   7.121   5.200   5.621 -0.1871 -1.1532 -0.0246
  374MOL0     C49262   7.012   5.210   5.712 -0.4982 -0.2187 -0.5021
  374MOL0     C49263   6.880   5.237   5.669 -0.3970 -0.2949 -0.4124
  374MOL0     C49264   6.863   5.261   5.527  1.0500 -0.0929 -0.1749
  374MOL0     C49265   6.733   5.293   5.471  0.2587  0.4235 -0.4293
  374MOL0     O49266   6.622   5.274   5.547  0.4366 -0.9716  0.5371
  374MOL0     C49267   6.501   5.275   5.480  1.2807 -0.2968  0.1461
  374MOL0     C49268   6.396   5.355   5.528 -0.2505 -0.6926  0.0326
  374MOL0     C49269   6.276   5.371   5.466 -0.8953  0.3755  0.7840
  374MOL0     C49270   6.242   5.285   5.355 -0.7714 -0.0029  0.3136
  374MOL0     O49271   6.112   5.305   5.316  0.3562  0.2443  0.3521
  374MOL0     C49272   6.063   5.239   5.196 -0.1734  0.2562 -0.2890
  374MOL0     C49273   5.918   5.259   5.227  0.2065 -0.3629  0.5280
  374MOL0     C49274   5.865   5.405   5.215  0.2119  0.5059 -0.1961
  374MOL0     C49275   5.716   5.421   5.256 -0.3950  0.0767 -0.2405
  374MOL0     C49276   5.701   5.440   5.411  0.6603 -0.1844  0.0995
  374MOL0     C49277   5.556   5.449   5.455  0.5287 -0.5441 -0.1079
  374MOL0     C49278   5.480   5.574   5.396  0.7967  1.2281  0.5243
  374MOL0     C49279   5.356   5.522   5.325 -0.8652  0.9810 -0.0339
  374MOL0    Cl49280   5.255   5.437   5.444 -0.4543 -0.3699  0.0737
  374MOL0     C49281   6.341   5.203   5.304 -0.7131  0.0439 -0.3578
  374MOL0     C49282   6.465   5.195   5.370  0.4683 -0.1755  0.0108
  374MOL0     O49283   6.732   5.321   5.351  0.6386  0.5165 -0.8338
  374MOL0     C49284   6.967   5.251   5.435  1.0001  0.0814  0.1075
  374MOL0     C49285   7.100   5.244   5.485 -0.3405  1.0406 -0.0103
  374MOL0     N49286   7.731   5.259   5.559 -0.0842 -0.0633  0.8685
  374MOL0     N49287   7.800   5.158   5.527 -1.0449  0.3933  0.4312
  374MOL0     C49288   6.764   4.694   5.544  0.2218  0.4732  0.5793
  374MOL0     C49289   6.627   4.719   5.533  0.3170 -0.6668 -0.1528
  374MOL0     C49290   6.230   4.980   5.602  0.1700  0.0294 -0.1447
  374MOL0     C49291   6.165   4.890   5.513 -0.4520 -0.2545  0.7708
  374MOL0     C49292   6.025   4.901   5.481 -0.2230  1.2062  0.1164
  374MOL0     C49293   5.951   5.000   5.551 -0.8494 -1.2942  0.4474
  374MOL0     O49294   5.818   5.024   5.537  0.1013  0.2669 -0.7987
  374MOL0     C49295   5.735   4.910   5.513  0.1462 -0.1639  0.4614
  374MOL0     C49296   5.731   4.799   5.618 -0.8090 -0.4088 -0.1765
  374MOL0     C49297   5.665   4.672   5.563 -0.9294 -0.6099 -0.8954
  374MOL0     C49298   5.646   4.566   5.683  0.3067 -1.0150  0.5793
  374MOL0     C49299   5.561   4.455   5.647  0.3027 -0.2824 -0.4860
  374MOL0     C49300   5.493   4.356   5.629  0.5215  0.1003 -0.5049
  374MOL0     C49301   6.015   5.088   5.639 -0.2471 -0.6467 -0.4369
  374MOL0     C49302   6.153   5.077   5.665 -0.8066  1.0518  0.7586
  374MOL0     H49303   6.654   5.033   5.671  0.6200 -0.9979  0.8026
  374MOL0     H49304   6.882   4.988   5.664 -0.0133  0.6964 -1.0730
  374MOL0     H49305   7.098   4.886   5.673 -0.9171 -1.5966  1.5390
  374MOL0     H49306   7.096   4.907   5.510 -2.6033  1.8894  0.8620
  374MOL0     H49307   7.216   4.698   5.470  0.1729 -0.6379  0.3468
  374MOL0     H49308   7.222   4.662   5.643  0.5989  0.9780  0.9020
  374MOL0     H49309   7.364   4.887   5.664  0.8237 -1.0002  0.4080
  374MOL0     H49310   7.355   4.905   5.493 -1.0380  0.9756  1.2224
  374MOL0     H49311   7.511   4.713   5.658  0.5955 -0.2141 -0.0427
  374MOL0     H49312   7.474   4.665   5.491 -1.1851 -0.0495 -0.5873
  374MOL0     H49313   7.597   4.936   5.552  3.4480  0.2065 -0.8734
  374MOL0     H49314   7.597   4.830   5.407 -0.2966  4.3003 -0.4468
  374MOL0     H49315   7.744   4.677   5.514 -0.4676 -0.3580  1.2637
  374MOL0     H49316   7.733   4.752   5.669 -0.4259 -1.8436  0.2920
  374MOL0     H49317   7.915   4.798   5.474  0.8104  0.2258  0.5284
  374MOL0     H49318   7.812   4.933   5.427 -1.0295  1.0084  0.8417
  374MOL0     H49319   8.007   4.971   5.583  0.5847 -0.9332 -2.1420
  374MOL0     H49320   7.917   4.899   5.715 -1.4115  0.3813 -0.9446
  374MOL0     H49321   7.796   5.116   5.847 -0.0154  2.2964  0.8397
  374MOL0     H49322   7.656   5.437   5.701 -0.6494  1.2011  1.5624
  374MOL0     H49323   7.674   5.363   5.867 -0.8219 -0.9063  0.8244
  374MOL0     H49324   7.475   5.315   5.646  1.4982  1.2548 -0.4112
  374MOL0     H49325   7.433   5.409   5.794 -0.7363  0.3296 -1.8086
  374MOL0     H49326   7.491   5.117   5.798 -3.1422 -1.5670 -1.2445
  374MOL0     H49327   7.450   5.209   5.944  1.8305 -4.0135  0.3045
  374MOL0     H49328   7.223   5.263   5.863  1.7581 -0.1800  0.6570
  374MOL0     H49329   7.247   5.091   5.844  3.7352 -1.8152  0.8482
  374MOL0     H49330   7.030   5.187   5.816 -0.2401 -1.3358 -0.7735
  374MOL0     H49331   6.801   5.254   5.742 -0.5047 -0.6984 -0.4369
  374MOL0     H49332   6.420   5.431   5.602  1.1355  0.7747 -1.8353
  374MOL0     H49333   6.212   5.450   5.506 -0.4836  1.0099  0.1899
  374MOL0     H49334   6.094   5.134   5.189  0.1538  0.4490 -2.5895
  374MOL0     H49335   6.077   5.285   5.097 -2.4066  0.7023 -0.4718
  374MOL0     H49336   5.900   5.220   5.327 -1.5581  0.3682  0.5442
  374MOL0     H49337   5.855   5.204   5.156 -1.1479 -0.4170  1.7332
  374MOL0     H49338   5.867   5.437   5.110 -0.7952  0.0119 -0.3854
  374MOL0     H49339   5.936   5.466   5.270 -0.7079  1.8923 -0.4995
  374MOL0     H49340   5.677   5.503   5.196 -2.4520 -1.1874 -0.7548
  374MOL0     H49341   5.674   5.329   5.214  2.0468 -0.4699 -1.6679
  374MOL0     H49342   5.755   5.526   5.452 -0.3831  1.2064 -1.3500
  374MOL0     H49343   5.744   5.353   5.462 -0.4373 -0.1830  1.0729
  374MOL0     H49344   5.547   5.471   5.562  0.9727  2.0021 -0.5259
  374MOL0     H49345   5.507   5.354   5.433 -1.9254  0.8687 -1.0641
  374MOL0     H49346   5.456   5.641   5.479  0.2636  1.1191  0.4596
  374MOL0     H49347   5.549   5.621   5.325 -0.7304 -0.0005 -1.8939
  374MOL0     H49348   5.382   5.459   5.240  0.0219  1.2646  0.0180
  374MOL0     H49349   5.299   5.601   5.276  0.5845  1.2171 -1.4292
  374MOL0     H49350   6.310   5.151   5.213 -5.2662 -2.2845  2.1341
  374MOL0     H49351   6.533   5.122   5.329 -0.5704  0.1450 -2.4526
  374MOL0     H49352   6.941   5.263   5.330 -0.4011 -2.0349  0.1405
  374MOL0     H49353   7.184   5.246   5.417  1.1899 -1.6299  1.6323
  374MOL0     H49354   6.781   4.598   5.495 -0.0995  0.9300 -0.4570
  374MOL0     H49355   6.565   4.638   5.496  0.0964 -0.1965 -0.8222
  374MOL0     H49356   6.216   4.806   5.467  0.5738 -0.8587  2.9045
  374MOL0     H49357   5.983   4.826   5.414 -0.1640  1.1392  0.1534
  374MOL0     H49358   5.774   4.878   5.416  0.4460  2.9529 -0.5537
  374MOL0     H49359   5.632   4.939   5.489  0.3758  2.1514  1.9187
  374MOL0     H49360   5.834   4.782   5.651 -0.7867 -0.5882 -0.3375
  374MOL0     H49361   5.672   4.848   5.696  2.3741  1.1478  1.4443
  374MOL0     H49362   5.719   4.632   5.476  0.0674  0.5085 -0.8137
  374MOL0     H49363   5.563   4.695   5.531 -0.7382 -2.3278 -2.9692
  374MOL0     H49364   5.745   4.524   5.707  0.0993 -2.1915 -0.5014
  374MOL0     H49365   5.592   4.607   5.768 -1.9982 -3.2380  0.3170
  374MOL0     H49366   5.437   4.266   5.609  3.7745 -2.6188  1.5590
  374MOL0     H49367   5.957   5.164   5.691  1.7439  0.1822  0.7293
  374MOL0     H49368   6.194   5.137   5.745  0.3727  0.5894  0.5258
  375MOL0     O49369   2.837   8.762  10.164 -0.5475  0.0898 -0.1747
  375MOL0     C49370   2.831   8.723  10.048 -0.5325  0.7886 -1.1891
  375MOL0     O49371   2.922   8.750   9.947  0.1072 -0.7929 -0.3584
  375MOL0     C49372   3.041   8.791   9.988 -0.1130  0.0847 -0.4135
  375MOL0     C49373   3.095   8.900   9.926 -0.5336 -1.2805 -0.0156
  375MOL0     C49374   3.225   8.948   9.965  1.1478 -0.4026 -0.5628
  375MOL0     C49375   3.293   8.892  10.077 -0.7313  0.6454 -0.0499
  375MOL0     O49376   3.419   8.921  10.118  1.1995 -0.4913 -0.5398
  375MOL0     C49377   3.495   9.014  10.045  0.4035 -0.0581 -0.0288
  375MOL0     C49378   3.631   9.029  10.107 -0.0866  0.0966 -0.7761
  375MOL0     C49379   3.706   8.900  10.102  0.2539 -0.6629 -0.1735
  375MOL0     C49380   3.835   8.917  10.160 -0.3749  1.1230 -0.7758
  375MOL0     C49381   3.933   8.796  10.150 -0.2703  0.4589 -0.0892
  375MOL0     C49382   3.959   8.754   9.999  1.3590 -0.0506 -0.1796
  375MOL0     C49383   4.079   8.661   9.992  0.4709  0.3671  0.1686
  375MOL0     C49384   4.205   8.741  10.007 -0.1725 -0.8219 -0.1478
  375MOL0     N49385   4.323   8.656   9.986  0.1460 -0.5122 -0.3116
  375MOL0     C49386   4.373   8.556  10.075  0.3924  0.2219  0.7943
  375MOL0     C49387   4.486   8.508  10.009  0.2595 -0.0875 -0.3446
  375MOL0     C49388   4.573   8.385  10.051 -0.3818  0.0192  0.2930
  375MOL0     C49389   4.720   8.410  10.060 -0.5887  0.8707 -0.3690
  375MOL0     C49390   4.749   8.506  10.181 -0.1826 -0.3234 -0.1568
  375MOL0     C49391   4.903   8.546  10.183 -0.5000 -0.3075  0.3223
  375MOL0     O49392   4.994   8.445  10.224 -0.4431  0.3429 -0.3483
  375MOL0     C49393   5.125   8.455  10.194 -0.3047  0.3751  0.7775
  375MOL0     C49394   5.198   8.573  10.180 -0.5550  0.4456  0.7500
  375MOL0     C49395   5.335   8.569  10.146 -0.1799 -0.3638  0.0562
  375MOL0     C49396   5.388   8.452  10.104  0.2680  0.5565 -0.2518
  375MOL0     C49397   5.519   8.458  10.031 -0.7604 -0.5148 -0.1989
  375MOL0     O49398   5.588   8.577  10.005 -0.0468 -0.4413  0.5291
  375MOL0     C49399   5.720   8.598   9.964 -0.2439  0.3332  0.0494
  375MOL0     C49400   5.816   8.515  10.022 -0.6362  0.2360 -0.2943
  375MOL0     C49401   5.946   8.522   9.968  0.1367 -0.4861  0.3407
  375MOL0     C49402   5.989   8.637   9.892  0.4004 -0.4100 -0.5946
  375MOL0     O49403   6.121   8.664   9.853  0.2253  0.6247 -0.3690
  375MOL0     C49404   6.223   8.591   9.924 -0.8329  0.3670  0.7307
  375MOL0     C49405   6.361   8.645   9.891  0.0638  0.1816 -0.1576
  375MOL0     C49406   6.371   8.793   9.904 -0.5258 -0.3821 -0.3284
  375MOL0     C49407   6.519   8.843   9.901 -0.7890  0.5066 -0.7624
  375MOL0     C49408   6.538   8.995   9.886 -0.0119 -0.6964  0.5782
  375MOL0     C49409   6.694   9.029   9.885  0.1669 -0.1719  0.0760
  375MOL0     C49410   6.739   9.095  10.017 -0.3871  0.1850  1.4207
  375MOL0     C49411   6.724   9.003  10.138 -0.5230 -0.1997  0.1604
  375MOL0    Cl49412   6.841   8.861  10.141 -0.4542 -0.0890  0.4483
  375MOL0     C49413   5.900   8.729   9.851 -0.3921  0.3268  1.0000
  375MOL0     C49414   5.763   8.709   9.884 -0.9446 -1.2588  0.6167
  375MOL0     O49415   5.558   8.345  10.001 -0.6373  0.9659 -0.7243
  375MOL0     C49416   5.323   8.330  10.128 -0.2522  0.2586 -0.9744
  375MOL0     C49417   5.196   8.329  10.187 -0.2816  0.3032  0.9571
  375MOL0     N49418   4.501   8.575   9.889 -0.1250  0.0608  0.8185
  375MOL0     N49419   4.403   8.660   9.873  1.0467 -0.5088 -0.0037
  375MOL0     C49420   3.227   8.789  10.142  0.0085 -0.6939 -0.4301
  375MOL0     C49421   3.109   8.738  10.105 -0.0264 -0.0659  0.0938
  375MOL0     C49422   2.708   8.649  10.012 -0.2134  0.3382 -0.2243
  375MOL0     C49423   2.606   8.619  10.104  0.1695 -0.0944 -0.2766
  375MOL0     C49424   2.500   8.535  10.068  0.4497 -0.1832 -0.0594
  375MOL0     C49425   2.490   8.473   9.933 -0.2005 -0.6542 -1.4448
  375MOL0     O49426   2.402   8.385   9.901  0.0571  0.5779 -0.7092
  375MOL0     C49427   2.291   8.360   9.990  0.8185  0.0968  0.1651
  375MOL0     C49428   2.169   8.332   9.905  0.2623 -0.0499  0.2962
  375MOL0     C49429   2.063   8.246   9.980  0.3947  0.5034 -0.4278
  375MOL0     C49430   2.118   8.107   9.999  0.0179 -0.0050  1.2194
  375MOL0     C49431   2.019   8.003  10.021 -0.1023  0.4661  0.6203
  375MOL0     C49432   1.929   7.922  10.020  0.0785  1.4851 -0.6736
  375MOL0     C49433   2.592   8.507   9.845 -0.0654  0.1750 -0.1660
  375MOL0     C49434   2.691   8.602   9.883 -1.0510 -0.1134  0.0070
  375MOL0     H49435   3.044   8.936   9.837 -0.2047  2.0655  1.0255
  375MOL0     H49436   3.262   9.040   9.922 -0.7133  1.3434  1.3339
  375MOL0     H49437   3.442   9.109  10.035  0.9488  0.1592 -0.9764
  375MOL0     H49438   3.514   8.968   9.948  0.9784 -2.0046  0.9425
  375MOL0     H49439   3.621   9.057  10.213  3.5708 -0.9837 -0.0132
  375MOL0     H49440   3.689   9.114  10.071 -1.2887  0.4969 -1.8432
  375MOL0     H49441   3.722   8.874   9.997 -1.8061  0.8053 -0.9213
  375MOL0     H49442   3.653   8.820  10.156 -2.0582 -1.0618 -2.7684
  375MOL0     H49443   3.880   9.001  10.106 -1.2979  0.6992 -2.2540
  375MOL0     H49444   3.823   8.943  10.266 -2.7630 -2.2087 -0.0544
  375MOL0     H49445   3.895   8.722  10.221  3.3778 -0.9953  0.5957
  375MOL0     H49446   4.028   8.823  10.197 -0.1806  1.6168 -0.8856
  375MOL0     H49447   3.974   8.852   9.953 -3.2104  1.0711  0.1582
  375MOL0     H49448   3.871   8.704   9.957 -0.2549  3.0861 -0.8977
  375MOL0     H49449   4.071   8.570  10.052 -2.0723 -0.0884 -0.7176
  375MOL0     H49450   4.092   8.616   9.893  1.1983  0.2722  0.3033
  375MOL0     H49451   4.215   8.790  10.105  1.4136 -0.2967 -0.5358
  375MOL0     H49452   4.204   8.817   9.928  2.4023 -2.7895 -2.2630
  375MOL0     H49453   4.326   8.528  10.169  1.4215 -0.1830  1.1998
  375MOL0     H49454   4.544   8.312   9.976  0.3782 -0.8472  0.8181
  375MOL0     H49455   4.556   8.340  10.150  1.7707 -0.2536  0.5836
  375MOL0     H49456   4.755   8.447   9.963  0.4170 -1.2476 -0.8723
  375MOL0     H49457   4.773   8.319  10.091  0.8527  1.8368  0.1120
  375MOL0     H49458   4.681   8.592  10.180 -0.3861 -0.4845  0.0089
  375MOL0     H49459   4.719   8.454  10.272  2.1681  0.8165  1.3895
  375MOL0     H49460   4.915   8.636  10.243 -1.5902 -0.1973  0.4066
  375MOL0     H49461   4.927   8.576  10.080  1.9912  0.7311  1.1405
  375MOL0     H49462   5.156   8.669  10.209 -1.6438 -0.0672  0.8916
  375MOL0     H49463   5.380   8.668  10.139 -3.7064  1.2915 -3.3904
  375MOL0     H49464   5.789   8.430  10.083  1.5310 -1.4294 -1.4985
  375MOL0     H49465   6.027   8.452   9.986 -3.4328 -4.7584  1.6209
  375MOL0     H49466   6.223   8.485   9.895  1.4067  1.0541 -2.1703
  375MOL0     H49467   6.206   8.594  10.032  0.2649 -1.4356  0.9987
  375MOL0     H49468   6.393   8.621   9.790 -3.9310  0.7300 -1.7302
  375MOL0     H49469   6.426   8.598   9.966 -1.9500  0.6433  1.9998
  375MOL0     H49470   6.342   8.828  10.004  1.9983  1.7626 -0.2430
  375MOL0     H49471   6.318   8.856   9.832  1.7509  2.0127 -0.0644
  375MOL0     H49472   6.562   8.803   9.994 -2.2318 -0.5907 -0.5212
  375MOL0     H49473   6.575   8.798   9.819  2.1687  1.1840  0.7282
  375MOL0     H49474   6.499   9.046   9.975  0.5897  3.2101 -1.1945
  375MOL0     H49475   6.486   9.030   9.797  0.0497 -1.8899  0.0531
  375MOL0     H49476   6.706   9.114   9.817  2.3671 -0.1129  0.4561
  375MOL0     H49477   6.756   8.947   9.848 -1.1638 -0.9040 -0.5955
  375MOL0     H49478   6.845   9.123  10.010  0.2577 -2.0506  1.7287
  375MOL0     H49479   6.675   9.183  10.031 -1.4272 -0.4004  0.5514
  375MOL0     H49480   6.621   8.968  10.149  0.4957 -2.8697  2.4010
  375MOL0     H49481   6.749   9.068  10.223 -0.2008  1.6255 -1.2775
  375MOL0     H49482   5.932   8.819   9.799  2.0626 -0.0237  1.7469
  375MOL0     H49483   5.697   8.780   9.835  0.5707 -1.3838 -1.7797
  375MOL0     H49484   5.375   8.237  10.108 -0.6833 -0.5697  1.4184
  375MOL0     H49485   5.148   8.237  10.219 -1.1388  1.3612  2.8395
  375MOL0     H49486   3.282   8.750  10.227  2.4973  0.4441 -1.4207
  375MOL0     H49487   3.074   8.654  10.164  0.1554  0.4292  0.9232
  375MOL0     H49488   2.599   8.663  10.203 -0.2309 -1.8700  0.5169
  375MOL0     H49489   2.429   8.509  10.146  1.8618  0.8084  1.6278
  375MOL0     H49490   2.262   8.447  10.049 -2.0617  0.5220 -1.6847
  375MOL0     H49491   2.327   8.273  10.046  1.2472 -0.5806 -1.1117
  375MOL0     H49492   2.123   8.422   9.863  1.7584  0.6675  0.1304
  375MOL0     H49493   2.197   8.278   9.814  1.3364  0.3242  0.3825
  375MOL0     H49494   1.972   8.239   9.921 -0.0763  1.7445  0.1167
  375MOL0     H49495   2.026   8.279  10.078 -0.4459 -5.2633  1.6058
  375MOL0     H49496   2.173   8.081   9.908 -0.9432  1.7274  0.0802
  375MOL0     H49497   2.186   8.106  10.084  0.8867  2.9004  0.6820
  375MOL0     H49498   1.859   7.841  10.020  4.2147 -2.4768 -1.4589
  375MOL0     H49499   2.607   8.464   9.746  3.1774  1.2698 -0.2654
  375MOL0     H49500   2.779   8.620   9.823 -1.3843  1.1378 -0.1332
  376MOL0     O49501   2.790   8.599   2.447 -0.0305 -0.2177 -0.0692
  376MOL0     C49502   2.805   8.673   2.534  0.8485 -0.6564  0.0667
  376MOL0     O49503   2.918   8.739   2.568 -0.1914  1.1818 -0.5339
  376MOL0     C49504   3.040   8.718   2.501 -0.6140  0.7202  0.3857
  376MOL0     C49505   3.082   8.613   2.411  0.3583  0.0097 -0.3426
  376MOL0     C49506   3.208   8.618   2.352 -0.3303 -0.7737 -0.6365
  376MOL0     C49507   3.297   8.721   2.379  0.0812  0.3043 -0.0624
  376MOL0     O49508   3.424   8.733   2.324 -0.0068  0.0419  0.1326
  376MOL0     C49509   3.516   8.624   2.330  0.7333  0.0329 -0.0904
  376MOL0     C49510   3.632   8.647   2.424 -0.3582  0.8661  0.1745
  376MOL0     C49511   3.744   8.728   2.356 -0.5632  0.7140  0.0608
  376MOL0     C49512   3.709   8.876   2.319 -0.4007  0.9247  0.5760
  376MOL0     C49513   3.839   8.959   2.293 -0.5146  0.1218 -0.2762
  376MOL0     C49514   3.894   8.999   2.435 -0.4847  0.2503  0.2992
  376MOL0     C49515   4.031   9.073   2.430 -0.0664 -0.2360 -0.1070
  376MOL0     C49516   4.080   9.122   2.569 -0.3539  0.1734  0.4323
  376MOL0     N49517   3.986   9.207   2.633  0.4088  0.2102 -0.4174
  376MOL0     C49518   3.962   9.342   2.620 -0.5897  0.4019 -0.4331
  376MOL0     C49519   3.890   9.385   2.730  0.2707 -0.1704  0.1702
  376MOL0     C49520   3.867   9.518   2.790 -0.1983  0.9959  0.7150
  376MOL0     C49521   3.745   9.597   2.718  0.7841 -0.6598  0.4048
  376MOL0     C49522   3.744   9.754   2.747 -0.3257  0.1141 -0.3372
  376MOL0     C49523   3.686   9.799   2.882 -0.7041 -0.0407 -0.1762
  376MOL0     O49524   3.786   9.770   2.982  0.0957  0.1854 -0.6144
  376MOL0     C49525   3.884   9.860   3.009 -1.0151 -0.2100  0.2334
  376MOL0     C49526   3.853   9.978   3.075  0.2830  0.0682 -0.1057
  376MOL0     C49527   3.950  10.065   3.109  0.4222  1.2566 -0.0175
  376MOL0     C49528   4.089  10.041   3.075 -0.4246  0.7228  0.5633
  376MOL0     C49529   4.187  10.137   3.126 -0.8798 -0.1156  0.5441
  376MOL0     O49530   4.314  10.109   3.086 -0.6642 -0.2468  0.5729
  376MOL0     C49531   4.414  10.206   3.105  1.1223  0.1877 -0.0226
  376MOL0     C49532   4.462  10.289   3.000  1.3017 -0.6323 -1.1755
  376MOL0     C49533   4.550  10.390   3.024  0.4062  0.2857  0.1080
  376MOL0     C49534   4.597  10.419   3.147  0.4637 -0.7442 -0.1072
  376MOL0     O49535   4.687  10.528   3.177  0.5990 -0.2263  0.0555
  376MOL0     C49536   4.775  10.530   3.284  0.6551  0.4965 -0.1731
  376MOL0     C49537   4.888  10.620   3.234 -0.0184 -0.2117 -0.1808
  376MOL0     C49538   4.996  10.651   3.331 -0.4157  0.4795 -0.6086
  376MOL0     C49539   4.960  10.722   3.453 -0.7017 -0.3553  0.0694
  376MOL0     C49540   5.080  10.781   3.547 -0.4727 -0.4493  0.3751
  376MOL0     C49541   5.192  10.855   3.480 -0.5034 -0.4081 -0.2098
  376MOL0     C49542   5.148  10.954   3.373 -0.5286 -0.8375  0.3472
  376MOL0     C49543   5.253  11.069   3.350 -0.6243 -0.2462 -0.1610
  376MOL0    Cl49544   5.255  11.185   3.494  0.2840  0.3850 -0.5106
  376MOL0     C49545   4.563  10.333   3.261  0.7192  0.2768  1.3710
  376MOL0     C49546   4.471  10.226   3.239  0.3300  0.7268  0.3166
  376MOL0     O49547   4.155  10.225   3.205 -0.4720 -0.1298 -0.0674
  376MOL0     C49548   4.124   9.924   3.020 -0.4190  0.2986  0.1915
  376MOL0     C49549   4.021   9.833   2.980 -0.6967 -0.3787  0.2733
  376MOL0     N49550   3.855   9.266   2.795  0.2653  0.0462  0.7174
  376MOL0     N49551   3.910   9.165   2.740 -0.1935  0.4324 -0.1484
  376MOL0     C49552   3.258   8.822   2.463  0.4201 -0.1693 -0.2110
  376MOL0     C49553   3.133   8.829   2.517 -0.0211  1.2544 -0.6302
  376MOL0     C49554   2.677   8.695   2.611 -0.3179  0.4898 -0.1036
  376MOL0     C49555   2.550   8.660   2.556 -0.0142 -0.2273  1.1384
  376MOL0     C49556   2.430   8.661   2.632  0.1335 -0.2731  0.2882
  376MOL0     C49557   2.426   8.713   2.761 -0.2157  0.5121  0.4120
  376MOL0     O49558   2.301   8.736   2.815 -0.1279  0.5285 -0.2002
  376MOL0     C49559   2.288   8.806   2.943 -1.1970  0.0665 -0.0203
  376MOL0     C49560   2.149   8.777   2.987  0.4338 -0.1920  0.5059
  376MOL0     C49561   2.128   8.625   3.026 -0.4094 -0.6420  0.7236
  376MOL0     C49562   2.005   8.576   2.964 -0.4945  0.2784 -0.2087
  376MOL0     C49563   2.025   8.562   2.818  1.3338 -1.1469  0.1090
  376MOL0     C49564   2.057   8.545   2.704  0.2447 -0.4727  1.0856
  376MOL0     C49565   2.549   8.761   2.815 -0.1790  1.4794 -0.2201
  376MOL0     C49566   2.669   8.745   2.741 -0.2897  0.1136  0.3070
  376MOL0     H49567   3.024   8.522   2.400  2.5594 -1.4214 -0.7651
  376MOL0     H49568   3.237   8.533   2.292 -2.5794 -0.7545 -1.8395
  376MOL0     H49569   3.546   8.597   2.229 -1.8948  2.3726 -1.6481
  376MOL0     H49570   3.466   8.539   2.378 -0.1182 -0.2322 -1.4027
  376MOL0     H49571   3.671   8.547   2.444  0.4705  0.6114 -2.4542
  376MOL0     H49572   3.592   8.696   2.514  0.4302  3.4332 -0.7901
  376MOL0     H49573   3.770   8.676   2.263  1.1219 -1.7755  1.7878
  376MOL0     H49574   3.838   8.723   2.413  1.1834 -1.7458 -2.7332
  376MOL0     H49575   3.654   8.858   2.227  2.5192 -1.1098 -0.9423
  376MOL0     H49576   3.649   8.933   2.391  0.7672  0.9153  1.6017
  376MOL0     H49577   3.817   9.046   2.232 -0.5947 -0.2836 -0.8284
  376MOL0     H49578   3.915   8.903   2.238 -0.5529 -0.2387  0.0276
  376MOL0     H49579   3.899   8.909   2.497  0.5164  1.3488  1.8737
  376MOL0     H49580   3.820   9.062   2.484 -0.5720  1.2723 -1.0874
  376MOL0     H49581   4.106   9.013   2.379  0.0812 -0.4798  0.3894
  376MOL0     H49582   4.013   9.168   2.379 -0.9267  1.8674  3.7284
  376MOL0     H49583   4.172   9.177   2.549 -1.5016  1.1147 -2.8304
  376MOL0     H49584   4.123   9.042   2.631 -0.6222  0.4832  1.0343
  376MOL0     H49585   4.029   9.412   2.571 -0.6554  1.0833  0.4359
  376MOL0     H49586   3.963   9.567   2.773  0.5281 -1.1481 -2.0476
  376MOL0     H49587   3.851   9.514   2.899 -0.5546  2.9633  0.7797
  376MOL0     H49588   3.650   9.554   2.751  0.6987 -1.5144 -0.8856
  376MOL0     H49589   3.742   9.572   2.612 -1.4226  0.3746  0.1529
  376MOL0     H49590   3.841   9.803   2.736 -0.2815  0.0214 -0.3620
  376MOL0     H49591   3.674   9.804   2.680 -2.2833  1.3196  2.4469
  376MOL0     H49592   3.593   9.745   2.900  0.2622 -1.3326  1.2275
  376MOL0     H49593   3.672   9.907   2.877  5.7855  1.1572 -0.9322
  376MOL0     H49594   3.749   9.986   3.106 -0.5881 -2.9685 -1.8059
  376MOL0     H49595   3.918  10.160   3.150  0.7159  1.3793 -0.0692
  376MOL0     H49596   4.408  10.279   2.907  0.6448  1.9008 -1.1375
  376MOL0     H49597   4.553  10.456   2.937  1.7484 -0.2316 -0.2583
  376MOL0     H49598   4.812  10.429   3.302  0.8828  0.3344 -1.4582
  376MOL0     H49599   4.748  10.574   3.381  3.3991 -1.3189  1.5438
  376MOL0     H49600   4.839  10.715   3.210 -1.2435 -1.2903 -2.2987
  376MOL0     H49601   4.925  10.579   3.140 -0.3084 -1.6253  0.2992
  376MOL0     H49602   5.077  10.712   3.290  0.1665  1.6375  2.0065
  376MOL0     H49603   5.053  10.562   3.361 -0.8423  0.0801 -0.9762
  376MOL0     H49604   4.915  10.814   3.414 -1.4768 -0.3268  1.0080
  376MOL0     H49605   4.887  10.668   3.513 -0.9376  0.6032  0.6636
  376MOL0     H49606   5.126  10.700   3.605 -1.1166 -1.9660 -1.1425
  376MOL0     H49607   5.026  10.845   3.617  0.5181  3.0122 -1.7618
  376MOL0     H49608   5.265  10.792   3.428  0.3702  2.7064 -3.0756
  376MOL0     H49609   5.249  10.909   3.556  3.2923 -1.0401 -2.3562
  376MOL0     H49610   5.133  10.892   3.284 -3.8281  2.7492 -1.9788
  376MOL0     H49611   5.056  11.006   3.402  0.0930  0.0244  0.8141
  376MOL0     H49612   5.219  11.123   3.262 -1.5267 -1.5840 -0.6663
  376MOL0     H49613   5.350  11.021   3.333 -1.6408 -3.1022  1.4388
  376MOL0     H49614   4.603  10.346   3.361 -2.6476  4.1657  2.5089
  376MOL0     H49615   4.438  10.150   3.309 -0.2951 -2.1576 -2.8325
  376MOL0     H49616   4.224   9.889   2.998 -1.6462 -2.5677 -1.4873
  376MOL0     H49617   4.058   9.745   2.931  3.8925  2.3770 -1.8406
  376MOL0     H49618   3.333   8.900   2.477 -1.1819  2.7208 -5.2882
  376MOL0     H49619   3.107   8.914   2.579 -1.4906  0.0855  0.4360
  376MOL0     H49620   2.551   8.633   2.452 -0.5514 -3.2256  1.8411
  376MOL0     H49621   2.340   8.623   2.584 -1.4336 -0.2728  3.0314
  376MOL0     H49622   2.305   8.914   2.937 -1.7679  0.1320 -0.4615
  376MOL0     H49623   2.364   8.760   3.007  0.3312 -0.0820 -1.8531
  376MOL0     H49624   2.109   8.837   3.069  0.5277  0.4258  0.1149
  376MOL0     H49625   2.082   8.799   2.902 -0.5225  0.4870  1.4021
  376MOL0     H49626   2.101   8.629   3.132 -1.5026  1.0223  0.4211
  376MOL0     H49627   2.218   8.566   3.011  1.0633  1.6656  0.0536
  376MOL0     H49628   1.975   8.478   3.003  0.8229  0.7261  2.0590
  376MOL0     H49629   1.918   8.637   2.989 -0.2895 -0.6560  3.3155
  376MOL0     H49630   2.091   8.551   2.603 -1.3005 -0.3083  0.5581
  376MOL0     H49631   2.559   8.803   2.915 -0.3720  1.6969 -0.2916
  376MOL0     H49632   2.757   8.781   2.793  0.2997 -2.0668  0.9203
  377MOL0     O49633   2.056   2.868   3.918 -0.4142  0.4288 -0.1366
  377MOL0     C49634   2.082   2.825   3.809  0.4355  0.0222  0.2282
  377MOL0     O49635   2.203   2.785   3.767 -0.0326  0.2237  0.0007
  377MOL0     C49636   2.313   2.777   3.845  0.0913  0.6666 -0.5393
  377MOL0     C49637   2.324   2.741   3.985  0.2668 -0.0247 -0.4455
  377MOL0     C49638   2.445   2.713   4.050  0.2521 -0.1711  0.0804
  377MOL0     C49639   2.563   2.715   3.978 -0.6403 -0.3172  0.0597
  377MOL0     O49640   2.691   2.702   4.041  0.7151  0.6638 -0.1569
  377MOL0     C49641   2.768   2.820   4.013  0.1493  0.1209  0.1700
  377MOL0     C49642   2.882   2.799   4.109  0.2745 -0.2092  0.1420
  377MOL0     C49643   2.992   2.904   4.081 -0.5484 -0.5222  0.7910
  377MOL0     C49644   3.126   2.854   4.144  0.3458 -0.0044  0.4737
  377MOL0     C49645   3.219   2.968   4.190  0.9297 -0.0828  0.3246
  377MOL0     C49646   3.324   2.936   4.302  0.0169 -0.2633  0.6946
  377MOL0     C49647   3.418   3.049   4.324 -0.1721  0.1245 -0.8352
  377MOL0     C49648   3.497   3.032   4.452  0.9899  0.6068 -0.4978
  377MOL0     N49649   3.609   3.114   4.467  0.1281  0.7146  0.2316
  377MOL0     C49650   3.673   3.162   4.357 -0.4247  0.2595  0.0838
  377MOL0     C49651   3.786   3.227   4.416  0.6628 -0.3812  0.8815
  377MOL0     C49652   3.894   3.319   4.347  0.6406  0.4694 -0.0039
  377MOL0     C49653   3.879   3.456   4.411 -0.8540  1.1186 -0.3514
  377MOL0     C49654   3.751   3.531   4.384  0.6667 -0.2484 -0.2557
  377MOL0     C49655   3.732   3.662   4.473 -0.2707  0.3347  0.4460
  377MOL0     O49656   3.631   3.743   4.406 -0.1045  0.2933  0.7873
  377MOL0     C49657   3.497   3.704   4.417 -0.6121  0.5037  0.1814
  377MOL0     C49658   3.407   3.751   4.318  0.0929 -0.5932  0.0856
  377MOL0     C49659   3.271   3.733   4.319 -0.7547 -0.5420 -0.0761
  377MOL0     C49660   3.218   3.675   4.438 -0.2121  0.5547  0.8969
  377MOL0     C49661   3.068   3.661   4.451 -0.2313  0.2315 -0.0805
  377MOL0     O49662   2.989   3.743   4.368  0.6313  1.0489  0.0377
  377MOL0     C49663   2.858   3.691   4.340 -0.2043  0.3926 -1.3076
  377MOL0     C49664   2.753   3.734   4.414 -0.0202 -0.2963 -0.6040
  377MOL0     C49665   2.625   3.688   4.370  0.2100  0.2855  0.6147
  377MOL0     C49666   2.606   3.625   4.246  0.6952  0.8587 -0.2757
  377MOL0     O49667   2.478   3.612   4.189  0.4831 -0.6847  0.8181
  377MOL0     C49668   2.374   3.553   4.271 -0.4790 -0.3563  0.1912
  377MOL0     C49669   2.248   3.523   4.175 -1.0511  0.4931 -0.5772
  377MOL0     C49670   2.197   3.644   4.094  0.0015 -0.4911 -0.8654
  377MOL0     C49671   2.135   3.599   3.965  0.6349  0.4743  0.3204
  377MOL0     C49672   2.085   3.720   3.890 -0.0992 -0.2856  0.0566
  377MOL0     C49673   1.966   3.669   3.813  0.1179  0.0486 -0.2268
  377MOL0     C49674   1.900   3.777   3.731 -0.9133 -0.1263 -0.1025
  377MOL0     C49675   1.809   3.874   3.809 -0.8984 -1.3553  0.6698
  377MOL0    Cl49676   1.702   3.957   3.696 -0.0379 -0.2414 -0.0744
  377MOL0     C49677   2.718   3.590   4.170 -0.2945  0.0081  0.5514
  377MOL0     C49678   2.840   3.624   4.219 -0.1311  0.6014 -0.5381
  377MOL0     O49679   3.025   3.568   4.525  0.4584 -0.0702  0.7339
  377MOL0     C49680   3.304   3.624   4.543  0.0980  0.2399  0.1730
  377MOL0     C49681   3.441   3.642   4.535  0.1230 -0.5354  0.0382
  377MOL0     N49682   3.787   3.195   4.545 -0.0550 -0.2906  0.5533
  377MOL0     N49683   3.690   3.121   4.579  0.7424  0.9362  0.0144
  377MOL0     C49684   2.554   2.746   3.838  0.1109 -0.3361 -1.0101
  377MOL0     C49685   2.433   2.787   3.780  0.1694 -0.1661  0.1655
  377MOL0     C49686   1.965   2.822   3.715 -0.7245  1.0102  0.0109
  377MOL0     C49687   1.994   2.800   3.577  0.7103 -1.0288 -0.3241
  377MOL0     C49688   1.885   2.774   3.488  0.5185 -0.3677  0.7765
  377MOL0     C49689   1.747   2.798   3.535  0.5045 -0.2582 -0.0926
  377MOL0     O49690   1.631   2.803   3.455  0.5092 -0.4129 -0.0806
  377MOL0     C49691   1.661   2.871   3.328  1.0532 -0.7747  0.0112
  377MOL0     C49692   1.530   2.953   3.282 -0.6997  0.2764 -0.5635
  377MOL0     C49693   1.425   2.860   3.224 -0.8106 -0.0907  0.4663
  377MOL0     C49694   1.284   2.902   3.247  0.1986  0.1755  0.1440
  377MOL0     C49695   1.242   2.884   3.387 -0.3675 -0.1916 -0.1012
  377MOL0     C49696   1.207   2.890   3.506 -0.9780  1.1857  1.0145
  377MOL0     C49697   1.730   2.816   3.670 -0.2924 -0.2495  0.2333
  377MOL0     C49698   1.831   2.814   3.761 -0.5291 -0.1534 -0.1167
  377MOL0     H49699   2.230   2.718   4.034  0.4819 -3.2866 -1.3439
  377MOL0     H49700   2.445   2.681   4.154  1.3954  2.0418  0.8197
  377MOL0     H49701   2.709   2.912   4.019 -1.3571 -0.5971 -2.1528
  377MOL0     H49702   2.792   2.814   3.906 -0.5381 -0.5838  0.0518
  377MOL0     H49703   2.922   2.698   4.101 -1.0969 -0.6154 -2.9302
  377MOL0     H49704   2.843   2.821   4.209 -1.2824  1.0686 -0.6939
  377MOL0     H49705   2.961   3.005   4.108 -0.9493 -0.6822  0.9326
  377MOL0     H49706   3.021   2.905   3.975  1.3586 -3.1539  1.1816
  377MOL0     H49707   3.096   2.797   4.232 -2.6506 -0.8152 -0.9637
  377MOL0     H49708   3.177   2.793   4.068 -1.6684 -0.8149 -0.2771
  377MOL0     H49709   3.158   3.056   4.210 -2.1304 -1.9277 -0.0969
  377MOL0     H49710   3.277   3.002   4.103 -0.6977  0.7804 -0.4739
  377MOL0     H49711   3.376   2.844   4.278  0.0138 -1.0187  3.2622
  377MOL0     H49712   3.268   2.931   4.396  2.7864 -1.4467  2.3865
  377MOL0     H49713   3.479   3.068   4.235  0.1130 -1.4883 -1.0140
  377MOL0     H49714   3.358   3.139   4.343  0.7816  0.5729  0.1617
  377MOL0     H49715   3.529   2.928   4.462 -0.0759  0.2828 -0.3441
  377MOL0     H49716   3.441   3.053   4.543  4.4769  2.2482  1.4749
  377MOL0     H49717   3.645   3.172   4.253 -0.0104 -2.0606 -0.3037
  377MOL0     H49718   3.868   3.310   4.241  0.1860 -1.9676  0.2491
  377MOL0     H49719   3.998   3.287   4.357  0.4571 -1.5547 -3.1640
  377MOL0     H49720   3.963   3.515   4.371  0.3852 -3.0269 -4.8503
  377MOL0     H49721   3.881   3.448   4.520 -1.2486 -1.5376 -0.4896
  377MOL0     H49722   3.743   3.558   4.279 -0.4029 -0.3229 -0.2032
  377MOL0     H49723   3.665   3.471   4.417  1.3851 -1.7384 -0.9872
  377MOL0     H49724   3.827   3.717   4.478 -0.7932  1.1976  1.2503
  377MOL0     H49725   3.719   3.646   4.580  0.1774 -2.9770  0.1146
  377MOL0     H49726   3.448   3.812   4.239 -0.6027  0.6767  0.6784
  377MOL0     H49727   3.200   3.762   4.243  0.1055 -1.2754 -1.1848
  377MOL0     H49728   2.756   3.781   4.512 -0.0951 -0.5705 -0.4702
  377MOL0     H49729   2.535   3.705   4.429 -0.4243 -0.6143 -0.0554
  377MOL0     H49730   2.332   3.618   4.349  0.4365 -0.9827  1.2229
  377MOL0     H49731   2.425   3.467   4.315  1.7809  1.7131  1.8852
  377MOL0     H49732   2.167   3.484   4.237 -0.5964  1.9760  1.0434
  377MOL0     H49733   2.275   3.447   4.101  2.0496 -0.9639  1.7603
  377MOL0     H49734   2.289   3.701   4.077 -0.1776  0.2173  0.3966
  377MOL0     H49735   2.133   3.714   4.148  1.4035  0.2461 -0.0918
  377MOL0     H49736   2.205   3.531   3.915  1.0298 -0.4750  2.0998
  377MOL0     H49737   2.049   3.534   3.983  0.4586  0.2840 -1.0610
  377MOL0     H49738   2.165   3.754   3.824  0.7096  0.1038  1.1999
  377MOL0     H49739   2.059   3.797   3.963  1.7456  0.3423  0.0943
  377MOL0     H49740   1.893   3.632   3.886  1.4554 -0.7229  0.7753
  377MOL0     H49741   2.016   3.605   3.740  0.2264  0.8677 -0.8834
  377MOL0     H49742   1.978   3.841   3.690 -1.1934 -0.0092 -0.4577
  377MOL0     H49743   1.851   3.731   3.645  1.7634  1.9439 -2.9478
  377MOL0     H49744   1.868   3.952   3.858 -3.4049  1.2984 -0.2166
  377MOL0     H49745   1.753   3.805   3.873 -2.1222 -1.1219 -0.1151
  377MOL0     H49746   2.695   3.555   4.070  0.3070  1.7035 -0.2296
  377MOL0     H49747   2.926   3.617   4.153 -2.9380 -1.4904 -4.3768
  377MOL0     H49748   3.260   3.576   4.630  0.5141 -0.3198  0.0765
  377MOL0     H49749   3.504   3.601   4.613 -2.3850 -2.8811  0.9628
  377MOL0     H49750   2.644   2.755   3.777  2.6936 -0.2189  2.5027
  377MOL0     H49751   2.439   2.811   3.674  0.9439 -0.7056  0.0824
  377MOL0     H49752   2.092   2.786   3.532  2.1613  0.9381  2.0249
  377MOL0     H49753   1.905   2.752   3.384  2.9262  0.8863  0.9069
  377MOL0     H49754   1.694   2.801   3.251 -2.2197  0.0591 -2.3682
  377MOL0     H49755   1.743   2.942   3.344  0.2755 -0.2664  2.0291
  377MOL0     H49756   1.488   3.011   3.365  2.2757 -0.9245  2.0002
  377MOL0     H49757   1.567   3.028   3.212  3.0212 -1.6910 -0.9789
  377MOL0     H49758   1.442   2.759   3.262 -3.9665 -0.2993  1.6172
  377MOL0     H49759   1.438   2.857   3.116 -1.5151  0.6762  0.3517
  377MOL0     H49760   1.275   3.002   3.204  2.7505 -0.0847 -1.1385
  377MOL0     H49761   1.213   2.830   3.204 -1.6466  1.1795  1.3578
  377MOL0     H49762   1.172   2.897   3.608  1.8960 -1.7056  2.3875
  377MOL0     H49763   1.628   2.819   3.706  0.1210  0.2673  1.4314
  377MOL0     H49764   1.807   2.804   3.866 -2.7365 -1.1049 -0.6518
  378MOL0     O49765   3.902   3.650   4.794 -0.3198  0.1535 -0.2358
  378MOL0     C49766   3.899   3.682   4.911 -0.2309  0.3227  0.3701
  378MOL0     O49767   3.787   3.745   4.968 -0.0178  0.5059  0.4595
  378MOL0     C49768   3.683   3.789   4.887  0.7971 -0.1464  0.0341
  378MOL0     C49769   3.702   3.854   4.768 -0.2466  0.2624 -0.4264
  378MOL0     C49770   3.598   3.919   4.699  0.2189  0.8008  0.3351
  378MOL0     C49771   3.460   3.906   4.746 -0.3204  0.8567  0.3681
  378MOL0     O49772   3.354   3.951   4.671 -0.1480  0.0787 -0.5503
  378MOL0     C49773   3.288   4.059   4.735 -0.1747 -0.4944  0.5938
  378MOL0     C49774   3.137   4.053   4.697  0.3916  0.4274 -1.0444
  378MOL0     C49775   3.086   3.909   4.749 -0.4195 -0.4173 -0.4330
  378MOL0     C49776   2.930   3.915   4.764 -0.9502 -0.7540 -0.0591
  378MOL0     C49777   2.886   3.777   4.809 -0.7716  0.1609 -0.6512
  378MOL0     C49778   2.746   3.774   4.864 -0.1826  0.4615 -0.3414
  378MOL0     C49779   2.638   3.765   4.765  0.0290 -0.0139 -0.4120
  378MOL0     C49780   2.497   3.761   4.825  0.5349  0.1201 -0.3071
  378MOL0     N49781   2.387   3.708   4.745 -0.0532  0.1299 -0.4466
  378MOL0     C49782   2.292   3.783   4.683 -0.5069 -0.4748 -0.0709
  378MOL0     C49783   2.226   3.704   4.599 -0.0617  1.1251  0.3909
  378MOL0     C49784   2.112   3.729   4.498 -0.8578 -0.0056 -0.6785
  378MOL0     C49785   1.974   3.738   4.554  0.2883  0.2970 -0.9683
  378MOL0     C49786   1.941   3.872   4.613 -0.1608 -1.2919  0.2653
  378MOL0     C49787   1.796   3.886   4.665 -0.2846  0.7918 -0.3356
  378MOL0     O49788   1.705   3.876   4.553  0.0199 -0.8585 -0.4722
  378MOL0     C49789   1.574   3.847   4.569  0.3274 -0.0135 -0.0529
  378MOL0     C49790   1.507   3.809   4.455 -0.0012 -1.2186  0.1488
  378MOL0     C49791   1.367   3.784   4.464 -0.3826  0.3361  0.4974
  378MOL0     C49792   1.294   3.788   4.585 -0.6861 -0.8041 -0.1430
  378MOL0     C49793   1.148   3.764   4.587 -1.2317 -0.3423 -0.5543
  378MOL0     O49794   1.082   3.835   4.680  0.4342 -0.1533  0.1086
  378MOL0     C49795   0.943   3.829   4.704 -0.3038 -0.0744  0.8787
  378MOL0     C49796   0.887   3.948   4.739 -0.4861 -0.1577 -0.2492
  378MOL0     C49797   0.755   3.957   4.774 -0.0971 -0.4577 -0.4275
  378MOL0     C49798   0.683   3.844   4.802 -0.4144 -0.4955  0.3380
  378MOL0     O49799   0.552   3.861   4.852  0.6251 -0.0758  0.4051
  378MOL0     C49800   0.455   3.755   4.889 -1.0467  0.1457  0.5994
  378MOL0     C49801   0.516   3.660   4.999 -0.8860  0.7227 -0.4920
  378MOL0     C49802   0.418   3.539   5.035 -0.0981  0.1112 -0.0877
  378MOL0     C49803   0.475   3.456   5.149 -0.4019 -0.3430 -0.2961
  378MOL0     C49804   0.607   3.394   5.122 -0.4878 -0.5319  0.3767
  378MOL0     C49805   0.678   3.358   5.248  0.3932  0.6361 -0.2377
  378MOL0     C49806   0.586   3.261   5.326 -0.1864  0.8226  0.0433
  378MOL0     C49807   0.664   3.171   5.417  0.1900  1.4019  0.4636
  378MOL0    Cl49808   0.713   3.267   5.569 -0.1249 -0.4137 -0.2541
  378MOL0     C49809   0.741   3.721   4.767  0.0690 -0.5774  0.2845
  378MOL0     C49810   0.873   3.714   4.716 -0.9147 -0.5090  0.4448
  378MOL0     O49811   1.097   3.693   4.514  0.5111  0.2290  0.6927
  378MOL0     C49812   1.367   3.827   4.704 -0.3359 -0.2805 -0.5103
  378MOL0     C49813   1.506   3.848   4.695 -0.9950 -0.3252 -0.4510
  378MOL0     N49814   2.285   3.581   4.608 -0.0376 -0.2629 -0.4897
  378MOL0     N49815   2.378   3.584   4.700 -0.1192 -0.2659  1.0331
  378MOL0     C49816   3.431   3.837   4.868 -0.2998 -0.1497 -0.1019
  378MOL0     C49817   3.552   3.784   4.934  0.5511 -1.5262 -0.3796
  378MOL0     C49818   4.012   3.648   5.002 -0.5265  0.1839 -0.3512
  378MOL0     C49819   3.991   3.647   5.135  0.9037 -0.7771 -0.3291
  378MOL0     C49820   4.088   3.602   5.223 -0.4734 -0.0912 -0.3560
  378MOL0     C49821   4.209   3.546   5.175  0.1561  1.7576 -0.1953
  378MOL0     O49822   4.297   3.483   5.259 -0.0754  0.0146 -0.8397
  378MOL0     C49823   4.417   3.423   5.204  0.2124  0.4541  0.6282
  378MOL0     C49824   4.507   3.397   5.319  0.2431  0.8774 -0.8086
  378MOL0     C49825   4.588   3.503   5.382 -0.2777  0.1469 -0.4923
  378MOL0     C49826   4.519   3.635   5.399  0.1804 -0.5475  0.0794
  378MOL0     C49827   4.609   3.733   5.467  0.0956 -0.9343  0.3500
  378MOL0     C49828   4.685   3.818   5.503 -0.2542 -0.3404 -1.0560
  378MOL0     C49829   4.230   3.549   5.031  0.8571 -0.6013 -0.8029
  378MOL0     C49830   4.131   3.604   4.947 -0.5629 -0.9269  0.0659
  378MOL0     H49831   3.801   3.853   4.724 -0.3528 -2.1344 -0.7426
  378MOL0     H49832   3.616   3.955   4.598 -0.9164 -1.3547 -0.7012
  378MOL0     H49833   3.334   4.154   4.707 -2.2851  0.0548 -1.3145
  378MOL0     H49834   3.285   4.054   4.844  1.3928 -0.9774  0.6368
  378MOL0     H49835   3.107   4.070   4.593  2.4737  1.8280 -1.4932
  378MOL0     H49836   3.087   4.126   4.760 -1.0371 -0.8699 -0.6158
  378MOL0     H49837   3.115   3.907   4.855 -1.7808 -1.0486 -0.0421
  378MOL0     H49838   3.124   3.823   4.693 -0.2906 -1.4813  1.2032
  378MOL0     H49839   2.910   3.999   4.832 -0.1042 -2.2166  2.1130
  378MOL0     H49840   2.878   3.937   4.670 -3.4167 -3.5496  0.5144
  378MOL0     H49841   2.944   3.739   4.894 -0.5724 -0.1061 -0.9063
  378MOL0     H49842   2.899   3.707   4.726 -0.9945  1.2879 -1.6513
  378MOL0     H49843   2.728   3.860   4.928  0.4988  0.3911 -0.0513
  378MOL0     H49844   2.743   3.682   4.922 -1.5360  0.7169  0.0210
  378MOL0     H49845   2.644   3.845   4.690  0.0362 -1.1009 -1.6104
  378MOL0     H49846   2.648   3.675   4.703 -2.7683 -0.7769  0.0930
  378MOL0     H49847   2.476   3.862   4.863 -0.4568 -0.1967  0.0126
  378MOL0     H49848   2.507   3.706   4.919 -1.0869 -0.1613 -0.2826
  378MOL0     H49849   2.274   3.890   4.686 -1.5425 -0.5807 -1.4312
  378MOL0     H49850   2.114   3.659   4.414 -1.1474  0.8093 -1.3834
  378MOL0     H49851   2.137   3.827   4.456 -2.9100  1.3495  1.0840
  378MOL0     H49852   1.957   3.666   4.635 -1.0702  0.5413 -1.0243
  378MOL0     H49853   1.907   3.727   4.469  1.8605 -1.2192 -2.0857
  378MOL0     H49854   2.006   3.883   4.701  1.3339 -2.4008 -0.6455
  378MOL0     H49855   1.965   3.961   4.554 -0.7075  0.8517  3.0625
  378MOL0     H49856   1.776   3.982   4.713 -2.8547 -0.1762  0.7262
  378MOL0     H49857   1.767   3.814   4.742 -1.9326  0.9906 -0.7222
  378MOL0     H49858   1.556   3.797   4.359 -1.1609  0.3276 -0.6739
  378MOL0     H49859   1.313   3.761   4.372 -1.1873 -0.0378  1.0462
  378MOL0     H49860   0.952   4.035   4.735  1.0079 -1.0080  2.8659
  378MOL0     H49861   0.712   4.054   4.799 -0.9205 -1.6296  3.4053
  378MOL0     H49862   0.405   3.702   4.808 -1.8606  1.7251  0.0318
  378MOL0     H49863   0.368   3.803   4.934 -0.7480  1.9635 -0.6771
  378MOL0     H49864   0.535   3.714   5.093 -1.7027  1.4475 -0.7312
  378MOL0     H49865   0.617   3.627   4.972 -1.3393 -0.2372 -1.0360
  378MOL0     H49866   0.416   3.493   4.935  0.9774  4.8919 -2.6365
  378MOL0     H49867   0.322   3.581   5.066  0.3777  1.3776 -0.2722
  378MOL0     H49868   0.480   3.521   5.236 -1.1444  2.1905 -2.0209
  378MOL0     H49869   0.402   3.377   5.169 -0.4472  0.0557  1.1734
  378MOL0     H49870   0.686   3.457   5.080  2.4282 -2.6365  2.2781
  378MOL0     H49871   0.590   3.308   5.057 -0.9430 -0.0156 -0.2021
  378MOL0     H49872   0.698   3.444   5.312 -0.0433  1.6438 -1.4184
  378MOL0     H49873   0.768   3.301   5.224 -0.8481 -1.4027 -0.3179
  378MOL0     H49874   0.513   3.313   5.387 -0.5221 -0.2780  0.6163
  378MOL0     H49875   0.536   3.194   5.255 -0.2190  0.1849  0.6636
  378MOL0     H49876   0.737   3.115   5.358  1.1538  0.7976  2.1656
  378MOL0     H49877   0.590   3.097   5.446  3.1364 -2.1709 -0.4428
  378MOL0     H49878   0.687   3.627   4.768  1.9790 -1.7766 -1.4689
  378MOL0     H49879   0.928   3.623   4.692  0.9556 -0.3813  3.7151
  378MOL0     H49880   1.303   3.831   4.792 -0.4567  0.1962 -0.6199
  378MOL0     H49881   1.561   3.860   4.788 -0.9776 -2.5391 -0.1166
  378MOL0     H49882   3.331   3.811   4.900  1.3720 -3.6476  3.0639
  378MOL0     H49883   3.537   3.733   5.029  1.0944 -0.1891  0.4434
  378MOL0     H49884   3.893   3.666   5.177  1.5424  0.2316  0.7605
  378MOL0     H49885   4.065   3.601   5.329 -1.7360  0.1880 -0.6184
  378MOL0     H49886   4.468   3.486   5.130  0.0091  0.0200  0.1110
  378MOL0     H49887   4.386   3.333   5.151 -0.7526  1.3663 -0.4097
  378MOL0     H49888   4.450   3.351   5.400 -0.3023  0.4778 -1.4032
  378MOL0     H49889   4.571   3.314   5.287 -0.8242  0.0904 -0.9936
  378MOL0     H49890   4.677   3.531   5.326 -0.6848  1.5572 -0.4772
  378MOL0     H49891   4.610   3.473   5.485 -3.6444 -0.5219  0.1449
  378MOL0     H49892   4.501   3.678   5.301 -0.2477  1.3816  0.9557
  378MOL0     H49893   4.429   3.626   5.460  1.1721  0.1016  1.7093
  378MOL0     H49894   4.745   3.901   5.534 -2.8157  1.4539 -0.6288
  378MOL0     H49895   4.320   3.514   4.982  1.4951  0.0179 -0.0953
  378MOL0     H49896   4.141   3.587   4.841 -0.6207  0.7373 -0.2324
  379MOL0     O49897   0.098   7.640  10.272 -1.1588  0.5633  1.0000
  379MOL0     C49898   0.119   7.601  10.162 -0.5961 -0.2590  0.8223
  379MOL0     O49899   0.022   7.574  10.069 -0.0585 -0.1857  0.1276
  379MOL0     C49900  -0.106   7.587  10.110  0.6135  0.2475 -0.0835
  379MOL0     C49901  -0.155   7.492  10.199  0.2845  0.3018  0.1786
  379MOL0     C49902  -0.285   7.494  10.235  0.2804 -0.5272 -0.5124
  379MOL0     C49903  -0.373   7.595  10.186  0.4305 -0.3179 -0.4756
  379MOL0     O49904  -0.501   7.592  10.234 -0.1241 -0.4199 -0.9912
  379MOL0     C49905  -0.596   7.695  10.196 -0.1517 -0.1682  0.0517
  379MOL0     C49906  -0.740   7.652  10.230  0.0999  0.2952 -0.5879
  379MOL0     C49907  -0.844   7.747  10.182  0.7852 -0.0963  0.2348
  379MOL0     C49908  -0.842   7.874  10.259  0.8820 -0.8196  0.3086
  379MOL0     C49909  -0.906   7.854  10.395  0.6019  0.4945 -0.1062
  379MOL0     C49910  -0.903   7.982  10.476  0.4053 -0.5579  0.4617
  379MOL0     C49911  -0.771   8.018  10.543 -0.4690  0.6126 -0.4396
  379MOL0     C49912  -0.784   7.943  10.679 -0.5117 -0.1121 -0.0576
  379MOL0     N49913  -0.681   7.987  10.771 -0.6026  0.2276 -0.1501
  379MOL0     C49914  -0.636   7.913  10.880 -0.3334  0.1143 -1.3202
  379MOL0     C49915  -0.547   7.994  10.941  0.2214 -0.3522  0.0630
  379MOL0     C49916  -0.465   7.963  11.062 -0.0009  0.4136  0.2531
  379MOL0     C49917  -0.329   7.907  11.029  0.1602 -0.2276  0.9067
  379MOL0     C49918  -0.232   8.003  10.959  0.1119  0.4101 -0.3747
  379MOL0     C49919  -0.088   7.960  10.947  0.9167 -0.1022  0.7303
  379MOL0     O49920  -0.023   7.934  11.071 -0.1976  0.2014  0.5555
  379MOL0     C49921   0.109   7.878  11.075  0.8474 -0.5054 -0.6755
  379MOL0     C49922   0.165   7.840  10.961 -0.7190 -0.7519  0.4229
  379MOL0     C49923   0.302   7.809  10.961  1.0793 -0.9560  0.9949
  379MOL0     C49924   0.373   7.794  11.083 -0.3483 -0.3408 -0.3398
  379MOL0     C49925   0.517   7.763  11.086  0.1143 -0.1046  0.2415
  379MOL0     O49926   0.574   7.734  10.968  0.2431 -0.3455  0.1845
  379MOL0     C49927   0.705   7.693  10.980 -0.2332  0.5809  0.1743
  379MOL0     C49928   0.729   7.556  10.961  0.1321 -0.4917  0.4577
  379MOL0     C49929   0.856   7.512  10.954  1.2185 -0.5434 -0.0341
  379MOL0     C49930   0.968   7.596  10.970 -0.0342 -0.7097 -1.0042
  379MOL0     O49931   1.099   7.538  10.960 -1.0033  0.4106  0.6963
  379MOL0     C49932   1.212   7.625  10.965  0.6576 -0.5168  0.4085
  379MOL0     C49933   1.337   7.539  10.966 -0.2183 -0.4055 -0.2255
  379MOL0     C49934   1.458   7.651  10.958  0.1297  0.7411 -0.1461
  379MOL0     C49935   1.596   7.581  10.949  0.2980 -0.0914  0.5116
  379MOL0     C49936   1.631   7.512  11.077 -0.3836 -0.0005 -0.1778
  379MOL0     C49937   1.726   7.396  11.066 -0.8399 -0.8374  1.6202
  379MOL0     C49938   1.870   7.434  11.025  0.2192  0.1199 -0.0623
  379MOL0     C49939   1.955   7.314  11.041 -0.7470 -0.2087 -0.6626
  379MOL0    Cl49940   1.901   7.188  10.947  0.4522 -0.0211 -0.0302
  379MOL0     C49941   0.946   7.727  11.011  0.5551 -0.2482  0.7209
  379MOL0     C49942   0.815   7.782  11.007 -0.2240 -0.5148 -0.2042
  379MOL0     O49943   0.572   7.751  11.199 -0.7276 -0.3869  0.0583
  379MOL0     C49944   0.302   7.823  11.197  0.4038  0.2388 -0.1695
  379MOL0     C49945   0.170   7.864  11.196  0.5215 -0.9500 -0.0689
  379MOL0     N49946  -0.529   8.106  10.865 -0.2337 -0.0972  1.5589
  379MOL0     N49947  -0.606   8.103  10.755  0.0587  0.1413 -0.0058
  379MOL0     C49948  -0.326   7.676  10.079 -0.3207 -0.0739 -0.0848
  379MOL0     C49949  -0.190   7.673  10.047  1.0771  0.1426 -0.2472
  379MOL0     C49950   0.265   7.556  10.135  0.4142  0.6633  0.0105
  379MOL0     C49951   0.370   7.624  10.198 -1.2140  0.5958  0.3401
  379MOL0     C49952   0.502   7.576  10.178  0.2144 -0.6557  0.5174
  379MOL0     C49953   0.534   7.475  10.089  0.9775 -0.5429 -0.2456
  379MOL0     O49954   0.661   7.416  10.080  0.3221 -0.6675 -0.1996
  379MOL0     C49955   0.776   7.482  10.147 -0.6740  0.9851  0.3039
  379MOL0     C49956   0.907   7.407  10.113 -0.2020 -0.3828 -0.4302
  379MOL0     C49957   0.921   7.373   9.962 -0.7414  0.3150 -0.0006
  379MOL0     C49958   1.056   7.306   9.930  0.7617  0.5697  0.1226
  379MOL0     C49959   1.048   7.237   9.801  0.5937  0.3155 -1.2759
  379MOL0     C49960   1.024   7.213   9.687 -0.0612 -0.5476 -0.3628
  379MOL0     C49961   0.426   7.404  10.020 -0.9056  0.3735  0.0501
  379MOL0     C49962   0.295   7.443  10.040 -0.9746 -0.0272 -0.3068
  379MOL0     H49963  -0.099   7.409  10.240 -0.7411 -0.8310 -0.6365
  379MOL0     H49964  -0.323   7.428  10.312 -1.2019 -0.0299 -0.7818
  379MOL0     H49965  -0.599   7.726  10.091  0.3405 -0.6233 -0.1005
  379MOL0     H49966  -0.570   7.777  10.264  2.8199 -0.9157 -0.0770
  379MOL0     H49967  -0.753   7.634  10.337  0.0914  2.2665 -0.2227
  379MOL0     H49968  -0.762   7.552  10.192  0.4444 -0.4991  1.1944
  379MOL0     H49969  -0.944   7.703  10.184  0.7449 -0.0726 -0.8261
  379MOL0     H49970  -0.821   7.767  10.078 -1.2362 -0.1860 -0.2642
  379MOL0     H49971  -0.739   7.908  10.276  0.8901 -1.6124  2.0306
  379MOL0     H49972  -0.892   7.954  10.204  0.6802 -0.6123  0.7853
  379MOL0     H49973  -0.856   7.778  10.456  1.3108  0.5124 -0.6468
  379MOL0     H49974  -1.007   7.817  10.375  0.3714  1.7926 -1.5230
  379MOL0     H49975  -0.986   7.986  10.547 -1.3371  1.2787 -1.5155
  379MOL0     H49976  -0.929   8.059  10.403 -2.0461  0.5810  2.4069
  379MOL0     H49977  -0.681   7.985  10.490 -1.6628 -0.0917 -2.1203
  379MOL0     H49978  -0.766   8.127  10.557  1.5531  0.3628  1.2343
  379MOL0     H49979  -0.767   7.836  10.669  1.3616  0.1781 -0.5065
  379MOL0     H49980  -0.878   7.958  10.733 -0.5605 -1.0283  0.1159
  379MOL0     H49981  -0.662   7.816  10.921  0.6356 -0.0100 -0.9649
  379MOL0     H49982  -0.527   7.891  11.115 -1.1196  2.5100  1.9882
  379MOL0     H49983  -0.448   8.047  11.130 -4.0552  2.1194 -0.5554
  379MOL0     H49984  -0.350   7.827  10.958  0.1282  2.1464 -1.9623
  379MOL0     H49985  -0.284   7.877  11.124  0.2829  1.9499  1.5915
  379MOL0     H49986  -0.261   8.037  10.859  1.3234  0.2830 -0.7900
  379MOL0     H49987  -0.235   8.099  11.011 -3.1947  0.0410  0.3164
  379MOL0     H49988  -0.040   8.039  10.888 -0.4231 -0.9185 -1.6123
  379MOL0     H49989  -0.096   7.880  10.873  0.4352 -0.2603  0.9468
  379MOL0     H49990   0.115   7.844  10.865 -4.9241  1.3596  2.4393
  379MOL0     H49991   0.359   7.798  10.869  2.9597  1.3562  1.7787
  379MOL0     H49992   0.650   7.482  10.963  0.1483 -0.5024  0.7228
  379MOL0     H49993   0.872   7.405  10.946  1.0729 -0.8159  2.5495
  379MOL0     H49994   1.208   7.691  11.053 -2.0490  0.1904 -0.1257
  379MOL0     H49995   1.213   7.686  10.874  0.7755 -4.4413 -2.4387
  379MOL0     H49996   1.331   7.468  10.882  3.4534 -0.0859 -0.8947
  379MOL0     H49997   1.328   7.481  11.059 -0.2714 -1.0200 -0.6082
  379MOL0     H49998   1.462   7.714  11.048 -3.9827  0.7699  0.2191
  379MOL0     H49999   1.445   7.722  10.876 -0.7542 -0.3290 -0.9670
  379MOL0     H50000   1.602   7.507  10.869  0.8354 -0.7052  1.1161
  379MOL0     H50001   1.677   7.650  10.924  0.0980  0.1476  0.5134
  379MOL0     H50002   1.541   7.467  11.119 -0.4644 -0.3210 -0.6842
  379MOL0     H50003   1.661   7.590  11.148 -0.6429  0.3980 -0.4988
  379MOL0     H50004   1.680   7.335  10.987  0.8564  0.0296 -0.1302
  379MOL0     H50005   1.724   7.342  11.160 -0.5496 -2.4545  0.7296
  379MOL0     H50006   1.881   7.460  10.919  2.0819 -2.7612 -0.6810
  379MOL0     H50007   1.910   7.515  11.087 -3.4271  1.1242  1.2463
  379MOL0     H50008   1.951   7.281  11.146 -2.1121 -0.5468 -0.7930
  379MOL0     H50009   2.059   7.344  11.026  1.0216 -3.9971  2.2427
  379MOL0     H50010   1.016   7.808  11.028 -1.2029  1.3004  0.9626
  379MOL0     H50011   0.803   7.889  11.001 -0.4489 -0.6051 -2.5010
  379MOL0     H50012   0.360   7.810  11.289  2.6793  1.7866 -1.2795
  379MOL0     H50013   0.115   7.891  11.286 -0.4548 -1.2391 -0.5657
  379MOL0     H50014  -0.395   7.748  10.036 -0.1154 -0.2651 -0.7491
  379MOL0     H50015  -0.143   7.728   9.966  2.7070  0.5319  0.9173
  379MOL0     H50016   0.356   7.706  10.267 -0.6603 -0.9483  2.3837
  379MOL0     H50017   0.580   7.625  10.236 -0.3374  1.3330 -0.3490
  379MOL0     H50018   0.764   7.489  10.255 -4.5913  2.4808 -0.0696
  379MOL0     H50019   0.779   7.584  10.107  0.3740  1.6605  2.0143
  379MOL0     H50020   0.995   7.466  10.142  0.6676 -0.9929 -1.7530
  379MOL0     H50021   0.922   7.315  10.170  0.1166  2.9654  5.7912
  379MOL0     H50022   0.923   7.464   9.900 -1.2193 -0.3710 -1.0404
  379MOL0     H50023   0.841   7.304   9.935  1.5160 -2.4335 -0.0587
  379MOL0     H50024   1.138   7.377   9.940 -0.6139  2.0059  1.9518
  379MOL0     H50025   1.073   7.229  10.007 -0.5609 -0.2107 -0.3286
  379MOL0     H50026   1.002   7.202   9.582 -0.8968  2.1883 -0.5416
  379MOL0     H50027   0.451   7.317   9.961  0.3541  1.9653 -1.9185
  379MOL0     H50028   0.208   7.397   9.995 -1.0407  1.2312 -1.5504
  380MOL0     O50029  10.242  10.197   6.781  0.0901 -0.3114  0.0181
  380MOL0     C50030  10.231  10.112   6.692 -0.5939 -0.1459 -0.3205
  380MOL0     O50031  10.138  10.014   6.684  0.1066 -0.3444 -0.4960
  380MOL0     C50032  10.049   9.984   6.787  0.1040  0.7221  0.1138
  380MOL0     C50033   9.914   9.988   6.761  0.3398  0.4147 -0.3765
  380MOL0     C50034   9.821   9.933   6.853  0.0929  0.1566  0.4496
  380MOL0     C50035   9.862   9.879   6.973 -1.0023  0.3022  0.7440
  380MOL0     O50036   9.762   9.821   7.051 -0.1861  0.8869  0.5664
  380MOL0     C50037   9.792   9.748   7.164  0.2719  0.4222 -0.1747
  380MOL0     C50038   9.654   9.722   7.238  0.9479 -0.7559 -0.0676
  380MOL0     C50039   9.644   9.574   7.284  0.0303 -0.1001 -0.5090
  380MOL0     C50040   9.756   9.546   7.393  0.5343  1.1267 -0.2915
  380MOL0     C50041   9.727   9.411   7.453  0.1537 -0.0840 -0.6935
  380MOL0     C50042   9.742   9.285   7.354  0.3807  0.0891  0.9934
  380MOL0     C50043   9.693   9.158   7.410 -0.3689 -0.1626  0.2540
  380MOL0     C50044   9.537   9.159   7.400  0.8432 -0.4217  0.3831
  380MOL0     N50045   9.482   9.020   7.423 -0.8955  0.1134 -0.3887
  380MOL0     C50046   9.453   8.955   7.541  0.0898 -0.5588  0.7856
  380MOL0     C50047   9.407   8.833   7.507  0.2380  0.0006  0.1872
  380MOL0     C50048   9.353   8.734   7.615  0.2904  0.4823  0.3714
  380MOL0     C50049   9.202   8.744   7.610 -0.7486  0.2363  0.4135
  380MOL0     C50050   9.156   8.858   7.712  0.2606  1.1833  0.3097
  380MOL0     C50051   9.006   8.866   7.728  0.1195  0.6753 -0.3564
  380MOL0     O50052   8.920   8.812   7.627  0.0970 -0.1298 -0.1158
  380MOL0     C50053   8.789   8.812   7.657 -0.5544 -0.3688  0.3754
  380MOL0     C50054   8.709   8.731   7.577  0.6736 -0.3403  0.5164
  380MOL0     C50055   8.574   8.741   7.602 -0.7211 -0.0375 -0.0886
  380MOL0     C50056   8.524   8.803   7.715  0.2304  0.5626 -0.4928
  380MOL0     C50057   8.378   8.799   7.747  0.8700  0.4497 -1.2233
  380MOL0     O50058   8.320   8.716   7.664  0.4949  0.3886  0.6287
  380MOL0     C50059   8.183   8.715   7.658 -0.0171  0.1912 -0.0128
  380MOL0     C50060   8.120   8.744   7.532  0.0774 -1.0981  0.4853
  380MOL0     C50061   7.976   8.744   7.534  0.0528 -0.4843 -0.8725
  380MOL0     C50062   7.897   8.702   7.637 -0.5286 -0.0966 -0.5425
  380MOL0     O50063   7.764   8.704   7.623  0.3048 -0.1955  0.0871
  380MOL0     C50064   7.677   8.698   7.735  0.2934  0.6629  0.0440
  380MOL0     C50065   7.532   8.728   7.702  0.0510  0.3864 -0.0519
  380MOL0     C50066   7.433   8.728   7.814  0.6309 -0.3642 -0.3802
  380MOL0     C50067   7.291   8.712   7.767 -0.3499  0.1881  0.2508
  380MOL0     C50068   7.190   8.692   7.876  0.6300 -0.4729 -0.4196
  380MOL0     C50069   7.180   8.813   7.975 -0.3800  0.4600  0.3334
  380MOL0     C50070   7.097   8.774   8.104 -0.3858 -1.0835  0.5390
  380MOL0     C50071   7.171   8.777   8.232 -0.4071  0.5297  0.1377
  380MOL0    Cl50072   7.331   8.692   8.220  0.0546  0.6473 -0.1491
  380MOL0     C50073   7.970   8.660   7.757 -0.3176  1.3132  0.8051
  380MOL0     C50074   8.110   8.663   7.761  1.1052  0.0030  0.2955
  380MOL0     O50075   8.321   8.856   7.843 -0.2848  0.4077  0.2861
  380MOL0     C50076   8.611   8.862   7.804  0.5542 -0.8281 -0.8540
  380MOL0     C50077   8.737   8.877   7.759 -0.2213 -0.9146 -0.3741
  380MOL0     N50078   9.399   8.825   7.366 -0.6294 -0.1742  0.1361
  380MOL0     N50079   9.444   8.941   7.318 -0.8300  0.5135  0.0922
  380MOL0     C50080  10.004   9.878   7.003  0.4189 -0.1154 -0.2456
  380MOL0     C50081  10.094   9.938   6.912  0.2349 -0.4001  0.5813
  380MOL0     C50082  10.342  10.113   6.583  0.1755 -0.8826 -0.1770
  380MOL0     C50083  10.422  10.228   6.572 -0.0276 -0.8670 -0.5888
  380MOL0     C50084  10.516  10.239   6.474 -0.1764  1.0631  0.6295
  380MOL0     C50085  10.526  10.136   6.370 -0.4706 -0.2879 -0.3081
  380MOL0     O50086  10.627  10.152   6.279 -0.1393 -0.2750 -0.0049
  380MOL0     C50087  10.650  10.045   6.180  0.4123 -0.0422 -0.1809
  380MOL0     C50088  10.792  10.062   6.130 -1.1124 -0.0082  0.7915
  380MOL0     C50089  10.915  10.071   6.232  0.0702 -0.3304  0.2290
  380MOL0     C50090  11.047  10.083   6.147  0.5139  0.3216 -0.3636
  380MOL0     C50091  11.163  10.065   6.242  0.2225  0.2512  0.2667
  380MOL0     C50092  11.278  10.059   6.292 -0.4140  0.8168  0.2481
  380MOL0     C50093  10.446  10.021   6.387 -0.8144  0.1043 -0.5569
  380MOL0     C50094  10.340  10.019   6.479  0.9586  0.4921  0.4681
  380MOL0     H50095   9.884  10.034   6.667 -0.9353  2.9711  1.1674
  380MOL0     H50096   9.715   9.949   6.838 -0.2430 -1.0693  1.3579
  380MOL0     H50097   9.857   9.809   7.228  1.6501 -1.4975  0.3596
  380MOL0     H50098   9.826   9.645   7.151 -0.7382  0.0648 -0.0713
  380MOL0     H50099   9.569   9.740   7.171 -0.6024 -2.3399  1.3579
  380MOL0     H50100   9.637   9.770   7.335 -0.4970 -1.8521  0.2592
  380MOL0     H50101   9.648   9.508   7.197 -0.7836  1.6725 -1.9562
  380MOL0     H50102   9.547   9.554   7.330 -0.6417 -1.4970 -2.3929
  380MOL0     H50103   9.851   9.533   7.341  1.2340  0.5827  1.0707
  380MOL0     H50104   9.770   9.633   7.457  0.4867 -0.4018  1.9272
  380MOL0     H50105   9.623   9.409   7.487  0.2498  0.0347 -0.3886
  380MOL0     H50106   9.786   9.400   7.544 -0.4296  1.5371 -0.0845
  380MOL0     H50107   9.845   9.271   7.319 -0.6072 -3.6130 -0.9830
  380MOL0     H50108   9.691   9.298   7.258  0.1660  1.1322  1.2351
  380MOL0     H50109   9.736   9.076   7.352  0.1632  0.2684  0.0315
  380MOL0     H50110   9.725   9.149   7.514  0.1486  0.8121  0.1917
  380MOL0     H50111   9.497   9.184   7.301 -0.8855 -3.4893  0.1677
  380MOL0     H50112   9.500   9.208   7.490  2.4408 -2.9452  2.5278
  380MOL0     H50113   9.445   9.005   7.637 -1.1428  0.5352  0.1401
  380MOL0     H50114   9.392   8.764   7.712 -0.2936 -3.4118  1.9800
  380MOL0     H50115   9.380   8.629   7.599 -2.3182 -0.3206  0.7772
  380MOL0     H50116   9.167   8.649   7.651 -0.1300  0.0215  0.4642
  380MOL0     H50117   9.163   8.757   7.509  1.7458 -3.3406 -1.2216
  380MOL0     H50118   9.191   8.834   7.812 -1.3010  1.0206  0.8476
  380MOL0     H50119   9.190   8.960   7.694  0.0576  1.1071 -0.5936
  380MOL0     H50120   8.970   8.969   7.737 -1.7543  0.3453 -2.9506
  380MOL0     H50121   8.990   8.817   7.824  4.2912 -1.2856 -0.4412
  380MOL0     H50122   8.744   8.669   7.494 -0.7682  0.5852 -0.8337
  380MOL0     H50123   8.507   8.693   7.531  1.9464 -4.3627 -0.0260
  380MOL0     H50124   8.177   8.759   7.441 -0.3186  0.0470  0.4096
  380MOL0     H50125   7.918   8.774   7.447 -0.7885  0.9139  0.1204
  380MOL0     H50126   7.714   8.747   7.825 -2.1941 -0.8028  1.9904
  380MOL0     H50127   7.675   8.593   7.767 -3.2974  0.2103 -1.2506
  380MOL0     H50128   7.495   8.649   7.636  0.4301 -1.7318  2.1100
  380MOL0     H50129   7.530   8.819   7.642  1.0206 -0.9489 -2.2486
  380MOL0     H50130   7.451   8.823   7.865  0.6666  0.0780 -1.1891
  380MOL0     H50131   7.459   8.650   7.885 -0.2673 -1.6451 -1.4133
  380MOL0     H50132   7.260   8.800   7.712  2.9692  0.5767 -1.2567
  380MOL0     H50133   7.282   8.627   7.698  0.7678 -0.9874  1.4841
  380MOL0     H50134   7.215   8.598   7.926 -1.8691 -1.4582 -0.8907
  380MOL0     H50135   7.094   8.668   7.830  0.4806  1.4498 -1.1896
  380MOL0     H50136   7.136   8.903   7.931 -1.0193 -0.9306 -2.0563
  380MOL0     H50137   7.281   8.848   7.997 -0.2503  2.2526 -2.5269
  380MOL0     H50138   7.014   8.844   8.101  0.0600 -0.5723 -0.7263
  380MOL0     H50139   7.050   8.676   8.092 -0.2346 -0.9913 -1.0345
  380MOL0     H50140   7.107   8.718   8.298 -2.0448 -2.1777 -3.4830
  380MOL0     H50141   7.175   8.876   8.278 -0.2601 -0.2071  1.7760
  380MOL0     H50142   7.913   8.623   7.842 -0.4704  0.0147  0.1683
  380MOL0     H50143   8.174   8.644   7.846  0.0761 -1.6823  0.7434
  380MOL0     H50144   8.578   8.904   7.898  2.0807 -0.2362 -0.5680
  380MOL0     H50145   8.794   8.935   7.831  1.1258 -1.3294 -1.0742
  380MOL0     H50146  10.051   9.855   7.098  2.3175  0.5523 -0.9835
  380MOL0     H50147  10.198   9.953   6.939  0.1917  0.7791  0.1449
  380MOL0     H50148  10.405  10.308   6.643 -2.3832 -3.0131  1.4659
  380MOL0     H50149  10.585  10.323   6.478  0.8751  0.2474  0.1868
  380MOL0     H50150  10.577  10.055   6.100  0.8979  1.6911 -0.4564
  380MOL0     H50151  10.641   9.945   6.223  0.5149  0.1600  0.3309
  380MOL0     H50152  10.808   9.983   6.056 -0.7846  0.5741  0.2255
  380MOL0     H50153  10.793  10.160   6.080 -0.9098 -0.7413 -0.7181
  380MOL0     H50154  10.911   9.973   6.280 -0.9606  0.2409  1.3420
  380MOL0     H50155  10.912  10.155   6.302  2.1002  1.5320 -1.7704
  380MOL0     H50156  11.056   9.999   6.078  1.4494 -3.3261  3.7250
  380MOL0     H50157  11.052  10.181   6.100  0.1998  0.8294  0.6302
  380MOL0     H50158  11.382  10.061   6.316 -0.3072 -0.8634  0.0455
  380MOL0     H50159  10.463   9.935   6.323  0.2871  2.0581 -3.0634
  380MOL0     H50160  10.274   9.933   6.484  0.1635  1.0034 -0.6734
  381MOL0     O50161   0.675   7.576   8.405  0.2391  0.4074  0.4168
  381MOL0     C50162   0.743   7.599   8.500 -0.9138  0.4717  0.1772
  381MOL0     O50163   0.698   7.654   8.619 -0.0166  0.1982 -0.4874
  381MOL0     C50164   0.559   7.649   8.648 -0.1941  0.2529  0.7409
  381MOL0     C50165   0.517   7.626   8.780 -0.8409  0.2506 -0.4116
  381MOL0     C50166   0.382   7.606   8.821  0.3604 -0.1155  0.0745
  381MOL0     C50167   0.283   7.636   8.726  0.4875  0.0495  0.0038
  381MOL0     O50168   0.154   7.621   8.764 -0.1374  0.4899 -0.0465
  381MOL0     C50169   0.067   7.542   8.684  0.1562 -0.0278  0.7456
  381MOL0     C50170  -0.056   7.517   8.765  0.4686 -0.3393  0.8567
  381MOL0     C50171  -0.189   7.543   8.681 -0.1753 -0.8172 -0.6462
  381MOL0     C50172  -0.227   7.415   8.612 -0.0600 -0.4675 -0.5114
  381MOL0     C50173  -0.356   7.415   8.517 -0.8789 -0.4972 -0.1473
  381MOL0     C50174  -0.472   7.497   8.579 -0.1997 -0.0502 -0.7255
  381MOL0     C50175  -0.606   7.483   8.499  0.0095 -0.7271 -0.2563
  381MOL0     C50176  -0.734   7.531   8.571  0.7782 -0.3920  1.2376
  381MOL0     N50177  -0.797   7.436   8.660 -0.1541  0.1988  0.0825
  381MOL0     C50178  -0.755   7.411   8.793 -0.3634  0.7350  0.3192
  381MOL0     C50179  -0.813   7.300   8.841 -0.6512  0.5616 -0.5150
  381MOL0     C50180  -0.822   7.232   8.976 -0.1847  0.0527  0.0024
  381MOL0     C50181  -0.852   7.329   9.083 -0.3047  0.0890  0.0346
  381MOL0     C50182  -0.977   7.413   9.063 -0.4636  0.2714 -0.2113
  381MOL0     C50183  -1.093   7.323   9.024  0.6110  0.4400 -0.0841
  381MOL0     O50184  -1.220   7.381   9.065 -1.3545 -0.2658 -0.1826
  381MOL0     C50185  -1.334   7.330   9.014  1.1460  0.0876  0.5971
  381MOL0     C50186  -1.346   7.205   8.944  0.1831 -0.1458 -0.2574
  381MOL0     C50187  -1.474   7.162   8.897  1.2684 -0.0956  0.0584
  381MOL0     C50188  -1.589   7.241   8.910  0.0269  0.3771 -0.4141
  381MOL0     C50189  -1.716   7.191   8.851  0.2097 -0.0409  0.5178
  381MOL0     O50190  -1.726   7.068   8.799  0.3055  1.2045  0.4405
  381MOL0     C50191  -1.853   7.021   8.763 -0.3533 -0.7162  0.5192
  381MOL0     C50192  -1.889   6.885   8.802  0.0257  0.2451  0.5466
  381MOL0     C50193  -2.017   6.836   8.774 -0.1363 -0.8227  0.1753
  381MOL0     C50194  -2.101   6.911   8.693  0.2498 -0.1795 -0.0951
  381MOL0     O50195  -2.226   6.856   8.683 -0.5219 -0.2309 -0.6910
  381MOL0     C50196  -2.298   6.890   8.567 -0.8129 -0.3359  0.2236
  381MOL0     C50197  -2.415   6.805   8.543 -0.6757 -0.0837 -0.3496
  381MOL0     C50198  -2.526   6.847   8.642 -0.7886 -0.6468  0.8629
  381MOL0     C50199  -2.664   6.788   8.609 -0.2704  1.5245  0.3045
  381MOL0     C50200  -2.768   6.823   8.719  1.5802  0.4789 -0.4014
  381MOL0     C50201  -2.748   6.736   8.851  0.0268  0.3165 -0.3182
  381MOL0     C50202  -2.818   6.598   8.816  0.6654  0.2661 -0.3515
  381MOL0     C50203  -2.777   6.487   8.904 -1.0881  0.7856 -0.1314
  381MOL0    Cl50204  -2.612   6.434   8.861  0.0015 -0.3223  0.0966
  381MOL0     C50205  -2.065   7.039   8.644  0.1720  0.0441  0.5091
  381MOL0     C50206  -1.946   7.092   8.687  0.3667  0.0863  0.4807
  381MOL0     O50207  -1.809   7.271   8.876 -0.4964  0.4118 -0.7257
  381MOL0     C50208  -1.576   7.364   8.978  0.0816  0.4791  0.7082
  381MOL0     C50209  -1.452   7.413   9.026 -0.4355  0.4347  0.8687
  381MOL0     N50210  -0.882   7.246   8.727  0.2003 -0.1345  0.0812
  381MOL0     N50211  -0.867   7.326   8.629 -0.7148  0.0804  0.8076
  381MOL0     C50212   0.322   7.671   8.595 -0.1406  0.7401  0.1525
  381MOL0     C50213   0.453   7.672   8.557 -0.1926 -1.0978 -0.1634
  381MOL0     C50214   0.889   7.579   8.485 -0.1383  0.1635 -0.6879
  381MOL0     C50215   0.952   7.541   8.364  0.5104  0.8080 -0.1365
  381MOL0     C50216   1.084   7.490   8.360 -0.0366 -0.0290  0.5554
  381MOL0     C50217   1.163   7.489   8.474  0.7865  1.0514 -0.0163
  381MOL0     O50218   1.285   7.438   8.487  0.4057  0.5625 -0.1076
  381MOL0     C50219   1.355   7.385   8.379 -0.1865 -0.2891 -0.6602
  381MOL0     C50220   1.500   7.338   8.408 -0.4371  0.6316 -0.2507
  381MOL0     C50221   1.516   7.244   8.527  0.6413  0.4691 -0.0781
  381MOL0     C50222   1.463   7.101   8.494  0.9574  0.0342 -0.2365
  381MOL0     C50223   1.583   7.032   8.455 -0.0310 -0.1543 -0.8035
  381MOL0     C50224   1.684   6.975   8.426  0.0464 -0.1662  0.3103
  381MOL0     C50225   1.105   7.529   8.590  0.5637 -0.2771 -0.2323
  381MOL0     C50226   0.970   7.570   8.597 -0.3682 -0.2097  0.5497
  381MOL0     H50227   0.592   7.622   8.859  0.9867 -2.1381 -2.1101
  381MOL0     H50228   0.366   7.591   8.927  0.3209 -0.7228 -0.0120
  381MOL0     H50229   0.123   7.450   8.666  1.9280  1.3201 -1.1186
  381MOL0     H50230   0.050   7.577   8.582  1.9107  1.4405  0.9058
  381MOL0     H50231  -0.047   7.582   8.853  0.0102 -1.7909  2.0250
  381MOL0     H50232  -0.050   7.412   8.796 -0.6069 -1.4348 -2.2887
  381MOL0     H50233  -0.186   7.623   8.606 -2.3393 -0.9430 -0.9348
  381MOL0     H50234  -0.267   7.571   8.753 -0.0888 -2.4016  0.1024
  381MOL0     H50235  -0.144   7.382   8.550 -0.4503  0.8750 -1.8249
  381MOL0     H50236  -0.246   7.339   8.689 -0.5856 -1.3404 -1.4828
  381MOL0     H50237  -0.377   7.312   8.488  0.2405 -0.6081 -0.6449
  381MOL0     H50238  -0.310   7.472   8.435  0.3380 -1.2833 -0.0444
  381MOL0     H50239  -0.453   7.604   8.589 -0.4100 -0.0642 -0.1730
  381MOL0     H50240  -0.487   7.456   8.679  2.2420 -0.2722 -0.3923
  381MOL0     H50241  -0.607   7.547   8.410  0.6181 -0.0055  0.2434
  381MOL0     H50242  -0.617   7.385   8.452  2.2706 -0.8120 -0.7606
  381MOL0     H50243  -0.803   7.566   8.494 -0.3122  1.9858  3.1528
  381MOL0     H50244  -0.698   7.619   8.626  3.4242 -0.7257  0.1619
  381MOL0     H50245  -0.676   7.466   8.843  0.5615  0.0749 -0.3748
  381MOL0     H50246  -0.725   7.184   8.989 -1.6673 -2.8966  0.9867
  381MOL0     H50247  -0.877   7.138   8.982 -2.2695  1.1576 -0.6092
  381MOL0     H50248  -0.770   7.401   9.078  0.3568 -0.5949  0.8441
  381MOL0     H50249  -0.863   7.293   9.185  2.1910  0.4664  0.4883
  381MOL0     H50250  -0.993   7.463   9.159  1.3764 -1.2384  0.9472
  381MOL0     H50251  -0.968   7.488   8.984  1.8503  1.2547  0.8953
  381MOL0     H50252  -1.084   7.225   9.071  1.1270  0.5843  0.1185
  381MOL0     H50253  -1.091   7.290   8.920  1.3529 -1.6910  0.5705
  381MOL0     H50254  -1.263   7.137   8.927 -1.1410 -1.6620 -0.9974
  381MOL0     H50255  -1.468   7.068   8.843  2.2242  0.6472 -1.1929
  381MOL0     H50256  -1.820   6.814   8.846  0.4844 -1.2985 -2.4382
  381MOL0     H50257  -2.051   6.736   8.801  0.2909 -0.7391  1.0639
  381MOL0     H50258  -2.228   6.869   8.485 -1.1274 -2.6969  0.4778
  381MOL0     H50259  -2.332   6.993   8.579 -1.2733 -0.6603  2.0778
  381MOL0     H50260  -2.398   6.697   8.547 -1.5614 -0.3249 -2.0818
  381MOL0     H50261  -2.443   6.832   8.441 -1.4344  0.2345 -0.0682
  381MOL0     H50262  -2.533   6.956   8.645  1.7346 -0.4555  3.7086
  381MOL0     H50263  -2.493   6.819   8.742  0.0446 -3.7737 -0.1677
  381MOL0     H50264  -2.705   6.825   8.514 -0.1165  1.6312  0.2800
  381MOL0     H50265  -2.655   6.680   8.595  2.4037  1.9061 -1.7705
  381MOL0     H50266  -2.864   6.795   8.675  1.1441 -2.2244  1.9760
  381MOL0     H50267  -2.765   6.930   8.740  1.6835  0.8827 -2.2986
  381MOL0     H50268  -2.795   6.784   8.937 -0.3197 -1.3724  0.4683
  381MOL0     H50269  -2.643   6.715   8.873 -0.5397 -0.6737  1.6228
  381MOL0     H50270  -2.924   6.605   8.840  1.1865  2.7802  1.7551
  381MOL0     H50271  -2.800   6.569   8.712 -0.9414 -0.7905 -0.3652
  381MOL0     H50272  -2.844   6.403   8.881  1.0924 -0.7200 -1.3677
  381MOL0     H50273  -2.773   6.518   9.009 -0.0144  0.2371  0.0095
  381MOL0     H50274  -2.138   7.096   8.586 -0.9894 -1.4808  0.4054
  381MOL0     H50275  -1.916   7.183   8.636 -0.3586 -0.9572 -1.9493
  381MOL0     H50276  -1.652   7.438   8.995  1.6537  1.8447  2.1192
  381MOL0     H50277  -1.453   7.508   9.077  2.1308  0.7398  0.4485
  381MOL0     H50278   0.248   7.707   8.525 -0.9889  1.0343  1.1720
  381MOL0     H50279   0.486   7.714   8.463 -2.3233 -1.1949 -1.0010
  381MOL0     H50280   0.900   7.528   8.270  2.0383 -2.7005 -0.6746
  381MOL0     H50281   1.118   7.464   8.261 -1.8418 -0.1595 -0.0774
  381MOL0     H50282   1.355   7.465   8.305 -1.1216  1.0765  0.7544
  381MOL0     H50283   1.297   7.301   8.339 -1.1976  0.3306 -0.5495
  381MOL0     H50284   1.529   7.286   8.316  0.2308  2.4133 -1.0958
  381MOL0     H50285   1.570   7.422   8.415 -0.0274  0.3928 -1.2429
  381MOL0     H50286   1.459   7.287   8.610  0.5589 -0.4681  0.3631
  381MOL0     H50287   1.623   7.242   8.548  1.3826  1.8799 -3.1112
  381MOL0     H50288   1.427   7.046   8.582  0.1135 -0.7317 -1.0409
  381MOL0     H50289   1.375   7.097   8.429  1.9252  1.0685 -1.6659
  381MOL0     H50290   1.782   6.948   8.392  0.9343  3.9347 -1.0307
  381MOL0     H50291   1.158   7.524   8.684 -0.5413 -1.2662  0.3648
  381MOL0     H50292   0.926   7.598   8.693 -1.2421  1.6582 -0.3486
  382MOL0     O50293   8.982   9.335   2.780 -0.6525  0.3347 -0.2860
  382MOL0     C50294   9.000   9.238   2.710 -0.3351  0.3971  0.1267
  382MOL0     O50295   9.122   9.197   2.665 -0.8705 -0.3648  0.0921
  382MOL0     C50296   9.227   9.290   2.680  0.6138 -0.5991  0.3905
  382MOL0     C50297   9.298   9.315   2.564  0.4717  0.6947 -0.1375
  382MOL0     C50298   9.414   9.393   2.572 -0.2452  1.5758 -0.1903
  382MOL0     C50299   9.461   9.448   2.693  0.0192 -0.0672  0.5062
  382MOL0     O50300   9.562   9.537   2.709 -0.7168 -0.2686  0.2210
  382MOL0     C50301   9.576   9.644   2.613  0.9630 -0.5043  0.8581
  382MOL0     C50302   9.716   9.618   2.544 -0.4300  0.2826 -0.2423
  382MOL0     C50303   9.838   9.612   2.633 -0.5820 -0.4766  0.5405
  382MOL0     C50304   9.870   9.747   2.688 -0.9190  1.0710 -0.2510
  382MOL0     C50305  10.014   9.741   2.750  0.2628 -0.2151  0.6644
  382MOL0     C50306  10.072   9.880   2.757 -0.2768 -0.3516  0.4037
  382MOL0     C50307  10.210   9.870   2.830 -0.1988  0.4300  0.2698
  382MOL0     C50308  10.313   9.989   2.811 -0.0369  0.3725 -0.7428
  382MOL0     N50309  10.389   9.999   2.696 -0.2880  0.4854  0.4625
  382MOL0     C50310  10.346  10.011   2.567 -0.1644  0.3503  0.6060
  382MOL0     C50311  10.457  10.064   2.505  1.1893 -0.6857  1.1305
  382MOL0     C50312  10.480  10.089   2.361  0.5072  0.8216 -0.0967
  382MOL0     C50313  10.359  10.145   2.282  0.7282 -1.2370  0.5355
  382MOL0     C50314  10.388  10.147   2.129 -0.3799 -0.4751 -0.5351
  382MOL0     C50315  10.309  10.253   2.058 -0.5753 -1.1240 -0.3328
  382MOL0     O50316  10.174  10.250   2.095 -0.2979  0.1186 -0.7827
  382MOL0     C50317  10.083  10.201   2.003  0.6680 -0.4229  0.1967
  382MOL0     C50318   9.959  10.147   2.050 -0.0140 -0.6704  0.1565
  382MOL0     C50319   9.855  10.106   1.969  0.6653  0.3178 -0.1251
  382MOL0     C50320   9.871  10.119   1.828 -0.5907  0.5601 -0.0936
  382MOL0     C50321   9.768  10.079   1.743  0.4299  0.3592  0.2919
  382MOL0     O50322   9.685   9.975   1.781 -0.8251  0.3435  0.4643
  382MOL0     C50323   9.599   9.929   1.682 -0.7762 -0.5422 -0.0994
  382MOL0     C50324   9.476   9.915   1.729  0.7665 -0.5521 -0.3664
  382MOL0     C50325   9.377   9.859   1.644 -0.3119 -0.7285  0.6765
  382MOL0     C50326   9.395   9.834   1.508  0.9214  0.0118 -0.4838
  382MOL0     O50327   9.313   9.777   1.417 -0.1876  0.5824  0.2812
  382MOL0     C50328   9.173   9.797   1.427  0.4278 -0.3651 -0.5643
  382MOL0     C50329   9.112   9.744   1.298  0.5231  0.2062  0.3172
  382MOL0     C50330   9.032   9.858   1.233 -0.1165 -0.3472 -0.3132
  382MOL0     C50331   9.130   9.948   1.157  0.1666 -0.2728  0.8373
  382MOL0     C50332   9.050  10.065   1.097 -0.3761  0.3359  0.3224
  382MOL0     C50333   9.147  10.140   0.995 -0.1025 -0.2728 -0.3795
  382MOL0     C50334   9.256  10.213   1.076  0.1965  0.2178 -0.3949
  382MOL0     C50335   9.323  10.333   1.010 -0.0187 -0.0414 -0.4170
  382MOL0    Cl50336   9.455  10.378   1.104 -0.4522 -0.0449  0.5571
  382MOL0     C50337   9.525   9.859   1.457  0.0718 -0.1100 -0.1597
  382MOL0     C50338   9.626   9.899   1.544  0.1165  0.1274 -0.1588
  382MOL0     O50339   9.754  10.151   1.638 -0.4231  0.3331 -0.6998
  382MOL0     C50340   9.998  10.164   1.777 -0.5759  0.4071 -0.1649
  382MOL0     C50341  10.104  10.205   1.861 -0.6729  0.6441  0.2100
  382MOL0     N50342  10.551  10.100   2.593 -0.2947  0.3081  0.1358
  382MOL0     N50343  10.508  10.056   2.706 -0.3688 -0.4448  0.0545
  382MOL0     C50344   9.394   9.404   2.806  0.2671 -0.4568 -0.3071
  382MOL0     C50345   9.282   9.323   2.802 -0.2334  0.1481 -0.2125
  382MOL0     C50346   8.882   9.170   2.652 -0.3411  0.3543 -0.7470
  382MOL0     C50347   8.752   9.209   2.694  1.0057  1.0468 -0.4276
  382MOL0     C50348   8.639   9.132   2.655 -0.1813 -0.3718 -0.4319
  382MOL0     C50349   8.641   9.020   2.577  0.1572 -0.5814  0.8191
  382MOL0     O50350   8.523   8.957   2.552 -0.5443 -0.0878 -0.2619
  382MOL0     C50351   8.525   8.828   2.487 -0.5478  0.8930  0.2307
  382MOL0     C50352   8.396   8.748   2.499  1.5341  0.1685 -0.0665
  382MOL0     C50353   8.342   8.710   2.631  0.0530 -0.9456  0.4250
  382MOL0     C50354   8.419   8.592   2.705 -0.0854 -0.0906 -0.3492
  382MOL0     C50355   8.337   8.536   2.804 -0.2226  0.1921 -0.2273
  382MOL0     C50356   8.280   8.470   2.888 -0.1531 -0.6169 -0.6380
  382MOL0     C50357   8.769   8.980   2.535  0.1402  0.1511 -0.0128
  382MOL0     C50358   8.882   9.051   2.574 -0.2614  0.1087 -0.1743
  382MOL0     H50359   9.257   9.273   2.472 -0.7313 -2.7956  1.8169
  382MOL0     H50360   9.461   9.412   2.475 -1.5662  0.3504 -1.1091
  382MOL0     H50361   9.589   9.739   2.666  5.3916 -1.1667  1.3274
  382MOL0     H50362   9.499   9.645   2.536  3.2229  2.5159 -1.6300
  382MOL0     H50363   9.744   9.691   2.468  2.5230 -2.3810 -1.9408
  382MOL0     H50364   9.701   9.527   2.486 -1.1808 -1.3996  2.3999
  382MOL0     H50365   9.922   9.573   2.575  0.5594  0.2432  1.6638
  382MOL0     H50366   9.819   9.538   2.711 -0.9523 -0.4757  0.4515
  382MOL0     H50367   9.848   9.826   2.616 -3.5964  0.8379  0.2158
  382MOL0     H50368   9.809   9.780   2.773  0.4143 -0.6533  1.4609
  382MOL0     H50369  10.084   9.678   2.694  1.7406  2.9580 -1.3657
  382MOL0     H50370  10.000   9.715   2.855 -3.4034 -1.8163 -0.0681
  382MOL0     H50371  10.004   9.949   2.807 -1.1384 -1.3130  0.5855
  382MOL0     H50372  10.089   9.922   2.658 -1.5865 -0.7053  0.0134
  382MOL0     H50373  10.183   9.857   2.935 -0.3223  0.7579  0.2809
  382MOL0     H50374  10.262   9.777   2.807 -2.1919 -0.2802 -1.7304
  382MOL0     H50375  10.376   9.987   2.901 -1.2843 -2.0824  0.1710
  382MOL0     H50376  10.259  10.085   2.817  3.1518  2.2389  0.7026
  382MOL0     H50377  10.253  10.008   2.512  0.5633 -0.1946 -0.6505
  382MOL0     H50378  10.504  10.000   2.303 -1.4216  0.4435 -0.3688
  382MOL0     H50379  10.571  10.150   2.353  0.8568  0.1388 -1.5537
  382MOL0     H50380  10.337  10.244   2.321  1.3229 -1.1605  0.6757
  382MOL0     H50381  10.261  10.100   2.301 -1.4793  2.9070  0.1304
  382MOL0     H50382  10.495  10.171   2.126 -0.5155  0.8281  1.9515
  382MOL0     H50383  10.359  10.057   2.074 -1.4263  0.6613 -1.8992
  382MOL0     H50384  10.326  10.255   1.950 -1.4423  2.1737 -0.5248
  382MOL0     H50385  10.351  10.351   2.086 -2.1333 -0.1696 -1.1774
  382MOL0     H50386   9.943  10.145   2.157 -0.3702 -1.0865  0.1023
  382MOL0     H50387   9.768  10.053   2.005  1.6647 -1.8090 -0.6829
  382MOL0     H50388   9.449   9.936   1.832  1.2041 -0.8944 -0.1826
  382MOL0     H50389   9.278   9.840   1.685 -1.0739  2.1173  0.3479
  382MOL0     H50390   9.151   9.902   1.446  0.6651 -0.2967 -0.6650
  382MOL0     H50391   9.135   9.746   1.516 -0.2348  1.6825  0.3735
  382MOL0     H50392   9.047   9.661   1.327 -0.4113  1.1242  0.9232
  382MOL0     H50393   9.187   9.713   1.225  0.1609 -1.0384  0.4435
  382MOL0     H50394   8.982   9.922   1.306 -3.4737 -1.4270 -1.4973
  382MOL0     H50395   8.956   9.822   1.164  0.9924  1.3462 -2.5815
  382MOL0     H50396   9.212   9.972   1.226  2.3262 -0.2398 -1.6006
  382MOL0     H50397   9.174   9.886   1.078  2.8833  0.4121  1.7027
  382MOL0     H50398   9.004  10.134   1.169 -2.1582 -0.0432 -0.3985
  382MOL0     H50399   8.958  10.027   1.051 -0.9485  2.6636 -0.5413
  382MOL0     H50400   9.092  10.212   0.933 -1.6531 -1.9642 -1.0968
  382MOL0     H50401   9.195  10.071   0.925  3.7797  1.9805 -0.1837
  382MOL0     H50402   9.211  10.245   1.170  1.8492  1.9699 -0.1397
  382MOL0     H50403   9.331  10.137   1.102 -1.4346 -1.4689 -0.3485
  382MOL0     H50404   9.252  10.417   1.010  0.9593  0.8144 -0.4626
  382MOL0     H50405   9.354  10.319   0.907  0.0449  3.4618 -1.0106
  382MOL0     H50406   9.538   9.842   1.351  0.0578 -0.8234 -0.0497
  382MOL0     H50407   9.730   9.893   1.516  0.9214 -2.1864  2.8120
  382MOL0     H50408  10.014  10.171   1.670  1.7986 -1.9963 -0.0803
  382MOL0     H50409  10.192  10.240   1.807  0.0270 -0.8067  0.3430
  382MOL0     H50410   9.448   9.440   2.893  1.6840 -0.5875 -1.0921
  382MOL0     H50411   9.227   9.295   2.892 -0.0789  1.5202  0.3252
  382MOL0     H50412   8.735   9.293   2.760  2.9996  1.3997 -0.2807
  382MOL0     H50413   8.552   9.169   2.709  0.2913  0.9520 -0.5454
  382MOL0     H50414   8.600   8.757   2.525 -2.7838 -1.4872  0.5337
  382MOL0     H50415   8.540   8.852   2.382 -0.0510 -1.2766 -0.2461
  382MOL0     H50416   8.312   8.805   2.458 -1.5372 -2.8384  1.5505
  382MOL0     H50417   8.401   8.662   2.432 -1.1781 -1.2793  1.4341
  382MOL0     H50418   8.238   8.679   2.614  0.6696 -1.9679 -1.8014
  382MOL0     H50419   8.345   8.797   2.696 -0.5876  0.5913 -1.4888
  382MOL0     H50420   8.448   8.513   2.635 -1.8468 -0.5016 -0.6431
  382MOL0     H50421   8.508   8.646   2.741 -0.5019 -0.3817  1.1961
  382MOL0     H50422   8.232   8.407   2.960 -2.4324  1.6480 -0.0347
  382MOL0     H50423   8.778   8.897   2.466 -0.7421 -0.7731  0.9611
  382MOL0     H50424   8.980   9.026   2.535  0.0836  1.9238 -0.5517
  383MOL0     O50425   6.677   3.191   9.270 -0.7649 -0.3560 -0.8335
  383MOL0     C50426   6.650   3.312   9.285  0.4118  0.2529 -0.8857
  383MOL0     O50427   6.525   3.365   9.278 -0.0717  0.1634  0.0221
  383MOL0     C50428   6.422   3.290   9.325 -0.0598  0.4136 -1.3416
  383MOL0     C50429   6.419   3.220   9.444 -0.0971  0.3303  1.3051
  383MOL0     C50430   6.309   3.164   9.500 -0.7827  0.3316 -0.3567
  383MOL0     C50431   6.186   3.174   9.445 -0.0243  0.2362  0.0567
  383MOL0     O50432   6.091   3.099   9.507  0.0329 -0.0639  0.6342
  383MOL0     C50433   5.969   3.059   9.437  1.2404  0.1791  0.1500
  383MOL0     C50434   5.858   3.167   9.435  0.1819  0.0201  0.1253
  383MOL0     C50435   5.719   3.102   9.407  0.1534 -0.0140  1.0343
  383MOL0     C50436   5.593   3.190   9.421  0.4557 -0.0131  0.4160
  383MOL0     C50437   5.472   3.101   9.388 -0.1802 -0.3636  0.3772
  383MOL0     C50438   5.332   3.163   9.409 -0.0078  0.5276  0.3147
  383MOL0     C50439   5.219   3.060   9.375 -1.0261 -0.5184 -0.3755
  383MOL0     C50440   5.093   3.134   9.331  0.2371 -0.2470 -0.4872
  383MOL0     N50441   5.019   3.160   9.459  0.0070 -0.3147  0.4874
  383MOL0     C50442   4.888   3.152   9.469  0.1445  0.6990  0.3262
  383MOL0     C50443   4.852   3.222   9.586 -0.1862 -0.0201  0.4606
  383MOL0     C50444   4.712   3.245   9.643  0.1509  0.0870 -0.0663
  383MOL0     C50445   4.624   3.302   9.534  0.0677  0.2433 -0.0520
  383MOL0     C50446   4.487   3.321   9.596  0.4646  0.3994 -0.3548
  383MOL0     C50447   4.376   3.356   9.498  0.5104 -0.4342 -0.3863
  383MOL0     O50448   4.244   3.383   9.556 -0.2290  0.5559  0.0582
  383MOL0     C50449   4.166   3.281   9.593  0.5020 -0.1951  0.5821
  383MOL0     C50450   4.179   3.214   9.706 -0.5201  0.4398 -0.2797
  383MOL0     C50451   4.105   3.101   9.732  0.7325  0.3504 -0.3020
  383MOL0     C50452   4.014   3.044   9.635  0.0768 -0.3746  0.0456
  383MOL0     C50453   3.951   2.912   9.652  0.2231 -0.6724  0.6680
  383MOL0     O50454   3.956   2.854   9.775 -0.4556  0.4666 -0.0734
  383MOL0     C50455   3.884   2.740   9.795  0.1834 -0.4992  0.8375
  383MOL0     C50456   3.935   2.640   9.874  0.3994 -2.5420  0.3267
  383MOL0     C50457   3.864   2.530   9.914  0.6280  0.3894 -0.1443
  383MOL0     C50458   3.730   2.501   9.874 -0.1364 -0.7352 -0.2845
  383MOL0     O50459   3.654   2.395   9.924  0.0601  0.3924  0.6155
  383MOL0     C50460   3.716   2.263   9.957 -0.6050 -1.0747 -1.0842
  383MOL0     C50461   3.624   2.152   9.928  0.2293 -0.0662 -0.2777
  383MOL0     C50462   3.497   2.170  10.006 -0.2864 -0.3734 -1.6530
  383MOL0     C50463   3.400   2.060   9.951 -0.5160  0.0851  0.3410
  383MOL0     C50464   3.291   2.021  10.047  1.3308  0.5377  0.5837
  383MOL0     C50465   3.171   2.128  10.043 -0.4684 -0.3901 -0.4685
  383MOL0     C50466   3.067   2.092  10.141 -0.1245  0.2920 -1.0577
  383MOL0     C50467   2.930   2.083  10.072 -0.3424 -0.3049 -1.2737
  383MOL0    Cl50468   2.814   1.983  10.176  0.4838 -0.2723  0.0389
  383MOL0     C50469   3.672   2.600   9.783 -0.5265 -0.9694  0.3106
  383MOL0     C50470   3.746   2.714   9.749 -0.4326  0.0593 -0.0805
  383MOL0     O50471   3.895   2.863   9.559  0.6888 -0.3591  0.7892
  383MOL0     C50472   3.985   3.130   9.520 -0.4216  0.5491 -0.1172
  383MOL0     C50473   4.066   3.238   9.502 -0.1948  0.2467  0.1054
  383MOL0     N50474   4.973   3.266   9.641  0.1146 -0.0129 -0.4465
  383MOL0     N50475   5.061   3.234   9.560 -0.3640  1.1533 -0.7246
  383MOL0     C50476   6.182   3.242   9.318  0.2503 -0.2674  0.8913
  383MOL0     C50477   6.299   3.291   9.258  0.5956  0.3217 -0.2994
  383MOL0     C50478   6.763   3.405   9.315 -0.8567  0.0801  0.3727
  383MOL0     C50479   6.888   3.353   9.325 -0.3457  0.0801  0.5750
  383MOL0     C50480   7.000   3.436   9.328 -0.3614 -0.2222  0.7970
  383MOL0     C50481   6.993   3.578   9.343  0.7211 -0.1099 -0.5367
  383MOL0     O50482   7.104   3.646   9.341  0.2022  0.3162  0.1496
  383MOL0     C50483   7.094   3.790   9.361 -0.0884  0.7653 -0.3390
  383MOL0     C50484   7.230   3.841   9.406 -0.0638  0.1270  0.5642
  383MOL0     C50485   7.333   3.860   9.289 -0.2173  1.0024  0.1592
  383MOL0     C50486   7.391   3.724   9.236  0.4401 -0.5058 -0.2606
  383MOL0     C50487   7.495   3.743   9.137  0.0024  0.3382  0.5067
  383MOL0     C50488   7.602   3.741   9.077 -0.1095 -0.0116 -1.2790
  383MOL0     C50489   6.855   3.634   9.344  0.4267  0.6366 -0.2733
  383MOL0     C50490   6.747   3.545   9.322  0.4185 -1.2569 -0.0253
  383MOL0     H50491   6.508   3.214   9.505 -0.5568 -3.6556  1.9087
  383MOL0     H50492   6.327   3.112   9.594 -1.9633  0.9054  0.2109
  383MOL0     H50493   5.921   2.971   9.480  0.3173 -0.2099 -1.5884
  383MOL0     H50494   6.001   3.033   9.335 -1.8106  3.0711 -1.7580
  383MOL0     H50495   5.874   3.249   9.364  2.1735  1.8033  2.4540
  383MOL0     H50496   5.863   3.203   9.538  4.4585 -2.1124  0.9037
  383MOL0     H50497   5.703   3.014   9.470  0.8676 -0.8069  0.1354
  383MOL0     H50498   5.730   3.066   9.304  1.6263  0.7649  0.8809
  383MOL0     H50499   5.570   3.233   9.519 -3.0334  1.9589 -1.0703
  383MOL0     H50500   5.584   3.276   9.353 -2.0406 -0.1812  0.4174
  383MOL0     H50501   5.481   3.009   9.446  2.6686 -1.2379 -1.2885
  383MOL0     H50502   5.480   3.063   9.286 -0.1798 -0.5337  0.4397
  383MOL0     H50503   5.321   3.258   9.355 -2.8313  0.7478  1.1065
  383MOL0     H50504   5.317   3.191   9.514  2.3661  0.3184  0.7623
  383MOL0     H50505   5.271   3.006   9.296  0.1535 -0.9989  0.6938
  383MOL0     H50506   5.198   3.000   9.464 -0.7543  1.8240  1.3656
  383MOL0     H50507   5.033   3.065   9.270 -2.0534 -0.1142  1.4557
  383MOL0     H50508   5.114   3.220   9.267  0.7735 -0.3727 -0.4876
  383MOL0     H50509   4.819   3.115   9.394  1.4631 -1.5009  0.0995
  383MOL0     H50510   4.718   3.297   9.739  0.5960 -1.1215  0.5808
  383MOL0     H50511   4.685   3.142   9.666  1.8877 -0.3028  0.3739
  383MOL0     H50512   4.616   3.231   9.452  0.1077 -0.1754  0.2980
  383MOL0     H50513   4.651   3.404   9.505 -0.1083  0.8839  1.8858
  383MOL0     H50514   4.462   3.225   9.641 -0.2477  0.1055 -1.3368
  383MOL0     H50515   4.482   3.409   9.661  3.7107  2.5321 -2.6647
  383MOL0     H50516   4.382   3.288   9.412  0.4142 -0.8961 -0.0362
  383MOL0     H50517   4.410   3.448   9.450  3.1109 -1.1342 -0.0162
  383MOL0     H50518   4.246   3.257   9.780 -1.7691  2.5824 -0.3001
  383MOL0     H50519   4.113   3.061   9.833 -1.4707 -1.7549 -0.8781
  383MOL0     H50520   4.035   2.656   9.912  0.4343  0.5380 -0.7682
  383MOL0     H50521   3.920   2.463   9.978 -1.3971 -0.1332  1.1609
  383MOL0     H50522   3.744   2.269  10.062 -1.6240 -1.0749 -0.7967
  383MOL0     H50523   3.808   2.235   9.905 -0.9246 -1.0824 -1.6550
  383MOL0     H50524   3.658   2.054   9.963 -0.9223 -0.6836 -0.8532
  383MOL0     H50525   3.609   2.140   9.821  0.0894 -1.3112 -0.1356
  383MOL0     H50526   3.449   2.267   9.992  0.4026 -0.0055 -1.5246
  383MOL0     H50527   3.522   2.152  10.111  3.7400  2.1907 -1.9738
  383MOL0     H50528   3.358   2.095   9.856 -1.5485 -0.2109  0.6680
  383MOL0     H50529   3.445   1.961   9.940 -2.4761 -0.7713 -0.4901
  383MOL0     H50530   3.320   2.009  10.152 -0.1887  2.3727  1.2872
  383MOL0     H50531   3.250   1.923  10.023 -1.5923  1.1614  2.4962
  383MOL0     H50532   3.130   2.137   9.942  0.4911  0.4488 -0.8043
  383MOL0     H50533   3.207   2.227  10.071 -0.8318 -1.2757  3.7190
  383MOL0     H50534   3.088   1.995  10.188 -1.2961  0.9804  1.0277
  383MOL0     H50535   3.060   2.164  10.224  1.1910 -1.9439  1.1399
  383MOL0     H50536   2.947   2.028   9.979  2.1241 -2.2613  0.2065
  383MOL0     H50537   2.900   2.186  10.053  1.2894  0.3959 -0.3113
  383MOL0     H50538   3.573   2.580   9.744 -0.2694  2.5001 -2.6420
  383MOL0     H50539   3.702   2.798   9.697 -0.3745 -0.2319 -0.6021
  383MOL0     H50540   3.919   3.108   9.436  1.0587  1.2610 -1.5136
  383MOL0     H50541   4.037   3.308   9.424  0.3778 -2.2463 -2.5235
  383MOL0     H50542   6.084   3.240   9.271 -0.0669 -0.5756  1.5541
  383MOL0     H50543   6.288   3.335   9.159  2.0399  0.3622 -0.4578
  383MOL0     H50544   6.918   3.249   9.320  1.8399  0.4939  3.1286
  383MOL0     H50545   7.097   3.386   9.321 -0.0567  0.5734 -2.5277
  383MOL0     H50546   7.021   3.818   9.437  1.7323  4.7312  0.2489
  383MOL0     H50547   7.062   3.829   9.264  1.0662  1.6011 -0.4040
  383MOL0     H50548   7.219   3.936   9.459  0.9635 -0.0223  1.0766
  383MOL0     H50549   7.279   3.775   9.477 -2.1324 -1.3722  0.6871
  383MOL0     H50550   7.418   3.910   9.336 -1.0997  1.9801  0.7493
  383MOL0     H50551   7.291   3.913   9.203 -2.3854  1.4767  1.4556
  383MOL0     H50552   7.435   3.665   9.317  0.8663  0.1570  0.0102
  383MOL0     H50553   7.302   3.669   9.203 -1.3486  2.1790 -0.2794
  383MOL0     H50554   7.699   3.734   9.032 -0.3601 -3.3784 -1.5588
  383MOL0     H50555   6.829   3.739   9.340  0.8366  0.7599  0.1189
  383MOL0     H50556   6.644   3.579   9.327  0.7378 -0.3864  1.0675
  384MOL0     O50557   4.541   9.742   8.509  0.1970 -0.0543 -0.1696
  384MOL0     C50558   4.576   9.755   8.395  0.7940  0.1078  0.8550
  384MOL0     O50559   4.704   9.746   8.350  0.0901 -0.0294  0.4370
  384MOL0     C50560   4.792   9.779   8.448  0.5992 -0.6820  0.3717
  384MOL0     C50561   4.840   9.685   8.531 -0.2875  0.1140 -0.4421
  384MOL0     C50562   4.934   9.715   8.630  0.2474 -0.5889 -0.3413
  384MOL0     C50563   4.986   9.844   8.643 -0.0827  0.4343  0.1590
  384MOL0     O50564   5.081   9.864   8.741 -0.6559  0.1281  0.3966
  384MOL0     C50565   5.207   9.904   8.685  0.3558 -0.0351  0.1215
  384MOL0     C50566   5.306   9.912   8.792  0.1210  0.8502 -0.0585
  384MOL0     C50567   5.372   9.776   8.819  0.0320  0.5813  0.1984
  384MOL0     C50568   5.468   9.779   8.940  0.2073  0.1369  0.3774
  384MOL0     C50569   5.579   9.678   8.928  0.5987 -0.0469  0.1267
  384MOL0     C50570   5.690   9.698   9.031  0.2756  0.2975  0.0436
  384MOL0     C50571   5.785   9.588   9.016  0.3814 -0.0478 -0.3728
  384MOL0     C50572   5.901   9.618   9.121 -0.4323  0.2481  0.7516
  384MOL0     N50573   5.955   9.500   9.184 -0.0067  0.3670 -0.4692
  384MOL0     C50574   5.911   9.431   9.297 -0.5372 -0.0466  0.1439
  384MOL0     C50575   5.996   9.326   9.306 -0.6132  0.2880 -0.1303
  384MOL0     C50576   5.986   9.229   9.425 -0.5853 -0.3642 -0.6762
  384MOL0     C50577   5.921   9.098   9.374 -0.1838  0.3297 -0.4497
  384MOL0     C50578   5.901   9.004   9.492 -0.8961 -0.0446  0.1330
  384MOL0     C50579   5.798   8.887   9.470 -0.8060  0.0011 -0.1364
  384MOL0     O50580   5.664   8.942   9.494  0.0767 -0.3409 -0.0139
  384MOL0     C50581   5.553   8.916   9.420 -1.3611  0.2098 -1.2752
  384MOL0     C50582   5.454   9.015   9.413 -0.8439 -0.3685 -1.3297
  384MOL0     C50583   5.338   8.986   9.355 -0.2652  0.1929 -0.5018
  384MOL0     C50584   5.319   8.871   9.278  0.0178 -0.8461 -0.5657
  384MOL0     C50585   5.190   8.837   9.216  0.7252 -0.2348 -0.2089
  384MOL0     O50586   5.191   8.729   9.141  0.2549  0.2405 -0.3120
  384MOL0     C50587   5.072   8.684   9.085  0.3142  0.1176 -0.7958
  384MOL0     C50588   5.013   8.771   8.987 -0.1634 -0.2221 -0.2438
  384MOL0     C50589   4.900   8.730   8.927  0.5071 -0.1981 -0.1187
  384MOL0     C50590   4.827   8.613   8.969  0.2647 -0.5113 -0.3606
  384MOL0     O50591   4.739   8.574   8.883  0.0225  0.0119  0.4241
  384MOL0     C50592   4.608   8.536   8.936  0.6151  0.4160 -0.5737
  384MOL0     C50593   4.507   8.546   8.818  0.3650 -0.4401  0.5067
  384MOL0     C50594   4.374   8.468   8.841  0.1792  0.1954  0.3587
  384MOL0     C50595   4.382   8.319   8.800  0.3878  0.4859  0.4147
  384MOL0     C50596   4.271   8.232   8.861 -0.9884 -0.2416  0.1729
  384MOL0     C50597   4.255   8.083   8.818  0.1665  0.7125 -1.0204
  384MOL0     C50598   4.133   8.028   8.890  0.0987  0.1623  0.0251
  384MOL0     C50599   4.077   7.903   8.826 -0.4232  0.6237 -0.1499
  384MOL0    Cl50600   4.213   7.795   8.784  0.0756 -0.0816 -0.1945
  384MOL0     C50601   4.891   8.527   9.063  0.0269  0.5284  1.1014
  384MOL0     C50602   5.013   8.561   9.118 -0.2807 -1.0308  0.3068
  384MOL0     O50603   5.093   8.912   9.233  0.4719 -0.1981 -0.1630
  384MOL0     C50604   5.424   8.771   9.283 -0.2490  0.9524 -0.1764
  384MOL0     C50605   5.539   8.799   9.352 -0.2585  0.4080 -0.3708
  384MOL0     N50606   6.083   9.320   9.197 -0.0393 -0.0993 -0.5274
  384MOL0     N50607   6.059   9.438   9.129  0.1482 -0.2005 -0.0751
  384MOL0     C50608   4.941   9.941   8.548 -0.4429  0.3989 -1.1786
  384MOL0     C50609   4.842   9.910   8.460  0.0745  0.6414  0.0808
  384MOL0     C50610   4.469   9.774   8.287  1.2194  0.0994 -0.3739
  384MOL0     C50611   4.335   9.802   8.324  0.0543  0.4036 -0.5963
  384MOL0     C50612   4.229   9.793   8.231 -0.0408 -0.7645  0.3635
  384MOL0     C50613   4.251   9.779   8.096 -1.0166 -0.5489  0.7329
  384MOL0     O50614   4.157   9.796   8.001  0.6234 -0.9559  0.1251
  384MOL0     C50615   4.027   9.741   8.017  1.0319 -0.4457 -0.6346
  384MOL0     C50616   3.936   9.846   7.968 -0.8511  0.0424  0.1829
  384MOL0     C50617   3.790   9.805   7.949  0.3434  0.7817  0.3501
  384MOL0     C50618   3.733   9.929   7.886 -0.2878 -1.1066  0.4833
  384MOL0     C50619   3.608   9.901   7.815  0.0646 -0.1547  0.4701
  384MOL0     C50620   3.502   9.890   7.748  0.2279  1.0771 -0.4641
  384MOL0     C50621   4.385   9.762   8.052  0.0871 -0.2488  0.7466
  384MOL0     C50622   4.486   9.759   8.148 -0.9698  0.6641  1.2528
  384MOL0     H50623   4.799   9.584   8.525  1.8062 -0.7022 -4.2388
  384MOL0     H50624   4.975   9.640   8.697 -0.7999 -1.1058 -0.2555
  384MOL0     H50625   5.199  10.003   8.640  1.6748 -0.2527 -0.6565
  384MOL0     H50626   5.234   9.840   8.600 -3.3701  2.1730 -3.0382
  384MOL0     H50627   5.264   9.946   8.888 -0.6227 -0.9461  0.2960
  384MOL0     H50628   5.384   9.976   8.750  1.2860 -1.6178 -1.8594
  384MOL0     H50629   5.438   9.756   8.733 -0.5613 -0.6927  0.0185
  384MOL0     H50630   5.299   9.696   8.832  0.7530  0.2331  2.5893
  384MOL0     H50631   5.508   9.878   8.965  2.5593 -0.6989  0.1725
  384MOL0     H50632   5.406   9.772   9.029  1.4909 -0.0274  1.2876
  384MOL0     H50633   5.624   9.680   8.829  0.3685 -3.0174 -0.1084
  384MOL0     H50634   5.525   9.585   8.948 -0.2485  0.5517  0.7372
  384MOL0     H50635   5.631   9.703   9.124 -0.3820  0.7091 -0.3849
  384MOL0     H50636   5.732   9.798   9.030  0.8031  0.0931  0.7011
  384MOL0     H50637   5.743   9.487   9.020  1.4023 -0.5284 -1.1797
  384MOL0     H50638   5.823   9.599   8.914  3.1975 -0.1295  0.5773
  384MOL0     H50639   5.860   9.686   9.196  0.5996  2.6661 -0.7137
  384MOL0     H50640   5.982   9.674   9.073 -0.8869  0.7835  0.5852
  384MOL0     H50641   5.836   9.450   9.373 -2.9149 -3.5531 -1.0785
  384MOL0     H50642   5.923   9.264   9.507 -0.8893 -2.8629  0.2452
  384MOL0     H50643   6.088   9.209   9.458  0.0528 -0.1123 -2.4137
  384MOL0     H50644   5.988   9.048   9.303 -0.7464 -0.0608 -0.7063
  384MOL0     H50645   5.828   9.118   9.320  0.9684  2.9812 -1.6429
  384MOL0     H50646   5.998   8.960   9.518 -0.5618 -0.1991 -1.3036
  384MOL0     H50647   5.861   9.065   9.574  0.7475 -0.4417  1.2672
  384MOL0     H50648   5.817   8.803   9.538 -2.2741 -0.2514 -0.0217
  384MOL0     H50649   5.801   8.840   9.371 -0.4305 -1.7105  0.6469
  384MOL0     H50650   5.472   9.113   9.457  0.1447 -1.4218  0.7896
  384MOL0     H50651   5.253   9.051   9.372 -1.2348 -0.9716 -0.8280
  384MOL0     H50652   5.058   8.861   8.946 -0.9211  1.3950  2.2008
  384MOL0     H50653   4.857   8.786   8.845 -0.3706 -3.7469 -2.3225
  384MOL0     H50654   4.582   8.609   9.013  1.1203 -1.5890  1.6116
  384MOL0     H50655   4.610   8.432   8.970  1.7487  0.5071 -0.3273
  384MOL0     H50656   4.565   8.515   8.730 -1.3230  4.3757 -2.7743
  384MOL0     H50657   4.464   8.646   8.804 -1.0415 -0.7639  2.1587
  384MOL0     H50658   4.313   8.520   8.768  1.8644  1.2472 -0.3654
  384MOL0     H50659   4.330   8.488   8.940 -3.7048 -0.2386 -1.1107
  384MOL0     H50660   4.374   8.309   8.691  2.1256 -1.4777  0.3970
  384MOL0     H50661   4.474   8.273   8.837 -2.0264 -3.3994  2.2356
  384MOL0     H50662   4.177   8.285   8.848 -0.0297  1.0184 -2.3428
  384MOL0     H50663   4.286   8.229   8.969 -1.1427  1.2366  0.2569
  384MOL0     H50664   4.340   8.023   8.850 -0.0064  1.7791  1.6950
  384MOL0     H50665   4.243   8.078   8.709 -3.1493  0.3282 -0.7363
  384MOL0     H50666   4.159   8.006   8.995  0.2012 -0.5469 -0.1435
  384MOL0     H50667   4.050   8.098   8.886  0.3129  0.3881 -0.5123
  384MOL0     H50668   4.020   7.916   8.734 -1.7614 -0.5658  0.4741
  384MOL0     H50669   4.005   7.854   8.891 -1.5584  2.8060  0.3461
  384MOL0     H50670   4.847   8.429   9.080 -0.2277  0.4637  0.1426
  384MOL0     H50671   5.080   8.497   9.175  4.9696  0.9861 -2.8365
  384MOL0     H50672   5.412   8.679   9.226  1.2956  1.6410 -1.7129
  384MOL0     H50673   5.605   8.712   9.354  0.5254  0.9657  2.3702
  384MOL0     H50674   4.978  10.043   8.555  2.5225 -0.6562  0.4500
  384MOL0     H50675   4.816   9.984   8.385  2.2608  0.9994 -0.3908
  384MOL0     H50676   4.327   9.825   8.430  2.8622 -0.3128 -0.1502
  384MOL0     H50677   4.128   9.816   8.263 -0.7126  0.7873 -2.5425
  384MOL0     H50678   3.997   9.714   8.119 -0.3605 -3.8276 -1.7920
  384MOL0     H50679   4.024   9.648   7.960 -0.0972 -0.6802 -0.2260
  384MOL0     H50680   3.938   9.934   8.033 -1.2505  1.3132 -1.4518
  384MOL0     H50681   3.984   9.879   7.875  1.3269  0.0140  1.2210
  384MOL0     H50682   3.755   9.771   8.047 -2.9940 -1.3026 -1.3792
  384MOL0     H50683   3.778   9.717   7.885  0.0142 -0.2812  1.8121
  384MOL0     H50684   3.719  10.019   7.946 -1.0229  1.3919 -3.0883
  384MOL0     H50685   3.801   9.959   7.806 -0.9206  0.1831  0.4050
  384MOL0     H50686   3.407   9.879   7.700 -0.9407 -3.2461  2.3091
  384MOL0     H50687   4.407   9.760   7.945 -1.5802  2.7535  0.2503
  384MOL0     H50688   4.586   9.738   8.112 -0.6304  2.6677  0.9018
  385MOL0     O50689   0.575   8.429   6.688  0.6635 -0.1286  0.0209
  385MOL0     C50690   0.640   8.485   6.770 -0.2098 -1.0838  0.1269
  385MOL0     O50691   0.587   8.559   6.880 -0.3882  0.3248  0.2906
  385MOL0     C50692   0.451   8.573   6.908  0.4860  0.9982 -0.6731
  385MOL0     C50693   0.341   8.534   6.831  0.8737 -0.8437  0.5587
  385MOL0     C50694   0.211   8.568   6.864  0.2424  1.1783 -0.7243
  385MOL0     C50695   0.180   8.633   6.980  0.5736 -0.1014 -0.3263
  385MOL0     O50696   0.059   8.676   7.038  0.0916  0.1219  0.0047
  385MOL0     C50697  -0.053   8.699   6.949 -0.0099  0.2970  0.5193
  385MOL0     C50698  -0.166   8.736   7.046 -0.0542 -0.0185  0.7932
  385MOL0     C50699  -0.289   8.782   6.971  0.0142 -1.1129 -0.2568
  385MOL0     C50700  -0.413   8.773   7.066 -1.1807  0.6310 -0.6543
  385MOL0     C50701  -0.527   8.850   7.008  0.2228 -0.0777  0.2831
  385MOL0     C50702  -0.658   8.806   7.081 -0.2266 -0.4267 -0.8725
  385MOL0     C50703  -0.778   8.896   7.044  0.0513  0.8444  0.1453
  385MOL0     C50704  -0.920   8.849   7.087 -0.2979  0.3583 -0.6151
  385MOL0     N50705  -0.926   8.788   7.222 -0.3649 -0.8083 -0.5865
  385MOL0     C50706  -0.952   8.862   7.333 -0.3044 -0.2258  0.7028
  385MOL0     C50707  -0.982   8.766   7.421  0.1104 -0.9210  0.3753
  385MOL0     C50708  -1.020   8.790   7.559  0.1156 -0.7030 -0.4596
  385MOL0     C50709  -0.929   8.712   7.659  0.9073 -1.0119  0.1575
  385MOL0     C50710  -0.988   8.713   7.800 -0.0778 -0.7332  0.0258
  385MOL0     C50711  -0.888   8.674   7.907 -0.2416 -0.0778 -1.0162
  385MOL0     O50712  -0.771   8.751   7.900 -0.6394  0.0755  0.0283
  385MOL0     C50713  -0.655   8.678   7.899  0.5418 -0.0512  1.0715
  385MOL0     C50714  -0.616   8.601   8.001  0.7010  0.3299  0.2433
  385MOL0     C50715  -0.490   8.555   8.006 -0.3850  0.0290 -0.3353
  385MOL0     C50716  -0.408   8.565   7.890 -0.4655 -0.3490 -0.4640
  385MOL0     C50717  -0.271   8.509   7.896  0.2580 -0.3751 -0.7170
  385MOL0     O50718  -0.231   8.461   8.015 -0.1519 -0.8914 -0.2687
  385MOL0     C50719  -0.096   8.423   8.043  0.7942 -0.3142 -0.7424
  385MOL0     C50720  -0.034   8.464   8.168 -0.1138  0.1731 -1.1761
  385MOL0     C50721   0.104   8.439   8.202  0.5370 -0.0928 -1.0367
  385MOL0     C50722   0.178   8.366   8.105 -0.3100  0.4039  0.2804
  385MOL0     O50723   0.319   8.356   8.107  0.0620 -0.7350 -0.1628
  385MOL0     C50724   0.405   8.432   8.193 -0.4060 -1.0257  0.9465
  385MOL0     C50725   0.551   8.395   8.171  0.4131  0.5576  0.5272
  385MOL0     C50726   0.649   8.486   8.238  1.3548  1.0481  0.1861
  385MOL0     C50727   0.793   8.465   8.195  0.0404  0.7114 -0.0933
  385MOL0     C50728   0.885   8.545   8.292 -0.7924 -0.5985  0.4519
  385MOL0     C50729   0.934   8.684   8.257 -0.5467 -0.3020 -0.1714
  385MOL0     C50730   1.054   8.727   8.354  0.1231 -0.3220 -0.0426
  385MOL0     C50731   1.035   8.880   8.386  0.7616  0.4141  0.2657
  385MOL0    Cl50732   1.051   8.980   8.240  0.2700  0.0798 -0.6237
  385MOL0     C50733   0.116   8.314   7.991  0.3703  0.3712  0.1796
  385MOL0     C50734  -0.020   8.344   7.964 -0.0207  0.0503 -1.0729
  385MOL0     O50735  -0.206   8.504   7.792  0.4491  1.1665  0.7872
  385MOL0     C50736  -0.452   8.636   7.778 -0.5399  0.1697 -0.2294
  385MOL0     C50737  -0.576   8.699   7.787  0.8112 -0.2609 -0.0133
  385MOL0     N50738  -0.970   8.639   7.364 -0.2178 -0.5836  0.4562
  385MOL0     N50739  -0.943   8.658   7.243  0.6712  0.5101  0.4012
  385MOL0     C50740   0.288   8.650   7.064 -0.5695  0.3299 -0.1288
  385MOL0     C50741   0.422   8.635   7.027 -0.9772 -0.6913 -0.0434
  385MOL0     C50742   0.790   8.483   6.756 -0.1263 -0.1945 -0.4948
  385MOL0     C50743   0.881   8.526   6.849 -0.0474  0.0598 -0.9091
  385MOL0     C50744   1.021   8.510   6.823  0.7043 -0.9931  0.1830
  385MOL0     C50745   1.073   8.438   6.721  0.2180 -0.9594  0.0919
  385MOL0     O50746   1.209   8.418   6.715  0.2789  0.8394 -0.4639
  385MOL0     C50747   1.264   8.342   6.606 -0.3317  0.3031 -0.8157
  385MOL0     C50748   1.289   8.424   6.489 -0.0110 -0.9313  0.3133
  385MOL0     C50749   1.319   8.358   6.357 -1.2553 -0.8392  0.5796
  385MOL0     C50750   1.456   8.282   6.375 -0.4232 -0.0238 -0.2809
  385MOL0     C50751   1.502   8.236   6.240  0.0764  0.0666  0.1838
  385MOL0     C50752   1.533   8.189   6.130 -0.7827  0.8638  0.0887
  385MOL0     C50753   0.978   8.384   6.628 -0.0908 -1.0241 -0.4446
  385MOL0     C50754   0.841   8.409   6.637  0.1254 -0.0531 -0.4797
  385MOL0     H50755   0.354   8.473   6.742 -0.2542  1.9622 -1.6576
  385MOL0     H50756   0.126   8.543   6.802 -0.8785  1.8418  0.4993
  385MOL0     H50757  -0.080   8.609   6.893 -4.2662  0.9571  1.1846
  385MOL0     H50758  -0.037   8.782   6.880 -0.8581 -0.0316 -0.0928
  385MOL0     H50759  -0.129   8.820   7.106 -2.3857  0.8275  1.1490
  385MOL0     H50760  -0.198   8.658   7.116 -1.9978 -0.5593 -0.6122
  385MOL0     H50761  -0.306   8.714   6.887  0.8183 -0.2413 -1.1590
  385MOL0     H50762  -0.271   8.884   6.936  2.1745  0.1295  3.8511
  385MOL0     H50763  -0.429   8.671   7.100 -1.1156  0.5823 -0.7696
  385MOL0     H50764  -0.388   8.825   7.159  0.4073 -3.1398  1.2486
  385MOL0     H50765  -0.538   8.825   6.902 -1.1587 -2.5145  0.9215
  385MOL0     H50766  -0.502   8.956   7.020  0.5426  0.1371 -1.8650
  385MOL0     H50767  -0.645   8.797   7.189 -2.3416 -2.4405 -0.6909
  385MOL0     H50768  -0.674   8.709   7.033  2.1450 -0.1214 -2.4185
  385MOL0     H50769  -0.762   8.995   7.088 -1.3794  0.1481  2.4368
  385MOL0     H50770  -0.778   8.899   6.935 -0.6167 -2.5616 -0.0542
  385MOL0     H50771  -0.952   8.776   7.011 -0.3085 -2.2339  1.7336
  385MOL0     H50772  -0.981   8.940   7.090 -0.1436  0.4767  2.5267
  385MOL0     H50773  -0.953   8.969   7.349 -1.1160 -0.0141 -0.6022
  385MOL0     H50774  -1.127   8.769   7.565  0.4634 -2.2606  1.0860
  385MOL0     H50775  -1.008   8.896   7.578 -2.4034 -0.5169  0.4984
  385MOL0     H50776  -0.838   8.772   7.655 -0.0115  0.4406  0.2413
  385MOL0     H50777  -0.904   8.612   7.621  3.0674 -0.7449  0.7814
  385MOL0     H50778  -1.042   8.805   7.825 -2.4153 -1.4985 -1.8368
  385MOL0     H50779  -1.069   8.640   7.791  0.0116 -0.5749 -4.0407
  385MOL0     H50780  -0.880   8.566   7.898  0.4463 -0.1595  0.3068
  385MOL0     H50781  -0.935   8.697   8.004  2.3495  1.1851  0.0421
  385MOL0     H50782  -0.686   8.591   8.083  1.1698 -1.7800  0.4531
  385MOL0     H50783  -0.453   8.503   8.094 -1.5689  0.9419  0.7388
  385MOL0     H50784  -0.101   8.520   8.231  1.0936  3.2367 -2.4412
  385MOL0     H50785   0.148   8.491   8.287 -1.2891 -1.4002  0.8065
  385MOL0     H50786   0.373   8.405   8.294 -2.5664  0.7087  0.8014
  385MOL0     H50787   0.392   8.540   8.183  0.7593 -0.9442 -0.0222
  385MOL0     H50788   0.578   8.399   8.065  2.2844  0.7537  0.9743
  385MOL0     H50789   0.572   8.291   8.198  0.5981  1.1343  2.8190
  385MOL0     H50790   0.634   8.469   8.345 -1.2771 -1.0363 -0.3964
  385MOL0     H50791   0.633   8.589   8.204  5.7095  0.6505 -4.2666
  385MOL0     H50792   0.813   8.359   8.214 -2.0011  0.1650 -0.7771
  385MOL0     H50793   0.815   8.498   8.093 -2.2244  2.5342 -0.0603
  385MOL0     H50794   0.973   8.480   8.295 -0.7290 -0.6028 -1.0139
  385MOL0     H50795   0.859   8.553   8.398  2.2297 -1.0272  1.3430
  385MOL0     H50796   0.854   8.757   8.272 -1.9782 -1.7818 -0.3280
  385MOL0     H50797   0.974   8.675   8.155  0.9198 -2.5992  0.5337
  385MOL0     H50798   1.050   8.678   8.452  3.1968 -0.4165  0.1324
  385MOL0     H50799   1.157   8.710   8.324  0.9100 -0.1699  2.3605
  385MOL0     H50800   1.125   8.898   8.446  0.0370  0.9336  1.2126
  385MOL0     H50801   0.938   8.896   8.434  0.0359  0.9146 -1.3030
  385MOL0     H50802   0.184   8.274   7.916  0.9737  0.6462  0.5699
  385MOL0     H50803  -0.084   8.305   7.885 -0.0059  1.0130 -1.5754
  385MOL0     H50804  -0.382   8.664   7.700  0.7767 -0.0930  0.8164
  385MOL0     H50805  -0.620   8.763   7.711  3.5138 -0.3991 -1.8575
  385MOL0     H50806   0.268   8.693   7.162  0.2000  1.4150 -0.4418
  385MOL0     H50807   0.497   8.665   7.099 -0.1812 -2.4045 -0.0975
  385MOL0     H50808   0.852   8.561   6.948  1.1863 -0.0254 -0.4897
  385MOL0     H50809   1.087   8.551   6.899  0.1677  0.2546  0.0074
  385MOL0     H50810   1.203   8.257   6.574  1.1155 -0.8195 -0.7301
  385MOL0     H50811   1.362   8.298   6.627 -1.8479 -2.5341  0.7584
  385MOL0     H50812   1.195   8.478   6.473  0.0657 -1.1931 -1.1197
  385MOL0     H50813   1.365   8.500   6.512  1.0646 -1.6475 -0.7510
  385MOL0     H50814   1.357   8.437   6.290 -0.9294 -0.8459  0.7563
  385MOL0     H50815   1.240   8.295   6.315 -1.4407 -0.2275 -0.0058
  385MOL0     H50816   1.528   8.341   6.432 -0.8406  0.5745 -0.3627
  385MOL0     H50817   1.450   8.185   6.426 -0.8184 -1.2357 -2.5225
  385MOL0     H50818   1.567   8.150   6.036 -3.4823  0.4423 -0.8022
  385MOL0     H50819   1.015   8.327   6.544  0.8590 -0.5056 -0.3960
  385MOL0     H50820   0.778   8.366   6.560  1.6382 -0.2316 -1.6576
  386MOL0     O50821   0.630   4.357   4.710 -0.0320  0.2657  0.6454
  386MOL0     C50822   0.730   4.422   4.669  0.3554 -0.0644 -0.4498
  386MOL0     O50823   0.729   4.532   4.582  1.5206  0.2000 -0.4449
  386MOL0     C50824   0.609   4.577   4.528 -0.1777  0.0012  0.1004
  386MOL0     C50825   0.516   4.497   4.466  0.2229  1.4967 -0.2930
  386MOL0     C50826   0.403   4.546   4.406  0.5014  0.3359  0.4965
  386MOL0     C50827   0.378   4.684   4.396  0.3779  0.2844  0.2324
  386MOL0     O50828   0.262   4.737   4.352 -0.1759  0.5958  0.7288
  386MOL0     C50829   0.146   4.659   4.348 -0.3772  0.1930 -1.2665
  386MOL0     C50830   0.009   4.746   4.369 -0.6024 -0.0485  0.0961
  386MOL0     C50831  -0.108   4.661   4.428  0.4909 -0.8906  0.2711
  386MOL0     C50832  -0.236   4.681   4.359  1.8984  0.4385  0.2895
  386MOL0     C50833  -0.351   4.593   4.411  0.2413  0.3783 -0.0700
  386MOL0     C50834  -0.484   4.615   4.326  0.1829  0.0412 -0.8132
  386MOL0     C50835  -0.599   4.565   4.397  0.6204  0.0891 -0.2189
  386MOL0     C50836  -0.593   4.417   4.420  0.2335  0.4321 -0.3202
  386MOL0     N50837  -0.719   4.371   4.493 -0.4894 -0.8325  0.3577
  386MOL0     C50838  -0.826   4.303   4.427 -0.8003  0.0990  0.7878
  386MOL0     C50839  -0.899   4.255   4.527  0.0763  0.2205 -0.2358
  386MOL0     C50840  -1.016   4.163   4.510  0.2394  0.6899 -0.4857
  386MOL0     C50841  -1.148   4.223   4.557  0.0611  0.6727  0.8544
  386MOL0     C50842  -1.180   4.215   4.706  0.6037  0.4438 -0.7382
  386MOL0     C50843  -1.309   4.297   4.728 -0.4557 -0.3227  0.2368
  386MOL0     O50844  -1.414   4.223   4.670 -0.2633  0.1495 -0.1829
  386MOL0     C50845  -1.546   4.272   4.678 -0.3671 -0.0596 -0.3149
  386MOL0     C50846  -1.642   4.197   4.612  0.0586 -0.3452  0.9539
  386MOL0     C50847  -1.783   4.231   4.624  0.4785  0.1474  0.2964
  386MOL0     C50848  -1.817   4.348   4.692  0.2879  0.3364 -0.2405
  386MOL0     C50849  -1.962   4.383   4.696  0.6724  0.8269  0.0810
  386MOL0     O50850  -1.982   4.515   4.719 -0.0450  0.0755 -0.9543
  386MOL0     C50851  -2.101   4.567   4.681 -0.4742 -0.1937  0.1734
  386MOL0     C50852  -2.182   4.615   4.786 -0.3637  0.5502  0.3035
  386MOL0     C50853  -2.301   4.678   4.748 -0.5533  0.0470 -0.3127
  386MOL0     C50854  -2.332   4.703   4.611  0.0176 -0.8323 -0.5631
  386MOL0     O50855  -2.451   4.770   4.581  0.6211  0.6194 -0.1300
  386MOL0     C50856  -2.527   4.717   4.467  0.1551  0.0401  0.2397
  386MOL0     C50857  -2.607   4.587   4.487  0.0197 -0.7255 -0.8339
  386MOL0     C50858  -2.732   4.607   4.578  0.2677 -0.0467 -0.8793
  386MOL0     C50859  -2.782   4.481   4.654 -0.5113 -0.1847 -0.1444
  386MOL0     C50860  -2.886   4.503   4.762 -0.0215 -0.7682  0.1281
  386MOL0     C50861  -2.896   4.397   4.870  0.5355  0.4028  0.4001
  386MOL0     C50862  -2.987   4.280   4.844 -0.6490 -1.0030  0.6069
  386MOL0     C50863  -3.137   4.328   4.845  0.2217 -0.1593 -0.2454
  386MOL0    Cl50864  -3.254   4.203   4.852  0.0611  0.1259  0.0554
  386MOL0     C50865  -2.244   4.652   4.511  0.1826 -0.1954 -0.0671
  386MOL0     C50866  -2.124   4.587   4.554 -0.0172  0.3436  1.2336
  386MOL0     O50867  -2.047   4.309   4.657  0.1789 -0.0804 -0.5396
  386MOL0     C50868  -1.717   4.432   4.748 -0.0219  0.2874  0.5525
  386MOL0     C50869  -1.583   4.399   4.733  0.5494  0.3658 -0.6134
  386MOL0     N50870  -0.841   4.290   4.646 -0.9219 -0.5010  0.6799
  386MOL0     N50871  -0.732   4.359   4.626  0.1377  0.6005 -0.1764
  386MOL0     C50872   0.470   4.764   4.457  0.0031 -0.4232 -0.3544
  386MOL0     C50873   0.581   4.713   4.522 -0.4610  0.0767 -0.0215
  386MOL0     C50874   0.868   4.379   4.704  0.9630  0.3285 -0.5395
  386MOL0     C50875   0.969   4.386   4.599  0.0283 -0.7801 -1.4799
  386MOL0     C50876   1.098   4.331   4.611 -0.2186  0.5499 -0.4333
  386MOL0     C50877   1.128   4.263   4.732  0.1449 -0.8411 -0.2296
  386MOL0     O50878   1.258   4.218   4.744 -0.2131 -0.4771 -0.1736
  386MOL0     C50879   1.298   4.177   4.877  0.5772 -0.7171  0.7972
  386MOL0     C50880   1.455   4.198   4.880  0.0036 -0.3191  0.5129
  386MOL0     C50881   1.524   4.187   5.023  0.0365  0.6183  0.0755
  386MOL0     C50882   1.660   4.262   5.012  0.7183  0.0694  0.0323
  386MOL0     C50883   1.722   4.266   5.139  0.0740  0.3212  0.3781
  386MOL0     C50884   1.769   4.269   5.248 -0.6083 -0.7211 -0.2467
  386MOL0     C50885   1.034   4.256   4.840 -0.3676  0.5272  0.4424
  386MOL0     C50886   0.900   4.311   4.825  0.6710  0.0004  0.3008
  386MOL0     H50887   0.536   4.390   4.470 -1.8077  1.1056  0.6654
  386MOL0     H50888   0.332   4.480   4.357  0.5879  0.8743 -0.3913
  386MOL0     H50889   0.139   4.594   4.436 -0.8159  2.3865  0.4225
  386MOL0     H50890   0.131   4.599   4.258 -2.7765 -3.3367  1.2401
  386MOL0     H50891  -0.015   4.776   4.266 -2.4215 -0.3028  0.4145
  386MOL0     H50892   0.041   4.830   4.432  0.1840  1.3137 -2.0158
  386MOL0     H50893  -0.115   4.672   4.536 -1.6900  0.0967  0.1009
  386MOL0     H50894  -0.086   4.557   4.403  1.4895 -0.7657  0.6102
  386MOL0     H50895  -0.271   4.785   4.368 -2.8777 -0.8173 -0.6500
  386MOL0     H50896  -0.230   4.668   4.251  0.1730 -0.4384  0.2626
  386MOL0     H50897  -0.363   4.601   4.519  0.5166  1.0846 -0.0859
  386MOL0     H50898  -0.308   4.495   4.388  3.3607  1.9731 -1.7099
  386MOL0     H50899  -0.472   4.573   4.226  0.6367 -1.7556 -0.0408
  386MOL0     H50900  -0.485   4.725   4.319  0.7242  0.1473  0.4007
  386MOL0     H50901  -0.607   4.621   4.491 -0.5987 -1.5200  0.6805
  386MOL0     H50902  -0.688   4.590   4.338 -0.1929 -3.6687 -0.8374
  386MOL0     H50903  -0.504   4.398   4.479 -1.1058  0.1919  1.7096
  386MOL0     H50904  -0.586   4.357   4.328 -0.6622  1.2929 -0.9769
  386MOL0     H50905  -0.849   4.287   4.322  0.1221  0.0761  0.5830
  386MOL0     H50906  -0.991   4.073   4.567 -0.0344  1.1717  0.4169
  386MOL0     H50907  -1.029   4.140   4.404 -1.1873  1.9660 -0.6157
  386MOL0     H50908  -1.229   4.181   4.497  0.7930  1.5046 -0.7646
  386MOL0     H50909  -1.155   4.322   4.513 -1.6767 -0.0983 -0.7149
  386MOL0     H50910  -1.207   4.117   4.746 -1.7602  2.0526  1.9789
  386MOL0     H50911  -1.099   4.252   4.770  0.3683  1.1995 -0.8756
  386MOL0     H50912  -1.296   4.396   4.682 -0.5988 -0.2717  0.3069
  386MOL0     H50913  -1.337   4.308   4.833 -1.6408  3.1123 -0.3003
  386MOL0     H50914  -1.612   4.103   4.568 -2.0226 -1.6000  2.0511
  386MOL0     H50915  -1.844   4.162   4.567  3.7290 -0.3421 -3.0008
  386MOL0     H50916  -2.150   4.587   4.886  3.1874 -0.7627 -1.0491
  386MOL0     H50917  -2.376   4.714   4.818 -2.4207 -0.5522 -1.8920
  386MOL0     H50918  -2.459   4.709   4.382 -0.2685  0.7482 -0.1787
  386MOL0     H50919  -2.608   4.787   4.443  0.7082  0.3715 -0.6975
  386MOL0     H50920  -2.535   4.513   4.524 -1.1538 -0.8775  1.2908
  386MOL0     H50921  -2.648   4.557   4.390 -2.5217 -1.6654  0.4436
  386MOL0     H50922  -2.817   4.640   4.518 -0.8059  1.4521  1.2976
  386MOL0     H50923  -2.719   4.680   4.659 -1.6408 -0.4212 -0.1798
  386MOL0     H50924  -2.809   4.402   4.583  4.2607 -1.2513 -1.1347
  386MOL0     H50925  -2.694   4.433   4.698 -1.0764 -0.8277  0.2924
  386MOL0     H50926  -2.978   4.531   4.710 -0.6565 -1.7872  0.6671
  386MOL0     H50927  -2.857   4.594   4.816 -0.5696  0.3051 -1.3032
  386MOL0     H50928  -2.934   4.438   4.964 -3.2113  0.0585 -0.8178
  386MOL0     H50929  -2.796   4.355   4.886  0.3345 -0.6138 -0.8259
  386MOL0     H50930  -2.949   4.239   4.750  2.2554  0.1519  1.1545
  386MOL0     H50931  -2.977   4.218   4.933 -0.7632  0.4417  1.6704
  386MOL0     H50932  -3.153   4.392   4.758  2.3995  1.4134  0.4201
  386MOL0     H50933  -3.143   4.399   4.928 -3.0540 -0.5071 -0.0412
  386MOL0     H50934  -2.268   4.665   4.406  1.4928  0.6866 -0.2823
  386MOL0     H50935  -2.056   4.534   4.488  1.3630 -0.2095  3.0244
  386MOL0     H50936  -1.741   4.518   4.809  0.1971 -0.8408  2.3038
  386MOL0     H50937  -1.505   4.446   4.792  1.2883 -0.8193 -0.6183
  386MOL0     H50938   0.457   4.869   4.432  4.2369 -0.3663 -3.1929
  386MOL0     H50939   0.660   4.777   4.559  1.4338 -1.9003 -0.4727
  386MOL0     H50940   0.948   4.446   4.511  1.6062  0.5187 -1.0188
  386MOL0     H50941   1.163   4.332   4.524 -0.9746 -3.9539 -1.3029
  386MOL0     H50942   1.263   4.075   4.894 -0.4350 -0.1618  2.2290
  386MOL0     H50943   1.257   4.237   4.959 -2.8853 -1.4740 -0.2151
  386MOL0     H50944   1.505   4.130   4.811 -0.5187 -0.1972  0.0085
  386MOL0     H50945   1.466   4.302   4.845  0.5146 -0.1741  1.0720
  386MOL0     H50946   1.555   4.084   5.040 -1.3908 -0.2734 -2.1765
  386MOL0     H50947   1.454   4.223   5.099 -0.5139 -0.3479  0.0452
  386MOL0     H50948   1.726   4.219   4.936 -1.1711 -0.8317 -1.1708
  386MOL0     H50949   1.639   4.366   4.985 -1.3364 -0.3267 -0.0431
  386MOL0     H50950   1.822   4.287   5.340  1.7058 -0.7972 -1.4980
  386MOL0     H50951   1.049   4.214   4.939 -0.2258  2.4689  1.2938
  386MOL0     H50952   0.821   4.304   4.900 -0.1739  3.2639 -0.1112
  387MOL0     O50953   2.784   8.853   0.848 -0.3925  0.1218  0.2919
  387MOL0     C50954   2.831   8.761   0.782 -0.1924  0.6034  0.2602
  387MOL0     O50955   2.760   8.670   0.705 -0.1881  0.0987 -0.6626
  387MOL0     C50956   2.626   8.660   0.725 -0.8635  0.0346 -0.5173
  387MOL0     C50957   2.560   8.613   0.615 -0.1506 -0.3704  0.8501
  387MOL0     C50958   2.419   8.612   0.611  0.6602  1.0661  0.6825
  387MOL0     C50959   2.348   8.632   0.725  0.0757  0.6953 -0.0880
  387MOL0     O50960   2.209   8.625   0.720  0.0920 -0.1950  0.0399
  387MOL0     C50961   2.118   8.637   0.830  0.2111 -0.1606  0.2253
  387MOL0     C50962   1.995   8.544   0.770 -0.2660 -0.3895  0.0210
  387MOL0     C50963   1.873   8.524   0.866 -0.1387 -0.4260  0.0005
  387MOL0     C50964   1.829   8.656   0.938 -1.0265 -0.5932  0.5129
  387MOL0     C50965   1.715   8.652   1.042 -0.0449 -0.8691  0.4384
  387MOL0     C50966   1.682   8.792   1.077 -0.1957 -0.8923 -0.0587
  387MOL0     C50967   1.620   8.819   1.213 -0.3014  0.5636  0.0209
  387MOL0     C50968   1.470   8.796   1.220 -0.5640 -0.3971  0.1649
  387MOL0     N50969   1.423   8.810   1.357 -1.0368 -0.0957 -0.7853
  387MOL0     C50970   1.389   8.934   1.412  0.1247  0.6151 -0.0138
  387MOL0     C50971   1.367   8.903   1.544  0.6043 -0.2545 -0.1698
  387MOL0     C50972   1.342   9.003   1.651  0.4979  0.3275  0.3938
  387MOL0     C50973   1.224   9.101   1.610  0.0132  0.5114 -0.3092
  387MOL0     C50974   1.100   9.019   1.571  0.1325  0.2826 -0.2145
  387MOL0     C50975   1.057   8.916   1.676 -0.5056  0.7897 -0.2586
  387MOL0     O50976   1.070   8.959   1.812 -1.1128 -0.6895  0.2899
  387MOL0     C50977   0.978   8.907   1.907 -0.2459 -0.0195  0.4449
  387MOL0     C50978   0.897   8.788   1.879 -0.4977 -0.1485  0.1765
  387MOL0     C50979   0.797   8.762   1.971  0.3224  0.3324  0.1875
  387MOL0     C50980   0.776   8.840   2.084  1.6176 -0.5476  0.0960
  387MOL0     C50981   0.658   8.812   2.173  0.0390  0.3966  0.1646
  387MOL0     O50982   0.589   8.698   2.134 -0.1203  0.7358 -0.4917
  387MOL0     C50983   0.496   8.634   2.207  0.6482  0.0372 -0.1140
  387MOL0     C50984   0.528   8.600   2.333  0.3284  0.6527 -0.6323
  387MOL0     C50985   0.432   8.541   2.412  0.1012 -0.2067 -1.0191
  387MOL0     C50986   0.298   8.519   2.370 -0.5715 -0.5095  0.3007
  387MOL0     O50987   0.199   8.448   2.445  0.2006  0.1887  0.3904
  387MOL0     C50988   0.252   8.357   2.542 -0.5174 -0.0298  0.6549
  387MOL0     C50989   0.139   8.263   2.595  0.0322 -0.2836  0.0475
  387MOL0     C50990   0.014   8.333   2.646 -0.3824 -0.5255 -0.2009
  387MOL0     C50991  -0.090   8.241   2.686  0.1954  0.8376  0.4975
  387MOL0     C50992  -0.059   8.166   2.803 -0.0278  1.0999 -0.5455
  387MOL0     C50993  -0.194   8.105   2.851 -0.3855 -0.9698  0.2540
  387MOL0     C50994  -0.169   7.990   2.942 -0.1309  0.6045  0.6067
  387MOL0     C50995  -0.296   7.897   2.949 -0.1743  0.0685 -0.5068
  387MOL0    Cl50996  -0.357   7.836   2.790  0.0714 -0.0734  0.0708
  387MOL0     C50997   0.270   8.549   2.233 -0.1983  0.2888  0.2309
  387MOL0     C50998   0.368   8.603   2.153 -0.7695 -0.6024  0.3859
  387MOL0     O50999   0.637   8.886   2.267  0.1473 -0.1349 -0.4324
  387MOL0     C51000   0.858   8.945   2.108 -0.1597 -0.6459 -0.2284
  387MOL0     C51001   0.953   8.977   2.017  0.1797 -1.2464  0.4499
  387MOL0     N51002   1.387   8.767   1.568  0.3344 -0.4717 -0.0086
  387MOL0     N51003   1.428   8.716   1.458  0.4283  0.2689  0.3643
  387MOL0     C51004   2.411   8.671   0.844 -0.0161  0.3487  0.0447
  387MOL0     C51005   2.552   8.687   0.843 -0.6878 -0.0196  0.5843
  387MOL0     C51006   2.984   8.755   0.768 -0.0941 -0.8417  0.7436
  387MOL0     C51007   3.060   8.849   0.821 -0.5440 -1.4116 -1.1518
  387MOL0     C51008   3.205   8.847   0.816  0.7935  1.0178 -0.6776
  387MOL0     C51009   3.263   8.741   0.744  1.1041 -0.2763 -0.8819
  387MOL0     O51010   3.393   8.735   0.711 -0.7821  0.2655 -0.0911
  387MOL0     C51011   3.498   8.813   0.772 -0.4665 -1.0004  0.7385
  387MOL0     C51012   3.640   8.756   0.726  0.4733  0.1943  0.1416
  387MOL0     C51013   3.749   8.857   0.729 -1.0303  0.5350 -0.0213
  387MOL0     C51014   3.857   8.811   0.632  0.1974  0.0213  0.7197
  387MOL0     C51015   3.924   8.686   0.670  0.8494 -0.9301  0.7418
  387MOL0     C51016   3.965   8.572   0.689 -0.4185  0.3879  0.2291
  387MOL0     C51017   3.182   8.647   0.675 -0.1692  0.9267 -0.4800
  387MOL0     C51018   3.044   8.656   0.687 -0.2456 -0.5537 -0.7407
  387MOL0     H51019   2.609   8.588   0.521 -1.6912  0.1070 -0.1295
  387MOL0     H51020   2.365   8.585   0.521  1.4435 -0.1288  0.5503
  387MOL0     H51021   2.082   8.740   0.844  0.0115 -0.2832  0.6339
  387MOL0     H51022   2.159   8.605   0.926  0.7049  0.5100  0.2448
  387MOL0     H51023   2.024   8.447   0.729 -0.8589 -0.5910  0.0609
  387MOL0     H51024   1.954   8.602   0.687  0.0506 -2.1125 -1.3892
  387MOL0     H51025   1.903   8.456   0.946 -0.1126 -0.9706 -0.4596
  387MOL0     H51026   1.790   8.478   0.811 -1.1247  0.5443  0.6430
  387MOL0     H51027   1.916   8.702   0.986  1.5704 -2.0099 -2.5412
  387MOL0     H51028   1.803   8.725   0.857  1.7727 -2.1884 -1.9486
  387MOL0     H51029   1.755   8.603   1.131  1.7760  0.1860  0.2336
  387MOL0     H51030   1.635   8.589   1.000  0.7016 -2.2664  1.0419
  387MOL0     H51031   1.629   8.842   0.996 -0.9128 -1.4965  0.0318
  387MOL0     H51032   1.782   8.835   1.088 -0.5962  0.4678 -1.4702
  387MOL0     H51033   1.666   8.743   1.277  0.3452 -0.7917 -1.9627
  387MOL0     H51034   1.663   8.914   1.246  0.3176  0.5521 -0.7314
  387MOL0     H51035   1.452   8.694   1.185 -4.0103  0.5962 -1.3710
  387MOL0     H51036   1.411   8.857   1.151 -0.3681  1.3519  1.4746
  387MOL0     H51037   1.390   9.030   1.362  2.3046  1.5468  1.6459
  387MOL0     H51038   1.424   9.072   1.673 -0.9211  2.2441 -0.0035
  387MOL0     H51039   1.319   8.948   1.743 -0.4730 -0.0806 -0.0734
  387MOL0     H51040   1.252   9.158   1.521  3.1261 -0.7761 -0.2800
  387MOL0     H51041   1.205   9.170   1.692  2.7155 -1.9136  2.6095
  387MOL0     H51042   1.021   9.091   1.551 -1.1391 -1.4711 -1.8489
  387MOL0     H51043   1.108   8.976   1.471  2.2244  1.1063 -0.4687
  387MOL0     H51044   1.103   8.820   1.653 -3.9411 -0.6507 -1.7560
  387MOL0     H51045   0.949   8.903   1.659  0.0092  0.1305 -3.9403
  387MOL0     H51046   0.917   8.724   1.794  1.1827 -2.0159  1.8816
  387MOL0     H51047   0.731   8.681   1.942  0.8339  0.2823 -0.8909
  387MOL0     H51048   0.624   8.615   2.380  0.2415 -4.3085  1.8617
  387MOL0     H51049   0.452   8.513   2.514 -4.2777  0.4261  0.2206
  387MOL0     H51050   0.288   8.409   2.631  2.1055  1.1991 -1.0047
  387MOL0     H51051   0.328   8.299   2.488 -0.8412  0.5422 -0.4240
  387MOL0     H51052   0.190   8.198   2.667 -0.5523 -0.4581  0.3123
  387MOL0     H51053   0.105   8.201   2.512 -3.5519  2.2439 -0.6451
  387MOL0     H51054  -0.034   8.399   2.573  0.3542 -1.2275 -1.3468
  387MOL0     H51055   0.041   8.392   2.735 -1.7284 -0.5104  0.2232
  387MOL0     H51056  -0.186   8.292   2.699 -1.3792 -0.7137 -3.4198
  387MOL0     H51057  -0.111   8.171   2.605 -2.0214 -0.0012  1.7139
  387MOL0     H51058  -0.008   8.228   2.879  0.9566 -0.3249  0.0000
  387MOL0     H51059   0.017   8.094   2.774 -1.2303 -0.1505 -0.6860
  387MOL0     H51060  -0.263   8.089   2.768 -1.0464 -1.0268  0.8037
  387MOL0     H51061  -0.245   8.179   2.914  0.6002  2.2143 -2.3827
  387MOL0     H51062  -0.087   7.928   2.906  0.3351  2.5293 -1.9093
  387MOL0     H51063  -0.135   8.014   3.044  2.6292  3.7451 -0.8724
  387MOL0     H51064  -0.375   7.954   3.000  0.5911 -0.1464  0.9777
  387MOL0     H51065  -0.282   7.804   3.006  0.4220  0.2351 -0.3791
  387MOL0     H51066   0.175   8.531   2.183 -1.1525 -0.5098  2.2372
  387MOL0     H51067   0.355   8.605   2.045 -0.2805  0.3044  0.3305
  387MOL0     H51068   0.844   9.011   2.193 -2.3929  2.6898 -2.8838
  387MOL0     H51069   0.991   9.079   2.025 -1.9160 -0.5737  4.0818
  387MOL0     H51070   2.358   8.696   0.935  0.8740  0.7330  0.4670
  387MOL0     H51071   2.604   8.728   0.930  2.1615 -2.0997  0.0023
  387MOL0     H51072   3.022   8.930   0.882  2.6691 -1.5704  1.3667
  387MOL0     H51073   3.265   8.924   0.864  0.8674  0.4723  0.1256
  387MOL0     H51074   3.492   8.794   0.879 -2.2359 -2.2800  0.4573
  387MOL0     H51075   3.487   8.921   0.760 -0.0033 -0.7836  2.0535
  387MOL0     H51076   3.662   8.676   0.797 -0.0485 -0.8529 -0.8533
  387MOL0     H51077   3.646   8.716   0.625  2.6758 -0.4868  0.4899
  387MOL0     H51078   3.792   8.871   0.829 -1.7809  0.5166  0.3112
  387MOL0     H51079   3.713   8.957   0.707 -0.6386  1.4999  3.1397
  387MOL0     H51080   3.826   8.813   0.528  5.4756 -0.2068 -1.1423
  387MOL0     H51081   3.942   8.880   0.634  0.8040 -0.6351 -0.9016
  387MOL0     H51082   4.004   8.475   0.710  0.0084  0.8651  1.7560
  387MOL0     H51083   3.225   8.582   0.599 -0.7720 -0.1713  0.1021
  387MOL0     H51084   2.990   8.584   0.626  0.5241 -1.2989 -0.5523
  388MOL0     O51085   6.500   1.505   1.770  0.0316  0.2319  0.2429
  388MOL0     C51086   6.614   1.469   1.797 -0.6887  0.3332 -0.4220
  388MOL0     O51087   6.663   1.332   1.795  0.8074  0.7339 -0.1217
  388MOL0     C51088   6.577   1.230   1.773  0.4346  0.0755  0.2181
  388MOL0     C51089   6.581   1.107   1.848 -0.1487 -0.2011 -0.4515
  388MOL0     C51090   6.495   0.999   1.811  0.0483 -0.2473  0.0793
  388MOL0     C51091   6.395   1.017   1.709 -0.0736  1.0568 -0.3829
  388MOL0     O51092   6.293   0.930   1.691 -0.1663  0.3464  0.3377
  388MOL0     C51093   6.296   0.797   1.750 -0.3361  0.0027  0.3238
  388MOL0     C51094   6.209   0.697   1.673 -0.5979  0.1587  0.8057
  388MOL0     C51095   6.059   0.704   1.699  0.7849 -0.3462 -0.2720
  388MOL0     C51096   5.986   0.591   1.632  0.3359 -0.8339 -0.3052
  388MOL0     C51097   5.853   0.574   1.690  0.1831  0.7738  0.6708
  388MOL0     C51098   5.781   0.455   1.625  0.2923  0.0791  0.2569
  388MOL0     C51099   5.841   0.321   1.644  0.0858 -0.1797 -0.0863
  388MOL0     C51100   5.754   0.207   1.590  0.0554 -0.5662  0.8086
  388MOL0     N51101   5.623   0.179   1.656 -0.1482 -0.3962 -0.6350
  388MOL0     C51102   5.517   0.266   1.661  0.2697 -0.1913 -0.7094
  388MOL0     C51103   5.424   0.190   1.714  0.1897  0.6896 -0.1043
  388MOL0     C51104   5.283   0.245   1.741  0.7666 -0.1380  0.0293
  388MOL0     C51105   5.181   0.131   1.748  0.3659 -0.6692  1.1790
  388MOL0     C51106   5.161   0.070   1.601  0.0628 -0.1222  0.1518
  388MOL0     C51107   5.012   0.048   1.570 -0.7078  0.1447 -0.0661
  388MOL0     O51108   4.956  -0.027   1.675  0.0687  0.4512  0.9006
  388MOL0     C51109   4.818  -0.044   1.675 -0.0268 -0.7478  0.3796
  388MOL0     C51110   4.779  -0.143   1.760 -0.8067 -0.5604  0.0361
  388MOL0     C51111   4.647  -0.179   1.771  0.7810  0.0673  0.4911
  388MOL0     C51112   4.550  -0.120   1.681 -0.3563  0.1645 -0.4912
  388MOL0     C51113   4.413  -0.168   1.672  0.4453  0.3369  0.2072
  388MOL0     O51114   4.353  -0.222   1.786  0.8055 -0.3878 -0.5506
  388MOL0     C51115   4.221  -0.259   1.773 -0.3332  0.0715  1.2546
  388MOL0     C51116   4.117  -0.177   1.811  0.4638 -1.6086 -0.3476
  388MOL0     C51117   3.987  -0.215   1.777  1.3917 -0.0457  0.5622
  388MOL0     C51118   3.957  -0.346   1.722 -0.1988  0.2361  0.0109
  388MOL0     O51119   3.829  -0.393   1.691 -0.1485  0.3375 -0.1807
  388MOL0     C51120   3.819  -0.512   1.615  0.2016 -0.1836  0.2804
  388MOL0     C51121   3.658  -0.511   1.586  0.3381  0.4504 -0.6448
  388MOL0     C51122   3.587  -0.563   1.710  0.0752 -0.2429  0.2954
  388MOL0     C51123   3.452  -0.616   1.690 -0.0836 -0.6660  0.2185
  388MOL0     C51124   3.403  -0.710   1.801  0.0472  0.3019  0.0632
  388MOL0     C51125   3.264  -0.760   1.753  0.3523  0.0495 -0.1835
  388MOL0     C51126   3.175  -0.837   1.851 -0.2621 -0.3969  0.0882
  388MOL0     C51127   3.036  -0.837   1.798  0.0581  0.4572 -0.2856
  388MOL0    Cl51128   3.039  -0.917   1.623 -0.0156  0.0871  0.0215
  388MOL0     C51129   4.073  -0.425   1.700  1.0062 -0.5767  0.4294
  388MOL0     C51130   4.197  -0.380   1.713  0.2768  0.4477 -0.4899
  388MOL0     O51131   4.350  -0.146   1.561  0.0461 -0.0374  0.5514
  388MOL0     C51132   4.593  -0.022   1.594  0.4504 -0.1315  0.4134
  388MOL0     C51133   4.721   0.025   1.593  0.5536  0.7200 -0.9399
  388MOL0     N51134   5.475   0.066   1.746  0.4643  0.7427 -0.2815
  388MOL0     N51135   5.590   0.056   1.706  0.0311  0.1263 -0.6959
  388MOL0     C51136   6.395   1.132   1.640  0.1036 -0.4515  0.2636
  388MOL0     C51137   6.486   1.238   1.667 -0.7715 -0.3615  0.3823
  388MOL0     C51138   6.694   1.569   1.866 -0.5575  0.2226  0.6914
  388MOL0     C51139   6.619   1.673   1.937  0.2150  0.3368  0.3756
  388MOL0     C51140   6.680   1.771   2.011  0.0297  0.6789 -0.0669
  388MOL0     C51141   6.823   1.783   2.021  0.8830  0.4552  0.0947
  388MOL0     O51142   6.872   1.882   2.102 -0.1266  0.0781 -0.5994
  388MOL0     C51143   7.015   1.865   2.119  0.5268  0.9810  0.3672
  388MOL0     C51144   7.059   1.948   2.245 -0.1075 -0.1663  0.2135
  388MOL0     C51145   7.203   1.943   2.284  0.0368 -0.0263 -0.1420
  388MOL0     C51146   7.295   2.009   2.186 -0.1556 -0.0029 -0.3342
  388MOL0     C51147   7.306   2.155   2.199  0.9100  0.7357  0.2954
  388MOL0     C51148   7.325   2.272   2.217  0.7962  0.3398 -0.9560
  388MOL0     C51149   6.894   1.686   1.943  0.0114  0.4024 -0.4190
  388MOL0     C51150   6.837   1.587   1.866  0.2071  0.8284  0.8871
  388MOL0     H51151   6.635   1.106   1.942 -0.3245  0.9155 -0.3273
  388MOL0     H51152   6.490   0.923   1.889  0.8680  0.9826  1.3815
  388MOL0     H51153   6.257   0.806   1.851 -0.0417  0.3665  0.4088
  388MOL0     H51154   6.398   0.760   1.744 -0.9658 -1.5924 -3.8990
  388MOL0     H51155   6.240   0.605   1.724 -0.7910 -0.0756  0.5016
  388MOL0     H51156   6.231   0.688   1.567  2.1283  0.0814  1.3031
  388MOL0     H51157   6.015   0.799   1.666 -1.2672  0.2309  3.4643
  388MOL0     H51158   6.055   0.702   1.809  0.6851  0.1628 -0.2603
  388MOL0     H51159   5.983   0.616   1.525 -0.6468 -0.3228 -0.1687
  388MOL0     H51160   6.042   0.499   1.651 -2.0952 -2.0442  1.4631
  388MOL0     H51161   5.793   0.664   1.670 -1.6319 -1.0445 -3.1793
  388MOL0     H51162   5.858   0.554   1.797 -1.0684 -0.8898  0.4585
  388MOL0     H51163   5.763   0.469   1.518 -0.5545 -1.2219  0.2018
  388MOL0     H51164   5.682   0.451   1.671  1.0098  1.3527  1.9952
  388MOL0     H51165   5.928   0.320   1.578 -1.7951 -1.6358 -2.6821
  388MOL0     H51166   5.861   0.307   1.751 -0.0335 -1.2169 -0.1872
  388MOL0     H51167   5.810   0.113   1.598 -0.8383 -1.1485  0.4616
  388MOL0     H51168   5.728   0.230   1.486  0.2360 -0.7007  0.7342
  388MOL0     H51169   5.501   0.360   1.609  1.9062 -0.2795 -1.4444
  388MOL0     H51170   5.258   0.316   1.661  2.0710  0.6418  0.2879
  388MOL0     H51171   5.275   0.288   1.841  2.2278 -1.4592  0.7496
  388MOL0     H51172   5.081   0.168   1.776  0.0704 -0.1138 -0.4961
  388MOL0     H51173   5.214   0.056   1.820  0.9158 -2.8862 -1.2367
  388MOL0     H51174   5.205   0.131   1.522  0.2017 -1.5737 -0.9412
  388MOL0     H51175   5.218  -0.024   1.600  0.7028  0.2493 -2.1433
  388MOL0     H51176   4.998  -0.005   1.475 -0.8473 -0.5196  0.3198
  388MOL0     H51177   4.962   0.145   1.567 -0.6895  0.2765  2.1430
  388MOL0     H51178   4.846  -0.205   1.819 -2.1847 -0.7107  1.5215
  388MOL0     H51179   4.628  -0.256   1.845  1.2644 -0.8686 -0.3269
  388MOL0     H51180   4.137  -0.077   1.847 -2.3961 -1.9560  2.6215
  388MOL0     H51181   3.901  -0.153   1.801 -0.5507 -2.2278 -0.3819
  388MOL0     H51182   3.845  -0.602   1.671 -0.7824 -0.7514 -0.1619
  388MOL0     H51183   3.864  -0.506   1.516 -0.7749 -4.1429 -0.5805
  388MOL0     H51184   3.622  -0.558   1.494 -0.0542  0.6976 -0.6200
  388MOL0     H51185   3.628  -0.406   1.575  0.0120  0.4249 -0.0129
  388MOL0     H51186   3.586  -0.486   1.788 -0.2779  0.0849 -0.0267
  388MOL0     H51187   3.646  -0.648   1.744  1.1595 -0.1505 -1.2375
  388MOL0     H51188   3.384  -0.531   1.683  0.8229  0.1308  0.9096
  388MOL0     H51189   3.448  -0.664   1.592 -1.6078 -1.7271  0.7577
  388MOL0     H51190   3.378  -0.657   1.893 -2.8205 -1.1556  0.2358
  388MOL0     H51191   3.458  -0.803   1.823 -0.1857  0.1172 -0.1325
  388MOL0     H51192   3.277  -0.813   1.659 -1.5507 -0.7194 -0.0594
  388MOL0     H51193   3.208  -0.670   1.725  1.3521  1.0551  0.9084
  388MOL0     H51194   3.213  -0.938   1.871 -2.1032 -1.8482 -2.9023
  388MOL0     H51195   3.163  -0.774   1.939 -0.7680 -1.5334  0.8569
  388MOL0     H51196   2.988  -0.739   1.795  1.2493  1.1070  0.8596
  388MOL0     H51197   2.976  -0.896   1.867  1.7574 -0.9476  0.0560
  388MOL0     H51198   4.055  -0.512   1.637 -0.3533  1.4956 -2.2712
  388MOL0     H51199   4.282  -0.429   1.666 -1.0485  0.6244 -3.2610
  388MOL0     H51200   4.535   0.030   1.517  2.7234  2.4385  0.2910
  388MOL0     H51201   4.755   0.103   1.527  2.5315  1.1086  0.4346
  388MOL0     H51202   6.316   1.157   1.570 -2.2398 -0.6041  2.6735
  388MOL0     H51203   6.475   1.326   1.604 -0.7295  0.2960  1.2763
  388MOL0     H51204   6.513   1.657   1.949 -0.5789  3.2227 -1.6718
  388MOL0     H51205   6.618   1.838   2.070 -1.5497  1.4138 -2.4277
  388MOL0     H51206   7.076   1.887   2.032 -0.4593  0.1145 -0.5664
  388MOL0     H51207   7.044   1.761   2.140  0.8527  1.2206  1.1614
  388MOL0     H51208   7.028   2.052   2.235 -3.5570 -1.0894  0.3004
  388MOL0     H51209   7.001   1.910   2.329 -0.9642  0.4767 -0.0810
  388MOL0     H51210   7.232   1.839   2.298 -1.5381 -0.4722 -0.0335
  388MOL0     H51211   7.217   1.998   2.378  0.3353 -0.1862 -0.0938
  388MOL0     H51212   7.392   1.966   2.211 -1.0488 -1.9306 -0.0091
  388MOL0     H51213   7.276   1.977   2.083  1.0839 -0.1573 -0.5247
  388MOL0     H51214   7.336   2.376   2.240  0.7659 -0.0134  0.8364
  388MOL0     H51215   7.003   1.683   1.940  0.0630 -0.0733  1.1259
  388MOL0     H51216   6.896   1.515   1.809 -2.4740  0.4468 -1.6224
  389MOL0     O51217   4.273   7.187   8.096 -0.7022 -0.0768  0.5147
  389MOL0     C51218   4.291   7.077   8.040  0.0644 -0.5913 -0.0667
  389MOL0     O51219   4.198   7.000   7.977 -0.0907 -0.1204  0.4864
  389MOL0     C51220   4.074   7.059   7.966  0.5322  1.0617 -0.1014
  389MOL0     C51221   4.048   7.183   7.904 -0.2113  0.0492 -0.4632
  389MOL0     C51222   3.923   7.243   7.903  0.7032 -0.4623 -0.9984
  389MOL0     C51223   3.813   7.181   7.950 -0.7720  0.3055 -0.0482
  389MOL0     O51224   3.685   7.236   7.927  0.0322  0.7894 -0.0303
  389MOL0     C51225   3.571   7.158   7.899 -0.3308  0.1776 -0.3198
  389MOL0     C51226   3.481   7.111   8.014  1.4500 -0.0884 -0.4076
  389MOL0     C51227   3.325   7.093   7.981 -0.4622 -0.6354  0.3068
  389MOL0     C51228   3.256   7.223   7.944 -0.0900 -0.6369  0.2774
  389MOL0     C51229   3.116   7.182   7.877 -0.7563  0.2121 -0.2743
  389MOL0     C51230   3.021   7.120   7.986  0.5901  1.0488  0.6713
  389MOL0     C51231   2.869   7.101   7.940 -0.5196 -1.2858 -0.7891
  389MOL0     C51232   2.844   7.037   7.802  0.2717 -0.5933  0.1735
  389MOL0     N51233   2.706   7.061   7.757 -0.2496 -0.7902 -0.6760
  389MOL0     C51234   2.643   7.188   7.734 -0.2750 -0.6830 -0.2138
  389MOL0     C51235   2.526   7.153   7.685 -0.6150 -0.0441  0.4609
  389MOL0     C51236   2.432   7.262   7.648  0.2418  0.5227  0.2033
  389MOL0     C51237   2.292   7.198   7.675 -0.5823 -0.1185 -0.1040
  389MOL0     C51238   2.178   7.307   7.634  0.1717 -0.0885 -0.1436
  389MOL0     C51239   2.036   7.247   7.632 -0.8746 -0.2649 -0.1029
  389MOL0     O51240   1.949   7.336   7.550  0.6536  0.3373 -0.3239
  389MOL0     C51241   1.816   7.316   7.555  0.8713 -0.5777 -0.0364
  389MOL0     C51242   1.738   7.411   7.490  0.0660 -0.0442 -0.5192
  389MOL0     C51243   1.598   7.405   7.488 -0.6053  0.0335 -0.4787
  389MOL0     C51244   1.527   7.308   7.569  0.7746 -0.2847  0.4370
  389MOL0     C51245   1.373   7.298   7.583 -0.0270 -0.0258 -0.6675
  389MOL0     O51246   1.305   7.405   7.555  0.3487  0.4598  0.3448
  389MOL0     C51247   1.162   7.408   7.561  0.7670 -0.5110 -0.3177
  389MOL0     C51248   1.118   7.536   7.535  0.5355  0.0873 -0.5163
  389MOL0     C51249   0.977   7.567   7.523  0.9025 -0.4540 -0.1890
  389MOL0     C51250   0.880   7.458   7.534 -0.6171 -1.0045 -0.4282
  389MOL0     O51251   0.744   7.482   7.524 -0.0311  0.1274 -0.0124
  389MOL0     C51252   0.658   7.368   7.513  0.1912 -0.0136 -0.1220
  389MOL0     C51253   0.510   7.410   7.500  0.6650  0.7466  0.4628
  389MOL0     C51254   0.433   7.277   7.484 -1.2980 -0.7684 -0.0666
  389MOL0     C51255   0.296   7.323   7.428  0.7342 -0.2832  0.1923
  389MOL0     C51256   0.201   7.206   7.378 -0.3570  0.1896  0.0727
  389MOL0     C51257   0.055   7.247   7.369 -0.0331  0.9016 -0.2896
  389MOL0     C51258  -0.046   7.141   7.311  0.6664  0.6484  0.8452
  389MOL0     C51259  -0.188   7.172   7.299 -0.4802 -0.3326 -0.5102
  389MOL0    Cl51260  -0.268   7.031   7.216  0.7555 -0.0584  0.1319
  389MOL0     C51261   0.935   7.333   7.572 -0.5604  0.4676  0.0375
  389MOL0     C51262   1.069   7.307   7.586  0.3440  0.0108  0.3403
  389MOL0     O51263   1.331   7.195   7.632 -0.2432  1.0944 -0.6524
  389MOL0     C51264   1.602   7.211   7.633  0.7615  0.6763  0.2933
  389MOL0     C51265   1.746   7.217   7.631  0.4107 -0.8562  0.0555
  389MOL0     N51266   2.520   7.014   7.656 -0.0777 -0.4288 -0.0533
  389MOL0     N51267   2.618   6.963   7.711 -0.7227  0.3182  0.3698
  389MOL0     C51268   3.835   7.058   8.016  0.0539  0.3932  0.0409
  389MOL0     C51269   3.961   6.992   8.022 -0.5419 -0.5022  1.3642
  389MOL0     C51270   4.428   7.026   8.031  0.3277 -0.5725 -0.4934
  389MOL0     C51271   4.448   6.897   7.972 -0.0762  0.2854  0.3363
  389MOL0     C51272   4.577   6.840   7.967  0.1743  0.3660 -0.2313
  389MOL0     C51273   4.690   6.923   7.996 -0.9623 -0.3025 -0.2716
  389MOL0     O51274   4.819   6.885   7.984  0.5522 -0.0755  0.4101
  389MOL0     C51275   4.834   6.759   7.926 -0.9011 -0.1942  0.7965
  389MOL0     C51276   4.983   6.736   7.897 -0.4566  0.3245 -0.2890
  389MOL0     C51277   5.053   6.746   8.041 -0.0512  0.4459  0.1119
  389MOL0     C51278   5.201   6.727   8.035  0.4456 -0.1721 -0.1368
  389MOL0     C51279   5.239   6.585   8.042  0.0306 -0.2299 -0.7820
  389MOL0     C51280   5.252   6.464   8.040 -0.0871  0.2932 -0.6363
  389MOL0     C51281   4.678   7.055   8.043 -0.0654  0.2114  0.1476
  389MOL0     C51282   4.541   7.098   8.051 -0.5303  0.1935 -0.7229
  389MOL0     H51283   4.138   7.228   7.863 -0.8744 -0.3059 -2.4676
  389MOL0     H51284   3.901   7.340   7.859 -0.5646  0.2090  0.9486
  389MOL0     H51285   3.606   7.075   7.838 -1.5370 -0.4070 -0.2510
  389MOL0     H51286   3.512   7.218   7.829 -1.2781 -0.1841  0.1529
  389MOL0     H51287   3.477   7.180   8.099 -0.3604 -1.0762  0.3730
  389MOL0     H51288   3.520   7.020   8.062  2.3681  0.5905  0.1633
  389MOL0     H51289   3.276   7.046   8.067 -1.9725 -3.1005 -1.7663
  389MOL0     H51290   3.322   7.024   7.896  0.3172 -1.6498  1.0758
  389MOL0     H51291   3.226   7.278   8.033  0.2898  0.4764 -0.2595
  389MOL0     H51292   3.319   7.291   7.886  2.4231 -1.4367  1.8993
  389MOL0     H51293   3.130   7.102   7.804  2.4585  0.5732 -0.1770
  389MOL0     H51294   3.068   7.269   7.830  0.4716 -0.4907 -3.0089
  389MOL0     H51295   3.028   7.173   8.081  1.0332  0.3265  1.0500
  389MOL0     H51296   3.059   7.023   8.021  1.2049  1.1687  0.3274
  389MOL0     H51297   2.832   7.038   8.021 -0.9272  0.3987  0.4030
  389MOL0     H51298   2.831   7.204   7.943 -3.0564 -2.1610  2.1940
  389MOL0     H51299   2.864   6.929   7.804  2.8134 -0.1623  1.8077
  389MOL0     H51300   2.905   7.082   7.723 -0.2192 -1.7312 -0.8982
  389MOL0     H51301   2.681   7.286   7.759 -1.3320 -0.2442 -0.2492
  389MOL0     H51302   2.438   7.289   7.542  3.0875  0.5973  0.3175
  389MOL0     H51303   2.449   7.355   7.704  1.2354  1.2377 -1.2413
  389MOL0     H51304   2.271   7.157   7.774 -1.5098 -1.9343 -1.0010
  389MOL0     H51305   2.278   7.121   7.598  2.1824 -0.6561 -0.1870
  389MOL0     H51306   2.177   7.387   7.708 -2.0065 -1.3040  1.2514
  389MOL0     H51307   2.204   7.357   7.540 -0.7612  2.0064  0.6565
  389MOL0     H51308   2.003   7.233   7.735  0.1688  1.1306  0.4515
  389MOL0     H51309   2.042   7.151   7.581  0.3866  0.4417 -1.3826
  389MOL0     H51310   1.805   7.486   7.450  0.7863  0.1092  0.9163
  389MOL0     H51311   1.542   7.474   7.425 -2.2145 -0.6421  0.1621
  389MOL0     H51312   1.192   7.615   7.525 -0.1557  1.5229  3.5318
  389MOL0     H51313   0.948   7.670   7.509  2.2138  0.4814  3.0982
  389MOL0     H51314   0.667   7.304   7.602 -1.8834 -1.9092 -1.1840
  389MOL0     H51315   0.683   7.318   7.419  1.2236  3.0354 -1.5905
  389MOL0     H51316   0.500   7.467   7.407 -0.5581 -0.6511 -0.2947
  389MOL0     H51317   0.470   7.469   7.583 -0.3053  1.1454 -0.2706
  389MOL0     H51318   0.430   7.213   7.573  3.0114 -0.4315  0.5109
  389MOL0     H51319   0.470   7.204   7.412 -4.2174 -3.7520  1.1616
  389MOL0     H51320   0.240   7.367   7.511 -5.1181 -2.4250 -2.1002
  389MOL0     H51321   0.318   7.396   7.349  1.5214  0.9807  1.5220
  389MOL0     H51322   0.204   7.111   7.433 -0.8002 -0.8439 -1.5889
  389MOL0     H51323   0.234   7.180   7.277 -0.1014 -0.6896  0.3717
  389MOL0     H51324   0.054   7.333   7.302  1.4347  1.3703  0.2353
  389MOL0     H51325   0.029   7.274   7.472  0.8210 -1.5834  0.6631
  389MOL0     H51326  -0.006   7.116   7.212 -0.1938 -1.5157  0.9842
  389MOL0     H51327  -0.033   7.043   7.359  2.6980  1.2097  1.5481
  389MOL0     H51328  -0.183   7.258   7.232  1.4707  0.0099  0.0259
  389MOL0     H51329  -0.241   7.197   7.392 -0.4764 -0.0298 -0.5878
  389MOL0     H51330   0.868   7.250   7.592  2.5359 -2.8452 -2.0164
  389MOL0     H51331   1.091   7.202   7.596 -2.0510 -0.8475 -2.0329
  389MOL0     H51332   1.557   7.134   7.695  0.4791  0.9427  0.4189
  389MOL0     H51333   1.806   7.150   7.692  0.8427  2.4944  3.7342
  389MOL0     H51334   3.752   6.998   8.052  0.1569  0.3459  0.2050
  389MOL0     H51335   3.983   6.893   8.060  1.5430 -0.4542  0.3936
  389MOL0     H51336   4.363   6.841   7.935 -2.0458  2.8658  0.6589
  389MOL0     H51337   4.586   6.737   7.935 -2.0220 -0.3083  1.0677
  389MOL0     H51338   4.790   6.758   7.826 -1.0091 -0.0787  0.8432
  389MOL0     H51339   4.793   6.674   7.982  0.0833 -1.7953 -0.7815
  389MOL0     H51340   4.998   6.633   7.863 -0.7145  0.9518 -2.4164
  389MOL0     H51341   5.033   6.804   7.828 -3.4570  1.6306 -1.3258
  389MOL0     H51342   5.006   6.667   8.100 -1.8876 -0.2890 -2.1704
  389MOL0     H51343   5.025   6.835   8.097 -3.1470 -0.9062  0.8954
  389MOL0     H51344   5.239   6.781   7.948  0.0930  0.9213  0.3705
  389MOL0     H51345   5.250   6.785   8.114 -0.6116 -0.0099  0.4228
  389MOL0     H51346   5.272   6.360   8.029 -2.7366 -0.6528  2.1079
  389MOL0     H51347   4.754   7.123   8.078 -0.2076  0.2297  0.4253
  389MOL0     H51348   4.524   7.199   8.086  0.4475  0.2851 -0.5036
  390MOL0     O51349  10.236   7.706   3.556  0.6576  0.2806  0.7393
  390MOL0     C51350  10.251   7.636   3.455  0.4519  0.1669 -0.4939
  390MOL0     O51351  10.344   7.653   3.351 -0.0279  0.2365  0.0511
  390MOL0     C51352  10.445   7.738   3.372  1.1554  0.0002  0.7775
  390MOL0     C51353  10.417   7.877   3.373  0.6075  0.1730 -0.1405
  390MOL0     C51354  10.522   7.963   3.397 -0.4493  1.4083 -0.1787
  390MOL0     C51355  10.653   7.913   3.419  0.4190  0.3387  0.0709
  390MOL0     O51356  10.745   8.004   3.456  0.5284  0.1356  0.5563
  390MOL0     C51357  10.876   7.976   3.497  0.9357  0.5087  0.4889
  390MOL0     C51358  10.922   8.094   3.574  0.2912  0.0843  0.4211
  390MOL0     C51359  10.847   8.120   3.704 -0.4655 -0.9859  0.0289
  390MOL0     C51360  10.902   8.240   3.793  0.2021  0.2315  0.3196
  390MOL0     C51361  10.853   8.378   3.756  0.1600 -0.5572 -0.2779
  390MOL0     C51362  10.704   8.409   3.797 -0.0127  0.1867 -0.2378
  390MOL0     C51363  10.607   8.423   3.680  0.0686 -0.1217  0.8807
  390MOL0     C51364  10.460   8.412   3.722  0.8498 -0.1186  0.1024
  390MOL0     N51365  10.367   8.403   3.609  0.0986 -0.4042  0.0332
  390MOL0     C51366  10.289   8.495   3.545  0.7337  0.1840  0.2618
  390MOL0     C51367  10.240   8.444   3.431  0.3679  0.0999  0.1989
  390MOL0     C51368  10.131   8.497   3.336  0.0544  0.1320 -1.1193
  390MOL0     C51369  10.004   8.431   3.387 -0.4285 -0.3880  0.0003
  390MOL0     C51370   9.884   8.450   3.287 -0.6054 -0.7044 -0.6400
  390MOL0     C51371   9.763   8.412   3.357 -0.3170 -0.8150  1.0276
  390MOL0     O51372   9.648   8.427   3.276 -0.3863 -0.4125 -0.4825
  390MOL0     C51373   9.525   8.422   3.345 -0.0627 -0.7413  0.3290
  390MOL0     C51374   9.454   8.539   3.358 -0.1016 -0.0886 -0.7097
  390MOL0     C51375   9.328   8.528   3.406  0.6508 -0.4351  0.4727
  390MOL0     C51376   9.272   8.405   3.448  1.0580 -0.0834 -0.8172
  390MOL0     C51377   9.141   8.397   3.498 -0.0411  0.0181  0.2631
  390MOL0     O51378   9.107   8.274   3.546 -0.4863 -0.4263  0.1773
  390MOL0     C51379   8.987   8.252   3.610  0.2218 -0.5475 -0.5828
  390MOL0     C51380   8.945   8.123   3.623  0.3319 -0.1963 -0.0435
  390MOL0     C51381   8.831   8.084   3.697  1.1278  0.1102  0.2399
  390MOL0     C51382   8.731   8.169   3.747 -0.5586 -0.0455 -0.7500
  390MOL0     O51383   8.625   8.142   3.829 -0.6314  0.0223 -0.3000
  390MOL0     C51384   8.541   8.037   3.779  0.2510 -0.3587 -0.2078
  390MOL0     C51385   8.406   8.053   3.846  0.2135 -0.4720 -0.8599
  390MOL0     C51386   8.309   7.931   3.832 -0.2241 -0.3503 -0.2262
  390MOL0     C51387   8.175   7.965   3.895  0.0310  0.0786 -0.0694
  390MOL0     C51388   8.090   8.072   3.816  0.0717  0.3760 -0.9135
  390MOL0     C51389   8.031   8.033   3.682  0.5182 -0.1314  0.1212
  390MOL0     C51390   7.976   7.893   3.665  0.5508  0.0655 -0.5278
  390MOL0     C51391   7.934   7.857   3.521  0.0280 -0.7908 -1.2103
  390MOL0    Cl51392   8.077   7.839   3.432 -0.2224 -0.2432  0.4332
  390MOL0     C51393   8.769   8.300   3.721 -0.1739  0.5381 -0.0521
  390MOL0     C51394   8.892   8.344   3.661  0.1386  0.4330  0.7655
  390MOL0     O51395   9.069   8.496   3.507 -0.0538  0.1869  0.4707
  390MOL0     C51396   9.338   8.294   3.415 -0.9039  0.7022 -0.1117
  390MOL0     C51397   9.467   8.297   3.358  0.3161  0.0467 -1.0803
  390MOL0     N51398  10.303   8.320   3.422  0.2749  0.1533  0.0291
  390MOL0     N51399  10.374   8.299   3.528 -0.2886  0.5448  0.5108
  390MOL0     C51400  10.681   7.780   3.400  0.7363  0.4862 -0.3289
  390MOL0     C51401  10.576   7.693   3.392  0.7861  0.1193  0.1277
  390MOL0     C51402  10.168   7.506   3.458  0.1833 -0.3350  0.2586
  390MOL0     C51403  10.042   7.507   3.529  0.2681  0.5632 -0.0052
  390MOL0     C51404   9.978   7.387   3.513  0.3852  0.1192 -0.1210
  390MOL0     C51405  10.016   7.273   3.437  0.2603 -0.2331  0.5798
  390MOL0     O51406   9.939   7.158   3.452 -1.2643 -0.5866  1.0381
  390MOL0     C51407  10.013   7.032   3.491 -0.1807  0.0457  0.6992
  390MOL0     C51408   9.932   6.918   3.436  0.0189 -0.5660 -0.3389
  390MOL0     C51409   9.805   6.885   3.519  0.2928 -0.7467  0.7377
  390MOL0     C51410   9.710   7.006   3.535 -0.1767 -0.2839 -0.4467
  390MOL0     C51411   9.592   6.963   3.595  0.2425 -0.4244 -0.1925
  390MOL0     C51412   9.492   6.931   3.651 -0.9615  0.0513 -0.4279
  390MOL0     C51413  10.140   7.275   3.368  0.6069 -0.3548  0.1902
  390MOL0     C51414  10.215   7.392   3.379 -0.0221  0.3334  0.0928
  390MOL0     H51415  10.312   7.896   3.351 -0.2562 -2.5684  1.2298
  390MOL0     H51416  10.511   8.070   3.389 -1.4935  1.4750  1.5012
  390MOL0     H51417  10.943   7.961   3.411  0.3583 -1.8929  0.3858
  390MOL0     H51418  10.873   7.883   3.555 -0.9848  0.7639  0.8721
  390MOL0     H51419  10.924   8.180   3.507 -1.4399  0.1116  0.3595
  390MOL0     H51420  11.024   8.068   3.603  1.2191 -0.6401 -3.0250
  390MOL0     H51421  10.844   8.023   3.754 -0.7276 -0.3501  1.2739
  390MOL0     H51422  10.745   8.149   3.675  0.7309  3.1981 -0.5825
  390MOL0     H51423  10.865   8.205   3.890  0.0855 -0.3118  0.0822
  390MOL0     H51424  11.011   8.228   3.788  0.1859  0.4881 -1.7102
  390MOL0     H51425  10.859   8.391   3.648  0.6619  0.6582 -0.1109
  390MOL0     H51426  10.920   8.451   3.802  1.6999 -2.9209  1.5234
  390MOL0     H51427  10.697   8.503   3.852  0.5672 -0.5428  1.1165
  390MOL0     H51428  10.667   8.325   3.856 -1.7690 -0.9561 -2.7823
  390MOL0     H51429  10.621   8.507   3.611 -1.6099 -1.5176 -1.2854
  390MOL0     H51430  10.629   8.343   3.609  0.0846  3.1565 -3.2096
  390MOL0     H51431  10.440   8.497   3.787 -1.6941 -1.7226  1.5509
  390MOL0     H51432  10.454   8.319   3.779  0.7647  0.1159  0.4722
  390MOL0     H51433  10.271   8.598   3.576  3.8490  1.0753 -0.5730
  390MOL0     H51434  10.147   8.469   3.231  2.5528  0.7963 -0.9685
  390MOL0     H51435  10.119   8.605   3.344 -1.4842  0.0878 -2.2301
  390MOL0     H51436   9.981   8.476   3.484 -2.2619  0.8654 -0.9794
  390MOL0     H51437  10.016   8.322   3.398 -2.5474 -0.6264  0.3462
  390MOL0     H51438   9.888   8.557   3.266  2.2204 -0.3128  1.3033
  390MOL0     H51439   9.901   8.387   3.199 -0.6642  0.2833 -1.3779
  390MOL0     H51440   9.753   8.482   3.440  2.9108  0.0988  0.7642
  390MOL0     H51441   9.762   8.308   3.392 -1.6747 -0.8278  1.0147
  390MOL0     H51442   9.488   8.636   3.324 -0.6247  0.6805  0.8929
  390MOL0     H51443   9.275   8.621   3.416 -2.0267 -1.7987 -0.0598
  390MOL0     H51444   9.005   8.045   3.576 -0.2783 -1.1007  0.6369
  390MOL0     H51445   8.806   7.978   3.698 -2.9713  0.9157  0.4995
  390MOL0     H51446   8.587   7.942   3.811  2.7773  0.7930 -0.1392
  390MOL0     H51447   8.529   8.040   3.671  1.3884  3.8024 -0.3962
  390MOL0     H51448   8.369   8.141   3.792  0.4482  0.5485  0.5814
  390MOL0     H51449   8.406   8.084   3.951  2.7597 -0.1184 -0.8997
  390MOL0     H51450   8.347   7.843   3.885  3.0074  0.0094 -1.7030
  390MOL0     H51451   8.300   7.893   3.729  1.3934 -0.8329 -0.2157
  390MOL0     H51452   8.112   7.877   3.906  1.8507 -1.3314 -0.4780
  390MOL0     H51453   8.180   8.008   3.996  0.6444  0.3320 -0.2030
  390MOL0     H51454   8.150   8.163   3.805  1.8205 -0.8331 -1.7971
  390MOL0     H51455   8.009   8.093   3.887  1.0822  0.2470  0.3019
  390MOL0     H51456   8.110   8.049   3.607  2.0126 -1.7691  1.2491
  390MOL0     H51457   7.954   8.108   3.660  1.1100  1.9414  4.1834
  390MOL0     H51458   8.052   7.826   3.706 -0.2120  0.4912  1.7119
  390MOL0     H51459   7.893   7.890   3.736  0.9207  4.2558  0.3221
  390MOL0     H51460   7.883   7.944   3.477  0.3547  0.0425  0.0083
  390MOL0     H51461   7.879   7.763   3.520  3.0655 -2.6875 -1.7974
  390MOL0     H51462   8.699   8.376   3.754 -0.5416 -0.2882  1.1302
  390MOL0     H51463   8.926   8.447   3.672 -1.0594  0.7450  1.6251
  390MOL0     H51464   9.312   8.191   3.436  0.8575 -0.0774 -1.5307
  390MOL0     H51465   9.532   8.210   3.347 -0.9483 -1.1303  0.3662
  390MOL0     H51466  10.783   7.741   3.402 -0.0191 -1.6528  1.7795
  390MOL0     H51467  10.590   7.585   3.392 -2.6198 -0.4152  0.3383
  390MOL0     H51468  10.017   7.593   3.590 -0.7916 -1.2642  2.2669
  390MOL0     H51469   9.883   7.376   3.564 -0.8031  1.2551 -1.9795
  390MOL0     H51470  10.022   7.028   3.600 -2.6695  0.9791  0.9916
  390MOL0     H51471  10.110   7.023   3.440  0.5378 -0.2739  2.0880
  390MOL0     H51472   9.899   6.936   3.333  1.3350 -0.6790 -0.8016
  390MOL0     H51473  10.002   6.834   3.442 -0.8776 -1.2395  1.6152
  390MOL0     H51474   9.851   6.859   3.615  1.3409 -2.4194 -0.1756
  390MOL0     H51475   9.754   6.798   3.478 -0.5148  1.3879 -3.3578
  390MOL0     H51476   9.740   7.090   3.599 -1.0142  1.6171 -2.4361
  390MOL0     H51477   9.702   7.045   3.433 -0.5420  0.5883 -0.0997
  390MOL0     H51478   9.400   6.918   3.705 -1.4742  1.6203 -0.8692
  390MOL0     H51479  10.172   7.195   3.302  0.7384 -1.6239  1.7336
  390MOL0     H51480  10.312   7.382   3.331  1.9004 -0.0336  3.7121
  391MOL0     O51481   8.160   4.374   1.670  0.2671 -0.6518 -0.4815
  391MOL0     C51482   8.106   4.275   1.719 -0.6588  0.6851  0.1417
  391MOL0     O51483   8.165   4.154   1.729 -0.7422  0.0595 -0.0829
  391MOL0     C51484   8.301   4.163   1.717 -0.4454  0.3334  0.1595
  391MOL0     C51485   8.371   4.193   1.839  0.6362  0.0691 -0.8082
  391MOL0     C51486   8.505   4.199   1.834 -0.6783 -0.1791  0.2775
  391MOL0     C51487   8.577   4.186   1.711  0.2130 -0.0415  0.4040
  391MOL0     O51488   8.713   4.199   1.690  0.7692  0.3109  0.2039
  391MOL0     C51489   8.801   4.224   1.803 -0.2880 -0.4207  0.5042
  391MOL0     C51490   8.941   4.252   1.752 -0.5616  0.1602 -0.2219
  391MOL0     C51491   9.047   4.258   1.868  0.1333 -0.7820 -0.3517
  391MOL0     C51492   9.193   4.265   1.821  0.2063 -0.2674 -0.5271
  391MOL0     C51493   9.285   4.297   1.934  0.9479 -1.0333 -0.8428
  391MOL0     C51494   9.354   4.171   1.978  0.3847  0.1297 -0.2112
  391MOL0     C51495   9.416   4.203   2.116  0.5086  0.1764  0.0013
  391MOL0     C51496   9.510   4.088   2.161 -0.9748 -0.0575  0.2440
  391MOL0     N51497   9.429   3.974   2.207 -0.3543 -0.2694 -0.5087
  391MOL0     C51498   9.394   3.869   2.121  0.1467 -0.7251  0.0625
  391MOL0     C51499   9.337   3.786   2.203  0.1345  0.1114  0.6564
  391MOL0     C51500   9.298   3.636   2.176 -0.2634  0.1160 -0.1862
  391MOL0     C51501   9.411   3.547   2.114 -0.4909  0.6199  1.1345
  391MOL0     C51502   9.410   3.531   1.958  0.7246 -0.2109 -0.0946
  391MOL0     C51503   9.523   3.461   1.881  0.1207 -0.4611 -0.1216
  391MOL0     O51504   9.501   3.471   1.739 -0.3786 -0.3410 -0.4377
  391MOL0     C51505   9.562   3.372   1.661  0.6548 -0.1954 -0.5973
  391MOL0     C51506   9.509   3.362   1.536 -0.0526 -0.2625  0.5053
  391MOL0     C51507   9.566   3.274   1.443  0.0619  0.5245 -0.0810
  391MOL0     C51508   9.677   3.194   1.480  0.3211 -0.7322  0.1764
  391MOL0     C51509   9.746   3.112   1.380 -0.1301 -0.7780  0.3721
  391MOL0     O51510   9.693   3.111   1.257 -0.2660  0.5391  0.3421
  391MOL0     C51511   9.771   3.091   1.139  0.3760  0.0995  0.3966
  391MOL0     C51512   9.717   3.028   1.027  0.5842  0.6040 -0.2805
  391MOL0     C51513   9.775   3.031   0.898  1.3977  0.4241 -0.1172
  391MOL0     C51514   9.899   3.091   0.883 -0.2188  0.2293 -0.1825
  391MOL0     O51515   9.965   3.088   0.760  0.1093 -0.7889  0.0046
  391MOL0     C51516  10.082   3.008   0.765  0.5657  0.0744 -0.2374
  391MOL0     C51517  10.139   3.001   0.617 -0.6567 -0.1785 -0.4905
  391MOL0     C51518  10.258   2.902   0.616  0.4230 -0.2411  0.6566
  391MOL0     C51519  10.370   2.953   0.712 -0.7329  0.7236 -0.1943
  391MOL0     C51520  10.510   2.891   0.680 -0.1052  0.3884  1.2257
  391MOL0     C51521  10.597   2.914   0.802  0.0025 -0.7505 -0.2707
  391MOL0     C51522  10.737   2.866   0.775 -0.8282  0.0625  0.3617
  391MOL0     C51523  10.812   2.984   0.710 -0.0936  0.6124 -0.1960
  391MOL0    Cl51524  10.974   2.945   0.626 -0.6346 -0.2337 -0.0106
  391MOL0     C51525   9.956   3.156   1.000 -0.7350  0.1246 -0.6435
  391MOL0     C51526   9.896   3.149   1.125  0.2211 -0.7180 -0.0949
  391MOL0     O51527   9.861   3.067   1.403  0.2991 -0.0886  0.9083
  391MOL0     C51528   9.727   3.212   1.606  0.5366 -0.2410 -1.0238
  391MOL0     C51529   9.671   3.296   1.695  0.3587 -0.1221 -0.2582
  391MOL0     N51530   9.335   3.832   2.334  0.0226 -0.5976  0.8073
  391MOL0     N51531   9.388   3.951   2.341 -1.0017  1.0209  0.1293
  391MOL0     C51532   8.503   4.162   1.589 -0.5730 -0.2988 -0.8529
  391MOL0     C51533   8.364   4.140   1.599  0.1988  0.2067  0.0824
  391MOL0     C51534   7.971   4.283   1.767 -0.3063  0.2040  0.7040
  391MOL0     C51535   7.900   4.404   1.769  0.6020  0.2522  0.1035
  391MOL0     C51536   7.775   4.415   1.826 -0.2667  0.3822 -0.2431
  391MOL0     C51537   7.717   4.303   1.883 -0.6569 -0.3110 -0.6078
  391MOL0     O51538   7.590   4.312   1.921  1.0303 -0.1912  0.2465
  391MOL0     C51539   7.493   4.357   1.825 -0.2634 -0.4990  0.6921
  391MOL0     C51540   7.475   4.270   1.699 -0.6564  0.3022  0.8977
  391MOL0     C51541   7.570   4.283   1.578 -0.5091 -0.3872 -0.5304
  391MOL0     C51542   7.526   4.217   1.445  0.1371 -0.5105 -0.7812
  391MOL0     C51543   7.406   4.287   1.389 -0.8019  0.0887 -0.2223
  391MOL0     C51544   7.307   4.347   1.342  0.5573  0.3324 -0.5063
  391MOL0     C51545   7.785   4.179   1.878  0.7723 -0.1545  0.5251
  391MOL0     C51546   7.910   4.167   1.820 -0.0344  0.0491  0.3978
  391MOL0     H51547   8.315   4.196   1.932  2.3872 -1.2902  0.3442
  391MOL0     H51548   8.563   4.231   1.921  0.7490  1.4957 -1.2171
  391MOL0     H51549   8.784   4.137   1.866  0.3741  0.0817  1.4039
  391MOL0     H51550   8.775   4.310   1.866 -1.3883  0.4307 -1.0415
  391MOL0     H51551   8.938   4.351   1.707 -4.3777  0.4313  0.2634
  391MOL0     H51552   8.959   4.169   1.684 -3.2047 -1.9357  1.4032
  391MOL0     H51553   9.035   4.169   1.932  1.0336 -0.1196  0.7661
  391MOL0     H51554   9.012   4.339   1.933 -2.2031 -0.9348 -1.3039
  391MOL0     H51555   9.214   4.170   1.772  0.7457 -0.0668 -0.6909
  391MOL0     H51556   9.210   4.338   1.741 -1.8217 -1.2683 -1.9573
  391MOL0     H51557   9.242   4.356   2.015  3.3299  2.9963 -2.2545
  391MOL0     H51558   9.359   4.366   1.894 -0.3060 -0.5268 -2.3944
  391MOL0     H51559   9.426   4.144   1.900  2.0747 -0.0300  1.3293
  391MOL0     H51560   9.276   4.095   1.988 -2.4068  3.0714  2.5798
  391MOL0     H51561   9.476   4.294   2.121  1.4346 -0.4461  0.6301
  391MOL0     H51562   9.338   4.203   2.192 -0.5053 -1.1490 -0.9977
  391MOL0     H51563   9.577   4.130   2.236  1.6171  0.0975 -2.0032
  391MOL0     H51564   9.565   4.056   2.072 -0.3068  1.3041  0.1302
  391MOL0     H51565   9.415   3.858   2.015 -2.7926  1.3366 -0.8616
  391MOL0     H51566   9.216   3.648   2.104  1.1413  2.5670 -1.5624
  391MOL0     H51567   9.266   3.593   2.271  1.0288 -1.0639 -0.2537
  391MOL0     H51568   9.398   3.444   2.150 -0.5897  0.5406  0.8710
  391MOL0     H51569   9.513   3.564   2.151  1.5944 -3.2646 -1.9828
  391MOL0     H51570   9.321   3.471   1.935  2.2578 -2.7009  0.0139
  391MOL0     H51571   9.405   3.629   1.911 -1.8188 -0.6296 -0.8276
  391MOL0     H51572   9.531   3.356   1.909  0.3293 -0.8205 -1.4327
  391MOL0     H51573   9.618   3.514   1.887  0.0574 -0.1040 -1.7526
  391MOL0     H51574   9.425   3.428   1.517  0.5191  0.1786 -0.6232
  391MOL0     H51575   9.536   3.278   1.338  2.9301 -0.0224 -1.0224
  391MOL0     H51576   9.622   2.977   1.038  1.2580 -0.2323  2.4907
  391MOL0     H51577   9.742   2.982   0.807 -2.6374  2.4192  0.0709
  391MOL0     H51578  10.054   2.905   0.790 -0.8109  0.2466 -0.9506
  391MOL0     H51579  10.163   3.047   0.828  0.5037 -3.2115  2.1718
  391MOL0     H51580  10.157   3.101   0.576  1.4388  0.1750  1.1334
  391MOL0     H51581  10.060   2.965   0.550 -2.9237 -0.4659  2.1943
  391MOL0     H51582  10.289   2.890   0.512  0.1208  1.1496  0.3855
  391MOL0     H51583  10.218   2.806   0.650 -1.3081 -0.1555 -0.9597
  391MOL0     H51584  10.380   3.061   0.697  4.4210  0.5218 -0.1075
  391MOL0     H51585  10.343   2.913   0.810  1.5337  0.8024  0.5057
  391MOL0     H51586  10.534   2.911   0.576 -1.1769 -1.8539  0.4839
  391MOL0     H51587  10.498   2.782   0.685  2.1671 -0.1802 -2.3559
  391MOL0     H51588  10.555   2.854   0.883  0.1966 -1.5452 -0.7548
  391MOL0     H51589  10.599   3.019   0.834  0.2860 -0.9112  0.2458
  391MOL0     H51590  10.779   2.854   0.876 -0.2092  0.8836  0.2141
  391MOL0     H51591  10.740   2.772   0.719 -0.1295  1.7543 -2.6603
  391MOL0     H51592  10.815   3.055   0.794 -2.3455  0.7997 -0.1952
  391MOL0     H51593  10.747   3.015   0.627  1.7854  1.0821 -1.5528
  391MOL0     H51594  10.050   3.209   0.987  0.4791 -1.5429  0.7664
  391MOL0     H51595   9.937   3.213   1.203 -4.0194  1.5443  0.5850
  391MOL0     H51596   9.815   3.152   1.628  2.1464  1.4724 -2.4557
  391MOL0     H51597   9.709   3.312   1.795 -1.7509  2.4092  0.2277
  391MOL0     H51598   8.554   4.161   1.492  2.2011 -3.4999  0.4136
  391MOL0     H51599   8.317   4.108   1.507  1.1186  0.0385 -0.3300
  391MOL0     H51600   7.953   4.492   1.735  0.6592  0.5308  0.8992
  391MOL0     H51601   7.728   4.512   1.816  1.4982  1.6389  2.3819
  391MOL0     H51602   7.502   4.460   1.788 -3.6380 -1.1972 -2.7087
  391MOL0     H51603   7.400   4.376   1.880 -0.0098  1.3429  0.5671
  391MOL0     H51604   7.484   4.167   1.735  0.1804 -0.4823 -1.3878
  391MOL0     H51605   7.376   4.286   1.656  0.2780 -1.1887 -2.0903
  391MOL0     H51606   7.663   4.230   1.601 -0.2907 -0.8925 -2.3690
  391MOL0     H51607   7.581   4.391   1.566 -0.7479 -0.2020  0.7773
  391MOL0     H51608   7.606   4.208   1.371 -0.4237  0.4915 -1.5231
  391MOL0     H51609   7.503   4.111   1.459  2.1847 -0.6682  2.5033
  391MOL0     H51610   7.218   4.393   1.303  0.4154  0.2082 -0.3316
  391MOL0     H51611   7.743   4.082   1.902  0.2854 -1.2582 -3.9262
  391MOL0     H51612   7.965   4.074   1.815  2.0037  1.2153 -0.0600
  392MOL0     O51613   6.395   2.898   4.016 -0.3482 -0.1722  0.5418
  392MOL0     C51614   6.486   2.923   3.929 -0.2225 -0.1585 -0.9523
  392MOL0     O51615   6.477   2.925   3.795  0.2925 -0.4303  0.1484
  392MOL0     C51616   6.358   2.907   3.740  0.3749  0.6956 -1.1769
  392MOL0     C51617   6.343   2.813   3.643 -0.4383  0.0272  0.5689
  392MOL0     C51618   6.221   2.778   3.576 -0.1594 -0.1169 -0.4697
  392MOL0     C51619   6.104   2.847   3.618  0.3919  1.9178  0.2030
  392MOL0     O51620   5.997   2.814   3.538  0.3684 -0.5221  0.2121
  392MOL0     C51621   5.874   2.818   3.615  0.2753  0.4218 -0.1602
  392MOL0     C51622   5.755   2.792   3.521 -2.0748  0.2310  0.1878
  392MOL0     C51623   5.732   2.643   3.501  0.2726 -0.6574  0.3025
  392MOL0     C51624   5.595   2.609   3.436  0.3298 -0.7083  0.1405
  392MOL0     C51625   5.579   2.464   3.403  0.2801  1.0842 -0.3229
  392MOL0     C51626   5.478   2.441   3.288  0.3707 -0.0289  0.0552
  392MOL0     C51627   5.330   2.473   3.322 -0.1247  0.2461  1.1308
  392MOL0     C51628   5.249   2.436   3.192 -0.0004  0.3076  0.2792
  392MOL0     N51629   5.112   2.486   3.214 -0.0523 -0.7526  0.1143
  392MOL0     C51630   5.035   2.456   3.324  0.7185  0.0621  0.1957
  392MOL0     C51631   4.912   2.514   3.290 -0.0367  0.8548  0.3002
  392MOL0     C51632   4.799   2.514   3.394 -0.4860  0.4944  0.6444
  392MOL0     C51633   4.673   2.540   3.326  0.6214  0.0127 -0.5117
  392MOL0     C51634   4.574   2.625   3.416  0.1619 -0.2206  0.2464
  392MOL0     C51635   4.432   2.664   3.355 -0.0603 -0.7035  0.2157
  392MOL0     O51636   4.461   2.741   3.239 -0.1366  0.1410  0.0897
  392MOL0     C51637   4.358   2.818   3.182 -0.1447  0.7481  0.5971
  392MOL0     C51638   4.221   2.806   3.214  0.0574  1.2621  0.1624
  392MOL0     C51639   4.119   2.891   3.161 -0.3702 -0.5081 -0.3473
  392MOL0     C51640   4.160   2.997   3.080  0.2557 -0.1416  0.7312
  392MOL0     C51641   4.058   3.082   3.014  0.6845  0.6647 -0.1230
  392MOL0     O51642   4.092   3.150   2.913  0.2589  0.3595 -0.2476
  392MOL0     C51643   3.995   3.216   2.855 -0.3312 -1.2174 -0.9361
  392MOL0     C51644   3.894   3.145   2.781 -0.5215  0.3033  0.1704
  392MOL0     C51645   3.774   3.209   2.741  0.6642 -0.6832  0.3148
  392MOL0     C51646   3.764   3.351   2.769 -0.2598  0.6600 -0.4827
  392MOL0     O51647   3.654   3.430   2.730 -0.4538  0.0411  0.1481
  392MOL0     C51648   3.556   3.378   2.651  0.2442  0.6030 -0.5294
  392MOL0     C51649   3.430   3.461   2.655  0.2976  0.2581  0.5157
  392MOL0     C51650   3.335   3.417   2.542  0.5744 -0.1758  0.2528
  392MOL0     C51651   3.329   3.523   2.435 -0.0438  1.0526  0.6016
  392MOL0     C51652   3.254   3.481   2.313  0.2666 -0.1012  0.5574
  392MOL0     C51653   3.213   3.597   2.220 -0.1765 -0.4533 -0.0283
  392MOL0     C51654   3.095   3.551   2.129  0.0870 -0.2007 -0.1517
  392MOL0     C51655   3.032   3.673   2.059  0.4204 -1.5119 -0.9246
  392MOL0    Cl51656   3.144   3.724   1.927  0.1575  0.1557  0.2179
  392MOL0     C51657   3.869   3.414   2.835  0.1863 -0.1629 -0.0364
  392MOL0     C51658   3.984   3.351   2.878  0.1105 -0.1468 -0.9308
  392MOL0     O51659   3.940   3.071   3.053 -0.3284  0.6190 -0.3750
  392MOL0     C51660   4.299   3.010   3.040 -0.0039  0.0203 -0.4955
  392MOL0     C51661   4.395   2.922   3.088  0.8254  0.1648 -0.7531
  392MOL0     N51662   4.918   2.567   3.163  0.4452  0.5524 -0.3090
  392MOL0     N51663   5.042   2.564   3.128  0.1508 -0.2965  0.5944
  392MOL0     C51664   6.116   2.940   3.722  0.2000  0.6013 -0.5652
  392MOL0     C51665   6.238   2.965   3.787  0.9792  0.6943  0.2244
  392MOL0     C51666   6.620   2.969   3.980 -0.5131 -0.0285 -0.6201
  392MOL0     C51667   6.648   2.992   4.125 -0.4103  0.2485  1.1804
  392MOL0     C51668   6.769   3.036   4.166  0.3398 -0.1290  0.6434
  392MOL0     C51669   6.862   3.064   4.071 -0.6019  0.0260  0.8457
  392MOL0     O51670   6.980   3.097   4.130 -0.1586 -0.5653 -0.2391
  392MOL0     C51671   7.095   3.159   4.055  0.5149  0.0398 -0.1993
  392MOL0     C51672   7.066   3.309   4.034  0.0128 -0.4440 -0.1384
  392MOL0     C51673   7.144   3.383   3.925 -1.2770  0.1789  0.3316
  392MOL0     C51674   7.300   3.369   3.957 -1.0951  0.8992 -0.3557
  392MOL0     C51675   7.385   3.440   3.855 -0.0367 -0.4723  0.8679
  392MOL0     C51676   7.442   3.508   3.766 -0.7825 -0.1113 -1.0599
  392MOL0     C51677   6.840   3.067   3.928 -0.7837  0.2728 -0.0066
  392MOL0     C51678   6.719   3.022   3.888 -0.1063  0.7157 -0.7793
  392MOL0     H51679   6.436   2.764   3.617 -0.2599  0.3561  0.5882
  392MOL0     H51680   6.223   2.715   3.487  1.2322 -0.7678 -0.0086
  392MOL0     H51681   5.862   2.919   3.655  0.9117  0.3957  0.1000
  392MOL0     H51682   5.870   2.746   3.698 -3.0180 -2.9340 -2.8408
  392MOL0     H51683   5.787   2.836   3.425 -1.4731 -1.3149 -0.3465
  392MOL0     H51684   5.664   2.836   3.561 -1.2844  1.6801  0.4614
  392MOL0     H51685   5.737   2.581   3.591 -0.2660  0.5316  1.1772
  392MOL0     H51686   5.813   2.609   3.436  2.0934  1.7961  1.1068
  392MOL0     H51687   5.517   2.664   3.488  0.9952  0.8494 -0.4318
  392MOL0     H51688   5.609   2.663   3.341 -0.8215  0.1676  0.4489
  392MOL0     H51689   5.553   2.409   3.494 -2.4619 -1.2681 -2.3225
  392MOL0     H51690   5.679   2.434   3.371  1.5060  0.4794  3.5566
  392MOL0     H51691   5.487   2.334   3.267 -1.2014 -1.0037  3.6442
  392MOL0     H51692   5.503   2.495   3.197 -0.2680  0.1427 -0.0194
  392MOL0     H51693   5.298   2.398   3.394 -1.4754 -0.2078  0.1034
  392MOL0     H51694   5.318   2.579   3.348 -1.8048  0.0761  1.1979
  392MOL0     H51695   5.243   2.328   3.179  0.3921  0.2358  0.6704
  392MOL0     H51696   5.288   2.486   3.103 -0.3940  1.6420  0.8268
  392MOL0     H51697   5.058   2.397   3.412  0.7597 -1.2436 -0.6599
  392MOL0     H51698   4.814   2.592   3.469  1.7089 -0.8669  1.7218
  392MOL0     H51699   4.801   2.421   3.452  2.1221  0.2054  0.2178
  392MOL0     H51700   4.627   2.444   3.303  1.9355 -0.8708  0.4402
  392MOL0     H51701   4.687   2.591   3.230  1.4806  0.0911 -0.3483
  392MOL0     H51702   4.546   2.558   3.498 -0.2401 -1.3900 -0.8120
  392MOL0     H51703   4.626   2.712   3.458 -1.5048  0.6648  0.5642
  392MOL0     H51704   4.368   2.704   3.434 -0.6835 -0.9715 -0.1518
  392MOL0     H51705   4.391   2.566   3.329 -1.2475  0.0897 -1.0149
  392MOL0     H51706   4.184   2.724   3.275 -0.0208 -0.0927 -1.6281
  392MOL0     H51707   4.015   2.873   3.184  0.3236 -0.6867  3.1936
  392MOL0     H51708   3.912   3.039   2.765  5.1338  1.3558 -3.2201
  392MOL0     H51709   3.699   3.162   2.678  1.6715 -0.2534 -1.2794
  392MOL0     H51710   3.515   3.284   2.687 -2.5383 -0.1202 -4.8004
  392MOL0     H51711   3.592   3.359   2.549 -1.0525  2.5583 -1.4212
  392MOL0     H51712   3.448   3.569   2.657 -0.3921  0.4748 -1.9294
  392MOL0     H51713   3.382   3.437   2.750  0.3681  1.3132  0.8398
  392MOL0     H51714   3.228   3.413   2.567  0.0967 -2.2577 -1.7972
  392MOL0     H51715   3.363   3.316   2.509  3.6256  0.4820  0.5594
  392MOL0     H51716   3.275   3.610   2.472 -0.9709  1.1201 -0.8653
  392MOL0     H51717   3.429   3.550   2.400 -0.9611  1.2426 -2.0429
  392MOL0     H51718   3.158   3.447   2.355  0.2118 -1.7329 -0.7924
  392MOL0     H51719   3.283   3.395   2.253 -1.4842 -0.0116 -0.5033
  392MOL0     H51720   3.297   3.622   2.154 -1.4073  0.5592 -1.2608
  392MOL0     H51721   3.192   3.692   2.271  1.9688  0.4355 -0.7026
  392MOL0     H51722   3.130   3.471   2.064  0.2636  1.3108 -2.0212
  392MOL0     H51723   3.023   3.507   2.198  1.9963  0.1257  2.1736
  392MOL0     H51724   3.007   3.756   2.126 -1.1625  0.3923 -3.6683
  392MOL0     H51725   2.938   3.651   2.007  0.6143  1.9876 -3.0481
  392MOL0     H51726   3.860   3.519   2.862 -3.0337 -0.8685  2.2875
  392MOL0     H51727   4.068   3.402   2.926 -0.0866 -0.4723 -0.2211
  392MOL0     H51728   4.323   3.082   2.962 -1.7846 -1.3583 -2.4245
  392MOL0     H51729   4.498   2.910   3.055  0.1693 -1.4914 -2.4044
  392MOL0     H51730   6.035   3.005   3.755  0.0584  0.9136 -1.5076
  392MOL0     H51731   6.232   3.041   3.864 -2.3475  1.7700 -0.9216
  392MOL0     H51732   6.577   2.983   4.206 -1.1250  0.7656  0.6243
  392MOL0     H51733   6.791   3.036   4.272 -0.3340  0.3657  0.7904
  392MOL0     H51734   7.113   3.110   3.959  0.1191  0.5661 -0.5479
  392MOL0     H51735   7.183   3.145   4.118 -0.4976  0.5456  1.3849
  392MOL0     H51736   6.957   3.316   4.024  0.1757 -0.2803 -2.1759
  392MOL0     H51737   7.101   3.357   4.126  4.9939 -3.7281  0.0684
  392MOL0     H51738   7.115   3.488   3.933 -1.9210  0.0410 -0.1109
  392MOL0     H51739   7.117   3.352   3.823  1.0354 -1.6655  0.1896
  392MOL0     H51740   7.328   3.389   4.061  1.4192  1.4892 -1.0742
  392MOL0     H51741   7.337   3.266   3.944 -1.4472  1.0147 -2.4840
  392MOL0     H51742   7.494   3.576   3.702 -1.4153  2.2467  0.7815
  392MOL0     H51743   6.927   3.094   3.869  0.3210 -1.9987  0.5026
  392MOL0     H51744   6.708   3.020   3.780 -0.0280  1.5035 -0.8085
  393MOL0     O51745   4.949   7.257   3.324  0.5927 -0.1808 -0.2622
  393MOL0     C51746   5.056   7.308   3.296  0.5433 -0.3073 -0.7025
  393MOL0     O51747   5.083   7.437   3.289 -0.2743 -1.2771  0.0879
  393MOL0     C51748   5.006   7.511   3.379  0.3041  0.6372 -0.0760
  393MOL0     C51749   5.072   7.593   3.470 -0.1736  0.0070  0.2871
  393MOL0     C51750   5.007   7.666   3.561  0.2858  0.3944 -0.6588
  393MOL0     C51751   4.862   7.675   3.554  0.5493 -0.5486 -0.5035
  393MOL0     O51752   4.786   7.751   3.648 -0.2272  0.4158  0.0691
  393MOL0     C51753   4.859   7.820   3.742  0.3060  0.7820  0.2076
  393MOL0     C51754   4.754   7.871   3.837  0.0180 -0.0262 -0.5632
  393MOL0     C51755   4.828   7.927   3.961 -0.9780  0.1280 -0.4298
  393MOL0     C51756   4.752   8.034   4.026  0.3360 -0.3531 -0.2771
  393MOL0     C51757   4.828   8.085   4.147 -0.2463 -0.8936 -0.3767
  393MOL0     C51758   4.844   8.002   4.279 -0.8211  0.8695  0.1590
  393MOL0     C51759   4.711   7.950   4.328  0.8301  0.1815  0.2437
  393MOL0     C51760   4.702   7.915   4.473  0.6427 -0.0791  0.3177
  393MOL0     N51761   4.834   7.870   4.533 -0.0080  0.5716  0.3956
  393MOL0     C51762   4.908   7.932   4.627 -0.5153  0.1372  0.2692
  393MOL0     C51763   5.010   7.846   4.640 -0.8228 -0.0448 -0.6190
  393MOL0     C51764   5.146   7.882   4.701  0.0934  0.3532 -0.0783
  393MOL0     C51765   5.182   7.778   4.814 -0.7837  0.0055 -0.1560
  393MOL0     C51766   5.298   7.810   4.896  0.3853  0.2839 -0.6862
  393MOL0     C51767   5.418   7.835   4.817 -1.1616 -0.3065 -0.8231
  393MOL0     O51768   5.529   7.816   4.914  0.1199 -0.2079  0.3504
  393MOL0     C51769   5.655   7.804   4.874  1.1109  0.6183 -0.6492
  393MOL0     C51770   5.699   7.870   4.761 -0.3247  0.6716  0.2349
  393MOL0     C51771   5.833   7.846   4.723 -0.1742  0.1060  0.7053
  393MOL0     C51772   5.914   7.760   4.790  0.6826  0.1704 -0.6301
  393MOL0     C51773   6.050   7.709   4.738  0.1717  0.3252  0.1232
  393MOL0     O51774   6.143   7.662   4.822  0.1233 -0.6942  0.2793
  393MOL0     C51775   6.258   7.597   4.789  0.3295  0.9460  0.5447
  393MOL0     C51776   6.360   7.581   4.888  0.6020 -0.9216 -1.0132
  393MOL0     C51777   6.481   7.524   4.868  0.1759  0.0181  1.3003
  393MOL0     C51778   6.511   7.478   4.742 -0.6382  0.2706 -0.0511
  393MOL0     O51779   6.626   7.408   4.711  0.1416  0.2981  0.5435
  393MOL0     C51780   6.737   7.383   4.808  0.5860 -0.3901 -0.0315
  393MOL0     C51781   6.867   7.324   4.750 -1.3075  0.5273  0.2875
  393MOL0     C51782   6.908   7.410   4.626 -0.7859  0.2986 -0.4083
  393MOL0     C51783   7.031   7.344   4.551 -1.7436  0.1875 -0.4572
  393MOL0     C51784   7.147   7.303   4.642  0.5435  0.0604  0.5026
  393MOL0     C51785   7.233   7.195   4.582 -0.4625 -0.5280  0.2086
  393MOL0     C51786   7.320   7.265   4.486  0.3985 -0.0597  0.2375
  393MOL0     C51787   7.383   7.151   4.398  0.3962 -0.0293 -0.4293
  393MOL0    Cl51788   7.499   7.211   4.287 -0.0447 -0.0841 -0.1289
  393MOL0     C51789   6.410   7.482   4.642  0.4128 -0.1054  0.5189
  393MOL0     C51790   6.288   7.543   4.660  0.1083  0.8496  1.2107
  393MOL0     O51791   6.072   7.734   4.620  0.2503  0.1103 -0.7867
  393MOL0     C51792   5.867   7.698   4.907  0.1606 -0.6893 -0.3478
  393MOL0     C51793   5.741   7.727   4.952 -0.2723 -0.0492 -0.1531
  393MOL0     N51794   4.984   7.731   4.564 -0.0145 -0.6359 -0.4009
  393MOL0     N51795   4.873   7.745   4.500  0.0077  0.3261  0.0342
  393MOL0     C51796   4.794   7.608   3.449  0.0396  0.4590  0.7403
  393MOL0     C51797   4.863   7.527   3.355  0.2625 -0.3240 -0.1301
  393MOL0     C51798   5.164   7.221   3.248  0.7523 -0.7295  0.2462
  393MOL0     C51799   5.126   7.094   3.205 -0.0108 -0.0377  0.8209
  393MOL0     C51800   5.225   7.003   3.158 -0.7213 -0.3184 -0.3080
  393MOL0     C51801   5.360   7.034   3.158 -1.0170  0.3560 -0.0608
  393MOL0     O51802   5.453   6.943   3.103 -0.2638 -0.1519 -0.6139
  393MOL0     C51803   5.593   6.972   3.123 -0.1566  0.3625  0.7556
  393MOL0     C51804   5.665   6.851   3.065 -0.7665  0.2044  0.3043
  393MOL0     C51805   5.815   6.871   3.088 -0.9735  0.1430 -0.1137
  393MOL0     C51806   5.899   6.748   3.025  0.0428  0.3353  0.1421
  393MOL0     C51807   5.892   6.736   2.878 -0.1326 -1.3380 -1.0150
  393MOL0     C51808   5.863   6.754   2.763 -0.2569 -0.4273  1.0610
  393MOL0     C51809   5.400   7.161   3.202  0.4395  0.5484 -0.3678
  393MOL0     C51810   5.301   7.255   3.232 -0.6939 -0.0704  0.3817
  393MOL0     H51811   5.180   7.591   3.456 -0.4038 -0.8727 -1.6699
  393MOL0     H51812   5.065   7.727   3.629 -0.0453  1.7135 -1.5299
  393MOL0     H51813   4.908   7.899   3.684  1.0859 -0.9095 -1.5544
  393MOL0     H51814   4.930   7.753   3.791 -2.2695 -1.4344  1.1820
  393MOL0     H51815   4.700   7.785   3.877  1.9128 -0.3674  1.4188
  393MOL0     H51816   4.687   7.936   3.779  0.7511 -0.1494 -1.5684
  393MOL0     H51817   4.924   7.971   3.932 -0.2749 -1.3634 -0.4748
  393MOL0     H51818   4.856   7.844   4.028 -1.8807  0.1265 -0.0512
  393MOL0     H51819   4.727   8.116   3.958  1.8143 -2.0485 -3.0043
  393MOL0     H51820   4.654   7.992   4.054 -1.0344  2.8023  0.0987
  393MOL0     H51821   4.800   8.190   4.154 -0.4839 -0.6711 -3.3464
  393MOL0     H51822   4.934   8.092   4.119  0.3377 -2.6087  1.1656
  393MOL0     H51823   4.890   8.083   4.337  0.7764  0.4632 -0.4837
  393MOL0     H51824   4.914   7.922   4.257  0.9914  2.9395 -2.2976
  393MOL0     H51825   4.629   8.022   4.316  1.1982  1.3855  3.7082
  393MOL0     H51826   4.698   7.854   4.278 -2.0217  1.0374 -0.8463
  393MOL0     H51827   4.627   7.835   4.475 -3.0207  3.0048 -1.1189
  393MOL0     H51828   4.650   7.999   4.519 -0.4806  1.5424 -3.5347
  393MOL0     H51829   4.897   8.029   4.674  3.0100  0.2480  1.0958
  393MOL0     H51830   5.137   7.979   4.752  0.7827 -0.2972  1.3452
  393MOL0     H51831   5.223   7.889   4.624 -0.4492  0.4268 -0.6231
  393MOL0     H51832   5.197   7.678   4.770 -0.1779 -0.2731  0.6643
  393MOL0     H51833   5.094   7.767   4.878 -0.3512 -1.3034  0.2547
  393MOL0     H51834   5.275   7.908   4.940 -0.6597  0.5955 -1.8734
  393MOL0     H51835   5.307   7.739   4.979  0.9680 -0.6386 -1.5223
  393MOL0     H51836   5.424   7.936   4.773 -0.0135  0.7114  1.5275
  393MOL0     H51837   5.428   7.750   4.749 -0.1774  0.5071 -1.7462
  393MOL0     H51838   5.640   7.937   4.699 -0.5740  1.6994  1.5227
  393MOL0     H51839   5.867   7.894   4.632  2.5972  0.6018  1.8828
  393MOL0     H51840   6.340   7.619   4.988  0.0138  0.0626 -1.4797
  393MOL0     H51841   6.556   7.535   4.946  0.3395  1.9971  0.9117
  393MOL0     H51842   6.704   7.311   4.883  0.7763 -1.1783 -0.6917
  393MOL0     H51843   6.770   7.476   4.857 -0.7462  0.2977 -0.3954
  393MOL0     H51844   6.855   7.221   4.716 -0.4290  1.0939 -1.9505
  393MOL0     H51845   6.937   7.336   4.833 -0.8675 -2.1244  0.3706
  393MOL0     H51846   6.941   7.508   4.663 -0.8442 -0.2807  1.2171
  393MOL0     H51847   6.834   7.428   4.547  4.1666  0.6131 -5.7200
  393MOL0     H51848   7.006   7.259   4.486  0.8905  0.6535 -2.2211
  393MOL0     H51849   7.062   7.421   4.479 -0.5144 -2.1543 -2.5755
  393MOL0     H51850   7.100   7.256   4.728 -2.8424  2.6896  0.2907
  393MOL0     H51851   7.199   7.392   4.677  1.8901 -1.0757  1.5104
  393MOL0     H51852   7.168   7.118   4.540  0.0150 -0.3927 -0.8188
  393MOL0     H51853   7.291   7.143   4.659  0.2707  0.6198  0.4506
  393MOL0     H51854   7.254   7.325   4.424  1.1279  2.5190  1.8009
  393MOL0     H51855   7.392   7.328   4.538  1.0853  0.1097 -0.8912
  393MOL0     H51856   7.306   7.100   4.340  1.3113 -1.5713 -0.3421
  393MOL0     H51857   7.439   7.079   4.459  2.9653  2.2005  0.0896
  393MOL0     H51858   6.430   7.436   4.546  1.2644 -0.1284  0.7009
  393MOL0     H51859   6.217   7.549   4.578  1.3683 -0.4515 -0.0179
  393MOL0     H51860   5.929   7.626   4.961  2.4146  1.9013  0.7429
  393MOL0     H51861   5.708   7.680   5.044 -0.3441  0.8143  0.2754
  393MOL0     H51862   4.688   7.613   3.427 -0.1265 -1.6363  0.8408
  393MOL0     H51863   4.811   7.472   3.278 -2.0324  3.7083 -1.7747
  393MOL0     H51864   5.022   7.063   3.211 -0.1616  0.1778 -0.4787
  393MOL0     H51865   5.196   6.909   3.113  1.3207 -1.9053  1.4979
  393MOL0     H51866   5.623   6.983   3.227  1.3433  1.1749  0.2627
  393MOL0     H51867   5.619   7.066   3.073 -0.3748 -0.0082 -0.0897
  393MOL0     H51868   5.641   6.767   3.131 -0.7501  1.4430  1.9192
  393MOL0     H51869   5.651   6.830   2.958  0.8574 -0.8639  0.2693
  393MOL0     H51870   5.844   6.871   3.193  3.3753  2.3273 -1.0670
  393MOL0     H51871   5.868   6.953   3.041  6.0312 -2.1497  2.5058
  393MOL0     H51872   6.001   6.747   3.067  0.4704  2.2993 -0.7337
  393MOL0     H51873   5.851   6.656   3.060  1.8775 -0.8159 -0.2060
  393MOL0     H51874   5.849   6.783   2.661 -0.2269  1.9441  1.6594
  393MOL0     H51875   5.506   7.178   3.219 -0.2165  1.2491  4.3080
  393MOL0     H51876   5.328   7.353   3.270  0.9608 -1.5560  3.4220
  394MOL0     O51877   5.647   9.050   0.744 -0.3709 -0.1058 -0.4302
  394MOL0     C51878   5.632   9.083   0.865  0.0722 -0.2130  0.1387
  394MOL0     O51879   5.538   9.036   0.942  0.7547  0.5488 -0.7183
  394MOL0     C51880   5.437   8.977   0.878  0.1872  0.4083  0.0163
  394MOL0     C51881   5.338   9.047   0.809  0.4469 -0.0946  0.6816
  394MOL0     C51882   5.223   8.994   0.760 -0.2108  0.2271  0.1839
  394MOL0     C51883   5.220   8.852   0.762  0.7937  0.2478 -0.4857
  394MOL0     O51884   5.109   8.796   0.700  0.1083 -0.0629 -0.1215
  394MOL0     C51885   5.038   8.696   0.773 -0.1995  0.0728 -0.7398
  394MOL0     C51886   4.907   8.671   0.702 -0.1309 -0.3140 -0.3622
  394MOL0     C51887   4.799   8.770   0.738 -0.3078  1.0415  0.5949
  394MOL0     C51888   4.661   8.719   0.685 -0.3632 -0.8089  1.3562
  394MOL0     C51889   4.554   8.830   0.711 -0.4531  0.8680  0.8768
  394MOL0     C51890   4.410   8.795   0.691 -0.4210 -0.5924  0.3405
  394MOL0     C51891   4.386   8.692   0.575 -1.1189  0.5422  0.5638
  394MOL0     C51892   4.394   8.749   0.429  0.0850  0.2466  0.4396
  394MOL0     N51893   4.299   8.851   0.418 -0.1591 -0.2683  0.2591
  394MOL0     C51894   4.315   8.989   0.415  0.7398  0.1470 -0.3087
  394MOL0     C51895   4.194   9.034   0.386  0.8655 -0.7157 -0.2020
  394MOL0     C51896   4.159   9.185   0.378  0.1471  0.0429  0.0616
  394MOL0     C51897   4.237   9.237   0.256  0.3479 -1.4730  0.0491
  394MOL0     C51898   4.338   9.363   0.278 -0.7286  0.5479  0.4019
  394MOL0     C51899   4.407   9.390   0.148 -1.4944 -0.4404  0.1734
  394MOL0     O51900   4.487   9.511   0.136 -0.5897  0.2024  0.2388
  394MOL0     C51901   4.612   9.516   0.196  0.2547 -0.3895 -0.3589
  394MOL0     C51902   4.726   9.471   0.129  1.1917  0.0824  0.0789
  394MOL0     C51903   4.849   9.472   0.192  0.2935 -0.5208 -0.5303
  394MOL0     C51904   4.870   9.522   0.324  0.3680 -0.9721  0.6282
  394MOL0     C51905   5.003   9.523   0.388  0.5554  0.0315 -0.5594
  394MOL0     O51906   5.031   9.627   0.458  0.4162 -0.6964 -1.1687
  394MOL0     C51907   5.166   9.635   0.492 -0.4043  0.8435  0.0836
  394MOL0     C51908   5.215   9.579   0.606 -0.4404  0.2612 -0.4225
  394MOL0     C51909   5.351   9.617   0.644  0.0960 -0.2538  0.2671
  394MOL0     C51910   5.433   9.695   0.560  0.7270  0.9367  0.0758
  394MOL0     O51911   5.561   9.726   0.599 -0.1204 -0.5019  0.1523
  394MOL0     C51912   5.638   9.830   0.530  0.1462 -0.3268  0.1288
  394MOL0     C51913   5.751   9.861   0.629 -0.0669 -0.0588 -0.8024
  394MOL0     C51914   5.868   9.950   0.576  0.3009  0.6248 -1.3637
  394MOL0     C51915   5.966   9.964   0.686 -0.4695 -0.7136 -0.0499
  394MOL0     C51916   6.093  10.036   0.649  0.2382 -0.3230  1.0272
  394MOL0     C51917   6.184  10.069   0.765  0.0930  0.1290 -0.2113
  394MOL0     C51918   6.138  10.207   0.831 -0.2064  0.2309  0.2039
  394MOL0     C51919   6.200  10.333   0.774  0.2847 -0.2171 -0.6512
  394MOL0    Cl51920   6.097  10.411   0.643 -0.7268  0.0387 -0.1293
  394MOL0     C51921   5.369   9.744   0.446  0.3030 -0.1417 -0.3356
  394MOL0     C51922   5.241   9.717   0.409 -0.4001  1.0700 -0.2535
  394MOL0     O51923   5.080   9.435   0.353  0.6013 -0.1626  0.2663
  394MOL0     C51924   4.753   9.567   0.390  0.9662  0.0772 -0.6983
  394MOL0     C51925   4.629   9.562   0.328 -0.6027 -0.7673 -0.0367
  394MOL0     N51926   4.105   8.937   0.384 -0.2155 -0.4253 -0.6776
  394MOL0     N51927   4.167   8.827   0.402  0.8363 -0.6625 -0.1442
  394MOL0     C51928   5.317   8.778   0.814 -0.0900 -0.7544 -0.0438
  394MOL0     C51929   5.428   8.843   0.874  0.0593  0.2896  0.2880
  394MOL0     C51930   5.740   9.156   0.936  0.0699 -0.7150 -0.8358
  394MOL0     C51931   5.859   9.175   0.866  0.5665  0.1020  0.4891
  394MOL0     C51932   5.979   9.209   0.921  0.4334 -0.7266 -0.1404
  394MOL0     C51933   5.982   9.221   1.061 -0.2773  0.2595 -0.4442
  394MOL0     O51934   6.092   9.266   1.133 -0.7578 -0.9859 -0.0004
  394MOL0     C51935   6.224   9.276   1.077 -0.6960 -0.3667 -0.8564
  394MOL0     C51936   6.309   9.334   1.192  1.2722  0.5570 -0.0875
  394MOL0     C51937   6.463   9.327   1.175  0.9312 -0.1383 -0.0814
  394MOL0     C51938   6.541   9.386   1.290  0.2441 -0.0044 -0.3657
  394MOL0     C51939   6.492   9.344   1.419  0.4014 -0.0796 -0.0292
  394MOL0     C51940   6.451   9.317   1.530  0.2028  0.8335  0.2284
  394MOL0     C51941   5.868   9.203   1.139  0.6907 -0.4563 -0.7293
  394MOL0     C51942   5.748   9.173   1.079 -0.7031 -0.9310 -0.5187
  394MOL0     H51943   5.346   9.155   0.817  3.7395 -0.2352  0.7243
  394MOL0     H51944   5.137   9.046   0.719 -1.6962 -1.4323  1.0646
  394MOL0     H51945   5.010   8.726   0.874 -0.0123 -1.2494 -0.2692
  394MOL0     H51946   5.107   8.611   0.773  1.8855  1.5207  3.5099
  394MOL0     H51947   4.886   8.569   0.733 -0.2486 -0.9457 -2.3859
  394MOL0     H51948   4.926   8.664   0.594  2.4515 -0.5920  0.0477
  394MOL0     H51949   4.817   8.868   0.695 -1.1322  0.1673 -1.8744
  394MOL0     H51950   4.795   8.778   0.847  0.2414 -0.2039  0.7249
  394MOL0     H51951   4.671   8.687   0.581 -1.6162  0.9313  0.6497
  394MOL0     H51952   4.642   8.630   0.745  0.9974 -1.1408  1.3322
  394MOL0     H51953   4.578   8.905   0.635 -3.8815  0.1442 -1.1582
  394MOL0     H51954   4.574   8.871   0.811 -0.1249 -0.9363  1.5933
  394MOL0     H51955   4.352   8.886   0.672 -0.0692 -0.8354 -2.2597
  394MOL0     H51956   4.371   8.762   0.788  0.9622  1.4730  1.6704
  394MOL0     H51957   4.462   8.616   0.596 -0.1284  2.4635  5.0359
  394MOL0     H51958   4.288   8.644   0.577 -0.8898  0.0810  0.7427
  394MOL0     H51959   4.359   8.662   0.373  2.9576 -1.1207  0.5942
  394MOL0     H51960   4.495   8.773   0.395  0.8614 -0.2890  2.2803
  394MOL0     H51961   4.407   9.046   0.429  0.6123  0.7227 -1.6977
  394MOL0     H51962   4.204   9.217   0.472  1.4083 -2.2317  0.3104
  394MOL0     H51963   4.055   9.216   0.383  0.7649  2.5142 -0.9272
  394MOL0     H51964   4.158   9.250   0.181  0.9521  1.2736 -0.1985
  394MOL0     H51965   4.301   9.154   0.224 -1.2271 -3.0391  0.7812
  394MOL0     H51966   4.283   9.450   0.315  0.9650  1.8279 -0.0027
  394MOL0     H51967   4.405   9.340   0.362  0.0902 -2.2872 -0.8950
  394MOL0     H51968   4.335   9.411   0.068 -0.9666  2.4282  0.3564
  394MOL0     H51969   4.470   9.308   0.112 -0.0733  0.3904  0.7191
  394MOL0     H51970   4.716   9.433   0.028 -0.1790 -1.3343  0.7052
  394MOL0     H51971   4.929   9.421   0.139  0.2070  0.5266 -1.6992
  394MOL0     H51972   5.150   9.509   0.657 -1.4039  1.4806  0.0963
  394MOL0     H51973   5.388   9.585   0.741  1.6155  0.7638  0.0751
  394MOL0     H51974   5.578   9.917   0.506 -0.3723 -1.0820 -1.4335
  394MOL0     H51975   5.676   9.788   0.437 -1.4432 -0.9548 -0.2760
  394MOL0     H51976   5.810   9.772   0.654  0.2132  0.3984  0.1847
  394MOL0     H51977   5.704   9.906   0.716 -1.0166 -2.3192 -0.0697
  394MOL0     H51978   5.818  10.044   0.552  0.9804  1.5646  0.7034
  394MOL0     H51979   5.912   9.898   0.490  1.2172  0.0336 -0.5651
  394MOL0     H51980   5.917  10.016   0.770  2.4036  1.6265  0.3465
  394MOL0     H51981   5.997   9.867   0.724  0.0976 -0.4668  0.1292
  394MOL0     H51982   6.068  10.123   0.588 -0.8267  1.2157  3.5026
  394MOL0     H51983   6.149   9.968   0.584  4.7855  2.9189  1.1209
  394MOL0     H51984   6.280  10.082   0.715 -0.5287 -3.6017 -2.8103
  394MOL0     H51985   6.183   9.993   0.844  1.7975  2.1923  1.9621
  394MOL0     H51986   6.029  10.207   0.832 -0.2402 -1.4936 -0.2642
  394MOL0     H51987   6.180  10.205   0.932  3.1154  1.9758 -0.9814
  394MOL0     H51988   6.298  10.310   0.732 -0.0353 -0.1891 -1.4273
  394MOL0     H51989   6.228  10.415   0.841  1.7630 -0.3047 -1.1461
  394MOL0     H51990   5.424   9.801   0.371  1.9330 -2.7185 -1.2070
  394MOL0     H51991   5.194   9.742   0.314  1.3607  1.4486 -1.0692
  394MOL0     H51992   4.762   9.574   0.498 -0.5262 -5.6815  0.1215
  394MOL0     H51993   4.540   9.595   0.382 -0.8756  0.3785 -1.1234
  394MOL0     H51994   5.322   8.672   0.792  0.7076 -0.6075 -0.5948
  394MOL0     H51995   5.514   8.794   0.920 -0.2786  0.6486  1.3358
  394MOL0     H51996   5.860   9.163   0.759  2.0872  1.1117  0.3628
  394MOL0     H51997   6.065   9.235   0.860  0.8218  0.7568  0.9689
  394MOL0     H51998   6.235   9.350   0.997  3.3213  1.3971  1.0132
  394MOL0     H51999   6.262   9.180   1.040 -1.4460 -0.5969 -1.0576
  394MOL0     H52000   6.274   9.433   1.222 -0.2792 -0.0635  0.2459
  394MOL0     H52001   6.277   9.267   1.273 -2.7759 -0.0150 -1.9161
  394MOL0     H52002   6.485   9.380   1.082  1.6058 -1.6188 -0.8092
  394MOL0     H52003   6.485   9.220   1.176 -0.7660 -0.5080  0.5558
  394MOL0     H52004   6.645   9.355   1.278 -0.1860 -1.2298 -1.0842
  394MOL0     H52005   6.541   9.494   1.269  2.5954  0.0144 -0.5746
  394MOL0     H52006   6.416   9.280   1.624  0.7204 -5.6202 -1.6214
  394MOL0     H52007   5.879   9.218   1.246  0.8532  0.5828 -0.8832
  394MOL0     H52008   5.655   9.161   1.134  0.1757  0.4035  1.3483
  395MOL0     O52009   4.779   4.836   4.938  0.1811 -0.0633  0.3754
  395MOL0     C52010   4.841   4.942   4.947 -0.1961  0.7191 -0.2433
  395MOL0     O52011   4.785   5.063   4.969 -0.2045  0.1082  0.6927
  395MOL0     C52012   4.652   5.071   4.995 -0.4794  0.3918  0.1001
  395MOL0     C52013   4.592   5.183   4.944 -0.2545 -0.5896  0.4584
  395MOL0     C52014   4.461   5.200   4.963  0.5203 -0.0813  0.1799
  395MOL0     C52015   4.379   5.115   5.047 -0.4279 -0.0810  0.3770
  395MOL0     O52016   4.247   5.147   5.057  0.8812 -0.1719 -1.2885
  395MOL0     C52017   4.149   5.048   5.043  0.5364  0.3997 -0.5537
  395MOL0     C52018   4.014   5.093   5.107 -0.1205  0.1307  1.1105
  395MOL0     C52019   3.949   5.199   5.018 -0.3541  0.7629  0.0246
  395MOL0     C52020   3.811   5.228   5.069  0.5870 -0.8343 -0.3713
  395MOL0     C52021   3.721   5.312   4.978  0.0635 -0.5869  0.1685
  395MOL0     C52022   3.678   5.228   4.858 -0.1660 -0.1359 -0.2313
  395MOL0     C52023   3.570   5.290   4.770 -0.0352 -0.5004 -0.3371
  395MOL0     C52024   3.434   5.247   4.815  0.2729  1.3711 -0.1569
  395MOL0     N52025   3.339   5.357   4.777 -0.0561 -0.3602  0.5927
  395MOL0     C52026   3.235   5.333   4.688  0.4797  0.6238 -0.1468
  395MOL0     C52027   3.147   5.428   4.701 -0.8729  0.1137  0.1814
  395MOL0     C52028   3.017   5.430   4.632 -0.3035 -0.5501  0.3531
  395MOL0     C52029   3.026   5.554   4.543 -0.7570 -0.2173 -0.5195
  395MOL0     C52030   2.907   5.568   4.437 -0.2657  0.4698  0.1292
  395MOL0     C52031   2.783   5.655   4.483 -0.8098 -0.8529 -0.3787
  395MOL0     O52032   2.814   5.789   4.453 -0.1100  0.1096 -0.9669
  395MOL0     C52033   2.701   5.872   4.445  0.0800 -0.6296  0.4240
  395MOL0     C52034   2.714   5.986   4.370  0.2480 -0.4831  0.3434
  395MOL0     C52035   2.601   6.073   4.364 -0.8956 -0.1281  0.1632
  395MOL0     C52036   2.475   6.040   4.420 -0.4439  0.1402 -0.0301
  395MOL0     C52037   2.354   6.129   4.408  1.0261 -0.2669 -0.5966
  395MOL0     O52038   2.369   6.244   4.335  0.5807 -0.3437 -0.0742
  395MOL0     C52039   2.277   6.344   4.335 -0.2300  0.4008 -0.6398
  395MOL0     C52040   2.231   6.387   4.212  0.7831 -0.2895  0.8396
  395MOL0     C52041   2.127   6.480   4.199  0.2093 -0.0968 -0.1732
  395MOL0     C52042   2.069   6.520   4.323 -0.3547  0.4879  0.2307
  395MOL0     O52043   1.979   6.609   4.299  0.7347 -0.2936 -1.3309
  395MOL0     C52044   1.856   6.588   4.375  0.5265  0.4925  0.7144
  395MOL0     C52045   1.764   6.699   4.347 -0.2288  0.7043 -0.0512
  395MOL0     C52046   1.625   6.679   4.419  0.2363 -0.3032 -0.3138
  395MOL0     C52047   1.521   6.759   4.340  0.6604  0.0339  0.3529
  395MOL0     C52048   1.385   6.733   4.404  0.2837  0.5451  1.0189
  395MOL0     C52049   1.281   6.832   4.339 -0.1912  0.5690 -0.4628
  395MOL0     C52050   1.138   6.790   4.382  0.5816 -0.4799 -0.3141
  395MOL0     C52051   1.051   6.697   4.301  0.4058  0.2429 -0.3090
  395MOL0    Cl52052   0.929   6.628   4.408  0.3408  0.2184  0.0111
  395MOL0     C52053   2.120   6.489   4.451 -0.7283  0.5938  0.3674
  395MOL0     C52054   2.227   6.399   4.455  0.2522  0.1717 -0.3895
  395MOL0     O52055   2.252   6.105   4.477  0.2220 -0.4523 -0.7228
  395MOL0     C52056   2.466   5.914   4.497 -0.0402 -0.6110  0.3980
  395MOL0     C52057   2.579   5.827   4.504 -1.0117  0.8177 -0.1681
  395MOL0     N52058   3.211   5.518   4.788 -0.3662  0.0768 -0.1050
  395MOL0     N52059   3.324   5.479   4.830 -1.5928 -0.2504  0.6243
  395MOL0     C52060   4.446   5.015   5.116 -0.3866 -0.6014  0.4947
  395MOL0     C52061   4.585   4.994   5.095  0.0423  0.5059 -0.3608
  395MOL0     C52062   4.980   4.942   4.932 -0.6315 -0.0919  0.0471
  395MOL0     C52063   5.056   5.057   4.954  0.7108 -0.5316  0.1724
  395MOL0     C52064   5.192   5.061   4.938 -0.2370  0.7066  0.2211
  395MOL0     C52065   5.265   4.950   4.914 -0.2932  0.2003 -0.3533
  395MOL0     O52066   5.401   4.952   4.892 -0.8826  0.0103  0.0492
  395MOL0     C52067   5.483   4.994   5.006  1.3393  0.1719 -0.6123
  395MOL0     C52068   5.536   4.878   5.086 -0.7192 -0.3768 -1.0302
  395MOL0     C52069   5.667   4.908   5.161 -0.3993 -0.1115  1.4218
  395MOL0     C52070   5.777   4.941   5.054 -0.7580 -0.1044 -0.5699
  395MOL0     C52071   5.917   4.921   5.106  0.0109 -0.6912  0.4069
  395MOL0     C52072   6.025   4.899   5.160  0.0502 -0.2218 -0.7361
  395MOL0     C52073   5.194   4.826   4.894  0.0208  0.0465  0.1235
  395MOL0     C52074   5.053   4.823   4.899  0.9894 -1.0011  0.0506
  395MOL0     H52075   4.652   5.239   4.873 -0.7927  2.3078  2.1061
  395MOL0     H52076   4.407   5.283   4.919  2.0839  1.6421  1.3240
  395MOL0     H52077   4.183   4.959   5.096  0.3919 -0.7863 -2.3809
  395MOL0     H52078   4.129   5.016   4.940  1.4129 -0.2383 -0.5371
  395MOL0     H52079   4.031   5.129   5.209  0.6902  1.8528  0.4024
  395MOL0     H52080   3.950   5.005   5.119  0.0724  0.1053  2.0705
  395MOL0     H52081   3.937   5.159   4.917 -0.7630 -1.2087  0.8106
  395MOL0     H52082   3.996   5.298   5.013 -3.2549  2.1802 -1.4734
  395MOL0     H52083   3.761   5.132   5.082  0.4264 -0.9941 -1.9807
  395MOL0     H52084   3.829   5.281   5.163 -0.1956 -1.2625  0.0303
  395MOL0     H52085   3.772   5.401   4.939 -1.0853 -0.8113 -2.0526
  395MOL0     H52086   3.636   5.347   5.037  0.2385  0.0377  0.0634
  395MOL0     H52087   3.650   5.128   4.893 -0.4084  0.9457  3.0334
  395MOL0     H52088   3.765   5.220   4.792 -0.0037  1.2471 -0.2012
  395MOL0     H52089   3.579   5.397   4.787  0.4157 -0.5606 -0.2057
  395MOL0     H52090   3.591   5.265   4.666 -0.0651 -1.0468 -0.2145
  395MOL0     H52091   3.433   5.222   4.921 -0.0285  0.8206 -0.2852
  395MOL0     H52092   3.399   5.158   4.761 -0.7182  0.9945  1.0492
  395MOL0     H52093   3.218   5.234   4.646  2.0692  0.9705 -1.7086
  395MOL0     H52094   2.927   5.429   4.694  1.0552 -2.4293  2.4694
  395MOL0     H52095   2.999   5.350   4.560 -1.7132 -0.7938  0.9393
  395MOL0     H52096   3.120   5.540   4.489 -0.3660  1.7660 -0.4452
  395MOL0     H52097   3.030   5.642   4.608 -1.4473 -1.0311  0.6591
  395MOL0     H52098   2.958   5.613   4.351 -0.0347  0.8673  0.4683
  395MOL0     H52099   2.879   5.467   4.407 -2.9257  0.6127  1.8162
  395MOL0     H52100   2.774   5.636   4.590  2.3086  0.9468  0.3244
  395MOL0     H52101   2.695   5.621   4.428 -1.5240 -0.6028  0.5736
  395MOL0     H52102   2.813   5.998   4.327 -0.3357  1.6332 -0.5452
  395MOL0     H52103   2.599   6.164   4.307  3.4636 -0.3004 -0.5952
  395MOL0     H52104   2.269   6.344   4.120 -0.4713  0.0777  0.1338
  395MOL0     H52105   2.076   6.522   4.113 -2.7213 -1.5786  0.7040
  395MOL0     H52106   1.873   6.586   4.483  2.1357 -0.7463  0.4837
  395MOL0     H52107   1.807   6.495   4.345 -0.6008  2.1915 -3.5110
  395MOL0     H52108   1.755   6.711   4.239  3.6187  1.5536 -0.3842
  395MOL0     H52109   1.815   6.790   4.378  0.8813  0.1563 -0.2420
  395MOL0     H52110   1.629   6.702   4.525  0.0493  0.9823 -0.5740
  395MOL0     H52111   1.584   6.578   4.409  1.4617 -1.6799  5.3858
  395MOL0     H52112   1.550   6.864   4.329 -0.4829  0.3870  0.5437
  395MOL0     H52113   1.509   6.711   4.242  0.7043 -2.7194  1.5904
  395MOL0     H52114   1.395   6.729   4.513  3.3748 -0.5403  0.8182
  395MOL0     H52115   1.354   6.630   4.381  0.4919  0.8062 -0.5250
  395MOL0     H52116   1.308   6.850   4.235  2.8784  1.7741  0.4403
  395MOL0     H52117   1.313   6.920   4.395  0.9512 -0.0315 -0.1517
  395MOL0     H52118   1.144   6.768   4.488  0.2869  1.9485  0.2722
  395MOL0     H52119   1.090   6.887   4.372  2.6599  0.3863 -4.3441
  395MOL0     H52120   1.114   6.632   4.239  3.6895  2.8606  0.0560
  395MOL0     H52121   0.997   6.741   4.216  2.0122 -0.9365 -2.0379
  395MOL0     H52122   2.091   6.530   4.547  0.2529 -1.1670  1.4848
  395MOL0     H52123   2.275   6.375   4.549 -0.6690  0.3364  0.1370
  395MOL0     H52124   2.372   5.891   4.547 -1.2147  2.5936 -0.1252
  395MOL0     H52125   2.564   5.731   4.553  1.8617 -0.1497 -0.9480
  395MOL0     H52126   4.400   4.963   5.199 -1.6358  1.4546  1.1802
  395MOL0     H52127   4.632   4.911   5.146 -1.2233  0.4124  0.7049
  395MOL0     H52128   5.003   5.149   4.977 -1.4836 -1.6798 -0.0294
  395MOL0     H52129   5.240   5.158   4.934 -0.0011  0.5393 -2.8116
  395MOL0     H52130   5.440   5.070   5.072  1.2284 -1.9616  1.9017
  395MOL0     H52131   5.567   5.051   4.966  0.2735  4.6359  2.7520
  395MOL0     H52132   5.471   4.840   5.166 -0.3955  2.3943  0.6739
  395MOL0     H52133   5.536   4.788   5.024 -1.1071 -0.8544 -0.3503
  395MOL0     H52134   5.697   4.818   5.215  1.0215 -3.6825 -4.3542
  395MOL0     H52135   5.656   4.996   5.224 -2.3403  0.6521  0.1204
  395MOL0     H52136   5.764   4.879   4.965 -1.4369  0.0197 -0.5651
  395MOL0     H52137   5.766   5.047   5.028 -2.4678 -0.0514  0.1719
  395MOL0     H52138   6.110   4.869   5.218 -0.4938 -3.0099 -1.2102
  395MOL0     H52139   5.246   4.733   4.873 -0.2426 -0.0579 -0.0748
  395MOL0     H52140   4.993   4.734   4.879 -4.2371  2.2816 -0.8605
  396MOL0     O52141   7.956   2.965  10.263  0.2290  0.4942 -0.3466
  396MOL0     C52142   7.837   2.956  10.226 -0.7362 -0.1483 -0.0872
  396MOL0     O52143   7.794   2.954  10.097 -0.2455  0.2665  0.2069
  396MOL0     C52144   7.885   2.917   9.997  0.3184  0.8739  0.1685
  396MOL0     C52145   8.014   2.856   9.999  0.5308  1.1153 -0.5499
  396MOL0     C52146   8.096   2.847   9.883 -0.0745 -0.2819  0.1695
  396MOL0     C52147   8.054   2.901   9.760 -0.9225  0.6881  0.4180
  396MOL0     O52148   8.115   2.872   9.645  0.7392  0.7645  0.2670
  396MOL0     C52149   8.255   2.865   9.641 -0.3700  0.8440 -0.2845
  396MOL0     C52150   8.291   2.826   9.497  0.2194  0.6244  0.2020
  396MOL0     C52151   8.312   2.671   9.465  0.3266  0.4400  0.3860
  396MOL0     C52152   8.371   2.636   9.329 -0.1238 -0.1544  1.0377
  396MOL0     C52153   8.315   2.502   9.284 -0.7066  0.5014  0.0695
  396MOL0     C52154   8.333   2.483   9.136  0.3936 -0.7318 -0.3207
  396MOL0     C52155   8.306   2.347   9.069 -0.0077 -0.6255 -0.4574
  396MOL0     C52156   8.177   2.282   9.120  0.2116  0.1547 -0.8410
  396MOL0     N52157   8.064   2.345   9.079  0.7763  0.0963  0.1284
  396MOL0     C52158   8.018   2.371   8.950  0.7867 -0.1118 -0.6279
  396MOL0     C52159   7.886   2.405   8.965 -0.2040  0.1395 -0.3321
  396MOL0     C52160   7.793   2.435   8.848 -1.7415  0.1237  0.8559
  396MOL0     C52161   7.738   2.305   8.798  0.0183  0.3242  0.0502
  396MOL0     C52162   7.647   2.238   8.890 -0.1167  0.5246 -0.6357
  396MOL0     C52163   7.523   2.319   8.925 -0.1705 -0.5444 -0.9953
  396MOL0     O52164   7.419   2.231   8.972 -0.0703  1.1405  0.0056
  396MOL0     C52165   7.282   2.265   8.945 -0.2301 -0.2422 -0.1999
  396MOL0     C52166   7.189   2.167   8.919  0.3467  0.5985  0.2259
  396MOL0     C52167   7.060   2.200   8.894  0.1272  0.5409  1.1013
  396MOL0     C52168   7.011   2.326   8.920  0.1153  0.3723  0.5362
  396MOL0     C52169   6.862   2.353   8.903 -0.9552 -0.3707  1.1855
  396MOL0     O52170   6.824   2.485   8.926  0.0656 -0.7817 -0.0825
  396MOL0     C52171   6.689   2.508   8.912 -0.1635 -0.6569  0.0092
  396MOL0     C52172   6.629   2.582   9.010  0.2049  0.2342 -0.0957
  396MOL0     C52173   6.489   2.609   9.012  0.8675  1.2769  0.4244
  396MOL0     C52174   6.405   2.560   8.906 -0.4559  0.4867 -0.6565
  396MOL0     O52175   6.273   2.603   8.917  0.6971 -0.3934 -0.7820
  396MOL0     C52176   6.170   2.548   8.829  0.6101 -0.1697  0.3712
  396MOL0     C52177   6.045   2.497   8.905 -0.3495 -0.0486 -0.4662
  396MOL0     C52178   6.067   2.345   8.930 -0.6337  0.3241  0.4295
  396MOL0     C52179   5.949   2.302   9.006 -0.0738  0.5991  0.2633
  396MOL0     C52180   5.917   2.155   9.011 -0.7736 -0.1065 -0.1837
  396MOL0     C52181   5.790   2.113   9.085 -0.5705 -0.1560  0.3751
  396MOL0     C52182   5.770   1.963   9.080  0.4023  0.5645 -0.5160
  396MOL0     C52183   5.661   1.906   9.166  0.5184  0.4787 -0.2250
  396MOL0    Cl52184   5.610   1.750   9.090  0.0010  0.5257 -0.1364
  396MOL0     C52185   6.468   2.479   8.811 -0.0526 -0.3987 -0.3465
  396MOL0     C52186   6.605   2.454   8.811 -0.0145 -0.2393 -0.0718
  396MOL0     O52187   6.791   2.255   8.877  0.7652  0.9970 -0.1001
  396MOL0     C52188   7.105   2.421   8.953  0.7618 -0.5255 -0.2811
  396MOL0     C52189   7.236   2.390   8.972  0.7841 -0.2942  0.1052
  396MOL0     N52190   7.846   2.395   9.100  0.1600 -1.2898  0.3546
  396MOL0     N52191   7.953   2.364   9.164  0.4139 -0.4026 -0.1839
  396MOL0     C52192   7.931   2.954   9.756  1.0811 -0.0139  0.4216
  396MOL0     C52193   7.847   2.970   9.867 -0.2236  0.2317 -1.2414
  396MOL0     C52194   7.721   2.961  10.318  0.0178  0.1397  0.2924
  396MOL0     C52195   7.588   2.987  10.277 -0.4404  0.8932 -0.0812
  396MOL0     C52196   7.484   2.994  10.363 -0.3728 -0.3497 -0.8176
  396MOL0     C52197   7.505   2.970  10.499 -0.1721 -0.0106 -0.8840
  396MOL0     O52198   7.405   2.982  10.601 -0.6397  0.0840 -0.0394
  396MOL0     C52199   7.271   2.987  10.556  0.6023  0.0441  0.1681
  396MOL0     C52200   7.203   2.848  10.529 -0.3503 -0.6978 -0.7058
  396MOL0     C52201   7.225   2.739  10.639 -0.1732 -0.0093  0.0038
  396MOL0     C52202   7.147   2.609  10.610  0.3077 -1.2159  0.3427
  396MOL0     C52203   7.186   2.494  10.696 -0.2181 -0.1170  0.0243
  396MOL0     C52204   7.214   2.393  10.765 -0.4246 -1.1880 -0.5397
  396MOL0     C52205   7.637   2.939  10.542 -0.0041  1.1042  0.0272
  396MOL0     C52206   7.745   2.939  10.456  0.2335 -0.3006 -0.0250
  396MOL0     H52207   8.062   2.812  10.086 -0.0037  0.1331 -0.7356
  396MOL0     H52208   8.198   2.810   9.889  1.3394  3.2702 -0.0480
  396MOL0     H52209   8.298   2.800   9.718 -0.9166  3.1722  2.1183
  396MOL0     H52210   8.281   2.965   9.676 -1.4064 -0.2705  4.4600
  396MOL0     H52211   8.373   2.895   9.476 -0.6943  0.8215 -3.2684
  396MOL0     H52212   8.208   2.851   9.430  1.9178  0.1276 -2.2280
  396MOL0     H52213   8.212   2.629   9.466  0.8777 -0.9430 -0.6690
  396MOL0     H52214   8.374   2.628   9.545 -0.5653 -1.2173  0.2252
  396MOL0     H52215   8.345   2.700   9.244 -0.1559 -0.8535  0.5073
  396MOL0     H52216   8.479   2.642   9.344  0.2646  1.3398 -1.6836
  396MOL0     H52217   8.206   2.495   9.296 -0.4476  0.5896  3.0608
  396MOL0     H52218   8.355   2.416   9.338 -2.6018 -0.8056 -0.4825
  396MOL0     H52219   8.437   2.509   9.114  1.8417 -2.5946  3.3707
  396MOL0     H52220   8.279   2.562   9.084  0.7121  0.3505  0.9295
  396MOL0     H52221   8.286   2.373   8.965 -0.6004  3.6428  0.5252
  396MOL0     H52222   8.393   2.283   9.088  2.5059  2.9417  1.4376
  396MOL0     H52223   8.174   2.266   9.228 -3.3416 -2.5268 -1.1842
  396MOL0     H52224   8.175   2.182   9.077 -1.5032  0.3535 -1.2759
  396MOL0     H52225   8.076   2.358   8.858  2.9530 -4.3321  1.0676
  396MOL0     H52226   7.851   2.497   8.779  1.6547 -0.5198  2.8788
  396MOL0     H52227   7.712   2.500   8.882 -1.5926  0.9521 -0.3193
  396MOL0     H52228   7.818   2.230   8.787 -0.0351  0.0803  1.2219
  396MOL0     H52229   7.697   2.317   8.697  0.8747 -1.9540 -0.6449
  396MOL0     H52230   7.612   2.144   8.846  0.8943 -0.8640  1.3650
  396MOL0     H52231   7.680   2.209   8.990 -1.6915  0.5952 -0.0656
  396MOL0     H52232   7.487   2.372   8.837 -1.7724  3.0638  1.6094
  396MOL0     H52233   7.557   2.390   9.001 -1.5864 -2.0894  1.2320
  396MOL0     H52234   7.224   2.064   8.913  1.1494  0.9529 -3.5158
  396MOL0     H52235   6.999   2.116   8.860  0.0903  1.2263 -0.6508
  396MOL0     H52236   6.695   2.621   9.087  1.9860 -1.2277 -0.8178
  396MOL0     H52237   6.451   2.684   9.081 -2.8759  0.6866 -0.8115
  396MOL0     H52238   6.206   2.478   8.753  0.4609  2.2045 -2.0545
  396MOL0     H52239   6.134   2.632   8.767 -0.9601  0.8986  2.5795
  396MOL0     H52240   5.958   2.519   8.844  0.7235  1.0295 -1.6776
  396MOL0     H52241   6.040   2.560   8.994 -0.9355 -0.4113 -0.2411
  396MOL0     H52242   6.159   2.324   8.986  1.2012 -2.8766 -3.3529
  396MOL0     H52243   6.079   2.289   8.837 -0.7853 -1.5777  1.4995
  396MOL0     H52244   5.964   2.328   9.111 -0.5948 -0.3697  0.5933
  396MOL0     H52245   5.853   2.342   8.971 -1.2192 -0.3998  2.1133
  396MOL0     H52246   5.996   2.087   9.045 -1.5452 -0.7265  0.4227
  396MOL0     H52247   5.905   2.119   8.908  2.0715 -2.1030  0.0595
  396MOL0     H52248   5.701   2.167   9.050 -0.1042 -0.1394 -0.8603
  396MOL0     H52249   5.798   2.144   9.189  2.2383 -0.6968  0.3934
  396MOL0     H52250   5.751   1.940   8.975  1.2149 -1.8009 -0.1927
  396MOL0     H52251   5.858   1.904   9.109 -1.9854 -3.4088 -0.6354
  396MOL0     H52252   5.570   1.966   9.162  0.7404  0.7454 -2.2171
  396MOL0     H52253   5.680   1.890   9.273 -1.5777 -1.0431 -0.0227
  396MOL0     H52254   6.404   2.438   8.733 -2.3504 -1.9572  2.1451
  396MOL0     H52255   6.653   2.389   8.739 -0.5267 -2.1816  1.2493
  396MOL0     H52256   7.088   2.527   8.972  1.4832 -0.3836 -0.3684
  396MOL0     H52257   7.307   2.471   8.985  0.9401 -0.5161  0.6621
  396MOL0     H52258   7.892   2.975   9.657 -2.4499 -4.3437  0.5409
  396MOL0     H52259   7.752   3.019   9.851  0.9081  2.4532 -1.6565
  396MOL0     H52260   7.565   3.012  10.174 -0.0217  0.6235 -0.2425
  396MOL0     H52261   7.392   3.040  10.330  0.2118  0.5245 -1.2809
  396MOL0     H52262   7.245   3.063  10.483 -0.8594 -0.3662  0.2372
  396MOL0     H52263   7.200   3.018  10.632 -1.8704 -2.1325 -1.0755
  396MOL0     H52264   7.095   2.869  10.532 -0.7138 -2.4465  1.7088
  396MOL0     H52265   7.241   2.800  10.439 -0.0504 -0.8476 -0.4990
  396MOL0     H52266   7.189   2.772  10.737 -1.1953  1.1562 -0.7358
  396MOL0     H52267   7.329   2.704  10.641  0.2060  1.0680 -0.2891
  396MOL0     H52268   7.041   2.626  10.630  0.1547  3.3727 -2.8278
  396MOL0     H52269   7.145   2.581  10.505  1.3425 -0.3427  0.0780
  396MOL0     H52270   7.252   2.319  10.833  2.7821  0.4001 -0.4186
  396MOL0     H52271   7.660   2.920  10.646  0.3075 -1.6718 -0.4857
  396MOL0     H52272   7.842   2.924  10.502  2.3382  4.3661 -2.3059
  397MOL0     O52273   0.182   0.193  10.711 -0.0179  0.0893 -0.2571
  397MOL0     C52274   0.200   0.088  10.778  1.2025  0.2905  0.3147
  397MOL0     O52275   0.131   0.051  10.886 -0.2770  0.1639  0.5924
  397MOL0     C52276   0.017   0.119  10.936 -0.5802 -0.0329  0.0005
  397MOL0     C52277  -0.011   0.088  11.065 -0.2594 -0.4014 -0.5155
  397MOL0     C52278  -0.097   0.170  11.134 -0.9576  0.4676 -0.0900
  397MOL0     C52279  -0.158   0.287  11.092  0.2274  0.0478 -0.3167
  397MOL0     O52280  -0.245   0.345  11.177  0.4635 -0.2353  0.5545
  397MOL0     C52281  -0.338   0.446  11.127  0.5206 -0.4025 -0.0707
  397MOL0     C52282  -0.307   0.596  11.134  0.1241  0.4536 -0.1227
  397MOL0     C52283  -0.272   0.634  11.275  0.9632  0.0617  1.0540
  397MOL0     C52284  -0.394   0.613  11.360 -0.5671 -0.0328  0.2043
  397MOL0     C52285  -0.382   0.679  11.503  0.8060  0.4742 -0.5323
  397MOL0     C52286  -0.274   0.635  11.601 -0.0771 -0.7211 -0.3960
  397MOL0     C52287  -0.259   0.489  11.632  0.2606 -0.4508 -0.2942
  397MOL0     C52288  -0.391   0.424  11.679 -0.1819  0.0144 -0.3730
  397MOL0     N52289  -0.375   0.274  11.709  0.1281  0.5656 -0.0914
  397MOL0     C52290  -0.469   0.199  11.770  0.2768 -0.5632 -0.4957
  397MOL0     C52291  -0.411   0.085  11.786  0.3022  0.5078  0.0321
  397MOL0     C52292  -0.488  -0.037  11.839 -0.0132  0.3945 -0.4087
  397MOL0     C52293  -0.478  -0.051  11.991 -0.1639  0.0049 -0.4643
  397MOL0     C52294  -0.555   0.061  12.062 -0.3590 -0.0236 -1.0242
  397MOL0     C52295  -0.701   0.034  12.066  0.9998 -0.6553  0.7023
  397MOL0     O52296  -0.755   0.080  11.941  0.1876 -0.1792 -0.0637
  397MOL0     C52297  -0.884   0.126  11.933  0.6861 -0.1383 -1.0637
  397MOL0     C52298  -0.946   0.197  12.046 -0.4782  0.4917 -0.3391
  397MOL0     C52299  -1.077   0.220  12.044 -0.8083  0.4507  0.5109
  397MOL0     C52300  -1.159   0.167  11.935 -0.5414 -0.7927  0.3075
  397MOL0     C52301  -1.303   0.171  11.940 -0.1431 -0.5294  0.6251
  397MOL0     O52302  -1.358   0.075  11.861 -0.5274  0.1643  0.1879
  397MOL0     C52303  -1.488   0.079  11.818  0.1946  0.4287 -0.3230
  397MOL0     C52304  -1.534  -0.044  11.768  0.3535  0.8770  0.2362
  397MOL0     C52305  -1.661  -0.056  11.712 -0.4344 -0.7484  0.4328
  397MOL0     C52306  -1.753   0.050  11.719 -0.3676  0.3871 -0.1968
  397MOL0     O52307  -1.874   0.022  11.664 -0.2133 -0.3390  0.1590
  397MOL0     C52308  -1.963   0.128  11.626  0.0058 -0.6392 -0.3854
  397MOL0     C52309  -2.074   0.107  11.511  0.5406  0.1976 -0.3441
  397MOL0     C52310  -2.186   0.011  11.560  0.1428 -0.5558  0.5574
  397MOL0     C52311  -2.291  -0.027  11.452 -0.1390  0.0022  0.1286
  397MOL0     C52312  -2.238  -0.097  11.323  0.0368 -0.4462  0.1306
  397MOL0     C52313  -2.370  -0.146  11.259  1.2568 -0.0798  0.9372
  397MOL0     C52314  -2.329  -0.232  11.144 -0.8710 -0.3156  0.1679
  397MOL0     C52315  -2.446  -0.315  11.091 -0.2584  0.3415 -0.9823
  397MOL0    Cl52316  -2.393  -0.422  10.954  0.2298  0.0049  0.0987
  397MOL0     C52317  -1.708   0.165  11.781 -0.0641  0.0618 -0.2585
  397MOL0     C52318  -1.572   0.188  11.815  0.8965  0.0585 -0.6546
  397MOL0     O52319  -1.362   0.261  11.995 -0.3686  0.4925 -0.3772
  397MOL0     C52320  -1.096   0.104  11.829 -0.6505  0.4927 -0.2706
  397MOL0     C52321  -0.961   0.091  11.822  0.0897  0.9589  0.1329
  397MOL0     N52322  -0.290   0.083  11.715  0.1775 -0.2141  0.0092
  397MOL0     N52323  -0.269   0.199  11.664  0.4044  0.4899  0.3204
  397MOL0     C52324  -0.128   0.313  10.957  0.1352 -0.7010 -0.2634
  397MOL0     C52325  -0.054   0.221  10.877  0.3895 -0.5590 -0.1983
  397MOL0     C52326   0.306  -0.001  10.735 -0.6444 -0.5239 -0.6093
  397MOL0     C52327   0.314  -0.129  10.785 -0.0308  0.1741  0.0768
  397MOL0     C52328   0.427  -0.206  10.747 -0.8604  0.3513  0.5406
  397MOL0     C52329   0.529  -0.162  10.663 -0.1788  0.3044  0.0268
  397MOL0     O52330   0.632  -0.241  10.628 -0.0997  0.0704  1.0659
  397MOL0     C52331   0.702  -0.217  10.505 -0.2656  0.4911 -0.4125
  397MOL0     C52332   0.778  -0.353  10.477 -1.5463  0.5093  0.1660
  397MOL0     C52333   0.901  -0.355  10.555  0.0148  0.7929 -0.8326
  397MOL0     C52334   0.985  -0.472  10.510 -1.0353 -0.1302 -0.2075
  397MOL0     C52335   1.126  -0.476  10.561 -0.2053 -0.6517 -0.2898
  397MOL0     C52336   1.249  -0.470  10.599  0.0884  0.5955  0.6565
  397MOL0     C52337   0.514  -0.029  10.619  0.0872 -0.3908 -0.7492
  397MOL0     C52338   0.398   0.040  10.642 -0.9087 -0.4280  0.0597
  397MOL0     H52339   0.034  -0.002  11.106  1.3764 -0.2256 -1.8172
  397MOL0     H52340  -0.113   0.140  11.237  0.0424  1.0041  0.2384
  397MOL0     H52341  -0.425   0.426  11.189  1.4470 -1.8598  0.8210
  397MOL0     H52342  -0.357   0.428  11.021  1.4636  0.3134 -0.3827
  397MOL0     H52343  -0.394   0.650  11.093 -0.0588  1.9000  2.0195
  397MOL0     H52344  -0.229   0.618  11.061 -0.2454  0.0842 -0.6376
  397MOL0     H52345  -0.236   0.737  11.284 -1.5748  0.8212  4.5879
  397MOL0     H52346  -0.191   0.577  11.322 -0.2268 -0.7777  2.1506
  397MOL0     H52347  -0.485   0.649  11.312 -0.2306  3.7770  1.9976
  397MOL0     H52348  -0.400   0.507  11.387 -2.9259 -0.1049 -0.3621
  397MOL0     H52349  -0.478   0.673  11.554  1.4128  0.7381  0.6707
  397MOL0     H52350  -0.379   0.788  11.494  0.6202  0.5075 -0.1832
  397MOL0     H52351  -0.283   0.690  11.695  0.2815 -2.4366  0.6866
  397MOL0     H52352  -0.176   0.669  11.568  0.4210  2.3613  3.4765
  397MOL0     H52353  -0.231   0.453  11.532  0.2687 -0.7231 -0.1952
  397MOL0     H52354  -0.178   0.471  11.703  0.8033 -1.4164 -1.1340
  397MOL0     H52355  -0.469   0.447  11.606 -0.1594  3.3060  0.4748
  397MOL0     H52356  -0.428   0.468  11.772  1.0560  1.4897 -0.5336
  397MOL0     H52357  -0.574   0.221  11.785  0.5484  0.3481  0.1270
  397MOL0     H52358  -0.445  -0.124  11.789  0.0336  0.7385 -0.9781
  397MOL0     H52359  -0.591  -0.037  11.801 -0.8472 -1.3909  1.6607
  397MOL0     H52360  -0.371  -0.039  12.009  0.0472 -3.2975  1.3401
  397MOL0     H52361  -0.512  -0.144  12.036 -0.7474 -0.8157 -2.4722
  397MOL0     H52362  -0.519   0.067  12.165  2.4584  0.4477 -1.9463
  397MOL0     H52363  -0.524   0.160  12.026  0.0893  0.1656 -0.1380
  397MOL0     H52364  -0.744   0.079  12.156 -1.4862  0.2095 -0.8214
  397MOL0     H52365  -0.738  -0.070  12.068 -5.2805  1.1544  1.7628
  397MOL0     H52366  -0.891   0.235  12.132  0.6890  0.3132 -0.9893
  397MOL0     H52367  -1.127   0.258  12.132 -0.6586 -0.7545  1.1395
  397MOL0     H52368  -1.469  -0.130  11.780 -1.4338 -0.9301 -2.1546
  397MOL0     H52369  -1.696  -0.154  11.681  0.3843 -1.7914  2.6000
  397MOL0     H52370  -1.902   0.210  11.588 -0.7408 -0.2344 -0.7055
  397MOL0     H52371  -2.017   0.151  11.718 -1.7776 -2.6368 -0.8481
  397MOL0     H52372  -2.041   0.069  11.414 -3.1659 -1.0207 -1.3069
  397MOL0     H52373  -2.122   0.203  11.486 -1.4725 -1.3391 -2.8639
  397MOL0     H52374  -2.241   0.050  11.647  0.2092 -3.4281  2.0147
  397MOL0     H52375  -2.127  -0.068  11.608  2.5155  0.7823 -0.0225
  397MOL0     H52376  -2.354  -0.109  11.488 -4.3340  2.2092 -1.4578
  397MOL0     H52377  -2.356   0.057  11.424  0.4484  0.2413 -0.5365
  397MOL0     H52378  -2.172  -0.178  11.355 -1.2815 -0.0949  4.4317
  397MOL0     H52379  -2.178  -0.031  11.259 -1.3599 -1.0174 -1.8683
  397MOL0     H52380  -2.428  -0.061  11.221  3.7718  1.5219  0.4571
  397MOL0     H52381  -2.429  -0.213  11.322  1.3358 -0.6148  0.4437
  397MOL0     H52382  -2.300  -0.154  11.073  0.0995  2.8067  3.6665
  397MOL0     H52383  -2.249  -0.302  11.168 -0.4952  0.4460  1.2169
  397MOL0     H52384  -2.516  -0.241  11.052 -2.4053 -1.2199 -0.2897
  397MOL0     H52385  -2.493  -0.382  11.164  1.2974  2.0325  1.7614
  397MOL0     H52386  -1.784   0.242  11.791 -1.4370 -1.2222 -0.2926
  397MOL0     H52387  -1.536   0.289  11.833  0.9416  0.1952 -1.4796
  397MOL0     H52388  -1.153   0.076  11.741 -0.3665  0.1847 -0.3584
  397MOL0     H52389  -0.917   0.043  11.735 -3.2490  0.9726 -1.7293
  397MOL0     H52390  -0.156   0.408  10.912 -0.1440  0.8188  2.8577
  397MOL0     H52391  -0.029   0.253  10.776  2.8170  0.5862  0.6885
  397MOL0     H52392   0.255  -0.175  10.863  0.1379 -0.0429  0.0782
  397MOL0     H52393   0.448  -0.301  10.796 -0.8067  0.6497  1.0939
  397MOL0     H52394   0.767  -0.130  10.511 -2.6766  2.3252  0.9155
  397MOL0     H52395   0.640  -0.191  10.419 -0.3546 -0.0450 -0.5143
  397MOL0     H52396   0.719  -0.442  10.502  0.9199 -0.7213  1.9931
  397MOL0     H52397   0.796  -0.354  10.369 -1.3561  1.1817  0.1904
  397MOL0     H52398   0.869  -0.371  10.659  2.9873 -0.0347  0.0441
  397MOL0     H52399   0.946  -0.257  10.535 -1.1617  1.1828 -1.7090
  397MOL0     H52400   0.950  -0.568  10.549 -1.5712  0.1620  0.0460
  397MOL0     H52401   0.991  -0.480  10.401 -1.6237  1.1416 -0.3505
  397MOL0     H52402   1.352  -0.457  10.626  0.9600 -4.1661  0.4405
  397MOL0     H52403   0.588   0.017  10.555 -0.2471  0.7585 -0.3268
  397MOL0     H52404   0.393   0.132  10.585 -2.6093 -1.6924 -1.9662
  398MOL0     O52405   0.148   1.279   4.884  0.5858  0.5523 -0.1323
  398MOL0     C52406   0.076   1.263   4.990 -0.5932  0.3703  0.4872
  398MOL0     O52407   0.004   1.365   5.046 -0.8930  0.0489  0.6615
  398MOL0     C52408  -0.012   1.489   4.988 -0.3536 -0.2532 -1.6807
  398MOL0     C52409   0.085   1.573   4.926 -1.2463  0.6420  0.4246
  398MOL0     C52410   0.047   1.692   4.877  0.1699 -0.4506  0.9339
  398MOL0     C52411  -0.079   1.742   4.881 -0.4037 -0.4624  0.1526
  398MOL0     O52412  -0.097   1.870   4.833  0.0765  0.3011 -0.0492
  398MOL0     C52413  -0.223   1.931   4.835  0.6641 -0.1483 -0.2210
  398MOL0     C52414  -0.198   2.086   4.853 -0.3432 -0.6258  0.7922
  398MOL0     C52415  -0.129   2.124   4.985 -0.0707  0.6296  0.0872
  398MOL0     C52416  -0.162   2.273   5.008  0.3542 -1.5478  0.5142
  398MOL0     C52417  -0.094   2.350   5.125 -0.5213  0.0170  0.4408
  398MOL0     C52418   0.042   2.403   5.077  0.3254  0.8229  0.4141
  398MOL0     C52419   0.105   2.490   5.187  0.2415 -0.2049 -0.4576
  398MOL0     C52420   0.113   2.632   5.135  0.5957  0.7031 -0.1828
  398MOL0     N52421  -0.017   2.689   5.117  0.6794  0.2858 -0.0429
  398MOL0     C52422  -0.091   2.767   5.204 -0.8337  0.0023 -0.3996
  398MOL0     C52423  -0.174   2.838   5.125 -0.8371  0.4064  0.2152
  398MOL0     C52424  -0.246   2.955   5.169  0.9953  0.0807  0.3008
  398MOL0     C52425  -0.332   2.951   5.300  0.1121 -0.1264  0.3058
  398MOL0     C52426  -0.456   2.855   5.263  0.6400  0.0999 -0.6209
  398MOL0     C52427  -0.568   2.858   5.376  0.3025  0.0259  0.3950
  398MOL0     O52428  -0.655   2.749   5.358  0.6368 -0.7850 -0.0361
  398MOL0     C52429  -0.772   2.753   5.428 -0.3011 -0.5665 -0.0283
  398MOL0     C52430  -0.851   2.643   5.407 -0.0729 -0.1831 -0.2676
  398MOL0     C52431  -0.971   2.623   5.472  0.3144 -0.3177  0.3876
  398MOL0     C52432  -1.024   2.723   5.560  0.6399  0.0461  0.3519
  398MOL0     C52433  -1.161   2.719   5.611 -0.3025  0.0425 -0.1818
  398MOL0     O52434  -1.234   2.617   5.552  0.3228 -0.3689  0.5336
  398MOL0     C52435  -1.358   2.600   5.616 -0.5917  0.1148 -0.4449
  398MOL0     C52436  -1.473   2.599   5.543 -0.3424 -0.1749 -0.5290
  398MOL0     C52437  -1.605   2.581   5.604  0.2585  0.1621 -0.8753
  398MOL0     C52438  -1.614   2.568   5.745  0.7350 -0.4124  0.8746
  398MOL0     O52439  -1.730   2.576   5.812 -0.5755 -0.1982 -0.8375
  398MOL0     C52440  -1.857   2.566   5.737 -0.4338  0.2258  0.5964
  398MOL0     C52441  -1.959   2.495   5.819 -0.1852  0.6522  0.3600
  398MOL0     C52442  -2.030   2.594   5.909  0.0972  0.7376 -0.5153
  398MOL0     C52443  -2.115   2.521   6.018  0.2992 -0.1468  0.0773
  398MOL0     C52444  -2.263   2.530   5.969 -1.0112 -0.4308 -0.5621
  398MOL0     C52445  -2.361   2.467   6.072 -0.1778 -0.0481 -0.2741
  398MOL0     C52446  -2.378   2.308   6.071 -0.5078  0.2884  0.3536
  398MOL0     C52447  -2.482   2.250   6.169 -0.7658  0.3720 -0.4312
  398MOL0    Cl52448  -2.471   2.307   6.344 -0.0700  0.3475  0.2276
  398MOL0     C52449  -1.499   2.548   5.823  0.0502 -0.4819  0.5547
  398MOL0     C52450  -1.373   2.569   5.752  0.6503  0.5969  0.4429
  398MOL0     O52451  -1.206   2.809   5.676 -0.3083  0.2300 -1.1298
  398MOL0     C52452  -0.944   2.832   5.590  0.4316 -0.8796 -0.1902
  398MOL0     C52453  -0.816   2.842   5.532 -0.1483  0.6720 -0.4870
  398MOL0     N52454  -0.160   2.791   4.996  0.6924  0.3925  0.0907
  398MOL0     N52455  -0.063   2.707   4.990  0.7538  0.2339 -0.8258
  398MOL0     C52456  -0.171   1.655   4.934  0.9120  0.6719 -0.9537
  398MOL0     C52457  -0.138   1.531   4.989  1.0299  0.1398  0.5962
  398MOL0     C52458   0.050   1.124   5.029 -0.2072 -0.9073  0.7712
  398MOL0     C52459   0.146   1.027   4.997 -0.2372 -0.4123  0.0965
  398MOL0     C52460   0.109   0.893   5.033 -0.6688 -0.8638 -0.0234
  398MOL0     C52461  -0.003   0.868   5.109 -0.3064 -1.0667  0.1028
  398MOL0     O52462  -0.042   0.746   5.153 -0.2456 -0.5120 -0.2228
  398MOL0     C52463   0.059   0.629   5.153 -0.7918 -0.5583  0.8830
  398MOL0     C52464   0.171   0.647   5.271  0.4348  1.2932  0.2274
  398MOL0     C52465   0.290   0.556   5.251  1.1054  0.3122 -0.9569
  398MOL0     C52466   0.416   0.558   5.339 -0.0122 -0.0086  0.5400
  398MOL0     C52467   0.459   0.699   5.356 -0.0180  1.2673 -0.2863
  398MOL0     C52468   0.513   0.805   5.373 -0.0344 -0.1348 -0.0220
  398MOL0     C52469  -0.086   0.972   5.153  0.8434  1.0745 -0.2182
  398MOL0     C52470  -0.057   1.095   5.112  0.4763 -0.2027 -0.6051
  398MOL0     H52471   0.189   1.542   4.931 -1.3598 -0.2425 -1.6204
  398MOL0     H52472   0.125   1.763   4.851 -1.6284  1.3887  0.3181
  398MOL0     H52473  -0.285   1.898   4.919  2.0543 -2.2505  0.0567
  398MOL0     H52474  -0.283   1.925   4.744 -0.8424  3.5686  0.3561
  398MOL0     H52475  -0.299   2.127   4.842 -0.1233 -0.7078 -3.8404
  398MOL0     H52476  -0.140   2.116   4.765 -0.5892 -1.0985  0.4623
  398MOL0     H52477  -0.022   2.119   4.963  0.1934 -0.0629  1.4148
  398MOL0     H52478  -0.157   2.056   5.066 -0.7983  0.4079 -0.3430
  398MOL0     H52479  -0.134   2.320   4.913  3.5536  0.7927  2.4086
  398MOL0     H52480  -0.271   2.281   5.005  0.5056  1.9356 -0.5459
  398MOL0     H52481  -0.074   2.269   5.196  0.9704 -3.8524 -3.9123
  398MOL0     H52482  -0.155   2.432   5.164 -1.2670  0.3800 -1.3863
  398MOL0     H52483   0.039   2.461   4.985  4.0872 -0.5797 -0.7786
  398MOL0     H52484   0.101   2.310   5.067 -1.6937 -0.7680  2.2553
  398MOL0     H52485   0.062   2.475   5.287  3.3604 -0.1573  1.0252
  398MOL0     H52486   0.209   2.458   5.206  0.3738  0.6964  0.4098
  398MOL0     H52487   0.168   2.635   5.041  2.5761 -0.4310  0.8723
  398MOL0     H52488   0.165   2.692   5.210  1.7524  0.7483 -1.0032
  398MOL0     H52489  -0.074   2.771   5.311 -3.2240 -0.5843  0.0699
  398MOL0     H52490  -0.307   2.991   5.085  3.8344 -0.0090 -1.9626
  398MOL0     H52491  -0.167   3.026   5.189  0.2269  1.8390 -2.3670
  398MOL0     H52492  -0.366   3.052   5.324  1.3441 -0.1806  2.5131
  398MOL0     H52493  -0.272   2.910   5.381  2.5337  2.4658 -0.0451
  398MOL0     H52494  -0.510   2.887   5.173 -1.7270  1.6147  1.2036
  398MOL0     H52495  -0.430   2.751   5.242 -2.1374 -0.4757 -1.6735
  398MOL0     H52496  -0.624   2.952   5.384  0.2126 -0.0141  0.2166
  398MOL0     H52497  -0.515   2.830   5.468  1.1135 -3.0898 -0.9063
  398MOL0     H52498  -0.808   2.570   5.339  2.3797  1.7299 -0.9214
  398MOL0     H52499  -1.034   2.541   5.440  3.4767 -3.8024  2.3059
  398MOL0     H52500  -1.463   2.620   5.437 -0.3736 -1.6639 -0.8498
  398MOL0     H52501  -1.692   2.586   5.539 -0.6716  2.0490  0.4249
  398MOL0     H52502  -1.839   2.514   5.642  0.8292  1.5776  0.0587
  398MOL0     H52503  -1.900   2.658   5.698 -1.2455 -0.8738 -1.2455
  398MOL0     H52504  -1.912   2.413   5.875 -2.0878 -0.6916  0.1320
  398MOL0     H52505  -2.042   2.444   5.769  0.2314  0.4438 -0.1197
  398MOL0     H52506  -2.095   2.653   5.845  0.8615  0.6061 -1.4356
  398MOL0     H52507  -1.957   2.649   5.969  0.9211 -1.0316  0.1764
  398MOL0     H52508  -2.084   2.418   6.040  3.6487  0.7688  0.2777
  398MOL0     H52509  -2.112   2.577   6.111 -1.9617 -0.6606  0.5037
  398MOL0     H52510  -2.274   2.474   5.875 -0.9838 -0.6111 -0.4581
  398MOL0     H52511  -2.286   2.635   5.948 -2.4001 -1.0616 -2.5818
  398MOL0     H52512  -2.461   2.506   6.051  0.3258  2.5533  1.5983
  398MOL0     H52513  -2.337   2.496   6.174 -2.4372 -1.9537  0.8968
  398MOL0     H52514  -2.399   2.269   5.971 -0.2567 -0.6165  0.6439
  398MOL0     H52515  -2.284   2.265   6.106 -0.5423 -0.2186 -0.1620
  398MOL0     H52516  -2.466   2.142   6.175  3.7427  0.8980  0.5668
  398MOL0     H52517  -2.584   2.274   6.137 -1.2373 -2.1437 -1.0086
  398MOL0     H52518  -1.516   2.524   5.927 -1.8502  1.2191  0.6999
  398MOL0     H52519  -1.289   2.567   5.821  1.8224 -2.1814 -0.8977
  398MOL0     H52520  -0.975   2.921   5.644  1.3417 -0.6260 -0.0636
  398MOL0     H52521  -0.772   2.933   5.570  1.7132 -0.4811  0.2904
  398MOL0     H52522  -0.275   1.682   4.950  0.6231  0.1305 -1.8242
  398MOL0     H52523  -0.212   1.472   5.044 -0.2789  1.4476  0.3011
  398MOL0     H52524   0.236   1.046   4.939 -0.2130  1.5512  0.7153
  398MOL0     H52525   0.180   0.816   5.002 -0.3504 -0.5738 -0.0121
  398MOL0     H52526   0.109   0.627   5.055 -0.6730  0.3959  0.9176
  398MOL0     H52527   0.004   0.534   5.157 -2.0591  0.0763 -0.4856
  398MOL0     H52528   0.205   0.751   5.265 -3.9450  2.9253  0.6098
  398MOL0     H52529   0.145   0.622   5.374  1.1173 -0.5347 -0.0104
  398MOL0     H52530   0.322   0.556   5.147  0.6109 -1.3509 -1.1420
  398MOL0     H52531   0.256   0.455   5.276  0.0306  1.2680  1.9946
  398MOL0     H52532   0.393   0.516   5.438 -1.9901  0.7613  0.4694
  398MOL0     H52533   0.500   0.501   5.300  0.4364  1.2906 -0.4435
  398MOL0     H52534   0.558   0.900   5.393 -0.2564 -0.2924  1.3514
  398MOL0     H52535  -0.181   0.953   5.202  0.1478  0.2889 -1.8030
  398MOL0     H52536  -0.126   1.175   5.139 -0.1482 -1.5453  2.1211
  399MOL0     O52537   2.811   3.224   5.528  0.0586  0.3908 -1.0828
  399MOL0     C52538   2.814   3.339   5.490  0.4336 -0.6598  0.8686
  399MOL0     O52539   2.720   3.400   5.418 -0.0377 -0.4438  0.6552
  399MOL0     C52540   2.619   3.323   5.374 -0.1422  0.1204 -0.3742
  399MOL0     C52541   2.631   3.258   5.255 -0.4343  0.0907  0.6726
  399MOL0     C52542   2.522   3.199   5.191 -0.8780  0.2761 -0.4813
  399MOL0     C52543   2.393   3.205   5.248  0.4135  0.9932 -0.2627
  399MOL0     O52544   2.282   3.139   5.196  0.4849  0.1689  0.7994
  399MOL0     C52545   2.287   3.001   5.160  0.8067  0.7794  0.5292
  399MOL0     C52546   2.291   2.906   5.284  0.2846 -0.4961  0.5593
  399MOL0     C52547   2.155   2.896   5.369 -0.0225  0.4018 -0.7460
  399MOL0     C52548   2.062   2.787   5.299 -0.7054  0.1033 -0.3886
  399MOL0     C52549   1.925   2.767   5.368 -0.1227  0.9802  0.1644
  399MOL0     C52550   1.823   2.866   5.341  0.1767  0.0830  1.1518
  399MOL0     C52551   1.776   2.876   5.191  1.3707  0.6087  0.1042
  399MOL0     C52552   1.626   2.913   5.181  0.4852  0.3399  0.2742
  399MOL0     N52553   1.597   3.052   5.219 -0.2341 -0.2407 -0.2352
  399MOL0     C52554   1.644   3.160   5.154 -0.3195  0.8255 -0.9872
  399MOL0     C52555   1.618   3.266   5.230  0.2534  0.3360  0.3375
  399MOL0     C52556   1.651   3.410   5.207 -0.2564  0.0099 -0.9057
  399MOL0     C52557   1.738   3.491   5.304 -1.3003  0.6482  0.6221
  399MOL0     C52558   1.690   3.489   5.448  0.4073 -0.1481 -0.7611
  399MOL0     C52559   1.763   3.590   5.534 -0.6697 -0.4394 -0.2637
  399MOL0     O52560   1.902   3.569   5.505  0.1786 -0.3092 -0.7543
  399MOL0     C52561   2.011   3.617   5.572  0.3451 -0.3048 -0.0402
  399MOL0     C52562   1.997   3.705   5.684 -0.5205 -0.6725  0.3295
  399MOL0     C52563   2.121   3.759   5.736 -0.4650 -0.2162 -0.2912
  399MOL0     C52564   2.242   3.720   5.691  0.7230  0.4278  0.0068
  399MOL0     C52565   2.367   3.782   5.745  0.6402  0.2880  0.1555
  399MOL0     O52566   2.485   3.712   5.709 -0.7437 -0.7719 -0.8605
  399MOL0     C52567   2.606   3.780   5.729  0.0813  0.0577  0.2897
  399MOL0     C52568   2.684   3.792   5.845 -0.3199 -0.2055  0.7274
  399MOL0     C52569   2.815   3.841   5.838 -0.0356 -0.4587  0.4822
  399MOL0     C52570   2.863   3.904   5.721  0.3729  0.5114 -0.5779
  399MOL0     O52571   2.989   3.957   5.709 -0.0868  0.0197  0.4482
  399MOL0     C52572   3.062   3.993   5.825  0.5483 -0.9086 -0.3374
  399MOL0     C52573   3.161   4.109   5.799  0.7580 -0.3398 -1.1014
  399MOL0     C52574   3.284   4.113   5.891 -0.4271  0.8704 -0.1704
  399MOL0     C52575   3.357   4.248   5.879  0.0456 -0.4870  1.4205
  399MOL0     C52576   3.299   4.363   5.964  0.5268  0.9156 -0.3822
  399MOL0     C52577   3.309   4.505   5.899 -0.4818  0.0469  0.4290
  399MOL0     C52578   3.281   4.613   6.000  0.8077  0.8033  0.1929
  399MOL0     C52579   3.272   4.744   5.926  0.3807 -0.4136 -0.3584
  399MOL0    Cl52580   3.432   4.793   5.847  0.1680  0.2337  0.6702
  399MOL0     C52581   2.789   3.890   5.601  0.2223 -0.6590  0.2466
  399MOL0     C52582   2.663   3.819   5.605  0.6072 -1.2211  0.2644
  399MOL0     O52583   2.361   3.888   5.814 -0.3205 -0.1533  0.0163
  399MOL0     C52584   2.253   3.635   5.585  0.4191  0.0878  0.3282
  399MOL0     C52585   2.136   3.581   5.523 -0.0527  0.4252 -0.0461
  399MOL0     N52586   1.549   3.218   5.342 -0.2367  0.2386  0.6285
  399MOL0     N52587   1.532   3.087   5.338  0.5224  0.0656  0.3773
  399MOL0     C52588   2.384   3.276   5.366 -0.3679 -0.6045  0.3770
  399MOL0     C52589   2.497   3.336   5.426  0.1843  0.4095  0.7965
  399MOL0     C52590   2.932   3.421   5.532 -0.8903  0.7297  0.7400
  399MOL0     C52591   3.041   3.366   5.594  0.6778  0.7406  0.9198
  399MOL0     C52592   3.151   3.434   5.647 -0.6432 -0.6317  0.6867
  399MOL0     C52593   3.172   3.567   5.609 -0.1851 -0.6556  0.2463
  399MOL0     O52594   3.288   3.632   5.657  0.4448  0.7219 -0.3954
  399MOL0     C52595   3.300   3.782   5.665  0.4502  0.2186 -0.5226
  399MOL0     C52596   3.437   3.844   5.638 -0.0639  0.2646  0.8712
  399MOL0     C52597   3.533   3.809   5.744 -0.4224 -0.2462 -0.0550
  399MOL0     C52598   3.677   3.866   5.720  0.3672 -0.8525  0.7597
  399MOL0     C52599   3.680   4.006   5.743 -0.0897 -0.3551 -0.2169
  399MOL0     C52600   3.694   4.128   5.765 -0.4796  0.2424  0.1111
  399MOL0     C52601   3.061   3.623   5.538  0.3712 -0.5860 -1.1519
  399MOL0     C52602   2.949   3.560   5.499  0.5647  0.8251  0.9636
  399MOL0     H52603   2.724   3.282   5.205 -1.5001  2.1639 -0.4722
  399MOL0     H52604   2.545   3.156   5.095  0.5281 -3.2825  1.2558
  399MOL0     H52605   2.373   2.978   5.097 -0.0712  0.9429 -0.7579
  399MOL0     H52606   2.205   2.976   5.092  0.7211  0.3039  0.8066
  399MOL0     H52607   2.367   2.955   5.345  2.3561 -1.6588 -0.9358
  399MOL0     H52608   2.325   2.805   5.257  0.6041 -0.5521  1.1532
  399MOL0     H52609   2.120   2.999   5.377  0.4735  0.6439 -1.6321
  399MOL0     H52610   2.165   2.851   5.469  2.5095 -0.6007 -1.3774
  399MOL0     H52611   2.071   2.805   5.192  0.2971 -2.0138 -0.7121
  399MOL0     H52612   2.125   2.699   5.312  2.1581  1.8640 -1.2940
  399MOL0     H52613   1.937   2.764   5.477 -2.7451 -0.0805  0.4894
  399MOL0     H52614   1.896   2.666   5.337  1.1581  0.0504  1.7947
  399MOL0     H52615   1.866   2.961   5.374  0.1397  0.4828  0.1045
  399MOL0     H52616   1.740   2.859   5.411 -0.8995 -1.8300 -0.2113
  399MOL0     H52617   1.834   2.957   5.147  0.4491  1.4022  0.3059
  399MOL0     H52618   1.798   2.782   5.140  2.0898 -1.2479  3.5320
  399MOL0     H52619   1.570   2.836   5.236  0.3839 -1.8472 -2.6524
  399MOL0     H52620   1.600   2.899   5.076  1.9090 -2.0380  0.1620
  399MOL0     H52621   1.712   3.161   5.070 -0.7338  0.7992 -1.3251
  399MOL0     H52622   1.549   3.449   5.220  0.4871  1.4701  1.0155
  399MOL0     H52623   1.680   3.415   5.102 -1.2498 -0.0406 -1.1971
  399MOL0     H52624   1.730   3.589   5.256  1.0979  0.4345 -0.3155
  399MOL0     H52625   1.840   3.462   5.278 -1.3975 -0.6551  1.5357
  399MOL0     H52626   1.582   3.499   5.465  0.5730 -1.0653  1.1935
  399MOL0     H52627   1.717   3.392   5.491  1.3058  0.9892  1.4041
  399MOL0     H52628   1.728   3.565   5.634 -2.7573  3.0118  0.0051
  399MOL0     H52629   1.729   3.693   5.520 -0.3600 -0.0380  1.6786
  399MOL0     H52630   1.906   3.736   5.734 -0.2152  0.3605  0.2731
  399MOL0     H52631   2.102   3.826   5.819 -3.7566  0.4668 -1.4489
  399MOL0     H52632   2.643   3.762   5.942  1.7926 -0.3946  1.6097
  399MOL0     H52633   2.875   3.840   5.928 -1.5632  3.5034  1.7741
  399MOL0     H52634   3.117   3.905   5.859  2.4567 -0.0085 -0.9222
  399MOL0     H52635   2.996   4.028   5.905  2.4400 -0.1181  0.9502
  399MOL0     H52636   3.102   4.200   5.819 -0.3442 -1.1728 -0.4520
  399MOL0     H52637   3.208   4.102   5.701  1.8666 -2.0570 -0.4888
  399MOL0     H52638   3.342   4.024   5.865  1.3697  1.5908  1.1107
  399MOL0     H52639   3.254   4.112   5.996  1.2736  1.0582  0.3630
  399MOL0     H52640   3.466   4.238   5.886  0.7834  1.6557 -3.1166
  399MOL0     H52641   3.342   4.273   5.774 -2.1483 -1.1411  1.5179
  399MOL0     H52642   3.343   4.356   6.064 -1.8419 -0.7797  0.6276
  399MOL0     H52643   3.192   4.346   5.981  0.7524 -0.1204  0.0453
  399MOL0     H52644   3.249   4.516   5.808 -0.2337  2.7852  0.5307
  399MOL0     H52645   3.410   4.525   5.861 -0.7033  2.3757  0.9458
  399MOL0     H52646   3.188   4.598   6.056 -0.0392  1.5605 -0.9676
  399MOL0     H52647   3.359   4.602   6.076  0.1674  2.2649  1.1032
  399MOL0     H52648   3.228   4.831   5.976  0.1040  0.7675 -2.5447
  399MOL0     H52649   3.196   4.739   5.848 -0.7733  3.0729  0.3370
  399MOL0     H52650   2.823   3.939   5.510  2.9230 -1.4909  0.7097
  399MOL0     H52651   2.623   3.823   5.504  1.5292  0.2902 -0.0812
  399MOL0     H52652   2.352   3.607   5.551 -0.8531 -2.7449 -1.4326
  399MOL0     H52653   2.138   3.532   5.426  0.9058  1.6442 -0.6723
  399MOL0     H52654   2.286   3.277   5.414 -0.5465 -1.2556  0.0458
  399MOL0     H52655   2.494   3.393   5.518  0.9594  2.3332 -0.3260
  399MOL0     H52656   3.030   3.260   5.614 -3.2496  0.7102 -0.5877
  399MOL0     H52657   3.219   3.384   5.716 -1.3219 -0.0108  1.8372
  399MOL0     H52658   3.259   3.799   5.765 -1.9302  1.1662 -1.5752
  399MOL0     H52659   3.231   3.836   5.599 -0.6078  0.7001  0.9255
  399MOL0     H52660   3.478   3.806   5.544  1.5624 -1.8098  2.3240
  399MOL0     H52661   3.446   3.953   5.633 -2.2454  0.4522  0.0645
  399MOL0     H52662   3.550   3.701   5.748  0.0586 -0.1313  1.9187
  399MOL0     H52663   3.499   3.851   5.839 -0.0953  1.0778 -0.5009
  399MOL0     H52664   3.748   3.806   5.777 -0.2928 -0.1293  2.4164
  399MOL0     H52665   3.703   3.861   5.614 -0.4645  1.6257  0.3819
  399MOL0     H52666   3.710   4.233   5.759 -1.1316  0.2857 -1.7817
  399MOL0     H52667   3.057   3.730   5.525 -0.1715 -0.5190 -0.4663
  399MOL0     H52668   2.867   3.615   5.454 -0.1883 -0.9644  0.0773
  400MOL0     O52669   2.662   6.951   3.632 -0.1969 -0.7945  0.6162
  400MOL0     C52670   2.713   7.024   3.708 -0.2580 -0.3618 -0.9831
  400MOL0     O52671   2.661   7.077   3.820 -0.5382  0.1400 -0.1441
  400MOL0     C52672   2.543   7.021   3.859 -0.0908  0.1596 -0.2958
  400MOL0     C52673   2.526   6.979   3.990 -0.1444 -0.1611 -1.2817
  400MOL0     C52674   2.395   6.944   4.040 -0.5410 -0.3393  0.1285
  400MOL0     C52675   2.287   6.954   3.952  0.2737  0.0001 -0.2092
  400MOL0     O52676   2.163   6.918   3.994  0.7019 -0.4624 -0.1783
  400MOL0     C52677   2.138   6.936   4.133  0.1781  0.0619  0.2571
  400MOL0     C52678   1.988   6.923   4.158 -0.4424  0.2027 -0.2879
  400MOL0     C52679   1.907   7.037   4.114  0.6558 -0.6038  0.8119
  400MOL0     C52680   1.765   7.028   4.179  0.3421  0.4821  0.2353
  400MOL0     C52681   1.689   7.147   4.126 -0.2590  0.4733  0.0868
  400MOL0     C52682   1.589   7.114   4.011 -0.0852 -0.4051 -0.3721
  400MOL0     C52683   1.528   7.234   3.952 -0.2817 -0.6517  0.9329
  400MOL0     C52684   1.593   7.277   3.820 -0.3599 -0.5279  0.9845
  400MOL0     N52685   1.507   7.368   3.752  0.5835 -0.2278  0.5351
  400MOL0     C52686   1.377   7.353   3.730  0.2135  0.6625  1.0875
  400MOL0     C52687   1.340   7.464   3.664 -0.2509  0.1114 -0.3388
  400MOL0     C52688   1.212   7.525   3.610 -0.7090  0.1883 -0.2834
  400MOL0     C52689   1.084   7.501   3.702  0.2601  0.5379 -0.2132
  400MOL0     C52690   0.962   7.570   3.636  0.2864 -0.4946  0.4881
  400MOL0     C52691   0.836   7.558   3.728 -0.2793 -0.0858  1.1513
  400MOL0     O52692   0.800   7.420   3.759  0.2728  0.2944 -0.2281
  400MOL0     C52693   0.672   7.409   3.811  0.1253  1.0354 -0.3947
  400MOL0     C52694   0.631   7.275   3.837  0.1194  0.4806  0.6307
  400MOL0     C52695   0.517   7.248   3.920 -0.0894 -0.4083  0.4705
  400MOL0     C52696   0.435   7.352   3.960 -0.1074 -0.0285 -0.1769
  400MOL0     C52697   0.307   7.325   4.035  0.9407  0.1611  0.7452
  400MOL0     O52698   0.198   7.401   4.013  0.2200  0.0394  0.4506
  400MOL0     C52699   0.075   7.392   4.076 -0.1028  0.1734  0.5092
  400MOL0     C52700   0.069   7.362   4.209 -0.2059  0.4290  0.2763
  400MOL0     C52701  -0.063   7.355   4.270 -0.4096  0.2179  0.0278
  400MOL0     C52702  -0.173   7.370   4.193  0.2017  0.1155 -0.2703
  400MOL0     O52703  -0.293   7.346   4.258 -0.0004  0.2905 -0.3957
  400MOL0     C52704  -0.419   7.340   4.178  0.0962 -0.1246 -0.3139
  400MOL0     C52705  -0.537   7.335   4.279  1.1418 -1.1418 -0.2949
  400MOL0     C52706  -0.666   7.291   4.201 -0.3067 -0.2109 -0.2870
  400MOL0     C52707  -0.796   7.258   4.293 -0.0995 -0.3983  0.4795
  400MOL0     C52708  -0.918   7.228   4.202 -0.4742 -1.2160  0.1238
  400MOL0     C52709  -1.040   7.217   4.285  0.3002  0.3010 -0.1974
  400MOL0     C52710  -1.159   7.181   4.192  0.0033 -0.7027  0.2282
  400MOL0     C52711  -1.266   7.133   4.283 -0.2457 -0.1848 -0.2889
  400MOL0    Cl52712  -1.400   7.050   4.190 -0.0687 -0.1327 -0.1527
  400MOL0     C52713  -0.159   7.389   4.051  0.5107  0.0872 -1.1481
  400MOL0     C52714  -0.036   7.399   3.994 -0.4730 -0.5681  0.5666
  400MOL0     O52715   0.324   7.230   4.116 -0.0715 -0.1354 -0.6938
  400MOL0     C52716   0.474   7.486   3.939  0.4117 -0.3273 -0.1643
  400MOL0     C52717   0.590   7.510   3.856 -0.1784 -0.1584 -0.1942
  400MOL0     N52718   1.443   7.553   3.658  0.3019 -1.3575  1.6672
  400MOL0     N52719   1.548   7.490   3.704  0.3832  0.7762  0.2810
  400MOL0     C52720   2.308   6.997   3.823  0.2700 -0.1139  1.2437
  400MOL0     C52721   2.433   7.026   3.774  0.1959 -0.3175 -0.5032
  400MOL0     C52722   2.841   7.092   3.663 -0.7117  0.5898 -0.6835
  400MOL0     C52723   2.926   7.159   3.758 -0.2949 -0.2584  0.1581
  400MOL0     C52724   3.041   7.232   3.714 -1.4001  0.3745  0.0091
  400MOL0     C52725   3.076   7.230   3.582  0.1825 -0.0147 -0.3735
  400MOL0     O52726   3.191   7.293   3.527 -0.3348  0.3808  0.2333
  400MOL0     C52727   3.265   7.371   3.624  0.6071 -1.0572  0.0275
  400MOL0     C52728   3.370   7.453   3.546 -0.6959  0.5609  0.5894
  400MOL0     C52729   3.515   7.409   3.585  0.2368 -0.0026  0.0123
  400MOL0     C52730   3.612   7.489   3.499  0.2471 -0.1117  0.4944
  400MOL0     C52731   3.653   7.596   3.582  0.3235 -0.2014 -1.3853
  400MOL0     C52732   3.677   7.691   3.660 -0.4388  0.7221 -0.4483
  400MOL0     C52733   3.007   7.151   3.492  0.1469  0.2399  0.4430
  400MOL0     C52734   2.884   7.088   3.533 -0.3873  0.0567 -0.4460
  400MOL0     H52735   2.614   6.989   4.052 -1.4398  1.1765  0.4438
  400MOL0     H52736   2.400   6.906   4.141  0.9390 -1.5645 -0.3682
  400MOL0     H52737   2.185   7.034   4.146  0.1340  0.3420 -1.3772
  400MOL0     H52738   2.187   6.861   4.195 -1.2662  0.6629  2.2100
  400MOL0     H52739   1.974   6.922   4.266 -1.6931  4.2135 -0.2614
  400MOL0     H52740   1.940   6.839   4.108 -2.3873  1.9364 -1.4732
  400MOL0     H52741   1.904   7.029   4.005 -1.7333 -0.4808  0.8257
  400MOL0     H52742   1.957   7.130   4.146  1.1660 -0.8482  0.7373
  400MOL0     H52743   1.697   6.945   4.155 -2.5518  1.9837  2.4703
  400MOL0     H52744   1.767   7.041   4.288  0.5285  1.1705  0.1525
  400MOL0     H52745   1.762   7.222   4.093  1.6383 -1.3862 -0.1696
  400MOL0     H52746   1.632   7.182   4.212  0.4802  0.2949  0.6557
  400MOL0     H52747   1.512   7.051   4.056  0.6460  0.1218  1.7401
  400MOL0     H52748   1.633   7.052   3.932 -0.0868 -1.0480  0.1171
  400MOL0     H52749   1.423   7.210   3.932 -0.5217 -0.1135  1.4895
  400MOL0     H52750   1.526   7.318   4.021 -0.5710 -0.0613  0.2141
  400MOL0     H52751   1.607   7.190   3.755 -1.0624  0.1367 -0.0932
  400MOL0     H52752   1.689   7.324   3.844 -1.8377  2.6674  1.1787
  400MOL0     H52753   1.323   7.263   3.757  2.9855 -1.6449 -0.4456
  400MOL0     H52754   1.196   7.483   3.510  2.0133  2.1136 -1.6500
  400MOL0     H52755   1.212   7.634   3.602 -2.3227  0.4686  2.2098
  400MOL0     H52756   1.098   7.551   3.799  2.2387 -0.9417  0.3329
  400MOL0     H52757   1.072   7.394   3.717 -0.4867  0.5607 -0.5977
  400MOL0     H52758   0.992   7.675   3.624 -1.4555  0.0066  0.2624
  400MOL0     H52759   0.936   7.533   3.537  1.6762 -0.5727  0.1418
  400MOL0     H52760   0.753   7.617   3.690  1.2375  0.5105 -1.4876
  400MOL0     H52761   0.864   7.621   3.812  0.2402  3.4512 -1.4547
  400MOL0     H52762   0.693   7.190   3.808  1.8057  1.6983  0.4885
  400MOL0     H52763   0.486   7.147   3.945  0.7837 -0.9480 -0.5344
  400MOL0     H52764   0.158   7.350   4.270  0.6563 -1.1900 -1.1936
  400MOL0     H52765  -0.088   7.330   4.373  0.6669 -3.8232 -0.5251
  400MOL0     H52766  -0.418   7.255   4.109  0.9310 -0.7340  0.4239
  400MOL0     H52767  -0.435   7.432   4.123 -2.3238 -0.5750 -0.4596
  400MOL0     H52768  -0.553   7.434   4.322  2.5932 -1.4526  1.0118
  400MOL0     H52769  -0.506   7.272   4.363  0.3689  2.4892  3.0117
  400MOL0     H52770  -0.651   7.200   4.143  0.1233 -0.8223  0.7474
  400MOL0     H52771  -0.687   7.372   4.130  1.5748 -0.4895 -1.2167
  400MOL0     H52772  -0.772   7.175   4.360  0.1587 -1.1372 -0.5076
  400MOL0     H52773  -0.804   7.355   4.343  0.3720  0.6246 -1.3121
  400MOL0     H52774  -0.885   7.138   4.149  1.1651 -2.0445  2.3915
  400MOL0     H52775  -0.942   7.314   4.139  0.7843  1.5408  3.1371
  400MOL0     H52776  -1.056   7.314   4.332 -0.7774 -0.2811  0.6960
  400MOL0     H52777  -1.021   7.139   4.360 -0.4313 -0.9035 -1.2104
  400MOL0     H52778  -1.190   7.279   4.155  0.7824 -0.1065  1.1033
  400MOL0     H52779  -1.130   7.109   4.115  0.6732 -1.9799  1.6192
  400MOL0     H52780  -1.302   7.213   4.349  2.3216 -0.6372  1.8063
  400MOL0     H52781  -1.243   7.057   4.358  0.4843 -0.1596 -0.4817
  400MOL0     H52782  -0.241   7.396   3.980 -1.9455 -1.8440  1.3169
  400MOL0     H52783  -0.018   7.405   3.887  0.8914  3.4436  0.8474
  400MOL0     H52784   0.419   7.577   3.957  0.6879 -0.1755 -0.0835
  400MOL0     H52785   0.627   7.612   3.851  2.6091 -1.0718  0.1430
  400MOL0     H52786   2.215   7.014   3.770 -0.0850  0.0178  1.9065
  400MOL0     H52787   2.435   7.079   3.679 -2.2558  0.9696  0.0970
  400MOL0     H52788   2.896   7.166   3.862 -0.4793 -2.0550  0.2619
  400MOL0     H52789   3.097   7.289   3.788  0.3990  0.9985 -1.7532
  400MOL0     H52790   3.315   7.314   3.703  1.7937  1.5127  1.2724
  400MOL0     H52791   3.200   7.443   3.676  1.6053 -0.2143  0.1485
  400MOL0     H52792   3.341   7.441   3.441 -2.0749 -0.8741  1.0935
  400MOL0     H52793   3.372   7.560   3.571  1.5674  0.7190 -0.0323
  400MOL0     H52794   3.522   7.302   3.562 -0.5620  0.7522 -4.9870
  400MOL0     H52795   3.531   7.412   3.693 -0.8522 -1.7749  0.2670
  400MOL0     H52796   3.697   7.430   3.463 -0.3827  0.3606 -1.9922
  400MOL0     H52797   3.557   7.523   3.410 -2.2363 -3.2229  0.6674
  400MOL0     H52798   3.711   7.769   3.725  2.4077  0.1368 -1.0994
  400MOL0     H52799   3.030   7.161   3.387  0.3358 -1.0883  0.3321
  400MOL0     H52800   2.827   7.043   3.453 -2.9513 -0.1098  1.3340
  401MOL0     O52801  10.133   0.492   5.915  0.4527  0.0069 -0.2951
  401MOL0     C52802  10.229   0.562   5.896 -0.4533  0.0714  0.8920
  401MOL0     O52803  10.228   0.698   5.873 -0.4635  0.4548 -0.2234
  401MOL0     C52804  10.117   0.762   5.825 -0.0877  0.4260  0.0173
  401MOL0     C52805  10.092   0.763   5.682 -0.0531  0.1084  0.1083
  401MOL0     C52806   9.978   0.826   5.649  0.4964  0.6753 -0.2715
  401MOL0     C52807   9.877   0.863   5.745 -0.6447 -0.3333  0.0548
  401MOL0     O52808   9.767   0.929   5.688 -0.4065 -0.4889 -0.1917
  401MOL0     C52809   9.683   1.018   5.771  0.5795 -0.0735  0.0762
  401MOL0     C52810   9.578   1.093   5.674 -0.1040 -0.3275  0.4382
  401MOL0     C52811   9.446   1.154   5.737 -0.8944 -0.2098 -0.7567
  401MOL0     C52812   9.371   1.223   5.621 -0.4123  0.2090 -0.1374
  401MOL0     C52813   9.247   1.284   5.670  0.2733  0.0160 -0.9003
  401MOL0     C52814   9.182   1.363   5.555  0.3284  0.7602 -0.5092
  401MOL0     C52815   9.089   1.270   5.472  0.2735  0.2946 -0.5114
  401MOL0     C52816   9.008   1.352   5.376 -1.2368  0.3819 -0.2017
  401MOL0     N52817   8.897   1.411   5.445  0.6613 -0.3679 -0.1732
  401MOL0     C52818   8.796   1.338   5.506  0.3344  0.0019 -1.0545
  401MOL0     C52819   8.724   1.440   5.565  0.3057 -0.5209 -1.0859
  401MOL0     C52820   8.607   1.414   5.656 -0.2884 -0.4532  0.4312
  401MOL0     C52821   8.480   1.428   5.580 -0.5745  1.2522 -0.6047
  401MOL0     C52822   8.360   1.389   5.663 -1.0699  0.5593 -0.0056
  401MOL0     C52823   8.238   1.363   5.578 -0.4660  0.5404  0.2653
  401MOL0     O52824   8.128   1.343   5.659  0.5737 -0.1178 -0.5787
  401MOL0     C52825   8.003   1.330   5.604 -0.0633 -0.3645  0.8191
  401MOL0     C52826   7.893   1.310   5.701  0.2546  0.0398 -0.2464
  401MOL0     C52827   7.758   1.308   5.661  0.0951 -0.5621 -0.8302
  401MOL0     C52828   7.727   1.315   5.525 -0.5735 -0.5084 -0.0066
  401MOL0     C52829   7.588   1.298   5.485  0.6943  0.6046  1.3298
  401MOL0     O52830   7.491   1.262   5.574 -0.0974 -0.0378 -0.4293
  401MOL0     C52831   7.364   1.298   5.551 -0.4593 -0.1521 -0.2830
  401MOL0     C52832   7.312   1.413   5.606  1.0740 -0.1400 -0.8592
  401MOL0     C52833   7.172   1.446   5.594  0.3857  0.0177  0.2278
  401MOL0     C52834   7.091   1.363   5.525  1.0173  0.4045  0.8877
  401MOL0     O52835   6.954   1.393   5.499  0.9255 -0.3358  0.1758
  401MOL0     C52836   6.889   1.510   5.552 -0.2095  0.3484 -0.2501
  401MOL0     C52837   6.761   1.550   5.478 -0.4906 -0.4202  1.1130
  401MOL0     C52838   6.653   1.445   5.483 -0.3146 -0.0399  0.2013
  401MOL0     C52839   6.521   1.484   5.423 -0.5284 -1.7344  0.2637
  401MOL0     C52840   6.405   1.407   5.489 -0.5757  0.4634  0.4573
  401MOL0     C52841   6.281   1.432   5.411  1.4087 -0.0212 -1.1303
  401MOL0     C52842   6.153   1.381   5.481 -0.1061  0.0421 -0.8789
  401MOL0     C52843   6.019   1.427   5.425  0.4194  0.1915  0.1119
  401MOL0    Cl52844   6.007   1.594   5.425 -0.0691 -0.5463 -0.1499
  401MOL0     C52845   7.139   1.245   5.465 -1.3989 -0.0771  0.8787
  401MOL0     C52846   7.280   1.214   5.477 -0.8745 -0.6647 -0.8234
  401MOL0     O52847   7.564   1.326   5.362  0.5783 -0.2614 -0.6353
  401MOL0     C52848   7.840   1.327   5.435  0.3729 -0.0512  0.3538
  401MOL0     C52849   7.970   1.338   5.469 -0.2682 -0.4810  0.4740
  401MOL0     N52850   8.779   1.564   5.544  0.5424  0.0741 -0.2439
  401MOL0     N52851   8.885   1.544   5.470 -0.0199 -0.0391  0.9687
  401MOL0     C52852   9.905   0.856   5.875  0.1957  0.2913 -0.3598
  401MOL0     C52853  10.025   0.811   5.916  0.9713  1.8579  0.6621
  401MOL0     C52854  10.368   0.500   5.903  1.4035  0.2296 -0.1688
  401MOL0     C52855  10.377   0.355   5.906 -0.2216 -0.3433  0.0106
  401MOL0     C52856  10.499   0.296   5.885 -0.5305 -0.5757  0.4587
  401MOL0     C52857  10.618   0.368   5.872 -0.5655  0.7387 -1.0620
  401MOL0     O52858  10.732   0.288   5.860  0.3126  0.0935 -0.4466
  401MOL0     C52859  10.858   0.337   5.806 -0.1364 -0.4537 -0.0795
  401MOL0     C52860  10.957   0.225   5.827  0.6068  0.1567 -0.1828
  401MOL0     C52861  10.996   0.135   5.704  0.5615  0.1811  0.4770
  401MOL0     C52862  10.924   0.002   5.709  0.1256  0.2620  1.1354
  401MOL0     C52863  10.990  -0.074   5.609  0.4383  1.1756  0.1220
  401MOL0     C52864  11.053  -0.109   5.511  0.2654 -0.4245 -0.0957
  401MOL0     C52865  10.609   0.505   5.882 -0.3488  0.5315  0.4416
  401MOL0     C52866  10.486   0.572   5.890 -0.0298 -0.7255 -0.2263
  401MOL0     H52867  10.165   0.725   5.611  2.3669  2.0938  1.3778
  401MOL0     H52868   9.955   0.826   5.543  1.7138  0.6594 -0.5424
  401MOL0     H52869   9.749   1.081   5.831  2.7060  1.1655 -3.3090
  401MOL0     H52870   9.630   0.962   5.849  0.4291 -0.2115 -0.1245
  401MOL0     H52871   9.545   1.017   5.602  3.6985  1.0339 -3.0988
  401MOL0     H52872   9.627   1.167   5.611  1.6801 -0.7027  1.3357
  401MOL0     H52873   9.473   1.229   5.811 -3.4283  2.0322 -1.9047
  401MOL0     H52874   9.382   1.073   5.774 -0.8623 -0.4543 -1.2342
  401MOL0     H52875   9.435   1.300   5.576 -0.5664  1.0586  1.0426
  401MOL0     H52876   9.342   1.138   5.558 -1.5781 -0.7059  1.5463
  401MOL0     H52877   9.272   1.355   5.749 -0.8367 -0.4707 -0.0851
  401MOL0     H52878   9.175   1.214   5.714  1.4699  0.7290  2.4544
  401MOL0     H52879   9.260   1.416   5.501  0.7381  0.2953 -0.3724
  401MOL0     H52880   9.110   1.435   5.595  0.7475  0.5159  0.7270
  401MOL0     H52881   9.154   1.204   5.415  0.5586 -2.0771  2.3240
  401MOL0     H52882   9.031   1.203   5.536  0.2142 -0.6640 -1.5432
  401MOL0     H52883   8.974   1.292   5.291 -2.1938  0.1676  0.3133
  401MOL0     H52884   9.082   1.421   5.335 -1.5550 -0.2163 -1.8625
  401MOL0     H52885   8.770   1.233   5.500  1.9564 -0.5481  0.6783
  401MOL0     H52886   8.608   1.484   5.740 -0.1572 -1.2082  1.0719
  401MOL0     H52887   8.620   1.318   5.708 -1.8934  0.1273  1.9669
  401MOL0     H52888   8.476   1.363   5.492 -1.9595  0.3689  0.0657
  401MOL0     H52889   8.458   1.533   5.558 -2.1473  1.0622 -0.0846
  401MOL0     H52890   8.376   1.294   5.714 -0.7075  0.8013  0.3406
  401MOL0     H52891   8.336   1.475   5.726 -2.1273  0.8179 -0.7285
  401MOL0     H52892   8.263   1.270   5.526  1.9387 -0.8919  3.6027
  401MOL0     H52893   8.217   1.446   5.510 -0.6092  1.8195  1.8242
  401MOL0     H52894   7.919   1.303   5.806 -1.4029 -0.1676  0.1869
  401MOL0     H52895   7.679   1.285   5.731  1.7350 -1.1882  0.9052
  401MOL0     H52896   7.375   1.483   5.659  4.4386 -4.2527  1.1860
  401MOL0     H52897   7.149   1.551   5.613  1.1190  0.3033 -0.4156
  401MOL0     H52898   6.956   1.595   5.539  0.7057 -0.2787  0.2533
  401MOL0     H52899   6.887   1.492   5.660 -1.7102  1.5899 -0.0355
  401MOL0     H52900   6.793   1.566   5.374 -1.8013 -1.6364  0.4904
  401MOL0     H52901   6.722   1.637   5.532 -2.1849 -2.0686  2.7169
  401MOL0     H52902   6.640   1.415   5.588 -2.4716  0.0964  0.0269
  401MOL0     H52903   6.674   1.355   5.424 -0.7577 -0.2975  0.4304
  401MOL0     H52904   6.514   1.593   5.434 -0.3037 -1.2064 -3.4974
  401MOL0     H52905   6.512   1.485   5.314  1.7521  0.1645  0.0100
  401MOL0     H52906   6.408   1.425   5.597  2.9169  0.7628  0.4430
  401MOL0     H52907   6.427   1.302   5.469  0.6216  1.0166 -1.4321
  401MOL0     H52908   6.296   1.387   5.312  3.4745  0.8627 -1.2663
  401MOL0     H52909   6.274   1.540   5.400  1.5738 -0.0113 -1.1478
  401MOL0     H52910   6.146   1.272   5.472 -1.2863  0.0007  0.2182
  401MOL0     H52911   6.160   1.407   5.587  2.4890  3.6541 -1.7368
  401MOL0     H52912   5.935   1.375   5.470  0.0961 -1.5931 -2.3250
  401MOL0     H52913   6.016   1.394   5.321 -1.1598 -5.4031  1.6237
  401MOL0     H52914   7.063   1.183   5.418 -0.7028 -0.4560  0.2379
  401MOL0     H52915   7.322   1.123   5.436  1.2092  0.1285 -0.5401
  401MOL0     H52916   7.817   1.321   5.329  0.0817  0.6293  0.3696
  401MOL0     H52917   8.042   1.360   5.391 -0.4635  2.4086  0.9915
  401MOL0     H52918   9.829   0.890   5.944  1.1925 -0.0111  0.9216
  401MOL0     H52919  10.067   0.816   6.016 -2.2980 -0.1060  2.3239
  401MOL0     H52920  10.285   0.301   5.926 -0.2807 -0.5371 -0.7346
  401MOL0     H52921  10.510   0.190   5.901  0.1560 -0.6710 -0.5336
  401MOL0     H52922  10.894   0.430   5.851  0.4486 -0.9790  0.5489
  401MOL0     H52923  10.862   0.360   5.699 -2.4765 -0.5772 -0.2409
  401MOL0     H52924  11.045   0.280   5.862  0.6700 -0.8118  1.2751
  401MOL0     H52925  10.926   0.160   5.910 -0.2620  2.1813  1.1519
  401MOL0     H52926  11.102   0.109   5.708  0.4206 -0.4056  4.6262
  401MOL0     H52927  10.969   0.177   5.607  0.8149  0.1764  0.4028
  401MOL0     H52928  10.936  -0.043   5.808  0.6671 -1.4593  0.3297
  401MOL0     H52929  10.816   0.010   5.694  0.0476  3.7894  2.7210
  401MOL0     H52930  11.114  -0.134   5.427 -0.3896 -2.0503 -0.1168
  401MOL0     H52931  10.699   0.562   5.902 -0.1356 -0.0675  1.2539
  401MOL0     H52932  10.484   0.678   5.912  0.5617 -0.3996 -1.6281
  402MOL0     O52933   1.528   9.445   4.340 -0.2111  0.2567 -0.2664
  402MOL0     C52934   1.563   9.443   4.458  0.1572  0.3577  0.2677
  402MOL0     O52935   1.696   9.422   4.498 -0.4475 -0.4544  0.3265
  402MOL0     C52936   1.796   9.404   4.404  0.0030 -0.0666 -0.1095
  402MOL0     C52937   1.878   9.296   4.417 -0.7872 -0.3840 -0.1992
  402MOL0     C52938   1.988   9.268   4.327 -0.3047 -0.3759 -0.7220
  402MOL0     C52939   2.014   9.355   4.224  0.3057 -0.1082 -0.7150
  402MOL0     O52940   2.121   9.315   4.149  0.3327  0.1619  0.1660
  402MOL0     C52941   2.208   9.416   4.093  0.1600 -0.3311  0.5271
  402MOL0     C52942   2.335   9.344   4.049  0.5648  0.0919 -0.3209
  402MOL0     C52943   2.454   9.443   4.004 -0.4573 -0.9187  0.5759
  402MOL0     C52944   2.500   9.380   3.867  0.5397  0.4963  0.2595
  402MOL0     C52945   2.612   9.469   3.813 -0.0847 -0.6029  0.3942
  402MOL0     C52946   2.729   9.483   3.908 -0.7765  0.2167  0.5916
  402MOL0     C52947   2.846   9.549   3.828 -0.0146 -0.7134 -0.2499
  402MOL0     C52948   2.954   9.617   3.917  0.2966 -0.2786 -1.0513
  402MOL0     N52949   3.060   9.527   3.979  0.4203 -0.9297  0.5650
  402MOL0     C52950   3.035   9.442   4.081  0.1642 -0.4499  0.8376
  402MOL0     C52951   3.151   9.376   4.102  0.3250 -0.2172  0.3066
  402MOL0     C52952   3.174   9.272   4.218  0.1010  0.6259 -0.5887
  402MOL0     C52953   3.267   9.153   4.178  1.4003 -1.5351 -0.3551
  402MOL0     C52954   3.409   9.193   4.178  0.0529 -0.9747  0.0744
  402MOL0     C52955   3.484   9.131   4.053 -0.3687  0.7940 -0.4836
  402MOL0     O52956   3.467   8.988   4.064  0.0000 -0.0697 -0.4874
  402MOL0     C52957   3.407   8.925   3.954  0.4694  0.2124  0.3842
  402MOL0     C52958   3.302   8.838   3.983  0.7035  0.6783  0.8231
  402MOL0     C52959   3.223   8.781   3.890 -0.3363 -0.6903  0.4964
  402MOL0     C52960   3.243   8.819   3.752 -0.2211  0.0038  0.1914
  402MOL0     C52961   3.152   8.766   3.651  0.6285  0.0936 -0.6073
  402MOL0     O52962   3.199   8.762   3.529 -0.2450 -0.2729  0.2746
  402MOL0     C52963   3.121   8.705   3.435 -0.2756  0.0613  0.0371
  402MOL0     C52964   3.103   8.565   3.432 -0.1668 -0.4006 -0.5502
  402MOL0     C52965   3.026   8.517   3.330 -1.3354 -1.2853  0.1554
  402MOL0     C52966   2.959   8.596   3.239 -1.0000 -0.2425 -0.6294
  402MOL0     O52967   2.893   8.525   3.148 -0.0746  0.8860  0.2650
  402MOL0     C52968   2.828   8.571   3.032 -0.6825  0.2587 -0.2486
  402MOL0     C52969   2.698   8.494   3.001  0.6456 -0.2320 -0.2082
  402MOL0     C52970   2.595   8.536   3.111  0.0550  0.0659  0.6119
  402MOL0     C52971   2.479   8.436   3.111 -0.5177  0.2772  0.3611
  402MOL0     C52972   2.376   8.462   3.230  0.0939  0.8659  0.9342
  402MOL0     C52973   2.254   8.366   3.236  1.5909  0.1890 -1.8384
  402MOL0     C52974   2.182   8.386   3.371 -0.9141 -0.8028 -0.3573
  402MOL0     C52975   2.121   8.257   3.421  1.2206 -0.2026  0.0405
  402MOL0    Cl52976   1.959   8.237   3.351  0.0610 -0.0639 -0.1251
  402MOL0     C52977   2.979   8.734   3.243  0.3591  0.6709 -0.1400
  402MOL0     C52978   3.056   8.793   3.348  0.2707 -0.3656  0.5706
  402MOL0     O52979   3.042   8.721   3.690 -0.1709 -0.0240 -0.4390
  402MOL0     C52980   3.356   8.895   3.724 -0.0208  0.4412 -0.2333
  402MOL0     C52981   3.439   8.948   3.821  0.8404 -0.5438  0.0193
  402MOL0     N52982   3.237   9.426   4.011 -1.1338 -0.0680 -0.3118
  402MOL0     N52983   3.185   9.514   3.943 -0.0595 -0.4207  0.4172
  402MOL0     C52984   1.936   9.477   4.214 -1.1504 -0.0096 -0.2282
  402MOL0     C52985   1.831   9.499   4.307 -0.1483  0.0745  1.2118
  402MOL0     C52986   1.455   9.480   4.558 -0.0583  0.4092 -0.5804
  402MOL0     C52987   1.478   9.462   4.694 -0.1856 -0.5593 -0.8412
  402MOL0     C52988   1.376   9.503   4.787 -0.4025 -0.8271  1.2507
  402MOL0     C52989   1.246   9.549   4.747 -0.6458 -0.3425 -0.2306
  402MOL0     O52990   1.156   9.575   4.849 -0.0667  0.3825  0.3174
  402MOL0     C52991   1.027   9.647   4.820  0.6404  0.1215  0.6137
  402MOL0     C52992   0.960   9.695   4.945  0.2163 -0.7305 -0.3871
  402MOL0     C52993   0.814   9.739   4.927 -0.8472  0.6476  0.0187
  402MOL0     C52994   0.712   9.616   4.942 -0.0697 -0.4186 -0.1039
  402MOL0     C52995   0.703   9.521   4.823  0.1039  1.0174  0.4135
  402MOL0     C52996   0.723   9.459   4.721  0.6019  0.0645  0.7583
  402MOL0     C52997   1.223   9.554   4.605 -0.0901 -0.1483 -0.1121
  402MOL0     C52998   1.327   9.511   4.511 -0.9217  0.5278 -0.4810
  402MOL0     H52999   1.863   9.225   4.498 -3.3409 -0.6351 -0.7952
  402MOL0     H53000   2.046   9.178   4.344 -1.5310 -0.7474  2.1962
  402MOL0     H53001   2.234   9.491   4.168 -2.1955  1.7412 -0.5557
  402MOL0     H53002   2.165   9.476   4.012 -1.8816 -1.4590  0.7109
  402MOL0     H53003   2.299   9.299   3.956 -0.1804 -1.0057  0.4747
  402MOL0     H53004   2.364   9.268   4.123  0.4968 -1.5480 -1.9109
  402MOL0     H53005   2.542   9.440   4.069  1.6914 -1.1751 -2.1467
  402MOL0     H53006   2.427   9.548   3.992  0.2301 -0.9596 -1.7769
  402MOL0     H53007   2.549   9.283   3.874  1.2153  0.8593  0.7409
  402MOL0     H53008   2.418   9.371   3.795 -1.1298 -3.1388  2.3427
  402MOL0     H53009   2.564   9.563   3.782  0.7477  0.2674  1.6255
  402MOL0     H53010   2.647   9.422   3.721 -0.9433  0.5707 -0.5722
  402MOL0     H53011   2.753   9.386   3.954 -0.0056 -0.1670 -0.5715
  402MOL0     H53012   2.703   9.549   3.991 -1.5133  1.8191 -0.8594
  402MOL0     H53013   2.898   9.467   3.777  0.3406  0.9582 -2.7236
  402MOL0     H53014   2.814   9.614   3.747 -0.8924 -0.1362  0.5342
  402MOL0     H53015   2.902   9.676   3.994  0.9454 -2.2759  1.0078
  402MOL0     H53016   3.021   9.684   3.862  0.5606  1.2149  0.9731
  402MOL0     H53017   2.939   9.426   4.129 -0.0099  1.9245  1.4127
  402MOL0     H53018   3.080   9.224   4.245 -0.1395  1.1248 -0.5142
  402MOL0     H53019   3.202   9.317   4.314 -1.2025 -2.0249  1.1353
  402MOL0     H53020   3.238   9.122   4.077  0.3074 -3.1897  0.4348
  402MOL0     H53021   3.249   9.068   4.244  2.7685 -1.5966 -0.0197
  402MOL0     H53022   3.419   9.301   4.163 -1.5068 -0.8451 -0.1489
  402MOL0     H53023   3.463   9.161   4.268  2.4397  1.6820 -0.2735
  402MOL0     H53024   3.590   9.153   4.042 -0.2300 -0.5172 -2.3443
  402MOL0     H53025   3.444   9.171   3.959 -1.8776  0.9384  0.1883
  402MOL0     H53026   3.279   8.829   4.088 -1.2569 -1.3831  0.2833
  402MOL0     H53027   3.138   8.720   3.922  1.7259 -1.5173  5.1439
  402MOL0     H53028   3.151   8.503   3.508  1.4112  0.5806 -0.7068
  402MOL0     H53029   3.023   8.409   3.318 -0.6147 -1.0278 -3.3308
  402MOL0     H53030   2.895   8.548   2.949 -1.6668  0.5486 -1.1456
  402MOL0     H53031   2.805   8.678   3.028  0.1289  0.5264  1.4934
  402MOL0     H53032   2.713   8.385   2.993  0.7154 -0.2081 -0.4266
  402MOL0     H53033   2.681   8.520   2.896  4.5338  1.6083 -0.5497
  402MOL0     H53034   2.566   8.638   3.084 -1.4190 -0.9420 -1.9197
  402MOL0     H53035   2.649   8.538   3.206  1.2974 -1.2555 -0.0239
  402MOL0     H53036   2.418   8.443   3.020  1.7430  0.1975 -1.2533
  402MOL0     H53037   2.515   8.333   3.118 -1.5868 -0.2668 -1.2956
  402MOL0     H53038   2.349   8.567   3.239  2.1830  1.3593  2.1769
  402MOL0     H53039   2.429   8.459   3.325  0.7115  0.1276  0.5842
  402MOL0     H53040   2.292   8.265   3.216  0.8545 -0.9364  1.8552
  402MOL0     H53041   2.183   8.378   3.154 -2.4421  0.4002  1.3774
  402MOL0     H53042   2.261   8.417   3.440  1.2132  1.4036 -3.5065
  402MOL0     H53043   2.099   8.458   3.363 -0.6709 -0.6879 -2.2092
  402MOL0     H53044   2.112   8.253   3.529  2.4188 -0.7305  0.1388
  402MOL0     H53045   2.164   8.167   3.376  1.1591 -0.4056  0.3857
  402MOL0     H53046   2.931   8.806   3.177  1.2801  0.4686 -1.0575
  402MOL0     H53047   3.065   8.901   3.346  1.8161 -0.4245 -2.6488
  402MOL0     H53048   3.386   8.914   3.621  0.3255 -0.0856 -0.2314
  402MOL0     H53049   3.510   9.025   3.794 -3.9289  3.1935 -3.7766
  402MOL0     H53050   1.947   9.553   4.137 -1.8740  0.8778  0.5175
  402MOL0     H53051   1.778   9.593   4.296  0.5193  0.3097 -0.2485
  402MOL0     H53052   1.566   9.415   4.737 -1.4162 -1.5806  0.6978
  402MOL0     H53053   1.408   9.509   4.891 -2.0440 -0.7556  1.7779
  402MOL0     H53054   0.960   9.582   4.763 -0.8847  1.1408  1.1601
  402MOL0     H53055   1.041   9.732   4.752  0.6775 -0.4595 -0.1209
  402MOL0     H53056   0.972   9.613   5.016  2.1958  1.1867  1.6695
  402MOL0     H53057   1.008   9.787   4.980 -0.8219 -0.5501  0.6040
  402MOL0     H53058   0.810   9.783   4.827 -0.2558  0.1545 -0.2219
  402MOL0     H53059   0.788   9.810   5.006 -1.7240  0.1546  0.1909
  402MOL0     H53060   0.733   9.558   5.031 -0.2649 -0.4272 -0.0648
  402MOL0     H53061   0.613   9.661   4.932 -0.3514 -1.2734 -1.5459
  402MOL0     H53062   0.747   9.411   4.629  0.5087  0.5024  0.5027
  402MOL0     H53063   1.128   9.574   4.557  0.0940 -2.0346 -1.3757
  402MOL0     H53064   1.302   9.498   4.407 -0.2415 -0.9100 -0.4772
  403MOL0     O53065   3.804   0.063   2.563 -0.4724 -0.4237  0.6662
  403MOL0     C53066   3.853  -0.002   2.653  0.1576  0.2910 -0.1252
  403MOL0     O53067   3.788  -0.084   2.741 -0.2976  0.3843  0.3247
  403MOL0     C53068   3.652  -0.072   2.770 -0.0195  0.0143  0.3385
  403MOL0     C53069   3.575   0.042   2.757  0.5245  0.6449 -0.0883
  403MOL0     C53070   3.433   0.037   2.785  0.5161 -0.6765  0.9777
  403MOL0     C53071   3.377  -0.079   2.831  0.5472  0.4030 -0.2681
  403MOL0     O53072   3.251  -0.081   2.881 -0.6650  0.1567  1.0478
  403MOL0     C53073   3.254  -0.076   3.025 -0.0854 -0.0160 -0.3908
  403MOL0     C53074   3.117  -0.100   3.078 -0.3641 -0.5248 -0.1311
  403MOL0     C53075   3.022   0.006   3.013 -0.4328 -0.2773  0.2275
  403MOL0     C53076   2.877   0.003   3.060  0.0421 -0.2378  0.2374
  403MOL0     C53077   2.800   0.131   3.030  0.4578  0.4063 -0.4577
  403MOL0     C53078   2.669   0.111   3.104  0.2297  0.5980  0.2510
  403MOL0     C53079   2.571   0.228   3.079 -0.1900  0.3269  0.6155
  403MOL0     C53080   2.461   0.236   3.185  0.2197 -0.5330  0.0849
  403MOL0     N53081   2.357   0.142   3.147  0.7929  0.4278 -0.3296
  403MOL0     C53082   2.276   0.159   3.040  0.2362 -0.0432 -0.9607
  403MOL0     C53083   2.212   0.042   3.023  0.1702 -1.0631  0.2998
  403MOL0     C53084   2.115   0.005   2.916  0.1185  0.9274  0.4480
  403MOL0     C53085   1.992   0.100   2.922 -0.6144  0.1878 -0.7661
  403MOL0     C53086   1.884   0.082   3.031  0.0939  0.3789 -0.3169
  403MOL0     C53087   1.782   0.193   3.027 -0.2877  0.0783  0.4305
  403MOL0     O53088   1.727   0.211   2.894  0.2685  0.2666  0.2405
  403MOL0     C53089   1.608   0.285   2.880 -1.0349 -0.0393 -0.8413
  403MOL0     C53090   1.544   0.361   2.981 -0.3368  1.0495 -0.4288
  403MOL0     C53091   1.425   0.432   2.951 -0.2162  0.6616  0.3379
  403MOL0     C53092   1.378   0.442   2.821  0.4089  0.6398 -0.3805
  403MOL0     C53093   1.266   0.537   2.790  0.6375  0.1732  0.5764
  403MOL0     O53094   1.224   0.614   2.888 -0.4200  0.3209 -0.7921
  403MOL0     C53095   1.130   0.708   2.870  0.1524 -0.8951  0.1289
  403MOL0     C53096   1.001   0.665   2.837 -0.0237 -0.4685  0.9590
  403MOL0     C53097   0.899   0.763   2.805  0.4017 -0.5867 -0.8194
  403MOL0     C53098   0.927   0.900   2.822 -0.3380  0.4180 -0.1412
  403MOL0     O53099   0.829   0.997   2.812 -0.9165 -0.1444 -0.6160
  403MOL0     C53100   0.689   0.963   2.775 -0.3602 -0.7395  0.9963
  403MOL0     C53101   0.605   1.094   2.767  0.1454 -0.2133 -0.1894
  403MOL0     C53102   0.451   1.082   2.754 -0.5955 -1.2350 -0.4845
  403MOL0     C53103   0.396   1.226   2.751 -0.5729  0.3493  0.2182
  403MOL0     C53104   0.241   1.231   2.734  0.8677  0.3838  0.7545
  403MOL0     C53105   0.205   1.368   2.693 -0.3075  1.3054 -0.1493
  403MOL0     C53106   0.060   1.406   2.712 -0.9562  0.2537  0.0858
  403MOL0     C53107  -0.031   1.341   2.609  0.5297 -0.2216  0.4584
  403MOL0    Cl53108  -0.198   1.363   2.642  0.1257  0.6995  0.4117
  403MOL0     C53109   1.046   0.935   2.878  0.2003 -0.0530 -0.1915
  403MOL0     C53110   1.148   0.845   2.902  0.1761  0.1071  0.1529
  403MOL0     O53111   1.206   0.534   2.672 -0.3166  0.5311 -0.3525
  403MOL0     C53112   1.440   0.368   2.730  1.1429 -0.7452  0.0314
  403MOL0     C53113   1.558   0.302   2.747 -0.2261 -0.2953  0.4203
  403MOL0     N53114   2.254  -0.046   3.118 -0.0084  0.7279 -0.9412
  403MOL0     N53115   2.346   0.015   3.195  0.4824  0.1836  0.1843
  403MOL0     C53116   3.455  -0.194   2.843  0.8279 -1.2861  0.3491
  403MOL0     C53117   3.587  -0.189   2.811 -1.2103 -1.0526  0.8132
  403MOL0     C53118   4.001  -0.010   2.654 -0.3090 -0.9655  0.6405
  403MOL0     C53119   4.072  -0.096   2.749 -0.0585 -0.4215  1.3186
  403MOL0     C53120   4.207  -0.089   2.751 -0.4946  0.3734 -0.4776
  403MOL0     C53121   4.280  -0.002   2.658 -0.6643  0.1351 -0.1912
  403MOL0     O53122   4.413  -0.008   2.640  0.2091  0.6982  0.4273
  403MOL0     C53123   4.491  -0.034   2.757 -0.9732  0.1821 -0.6128
  403MOL0     C53124   4.639  -0.013   2.719  0.5128 -0.0799  0.2951
  403MOL0     C53125   4.691  -0.104   2.608  0.0628  0.3300 -0.1242
  403MOL0     C53126   4.632  -0.062   2.468  0.5089  0.2272  0.0266
  403MOL0     C53127   4.747  -0.088   2.383  0.3831  0.1782  0.1795
  403MOL0     C53128   4.839  -0.126   2.312  0.4090 -0.9731  0.4781
  403MOL0     C53129   4.207   0.084   2.570 -0.4055 -0.2475 -0.0094
  403MOL0     C53130   4.072   0.081   2.580  0.2568  0.4860 -0.1277
  403MOL0     H53131   3.613   0.133   2.711 -2.3243  1.8185 -0.3489
  403MOL0     H53132   3.386   0.133   2.767  1.2578  0.2560  3.6926
  403MOL0     H53133   3.286   0.023   3.058  0.8614  0.0779 -1.5086
  403MOL0     H53134   3.324  -0.151   3.061 -0.4011  0.8989  2.2908
  403MOL0     H53135   3.127  -0.086   3.186  0.6967 -0.5295 -0.2258
  403MOL0     H53136   3.092  -0.203   3.053  1.6869 -0.9975 -0.3477
  403MOL0     H53137   3.013  -0.007   2.905  1.6707  0.8424 -0.1334
  403MOL0     H53138   3.062   0.106   3.028 -1.4457  0.1004  0.4747
  403MOL0     H53139   2.823  -0.084   3.022 -0.9172 -1.0083  3.1705
  403MOL0     H53140   2.878  -0.004   3.169 -2.7533  0.1047  0.3697
  403MOL0     H53141   2.774   0.149   2.926  0.2383  3.8379  0.0970
  403MOL0     H53142   2.843   0.223   3.068  1.2510  0.8443 -2.3397
  403MOL0     H53143   2.689   0.094   3.210  0.6798  0.6091  0.1686
  403MOL0     H53144   2.616   0.018   3.081 -0.5379  1.3500 -1.2087
  403MOL0     H53145   2.637   0.316   3.079  0.8388 -0.3552  3.3762
  403MOL0     H53146   2.532   0.228   2.977  1.2131 -0.2542  0.0462
  403MOL0     H53147   2.418   0.336   3.188 -0.7377 -0.9002 -0.8548
  403MOL0     H53148   2.501   0.211   3.284  0.6402 -0.1497  0.0148
  403MOL0     H53149   2.275   0.237   2.965  1.3696 -0.9850 -1.9969
  403MOL0     H53150   2.091  -0.098   2.944 -2.2264  1.9587  2.5947
  403MOL0     H53151   2.146   0.009   2.811 -1.1649  0.1935  0.0159
  403MOL0     H53152   1.940   0.084   2.827 -2.2190 -2.3422  0.4415
  403MOL0     H53153   2.019   0.206   2.919 -1.6300  0.4984 -4.5863
  403MOL0     H53154   1.829  -0.012   3.023  1.3227 -1.1452  4.8124
  403MOL0     H53155   1.932   0.083   3.130 -2.8158  0.8500  1.2046
  403MOL0     H53156   1.827   0.284   3.069 -1.5131  0.2697  1.3836
  403MOL0     H53157   1.704   0.157   3.093 -1.1241  2.2107  0.6875
  403MOL0     H53158   1.599   0.365   3.074 -3.4062 -2.5877  1.8000
  403MOL0     H53159   1.371   0.477   3.034 -0.3212 -1.8443  1.7304
  403MOL0     H53160   0.972   0.561   2.828 -1.1516 -0.0930 -0.0225
  403MOL0     H53161   0.798   0.728   2.783 -0.0281 -0.1744  0.3781
  403MOL0     H53162   0.644   0.892   2.846  0.0538 -3.1964 -1.0398
  403MOL0     H53163   0.703   0.907   2.682  0.1582 -0.4052  0.8682
  403MOL0     H53164   0.640   1.149   2.680 -0.5346 -1.3159 -1.1875
  403MOL0     H53165   0.622   1.148   2.861 -0.1318  1.3959 -1.0362
  403MOL0     H53166   0.402   1.021   2.831  1.5411 -1.0622  1.0975
  403MOL0     H53167   0.428   1.025   2.663  1.9067 -0.5227 -1.6385
  403MOL0     H53168   0.420   1.262   2.851  1.2173  0.6121 -0.2691
  403MOL0     H53169   0.443   1.287   2.673  0.5118  3.6665  3.1787
  403MOL0     H53170   0.185   1.202   2.824 -2.1181  1.7650 -0.5210
  403MOL0     H53171   0.199   1.160   2.662  2.0449 -1.9591  2.2297
  403MOL0     H53172   0.241   1.391   2.593  2.8796 -2.5042 -0.0800
  403MOL0     H53173   0.270   1.426   2.759  0.9767  0.3889 -0.5901
  403MOL0     H53174   0.034   1.374   2.813  0.4920  0.7458  0.6513
  403MOL0     H53175   0.044   1.515   2.710 -2.0778  0.1586  1.8549
  403MOL0     H53176  -0.014   1.233   2.614  0.7391 -0.1510  1.6826
  403MOL0     H53177  -0.005   1.374   2.508  3.4429  1.0472  1.5190
  403MOL0     H53178   1.070   1.040   2.890  0.2144  0.6146 -4.4043
  403MOL0     H53179   1.246   0.876   2.938 -0.1902  0.1188  1.1794
  403MOL0     H53180   1.388   0.359   2.635 -1.8051 -1.7877  1.6153
  403MOL0     H53181   1.607   0.253   2.664  0.0530 -2.0670  1.5734
  403MOL0     H53182   3.397  -0.278   2.881  0.2929 -0.9676  0.2509
  403MOL0     H53183   3.645  -0.279   2.825  0.9316  0.1981  0.3994
  403MOL0     H53184   4.011  -0.162   2.811 -1.6320  0.9244  1.2581
  403MOL0     H53185   4.259  -0.159   2.816  2.2396  2.0700 -0.6761
  403MOL0     H53186   4.469  -0.136   2.791  1.9279  0.3251  2.2068
  403MOL0     H53187   4.470   0.033   2.841  0.9654 -1.9241  1.7463
  403MOL0     H53188   4.661   0.093   2.702  0.9314 -0.4395 -1.6092
  403MOL0     H53189   4.695  -0.033   2.811  1.8110  1.0064 -0.2146
  403MOL0     H53190   4.659  -0.203   2.640 -0.2250  0.1670 -0.8986
  403MOL0     H53191   4.798  -0.079   2.613  0.2592  0.3976 -3.0105
  403MOL0     H53192   4.537  -0.117   2.460  0.3310  0.4308  0.6616
  403MOL0     H53193   4.608   0.045   2.469  0.6251  0.2709  1.4422
  403MOL0     H53194   4.924  -0.148   2.250  1.4426 -0.4286  1.6493
  403MOL0     H53195   4.263   0.161   2.519  0.6014  0.1112  1.5599
  403MOL0     H53196   4.019   0.162   2.529  2.1254  2.1024  0.3714
  404MOL0     O53197  10.999   0.829   0.638 -0.2710  0.4841 -0.6333
  404MOL0     C53198  11.059   0.889   0.728  0.1748  0.3644 -0.0262
  404MOL0     O53199  11.014   0.994   0.806 -0.0394 -0.4817  0.5708
  404MOL0     C53200  10.870   1.020   0.804 -0.2115  0.8091 -0.0665
  404MOL0     C53201  10.777   0.919   0.836  0.3256 -0.0505  0.7168
  404MOL0     C53202  10.646   0.952   0.830  0.2802 -1.0667 -0.2214
  404MOL0     C53203  10.598   1.081   0.799 -0.2708  0.4921 -0.7634
  404MOL0     O53204  10.462   1.099   0.814 -0.1398 -0.2325 -0.7135
  404MOL0     C53205  10.408   1.229   0.772 -1.1659  0.7321  0.0060
  404MOL0     C53206  10.265   1.249   0.780  0.4691 -0.3821  0.4050
  404MOL0     C53207  10.198   1.110   0.735 -0.8194  0.0695 -0.3529
  404MOL0     C53208  10.041   1.119   0.722 -0.0161  0.2727  1.0408
  404MOL0     C53209   9.989   1.001   0.629  0.5514  0.1281  0.2527
  404MOL0     C53210   9.847   1.015   0.563 -0.1215  0.9309 -0.2828
  404MOL0     C53211   9.830   1.138   0.473  0.6313 -0.3581 -0.2234
  404MOL0     C53212   9.919   1.158   0.353 -0.2739  0.6122  0.3982
  404MOL0     N53213   9.945   1.028   0.287  0.9158 -1.0480  0.1365
  404MOL0     C53214  10.061   0.955   0.288  0.9250 -0.8336 -0.0085
  404MOL0     C53215  10.027   0.841   0.217  0.2506  0.2492 -0.6811
  404MOL0     C53216  10.100   0.717   0.213 -1.2380 -0.3783  0.7620
  404MOL0     C53217  10.177   0.695   0.079  0.0735  0.0887 -0.0965
  404MOL0     C53218  10.077   0.699  -0.038 -0.1767  0.2163 -0.1712
  404MOL0     C53219  10.145   0.637  -0.163 -0.0456 -0.4154 -0.5108
  404MOL0     O53220  10.142   0.496  -0.163  0.6656  0.8518  0.0335
  404MOL0     C53221  10.019   0.436  -0.195 -0.8622  0.1626 -0.2969
  404MOL0     C53222   9.897   0.502  -0.224  1.4484  0.2977 -0.0861
  404MOL0     C53223   9.789   0.417  -0.265 -0.3116 -0.5922 -1.2945
  404MOL0     C53224   9.790   0.275  -0.269 -0.0213  1.0403  0.4963
  404MOL0     C53225   9.677   0.188  -0.321  0.0321 -0.5486  0.3627
  404MOL0     O53226   9.675   0.062  -0.275 -0.1085 -0.1632  0.8177
  404MOL0     C53227   9.572  -0.019  -0.319 -0.0109 -0.3972  0.8137
  404MOL0     C53228   9.592  -0.096  -0.431 -0.4962  0.1728  0.5570
  404MOL0     C53229   9.505  -0.201  -0.459  0.5591  0.2709 -0.8563
  404MOL0     C53230   9.381  -0.226  -0.393 -0.6662 -0.7115  0.8220
  404MOL0     O53231   9.298  -0.313  -0.444  0.0511  0.0354 -0.6655
  404MOL0     C53232   9.315  -0.447  -0.397 -0.5062 -0.1264  0.8726
  404MOL0     C53233   9.447  -0.514  -0.444 -0.8475  0.2418 -0.4832
  404MOL0     C53234   9.461  -0.651  -0.366  0.3470 -0.5835  1.1243
  404MOL0     C53235   9.600  -0.721  -0.375 -0.1485 -0.6485 -0.5793
  404MOL0     C53236   9.600  -0.859  -0.307 -0.1374 -0.5687  0.1468
  404MOL0     C53237   9.581  -0.862  -0.150 -1.0058 -0.0394  0.5920
  404MOL0     C53238   9.699  -0.810  -0.077 -0.1819  0.7911 -0.3497
  404MOL0     C53239   9.689  -0.853   0.072 -0.8132 -0.5151 -0.2527
  404MOL0    Cl53240   9.535  -0.819   0.160 -0.3288  0.1121  0.0504
  404MOL0     C53241   9.353  -0.129  -0.296 -0.4689  0.6412  0.2035
  404MOL0     C53242   9.442  -0.028  -0.261 -0.7232 -0.2803 -0.0264
  404MOL0     O53243   9.583   0.242  -0.387  1.0527  0.6011 -0.1777
  404MOL0     C53244   9.918   0.211  -0.234 -0.8063  0.6505  0.4259
  404MOL0     C53245  10.031   0.295  -0.203  1.0735  0.2154  0.0862
  404MOL0     N53246   9.892   0.844   0.189 -0.9903  0.1727  0.7795
  404MOL0     N53247   9.846   0.955   0.233  0.2058  0.7913 -1.0757
  404MOL0     C53248  10.696   1.186   0.759  1.8008  0.2596 -1.2734
  404MOL0     C53249  10.826   1.150   0.757 -0.0321  0.4602  1.2108
  404MOL0     C53250  11.205   0.856   0.751 -0.8140 -0.4670  0.4995
  404MOL0     C53251  11.280   0.768   0.660 -0.2996 -0.3417 -0.6001
  404MOL0     C53252  11.405   0.722   0.690 -0.5609  0.2630  0.3855
  404MOL0     C53253  11.473   0.771   0.797  0.6317  0.1017 -0.0503
  404MOL0     O53254  11.607   0.764   0.821 -0.1453  0.0747  0.7872
  404MOL0     C53255  11.704   0.725   0.723  1.0530  0.2016 -0.2260
  404MOL0     C53256  11.763   0.576   0.726  0.0616 -0.2294 -0.5434
  404MOL0     C53257  11.846   0.546   0.863  0.9068  0.1166  0.0792
  404MOL0     C53258  11.764   0.458   0.955  0.2319  0.8440 -0.2682
  404MOL0     C53259  11.768   0.327   0.884 -0.3250 -0.7439 -0.9984
  404MOL0     C53260  11.789   0.222   0.825  0.2834 -0.4304 -0.1936
  404MOL0     C53261  11.403   0.855   0.884 -0.1233  0.4182 -0.0292
  404MOL0     C53262  11.265   0.895   0.875  0.5064 -0.1836 -0.2697
  404MOL0     H53263  10.804   0.820   0.872 -3.3799 -1.8604 -0.8795
  404MOL0     H53264  10.581   0.880   0.879  0.0308 -0.6203  0.1080
  404MOL0     H53265  10.441   1.250   0.669 -0.6182  2.6924  0.5375
  404MOL0     H53266  10.456   1.307   0.831 -0.6879 -0.4308  1.2071
  404MOL0     H53267  10.237   1.331   0.712  0.9831  0.2069  0.8866
  404MOL0     H53268  10.241   1.276   0.883 -1.2988 -0.0051 -0.0498
  404MOL0     H53269  10.221   1.030   0.805  1.3030  1.3455  0.4866
  404MOL0     H53270  10.246   1.083   0.640 -0.9893  1.7469 -0.9627
  404MOL0     H53271  10.006   1.118   0.826 -1.0025  1.4036  0.7518
  404MOL0     H53272  10.012   1.213   0.674 -0.4202 -0.8566 -1.0572
  404MOL0     H53273   9.997   0.903   0.677  1.8290 -1.7621 -3.4005
  404MOL0     H53274  10.055   0.990   0.543 -1.1307  1.1839 -1.2549
  404MOL0     H53275   9.769   1.044   0.635 -0.6427  1.3835 -1.0114
  404MOL0     H53276   9.812   0.925   0.513  1.9143  1.0418 -2.0416
  404MOL0     H53277   9.727   1.139   0.435  0.1274  2.1571  1.0121
  404MOL0     H53278   9.839   1.222   0.543 -1.5220 -0.0965 -0.1977
  404MOL0     H53279  10.008   1.211   0.387 -1.4675  0.2104  4.8090
  404MOL0     H53280   9.878   1.217   0.271 -2.4632 -1.2417  0.0248
  404MOL0     H53281  10.154   0.982   0.336  0.0946 -1.7614  2.2698
  404MOL0     H53282  10.026   0.640   0.232 -0.3902 -1.1213  1.1298
  404MOL0     H53283  10.166   0.718   0.301  0.2495 -1.4067 -0.2846
  404MOL0     H53284  10.236   0.603   0.080  0.5076  0.3104 -1.8099
  404MOL0     H53285  10.262   0.763   0.074 -0.0462  0.2214 -0.3582
  404MOL0     H53286   9.982   0.649  -0.021 -2.3792  3.2378 -2.6183
  404MOL0     H53287  10.055   0.803  -0.062 -1.2897 -0.1195 -0.6318
  404MOL0     H53288  10.250   0.669  -0.163  0.2848 -1.3545  1.7026
  404MOL0     H53289  10.101   0.687  -0.250  0.8753  0.1806 -0.6567
  404MOL0     H53290   9.887   0.610  -0.227 -3.3326  0.1047  0.8530
  404MOL0     H53291   9.693   0.464  -0.280  1.4543  2.7829 -3.3713
  404MOL0     H53292   9.683  -0.079  -0.488  0.2368  1.3692  2.0013
  404MOL0     H53293   9.532  -0.278  -0.530 -1.1216  0.4146 -1.6999
  404MOL0     H53294   9.239  -0.520  -0.424 -0.2489 -0.2981  0.6084
  404MOL0     H53295   9.324  -0.438  -0.288 -2.3731 -0.7728  1.1152
  404MOL0     H53296   9.531  -0.446  -0.422 -0.6078 -0.8928  2.6311
  404MOL0     H53297   9.451  -0.539  -0.550 -0.5591 -0.3558 -0.3379
  404MOL0     H53298   9.384  -0.721  -0.399  0.2030 -0.7994  1.8933
  404MOL0     H53299   9.437  -0.635  -0.260 -1.1100  0.8798  0.6253
  404MOL0     H53300   9.619  -0.725  -0.482 -0.6999  1.5344 -0.8032
  404MOL0     H53301   9.672  -0.658  -0.321 -1.2110  2.2364 -2.3317
  404MOL0     H53302   9.689  -0.911  -0.344 -0.6542 -1.5282  0.2264
  404MOL0     H53303   9.525  -0.928  -0.346  1.1535 -1.3757 -0.9972
  404MOL0     H53304   9.570  -0.962  -0.107  2.0228 -0.7943 -0.1305
  404MOL0     H53305   9.489  -0.805  -0.135 -0.7507  0.0800  1.8373
  404MOL0     H53306   9.791  -0.851  -0.121  1.2399  0.4677  2.6668
  404MOL0     H53307   9.710  -0.703  -0.096  1.4347  0.6755 -0.2064
  404MOL0     H53308   9.762  -0.788   0.122  0.4673 -0.9692 -1.4725
  404MOL0     H53309   9.716  -0.959   0.083 -1.4475 -0.5996  0.5868
  404MOL0     H53310   9.261  -0.135  -0.239  1.0480 -1.3802  2.6466
  404MOL0     H53311   9.434   0.033  -0.171  1.0813 -0.3247  0.2093
  404MOL0     H53312   9.927   0.103  -0.235 -2.9331  0.4227 -0.8009
  404MOL0     H53313  10.132   0.262  -0.180  1.1345  1.1841  1.3353
  404MOL0     H53314  10.663   1.286   0.729 -0.1148 -0.1506 -0.6721
  404MOL0     H53315  10.910   1.205   0.716  0.0413 -1.5947 -1.7654
  404MOL0     H53316  11.234   0.725   0.571  1.2014  0.5140 -1.8370
  404MOL0     H53317  11.461   0.650   0.632  1.7795  1.2981  1.2194
  404MOL0     H53318  11.796   0.782   0.732  0.9686  0.5524 -1.4040
  404MOL0     H53319  11.679   0.743   0.618  1.1105 -2.1089 -0.6815
  404MOL0     H53320  11.677   0.508   0.720 -0.7406  0.4894  1.7473
  404MOL0     H53321  11.825   0.565   0.637  0.8929 -1.2069  0.1285
  404MOL0     H53322  11.876   0.638   0.915 -1.9107  2.0970 -1.5130
  404MOL0     H53323  11.941   0.499   0.837  1.4819  1.8742 -1.2666
  404MOL0     H53324  11.810   0.453   1.055 -2.2139 -1.3929  0.8743
  404MOL0     H53325  11.664   0.500   0.964  1.6132  4.0133  2.5224
  404MOL0     H53326  11.829   0.130   0.788  1.2241 -1.2461  2.6155
  404MOL0     H53327  11.463   0.899   0.963 -0.5744 -0.6321  0.9170
  404MOL0     H53328  11.206   0.956   0.944  2.9106  2.1816 -0.1226
  405MOL0     O53329   6.608   0.020   9.192  0.4131  0.2258 -0.3882
  405MOL0     C53330   6.687  -0.048   9.254  0.3791 -0.2900  1.1078
  405MOL0     O53331   6.659  -0.153   9.338  0.9271 -0.4466  0.2781
  405MOL0     C53332   6.529  -0.183   9.358 -0.1973 -0.1388  0.5286
  405MOL0     C53333   6.445  -0.208   9.248 -0.6730 -0.7957  0.5972
  405MOL0     C53334   6.321  -0.264   9.272  0.2218 -0.3503  0.4045
  405MOL0     C53335   6.268  -0.289   9.403 -0.1207 -0.5315  0.4613
  405MOL0     O53336   6.141  -0.345   9.397 -0.6315 -0.7942 -0.2996
  405MOL0     C53337   6.089  -0.400   9.524  0.1782 -0.3313  0.8458
  405MOL0     C53338   5.952  -0.453   9.492  0.5094 -0.0066 -0.4496
  405MOL0     C53339   5.935  -0.589   9.562  0.9356 -0.7029  0.2649
  405MOL0     C53340   5.961  -0.572   9.715  0.8261  2.1569  0.2265
  405MOL0     C53341   5.854  -0.495   9.791 -0.0139  0.0117 -0.4678
  405MOL0     C53342   5.710  -0.534   9.755  0.2064  0.6984  0.5446
  405MOL0     C53343   5.618  -0.466   9.845 -0.3530  0.0298 -0.5892
  405MOL0     C53344   5.606  -0.533   9.986 -0.1399 -0.3016 -0.4201
  405MOL0     N53345   5.499  -0.638   9.993 -0.2008  0.9726  0.6267
  405MOL0     C53346   5.480  -0.721  10.106  0.8269  0.5790 -0.6176
  405MOL0     C53347   5.394  -0.821  10.050 -1.1205 -0.3419 -0.2622
  405MOL0     C53348   5.327  -0.925  10.129  0.3935  0.0571  0.5918
  405MOL0     C53349   5.253  -0.879  10.256 -0.2032 -0.0849  0.2936
  405MOL0     C53350   5.169  -0.995  10.310  0.3287  0.1496  0.1199
  405MOL0     C53351   5.035  -1.019  10.240  0.1026 -0.4626 -0.7481
  405MOL0     O53352   4.928  -0.942  10.295  0.2775  0.3024  0.1854
  405MOL0     C53353   4.799  -0.961  10.247  0.2679  0.5932 -0.4840
  405MOL0     C53354   4.708  -0.876  10.303 -0.6630  0.4217  0.4003
  405MOL0     C53355   4.582  -0.864  10.246 -0.2841 -1.0496 -0.1317
  405MOL0     C53356   4.547  -0.931  10.129 -0.0796 -0.6239 -0.9100
  405MOL0     C53357   4.429  -0.887  10.051 -0.0792  0.1957 -0.4696
  405MOL0     O53358   4.372  -0.772  10.090  0.2660  0.0342  0.4041
  405MOL0     C53359   4.264  -0.740  10.022 -0.2741 -0.8081 -1.6484
  405MOL0     C53360   4.147  -0.824  10.024  0.8879 -0.1171  0.9991
  405MOL0     C53361   4.035  -0.790   9.949 -0.4506  0.2052  0.2619
  405MOL0     C53362   4.025  -0.669   9.883 -0.6485  0.1736 -0.0368
  405MOL0     O53363   3.907  -0.640   9.812 -0.5571 -1.2448  0.1532
  405MOL0     C53364   3.872  -0.502   9.775  0.2199 -0.2241  0.2711
  405MOL0     C53365   3.739  -0.497   9.701  0.1897 -0.0261  0.0216
  405MOL0     C53366   3.697  -0.362   9.648  0.3017 -0.4524 -0.0885
  405MOL0     C53367   3.702  -0.250   9.751 -0.3828  0.4288 -0.7210
  405MOL0     C53368   3.637  -0.129   9.711  0.2898 -0.8668 -0.6252
  405MOL0     C53369   3.619  -0.050   9.837  0.0626  0.2530  0.2204
  405MOL0     C53370   3.605   0.101   9.788 -0.6041  0.6058 -0.3248
  405MOL0     C53371   3.539   0.196   9.884  1.1274  0.3039 -0.1123
  405MOL0    Cl53372   3.535   0.346   9.806 -0.4029  0.2173  0.2007
  405MOL0     C53373   4.140  -0.585   9.875 -0.1571 -0.5145  0.7123
  405MOL0     C53374   4.259  -0.622   9.948  0.1935  0.8254 -0.2298
  405MOL0     O53375   4.402  -0.953   9.959  0.2426 -0.3111 -0.8505
  405MOL0     C53376   4.636  -1.032  10.081 -1.0248  0.4501 -0.4162
  405MOL0     C53377   4.765  -1.036  10.140 -0.0761 -0.4903  0.5627
  405MOL0     N53378   5.370  -0.784   9.920 -0.9670 -0.0057 -0.7621
  405MOL0     N53379   5.436  -0.685   9.882  0.7885 -0.2486  0.1232
  405MOL0     C53380   6.354  -0.280   9.510 -0.0762 -0.3563  0.0193
  405MOL0     C53381   6.484  -0.220   9.483 -0.8982 -0.2996  0.1040
  405MOL0     C53382   6.834  -0.026   9.237  0.7154  0.2129 -0.7513
  405MOL0     C53383   6.924  -0.107   9.304  0.3173 -0.2221 -0.3165
  405MOL0     C53384   7.062  -0.094   9.276 -1.3671 -0.2062  0.1239
  405MOL0     C53385   7.111   0.001   9.181 -0.3308 -0.0703  0.6144
  405MOL0     O53386   7.245  -0.008   9.136 -0.1706  0.1507  0.3169
  405MOL0     C53387   7.275   0.054   9.011 -0.5774  0.0786  0.1426
  405MOL0     C53388   7.425   0.033   8.987 -0.5133  0.5042  0.4277
  405MOL0     C53389   7.458   0.002   8.839  0.7485  0.3414 -0.0090
  405MOL0     C53390   7.417   0.130   8.746 -0.6543  0.1684  1.0318
  405MOL0     C53391   7.285   0.112   8.682 -0.2974  0.4313  0.0138
  405MOL0     C53392   7.179   0.118   8.615 -0.1363 -0.0952 -0.2766
  405MOL0     C53393   7.010   0.079   9.116 -0.3830  0.2298  0.7278
  405MOL0     C53394   6.873   0.063   9.138 -0.9529 -0.3400 -0.5253
  405MOL0     H53395   6.484  -0.202   9.147 -0.5893 -2.0380  0.5433
  405MOL0     H53396   6.260  -0.301   9.191  1.5109 -0.3261 -0.6189
  405MOL0     H53397   6.079  -0.316   9.594  1.8571  1.7223 -1.2482
  405MOL0     H53398   6.159  -0.473   9.564  0.5351 -0.7784 -0.5447
  405MOL0     H53399   5.941  -0.457   9.383 -1.2349  0.7822 -0.3392
  405MOL0     H53400   5.876  -0.383   9.528 -1.2363 -2.2501  0.4463
  405MOL0     H53401   6.013  -0.653   9.520 -1.8660 -4.0911 -0.2149
  405MOL0     H53402   5.839  -0.635   9.539 -1.2226  2.7833  1.5105
  405MOL0     H53403   5.970  -0.671   9.762 -2.3588  2.3605  1.5420
  405MOL0     H53404   6.058  -0.528   9.738  1.6696  0.6195 -0.2712
  405MOL0     H53405   5.872  -0.388   9.777  5.7373 -0.6842 -0.8774
  405MOL0     H53406   5.859  -0.503   9.900  0.0564 -1.9542 -0.5821
  405MOL0     H53407   5.691  -0.642   9.754 -1.5419  0.9050 -2.5399
  405MOL0     H53408   5.678  -0.519   9.651 -0.5362 -2.5839  0.1861
  405MOL0     H53409   5.653  -0.362   9.843  1.3762 -0.5074 -0.1676
  405MOL0     H53410   5.520  -0.473   9.799 -0.2987  0.2963 -0.7471
  405MOL0     H53411   5.592  -0.457  10.063 -1.3899 -0.6412 -0.2901
  405MOL0     H53412   5.699  -0.588  10.006  0.1022  0.0051 -0.7007
  405MOL0     H53413   5.518  -0.715  10.208  1.9150  1.5828 -1.0567
  405MOL0     H53414   5.399  -0.998  10.168 -2.3898 -1.4513  3.3789
  405MOL0     H53415   5.264  -0.975  10.056  0.6656 -0.9785  1.0389
  405MOL0     H53416   5.189  -0.792  10.237 -0.7030 -0.8086 -1.5681
  405MOL0     H53417   5.331  -0.839  10.321 -1.6007  1.3821  1.1343
  405MOL0     H53418   5.226  -1.087  10.288 -2.3528 -1.4891 -0.4852
  405MOL0     H53419   5.154  -0.966  10.414 -1.2040  1.2398 -0.3752
  405MOL0     H53420   5.020  -1.126  10.255  1.0012 -0.3409  1.3487
  405MOL0     H53421   5.046  -0.993  10.134  2.0248  0.3565 -0.3927
  405MOL0     H53422   4.735  -0.799  10.374  1.0048 -0.1079  0.3900
  405MOL0     H53423   4.527  -0.788  10.299  0.7422 -3.1633  4.4728
  405MOL0     H53424   4.149  -0.922  10.072 -0.1894  1.0575  3.6660
  405MOL0     H53425   3.959  -0.867   9.952  2.7521 -3.3406 -0.7262
  405MOL0     H53426   3.952  -0.461   9.712  2.8971 -0.3833  3.2958
  405MOL0     H53427   3.868  -0.432   9.859 -0.0370 -0.9850  0.9035
  405MOL0     H53428   3.664  -0.525   9.775  2.2022  0.5383  2.4179
  405MOL0     H53429   3.750  -0.564   9.614  4.0961 -1.0303  1.0951
  405MOL0     H53430   3.589  -0.368   9.631 -0.0755  2.4484  0.7157
  405MOL0     H53431   3.750  -0.329   9.558 -2.1225  1.6995 -0.8342
  405MOL0     H53432   3.664  -0.290   9.846  0.4085  1.3474  0.0057
  405MOL0     H53433   3.808  -0.226   9.767 -0.4144  0.8530 -1.1417
  405MOL0     H53434   3.538  -0.154   9.673  0.1262  1.3237 -1.8484
  405MOL0     H53435   3.711  -0.079   9.647  0.7296  0.1914  0.6692
  405MOL0     H53436   3.698  -0.068   9.911 -1.5470 -0.2342  1.9143
  405MOL0     H53437   3.521  -0.071   9.883 -0.3125 -1.7658 -1.3480
  405MOL0     H53438   3.707   0.137   9.777 -0.4140  0.1775 -0.0215
  405MOL0     H53439   3.555   0.102   9.691  3.2275 -2.1229 -2.5907
  405MOL0     H53440   3.601   0.198   9.973  2.1103 -0.6666 -0.7484
  405MOL0     H53441   3.436   0.174   9.914  1.2331 -0.5204 -0.3210
  405MOL0     H53442   4.151  -0.498   9.811  3.6094 -0.1244  1.6193
  405MOL0     H53443   4.353  -0.568   9.941 -0.0155  1.1201 -0.7936
  405MOL0     H53444   4.624  -1.093   9.992 -1.1673 -0.8740  0.4910
  405MOL0     H53445   4.838  -1.099  10.090 -1.0706 -3.1846  2.2671
  405MOL0     H53446   6.329  -0.321   9.607  0.4962  0.0465  0.3413
  405MOL0     H53447   6.550  -0.207   9.569 -0.1155  0.3120 -0.5739
  405MOL0     H53448   6.899  -0.186   9.374  2.8719 -0.3110  0.5931
  405MOL0     H53449   7.131  -0.168   9.316 -2.5337 -1.7434 -0.5846
  405MOL0     H53450   7.257   0.161   9.021 -0.7107  0.1495 -0.7685
  405MOL0     H53451   7.213   0.017   8.928 -1.7124  2.4272 -0.1229
  405MOL0     H53452   7.478   0.125   9.014 -1.0400  1.1358 -0.6452
  405MOL0     H53453   7.462  -0.047   9.053 -0.1124 -0.6080 -1.0859
  405MOL0     H53454   7.413  -0.095   8.814  1.4716 -0.2262  0.8439
  405MOL0     H53455   7.566  -0.016   8.833  1.4592  4.0407 -1.2161
  405MOL0     H53456   7.413   0.219   8.810 -1.5184  1.4728 -0.7681
  405MOL0     H53457   7.485   0.154   8.664 -2.0111 -3.3487 -1.3390
  405MOL0     H53458   7.093   0.131   8.553  0.7152 -3.1620 -2.3446
  405MOL0     H53459   7.031   0.141   9.030 -2.9227 -2.7141 -2.2764
  405MOL0     H53460   6.799   0.115   9.077  1.8962  1.1861 -2.8955
  406MOL0     O53461   5.717   7.504   5.236 -0.3692  0.0790 -0.2571
  406MOL0     C53462   5.721   7.579   5.337 -0.2893  0.7924 -0.0216
  406MOL0     O53463   5.838   7.599   5.411  0.6723 -0.4127  0.5948
  406MOL0     C53464   5.949   7.528   5.387  0.2263 -0.2799 -0.5662
  406MOL0     C53465   6.007   7.523   5.259 -0.3400  0.9996  0.2796
  406MOL0     C53466   6.120   7.452   5.225 -0.3667 -0.1672 -0.7297
  406MOL0     C53467   6.184   7.389   5.332  0.3141  0.7723  0.2565
  406MOL0     O53468   6.307   7.332   5.315 -0.0498 -0.0685 -0.8247
  406MOL0     C53469   6.316   7.250   5.198  0.1323 -0.1826 -0.0451
  406MOL0     C53470   6.435   7.157   5.229 -0.5087  1.0541  0.3952
  406MOL0     C53471   6.566   7.238   5.234 -0.5216  0.5165 -0.0036
  406MOL0     C53472   6.684   7.144   5.239 -0.8660  0.0597  0.0342
  406MOL0     C53473   6.758   7.117   5.109  0.0325 -0.6778  0.7845
  406MOL0     C53474   6.897   7.046   5.122  0.4591  0.0490  0.2360
  406MOL0     C53475   6.960   7.015   4.989  0.6428  0.4159  0.3363
  406MOL0     C53476   7.097   6.953   4.999 -0.1394 -0.9430 -0.3148
  406MOL0     N53477   7.140   6.918   4.865  0.0964 -0.5587 -0.1501
  406MOL0     C53478   7.268   6.862   4.842  0.7466 -1.0914 -0.0911
  406MOL0     C53479   7.274   6.833   4.707 -0.2992 -0.1694 -0.9699
  406MOL0     C53480   7.379   6.751   4.638 -0.3709  0.2901  0.3904
  406MOL0     C53481   7.404   6.618   4.708  0.1923  0.7120 -0.0592
  406MOL0     C53482   7.266   6.534   4.718 -0.7733 -0.0216 -0.3714
  406MOL0     C53483   7.202   6.540   4.584 -0.0231  0.6825  1.3666
  406MOL0     O53484   7.127   6.422   4.555  0.2129  0.1119 -0.4296
  406MOL0     C53485   7.041   6.415   4.449 -0.2056 -0.4414 -0.0902
  406MOL0     C53486   6.975   6.294   4.425 -0.4220 -0.8535  0.0801
  406MOL0     C53487   6.889   6.284   4.308 -0.9950 -0.0285 -1.5519
  406MOL0     C53488   6.848   6.397   4.231  0.7797  0.9839  0.0858
  406MOL0     C53489   6.735   6.390   4.132  0.4880  0.3423  0.0504
  406MOL0     O53490   6.699   6.515   4.099  0.0818  0.9303  0.4968
  406MOL0     C53491   6.576   6.547   4.033  0.0367 -0.3107 -0.3764
  406MOL0     C53492   6.460   6.465   4.038  0.8430  0.6891 -0.0036
  406MOL0     C53493   6.346   6.504   3.985  0.1140  0.0400  0.3543
  406MOL0     C53494   6.333   6.623   3.918  0.9418 -0.1717 -0.4262
  406MOL0     O53495   6.203   6.649   3.891  0.1971 -0.1676  0.0350
  406MOL0     C53496   6.156   6.789   3.890  0.4932 -0.6063 -0.3169
  406MOL0     C53497   6.036   6.797   3.802  0.2630 -1.2771 -0.2922
  406MOL0     C53498   5.907   6.733   3.852 -0.0753  0.9054  0.0776
  406MOL0     C53499   5.776   6.754   3.773  0.0612  1.1317  0.0846
  406MOL0     C53500   5.763   6.683   3.645  0.6685  0.6172  0.0164
  406MOL0     C53501   5.750   6.531   3.641  0.2048 -0.1468 -0.4349
  406MOL0     C53502   5.732   6.471   3.497 -0.1080 -0.5115 -0.6563
  406MOL0     C53503   5.721   6.326   3.503 -0.8946  0.1545  0.4529
  406MOL0    Cl53504   5.689   6.268   3.333  0.0567 -0.3340  0.0236
  406MOL0     C53505   6.444   6.706   3.902  0.3446  0.5296 -0.1423
  406MOL0     C53506   6.567   6.662   3.965 -0.2903 -0.1171  0.4978
  406MOL0     O53507   6.681   6.288   4.095 -0.3418  0.1037 -0.1030
  406MOL0     C53508   6.921   6.517   4.270  1.0207 -0.0393  1.0171
  406MOL0     C53509   7.014   6.522   4.365  0.3613 -0.6556  0.4278
  406MOL0     N53510   7.163   6.889   4.651 -0.0127  0.7548 -0.3957
  406MOL0     N53511   7.082   6.941   4.745  0.1597 -0.0004 -0.6688
  406MOL0     C53512   6.134   7.397   5.466 -0.1456 -0.7254  0.2059
  406MOL0     C53513   6.018   7.464   5.494 -0.2122  0.9399  0.4091
  406MOL0     C53514   5.586   7.643   5.367 -0.2540 -0.3865  0.6239
  406MOL0     C53515   5.561   7.691   5.495  0.4014 -0.7356 -0.0324
  406MOL0     C53516   5.435   7.724   5.536  0.1741 -0.3147 -0.5318
  406MOL0     C53517   5.328   7.707   5.452 -0.5913  0.4048 -0.5727
  406MOL0     O53518   5.209   7.747   5.505  0.1494  0.7754  0.1482
  406MOL0     C53519   5.104   7.779   5.411  0.4430 -0.1945 -0.3773
  406MOL0     C53520   4.995   7.864   5.469  0.0719 -0.6046 -0.6204
  406MOL0     C53521   4.894   7.943   5.380  0.1933 -1.3125 -0.0888
  406MOL0     C53522   4.777   7.866   5.319 -0.6690  0.4966 -0.5162
  406MOL0     C53523   4.819   7.803   5.194  0.1484  0.3418 -1.4749
  406MOL0     C53524   4.848   7.768   5.087  0.2236 -0.9899 -1.0372
  406MOL0     C53525   5.350   7.662   5.321  0.9823  0.2334 -0.6329
  406MOL0     C53526   5.479   7.633   5.277 -0.6242  0.2686 -0.5639
  406MOL0     H53527   5.964   7.564   5.168 -2.0133 -2.5438 -0.7230
  406MOL0     H53528   6.152   7.446   5.121  0.5241 -2.2788 -0.3816
  406MOL0     H53529   6.338   7.316   5.114  0.7371  0.8493  0.8959
  406MOL0     H53530   6.223   7.197   5.178  0.3010 -0.8584  0.9079
  406MOL0     H53531   6.440   7.086   5.147 -0.9276 -1.4804  2.4351
  406MOL0     H53532   6.422   7.098   5.320 -4.9679  5.0588  2.8955
  406MOL0     H53533   6.574   7.301   5.323  5.1573 -0.8787  0.8212
  406MOL0     H53534   6.576   7.299   5.143 -1.0485  1.2398  0.4065
  406MOL0     H53535   6.756   7.201   5.298  0.9267 -0.8074 -1.2425
  406MOL0     H53536   6.660   7.047   5.286  3.4359 -1.3056 -0.2123
  406MOL0     H53537   6.771   7.217   5.067 -1.6735 -0.8798 -0.3109
  406MOL0     H53538   6.682   7.066   5.050 -1.4946 -0.0295  2.1281
  406MOL0     H53539   6.877   6.949   5.169  1.2595 -0.0506  0.3833
  406MOL0     H53540   6.948   7.112   5.193  0.6097 -1.3520  1.4902
  406MOL0     H53541   6.889   6.955   4.931 -1.4142  1.6940  1.4181
  406MOL0     H53542   6.970   7.107   4.931  0.5114 -1.1357 -2.3085
  406MOL0     H53543   7.114   6.876   5.075  1.7810  1.4587  1.8991
  406MOL0     H53544   7.168   7.030   5.031  0.8803 -1.4298 -1.3163
  406MOL0     H53545   7.355   6.842   4.903  2.2380 -0.9797 -2.1074
  406MOL0     H53546   7.471   6.808   4.649 -1.1684  1.7346 -0.0960
  406MOL0     H53547   7.358   6.747   4.530  0.1356  1.4454  0.2315
  406MOL0     H53548   7.446   6.642   4.806 -3.0940 -0.4899  1.7922
  406MOL0     H53549   7.483   6.561   4.657 -1.0511  0.1579 -1.4394
  406MOL0     H53550   7.290   6.434   4.754 -2.0103  0.2110  1.2275
  406MOL0     H53551   7.204   6.567   4.802 -1.0040  0.4808 -0.7312
  406MOL0     H53552   7.279   6.545   4.507 -1.9663 -0.6759 -0.7883
  406MOL0     H53553   7.137   6.627   4.574 -0.7106  0.0994  0.6389
  406MOL0     H53554   6.982   6.215   4.499  0.5031  0.6375  1.6672
  406MOL0     H53555   6.826   6.197   4.290 -0.3603 -0.0767 -3.8656
  406MOL0     H53556   6.457   6.364   4.079  2.0849  0.8196  0.4674
  406MOL0     H53557   6.273   6.425   3.999  1.1873 -1.5586 -2.2851
  406MOL0     H53558   6.230   6.852   3.838  0.1982 -0.2774 -0.3476
  406MOL0     H53559   6.156   6.839   3.987  1.2458  0.0868 -0.6563
  406MOL0     H53560   6.058   6.764   3.701  3.5623 -2.6138  0.7185
  406MOL0     H53561   6.017   6.905   3.807 -4.0410 -1.8927  3.3270
  406MOL0     H53562   5.885   6.763   3.955 -3.0955 -0.9593  0.1149
  406MOL0     H53563   5.925   6.626   3.872 -2.0264  0.2640 -1.3408
  406MOL0     H53564   5.694   6.719   3.838 -0.9899  1.6949 -0.8958
  406MOL0     H53565   5.761   6.859   3.745 -0.2160  0.5832 -1.9735
  406MOL0     H53566   5.842   6.719   3.579  1.8754 -0.8811  0.5708
  406MOL0     H53567   5.669   6.718   3.602 -0.2727 -1.7570 -0.0368
  406MOL0     H53568   5.666   6.506   3.707  1.2436 -0.9154  0.6305
  406MOL0     H53569   5.839   6.499   3.694  0.0976  0.9667  0.4428
  406MOL0     H53570   5.648   6.513   3.441 -0.7484 -1.1826 -0.2094
  406MOL0     H53571   5.827   6.502   3.452  0.8300 -1.4808  0.5766
  406MOL0     H53572   5.634   6.303   3.566 -0.5622  1.1101  1.2801
  406MOL0     H53573   5.815   6.287   3.542  0.1563  2.3035  0.2049
  406MOL0     H53574   6.451   6.801   3.849  0.7464  0.4139 -0.2997
  406MOL0     H53575   6.658   6.722   3.955  1.7943 -3.0880  0.4680
  406MOL0     H53576   6.897   6.613   4.226  0.9559 -0.0165  1.1020
  406MOL0     H53577   7.058   6.616   4.395  0.0816 -1.1585  2.6063
  406MOL0     H53578   6.184   7.362   5.555  2.8502  1.1246 -0.5991
  406MOL0     H53579   5.987   7.478   5.597  0.3250 -0.8206  0.8507
  406MOL0     H53580   5.641   7.688   5.568 -0.6355 -0.5885  1.1497
  406MOL0     H53581   5.416   7.770   5.633 -4.2388  2.4320 -2.3449
  406MOL0     H53582   5.057   7.689   5.370 -0.2571 -1.4355  2.7951
  406MOL0     H53583   5.143   7.832   5.324 -3.2973  1.4511 -1.2456
  406MOL0     H53584   4.934   7.796   5.531 -0.1002  2.4873  2.9856
  406MOL0     H53585   5.047   7.937   5.531  1.6751 -0.6858 -1.8303
  406MOL0     H53586   4.953   8.000   5.308 -1.5735  3.8538  2.1018
  406MOL0     H53587   4.839   8.021   5.433  2.0370  0.6177 -0.8581
  406MOL0     H53588   4.739   7.790   5.388 -0.5382 -1.2229 -2.2330
  406MOL0     H53589   4.707   7.948   5.299 -0.3630  1.1870  1.0925
  406MOL0     H53590   4.873   7.714   4.998  0.0940 -3.0522  0.1123
  406MOL0     H53591   5.271   7.655   5.248  2.1177  4.0529 -2.5210
  406MOL0     H53592   5.496   7.594   5.178 -1.5867 -1.3623 -0.1116
  407MOL0     O53593   2.825   9.134   0.529 -0.1143 -0.1848  0.0700
  407MOL0     C53594   2.730   9.168   0.459  1.1405  0.5970 -0.2946
  407MOL0     O53595   2.744   9.230   0.328  0.2947 -0.0406 -0.9731
  407MOL0     C53596   2.875   9.231   0.273  0.8401 -0.8940 -0.0978
  407MOL0     C53597   3.000   9.244   0.342  0.2323  0.6130  0.2785
  407MOL0     C53598   3.123   9.257   0.278 -0.0061 -0.9559 -0.2329
  407MOL0     C53599   3.129   9.268   0.133 -0.4014 -0.4366  0.5997
  407MOL0     O53600   3.252   9.272   0.068  0.3851  0.3904 -0.2510
  407MOL0     C53601   3.258   9.234  -0.077  0.5433 -0.1653 -0.6572
  407MOL0     C53602   3.269   9.364  -0.172  0.3274 -0.0095 -0.0828
  407MOL0     C53603   3.221   9.345  -0.328 -0.1964  0.4160  0.6273
  407MOL0     C53604   3.069   9.321  -0.326  0.1238  0.2000 -0.3936
  407MOL0     C53605   3.029   9.297  -0.475  0.1123 -0.9688  0.2299
  407MOL0     C53606   3.065   9.410  -0.570 -0.3031  0.6991  0.5149
  407MOL0     C53607   2.993   9.406  -0.705 -0.7171  0.2552  0.4213
  407MOL0     C53608   2.852   9.443  -0.687  1.0081 -0.1675 -0.8739
  407MOL0     N53609   2.822   9.578  -0.639 -0.0325  0.3058  0.9191
  407MOL0     C53610   2.771   9.612  -0.514 -0.5094 -0.0828 -0.4413
  407MOL0     C53611   2.769   9.747  -0.519  0.1999 -0.0388 -0.2950
  407MOL0     C53612   2.715   9.834  -0.408  0.4598  0.4970  0.1920
  407MOL0     C53613   2.683   9.978  -0.449  0.2274 -0.2556 -0.0815
  407MOL0     C53614   2.559   9.995  -0.538  0.2524  0.2743 -0.2904
  407MOL0     C53615   2.421   9.967  -0.488  0.7475 -0.8952 -0.9641
  407MOL0     O53616   2.330   9.979  -0.597  0.3815 -0.1787 -0.0653
  407MOL0     C53617   2.192  10.007  -0.584  0.1704 -0.3635  0.6670
  407MOL0     C53618   2.136  10.045  -0.464  0.1736  0.1773 -0.1482
  407MOL0     C53619   2.004  10.078  -0.459 -0.3718 -1.0372  0.2327
  407MOL0     C53620   1.926  10.079  -0.577 -0.4292 -0.1323  0.1434
  407MOL0     C53621   1.778  10.108  -0.566  0.1862  1.0617 -0.2241
  407MOL0     O53622   1.731  10.106  -0.439 -0.1498 -0.1034 -0.0285
  407MOL0     C53623   1.596  10.099  -0.412  0.1632 -0.8863  0.4623
  407MOL0     C53624   1.497  10.082  -0.507  0.1925 -0.5204  1.3855
  407MOL0     C53625   1.367  10.083  -0.462 -0.7056 -0.1741 -0.7093
  407MOL0     C53626   1.336  10.094  -0.327  0.6576 -0.2575 -0.1033
  407MOL0     O53627   1.205  10.071  -0.280  0.1484  0.0984 -0.1517
  407MOL0     C53628   1.147   9.946  -0.321 -0.1309 -0.0470  0.4034
  407MOL0     C53629   1.021   9.925  -0.229  0.6360  0.2021  0.3881
  407MOL0     C53630   0.903  10.028  -0.258  0.5828 -0.0544 -0.0239
  407MOL0     C53631   0.814   9.996  -0.381  0.2605 -0.0917  0.3817
  407MOL0     C53632   0.748   9.853  -0.356 -0.0951  0.5811 -0.3759
  407MOL0     C53633   0.626   9.822  -0.448 -0.2480  0.3172 -0.3984
  407MOL0     C53634   0.574   9.682  -0.423  0.2191  0.2320 -0.7721
  407MOL0     C53635   0.414   9.673  -0.453 -0.1555 -0.5749 -0.3810
  407MOL0    Cl53636   0.342   9.515  -0.416  0.3771 -0.4749 -0.2279
  407MOL0     C53637   1.435  10.104  -0.230  0.1666  0.0252  0.2388
  407MOL0     C53638   1.566  10.115  -0.276 -0.9486  0.4303  0.3185
  407MOL0     O53639   1.733  10.137  -0.671 -0.0913 -0.1766  0.3755
  407MOL0     C53640   1.990  10.048  -0.703  0.0888  0.2798 -0.2085
  407MOL0     C53641   2.122  10.007  -0.706  0.6724  0.2951 -0.4534
  407MOL0     N53642   2.822   9.788  -0.642  0.1982 -0.5322  0.1658
  407MOL0     N53643   2.850   9.692  -0.717 -0.8368 -0.1640 -0.0891
  407MOL0     C53644   3.004   9.268   0.066  1.2769 -0.4917  0.1028
  407MOL0     C53645   2.880   9.255   0.142  0.1058 -0.7271 -0.0075
  407MOL0     C53646   2.589   9.132   0.497  0.2089  0.5296  0.2881
  407MOL0     C53647   2.562   9.052   0.613 -0.0405 -0.1054 -0.2022
  407MOL0     C53648   2.432   9.030   0.659 -0.4523  0.6827  0.0672
  407MOL0     C53649   2.327   9.087   0.592  0.2915 -0.3629  0.0675
  407MOL0     O53650   2.193   9.060   0.629 -0.5712  0.4181 -0.1973
  407MOL0     C53651   2.154   9.029   0.769  1.4466  1.0242  0.1659
  407MOL0     C53652   2.106   9.157   0.841  0.3495  0.6813 -0.1013
  407MOL0     C53653   2.069   9.123   0.991 -0.0916 -0.0961 -0.0726
  407MOL0     C53654   1.926   9.055   0.993  0.2947 -0.2525 -0.2508
  407MOL0     C53655   1.823   9.163   1.006  0.2965  0.4781 -1.1381
  407MOL0     C53656   1.732   9.244   1.021 -0.3183 -0.3098 -0.1417
  407MOL0     C53657   2.347   9.167   0.477  0.0076 -0.2922 -0.0768
  407MOL0     C53658   2.482   9.189   0.428  0.4772  0.2393 -1.4606
  407MOL0     H53659   3.004   9.232   0.449  2.0562  1.0058  0.2984
  407MOL0     H53660   3.215   9.255   0.335  1.1613  0.3285 -1.9551
  407MOL0     H53661   3.170   9.179  -0.112 -0.6503  2.0805 -1.4510
  407MOL0     H53662   3.346   9.172  -0.098  0.2641 -0.7271 -0.1909
  407MOL0     H53663   3.364   9.418  -0.165 -0.0995  1.2129 -2.5536
  407MOL0     H53664   3.199   9.427  -0.116 -2.3782 -1.1170 -2.0244
  407MOL0     H53665   3.260   9.261  -0.386 -1.8227  1.8136 -2.7404
  407MOL0     H53666   3.258   9.434  -0.379 -0.5002  1.1549  1.6778
  407MOL0     H53667   3.044   9.240  -0.258 -1.2717 -0.1521 -1.2834
  407MOL0     H53668   3.014   9.410  -0.293  0.1374 -1.0323  3.3551
  407MOL0     H53669   2.920   9.292  -0.465 -0.0664 -5.9349 -1.4225
  407MOL0     H53670   3.060   9.205  -0.526 -1.1704 -0.2640 -1.9661
  407MOL0     H53671   3.171   9.419  -0.595 -0.1766  2.0103  1.3753
  407MOL0     H53672   3.035   9.496  -0.509 -1.7395 -0.9486  2.2414
  407MOL0     H53673   3.034   9.484  -0.770  0.6952 -0.5853  0.2603
  407MOL0     H53674   3.018   9.309  -0.749  1.9034  1.4017 -0.8315
  407MOL0     H53675   2.795   9.380  -0.618 -0.6435  0.6792 -1.3848
  407MOL0     H53676   2.806   9.436  -0.786  2.3330 -0.3180 -1.4976
  407MOL0     H53677   2.747   9.539  -0.437  1.4468 -0.6423 -0.3059
  407MOL0     H53678   2.774   9.838  -0.316 -1.1032  0.5319  1.2131
  407MOL0     H53679   2.621   9.783  -0.386 -0.5077  1.7630 -0.8498
  407MOL0     H53680   2.769  10.034  -0.486 -0.4334  0.2441 -0.8909
  407MOL0     H53681   2.652  10.038  -0.363 -3.8696  0.6303 -1.9630
  407MOL0     H53682   2.568  10.103  -0.554  0.0848  0.3762  0.2766
  407MOL0     H53683   2.583   9.946  -0.633  1.6730 -1.4354  0.8869
  407MOL0     H53684   2.399  10.048  -0.417  1.7627  0.5604 -2.2636
  407MOL0     H53685   2.408   9.871  -0.437  2.8859  0.5446  2.6926
  407MOL0     H53686   2.187  10.049  -0.369 -0.1806 -0.2810  0.0642
  407MOL0     H53687   1.964  10.092  -0.359  1.7960  0.3343  0.9733
  407MOL0     H53688   1.511  10.081  -0.615  0.6391  1.2162  1.3929
  407MOL0     H53689   1.286  10.071  -0.532 -1.5121 -1.7599  0.4351
  407MOL0     H53690   1.215   9.862  -0.302 -0.4330 -0.6168 -0.8774
  407MOL0     H53691   1.103   9.951  -0.421 -1.3814 -0.5303  0.9169
  407MOL0     H53692   1.040   9.933  -0.122 -0.7901  3.7784  0.5357
  407MOL0     H53693   0.979   9.825  -0.244 -2.9708  1.5828  0.1571
  407MOL0     H53694   0.949  10.126  -0.271 -0.6712  0.5054 -0.3952
  407MOL0     H53695   0.840  10.018  -0.169 -2.1805 -4.3959 -2.1097
  407MOL0     H53696   0.739  10.075  -0.388  0.4529  0.0127 -0.6228
  407MOL0     H53697   0.870  10.008  -0.474 -1.6581  2.0511 -0.6011
  407MOL0     H53698   0.699   9.862  -0.259  0.0742 -4.1903  0.3552
  407MOL0     H53699   0.808   9.762  -0.350 -0.8779  0.0803  0.0223
  407MOL0     H53700   0.642   9.836  -0.555 -2.2150  0.0036 -0.7561
  407MOL0     H53701   0.554   9.905  -0.444  0.3123  0.8286 -0.6678
  407MOL0     H53702   0.632   9.608  -0.479  1.7615  1.5561 -0.9964
  407MOL0     H53703   0.584   9.653  -0.318 -1.0987  0.2672 -0.6109
  407MOL0     H53704   0.391   9.698  -0.557  3.6747 -0.6463 -1.4124
  407MOL0     H53705   0.371   9.753  -0.392  0.5002  0.9559 -1.8362
  407MOL0     H53706   1.416  10.098  -0.124  0.3962  1.2605  0.3604
  407MOL0     H53707   1.644  10.124  -0.200 -1.6729  2.7349  0.8594
  407MOL0     H53708   1.951  10.044  -0.804 -3.6899 -0.3505  1.0972
  407MOL0     H53709   2.174   9.971  -0.794  1.6494  1.0945 -0.2145
  407MOL0     H53710   3.007   9.300  -0.038  0.5625  0.8240  0.4612
  407MOL0     H53711   2.784   9.269   0.093 -0.1885  1.3243  1.0567
  407MOL0     H53712   2.645   9.022   0.677 -1.4587  0.7005  2.1307
  407MOL0     H53713   2.422   8.963   0.744 -0.5291  0.2004 -0.3084
  407MOL0     H53714   2.235   8.981   0.824  1.8168  1.1962 -0.2253
  407MOL0     H53715   2.073   8.956   0.754 -1.3447  3.7283  1.0823
  407MOL0     H53716   2.182   9.236   0.836  1.0660  0.1402  1.4334
  407MOL0     H53717   2.011   9.185   0.795  1.4317  2.1622 -1.5602
  407MOL0     H53718   2.062   9.218   1.044 -1.6091 -1.9195  3.3151
  407MOL0     H53719   2.143   9.050   1.024  0.4900  0.2632 -0.5542
  407MOL0     H53720   1.911   8.995   0.902 -0.7852 -1.7791  0.8705
  407MOL0     H53721   1.929   8.987   1.079 -1.6263 -0.5191 -0.3533
  407MOL0     H53722   1.648   9.310   1.022 -0.0676  0.0090  0.4083
  407MOL0     H53723   2.271   9.218   0.419  3.8132  4.0192 -1.9504
  407MOL0     H53724   2.502   9.240   0.334 -2.2890  2.8008 -0.8279
  408MOL0     O53725   3.417   0.949   8.984 -0.1016  0.0911  0.3313
  408MOL0     C53726   3.492   0.994   8.890 -0.3811 -0.8546 -0.2604
  408MOL0     O53727   3.458   1.016   8.759  0.5209 -0.4578 -0.3185
  408MOL0     C53728   3.334   0.975   8.718 -0.5312 -0.4196 -0.9201
  408MOL0     C53729   3.216   1.026   8.762 -0.6777  0.5471 -0.4200
  408MOL0     C53730   3.096   0.982   8.719  0.9990 -0.7823 -0.6696
  408MOL0     C53731   3.088   0.899   8.602 -1.4685 -0.2532 -0.0552
  408MOL0     O53732   2.967   0.863   8.566  0.1466 -0.5996 -0.2879
  408MOL0     C53733   2.949   0.758   8.473 -0.2677  0.1915  0.8037
  408MOL0     C53734   2.803   0.720   8.430  0.0242  0.2897  0.0878
  408MOL0     C53735   2.804   0.581   8.383 -0.0445  0.2215  0.3704
  408MOL0     C53736   2.820   0.466   8.485  0.7888  0.2252  0.2720
  408MOL0     C53737   2.688   0.447   8.565  0.8098  0.0369  0.2764
  408MOL0     C53738   2.578   0.355   8.493  0.3741 -0.8608  0.5792
  408MOL0     C53739   2.469   0.309   8.598 -0.4449  0.4310  0.1246
  408MOL0     C53740   2.347   0.242   8.527 -0.2318 -0.3581  0.2992
  408MOL0     N53741   2.223   0.228   8.609  0.5892  0.8736  0.9976
  408MOL0     C53742   2.195   0.132   8.701  0.3371  0.2946  0.1534
  408MOL0     C53743   2.064   0.152   8.738  0.4062 -0.0509 -1.0616
  408MOL0     C53744   1.986   0.061   8.824  0.1019 -0.2176  0.4005
  408MOL0     C53745   1.939   0.128   8.956 -0.6576  0.2952 -0.1977
  408MOL0     C53746   1.852   0.049   9.042  0.2183 -0.2639 -0.1708
  408MOL0     C53747   1.822   0.118   9.176  0.2620  0.0785 -0.1637
  408MOL0     O53748   1.758   0.028   9.274  0.0510 -0.3137  1.2276
  408MOL0     C53749   1.620   0.023   9.284  0.8248  0.9267  1.8752
  408MOL0     C53750   1.574  -0.042   9.395 -0.3312  0.2088 -0.9727
  408MOL0     C53751   1.444  -0.080   9.407 -0.6548 -0.0064  0.2383
  408MOL0     C53752   1.350  -0.050   9.307  0.0489 -0.1656  1.4897
  408MOL0     C53753   1.209  -0.091   9.314 -0.6245 -1.1269 -0.6832
  408MOL0     O53754   1.198  -0.211   9.381 -0.2888  0.1823  0.0656
  408MOL0     C53755   1.067  -0.258   9.404  0.4799 -0.5345  0.2787
  408MOL0     C53756   1.020  -0.291   9.529  0.3286 -0.3623 -0.2032
  408MOL0     C53757   0.893  -0.343   9.559  0.3818  0.3450  0.5786
  408MOL0     C53758   0.814  -0.374   9.448 -0.3663  0.1047 -0.0207
  408MOL0     O53759   0.684  -0.407   9.475 -0.2826  0.0008  0.0833
  408MOL0     C53760   0.653  -0.540   9.438 -0.3755 -0.1999 -0.2208
  408MOL0     C53761   0.501  -0.571   9.455  0.8647 -0.9018  0.4332
  408MOL0     C53762   0.413  -0.513   9.336 -1.1412 -0.9889 -0.6789
  408MOL0     C53763   0.268  -0.551   9.368  0.4670  0.2575  0.0370
  408MOL0     C53764   0.164  -0.506   9.258 -0.2828 -0.7726  1.0963
  408MOL0     C53765   0.029  -0.576   9.282 -0.3499  0.3601 -0.0744
  408MOL0     C53766  -0.083  -0.521   9.182 -0.2916 -0.0227 -1.5256
  408MOL0     C53767  -0.174  -0.639   9.163  0.5517  0.6561  0.1312
  408MOL0    Cl53768  -0.283  -0.596   9.024  0.2623  0.1143  0.1036
  408MOL0     C53769   0.853  -0.350   9.319  0.6114  0.2189  0.4934
  408MOL0     C53770   0.976  -0.287   9.299  0.1581 -0.7439  0.3128
  408MOL0     O53771   1.118  -0.029   9.259 -0.0199 -0.5159 -0.5741
  408MOL0     C53772   1.395   0.031   9.198  0.2275  0.2267  0.0442
  408MOL0     C53773   1.526   0.056   9.182 -1.3664  0.5252  0.1297
  408MOL0     N53774   2.008   0.255   8.662  0.7319  0.5132  0.2485
  408MOL0     N53775   2.105   0.294   8.581  0.9553  0.6437  0.6364
  408MOL0     C53776   3.213   0.846   8.559 -0.2066 -0.0550 -0.4528
  408MOL0     C53777   3.338   0.878   8.619  0.9268 -0.1311 -0.2097
  408MOL0     C53778   3.634   1.031   8.922  0.1140  0.1488  1.1895
  408MOL0     C53779   3.733   1.006   8.823 -0.2983  0.4601  0.3370
  408MOL0     C53780   3.863   1.046   8.843  0.0815  0.3231  1.0917
  408MOL0     C53781   3.900   1.092   8.963  0.0540  0.0735  0.4020
  408MOL0     O53782   4.029   1.129   8.998 -0.2983  0.9170 -0.0977
  408MOL0     C53783   4.146   1.077   8.921  1.1517  0.9986 -1.1723
  408MOL0     C53784   4.254   1.057   9.028  0.9767  0.4076  0.9142
  408MOL0     C53785   4.374   0.979   8.964  0.5184 -0.2459 -0.0632
  408MOL0     C53786   4.489   0.960   9.071  0.6555  0.5906 -0.0737
  408MOL0     C53787   4.589   0.861   9.035 -0.2321  0.3994 -0.5884
  408MOL0     C53788   4.673   0.784   8.987  0.3159 -0.3716 -0.4946
  408MOL0     C53789   3.809   1.122   9.058 -0.5603 -0.7683 -0.5805
  408MOL0     C53790   3.679   1.095   9.040  0.1296  0.3421 -0.1772
  408MOL0     H53791   3.205   1.095   8.844  2.2005 -0.0009  0.5513
  408MOL0     H53792   3.003   1.001   8.771  0.7498 -0.1496 -1.3288
  408MOL0     H53793   3.001   0.674   8.521  0.2756 -1.2771 -2.1655
  408MOL0     H53794   2.995   0.791   8.380 -0.1519 -1.7261  0.1470
  408MOL0     H53795   2.772   0.787   8.349  1.4523  2.5210  1.3006
  408MOL0     H53796   2.727   0.719   8.509 -1.4739 -0.1950 -1.3107
  408MOL0     H53797   2.888   0.570   8.314 -2.8767 -1.5044 -3.1833
  408MOL0     H53798   2.718   0.560   8.318  1.0160 -0.6965 -0.7822
  408MOL0     H53799   2.860   0.373   8.444  1.7201 -0.4393  2.5622
  408MOL0     H53800   2.892   0.506   8.558 -0.9768 -0.8762  2.7331
  408MOL0     H53801   2.630   0.535   8.595 -2.6214 -2.2592  1.0748
  408MOL0     H53802   2.716   0.404   8.661  0.7648 -0.4735  0.0638
  408MOL0     H53803   2.632   0.268   8.453 -0.5844 -0.9997 -0.4874
  408MOL0     H53804   2.536   0.412   8.410 -0.3117 -1.8463  0.2243
  408MOL0     H53805   2.529   0.248   8.666 -1.3191 -0.7712 -0.1408
  408MOL0     H53806   2.437   0.402   8.646  2.2650  2.4578 -1.6272
  408MOL0     H53807   2.377   0.140   8.500  0.9987 -0.6720  2.5619
  408MOL0     H53808   2.323   0.289   8.432  0.3322 -0.3211  0.1713
  408MOL0     H53809   2.254   0.046   8.730 -2.6731 -1.3542  1.8972
  408MOL0     H53810   2.045  -0.031   8.836  0.0630 -0.7145 -2.5106
  408MOL0     H53811   1.892   0.035   8.775 -0.2917  1.7646  0.0168
  408MOL0     H53812   1.876   0.215   8.932  0.3098  0.6619 -1.5325
  408MOL0     H53813   2.022   0.167   9.015 -0.8217 -0.7331  0.7415
  408MOL0     H53814   1.760   0.042   8.983 -0.5435 -0.9711  1.0580
  408MOL0     H53815   1.894  -0.047   9.074 -0.9323 -0.8638 -0.4102
  408MOL0     H53816   1.762   0.207   9.159  2.6407  1.9393  0.5987
  408MOL0     H53817   1.917   0.152   9.219 -0.6739 -0.8960  2.9559
  408MOL0     H53818   1.655  -0.070   9.462 -1.1566  1.1747  0.4898
  408MOL0     H53819   1.422  -0.144   9.492  3.4925  0.1173  1.6263
  408MOL0     H53820   1.081  -0.287   9.619  0.4603 -1.2319 -0.2475
  408MOL0     H53821   0.849  -0.370   9.655 -2.5470 -1.8861 -1.2401
  408MOL0     H53822   0.709  -0.616   9.492 -0.8277 -1.1026 -0.9928
  408MOL0     H53823   0.674  -0.555   9.331 -1.2900  1.0762 -0.6112
  408MOL0     H53824   0.471  -0.527   9.550  0.4997 -0.7458  0.2475
  408MOL0     H53825   0.488  -0.679   9.459 -1.2784 -0.7057 -0.1904
  408MOL0     H53826   0.460  -0.543   9.241  0.4572 -0.4145 -0.1125
  408MOL0     H53827   0.427  -0.406   9.354 -0.4753 -1.1595 -0.1315
  408MOL0     H53828   0.255  -0.660   9.375  0.3834  0.3816  5.5205
  408MOL0     H53829   0.234  -0.506   9.461 -1.5810 -0.0413 -0.5118
  408MOL0     H53830   0.198  -0.532   9.157 -0.7871  0.8071  0.4841
  408MOL0     H53831   0.147  -0.398   9.254 -3.9007 -1.1875  1.6418
  408MOL0     H53832  -0.007  -0.567   9.385  0.2651 -1.4262  0.3402
  408MOL0     H53833   0.038  -0.685   9.279  1.5132  0.4928 -0.4036
  408MOL0     H53834  -0.133  -0.434   9.226 -4.0666 -1.6988 -2.0904
  408MOL0     H53835  -0.027  -0.484   9.096  1.7533 -0.0217 -0.2527
  408MOL0     H53836  -0.226  -0.668   9.254 -1.6640 -1.1042 -1.5690
  408MOL0     H53837  -0.114  -0.724   9.130 -0.1641  0.3090 -0.2852
  408MOL0     H53838   0.782  -0.373   9.241  0.0896  0.6290  0.8368
  408MOL0     H53839   1.014  -0.260   9.201 -2.4910  1.2263 -0.2812
  408MOL0     H53840   1.321   0.052   9.121  0.4433  2.0872  0.3060
  408MOL0     H53841   1.547   0.120   9.097  0.0207 -1.0254 -0.7611
  408MOL0     H53842   3.214   0.780   8.473 -2.0772  1.4611 -1.7080
  408MOL0     H53843   3.422   0.823   8.576  1.2871  2.2730 -2.8649
  408MOL0     H53844   3.698   0.970   8.727  0.1753  2.7597 -0.7823
  408MOL0     H53845   3.931   1.039   8.759  2.1330  2.8133  2.3929
  408MOL0     H53846   4.179   1.149   8.845  0.6932  1.3847 -1.0164
  408MOL0     H53847   4.136   0.990   8.856  0.5448  1.4714 -1.7278
  408MOL0     H53848   4.273   1.149   9.083  0.3261  0.9288  0.2820
  408MOL0     H53849   4.209   0.994   9.105  1.0346 -0.7156  0.0574
  408MOL0     H53850   4.422   1.015   8.873  0.6245 -1.8761 -0.6985
  408MOL0     H53851   4.341   0.881   8.927  1.1640 -0.3288 -0.4221
  408MOL0     H53852   4.537   1.058   9.074 -0.0808  0.9711 -0.4087
  408MOL0     H53853   4.442   0.939   9.167 -2.4055  3.1049 -0.8585
  408MOL0     H53854   4.739   0.719   8.933  2.7292  2.7129 -1.5628
  408MOL0     H53855   3.855   1.173   9.142  1.9140 -1.8112 -1.2098
  408MOL0     H53856   3.609   1.114   9.119  0.8354 -0.6722  0.7300
  409MOL0     O53857   3.478  10.936   9.981  0.0929  0.0537  0.8611
  409MOL0     C53858   3.364  10.967  10.025 -0.6619  0.4304 -0.2783
  409MOL0     O53859   3.343  11.043  10.133 -0.3362  1.1299 -0.2018
  409MOL0     C53860   3.449  11.105  10.186  0.1535  0.4291  0.3904
  409MOL0     C53861   3.544  11.032  10.255 -0.1828  0.2566 -0.3792
  409MOL0     C53862   3.658  11.097  10.292 -0.0796  0.0337  0.6606
  409MOL0     C53863   3.686  11.233  10.282  0.0594  0.3608  0.3008
  409MOL0     O53864   3.793  11.290  10.343  0.3197 -0.7952  0.0605
  409MOL0     C53865   3.898  11.208  10.397 -0.0378 -0.1855  0.3935
  409MOL0     C53866   4.017  11.310  10.413  0.2187 -1.1617 -0.5126
  409MOL0     C53867   3.992  11.419  10.517  0.8460 -0.9896  0.7702
  409MOL0     C53868   4.106  11.515  10.517 -0.2950 -0.2823 -0.1310
  409MOL0     C53869   4.076  11.632  10.614 -0.7360 -0.0195  0.3035
  409MOL0     C53870   4.195  11.731  10.608 -0.2861 -0.6391  0.2068
  409MOL0     C53871   4.209  11.792  10.470  0.1167 -0.1716  0.9932
  409MOL0     C53872   4.287  11.927  10.468 -0.4040 -0.7953 -0.6269
  409MOL0     N53873   4.405  11.920  10.546 -0.5860 -0.4180 -0.6243
  409MOL0     C53874   4.507  11.831  10.530  0.2722 -0.1576  0.7322
  409MOL0     C53875   4.611  11.862  10.606 -0.2673  0.1831 -0.0207
  409MOL0     C53876   4.755  11.807  10.605  0.6035  0.4267 -0.0676
  409MOL0     C53877   4.864  11.911  10.594 -0.7860 -0.5095  0.5756
  409MOL0     C53878   4.957  11.923  10.717  0.7911 -0.2854 -0.7411
  409MOL0     C53879   4.883  11.976  10.844 -0.5504 -0.4931  0.4302
  409MOL0     O53880   4.951  11.962  10.971 -0.2523  0.1431 -1.2652
  409MOL0     C53881   5.073  12.022  10.978 -0.5714 -0.9993  0.1850
  409MOL0     C53882   5.084  12.152  11.017  0.4712 -0.4183 -0.2208
  409MOL0     C53883   5.214  12.210  11.044 -1.4546 -0.0310  0.3432
  409MOL0     C53884   5.332  12.127  11.024  0.3117 -0.0105 -0.7741
  409MOL0     C53885   5.460  12.182  11.056  0.3235  0.1214 -0.3313
  409MOL0     O53886   5.460  12.299  11.118 -0.7153  0.3273 -0.1137
  409MOL0     C53887   5.584  12.351  11.160 -0.0998  0.4926 -0.6056
  409MOL0     C53888   5.606  12.489  11.139  1.5164 -0.1466  0.6270
  409MOL0     C53889   5.723  12.551  11.173  0.6343  0.9670  0.7448
  409MOL0     C53890   5.820  12.480  11.233 -0.3218 -0.1129  0.1365
  409MOL0     O53891   5.933  12.535  11.281 -0.3965 -0.2863  0.5362
  409MOL0     C53892   5.946  12.672  11.311  0.0867  0.0019  0.0395
  409MOL0     C53893   6.040  12.689  11.427  0.9650 -0.2734  0.1052
  409MOL0     C53894   6.187  12.686  11.393 -0.2946  0.6103  0.0200
  409MOL0     C53895   6.245  12.815  11.349 -0.0994  0.3899  0.2782
  409MOL0     C53896   6.391  12.822  11.366 -0.1559  1.1654 -0.0843
  409MOL0     C53897   6.452  12.959  11.333  1.4544  0.4881 -0.1838
  409MOL0     C53898   6.607  12.948  11.318  0.4428  0.0406 -0.2418
  409MOL0     C53899   6.685  12.871  11.415 -1.3156  0.4959 -0.3241
  409MOL0    Cl53900   6.668  12.928  11.594 -0.2639  0.1073  0.1495
  409MOL0     C53901   5.813  12.339  11.251  0.4483  0.1559 -0.2030
  409MOL0     C53902   5.691  12.280  11.225  0.7856  0.8006  0.5199
  409MOL0     O53903   5.561  12.122  11.022 -0.2242 -0.2773 -0.4633
  409MOL0     C53904   5.317  11.999  10.979 -0.1715 -0.0538  0.9690
  409MOL0     C53905   5.187  11.948  10.959 -0.6500 -0.0492  0.6866
  409MOL0     N53906   4.570  11.970  10.683  0.1122  0.9503  0.8728
  409MOL0     N53907   4.447  11.999  10.650  0.6687 -0.5307  0.0359
  409MOL0     C53908   3.588  11.308  10.211  0.6256 -0.5641 -0.2457
  409MOL0     C53909   3.463  11.245  10.172 -0.7678  0.7657 -0.0803
  409MOL0     C53910   3.245  10.910   9.956  0.3161 -0.2601  0.0508
  409MOL0     C53911   3.262  10.811   9.849 -0.0163  0.2273 -0.1391
  409MOL0     C53912   3.146  10.775   9.773 -0.6007 -0.1957  0.0130
  409MOL0     C53913   3.021  10.810   9.812  0.2595 -0.1716  0.4915
  409MOL0     O53914   2.907  10.764   9.749 -0.7562  0.1008 -0.0145
  409MOL0     C53915   2.831  10.837   9.656  0.0080 -0.3557  0.1357
  409MOL0     C53916   2.812  10.745   9.533 -0.3959 -0.0690  0.9443
  409MOL0     C53917   2.691  10.780   9.456  0.2987 -0.2054 -0.3283
  409MOL0     C53918   2.709  10.708   9.318  0.7390 -0.2621 -0.3314
  409MOL0     C53919   2.598  10.747   9.225  0.4576 -0.0882  0.4496
  409MOL0     C53920   2.507  10.773   9.157  0.0594 -0.2183  0.4682
  409MOL0     C53921   3.007  10.902   9.912  0.9381 -0.8506  0.0618
  409MOL0     C53922   3.116  10.951   9.976 -0.7175 -0.5348 -0.3365
  409MOL0     H53923   3.534  10.925  10.265 -3.3383  0.5119  0.2901
  409MOL0     H53924   3.733  11.037  10.344  0.4614  1.9748  2.2204
  409MOL0     H53925   3.924  11.129  10.326 -2.8042  0.4781 -1.5529
  409MOL0     H53926   3.874  11.158  10.492  3.0348  1.6634  2.2966
  409MOL0     H53927   4.037  11.357  10.316 -1.5555 -2.1548 -1.4290
  409MOL0     H53928   4.104  11.256  10.452  1.7719  2.5060  1.5466
  409MOL0     H53929   3.995  11.368  10.614  3.2152 -4.5163 -0.9475
  409MOL0     H53930   3.897  11.473  10.510  0.4920 -1.6666  0.1599
  409MOL0     H53931   4.189  11.459  10.561 -0.2846  1.4461  2.2564
  409MOL0     H53932   4.117  11.549  10.414 -3.0058 -0.7176 -0.6446
  409MOL0     H53933   4.064  11.584  10.712  0.2829  0.3690  0.6325
  409MOL0     H53934   3.982  11.681  10.585 -2.0395 -1.4640  1.8894
  409MOL0     H53935   4.285  11.674  10.633 -1.3344 -1.8152  1.4705
  409MOL0     H53936   4.175  11.808  10.683 -2.1970 -0.8315 -0.0665
  409MOL0     H53937   4.250  11.720  10.399 -3.0632  0.0124 -1.2527
  409MOL0     H53938   4.107  11.810  10.434  0.6266  2.2958  0.6094
  409MOL0     H53939   4.225  12.006  10.513  0.7995 -1.2260  2.0212
  409MOL0     H53940   4.310  11.953  10.365  4.0438 -0.9405  0.1498
  409MOL0     H53941   4.504  11.749  10.458  2.5786 -0.2171  0.6607
  409MOL0     H53942   4.774  11.731  10.528 -0.8806 -2.7638  2.4591
  409MOL0     H53943   4.764  11.749  10.697 -2.7404 -1.7810 -0.9422
  409MOL0     H53944   4.814  12.007  10.578  0.9408  0.7319  2.2128
  409MOL0     H53945   4.933  11.890  10.512 -0.2359 -1.2095  1.1966
  409MOL0     H53946   4.999  11.827  10.745  0.9538  0.0244  0.1144
  409MOL0     H53947   5.038  11.992  10.693 -0.3032  1.3732  0.0677
  409MOL0     H53948   4.796  11.912  10.863 -0.1847 -1.0166  0.3651
  409MOL0     H53949   4.851  12.079  10.825  1.6697  0.0572 -0.5412
  409MOL0     H53950   4.992  12.209  11.029 -0.6874 -1.9889 -1.1785
  409MOL0     H53951   5.228  12.310  11.084 -0.3252  0.5883 -1.4643
  409MOL0     H53952   5.540  12.553  11.082  1.3272 -0.7584  0.1481
  409MOL0     H53953   5.731  12.656  11.147  3.0924  1.3522  2.7333
  409MOL0     H53954   5.852  12.715  11.344  0.3028  2.3936 -2.1317
  409MOL0     H53955   5.984  12.727  11.224  0.1390 -0.9084 -0.5268
  409MOL0     H53956   6.006  12.624  11.508  1.5900  2.8367  3.1264
  409MOL0     H53957   6.021  12.789  11.467  0.2945 -0.0337 -0.7743
  409MOL0     H53958   6.205  12.612  11.314 -1.8499  0.3699 -0.1493
  409MOL0     H53959   6.240  12.655  11.484  0.8775 -1.4548 -1.2702
  409MOL0     H53960   6.226  12.834  11.243 -0.8692  0.8574  0.4908
  409MOL0     H53961   6.194  12.895  11.404 -3.9143 -2.0368  0.6958
  409MOL0     H53962   6.445  12.742  11.314 -1.9725 -2.9551  3.7764
  409MOL0     H53963   6.417  12.791  11.467  2.1502 -2.0714 -1.4984
  409MOL0     H53964   6.428  13.034  11.410  0.9710 -0.4888  0.6424
  409MOL0     H53965   6.413  12.984  11.235  3.3692  0.3834 -1.0210
  409MOL0     H53966   6.635  12.902  11.223  0.6302 -1.7383  0.6346
  409MOL0     H53967   6.652  13.047  11.319  2.6950 -0.9374  0.5534
  409MOL0     H53968   6.788  12.878  11.379 -0.7583  0.2512  1.1485
  409MOL0     H53969   6.654  12.767  11.422  1.8507 -0.4354  2.8657
  409MOL0     H53970   5.892  12.285  11.302  1.9479 -1.0706 -3.5502
  409MOL0     H53971   5.672  12.174  11.240  0.8995  0.7290  0.1799
  409MOL0     H53972   5.413  11.950  10.963  0.3507  1.0560  0.5312
  409MOL0     H53973   5.183  11.846  10.921  0.9446 -0.2136  0.8763
  409MOL0     H53974   3.604  11.415  10.203  1.0529 -0.4427  1.6624
  409MOL0     H53975   3.388  11.306  10.123 -0.4686  1.2177  0.0213
  409MOL0     H53976   3.355  10.766   9.816 -0.9723 -0.5493 -1.8986
  409MOL0     H53977   3.157  10.708   9.689  1.5627  0.4847 -0.3107
  409MOL0     H53978   2.890  10.928   9.642 -0.2480 -0.1860  0.1436
  409MOL0     H53979   2.731  10.865   9.689  0.3481  1.9048 -0.5486
  409MOL0     H53980   2.905  10.740   9.475 -0.6784 -2.1073  0.5741
  409MOL0     H53981   2.803  10.640   9.562  2.7970 -0.1667  1.9624
  409MOL0     H53982   2.682  10.889   9.446 -1.0204 -0.1241  1.3498
  409MOL0     H53983   2.607  10.741   9.513  3.1752 -1.3601  3.5245
  409MOL0     H53984   2.807  10.739   9.282  1.5679 -2.4387 -0.0511
  409MOL0     H53985   2.705  10.601   9.338  2.8865 -0.3543 -0.1980
  409MOL0     H53986   2.414  10.799   9.110  0.9185  5.4548  1.1532
  409MOL0     H53987   2.908  10.935   9.941  1.1801  0.2970 -0.3400
  409MOL0     H53988   3.099  11.034  10.045  1.4301 -1.7729  1.8319
  410MOL0     O53989   9.660   7.833   2.499 -0.3345  0.3071 -0.4572
  410MOL0     C53990   9.698   7.891   2.598  0.4666 -0.3658 -0.3804
  410MOL0     O53991   9.618   7.918   2.706  0.2841 -0.3099 -0.6185
  410MOL0     C53992   9.507   7.836   2.740 -1.0300 -0.8403 -0.3257
  410MOL0     C53993   9.514   7.697   2.723  0.6163 -0.1126 -0.2416
  410MOL0     C53994   9.421   7.610   2.773 -0.0665  0.3648  0.8553
  410MOL0     C53995   9.311   7.665   2.839  0.4183  0.3556 -0.2237
  410MOL0     O53996   9.221   7.567   2.891 -0.0560 -0.0012  0.0711
  410MOL0     C53997   9.085   7.601   2.890 -0.0435 -0.1409  0.1337
  410MOL0     C53998   9.036   7.631   3.030 -0.0882  0.6231 -0.7301
  410MOL0     C53999   8.882   7.674   3.042  0.2113  0.3669  0.9297
  410MOL0     C54000   8.783   7.561   3.054 -0.1204 -0.5824 -0.2179
  410MOL0     C54001   8.641   7.611   3.103  0.2349  0.9631  1.1907
  410MOL0     C54002   8.526   7.518   3.078  0.3803 -0.3593  0.1212
  410MOL0     C54003   8.542   7.372   3.137 -0.1075 -0.4374  1.2288
  410MOL0     C54004   8.558   7.367   3.286 -0.1089 -0.6121  0.1181
  410MOL0     N54005   8.592   7.230   3.322  0.0124  0.2656  0.0418
  410MOL0     C54006   8.722   7.167   3.309  0.7003 -0.4353  0.2835
  410MOL0     C54007   8.707   7.041   3.349 -0.7053 -0.8998 -0.1867
  410MOL0     C54008   8.813   6.934   3.355  0.7483 -0.0259  0.1124
  410MOL0     C54009   8.879   6.927   3.491  1.7211  0.7634  0.1507
  410MOL0     C54010   9.001   6.834   3.487  0.5460  0.2201  0.4119
  410MOL0     C54011   9.112   6.878   3.388  1.1272  0.0674  0.0094
  410MOL0     O54012   9.213   6.777   3.372 -0.0079 -0.0076 -0.1856
  410MOL0     C54013   9.323   6.804   3.299 -1.8439 -0.3937  0.2460
  410MOL0     C54014   9.419   6.708   3.291  0.2764  0.0939  0.4391
  410MOL0     C54015   9.536   6.723   3.212 -0.4611  0.6409 -0.1095
  410MOL0     C54016   9.573   6.834   3.138  0.0511 -0.0645 -0.5273
  410MOL0     C54017   9.715   6.858   3.079  0.0850  0.1871 -0.3714
  410MOL0     O54018   9.744   6.996   3.062  0.2582  0.0261  0.3038
  410MOL0     C54019   9.874   7.038   3.044 -0.9577 -0.1991 -0.0452
  410MOL0     C54020   9.887   7.167   2.994  0.3206 -0.7367  0.0303
  410MOL0     C54021  10.015   7.213   2.950  0.3214 -0.0242  0.3050
  410MOL0     C54022  10.132   7.138   2.955 -0.2416 -0.9334  0.3883
  410MOL0     O54023  10.256   7.182   2.909  0.7186  0.1409  0.3587
  410MOL0     C54024  10.299   7.303   2.967 -0.8973  0.7136 -0.7979
  410MOL0     C54025  10.457   7.312   2.957  0.4823  0.0783 -0.5274
  410MOL0     C54026  10.498   7.445   3.020  0.3192 -0.2460  0.5267
  410MOL0     C54027  10.649   7.452   3.015  0.2684  0.4714  0.4716
  410MOL0     C54028  10.687   7.588   3.087 -0.1368  0.1183  0.4063
  410MOL0     C54029  10.824   7.643   3.050 -0.6825  0.3875  0.4083
  410MOL0     C54030  10.927   7.538   3.052 -0.8162  0.2891  0.8605
  410MOL0     C54031  10.957   7.489   3.197  0.4483  0.9184  0.1651
  410MOL0    Cl54032  11.020   7.628   3.297  0.0505 -0.1995  0.0576
  410MOL0     C54033  10.121   7.018   3.011  0.6953  0.6540  1.1874
  410MOL0     C54034   9.996   6.966   3.054  0.1556 -0.0034  0.5609
  410MOL0     O54035   9.788   6.760   3.062 -0.4993 -0.1770  0.0569
  410MOL0     C54036   9.470   6.937   3.152  0.0109 -1.7604  0.1126
  410MOL0     C54037   9.358   6.928   3.231 -0.1183 -0.3946  0.5037
  410MOL0     N54038   8.576   7.031   3.389  0.2643 -0.8751  0.1959
  410MOL0     N54039   8.510   7.139   3.388 -1.4554 -0.0959 -0.0401
  410MOL0     C54040   9.303   7.801   2.857  0.0023 -0.1381 -0.8672
  410MOL0     C54041   9.401   7.887   2.812 -0.3972  0.3851 -0.5274
  410MOL0     C54042   9.828   7.960   2.582  0.0348 -0.1354  0.1825
  410MOL0     C54043   9.851   8.086   2.639  0.7722  0.6500  0.3417
  410MOL0     C54044   9.972   8.144   2.618  0.2936 -0.9291 -0.5030
  410MOL0     C54045  10.068   8.083   2.544 -0.8286 -0.0458  0.4394
  410MOL0     O54046  10.181   8.154   2.526 -0.0145 -0.7408 -0.8145
  410MOL0     C54047  10.291   8.097   2.463 -1.4662 -0.1138 -0.6785
  410MOL0     C54048  10.414   8.180   2.426  0.1121 -0.0787 -0.7986
  410MOL0     C54049  10.472   8.255   2.551 -0.5324 -0.2169 -0.9897
  410MOL0     C54050  10.589   8.357   2.523  0.1264 -0.4903  0.5374
  410MOL0     C54051  10.680   8.360   2.634 -0.5796  0.3134 -0.3963
  410MOL0     C54052  10.763   8.368   2.725 -0.5100  0.1582 -0.0990
  410MOL0     C54053  10.058   7.953   2.512 -0.2365  0.4336 -0.3241
  410MOL0     C54054   9.933   7.893   2.531  0.1038  1.0546  0.2394
  410MOL0     H54055   9.597   7.649   2.671  1.6195 -0.4772  1.6011
  410MOL0     H54056   9.438   7.503   2.762 -2.7809 -0.4110  3.0682
  410MOL0     H54057   9.032   7.522   2.838 -1.7805  1.2116 -0.2565
  410MOL0     H54058   9.065   7.697   2.841 -2.0986 -0.0544  1.0233
  410MOL0     H54059   9.091   7.711   3.080 -0.0004  1.7862 -2.6122
  410MOL0     H54060   9.062   7.544   3.091  1.5514  2.0391  0.6971
  410MOL0     H54061   8.855   7.726   2.949 -0.8770 -1.1371  0.3596
  410MOL0     H54062   8.874   7.740   3.129  2.4132 -0.8900  2.1830
  410MOL0     H54063   8.779   7.512   2.956  1.2497 -1.2157  0.0185
  410MOL0     H54064   8.825   7.480   3.113  1.0473  0.4952  0.4692
  410MOL0     H54065   8.597   7.690   3.042 -1.8293 -2.1489 -1.6726
  410MOL0     H54066   8.639   7.639   3.209 -3.9970  0.3732  1.4115
  410MOL0     H54067   8.499   7.527   2.972  1.9891  4.0929 -0.1184
  410MOL0     H54068   8.440   7.562   3.129 -0.5165  0.5239 -2.0457
  410MOL0     H54069   8.459   7.311   3.099  1.6953 -2.1155 -0.2603
  410MOL0     H54070   8.621   7.324   3.078 -1.7186 -0.9525 -0.6312
  410MOL0     H54071   8.467   7.391   3.342 -0.3459 -2.0786  0.3998
  410MOL0     H54072   8.636   7.440   3.310 -0.4523 -0.1147 -0.2359
  410MOL0     H54073   8.812   7.219   3.276  1.0132 -0.6148  0.8432
  410MOL0     H54074   8.890   6.972   3.287  0.9360  1.2120  1.0037
  410MOL0     H54075   8.778   6.834   3.326  2.9857 -0.8892  0.1909
  410MOL0     H54076   8.807   6.884   3.561  1.5814 -1.3539 -1.2229
  410MOL0     H54077   8.889   7.029   3.530  0.6500  0.8719  0.1930
  410MOL0     H54078   9.043   6.832   3.588 -0.2531  0.0582  0.7497
  410MOL0     H54079   8.959   6.738   3.454 -0.0273  0.5691  0.1023
  410MOL0     H54080   9.153   6.973   3.422  0.9603  0.8399 -1.7891
  410MOL0     H54081   9.071   6.899   3.288  0.3251 -1.2239  0.0311
  410MOL0     H54082   9.400   6.616   3.344 -0.6644  0.5557  0.9231
  410MOL0     H54083   9.600   6.636   3.210 -0.8202  0.3787 -1.3985
  410MOL0     H54084   9.791   7.215   2.978 -1.4984 -4.1821 -0.3851
  410MOL0     H54085  10.020   7.304   2.890  0.0864 -0.2155 -0.0097
  410MOL0     H54086  10.263   7.308   3.070 -1.3636 -0.9601 -0.8378
  410MOL0     H54087  10.256   7.386   2.910  0.7602  2.2619  0.1151
  410MOL0     H54088  10.469   7.319   2.849 -3.5392  1.9737 -1.0647
  410MOL0     H54089  10.501   7.224   3.006  0.8858 -1.1652 -2.9419
  410MOL0     H54090  10.459   7.449   3.123  0.2374 -1.7711  0.5783
  410MOL0     H54091  10.455   7.524   2.958 -0.1452 -3.1541 -3.2317
  410MOL0     H54092  10.680   7.360   3.064 -3.5338  0.0793  2.5725
  410MOL0     H54093  10.668   7.457   2.908 -2.9587  1.2469 -0.1800
  410MOL0     H54094  10.689   7.556   3.191  1.7085 -1.2831 -0.0141
  410MOL0     H54095  10.607   7.662   3.072 -1.3317 -1.1742  0.1426
  410MOL0     H54096  10.858   7.718   3.122  0.1990  0.9513 -0.5762
  410MOL0     H54097  10.821   7.694   2.954  0.3897  0.2905  0.3103
  410MOL0     H54098  10.899   7.458   2.982 -3.4678  3.7404 -2.4564
  410MOL0     H54099  11.020   7.580   3.013  0.8803 -2.0528  2.1641
  410MOL0     H54100  11.022   7.401   3.198 -3.1036 -1.9271  2.1640
  410MOL0     H54101  10.863   7.452   3.239 -0.1250  0.4358 -1.4818
  410MOL0     H54102  10.212   6.961   3.025 -0.2194 -1.6839 -1.5108
  410MOL0     H54103   9.995   6.865   3.093 -0.8729 -0.2913 -0.1745
  410MOL0     H54104   9.477   7.026   3.091 -0.0888 -0.5612  1.7850
  410MOL0     H54105   9.274   6.996   3.238  0.1488 -0.0377  0.2641
  410MOL0     H54106   9.225   7.838   2.922  0.4435 -2.1893  0.9594
  410MOL0     H54107   9.400   7.991   2.841  1.2885 -0.2780  2.2990
  410MOL0     H54108   9.779   8.138   2.701  2.2894  1.5780  1.3688
  410MOL0     H54109   9.984   8.245   2.656 -1.4836 -0.1760 -1.7965
  410MOL0     H54110  10.260   8.043   2.373 -1.3432  1.3882 -1.6687
  410MOL0     H54111  10.330   8.022   2.532  2.1973 -0.3973 -2.8091
  410MOL0     H54112  10.484   8.118   2.370  2.6829  1.4072  0.5804
  410MOL0     H54113  10.398   8.262   2.355  0.8049  2.4971  1.7910
  410MOL0     H54114  10.508   8.176   2.616 -2.5807 -1.5437 -1.3833
  410MOL0     H54115  10.393   8.307   2.606 -1.4498 -0.8889 -1.6274
  410MOL0     H54116  10.643   8.318   2.436  0.8553  0.9834  0.2996
  410MOL0     H54117  10.551   8.457   2.501  0.3357 -0.8173 -1.5862
  410MOL0     H54118  10.835   8.389   2.800  0.0430 -0.0531 -0.5615
  410MOL0     H54119  10.144   7.895   2.482 -1.1859 -2.2364  1.6846
  410MOL0     H54120   9.937   7.793   2.489  1.1430  1.8206 -1.6104
  411MOL0     O54121   2.259   3.018   7.482  0.0317 -0.7564  0.0116
  411MOL0     C54122   2.328   3.120   7.474  0.2939 -1.0277  0.1225
  411MOL0     O54123   2.285   3.255   7.432  0.3775  0.3962 -0.8282
  411MOL0     C54124   2.161   3.289   7.369 -0.3687  0.9280  0.1141
  411MOL0     C54125   2.060   3.193   7.342  0.3693 -0.7023 -0.1365
  411MOL0     C54126   1.946   3.238   7.284  0.0902  0.7183  0.4954
  411MOL0     C54127   1.917   3.372   7.256 -0.2179  0.0372  0.6261
  411MOL0     O54128   1.794   3.409   7.212  0.2201  0.1517  0.2344
  411MOL0     C54129   1.770   3.545   7.167  0.2184  1.0690 -0.0899
  411MOL0     C54130   1.640   3.558   7.084 -0.0789 -0.8201 -0.2277
  411MOL0     C54131   1.643   3.467   6.955 -0.0327 -1.0924 -0.5492
  411MOL0     C54132   1.514   3.491   6.880 -0.1061  0.1098  0.1375
  411MOL0     C54133   1.490   3.378   6.778  0.0957  0.3657  0.1059
  411MOL0     C54134   1.360   3.397   6.700 -0.8565  0.2524  0.1678
  411MOL0     C54135   1.359   3.275   6.597  0.3952 -0.7135  0.3311
  411MOL0     C54136   1.212   3.274   6.542 -1.1852 -0.2788 -0.7529
  411MOL0     N54137   1.115   3.202   6.624  0.0419  0.2140  0.3757
  411MOL0     C54138   1.114   3.063   6.651 -0.2766  0.6923 -0.2633
  411MOL0     C54139   1.022   3.051   6.751  0.1417  0.2740  0.5288
  411MOL0     C54140   1.001   2.917   6.821 -0.2248 -0.9258 -0.2096
  411MOL0     C54141   0.877   2.932   6.902  0.4511  0.1434 -0.1042
  411MOL0     C54142   0.830   2.797   6.969  0.7610  0.5428 -0.5661
  411MOL0     C54143   0.690   2.799   7.015  0.1811  0.1541  0.1141
  411MOL0     O54144   0.595   2.757   6.909  0.0342 -0.2368 -0.2386
  411MOL0     C54145   0.483   2.692   6.951 -0.2818  0.3078 -0.4951
  411MOL0     C54146   0.433   2.599   6.864  0.5764 -0.5153  0.6720
  411MOL0     C54147   0.336   2.505   6.904  0.4420 -0.2256 -0.7820
  411MOL0     C54148   0.279   2.492   7.031  0.2046  0.3879 -0.5051
  411MOL0     C54149   0.197   2.378   7.070 -0.0740  0.4127  0.4923
  411MOL0     O54150   0.202   2.347   7.202  0.7348  0.6993  0.6362
  411MOL0     C54151   0.122   2.242   7.242  0.0312 -0.7482 -0.4738
  411MOL0     C54152   0.177   2.150   7.323 -0.4326  0.2533 -0.1194
  411MOL0     C54153   0.102   2.045   7.382  1.0697  0.6547  0.1790
  411MOL0     C54154  -0.032   2.026   7.336  0.3446  0.8109  0.6310
  411MOL0     O54155  -0.101   1.910   7.365 -1.3466  0.5712 -0.1229
  411MOL0     C54156  -0.234   1.895   7.312  0.4813  0.8885 -0.6211
  411MOL0     C54157  -0.260   1.749   7.340 -0.7738 -0.3315 -0.5961
  411MOL0     C54158  -0.408   1.705   7.339  0.4129 -0.2729  0.6782
  411MOL0     C54159  -0.420   1.556   7.374  0.8094 -0.1653 -0.6297
  411MOL0     C54160  -0.325   1.458   7.296  0.1506 -0.0347  0.3504
  411MOL0     C54161  -0.372   1.465   7.148  0.5028 -0.2755  0.6819
  411MOL0     C54162  -0.514   1.424   7.105 -0.0556 -0.4197  0.3561
  411MOL0     C54163  -0.550   1.276   7.139 -0.1350  0.1227  0.6212
  411MOL0    Cl54164  -0.578   1.247   7.313 -0.2017 -0.0176 -0.5101
  411MOL0     C54165  -0.095   2.135   7.271 -0.3073  0.4221  0.6150
  411MOL0     C54166  -0.013   2.238   7.228  0.1025  0.1467  0.3357
  411MOL0     O54167   0.135   2.316   6.985  0.1383  0.1520 -0.1688
  411MOL0     C54168   0.326   2.592   7.116  0.6739  0.0124 -0.3893
  411MOL0     C54169   0.422   2.687   7.078  0.0010 -0.5467 -0.1639
  411MOL0     N54170   0.976   3.174   6.784 -0.7611  0.0937 -0.0432
  411MOL0     N54171   1.032   3.260   6.709  0.5481  0.6065 -0.2483
  411MOL0     C54172   2.012   3.464   7.303 -0.7213 -0.4885 -0.0263
  411MOL0     C54173   2.137   3.426   7.358  0.0742 -0.1943  0.5248
  411MOL0     C54174   2.472   3.107   7.515 -1.2172 -0.5081  0.2531
  411MOL0     C54175   2.533   2.986   7.542 -0.1085 -0.8270  0.5811
  411MOL0     C54176   2.666   2.971   7.577  0.2533 -0.1426 -0.6955
  411MOL0     C54177   2.745   3.079   7.595 -0.0195 -0.4416 -0.5655
  411MOL0     O54178   2.871   3.078   7.643  0.1679 -0.4968  0.2776
  411MOL0     C54179   2.934   2.954   7.680 -0.9885 -0.3981 -0.3423
  411MOL0     C54180   2.936   2.926   7.833  0.3897  0.8195 -0.6831
  411MOL0     C54181   3.064   2.987   7.892 -0.3815 -0.7128  0.1967
  411MOL0     C54182   3.084   2.976   8.047 -0.8942 -0.4366 -0.3077
  411MOL0     C54183   2.955   3.006   8.110 -0.4023 -0.4942 -0.3246
  411MOL0     C54184   2.849   3.037   8.164  0.2463  0.5622 -0.3315
  411MOL0     C54185   2.690   3.206   7.571  0.2354 -0.6811  1.0030
  411MOL0     C54186   2.556   3.223   7.521 -0.5005  0.6191 -0.8504
  411MOL0     H54187   2.070   3.093   7.382  2.4233 -0.7739 -0.7085
  411MOL0     H54188   1.874   3.163   7.249  1.8001 -0.4251 -0.7445
  411MOL0     H54189   1.855   3.581   7.108  0.8098 -2.8936 -2.0287
  411MOL0     H54190   1.768   3.596   7.264  1.1348  0.2219  0.4016
  411MOL0     H54191   1.622   3.666   7.078 -0.3465 -0.8668 -0.2852
  411MOL0     H54192   1.563   3.517   7.150  1.4173 -1.3569  1.2601
  411MOL0     H54193   1.646   3.364   6.992 -1.1038 -0.8466  0.2659
  411MOL0     H54194   1.725   3.496   6.889  0.5975 -3.1082 -0.6989
  411MOL0     H54195   1.437   3.476   6.956  0.3924 -1.0117  0.4504
  411MOL0     H54196   1.507   3.589   6.832 -3.2442 -0.2839 -0.4281
  411MOL0     H54197   1.496   3.277   6.819 -0.9713 -0.9328 -2.7556
  411MOL0     H54198   1.573   3.380   6.707 -0.9093 -0.7812 -1.1530
  411MOL0     H54199   1.376   3.494   6.651  3.1996 -0.1815  0.3060
  411MOL0     H54200   1.277   3.405   6.771  0.2065  2.5435  1.2444
  411MOL0     H54201   1.438   3.287   6.522  1.5300 -0.5451  1.5113
  411MOL0     H54202   1.369   3.174   6.638  0.1358 -1.1803 -0.7183
  411MOL0     H54203   1.207   3.228   6.443  2.3442  0.1759 -1.2599
  411MOL0     H54204   1.189   3.379   6.519  3.0230  1.6699  2.5159
  411MOL0     H54205   1.176   2.983   6.611  0.7487  1.8010 -0.9528
  411MOL0     H54206   1.090   2.894   6.880  0.0367 -1.2402 -0.7224
  411MOL0     H54207   0.991   2.837   6.747  1.0491 -2.8608  1.5782
  411MOL0     H54208   0.797   2.972   6.839  0.8699  2.2241  0.6140
  411MOL0     H54209   0.889   2.996   6.990  0.8900 -0.8623  0.5867
  411MOL0     H54210   0.849   2.707   6.909 -0.2556  0.0653 -0.1826
  411MOL0     H54211   0.881   2.779   7.064 -2.4233 -0.4133  1.0757
  411MOL0     H54212   0.663   2.899   7.050  0.3463 -1.0040  4.0767
  411MOL0     H54213   0.683   2.733   7.102 -0.7374 -1.1012 -0.8704
  411MOL0     H54214   0.454   2.597   6.757  0.3016 -1.8567  0.6286
  411MOL0     H54215   0.298   2.429   6.836  0.6130  0.1032 -1.2558
  411MOL0     H54216   0.280   2.147   7.357 -0.6468 -2.1222  0.4382
  411MOL0     H54217   0.139   1.968   7.449 -0.6606 -1.7961 -1.5150
  411MOL0     H54218  -0.227   1.903   7.203  0.8151  1.0373 -0.5907
  411MOL0     H54219  -0.309   1.961   7.354 -1.8280 -1.1110 -1.3437
  411MOL0     H54220  -0.222   1.722   7.439 -1.6143  3.2848  0.8957
  411MOL0     H54221  -0.206   1.696   7.262 -0.0485  0.0207 -0.3446
  411MOL0     H54222  -0.444   1.728   7.238 -1.1797  0.2874  1.3460
  411MOL0     H54223  -0.473   1.760   7.408 -3.9741 -3.5978 -0.3656
  411MOL0     H54224  -0.395   1.546   7.480  1.5456  0.8871 -0.6852
  411MOL0     H54225  -0.522   1.523   7.351  1.6925 -1.9040 -2.3543
  411MOL0     H54226  -0.337   1.359   7.341 -0.5699 -0.3376 -0.4772
  411MOL0     H54227  -0.222   1.493   7.300  0.8112 -1.9839  2.2286
  411MOL0     H54228  -0.303   1.437   7.068 -0.0796  1.4794 -0.4850
  411MOL0     H54229  -0.376   1.570   7.121 -1.6059 -0.4092  0.3168
  411MOL0     H54230  -0.594   1.481   7.152 -0.2147  1.4977 -2.0250
  411MOL0     H54231  -0.518   1.443   6.997 -2.1252  2.2351  0.7898
  411MOL0     H54232  -0.464   1.212   7.115  0.4323  1.1758 -0.2476
  411MOL0     H54233  -0.640   1.241   7.088 -0.8745  1.7627  0.7134
  411MOL0     H54234  -0.201   2.122   7.255 -0.1380  0.4980 -0.7210
  411MOL0     H54235  -0.050   2.327   7.179  0.7143  0.8776  1.1719
  411MOL0     H54236   0.290   2.601   7.218  1.7235  0.3520 -0.0291
  411MOL0     H54237   0.448   2.751   7.162 -0.4862 -0.1885 -0.2853
  411MOL0     H54238   1.992   3.570   7.313  2.5163  0.1069  1.5812
  411MOL0     H54239   2.212   3.499   7.385 -1.3182  0.7582  1.9683
  411MOL0     H54240   2.471   2.898   7.526  1.2398 -1.7176  0.1590
  411MOL0     H54241   2.688   2.871   7.613 -1.2050 -0.6522 -1.1728
  411MOL0     H54242   3.030   2.955   7.629 -0.4224 -0.7833  0.6962
  411MOL0     H54243   2.892   2.862   7.638  0.0627 -1.0177 -0.0597
  411MOL0     H54244   2.846   2.958   7.885  0.3659 -0.2002 -0.0679
  411MOL0     H54245   2.949   2.817   7.844 -0.6293  0.3463 -3.4286
  411MOL0     H54246   3.053   3.090   7.859 -1.5610 -0.6551  0.7481
  411MOL0     H54247   3.152   2.938   7.848 -1.5556 -2.0065 -0.8308
  411MOL0     H54248   3.096   2.876   8.089 -1.3018  0.4494  2.0697
  411MOL0     H54249   3.155   3.045   8.093 -1.2836 -0.7865  0.8600
  411MOL0     H54250   2.759   3.071   8.210 -0.8837 -0.0209 -2.0012
  411MOL0     H54251   2.756   3.293   7.576  0.3437 -0.3079 -3.0912
  411MOL0     H54252   2.529   3.327   7.505 -1.2343  0.5678  0.0329
  412MOL0     O54253   7.511   9.838   6.189 -0.5546 -0.0239  0.4658
  412MOL0     C54254   7.576   9.922   6.124  0.3606  0.3712  0.2888
  412MOL0     O54255   7.524  10.038   6.053  0.0281  0.5487 -0.0501
  412MOL0     C54256   7.401  10.094   6.054  0.0758 -0.1211 -1.1584
  412MOL0     C54257   7.288  10.043   6.110 -0.4978 -0.0885  1.3748
  412MOL0     C54258   7.173  10.125   6.112  0.1748  0.1542 -0.4165
  412MOL0     C54259   7.162  10.251   6.048 -0.1660 -0.0510  0.0050
  412MOL0     O54260   7.053  10.329   6.071  0.5694  0.2276  0.4871
  412MOL0     C54261   6.935  10.282   6.022  0.6906 -0.0366 -0.7589
  412MOL0     C54262   6.834  10.390   6.006 -0.5531 -0.4119 -0.0796
  412MOL0     C54263   6.857  10.467   5.873 -0.2234  0.2800 -0.0818
  412MOL0     C54264   6.787  10.603   5.887  0.0147 -0.1916 -1.0474
  412MOL0     C54265   6.640  10.580   5.860  0.6191 -0.0813 -0.5870
  412MOL0     C54266   6.552  10.708   5.857  0.1001 -0.6120  0.7944
  412MOL0     C54267   6.413  10.673   5.814  0.4639 -0.0565  0.7875
  412MOL0     C54268   6.403  10.639   5.668 -0.0892  0.0851 -0.0092
  412MOL0     N54269   6.267  10.653   5.615  0.6734 -0.2115  0.0424
  412MOL0     C54270   6.214  10.768   5.573 -0.3073 -0.2639 -0.3116
  412MOL0     C54271   6.082  10.748   5.568  0.7161 -0.5820 -0.3884
  412MOL0     C54272   5.978  10.840   5.523  0.2733 -0.6467 -0.3243
  412MOL0     C54273   5.835  10.813   5.545 -0.3778 -0.7166  0.2192
  412MOL0     C54274   5.741  10.914   5.463  0.2295  0.3065 -0.8397
  412MOL0     C54275   5.597  10.937   5.520 -0.0413 -0.0044 -0.5429
  412MOL0     O54276   5.517  11.038   5.447  0.1113  0.3826 -0.3261
  412MOL0     C54277   5.385  11.052   5.482 -0.0112  1.3198 -0.8077
  412MOL0     C54278   5.292  11.085   5.387  0.2937  0.4379 -0.6631
  412MOL0     C54279   5.159  11.073   5.404  0.9278  0.4281  0.4164
  412MOL0     C54280   5.103  11.022   5.516 -0.9534 -1.3356 -0.6556
  412MOL0     C54281   4.962  10.985   5.526 -0.7638  0.4381 -0.0353
  412MOL0     O54282   4.885  11.039   5.420 -0.1531 -0.6323 -0.7411
  412MOL0     C54283   4.748  11.023   5.406 -0.0929 -0.1404 -0.5433
  412MOL0     C54284   4.659  10.985   5.505  0.1637  0.0657  0.8701
  412MOL0     C54285   4.525  10.974   5.481  0.2816 -0.4490  1.0149
  412MOL0     C54286   4.472  11.010   5.350  0.3794  0.0112  0.2120
  412MOL0     O54287   4.334  10.989   5.326 -0.2924  0.1806 -0.3281
  412MOL0     C54288   4.272  11.079   5.236 -0.0619 -0.4250  0.5432
  412MOL0     C54289   4.129  11.092   5.257  0.0316  0.1769 -0.0270
  412MOL0     C54290   4.102  11.181   5.382  0.7189  0.5524 -0.3732
  412MOL0     C54291   3.952  11.214   5.411  0.2048 -0.6819 -0.3004
  412MOL0     C54292   3.865  11.086   5.399  1.0068  0.8090 -0.2148
  412MOL0     C54293   3.752  11.094   5.506  0.8012 -0.1537  0.2586
  412MOL0     C54294   3.647  10.981   5.465 -0.1469 -0.6047 -0.7520
  412MOL0     C54295   3.570  10.937   5.588  1.2417 -0.1082 -0.0225
  412MOL0    Cl54296   3.522  11.063   5.688 -0.0148  0.3406 -0.4127
  412MOL0     C54297   4.570  11.045   5.251  0.4483 -0.6450  0.9475
  412MOL0     C54298   4.705  11.055   5.279  0.5968  0.0348 -0.2539
  412MOL0     O54299   4.924  10.907   5.612 -0.1777  0.4746  0.6198
  412MOL0     C54300   5.190  10.999   5.628  0.3918 -0.5628  0.6462
  412MOL0     C54301   5.332  11.008   5.611  0.0785 -0.1817  0.8054
  412MOL0     N54302   6.054  10.614   5.603  0.6721 -0.6309  0.9424
  412MOL0     N54303   6.165  10.559   5.624  0.3154 -0.7812 -0.4752
  412MOL0     C54304   7.274  10.300   5.977  0.5846  0.4718  1.1874
  412MOL0     C54305   7.391  10.222   5.985 -0.2970 -0.2937 -0.3575
  412MOL0     C54306   7.718   9.894   6.124  0.1604 -0.2678  0.5566
  412MOL0     C54307   7.786   9.957   6.024 -0.7173  0.1690  0.1338
  412MOL0     C54308   7.926   9.954   6.030  0.4425  0.4589 -0.6053
  412MOL0     C54309   8.003   9.883   6.121 -0.5639 -0.3926  0.0664
  412MOL0     O54310   8.135   9.868   6.089  0.4207  0.5921  0.2390
  412MOL0     C54311   8.224   9.813   6.198 -0.3258 -0.2640  0.5773
  412MOL0     C54312   8.358   9.895   6.194 -0.8365  0.1875  0.0827
  412MOL0     C54313   8.441   9.905   6.064 -0.0647 -0.3603 -0.4484
  412MOL0     C54314   8.467   9.771   5.996  0.7381 -0.2893 -0.3648
  412MOL0     C54315   8.547   9.686   6.090  0.3420 -0.1365  0.0935
  412MOL0     C54316   8.594   9.604   6.168 -1.3120 -0.4971 -0.6599
  412MOL0     C54317   7.922   9.822   6.228  0.6613  0.2938  0.2964
  412MOL0     C54318   7.793   9.827   6.225  0.3645  0.3288  0.3669
  412MOL0     H54319   7.292   9.942   6.148  1.2949 -1.1982 -1.3826
  412MOL0     H54320   7.097  10.093   6.183 -0.0405 -0.6617 -1.0000
  412MOL0     H54321   6.896  10.217   6.101  0.2581  1.0470 -0.0660
  412MOL0     H54322   6.942  10.223   5.930  0.0489  0.2291 -0.9817
  412MOL0     H54323   6.843  10.450   6.098  1.2922 -2.4253  1.1363
  412MOL0     H54324   6.733  10.349   6.009 -1.6425  2.0359  3.0708
  412MOL0     H54325   6.825  10.402   5.791  2.1097 -2.9674  1.3610
  412MOL0     H54326   6.962  10.495   5.857  0.4427 -1.7944  0.4319
  412MOL0     H54327   6.807  10.653   5.982 -0.8837 -0.5315 -0.6675
  412MOL0     H54328   6.817  10.675   5.811 -0.4797  0.3965 -0.6938
  412MOL0     H54329   6.620  10.505   5.938  1.1050 -0.8345 -1.1629
  412MOL0     H54330   6.645  10.529   5.763  3.7215  0.2153 -0.6922
  412MOL0     H54331   6.587  10.776   5.778 -2.4372 -1.3795 -1.1220
  412MOL0     H54332   6.544  10.777   5.942  2.5433  0.6727  0.0710
  412MOL0     H54333   6.378  10.591   5.878 -1.5122  0.9853  1.1504
  412MOL0     H54334   6.345  10.757   5.830 -0.8205 -0.2101 -2.9609
  412MOL0     H54335   6.425  10.532   5.660  4.5963  0.7848  0.6730
  412MOL0     H54336   6.476  10.683   5.600  0.5950  0.0780  0.7006
  412MOL0     H54337   6.276  10.854   5.550 -1.7294  0.7494 -0.4490
  412MOL0     H54338   5.982  10.865   5.417  1.5749 -0.8494 -0.3433
  412MOL0     H54339   5.994  10.936   5.574 -2.8941  3.0584 -5.4062
  412MOL0     H54340   5.812  10.808   5.652  0.7299 -2.7061  0.4190
  412MOL0     H54341   5.804  10.717   5.501 -0.5537 -0.8635  0.6551
  412MOL0     H54342   5.797  11.005   5.439 -0.5607  0.7053 -1.1911
  412MOL0     H54343   5.717  10.865   5.368  0.1075 -1.6187  0.1437
  412MOL0     H54344   5.597  10.964   5.626  1.2539  0.2486 -0.5884
  412MOL0     H54345   5.541  10.843   5.515 -0.5143  0.2632 -0.3714
  412MOL0     H54346   5.340  11.124   5.298  0.1881  2.5714  0.1622
  412MOL0     H54347   5.098  11.088   5.315  1.7355  4.0952  0.3053
  412MOL0     H54348   4.679  10.952   5.607  0.4994 -0.9835  0.4812
  412MOL0     H54349   4.455  10.937   5.555 -2.9374 -0.5689 -1.8289
  412MOL0     H54350   4.288  11.043   5.133  0.0091 -5.9851  2.1561
  412MOL0     H54351   4.318  11.178   5.242 -0.7806  0.0245 -0.8367
  412MOL0     H54352   4.088  10.991   5.266  0.7100 -0.0155  1.0023
  412MOL0     H54353   4.081  11.132   5.167 -1.7079 -0.9020  0.3864
  412MOL0     H54354   4.161  11.271   5.363  0.0832  0.3602 -3.8599
  412MOL0     H54355   4.153  11.137   5.468 -1.0271 -0.6098  0.1231
  412MOL0     H54356   3.945  11.265   5.507  3.7950 -1.0810  0.3303
  412MOL0     H54357   3.921  11.297   5.347 -1.2616 -1.4110 -0.5688
  412MOL0     H54358   3.927  10.998   5.422  0.7948  0.9342  0.9222
  412MOL0     H54359   3.824  11.075   5.299 -0.5021  4.2187 -0.0843
  412MOL0     H54360   3.697  11.187   5.498 -3.2429 -2.4661 -2.3707
  412MOL0     H54361   3.785  11.076   5.609  2.9543 -0.5007 -0.4406
  412MOL0     H54362   3.587  11.008   5.377  1.3793  0.0708 -1.6352
  412MOL0     H54363   3.711  10.899   5.430  2.8708  0.6231  1.4393
  412MOL0     H54364   3.634  10.871   5.648 -1.7742 -1.2589  2.1677
  412MOL0     H54365   3.491  10.870   5.554  0.8815  1.3775 -2.3386
  412MOL0     H54366   4.540  11.044   5.147 -1.5319 -2.1425  1.4671
  412MOL0     H54367   4.777  11.078   5.202 -1.1624 -1.9124 -2.6095
  412MOL0     H54368   5.153  10.967   5.725  0.6247 -0.1438  0.8742
  412MOL0     H54369   5.390  10.971   5.694 -2.2033 -4.7015  0.6869
  412MOL0     H54370   7.272  10.404   5.945 -2.6741  0.9797  2.6558
  412MOL0     H54371   7.481  10.263   5.940 -0.8012  1.0812 -0.1689
  412MOL0     H54372   7.739  10.022   5.950  3.2671  1.9855 -1.0820
  412MOL0     H54373   7.976  10.009   5.950  1.2690  1.0854  0.3135
  412MOL0     H54374   8.242   9.707   6.176 -4.7097 -1.6952  2.7173
  412MOL0     H54375   8.188   9.823   6.301 -0.6205 -0.6274  0.5111
  412MOL0     H54376   8.333   9.994   6.231 -1.4627  0.3267 -0.6632
  412MOL0     H54377   8.422   9.845   6.267 -1.0133  0.6173  0.5330
  412MOL0     H54378   8.538   9.951   6.083 -0.2974  0.9650 -2.2249
  412MOL0     H54379   8.395   9.969   5.988  1.4063  0.8213 -0.3753
  412MOL0     H54380   8.371   9.721   5.985 -0.6097  1.7225  1.4496
  412MOL0     H54381   8.507   9.778   5.894 -2.0606 -1.7700 -1.6685
  412MOL0     H54382   8.640   9.542   6.242  1.7349 -1.1442 -2.8769
  412MOL0     H54383   7.966   9.765   6.310  1.7770  3.2905  1.9150
  412MOL0     H54384   7.743   9.782   6.310  1.9581  4.0889  3.5622
  413MOL0     O54385   7.965   2.962   4.867 -0.8975 -0.1568  0.4647
  413MOL0     C54386   7.963   3.077   4.815  0.4049  0.4660 -0.4957
  413MOL0     O54387   7.870   3.114   4.731  0.3007 -0.0231  0.4465
  413MOL0     C54388   7.768   3.025   4.730  0.1434  0.2537  0.3332
  413MOL0     C54389   7.654   3.044   4.814 -0.2433 -0.5348  0.6842
  413MOL0     C54390   7.553   2.949   4.811  0.3040 -0.0813  0.6053
  413MOL0     C54391   7.558   2.834   4.729  0.0327  1.4579 -0.9187
  413MOL0     O54392   7.449   2.755   4.739  0.3575  0.2458  0.1210
  413MOL0     C54393   7.439   2.649   4.650 -0.2647  0.4625  0.0998
  413MOL0     C54394   7.325   2.549   4.685  0.4622  0.3783  0.0922
  413MOL0     C54395   7.200   2.609   4.735 -0.1123 -0.8254 -0.0795
  413MOL0     C54396   7.198   2.605   4.890 -0.2888  0.0643 -0.3880
  413MOL0     C54397   7.058   2.626   4.942  0.6866 -0.4079 -0.9538
  413MOL0     C54398   7.013   2.775   4.932  0.5195 -0.6965  0.2615
  413MOL0     C54399   6.861   2.781   4.985 -0.7061  0.0632  0.1924
  413MOL0     C54400   6.757   2.711   4.890 -0.2286 -0.4037 -0.2802
  413MOL0     N54401   6.628   2.778   4.901 -0.2595  0.7036 -0.1164
  413MOL0     C54402   6.622   2.913   4.862 -0.0807  0.3037 -0.5864
  413MOL0     C54403   6.503   2.957   4.913  0.1737 -0.6063  0.2838
  413MOL0     C54404   6.429   3.096   4.890  0.3186 -0.5044 -0.5436
  413MOL0     C54405   6.294   3.084   4.815 -0.5443  0.4781 -0.1237
  413MOL0     C54406   6.242   3.222   4.790 -0.2874  0.7649 -1.4551
  413MOL0     C54407   6.105   3.230   4.721  0.0601 -0.6369  0.0014
  413MOL0     O54408   6.069   3.369   4.688  1.0099  0.6570 -0.2925
  413MOL0     C54409   5.951   3.393   4.623 -0.2545  0.3444 -0.2246
  413MOL0     C54410   5.935   3.506   4.554 -0.0115 -0.3222 -0.2782
  413MOL0     C54411   5.822   3.534   4.473 -0.3019  0.2087 -0.0646
  413MOL0     C54412   5.721   3.444   4.471  0.3997 -0.5695 -0.9481
  413MOL0     C54413   5.593   3.478   4.388  0.2964  0.2408  1.0023
  413MOL0     O54414   5.596   3.586   4.300  0.0231 -0.1536 -1.8466
  413MOL0     C54415   5.486   3.619   4.222 -0.2868 -0.1546  0.1474
  413MOL0     C54416   5.499   3.602   4.081 -0.1877  0.5360  0.3552
  413MOL0     C54417   5.395   3.658   4.006  0.0073  0.2046 -0.6130
  413MOL0     C54418   5.282   3.732   4.062  0.6224  0.9753 -0.5240
  413MOL0     O54419   5.180   3.788   4.000 -1.1370 -0.0212 -0.3291
  413MOL0     C54420   5.171   3.776   3.864  0.8932 -0.2106  1.3010
  413MOL0     C54421   5.037   3.850   3.819 -0.6276  0.7112 -0.3884
  413MOL0     C54422   5.030   3.989   3.886 -0.3673 -0.2621  0.5382
  413MOL0     C54423   4.966   4.090   3.799 -0.0846 -0.2610  0.1743
  413MOL0     C54424   4.960   4.223   3.869 -0.5198  0.0416  0.5931
  413MOL0     C54425   4.929   4.340   3.779  0.3523 -0.5908  0.2805
  413MOL0     C54426   4.795   4.340   3.701 -0.5077 -0.4941  0.4178
  413MOL0     C54427   4.715   4.473   3.703  0.7057  0.2676  0.3893
  413MOL0    Cl54428   4.551   4.446   3.621 -0.5981  0.1009 -0.0425
  413MOL0     C54429   5.277   3.739   4.201 -0.0896  0.4800 -0.6476
  413MOL0     C54430   5.381   3.690   4.274 -0.8873  0.2196  0.7249
  413MOL0     O54431   5.498   3.403   4.412  0.1570  0.3292 -0.2564
  413MOL0     C54432   5.729   3.325   4.547 -0.8122  0.0918 -0.5249
  413MOL0     C54433   5.850   3.304   4.625 -0.8198  0.1914 -0.0896
  413MOL0     N54434   6.454   2.850   4.992  0.5707 -0.2391 -0.8342
  413MOL0     N54435   6.529   2.741   4.988 -0.5028  1.1892  0.2954
  413MOL0     C54436   7.668   2.821   4.638  1.0851 -0.0188  0.0580
  413MOL0     C54437   7.769   2.917   4.634  0.8841 -0.3993 -0.0667
  413MOL0     C54438   8.072   3.166   4.856 -0.2281  0.2743 -0.5271
  413MOL0     C54439   8.059   3.303   4.844  0.2195 -0.2301  0.5800
  413MOL0     C54440   8.161   3.389   4.876  0.0845 -0.1970  0.6830
  413MOL0     C54441   8.274   3.346   4.938 -0.8667  0.3958  0.1553
  413MOL0     O54442   8.377   3.429   4.983  0.6333  0.1351 -0.2725
  413MOL0     C54443   8.391   3.555   4.928  0.1864 -0.6020  0.4516
  413MOL0     C54444   8.522   3.617   4.964  0.8752 -0.0073  0.3691
  413MOL0     C54445   8.534   3.645   5.120 -0.0218  0.0521  0.1312
  413MOL0     C54446   8.680   3.599   5.158 -1.2765 -0.2424 -0.2312
  413MOL0     C54447   8.691   3.549   5.291 -0.0001  0.9645  1.3320
  413MOL0     C54448   8.703   3.521   5.407  0.9062 -0.5694  0.2301
  413MOL0     C54449   8.291   3.208   4.945  0.3051  0.2820  0.6453
  413MOL0     C54450   8.197   3.121   4.892 -0.5637 -0.4394  0.0926
  413MOL0     H54451   7.633   3.135   4.869  0.1105 -1.1127  1.8048
  413MOL0     H54452   7.469   2.962   4.879  1.5779 -0.6112  2.3466
  413MOL0     H54453   7.538   2.606   4.631  0.0736  1.0703  0.4576
  413MOL0     H54454   7.413   2.688   4.551 -2.3031 -1.6797 -0.2921
  413MOL0     H54455   7.356   2.463   4.744 -0.9191 -0.5028 -0.4005
  413MOL0     H54456   7.303   2.508   4.586  2.1520  0.0244 -0.1732
  413MOL0     H54457   7.116   2.552   4.694  0.9581 -2.4577 -0.0788
  413MOL0     H54458   7.173   2.705   4.690 -3.9297 -1.5762  0.2673
  413MOL0     H54459   7.238   2.506   4.915 -1.2154 -0.6750 -1.6770
  413MOL0     H54460   7.270   2.676   4.932  2.2262 -0.4067 -3.4599
  413MOL0     H54461   7.070   2.591   5.045  2.4030 -2.0479 -1.6520
  413MOL0     H54462   6.983   2.568   4.887 -2.7083  0.8074  2.0212
  413MOL0     H54463   7.028   2.818   4.833  1.3767  1.4454  1.2456
  413MOL0     H54464   7.066   2.834   5.009  1.4571 -1.2260  0.0368
  413MOL0     H54465   6.855   2.744   5.087  1.9134 -1.0954  0.0066
  413MOL0     H54466   6.831   2.884   5.006 -1.7313 -0.2342  0.2468
  413MOL0     H54467   6.736   2.613   4.933 -1.8740  0.6398  1.4612
  413MOL0     H54468   6.777   2.707   4.782  0.2246  1.6471 -0.3176
  413MOL0     H54469   6.678   2.971   4.789 -1.6461  4.0509  0.9578
  413MOL0     H54470   6.502   3.154   4.834  1.5874  1.0684  2.4655
  413MOL0     H54471   6.412   3.148   4.985  0.8531  0.9090 -1.2018
  413MOL0     H54472   6.222   3.028   4.876 -2.3343  0.7347 -1.9194
  413MOL0     H54473   6.305   3.031   4.720  0.5315 -1.0302  0.7956
  413MOL0     H54474   6.232   3.266   4.890 -0.6454 -2.4035  0.0496
  413MOL0     H54475   6.314   3.281   4.733 -1.6961  0.3589 -3.8081
  413MOL0     H54476   6.034   3.174   4.782 -1.3474 -1.4707 -2.2956
  413MOL0     H54477   6.113   3.175   4.627  1.1012 -1.5870  0.6153
  413MOL0     H54478   5.998   3.594   4.563 -0.3909  0.3319 -3.1044
  413MOL0     H54479   5.806   3.627   4.419 -1.4904 -2.0464 -4.0499
  413MOL0     H54480   5.585   3.558   4.031 -1.4201 -3.2190  1.2509
  413MOL0     H54481   5.397   3.637   3.900  1.6822 -3.8422  0.0315
  413MOL0     H54482   5.156   3.675   3.825 -3.7486  1.0626 -1.0000
  413MOL0     H54483   5.259   3.820   3.818 -1.2093  1.2037 -1.6721
  413MOL0     H54484   4.954   3.791   3.859 -1.4910  1.5219 -0.9518
  413MOL0     H54485   5.039   3.847   3.709  0.3393 -0.6697 -0.3714
  413MOL0     H54486   5.133   4.019   3.909  0.4079  0.4382 -3.1363
  413MOL0     H54487   4.985   3.974   3.984 -2.3603  1.2325 -0.0783
  413MOL0     H54488   5.025   4.083   3.707 -0.9435 -4.7175 -0.2455
  413MOL0     H54489   4.866   4.059   3.769  0.2278 -1.6322  0.4983
  413MOL0     H54490   5.051   4.232   3.928 -0.2466 -1.2565  0.3969
  413MOL0     H54491   4.878   4.237   3.941 -0.1977  1.3244  0.7365
  413MOL0     H54492   5.014   4.338   3.710 -1.1626 -2.6560 -1.6264
  413MOL0     H54493   4.947   4.420   3.852  1.3975 -0.3150 -0.2651
  413MOL0     H54494   4.803   4.307   3.597  0.9772  0.7842  0.0880
  413MOL0     H54495   4.733   4.265   3.751 -0.2941 -0.0170  1.4284
  413MOL0     H54496   4.763   4.559   3.654  1.4136 -1.4406 -2.1794
  413MOL0     H54497   4.704   4.504   3.807 -0.0909  1.7261 -0.1074
  413MOL0     H54498   5.197   3.793   4.250 -1.8822 -1.2590 -1.4715
  413MOL0     H54499   5.385   3.704   4.381  0.6795  2.9048  0.3867
  413MOL0     H54500   5.646   3.256   4.558  0.1818 -0.8773  1.5228
  413MOL0     H54501   5.852   3.221   4.695  3.3268  0.9051  0.8761
  413MOL0     H54502   7.664   2.735   4.572 -0.4102 -0.8211  1.1315
  413MOL0     H54503   7.848   2.915   4.560  0.2081 -0.3628 -0.8011
  413MOL0     H54504   7.968   3.345   4.804  2.6812  1.5398 -3.9019
  413MOL0     H54505   8.151   3.493   4.846 -2.1007  0.4842  3.3347
  413MOL0     H54506   8.306   3.611   4.965  1.5939  1.5132  0.6244
  413MOL0     H54507   8.390   3.540   4.819 -2.4227 -0.6853  0.4237
  413MOL0     H54508   8.598   3.550   4.924 -0.9045 -1.5169 -0.6335
  413MOL0     H54509   8.531   3.713   4.913 -1.0867 -1.7883 -3.8307
  413MOL0     H54510   8.453   3.600   5.177 -0.1432 -1.0941 -0.8816
  413MOL0     H54511   8.528   3.753   5.136  2.5241  0.3046 -0.1961
  413MOL0     H54512   8.716   3.519   5.093  1.1891  0.2863  0.3751
  413MOL0     H54513   8.753   3.679   5.142 -0.0321 -1.1032  1.0134
  413MOL0     H54514   8.705   3.491   5.510 -0.9405 -0.9879  0.1827
  413MOL0     H54515   8.377   3.150   4.977 -0.7053 -1.6286  0.0763
  413MOL0     H54516   8.220   3.015   4.895 -0.5684 -0.4256  0.8168
  414MOL0     O54517  10.096   8.280   4.731  0.5414  0.0552  0.3712
  414MOL0     C54518  10.106   8.194   4.816 -0.0001 -0.0584  0.0576
  414MOL0     O54519  10.003   8.100   4.853  0.4567  0.0974 -0.1003
  414MOL0     C54520   9.882   8.106   4.793  0.7134  0.8063  0.1581
  414MOL0     C54521   9.867   8.119   4.654 -0.9630 -0.5090  0.3868
  414MOL0     C54522   9.736   8.144   4.600 -1.1532  0.4878  0.3689
  414MOL0     C54523   9.625   8.145   4.673  0.3879 -0.0413  0.0914
  414MOL0     O54524   9.506   8.177   4.617  0.6001 -0.1654 -0.5447
  414MOL0     C54525   9.467   8.105   4.495  1.3857 -0.4644  0.3520
  414MOL0     C54526   9.315   8.090   4.482  0.0670 -0.3174  0.4152
  414MOL0     C54527   9.273   8.001   4.365 -0.3314 -0.8373 -0.3019
  414MOL0     C54528   9.121   7.990   4.347 -0.8069  0.0125 -0.4909
  414MOL0     C54529   9.106   7.907   4.222 -0.1479 -0.1561 -0.4129
  414MOL0     C54530   8.955   7.904   4.186 -0.7044 -0.2929 -0.3920
  414MOL0     C54531   8.925   7.813   4.061  0.0342  0.7825 -0.2251
  414MOL0     C54532   8.786   7.845   4.007 -0.6634  0.6474  0.4250
  414MOL0     N54533   8.673   7.809   4.095 -0.1130  0.5017 -1.0626
  414MOL0     C54534   8.557   7.892   4.123  0.1707 -0.3988  0.6373
  414MOL0     C54535   8.480   7.803   4.195  0.1028 -0.8259 -0.6961
  414MOL0     C54536   8.344   7.841   4.246 -0.0833  0.0934  0.0610
  414MOL0     C54537   8.269   7.711   4.278 -1.2283 -0.5536  0.1496
  414MOL0     C54538   8.141   7.723   4.359 -0.1769  0.7777  0.1285
  414MOL0     C54539   8.039   7.808   4.278 -0.1981  0.2993 -0.2806
  414MOL0     O54540   7.906   7.800   4.332  0.5744 -0.0941 -0.0559
  414MOL0     C54541   7.812   7.882   4.280 -0.3510 -0.8968  0.8828
  414MOL0     C54542   7.830   7.953   4.165  0.0477 -0.2153  0.5088
  414MOL0     C54543   7.736   8.053   4.130 -0.7032 -0.3894  0.1675
  414MOL0     C54544   7.619   8.065   4.200  0.2461 -0.0297 -0.4230
  414MOL0     C54545   7.524   8.175   4.161  0.2084 -0.3110  0.1171
  414MOL0     O54546   7.413   8.195   4.234  0.9423 -0.9631 -0.1163
  414MOL0     C54547   7.327   8.299   4.201  0.6323 -0.8179  0.2094
  414MOL0     C54548   7.196   8.267   4.235  0.0884 -0.0426  0.1943
  414MOL0     C54549   7.090   8.366   4.219  0.4579  0.3113 -0.7870
  414MOL0     C54550   7.125   8.495   4.165 -0.1463  0.4807 -0.0933
  414MOL0     O54551   7.038   8.595   4.147  0.0820 -0.2806  0.5777
  414MOL0     C54552   6.910   8.580   4.204  0.7870 -1.0814  0.2108
  414MOL0     C54553   6.837   8.715   4.217  0.0617 -1.1248 -0.0083
  414MOL0     C54554   6.693   8.694   4.250 -0.1606  1.1086  0.4509
  414MOL0     C54555   6.625   8.830   4.281  0.2192  0.1231 -0.1287
  414MOL0     C54556   6.473   8.808   4.267 -0.1053  0.4241 -1.0371
  414MOL0     C54557   6.392   8.926   4.304  0.4780 -0.2007 -1.0407
  414MOL0     C54558   6.244   8.915   4.266  0.7703 -0.2714 -0.6729
  414MOL0     C54559   6.196   9.041   4.191  0.4310  0.2118  0.1189
  414MOL0    Cl54560   6.209   9.189   4.294 -0.3515  0.1384 -0.6732
  414MOL0     C54561   7.261   8.522   4.131 -0.4407 -0.5248 -0.2342
  414MOL0     C54562   7.356   8.434   4.157 -0.5034  0.0627 -0.1992
  414MOL0     O54563   7.560   8.244   4.066 -0.0888  0.1158  0.3652
  414MOL0     C54564   7.593   7.994   4.319 -0.7646  0.2951 -0.3066
  414MOL0     C54565   7.699   7.904   4.360  0.4631  0.2644  0.3940
  414MOL0     N54566   8.536   7.680   4.208  0.4834  0.0262  0.4798
  414MOL0     N54567   8.659   7.687   4.159 -0.3295 -0.5490 -0.0779
  414MOL0     C54568   9.644   8.145   4.811  0.6902  0.3332 -0.4580
  414MOL0     C54569   9.766   8.123   4.873  0.1422  0.5050  0.5284
  414MOL0     C54570  10.234   8.161   4.870 -1.2680 -0.8739  0.5482
  414MOL0     C54571  10.254   8.137   5.001  0.1813  0.5013 -0.3763
  414MOL0     C54572  10.374   8.084   5.052 -0.6368 -0.0634 -0.3268
  414MOL0     C54573  10.484   8.069   4.964 -0.9669 -0.6561  1.1348
  414MOL0     O54574  10.606   8.021   5.014 -0.0697 -0.2774 -0.7524
  414MOL0     C54575  10.681   7.908   4.954 -0.7605 -0.0742  0.3179
  414MOL0     C54576  10.616   7.770   4.995 -0.9737 -0.5064 -0.6161
  414MOL0     C54577  10.694   7.666   4.926 -0.2870  0.6637 -0.5643
  414MOL0     C54578  10.632   7.529   4.943 -0.5604  0.1148 -0.7008
  414MOL0     C54579  10.491   7.520   4.913  0.3608 -0.3413  0.0290
  414MOL0     C54580  10.364   7.501   4.925 -0.4005  0.3966  0.3595
  414MOL0     C54581  10.474   8.113   4.834  0.4206  0.2784 -0.3269
  414MOL0     C54582  10.349   8.146   4.783 -0.0913 -0.2548 -0.3730
  414MOL0     H54583   9.957   8.119   4.593 -0.8521  4.3562  0.1936
  414MOL0     H54584   9.735   8.182   4.498 -0.8615  2.3676  1.0181
  414MOL0     H54585   9.508   8.004   4.503  2.4694 -0.1299 -0.7251
  414MOL0     H54586   9.506   8.156   4.407 -0.9912 -0.2053 -0.6261
  414MOL0     H54587   9.276   8.190   4.461 -2.2570 -1.4229 -0.9362
  414MOL0     H54588   9.272   8.042   4.571  0.7477  0.6521  1.2878
  414MOL0     H54589   9.305   7.902   4.398 -0.4779 -0.6851  0.3070
  414MOL0     H54590   9.318   8.036   4.271  0.3890  0.4249  0.4901
  414MOL0     H54591   9.077   7.948   4.438  2.9431 -2.0176  0.5885
  414MOL0     H54592   9.074   8.085   4.319 -0.2237  0.1762 -0.9135
  414MOL0     H54593   9.131   7.802   4.240 -3.9135 -0.5838  3.7392
  414MOL0     H54594   9.162   7.929   4.130 -2.0107  0.7815 -1.3671
  414MOL0     H54595   8.920   8.006   4.166 -0.5645 -0.5542 -2.0842
  414MOL0     H54596   8.898   7.846   4.259  0.1079 -1.3416 -0.5711
  414MOL0     H54597   8.998   7.836   3.983 -1.1762  1.0942 -1.2942
  414MOL0     H54598   8.933   7.708   4.093  0.1480  1.0237  0.5574
  414MOL0     H54599   8.779   7.778   3.922 -0.2002  0.5992  0.4281
  414MOL0     H54600   8.774   7.951   3.983  3.1535  1.0469 -0.2031
  414MOL0     H54601   8.544   7.996   4.095 -1.1914 -1.1204 -1.7239
  414MOL0     H54602   8.274   7.893   4.180  0.2279 -3.0624 -2.9844
  414MOL0     H54603   8.373   7.890   4.340 -3.3934  0.1664  1.1482
  414MOL0     H54604   8.337   7.641   4.327 -0.0249  0.0038 -0.6795
  414MOL0     H54605   8.246   7.676   4.177  0.9830  3.5285 -2.0525
  414MOL0     H54606   8.101   7.625   4.384 -2.0052  1.3233 -0.4863
  414MOL0     H54607   8.165   7.762   4.458  3.0692 -0.4071 -0.0866
  414MOL0     H54608   8.027   7.760   4.180 -0.7237 -0.2528  0.0400
  414MOL0     H54609   8.068   7.913   4.275 -0.2357  0.4998  2.9213
  414MOL0     H54610   7.916   7.937   4.102 -0.4223 -0.1427 -0.1565
  414MOL0     H54611   7.760   8.106   4.039 -2.4180 -1.0282 -0.6981
  414MOL0     H54612   7.170   8.166   4.264 -0.3105  0.5721  2.1354
  414MOL0     H54613   6.990   8.341   4.253  0.5842  2.3340  1.4116
  414MOL0     H54614   6.909   8.542   4.307  0.0631  0.8291  0.9530
  414MOL0     H54615   6.849   8.509   4.148 -1.8443 -1.5820  3.4111
  414MOL0     H54616   6.845   8.775   4.126  0.0454 -0.2920  0.5281
  414MOL0     H54617   6.882   8.782   4.292  0.1316  0.5534 -1.4671
  414MOL0     H54618   6.686   8.627   4.336 -1.5494 -2.2367 -2.0538
  414MOL0     H54619   6.646   8.633   4.173 -0.5409  1.8227  0.0994
  414MOL0     H54620   6.656   8.845   4.385  1.7286 -1.3992 -0.3082
  414MOL0     H54621   6.658   8.912   4.217 -1.7979  1.4080  0.3693
  414MOL0     H54622   6.443   8.729   4.337 -0.8246  0.9926 -0.7044
  414MOL0     H54623   6.451   8.781   4.163  0.3070 -2.3198 -0.4868
  414MOL0     H54624   6.429   9.012   4.247 -1.0456  0.8284 -0.5392
  414MOL0     H54625   6.406   8.953   4.409 -0.4056  0.1095 -0.9974
  414MOL0     H54626   6.220   8.825   4.208 -2.0004  0.9167 -1.5493
  414MOL0     H54627   6.188   8.895   4.358  2.5668 -0.2516  0.4707
  414MOL0     H54628   6.092   9.028   4.157  0.6451  1.5870 -1.1776
  414MOL0     H54629   6.265   9.064   4.109  0.6070  0.3519  0.3084
  414MOL0     H54630   7.288   8.621   4.096  1.1597 -0.3176  1.4360
  414MOL0     H54631   7.463   8.442   4.140  0.0544 -1.9875  1.9158
  414MOL0     H54632   7.502   8.004   4.377 -0.9133  0.4035 -0.5609
  414MOL0     H54633   7.693   7.847   4.452  1.1011  0.5057  0.5916
  414MOL0     H54634   9.556   8.155   4.875  0.5902  1.9975 -0.7953
  414MOL0     H54635   9.779   8.118   4.981  0.3642 -1.4875  0.4384
  414MOL0     H54636  10.172   8.135   5.073 -0.3067  1.7019 -0.8702
  414MOL0     H54637  10.390   8.047   5.153 -2.0514  0.5961  0.1593
  414MOL0     H54638  10.784   7.916   4.991 -1.1641 -1.4228  1.8726
  414MOL0     H54639  10.687   7.914   4.845 -3.4946 -1.6445 -0.0140
  414MOL0     H54640  10.629   7.746   5.101  0.8760 -0.4309 -0.7950
  414MOL0     H54641  10.509   7.773   4.973 -1.4007 -2.1191  1.0307
  414MOL0     H54642  10.796   7.669   4.965  0.2384 -1.0939 -1.6894
  414MOL0     H54643  10.697   7.687   4.819 -3.3277  0.6430 -0.7493
  414MOL0     H54644  10.685   7.462   4.874 -3.2419 -2.3999 -0.5204
  414MOL0     H54645  10.651   7.493   5.044 -1.0813  4.0544  0.9598
  414MOL0     H54646  10.261   7.476   4.934 -0.3999 -0.7504 -2.0835
  414MOL0     H54647  10.560   8.118   4.768  0.7272 -1.3904 -0.0950
  414MOL0     H54648  10.334   8.173   4.679  2.2681 -0.1656 -0.7461
  415MOL0     O54649   5.018   5.180   0.669 -0.1207  0.3036  0.2015
  415MOL0     C54650   5.061   5.300   0.670 -0.3046  0.3530 -0.2702
  415MOL0     O54651   4.981   5.405   0.675 -0.7672  0.3478  0.5025
  415MOL0     C54652   4.849   5.376   0.680  0.2155 -0.6974 -0.1309
  415MOL0     C54653   4.793   5.373   0.805 -0.0118  0.3885  0.5190
  415MOL0     C54654   4.654   5.365   0.815  0.7351 -0.1277 -0.1075
  415MOL0     C54655   4.568   5.366   0.696 -0.9949 -0.4868 -0.2948
  415MOL0     O54656   4.437   5.363   0.683  0.0096 -0.3928  0.9341
  415MOL0     C54657   4.359   5.397   0.798 -0.2967  0.2664  0.6470
  415MOL0     C54658   4.211   5.424   0.770 -0.1310 -0.5294 -0.7346
  415MOL0     C54659   4.138   5.295   0.750 -0.0079  0.3809  0.5762
  415MOL0     C54660   3.984   5.315   0.736 -0.3398 -0.3087 -0.5831
  415MOL0     C54661   3.883   5.203   0.755 -0.1853  0.9700  0.4637
  415MOL0     C54662   3.890   5.095   0.643 -0.0248  0.5883  0.7217
  415MOL0     C54663   3.771   4.999   0.653 -0.9865  0.7646 -0.5810
  415MOL0     C54664   3.767   4.913   0.526 -0.0368 -0.1281 -0.2252
  415MOL0     N54665   3.875   4.813   0.508 -0.5732 -0.2790  0.2603
  415MOL0     C54666   3.905   4.759   0.387 -0.4893 -0.0784  0.9518
  415MOL0     C54667   4.007   4.672   0.409 -0.6021  0.1118  0.0949
  415MOL0     C54668   4.090   4.599   0.307  0.4649 -1.0785  0.1039
  415MOL0     C54669   3.996   4.507   0.227 -0.4739 -0.7855  0.5372
  415MOL0     C54670   3.957   4.385   0.306  1.9550  0.2834 -0.1469
  415MOL0     C54671   3.851   4.309   0.224  0.2005  0.2348 -0.8028
  415MOL0     O54672   3.783   4.212   0.308 -0.4961  0.5973  0.5234
  415MOL0     C54673   3.648   4.186   0.289 -0.0156 -0.1968  0.0499
  415MOL0     C54674   3.579   4.111   0.386 -0.2340 -0.3509 -0.5817
  415MOL0     C54675   3.442   4.086   0.385 -0.5563 -0.4837  0.0006
  415MOL0     C54676   3.370   4.133   0.278 -0.1736  0.2939 -0.1725
  415MOL0     C54677   3.223   4.114   0.278  0.0879  0.1572  0.3677
  415MOL0     O54678   3.163   4.082   0.400 -0.1659 -0.3970 -0.1030
  415MOL0     C54679   3.029   4.088   0.427 -0.0329  0.3738  0.0137
  415MOL0     C54680   2.925   4.050   0.331  0.6106  0.2890  0.4281
  415MOL0     C54681   2.793   4.073   0.365 -0.1775  0.7274 -0.8699
  415MOL0     C54682   2.760   4.135   0.489 -0.4849 -1.0534  0.2821
  415MOL0     O54683   2.629   4.173   0.505  0.1524  0.4726  1.2020
  415MOL0     C54684   2.562   4.172   0.634  0.1556 -0.5569 -1.0583
  415MOL0     C54685   2.457   4.068   0.643 -0.2375 -0.0382 -0.6148
  415MOL0     C54686   2.352   4.098   0.755 -0.4196  0.9521 -0.2502
  415MOL0     C54687   2.262   3.972   0.773 -0.6956  0.1476 -0.2229
  415MOL0     C54688   2.165   3.988   0.893  0.8130  0.1947 -0.4206
  415MOL0     C54689   2.211   3.911   1.016 -0.0259 -0.8411  0.7251
  415MOL0     C54690   2.109   3.884   1.123 -0.5050  0.3378  0.5837
  415MOL0     C54691   2.030   3.751   1.100 -0.1165  0.3704  0.0982
  415MOL0    Cl54692   2.142   3.605   1.095 -0.3383  0.1024 -0.1507
  415MOL0     C54693   2.863   4.156   0.590  0.1085 -0.2096 -0.2013
  415MOL0     C54694   2.999   4.125   0.554  0.7041 -0.8649  0.3622
  415MOL0     O54695   3.157   4.146   0.171 -0.2219 -0.2091 -0.4071
  415MOL0     C54696   3.443   4.186   0.168  0.2535 -0.0006  0.0839
  415MOL0     C54697   3.575   4.224   0.173 -0.2319 -1.1344 -0.0612
  415MOL0     N54698   4.026   4.672   0.544  0.2333 -0.0821 -0.4001
  415MOL0     N54699   3.960   4.761   0.607  0.6314 -0.0761  0.4766
  415MOL0     C54700   4.629   5.354   0.570 -0.4116  0.0657 -0.0217
  415MOL0     C54701   4.770   5.368   0.565 -0.5392  0.1653  0.0615
  415MOL0     C54702   5.198   5.310   0.714 -0.4597  0.5912  0.2010
  415MOL0     C54703   5.268   5.427   0.683  0.2517  0.4439 -0.3715
  415MOL0     C54704   5.411   5.414   0.692  0.1513 -0.4036 -0.1434
  415MOL0     C54705   5.481   5.307   0.737  0.0353 -0.0094  0.3446
  415MOL0     O54706   5.617   5.304   0.759  0.1660  1.2555 -0.3233
  415MOL0     C54707   5.681   5.432   0.781  0.7035  0.3695 -0.5030
  415MOL0     C54708   5.831   5.405   0.820 -0.8755 -0.6261  0.2067
  415MOL0     C54709   5.909   5.311   0.731 -0.0255 -0.2914  0.4864
  415MOL0     C54710   6.053   5.297   0.767  0.7206  0.4212  0.1086
  415MOL0     C54711   6.141   5.365   0.676 -1.1073  0.3159  0.3404
  415MOL0     C54712   6.230   5.419   0.617  0.4346  0.8054  0.9315
  415MOL0     C54713   5.406   5.198   0.776 -0.1195 -0.1000 -0.3837
  415MOL0     C54714   5.270   5.198   0.759  1.0067 -0.4265  0.5794
  415MOL0     H54715   4.840   5.372   0.903  1.4214 -1.7949 -0.1220
  415MOL0     H54716   4.611   5.364   0.914 -0.0711  3.3746 -0.2576
  415MOL0     H54717   4.396   5.483   0.855  0.8519  0.3150 -0.1344
  415MOL0     H54718   4.377   5.316   0.870  1.4496 -0.4305 -0.5118
  415MOL0     H54719   4.197   5.496   0.689 -1.4035  0.5003  0.3588
  415MOL0     H54720   4.169   5.473   0.859 -2.0771  0.7349 -2.2668
  415MOL0     H54721   4.165   5.233   0.836  2.9220  1.0488  0.2549
  415MOL0     H54722   4.176   5.254   0.655  0.2278  0.4460  0.6406
  415MOL0     H54723   3.948   5.401   0.793 -1.5116  0.7513 -2.7871
  415MOL0     H54724   3.975   5.359   0.636 -0.3466  2.9663  0.7184
  415MOL0     H54725   3.790   5.257   0.777  1.6350  3.9457  1.4541
  415MOL0     H54726   3.912   5.141   0.840 -0.4320  0.1251 -0.0561
  415MOL0     H54727   3.978   5.031   0.650 -1.3454 -1.4289 -0.0731
  415MOL0     H54728   3.881   5.143   0.545 -1.0950  0.1258  0.5851
  415MOL0     H54729   3.792   4.941   0.744 -0.4918  3.0634  0.8486
  415MOL0     H54730   3.674   5.044   0.676 -1.6795 -1.3265  0.9275
  415MOL0     H54731   3.766   4.986   0.445 -2.5459 -0.0071 -0.1552
  415MOL0     H54732   3.671   4.862   0.532 -0.8050  1.3076  0.2642
  415MOL0     H54733   3.867   4.788   0.290  2.0268  2.8922  0.6970
  415MOL0     H54734   4.167   4.538   0.354 -0.0692 -2.3942 -0.6788
  415MOL0     H54735   4.147   4.669   0.244  2.8152 -2.0100  1.1054
  415MOL0     H54736   4.049   4.478   0.136 -2.3740 -0.8334 -0.6074
  415MOL0     H54737   3.906   4.562   0.197  2.4977  1.4661 -6.4045
  415MOL0     H54738   4.044   4.321   0.327 -0.3911 -3.9800 -2.1331
  415MOL0     H54739   3.908   4.409   0.401  0.1861  0.2022 -0.9919
  415MOL0     H54740   3.897   4.259   0.138 -1.1057 -2.3534 -0.0817
  415MOL0     H54741   3.777   4.375   0.176 -2.3998 -2.8079 -1.3200
  415MOL0     H54742   3.641   4.072   0.467  0.7628  1.5513 -0.3667
  415MOL0     H54743   3.390   4.037   0.466 -1.9060 -0.0916 -0.6043
  415MOL0     H54744   2.940   4.018   0.229  1.4697  0.1894  0.5793
  415MOL0     H54745   2.719   4.060   0.287 -2.5082  0.9011  1.1915
  415MOL0     H54746   2.528   4.275   0.650  0.7440 -0.5976  0.6857
  415MOL0     H54747   2.624   4.146   0.720 -0.8286 -0.7380 -0.3759
  415MOL0     H54748   2.504   3.970   0.654  0.4016  0.0393 -2.3260
  415MOL0     H54749   2.398   4.063   0.551  0.0864 -1.1918 -0.7763
  415MOL0     H54750   2.293   4.188   0.734  0.5005  1.8877  0.9665
  415MOL0     H54751   2.415   4.111   0.844 -0.0968  0.3564 -0.3875
  415MOL0     H54752   2.197   3.969   0.685  1.4253  0.0379 -1.8848
  415MOL0     H54753   2.318   3.879   0.774  0.4686  0.7583 -2.1218
  415MOL0     H54754   2.069   3.940   0.870  0.9527 -1.2336  1.7045
  415MOL0     H54755   2.145   4.091   0.923  0.4827 -0.6155  2.3527
  415MOL0     H54756   2.291   3.970   1.062 -1.1588  1.1976  0.1920
  415MOL0     H54757   2.257   3.821   0.974  0.2288  0.0217 -0.9342
  415MOL0     H54758   2.154   3.875   1.222 -1.3557 -0.3279  0.9185
  415MOL0     H54759   2.038   3.966   1.126 -0.8409  0.3133 -2.7048
  415MOL0     H54760   1.968   3.763   1.011 -0.2815  2.2646  0.4273
  415MOL0     H54761   1.963   3.734   1.185 -1.9650  1.3537 -1.0891
  415MOL0     H54762   2.840   4.205   0.684  0.7312  2.5784 -1.3833
  415MOL0     H54763   3.089   4.129   0.615  0.9067 -1.2195  0.0937
  415MOL0     H54764   3.388   4.213   0.079  0.2711 -0.9301 -0.2241
  415MOL0     H54765   3.632   4.268   0.091  2.7294 -1.4224  1.6784
  415MOL0     H54766   4.571   5.342   0.479  0.7991  3.1593 -1.3790
  415MOL0     H54767   4.823   5.385   0.472  0.0518 -0.7826  0.2096
  415MOL0     H54768   5.222   5.511   0.632  1.9694  0.9817 -1.0936
  415MOL0     H54769   5.471   5.501   0.668  2.7281 -2.2704 -0.8603
  415MOL0     H54770   5.641   5.490   0.865  1.0759  1.2973 -0.9462
  415MOL0     H54771   5.679   5.498   0.694  2.8378 -1.0115 -1.6934
  415MOL0     H54772   5.882   5.500   0.802 -0.8449 -0.7984 -0.7007
  415MOL0     H54773   5.844   5.366   0.921  3.8853 -0.1755 -0.0206
  415MOL0     H54774   5.902   5.354   0.630  1.6606  0.8388  0.8114
  415MOL0     H54775   5.860   5.214   0.738  1.6441 -1.0453  2.7775
  415MOL0     H54776   6.067   5.342   0.866 -0.5687  1.7827 -0.2948
  415MOL0     H54777   6.077   5.191   0.773  0.0844  0.3309  1.5327
  415MOL0     H54778   6.311   5.450   0.555  0.7678 -0.1392  0.8819
  415MOL0     H54779   5.459   5.112   0.815  0.9557  1.1932  1.1424
  415MOL0     H54780   5.218   5.103   0.766  0.2400 -0.0537  0.0293
  416MOL0     O54781   8.970   1.327   2.555 -0.6907  0.1290  0.1704
  416MOL0     C54782   8.986   1.225   2.621 -0.2684  0.7233 -0.6628
  416MOL0     O54783   8.894   1.139   2.662  0.1928 -0.2570  0.2578
  416MOL0     C54784   8.762   1.181   2.647 -0.3704  0.3894 -0.2720
  416MOL0     C54785   8.667   1.113   2.564 -0.4399  0.6955 -0.6487
  416MOL0     C54786   8.527   1.156   2.554 -0.0613 -1.1640 -0.7479
  416MOL0     C54787   8.493   1.276   2.612  0.8505 -0.7330 -1.1821
  416MOL0     O54788   8.366   1.333   2.612  0.5852 -0.0090 -0.2879
  416MOL0     C54789   8.330   1.408   2.488 -0.4236  0.2651  0.9916
  416MOL0     C54790   8.174   1.425   2.463 -0.0252  0.1197  0.3432
  416MOL0     C54791   8.085   1.445   2.588  0.1902 -0.0086 -0.2288
  416MOL0     C54792   8.065   1.314   2.655 -0.3250 -0.9395 -0.1279
  416MOL0     C54793   7.952   1.306   2.767  0.1704  0.6269 -0.3868
  416MOL0     C54794   7.801   1.347   2.739  0.2502  0.1138  0.3572
  416MOL0     C54795   7.727   1.340   2.870  0.0889 -0.5389 -0.0033
  416MOL0     C54796   7.584   1.389   2.856 -0.0493  0.5128 -0.4494
  416MOL0     N54797   7.511   1.296   2.772 -0.1808 -0.1386 -0.1543
  416MOL0     C54798   7.449   1.338   2.662 -0.3283  0.2189 -0.0630
  416MOL0     C54799   7.402   1.227   2.601 -0.3892  1.1639  0.3977
  416MOL0     C54800   7.327   1.220   2.468  0.3285 -0.3134 -0.2388
  416MOL0     C54801   7.179   1.216   2.471  0.2627 -0.2468 -0.1922
  416MOL0     C54802   7.128   1.096   2.546 -1.1620  0.4396 -0.4035
  416MOL0     C54803   6.980   1.064   2.519 -0.2567 -0.2358 -0.8756
  416MOL0     O54804   6.889   1.177   2.541 -0.5940 -0.1481  1.0893
  416MOL0     C54805   6.762   1.133   2.551 -0.1858  0.5001  0.8829
  416MOL0     C54806   6.692   1.181   2.659 -0.6724 -0.7625 -0.3498
  416MOL0     C54807   6.565   1.142   2.681  0.0207  0.2209  0.1837
  416MOL0     C54808   6.502   1.051   2.592 -0.1647  0.2890  0.3444
  416MOL0     C54809   6.361   1.004   2.614 -1.0025  0.1553  0.1821
  416MOL0     O54810   6.281   1.074   2.698 -0.0884 -0.5262 -0.0745
  416MOL0     C54811   6.150   1.047   2.725 -0.1905  0.3667 -0.8593
  416MOL0     C54812   6.046   1.136   2.709  0.2369  0.1460 -0.5218
  416MOL0     C54813   5.918   1.102   2.731  0.5467 -1.0523 -0.2424
  416MOL0     C54814   5.881   0.972   2.761  0.4881 -0.1893 -0.0945
  416MOL0     O54815   5.755   0.934   2.781  0.1620 -0.4307  0.1535
  416MOL0     C54816   5.642   1.013   2.725 -0.1454 -0.7548  0.7823
  416MOL0     C54817   5.566   0.917   2.629 -1.2341 -0.4403 -0.3766
  416MOL0     C54818   5.489   0.807   2.713  0.2152 -0.5242 -0.8983
  416MOL0     C54819   5.386   0.719   2.640  0.5963  0.2245 -0.1298
  416MOL0     C54820   5.451   0.601   2.571 -0.0059 -0.0558  0.0742
  416MOL0     C54821   5.354   0.501   2.503 -0.1839  0.4825  0.3667
  416MOL0     C54822   5.428   0.377   2.459 -1.0538  1.1747 -0.2597
  416MOL0     C54823   5.528   0.401   2.335 -0.3665 -0.3978 -0.0525
  416MOL0    Cl54824   5.439   0.473   2.195  0.3152  0.2457 -0.0561
  416MOL0     C54825   5.986   0.878   2.775  0.6777 -0.0013  0.2891
  416MOL0     C54826   6.112   0.915   2.764 -0.1639 -0.6014 -0.2151
  416MOL0     O54827   6.322   0.897   2.561  0.5238  0.6359  0.3455
  416MOL0     C54828   6.575   1.013   2.478 -0.5687 -0.5471  0.4554
  416MOL0     C54829   6.707   1.051   2.452  1.3606 -0.2973 -0.3842
  416MOL0     N54830   7.428   1.126   2.678  0.3365  0.7513  0.4224
  416MOL0     N54831   7.497   1.167   2.780 -0.0052  0.1247 -0.5847
  416MOL0     C54832   8.592   1.357   2.681 -1.1160 -0.1917  0.7253
  416MOL0     C54833   8.725   1.311   2.706 -0.4521 -0.3092  0.5928
  416MOL0     C54834   9.127   1.199   2.651  0.6594  0.5143 -0.0671
  416MOL0     C54835   9.225   1.266   2.577  0.1681 -0.5618 -0.4012
  416MOL0     C54836   9.361   1.217   2.580  0.1515  0.3735  0.1164
  416MOL0     C54837   9.403   1.110   2.651  0.4833 -0.5098  0.0278
  416MOL0     O54838   9.535   1.075   2.626 -0.7645 -0.7565  0.2233
  416MOL0     C54839   9.576   0.950   2.675 -0.2496  0.8889 -0.4196
  416MOL0     C54840   9.733   0.937   2.673 -0.2183 -0.5899 -0.4874
  416MOL0     C54841   9.795   0.941   2.536  0.1846 -0.0487  0.0098
  416MOL0     C54842   9.886   0.818   2.499 -0.6353  1.2513 -0.0999
  416MOL0     C54843   9.822   0.691   2.534 -1.3249  0.1330  0.5165
  416MOL0     C54844   9.777   0.577   2.547  0.8656 -0.9192 -0.8198
  416MOL0     C54845   9.311   1.047   2.731  0.3652  0.0839 -0.3790
  416MOL0     C54846   9.178   1.087   2.729  0.3536 -0.7785 -0.1239
  416MOL0     H54847   8.688   1.018   2.517 -0.5801 -0.0253  0.7119
  416MOL0     H54848   8.440   1.101   2.520 -3.2458  1.0072  2.9819
  416MOL0     H54849   8.371   1.359   2.398 -0.5516 -1.9041  2.0375
  416MOL0     H54850   8.380   1.504   2.502  0.6393 -0.2792  1.0500
  416MOL0     H54851   8.138   1.349   2.394 -0.4292  0.4715  0.1630
  416MOL0     H54852   8.168   1.521   2.410  0.9791 -0.8885 -1.6910
  416MOL0     H54853   7.985   1.477   2.556 -1.1341 -3.6381 -0.2833
  416MOL0     H54854   8.138   1.506   2.662 -2.7363  1.2403  1.0006
  416MOL0     H54855   8.035   1.245   2.575 -0.6812 -2.4385  1.2493
  416MOL0     H54856   8.157   1.274   2.699  0.3046 -0.9411 -1.3888
  416MOL0     H54857   7.993   1.372   2.843 -1.1409  1.0382 -0.0162
  416MOL0     H54858   7.950   1.203   2.803  3.5234  0.8051  0.5845
  416MOL0     H54859   7.757   1.289   2.658 -0.7812  1.7968 -0.3541
  416MOL0     H54860   7.800   1.455   2.721  1.8625  0.8266  3.8384
  416MOL0     H54861   7.729   1.235   2.903 -0.6936 -0.9793 -1.2654
  416MOL0     H54862   7.776   1.406   2.941  1.6283  0.2076 -1.6895
  416MOL0     H54863   7.575   1.494   2.829 -0.2443  1.8186  3.8729
  416MOL0     H54864   7.540   1.389   2.957  2.0773 -1.7179  0.5794
  416MOL0     H54865   7.449   1.439   2.623  2.9867  1.1302  1.8872
  416MOL0     H54866   7.367   1.142   2.402  0.4335  1.0666 -1.8928
  416MOL0     H54867   7.354   1.320   2.432  1.7072  0.3025  2.2889
  416MOL0     H54868   7.139   1.234   2.371  3.9452  3.6835 -1.2556
  416MOL0     H54869   7.141   1.308   2.517 -0.3117  1.1477 -3.1912
  416MOL0     H54870   7.187   1.010   2.514 -2.9518  0.1742 -3.3912
  416MOL0     H54871   7.141   1.111   2.654  0.8288  1.2258 -0.7037
  416MOL0     H54872   6.944   0.981   2.579 -1.4019  0.3315 -0.7448
  416MOL0     H54873   6.977   1.031   2.415  1.7395 -2.9226 -0.1877
  416MOL0     H54874   6.738   1.250   2.730 -1.7276  1.3894 -1.6385
  416MOL0     H54875   6.511   1.181   2.767 -1.7957 -2.2538  0.2728
  416MOL0     H54876   6.069   1.240   2.688  1.0165  0.2465  0.7547
  416MOL0     H54877   5.854   1.188   2.719  1.5592 -0.2743 -0.1556
  416MOL0     H54878   5.668   1.101   2.666  2.1979 -0.8966  1.5254
  416MOL0     H54879   5.574   1.058   2.798 -1.4043  1.4053 -1.5592
  416MOL0     H54880   5.640   0.871   2.562 -1.2493 -0.9852 -0.0297
  416MOL0     H54881   5.494   0.982   2.578 -0.5051  0.7498  0.0763
  416MOL0     H54882   5.436   0.858   2.794  1.4407 -0.1058 -0.3234
  416MOL0     H54883   5.562   0.750   2.771 -1.4113 -0.3103  1.4775
  416MOL0     H54884   5.312   0.678   2.710  0.5260 -0.6704 -0.7158
  416MOL0     H54885   5.330   0.785   2.574 -1.3886 -1.6339 -0.4191
  416MOL0     H54886   5.500   0.540   2.647  0.1755 -1.6502 -1.2446
  416MOL0     H54887   5.525   0.635   2.498  0.2093 -1.0142 -0.1631
  416MOL0     H54888   5.296   0.536   2.417 -3.7425 -0.8901  2.0239
  416MOL0     H54889   5.286   0.466   2.580 -2.3596  2.8647 -0.3473
  416MOL0     H54890   5.460   0.325   2.550  1.3852 -0.9726 -2.1812
  416MOL0     H54891   5.351   0.307   2.427 -1.5163  1.0811  0.9910
  416MOL0     H54892   5.570   0.308   2.294 -1.3696 -1.5949  1.5151
  416MOL0     H54893   5.622   0.453   2.356  1.2801 -1.8300 -3.1980
  416MOL0     H54894   5.946   0.781   2.802 -2.0167  0.9922  0.2026
  416MOL0     H54895   6.197   0.850   2.783  1.1902  1.7062  2.3416
  416MOL0     H54896   6.533   0.946   2.403 -1.9631 -0.0199  0.7213
  416MOL0     H54897   6.760   1.020   2.363 -0.1555  1.2182 -1.8984
  416MOL0     H54898   8.551   1.439   2.740 -3.4620  0.2020 -1.2920
  416MOL0     H54899   8.793   1.365   2.771  2.4694 -1.7339 -1.0884
  416MOL0     H54900   9.208   1.343   2.502  1.5182 -1.1842 -1.4105
  416MOL0     H54901   9.436   1.255   2.512  2.6827 -3.0949  0.6946
  416MOL0     H54902   9.537   0.855   2.637  1.7631 -0.0211 -0.3393
  416MOL0     H54903   9.550   0.950   2.782  0.4904 -2.3955 -0.1320
  416MOL0     H54904   9.751   1.024   2.736 -0.7770  0.9867 -2.4179
  416MOL0     H54905   9.767   0.844   2.720 -2.5350 -1.4306 -0.3091
  416MOL0     H54906   9.854   1.031   2.513  2.7135 -1.9015 -1.1778
  416MOL0     H54907   9.706   0.937   2.473 -1.2164 -5.2535  1.8709
  416MOL0     H54908   9.907   0.823   2.392 -3.6485  2.3817 -0.7469
  416MOL0     H54909   9.976   0.834   2.558 -1.1474  0.5173  0.9199
  416MOL0     H54910   9.737   0.481   2.574  1.1888 -0.8525 -0.0735
  416MOL0     H54911   9.326   0.959   2.792 -2.2753  1.4322  2.4915
  416MOL0     H54912   9.100   1.036   2.785  1.5603 -1.6531  0.8034
  417MOL0     O54913   6.496   5.159   3.287  0.7372 -0.5128 -0.7745
  417MOL0     C54914   6.576   5.083   3.349  0.4237 -0.5066  0.2122
  417MOL0     O54915   6.551   4.953   3.370 -0.1590  0.0696  0.1362
  417MOL0     C54916   6.433   4.910   3.320 -0.0501  0.3869  0.8959
  417MOL0     C54917   6.317   4.936   3.386  0.4775  0.9761  0.6875
  417MOL0     C54918   6.190   4.876   3.349 -0.2638  0.6670  0.6727
  417MOL0     C54919   6.187   4.782   3.243  0.2843  0.8995 -0.1960
  417MOL0     O54920   6.067   4.723   3.218  0.2520 -0.2001  0.7651
  417MOL0     C54921   6.068   4.584   3.152  0.5988  0.1731  0.8785
  417MOL0     C54922   5.935   4.508   3.190  0.3149  0.3346 -1.2575
  417MOL0     C54923   5.904   4.384   3.105  0.0599 -0.1244  0.2097
  417MOL0     C54924   5.758   4.328   3.136  0.0823  0.4831  0.0249
  417MOL0     C54925   5.750   4.175   3.159 -0.6956 -0.0277 -0.1606
  417MOL0     C54926   5.613   4.106   3.174 -0.0875  0.1446  0.2304
  417MOL0     C54927   5.548   4.071   3.033 -0.2624 -0.0182  0.6770
  417MOL0     C54928   5.443   3.963   3.025  0.0994 -0.2478  0.2450
  417MOL0     N54929   5.487   3.825   3.047 -0.2996  0.0845  0.1853
  417MOL0     C54930   5.503   3.769   3.168 -0.0646  0.3124 -0.7171
  417MOL0     C54931   5.519   3.639   3.148 -0.5116  0.3091  0.7776
  417MOL0     C54932   5.530   3.532   3.249  0.0226 -0.6297  0.2439
  417MOL0     C54933   5.621   3.411   3.227 -0.1655 -0.3445 -0.2886
  417MOL0     C54934   5.615   3.314   3.349  0.0616  0.0349 -0.3754
  417MOL0     C54935   5.725   3.206   3.338 -0.8915  0.5175  0.0590
  417MOL0     O54936   5.854   3.266   3.325  0.2633 -0.1927  0.6696
  417MOL0     C54937   5.940   3.275   3.428 -0.5239  0.4748 -0.8872
  417MOL0     C54938   6.078   3.284   3.411 -0.6736  0.4356 -0.1866
  417MOL0     C54939   6.170   3.301   3.513 -0.3748 -0.0507 -0.6744
  417MOL0     C54940   6.131   3.299   3.652  0.2051  0.2175 -0.4389
  417MOL0     C54941   6.227   3.310   3.769 -0.4214  0.0464 -0.4936
  417MOL0     O54942   6.356   3.322   3.737  0.0524  0.1222  0.6398
  417MOL0     C54943   6.447   3.405   3.810 -0.0220  1.3310 -0.0350
  417MOL0     C54944   6.582   3.367   3.797  0.2296  0.0080  0.0518
  417MOL0     C54945   6.677   3.423   3.876 -0.7834 -0.1453  0.4040
  417MOL0     C54946   6.647   3.534   3.964  0.0147 -0.4570 -0.3658
  417MOL0     O54947   6.752   3.600   4.031  0.8563  0.1115  0.0955
  417MOL0     C54948   6.729   3.623   4.166 -0.1394  0.3863 -0.0064
  417MOL0     C54949   6.857   3.597   4.242  0.2283  0.2382 -0.1544
  417MOL0     C54950   6.980   3.679   4.182  0.2884  1.0416  0.1123
  417MOL0     C54951   7.106   3.640   4.258 -0.8341 -0.9118 -0.3585
  417MOL0     C54952   7.226   3.685   4.174  0.2183 -0.6355 -0.5659
  417MOL0     C54953   7.361   3.639   4.233  0.9729  0.0050  0.0940
  417MOL0     C54954   7.376   3.708   4.371 -0.1814  0.2793  0.4142
  417MOL0     C54955   7.503   3.659   4.445 -0.2716  0.5085 -0.6328
  417MOL0    Cl54956   7.646   3.724   4.380 -0.6237 -0.0851 -0.4173
  417MOL0     C54957   6.509   3.582   3.959  0.8173 -0.6531 -0.5437
  417MOL0     C54958   6.409   3.517   3.882  0.1288 -0.3136  0.2564
  417MOL0     O54959   6.181   3.314   3.887 -0.0190 -0.0273 -0.2099
  417MOL0     C54960   5.986   3.304   3.672  0.4255 -0.1552 -0.2595
  417MOL0     C54961   5.899   3.294   3.564 -0.0649 -0.1903 -0.2750
  417MOL0     N54962   5.524   3.621   3.013 -0.2102 -0.6728  0.1638
  417MOL0     N54963   5.502   3.734   2.954  0.8662  0.5389 -0.6585
  417MOL0     C54964   6.311   4.751   3.178 -0.0207 -0.2202  0.7155
  417MOL0     C54965   6.428   4.813   3.222  0.6597  0.3171  0.7252
  417MOL0     C54966   6.705   5.146   3.386 -0.1509 -0.3402 -0.2084
  417MOL0     C54967   6.801   5.081   3.473  0.4026 -0.2320 -0.1475
  417MOL0     C54968   6.924   5.140   3.506 -0.4747 -0.1523  0.0891
  417MOL0     C54969   6.955   5.272   3.455 -0.1594  0.6347 -0.0819
  417MOL0     O54970   7.082   5.319   3.484  0.1700 -0.1347  0.2467
  417MOL0     C54971   7.118   5.455   3.492 -0.1564 -0.7656 -0.3380
  417MOL0     C54972   7.216   5.481   3.602 -0.1527 -0.3158  0.1299
  417MOL0     C54973   7.365   5.457   3.562  0.5799 -0.0237 -0.7329
  417MOL0     C54974   7.456   5.489   3.681 -0.1331 -0.5917  0.4323
  417MOL0     C54975   7.592   5.491   3.623 -0.8919  0.4195  0.3756
  417MOL0     C54976   7.705   5.476   3.587 -0.0240 -0.5430  0.3485
  417MOL0     C54977   6.859   5.333   3.373 -0.9115  0.1018  0.2731
  417MOL0     C54978   6.742   5.273   3.339 -0.3503  0.2425  0.0724
  417MOL0     H54979   6.315   5.012   3.464 -1.1617  0.9660  0.6852
  417MOL0     H54980   6.096   4.903   3.394  0.2840  2.2085  0.9408
  417MOL0     H54981   6.155   4.525   3.184 -0.2006 -2.8944 -1.9617
  417MOL0     H54982   6.056   4.595   3.043 -0.9955  2.3534  1.2110
  417MOL0     H54983   5.858   4.585   3.179 -1.4419 -1.2618 -0.6856
  417MOL0     H54984   5.926   4.482   3.295  0.3986 -0.5475 -1.4677
  417MOL0     H54985   5.980   4.306   3.114 -0.7513 -0.8789  0.7181
  417MOL0     H54986   5.886   4.427   3.006 -2.3460  1.3861  1.2053
  417MOL0     H54987   5.704   4.375   3.219 -2.9530  2.4946 -2.8683
  417MOL0     H54988   5.688   4.345   3.054 -0.4586 -2.0639 -0.1284
  417MOL0     H54989   5.795   4.170   3.259 -0.4745  0.4801 -0.2336
  417MOL0     H54990   5.802   4.120   3.080  0.6968  0.7928  0.1559
  417MOL0     H54991   5.547   4.166   3.236  1.2870  1.1880  0.7526
  417MOL0     H54992   5.630   4.018   3.236  1.4816  1.3495  1.6250
  417MOL0     H54993   5.517   4.169   2.995 -1.8325 -1.7558 -2.9420
  417MOL0     H54994   5.624   4.022   2.972  0.2836 -3.5083  3.7708
  417MOL0     H54995   5.409   3.969   2.922  0.6521 -1.2403 -0.0103
  417MOL0     H54996   5.364   3.983   3.097 -0.0491  3.1442 -0.7080
  417MOL0     H54997   5.505   3.812   3.268 -1.0201 -0.9563 -0.1288
  417MOL0     H54998   5.430   3.497   3.277  0.1001 -2.8910 -1.9509
  417MOL0     H54999   5.575   3.585   3.333  1.1122  1.4434 -1.5568
  417MOL0     H55000   5.725   3.442   3.216 -1.0285  2.1395 -2.4232
  417MOL0     H55001   5.583   3.359   3.138 -0.2362 -1.1647  0.2124
  417MOL0     H55002   5.619   3.362   3.448 -0.8555  1.5907 -1.0512
  417MOL0     H55003   5.517   3.264   3.350  1.9602 -4.0669 -0.4118
  417MOL0     H55004   5.710   3.148   3.247  1.2009  3.0832 -2.0918
  417MOL0     H55005   5.718   3.137   3.423  1.5406  0.3040  0.1592
  417MOL0     H55006   6.108   3.278   3.307  0.5412  1.1932  0.1001
  417MOL0     H55007   6.275   3.312   3.485  0.2529 -0.3691  1.3473
  417MOL0     H55008   6.603   3.286   3.728 -1.0343  0.6333 -1.1158
  417MOL0     H55009   6.777   3.382   3.868 -0.7287  0.0193  0.2646
  417MOL0     H55010   6.642   3.568   4.204  0.0113  1.4984  2.0899
  417MOL0     H55011   6.708   3.731   4.162 -1.0332  0.2885  1.3682
  417MOL0     H55012   6.876   3.489   4.242  2.0255  0.5259 -0.5997
  417MOL0     H55013   6.839   3.636   4.342  3.8706 -2.3449  1.7488
  417MOL0     H55014   6.964   3.785   4.202  1.9153  1.4017 -0.3882
  417MOL0     H55015   6.991   3.651   4.076 -1.7025 -1.4347  0.4508
  417MOL0     H55016   7.101   3.701   4.349  1.2410  1.3854 -1.6760
  417MOL0     H55017   7.108   3.532   4.277  1.9773 -0.6491  1.2968
  417MOL0     H55018   7.233   3.794   4.170  0.1270 -0.6478 -1.1148
  417MOL0     H55019   7.223   3.647   4.072  2.8599  0.1518 -1.0184
  417MOL0     H55020   7.445   3.660   4.165  1.3246 -0.3058  0.4321
  417MOL0     H55021   7.342   3.531   4.235 -1.1797  0.3308 -0.2664
  417MOL0     H55022   7.362   3.816   4.360  0.6396  0.3522  0.0011
  417MOL0     H55023   7.297   3.672   4.437 -0.6696 -0.9210 -0.7755
  417MOL0     H55024   7.504   3.550   4.445 -2.0357  0.4622 -1.0185
  417MOL0     H55025   7.498   3.696   4.547  1.7697  2.2079 -1.0808
  417MOL0     H55026   6.484   3.681   3.997 -0.9464 -0.8108 -1.2048
  417MOL0     H55027   6.305   3.542   3.899 -0.9084 -0.8120 -4.0606
  417MOL0     H55028   5.943   3.306   3.771 -0.0136 -0.9424 -0.4244
  417MOL0     H55029   5.794   3.306   3.587  0.4233  2.1495  1.0641
  417MOL0     H55030   6.309   4.688   3.089 -1.2782  1.6309 -0.6278
  417MOL0     H55031   6.513   4.793   3.158 -1.8366 -0.8588 -2.4969
  417MOL0     H55032   6.790   4.979   3.508 -1.0772  0.2751  0.9713
  417MOL0     H55033   6.999   5.084   3.562 -2.1751 -1.7067  0.9257
  417MOL0     H55034   7.027   5.513   3.506 -0.0507 -0.6069 -0.3007
  417MOL0     H55035   7.158   5.483   3.394 -0.5524  1.4318  0.0856
  417MOL0     H55036   7.205   5.588   3.621 -1.4653 -0.0835 -1.6942
  417MOL0     H55037   7.179   5.428   3.690 -1.7338 -1.2195 -1.0386
  417MOL0     H55038   7.389   5.519   3.475 -0.5576 -0.8071 -1.6389
  417MOL0     H55039   7.373   5.350   3.541  0.2273 -0.1696 -0.1438
  417MOL0     H55040   7.436   5.590   3.718  4.9384 -0.5184  3.9132
  417MOL0     H55041   7.438   5.431   3.773  2.0714 -0.3628  1.0434
  417MOL0     H55042   7.811   5.473   3.568 -0.0912  1.7879 -0.7152
  417MOL0     H55043   6.875   5.435   3.339 -1.8038  0.7768  1.7617
  417MOL0     H55044   6.682   5.330   3.268 -0.4324 -0.3241 -0.3172
  418MOL0     O55045   1.619   3.085   4.820 -0.6211  0.8237  0.0247
  418MOL0     C55046   1.639   3.080   4.697  0.3238 -0.2403 -0.1102
  418MOL0     O55047   1.735   3.006   4.641 -1.2339  0.0121 -0.1418
  418MOL0     C55048   1.826   2.925   4.716 -0.5102  0.5635  0.4251
  418MOL0     C55049   1.879   2.973   4.836 -0.1755 -0.9575  1.1075
  418MOL0     C55050   1.968   2.897   4.906 -0.0811 -1.6184 -0.5635
  418MOL0     C55051   2.010   2.770   4.868 -0.4654  0.7792 -0.1296
  418MOL0     O55052   2.113   2.702   4.934  0.2159  0.2309 -0.3850
  418MOL0     C55053   2.228   2.711   4.852  0.4100 -0.7617  0.9006
  418MOL0     C55054   2.344   2.686   4.946 -0.1737 -1.0588  0.5785
  418MOL0     C55055   2.312   2.552   5.018 -0.8577 -0.0270  0.0236
  418MOL0     C55056   2.456   2.497   5.050  0.1183 -0.1334  0.0562
  418MOL0     C55057   2.452   2.365   5.129 -0.0305  0.1453  0.8015
  418MOL0     C55058   2.587   2.309   5.144  0.1751  0.1807  0.1245
  418MOL0     C55059   2.660   2.377   5.256 -0.1435  0.3408  0.1636
  418MOL0     C55060   2.640   2.308   5.392  0.0169 -0.5483 -0.1058
  418MOL0     N55061   2.540   2.388   5.467 -0.2498 -0.1133  0.1946
  418MOL0     C55062   2.568   2.507   5.515 -0.1172 -0.2702 -0.9695
  418MOL0     C55063   2.465   2.527   5.600 -0.2325  0.0734 -0.4584
  418MOL0     C55064   2.455   2.652   5.688  0.6758  0.6491 -0.2247
  418MOL0     C55065   2.413   2.779   5.603 -0.3104 -1.0533  0.3214
  418MOL0     C55066   2.379   2.891   5.698 -0.2118 -1.2292  0.3963
  418MOL0     C55067   2.502   2.923   5.795 -1.0173 -0.6644  0.4547
  418MOL0     O55068   2.508   3.068   5.802  0.6403 -0.2794  0.6309
  418MOL0     C55069   2.620   3.117   5.851 -0.2151  0.4811  0.0857
  418MOL0     C55070   2.693   3.052   5.949 -0.9704  0.1087  0.7412
  418MOL0     C55071   2.822   3.104   5.996 -0.3794  0.0710  0.2277
  418MOL0     C55072   2.865   3.225   5.940  0.5463 -0.0024 -0.2982
  418MOL0     C55073   2.995   3.290   5.977 -0.2498 -0.1593  0.3623
  418MOL0     O55074   3.020   3.424   5.949  0.3316  0.6401  0.1726
  418MOL0     C55075   3.136   3.488   5.981 -0.3772  0.6039 -1.3076
  418MOL0     C55076   3.270   3.434   5.992 -0.1624 -0.3926  0.1057
  418MOL0     C55077   3.379   3.514   6.023 -0.4206  0.4489  0.4724
  418MOL0     C55078   3.365   3.652   6.051  0.4828 -0.7618  0.4604
  418MOL0     O55079   3.458   3.736   6.104 -0.3215 -0.5781 -0.0064
  418MOL0     C55080   3.597   3.692   6.083  1.3410  0.4329  0.0666
  418MOL0     C55081   3.684   3.816   6.076 -0.6122  0.4291  0.4131
  418MOL0     C55082   3.688   3.887   6.214  0.4206 -0.2193  0.4202
  418MOL0     C55083   3.766   4.013   6.175  0.0105  0.2902 -0.5273
  418MOL0     C55084   3.906   3.980   6.215 -0.0333 -0.6185 -0.0210
  418MOL0     C55085   3.981   4.109   6.181 -1.4383  0.1942 -0.0609
  418MOL0     C55086   4.135   4.095   6.219  0.5916 -0.9375  0.0192
  418MOL0     C55087   4.214   4.218   6.200 -1.2090  0.5365 -0.1375
  418MOL0    Cl55088   4.383   4.195   6.261  0.0192  0.0552 -0.2863
  418MOL0     C55089   3.233   3.707   6.036 -0.1910  0.2497 -0.5958
  418MOL0     C55090   3.123   3.621   6.002 -0.8207  0.8126 -0.7739
  418MOL0     O55091   3.066   3.220   6.042  0.8779  0.2463  0.0351
  418MOL0     C55092   2.775   3.294   5.858  0.1294  0.0060 -0.2580
  418MOL0     C55093   2.663   3.236   5.806 -1.1346 -0.0208  0.1378
  418MOL0     N55094   2.375   2.415   5.609 -0.0932 -0.5013  0.2456
  418MOL0     N55095   2.430   2.339   5.523  0.0970  0.7033  0.0906
  418MOL0     C55096   1.953   2.710   4.758  0.7843  0.1509  0.3872
  418MOL0     C55097   1.864   2.793   4.675  0.7537  0.0668 -0.6537
  418MOL0     C55098   1.556   3.155   4.607 -0.1820  0.2053 -0.4572
  418MOL0     C55099   1.583   3.147   4.470  1.2058  1.2089 -0.1572
  418MOL0     C55100   1.498   3.210   4.386  0.4036 -1.2265  0.3544
  418MOL0     C55101   1.389   3.294   4.430 -0.8398 -0.2424 -1.1302
  418MOL0     O55102   1.334   3.372   4.334  0.3994  0.1170 -0.3715
  418MOL0     C55103   1.215   3.438   4.365  0.4127 -0.0126 -0.5384
  418MOL0     C55104   1.097   3.350   4.400 -0.3945  1.0037 -0.4908
  418MOL0     C55105   0.957   3.411   4.411 -0.3406 -0.6961  0.2079
  418MOL0     C55106   0.900   3.483   4.287 -0.1116  0.2539  0.6203
  418MOL0     C55107   0.883   3.388   4.183  1.2154  0.0611 -0.3024
  418MOL0     C55108   0.856   3.296   4.105 -0.5501 -0.0288  0.3478
  418MOL0     C55109   1.363   3.314   4.573  0.7632  0.6740 -0.0582
  418MOL0     C55110   1.445   3.232   4.656 -0.3055  0.3683 -0.5834
  418MOL0     H55111   1.850   3.071   4.872 -0.9179  0.7657 -3.4576
  418MOL0     H55112   2.023   2.943   4.988 -1.1953 -3.3270  1.2613
  418MOL0     H55113   2.235   2.811   4.810 -0.2758 -1.8497 -1.9962
  418MOL0     H55114   2.226   2.642   4.767  2.2501  0.8871 -0.5710
  418MOL0     H55115   2.367   2.774   5.006  1.0760  1.4752 -3.2648
  418MOL0     H55116   2.437   2.677   4.889  0.4504  2.1774  0.9200
  418MOL0     H55117   2.262   2.489   4.944 -1.8059  1.7331 -0.9117
  418MOL0     H55118   2.267   2.567   5.117 -0.5079 -1.2483  0.3822
  418MOL0     H55119   2.524   2.511   4.966  0.1675  6.2159  0.7225
  418MOL0     H55120   2.500   2.566   5.122 -2.0090  1.4470 -0.0604
  418MOL0     H55121   2.398   2.297   5.062  1.2942  0.8991 -1.1330
  418MOL0     H55122   2.402   2.383   5.224 -2.9959  2.5831 -1.0274
  418MOL0     H55123   2.637   2.327   5.048 -2.3155  0.5716 -1.1746
  418MOL0     H55124   2.572   2.202   5.162  0.8523 -0.2661 -1.6563
  418MOL0     H55125   2.767   2.379   5.234  1.1617 -1.1238  5.0560
  418MOL0     H55126   2.629   2.481   5.270  0.0539  0.5333 -0.8024
  418MOL0     H55127   2.730   2.301   5.453 -2.5329 -1.4492  3.9196
  418MOL0     H55128   2.612   2.202   5.388  2.0219 -1.0985 -0.6644
  418MOL0     H55129   2.651   2.575   5.499 -0.2814  0.7764  1.9949
  418MOL0     H55130   2.547   2.679   5.740  0.5791  0.5430  0.0006
  418MOL0     H55131   2.383   2.637   5.769 -0.1431 -0.5834 -1.1499
  418MOL0     H55132   2.334   2.763   5.530 -0.2043  2.0055 -0.6224
  418MOL0     H55133   2.491   2.820   5.538 -0.3240 -2.4970 -0.6506
  418MOL0     H55134   2.355   2.978   5.637  2.8918 -2.4083 -2.8865
  418MOL0     H55135   2.291   2.858   5.755 -1.8725 -0.7399 -1.7337
  418MOL0     H55136   2.597   2.886   5.756 -0.4086  0.9340  0.3580
  418MOL0     H55137   2.485   2.885   5.896  0.2294  3.1932  2.3317
  418MOL0     H55138   2.658   2.964   6.001  1.2005  0.5418  3.1768
  418MOL0     H55139   2.880   3.046   6.067 -0.4104  0.1486  0.3173
  418MOL0     H55140   3.286   3.329   5.971 -1.4986 -0.3528 -1.3591
  418MOL0     H55141   3.476   3.470   6.043 -0.8096 -1.6507 -1.7926
  418MOL0     H55142   3.602   3.637   5.988 -0.4065  0.3345  0.0087
  418MOL0     H55143   3.635   3.625   6.160 -0.3879  0.7621  1.2577
  418MOL0     H55144   3.647   3.878   5.993 -1.1891 -2.8591 -2.0212
  418MOL0     H55145   3.778   3.777   6.034 -1.0575 -1.5780  1.2124
  418MOL0     H55146   3.721   3.829   6.300  0.9917 -1.4162 -0.5783
  418MOL0     H55147   3.583   3.908   6.235 -0.0999 -2.3640  0.1667
  418MOL0     H55148   3.761   4.050   6.071 -3.0004  0.2551 -0.4769
  418MOL0     H55149   3.731   4.102   6.228  1.3483  0.8036 -0.4644
  418MOL0     H55150   3.963   3.902   6.164  0.7743  0.8238 -1.3896
  418MOL0     H55151   3.913   3.945   6.318 -1.1409 -0.3626  0.1530
  418MOL0     H55152   3.945   4.197   6.235  0.7716  3.3986 -3.3484
  418MOL0     H55153   3.974   4.137   6.075  0.5252 -2.3693 -0.9602
  418MOL0     H55154   4.134   4.049   6.319 -1.7223  0.9143  0.9373
  418MOL0     H55155   4.177   4.010   6.163 -0.6233  0.9502 -4.1552
  418MOL0     H55156   4.182   4.304   6.260 -0.0558  1.4825 -0.8123
  418MOL0     H55157   4.219   4.237   6.092  1.8517  0.6051 -0.0864
  418MOL0     H55158   3.218   3.813   6.056 -1.2161  0.0596 -0.2623
  418MOL0     H55159   3.022   3.658   5.988 -1.5305 -1.0128 -0.6482
  418MOL0     H55160   2.797   3.390   5.813 -1.8214 -1.1359 -4.0241
  418MOL0     H55161   2.606   3.287   5.729 -3.0853 -1.8452  0.2844
  418MOL0     H55162   1.986   2.611   4.730  0.5324 -0.1508  1.1304
  418MOL0     H55163   1.808   2.764   4.587 -1.1314 -0.6320  0.7156
  418MOL0     H55164   1.666   3.092   4.426 -0.2800 -1.4149  0.1401
  418MOL0     H55165   1.511   3.206   4.279 -0.9764  0.6181  0.0777
  418MOL0     H55166   1.183   3.508   4.286  2.0561  1.4460  0.0272
  418MOL0     H55167   1.230   3.500   4.454 -2.8677 -0.6518  0.6167
  418MOL0     H55168   1.086   3.269   4.329 -0.8266  0.3631  0.2909
  418MOL0     H55169   1.130   3.299   4.491  0.2649  1.8170 -0.2548
  418MOL0     H55170   0.970   3.492   4.485 -2.0132 -0.3758  0.1902
  418MOL0     H55171   0.884   3.339   4.448  1.0782 -2.4003 -0.1753
  418MOL0     H55172   0.797   3.513   4.307 -1.5235 -1.1431 -3.5214
  418MOL0     H55173   0.958   3.568   4.251 -1.1493  1.5531  1.8926
  418MOL0     H55174   0.841   3.221   4.030  2.3498  0.8248 -1.2349
  418MOL0     H55175   1.290   3.377   4.622  2.2627  0.1269  3.1773
  418MOL0     H55176   1.430   3.247   4.763 -0.4317 -2.9096 -0.0383
  419MOL0     O55177   6.711   4.469   3.219 -0.1969  0.1806 -0.2882
  419MOL0     C55178   6.698   4.518   3.112  0.2881 -0.0132  0.3674
  419MOL0     O55179   6.791   4.594   3.056 -0.5597 -1.0222 -0.1989
  419MOL0     C55180   6.894   4.666   3.128  0.0322  0.0008 -0.3583
  419MOL0     C55181   7.019   4.673   3.073 -0.0575 -0.1945 -0.1248
  419MOL0     C55182   7.132   4.726   3.138  0.0471 -0.0050 -0.0370
  419MOL0     C55183   7.112   4.792   3.263 -0.3230  0.4393  0.2962
  419MOL0     O55184   7.223   4.849   3.317 -0.8635 -0.0690  0.2271
  419MOL0     C55185   7.214   4.978   3.387 -0.3089  0.1618 -0.4500
  419MOL0     C55186   7.352   5.052   3.347 -0.7900 -0.4292  0.6235
  419MOL0     C55187   7.336   5.102   3.201  0.4204 -0.4740  0.4162
  419MOL0     C55188   7.258   5.233   3.191  0.4267  1.1685  0.0580
  419MOL0     C55189   7.262   5.287   3.049  0.7400 -0.0198  0.4261
  419MOL0     C55190   7.163   5.406   3.028  0.8036  0.5842 -0.0622
  419MOL0     C55191   7.016   5.380   3.060  0.2079  1.1078 -0.0621
  419MOL0     C55192   6.901   5.474   3.012 -0.3723  0.1543  0.2253
  419MOL0     N55193   6.881   5.460   2.873 -0.2219 -0.0207 -0.5068
  419MOL0     C55194   6.773   5.402   2.801  0.4051 -0.5606 -0.3415
  419MOL0     C55195   6.808   5.389   2.674 -0.5130 -0.2471  1.0849
  419MOL0     C55196   6.731   5.342   2.550 -0.1600  0.0481 -0.9025
  419MOL0     C55197   6.719   5.191   2.538 -0.0342 -0.0077  0.1867
  419MOL0     C55198   6.624   5.131   2.433 -0.9382 -0.0527 -0.2311
  419MOL0     C55199   6.482   5.160   2.460  0.7897  0.2103 -0.4060
  419MOL0     O55200   6.397   5.091   2.368 -0.3652 -0.6245 -0.0377
  419MOL0     C55201   6.266   5.089   2.386  0.3689  0.4035 -0.2858
  419MOL0     C55202   6.189   5.180   2.453 -0.6133  0.2371  0.1263
  419MOL0     C55203   6.057   5.159   2.472  0.0412 -0.3152 -0.1671
  419MOL0     C55204   5.991   5.051   2.409  0.7746 -0.6444 -0.2257
  419MOL0     C55205   5.838   5.031   2.415  0.1705 -0.4879 -0.7828
  419MOL0     O55206   5.776   4.916   2.372 -0.4666  0.6013 -0.0924
  419MOL0     C55207   5.645   4.923   2.384  0.5222 -0.5900 -0.1881
  419MOL0     C55208   5.573   4.847   2.475 -0.8300 -0.8436  0.3374
  419MOL0     C55209   5.431   4.853   2.486  0.4404  0.2321 -0.0819
  419MOL0     C55210   5.357   4.936   2.398 -0.5330  0.4118 -0.3864
  419MOL0     O55211   5.224   4.928   2.371  0.2589  0.3149  0.4224
  419MOL0     C55212   5.154   4.806   2.395  1.0034 -0.5969 -1.1080
  419MOL0     C55213   5.009   4.821   2.354  0.3575  0.9401  0.4950
  419MOL0     C55214   4.945   4.695   2.290  0.3068  1.1649  0.2834
  419MOL0     C55215   4.789   4.693   2.304  0.3823 -0.4650  0.3437
  419MOL0     C55216   4.737   4.562   2.225  0.1515  0.0646 -0.4604
  419MOL0     C55217   4.582   4.563   2.242  0.3621 -0.1833 -0.0762
  419MOL0     C55218   4.517   4.443   2.166  0.5543 -0.2479  0.3095
  419MOL0     C55219   4.378   4.409   2.191 -0.9223  0.8155  0.5470
  419MOL0    Cl55220   4.332   4.282   2.071  0.0064  0.1137  0.2462
  419MOL0     C55221   5.432   5.013   2.310  0.3018  0.8535 -0.8100
  419MOL0     C55222   5.576   5.000   2.296  0.3410 -0.0576 -0.7484
  419MOL0     O55223   5.777   5.120   2.482  0.2373 -0.1780 -0.5488
  419MOL0     C55224   6.061   4.974   2.328  0.5224  0.3962 -0.5067
  419MOL0     C55225   6.201   4.980   2.319 -0.6900 -0.4313 -1.2286
  419MOL0     N55226   6.940   5.428   2.663 -1.0730  0.9260  0.0204
  419MOL0     N55227   6.974   5.482   2.774 -1.3758  0.2434 -0.2529
  419MOL0     C55228   6.988   4.786   3.331 -0.0608 -0.4770  0.7717
  419MOL0     C55229   6.878   4.732   3.256  0.1599 -0.2599  0.1094
  419MOL0     C55230   6.573   4.496   3.038  1.1238 -0.4170  0.4424
  419MOL0     C55231   6.550   4.560   2.913 -0.2271  0.8116  0.1211
  419MOL0     C55232   6.425   4.542   2.851  0.7419  0.6481 -0.3483
  419MOL0     C55233   6.327   4.464   2.906 -0.5479  0.0480 -0.6198
  419MOL0     O55234   6.202   4.444   2.845 -0.4771 -0.6042  0.2088
  419MOL0     C55235   6.172   4.308   2.815 -1.1441 -0.3655  0.5984
  419MOL0     C55236   6.084   4.308   2.688  0.6236 -0.4702 -0.6804
  419MOL0     C55237   5.944   4.363   2.718 -0.4808 -0.3772  0.3948
  419MOL0     C55238   5.856   4.357   2.604 -0.4628  0.3046 -0.1286
  419MOL0     C55239   5.743   4.432   2.641  0.3468  0.3096 -0.2402
  419MOL0     C55240   5.650   4.510   2.670  0.0187 -0.2233 -0.1995
  419MOL0     C55241   6.354   4.398   3.026  0.1634 -0.8868 -0.1339
  419MOL0     C55242   6.467   4.421   3.093 -0.1601  0.3679  0.3705
  419MOL0     H55243   7.032   4.629   2.975 -0.0549 -0.2518 -0.0989
  419MOL0     H55244   7.230   4.740   3.094  1.2196  0.1501  2.4633
  419MOL0     H55245   7.205   4.956   3.493 -0.1690 -0.1583 -0.5041
  419MOL0     H55246   7.126   5.039   3.366 -1.0307 -1.5101 -2.7372
  419MOL0     H55247   7.431   4.977   3.345 -2.0258 -1.8699  1.9674
  419MOL0     H55248   7.371   5.133   3.418  2.4161 -3.4304  3.5785
  419MOL0     H55249   7.299   5.024   3.133 -0.9680  1.2421 -0.8915
  419MOL0     H55250   7.435   5.130   3.164  0.3464  1.0465  1.2718
  419MOL0     H55251   7.154   5.208   3.215 -0.0655  0.1937 -2.7564
  419MOL0     H55252   7.292   5.316   3.254 -1.8454  3.4909 -1.5290
  419MOL0     H55253   7.234   5.209   2.979  1.0851  0.6875 -0.5251
  419MOL0     H55254   7.367   5.296   3.018  1.8934 -1.3466  3.4799
  419MOL0     H55255   7.159   5.432   2.921 -1.7082  2.8816  0.4889
  419MOL0     H55256   7.196   5.497   3.079  0.5248  2.1536 -2.4969
  419MOL0     H55257   6.993   5.279   3.025  0.7572  1.1727 -0.6196
  419MOL0     H55258   7.008   5.384   3.169 -0.9455  3.6062 -0.1852
  419MOL0     H55259   6.937   5.576   3.029 -1.5188  1.1479 -2.6696
  419MOL0     H55260   6.808   5.464   3.070 -2.2915  1.6879 -2.3751
  419MOL0     H55261   6.671   5.386   2.834 -0.6996  1.4131 -2.5283
  419MOL0     H55262   6.784   5.374   2.460 -0.6097  1.0790 -0.8221
  419MOL0     H55263   6.631   5.387   2.555  0.5576  1.5800  1.5187
  419MOL0     H55264   6.699   5.152   2.639  2.1865 -0.9392  0.3348
  419MOL0     H55265   6.817   5.145   2.524  0.4480  0.5366  1.5223
  419MOL0     H55266   6.658   5.140   2.330  0.7576 -2.3942  0.0380
  419MOL0     H55267   6.629   5.023   2.451 -2.1619  0.0665  1.0532
  419MOL0     H55268   6.456   5.265   2.469 -1.0860 -0.3714  2.5731
  419MOL0     H55269   6.464   5.130   2.564  4.4036 -5.6807 -1.0002
  419MOL0     H55270   6.233   5.272   2.491 -0.4818  0.5047 -0.6467
  419MOL0     H55271   5.992   5.222   2.533  0.1084 -0.3773 -0.0292
  419MOL0     H55272   5.625   4.789   2.551 -2.0287  0.3526  2.1405
  419MOL0     H55273   5.387   4.776   2.549  2.3411  0.1906  1.2765
  419MOL0     H55274   5.138   4.791   2.502 -1.2564  2.5874 -0.8727
  419MOL0     H55275   5.213   4.725   2.350  2.4559  2.2463 -4.8891
  419MOL0     H55276   5.000   4.894   2.273 -0.5338  0.2399 -0.0530
  419MOL0     H55277   4.951   4.850   2.442 -1.9092 -4.4619  1.1706
  419MOL0     H55278   4.979   4.604   2.341 -0.6035 -0.2703 -1.5263
  419MOL0     H55279   4.980   4.688   2.186  0.7162 -2.2238  0.5166
  419MOL0     H55280   4.768   4.695   2.411  1.6231  0.8382  0.5921
  419MOL0     H55281   4.748   4.780   2.253  0.1448 -0.6985  0.1298
  419MOL0     H55282   4.769   4.466   2.264  3.1868 -0.0822 -2.9059
  419MOL0     H55283   4.771   4.557   2.121 -1.4289  1.2202 -1.0857
  419MOL0     H55284   4.544   4.658   2.204 -1.7325 -1.9598 -2.7861
  419MOL0     H55285   4.575   4.553   2.351  1.0222 -1.4730 -0.1389
  419MOL0     H55286   4.522   4.469   2.060 -0.4999  1.7415  0.7036
  419MOL0     H55287   4.580   4.355   2.184 -1.0767 -1.0156  2.9162
  419MOL0     H55288   4.320   4.497   2.163  0.4370  1.2255 -1.1571
  419MOL0     H55289   4.348   4.371   2.289 -1.7322 -1.0925 -0.3774
  419MOL0     H55290   5.387   5.082   2.239 -1.2004  2.1708  1.3073
  419MOL0     H55291   5.626   5.056   2.219  2.7477 -1.3051 -0.1823
  419MOL0     H55292   6.005   4.896   2.277  1.0366  0.1900 -0.7654
  419MOL0     H55293   6.255   4.908   2.259  0.6146 -1.5144  1.0874
  419MOL0     H55294   6.993   4.813   3.436  2.4673  1.2504  0.2962
  419MOL0     H55295   6.783   4.724   3.308 -1.4964 -0.5360 -2.7773
  419MOL0     H55296   6.620   4.633   2.873 -0.0166  0.9718  0.7735
  419MOL0     H55297   6.407   4.584   2.753  0.0099 -4.0931 -2.5584
  419MOL0     H55298   6.116   4.266   2.899  1.6621  1.1820  3.4900
  419MOL0     H55299   6.268   4.261   2.789  0.4489  2.1796  1.4308
  419MOL0     H55300   6.130   4.366   2.607  3.3602  1.0507  1.7544
  419MOL0     H55301   6.075   4.209   2.642  0.7128  0.0927 -1.9780
  419MOL0     H55302   5.961   4.469   2.736  1.7567 -0.4890 -0.7561
  419MOL0     H55303   5.896   4.320   2.807  1.0029 -0.3126  1.2660
  419MOL0     H55304   5.895   4.409   2.515 -1.1274  0.0288 -0.5887
  419MOL0     H55305   5.831   4.255   2.575  2.0371 -0.1285 -0.9474
  419MOL0     H55306   5.573   4.580   2.697 -0.1959 -0.5079 -0.0764
  419MOL0     H55307   6.280   4.338   3.079  2.0076 -3.0765  0.0900
  419MOL0     H55308   6.480   4.391   3.197 -0.5490  2.4343  1.0547
  420MOL0     O55309   1.384   3.585   8.945  0.0596  0.3671  0.1986
  420MOL0     C55310   1.414   3.490   9.017  0.9472  0.3713  0.1187
  420MOL0     O55311   1.330   3.429   9.117  0.3131 -0.2061 -0.3275
  420MOL0     C55312   1.199   3.466   9.111 -0.2230  0.1409  0.0658
  420MOL0     C55313   1.111   3.379   9.036  0.1754 -0.0424  0.3554
  420MOL0     C55314   0.978   3.419   9.021 -0.0780  0.1746  1.0104
  420MOL0     C55315   0.917   3.530   9.081 -0.7745  1.2983 -0.3358
  420MOL0     O55316   0.780   3.562   9.077 -0.6837  0.1141  0.6302
  420MOL0     C55317   0.679   3.458   9.043  0.1778 -0.0728  0.8133
  420MOL0     C55318   0.546   3.536   9.019  0.1705 -0.1114 -0.4776
  420MOL0     C55319   0.421   3.454   9.055 -0.4361  0.3168  0.2574
  420MOL0     C55320   0.293   3.523   9.008  0.5662  0.2210  0.5578
  420MOL0     C55321   0.164   3.441   9.041  1.1099 -0.5105 -0.5524
  420MOL0     C55322   0.036   3.477   8.965  0.0908  0.5526 -0.5471
  420MOL0     C55323  -0.086   3.376   8.990 -0.6500 -0.7141 -1.3279
  420MOL0     C55324  -0.135   3.385   9.139 -0.1140  0.1935 -0.0603
  420MOL0     N55325  -0.255   3.302   9.165  0.2839 -0.1694  0.2585
  420MOL0     C55326  -0.358   3.257   9.078 -0.0530 -1.2876 -0.7970
  420MOL0     C55327  -0.424   3.159   9.136 -0.0476 -0.2909  0.8842
  420MOL0     C55328  -0.558   3.109   9.082 -0.0220  0.7448  0.4453
  420MOL0     C55329  -0.657   3.092   9.195 -0.1358  0.0008  0.5857
  420MOL0     C55330  -0.701   3.219   9.270  0.0895 -0.2489 -0.6118
  420MOL0     C55331  -0.743   3.339   9.186 -0.2959  0.6646  0.1662
  420MOL0     O55332  -0.853   3.322   9.098  0.4312  0.3135  0.2829
  420MOL0     C55333  -0.981   3.329   9.154 -0.1947  0.1953 -0.5938
  420MOL0     C55334  -1.030   3.348   9.284 -0.1953 -0.5900  0.2580
  420MOL0     C55335  -1.165   3.354   9.322 -0.6370 -1.2108 -0.5187
  420MOL0     C55336  -1.264   3.345   9.231 -0.0872  0.0385  1.0673
  420MOL0     C55337  -1.398   3.339   9.280  0.7249  0.7820 -0.2857
  420MOL0     O55338  -1.470   3.255   9.207 -0.0795 -0.7358  1.2013
  420MOL0     C55339  -1.609   3.272   9.218  0.2062  0.4831  0.0095
  420MOL0     C55340  -1.685   3.308   9.101 -0.6015 -0.3684 -0.1561
  420MOL0     C55341  -1.821   3.342   9.119  0.3007  0.4648 -0.5954
  420MOL0     C55342  -1.883   3.335   9.246  0.4085  0.0400  0.3876
  420MOL0     O55343  -2.011   3.373   9.270  0.0688  0.3173 -0.1334
  420MOL0     C55344  -2.097   3.417   9.164  0.1638 -0.1886  0.1374
  420MOL0     C55345  -2.239   3.435   9.225  1.2571 -0.1570  1.1470
  420MOL0     C55346  -2.317   3.498   9.102  0.3076 -0.2444 -0.1340
  420MOL0     C55347  -2.466   3.517   9.137 -0.0972  0.4383 -0.5566
  420MOL0     C55348  -2.551   3.588   9.037 -0.1622 -0.9389  0.2412
  420MOL0     C55349  -2.694   3.611   9.080  0.0568 -0.1017  1.2994
  420MOL0     C55350  -2.763   3.687   8.968 -0.0056 -0.7117 -0.0997
  420MOL0     C55351  -2.913   3.712   8.997  0.6066  0.2035 -0.0324
  420MOL0    Cl55352  -3.014   3.566   8.979 -0.1720 -0.1409 -0.0792
  420MOL0     C55353  -1.805   3.293   9.351  0.1709 -0.9380 -0.7653
  420MOL0     C55354  -1.671   3.260   9.340 -1.0345 -0.6614  0.5554
  420MOL0     O55355  -1.438   3.419   9.366 -0.2354 -0.5292  0.3001
  420MOL0     C55356  -1.213   3.319   9.095  0.2447  0.5350  0.5108
  420MOL0     C55357  -1.077   3.313   9.060  0.5572  0.8114 -0.4524
  420MOL0     N55358  -0.342   3.113   9.238  0.2009  0.2630  0.3466
  420MOL0     N55359  -0.249   3.206   9.261  0.0078  0.6596 -0.6389
  420MOL0     C55360   1.001   3.619   9.153 -0.5384 -0.6065 -0.7696
  420MOL0     C55361   1.143   3.587   9.166  0.5780  0.0062  0.3506
  420MOL0     C55362   1.544   3.418   8.985  0.0919  0.3870 -0.2145
  420MOL0     C55363   1.614   3.436   8.861 -0.3289  0.3054 -0.8905
  420MOL0     C55364   1.725   3.367   8.840 -0.0145  0.3254 -0.9998
  420MOL0     C55365   1.771   3.275   8.930 -0.9543  0.4385 -1.3243
  420MOL0     O55366   1.878   3.200   8.890  0.4366 -0.1282 -0.2706
  420MOL0     C55367   1.999   3.254   8.948 -0.1359 -0.0149  0.3975
  420MOL0     C55368   2.099   3.262   8.835 -0.7894  0.3828 -0.2466
  420MOL0     C55369   2.240   3.304   8.873  0.3176  0.4851 -1.0534
  420MOL0     C55370   2.308   3.357   8.751  0.3382 -0.2219 -0.1449
  420MOL0     C55371   2.433   3.420   8.791 -0.0885 -0.4251 -0.2471
  420MOL0     C55372   2.532   3.484   8.821 -0.4482  0.1720 -1.4757
  420MOL0     C55373   1.705   3.261   9.054 -0.3182  0.5512  1.2337
  420MOL0     C55374   1.588   3.322   9.077 -0.4731  0.1789  0.2067
  420MOL0     H55375   1.139   3.282   8.998 -2.9691 -0.0199 -2.6435
  420MOL0     H55376   0.924   3.341   8.968 -1.0934  1.7582 -0.3839
  420MOL0     H55377   0.677   3.385   9.125 -0.6144 -0.1918  0.7009
  420MOL0     H55378   0.709   3.407   8.952  1.3269  2.1466 -0.1310
  420MOL0     H55379   0.533   3.582   8.920  0.9240  2.7755  0.6738
  420MOL0     H55380   0.551   3.626   9.081  1.7817 -0.2582 -0.3564
  420MOL0     H55381   0.420   3.440   9.163 -1.7674 -0.1653  0.1893
  420MOL0     H55382   0.424   3.363   8.995 -3.8443  2.7977 -4.2970
  420MOL0     H55383   0.273   3.623   9.047 -0.7148 -0.3732  1.4851
  420MOL0     H55384   0.301   3.531   8.899 -1.4205  2.5000  0.4885
  420MOL0     H55385   0.156   3.468   9.146  1.1554  0.5252 -0.8096
  420MOL0     H55386   0.188   3.334   9.034 -2.3105 -1.4339  0.0698
  420MOL0     H55387   0.054   3.484   8.857  0.2288  0.0561 -0.5585
  420MOL0     H55388   0.011   3.583   8.977 -2.1680  0.1998 -1.6566
  420MOL0     H55389  -0.164   3.409   8.921 -1.9283 -1.7221 -0.4040
  420MOL0     H55390  -0.053   3.272   8.976 -0.4562 -1.0961  1.3394
  420MOL0     H55391  -0.175   3.484   9.163 -3.0941 -0.5169 -1.5533
  420MOL0     H55392  -0.055   3.356   9.207  0.6145  0.5429 -0.7480
  420MOL0     H55393  -0.400   3.310   8.993 -1.6445 -0.3404  0.5075
  420MOL0     H55394  -0.540   3.014   9.031 -0.6716 -0.7317  2.8309
  420MOL0     H55395  -0.602   3.176   9.007 -0.7663 -1.2680 -0.9963
  420MOL0     H55396  -0.610   3.028   9.270  1.2263  3.5936  3.0800
  420MOL0     H55397  -0.741   3.035   9.153  1.3195  0.5220 -3.5009
  420MOL0     H55398  -0.789   3.192   9.330  0.7923 -0.5885  0.2851
  420MOL0     H55399  -0.630   3.260   9.343  1.2530 -1.1279 -1.2110
  420MOL0     H55400  -0.659   3.375   9.126  0.7458 -1.3885  0.3180
  420MOL0     H55401  -0.759   3.423   9.254  1.1310  1.5792 -0.5719
  420MOL0     H55402  -0.946   3.369   9.349  0.7096 -0.2851 -0.9632
  420MOL0     H55403  -1.188   3.376   9.426  1.6766  1.5737 -0.4655
  420MOL0     H55404  -1.645   3.325   9.002  1.7199  2.3290  1.0804
  420MOL0     H55405  -1.865   3.394   9.035 -0.3795  1.9800  0.6438
  420MOL0     H55406  -2.111   3.338   9.090 -0.5024 -0.8060  0.8998
  420MOL0     H55407  -2.054   3.509   9.123  0.8930 -0.6585 -0.1689
  420MOL0     H55408  -2.246   3.514   9.301  1.1223  0.7816  0.1736
  420MOL0     H55409  -2.281   3.340   9.259  0.7666 -0.3341  0.0790
  420MOL0     H55410  -2.309   3.435   9.013 -0.3194 -1.0316  0.3542
  420MOL0     H55411  -2.271   3.593   9.074  0.6634 -0.7559 -1.3741
  420MOL0     H55412  -2.503   3.416   9.157  1.3835 -0.4834 -2.2073
  420MOL0     H55413  -2.469   3.575   9.229  0.3097  2.1279 -1.5586
  420MOL0     H55414  -2.560   3.542   8.938  2.9183 -1.4957  0.1217
  420MOL0     H55415  -2.507   3.689   9.042  0.4125 -1.2456  2.0028
  420MOL0     H55416  -2.690   3.669   9.173 -1.8529 -2.4753  3.0000
  420MOL0     H55417  -2.738   3.513   9.102  0.8558 -0.7014  0.3066
  420MOL0     H55418  -2.713   3.784   8.965  0.4432 -0.8486  1.8433
  420MOL0     H55419  -2.757   3.645   8.867 -1.8376 -1.1350 -0.0830
  420MOL0     H55420  -2.959   3.781   8.926  2.2953  1.5285  0.1139
  420MOL0     H55421  -2.920   3.763   9.094 -0.2272  2.7699 -1.3586
  420MOL0     H55422  -1.849   3.282   9.450  0.3699 -0.0070 -0.5576
  420MOL0     H55423  -1.595   3.249   9.417  0.0903  0.5773 -0.3433
  420MOL0     H55424  -1.281   3.299   9.013 -0.5055 -0.0660  1.2552
  420MOL0     H55425  -1.052   3.306   8.955 -2.5163  1.0201 -1.3041
  420MOL0     H55426   0.974   3.719   9.183 -1.0015 -0.0560 -2.8389
  420MOL0     H55427   1.215   3.654   9.213  1.2036 -0.9677  0.8237
  420MOL0     H55428   1.594   3.514   8.789 -1.2196  1.4316  0.5115
  420MOL0     H55429   1.774   3.375   8.743 -0.6683 -4.3259 -1.9184
  420MOL0     H55430   2.033   3.186   9.027  0.1843 -1.1449 -0.6821
  420MOL0     H55431   1.983   3.350   8.996  0.7238  1.3452 -1.8752
  420MOL0     H55432   2.116   3.165   8.788 -2.1757 -0.2802  0.5787
  420MOL0     H55433   2.053   3.326   8.758 -1.3543  0.3317  0.0476
  420MOL0     H55434   2.300   3.225   8.919  2.4219  1.9705 -1.1136
  420MOL0     H55435   2.238   3.380   8.951  2.3582 -2.2800  1.9785
  420MOL0     H55436   2.338   3.272   8.688  3.9104  0.5191  0.3197
  420MOL0     H55437   2.255   3.428   8.688  4.4393  1.1606 -2.4272
  420MOL0     H55438   2.627   3.523   8.852  0.9989 -2.6812 -2.0085
  420MOL0     H55439   1.746   3.190   9.125  1.8408  0.7452  0.2545
  420MOL0     H55440   1.540   3.314   9.174 -0.4996 -0.6055  0.1290
  421MOL0     O55441  10.052  10.600   6.619 -0.2327  0.5007 -0.1358
  421MOL0     C55442  10.119  10.559   6.716 -0.7146  0.5089  0.4222
  421MOL0     O55443  10.074  10.477   6.813 -0.3918 -0.8270  0.4753
  421MOL0     C55444   9.944  10.458   6.817 -0.3217  0.1643 -0.7360
  421MOL0     C55445   9.863  10.550   6.877 -0.9222  0.2362 -0.0178
  421MOL0     C55446   9.728  10.523   6.891 -0.0478  0.7792  0.1480
  421MOL0     C55447   9.667  10.395   6.848  0.0419  0.2112 -0.1030
  421MOL0     O55448   9.539  10.357   6.882  0.5338 -0.0865  0.3994
  421MOL0     C55449   9.429  10.383   6.792 -0.6010  0.7099 -0.6420
  421MOL0     C55450   9.423  10.308   6.664 -0.5452 -0.0074 -0.5498
  421MOL0     C55451   9.421  10.154   6.682  0.0714 -0.3704  0.1415
  421MOL0     C55452   9.301  10.094   6.764  0.8040  0.2422 -0.5302
  421MOL0     C55453   9.307   9.939   6.769 -0.5849 -0.1359  0.8286
  421MOL0     C55454   9.192   9.891   6.857 -0.0754 -0.1093  0.3799
  421MOL0     C55455   9.191   9.743   6.913  0.1340  0.4092 -0.2201
  421MOL0     C55456   9.331   9.696   6.949  0.6000  0.8729 -0.6595
  421MOL0     N55457   9.326   9.570   7.025 -0.0741  0.5674  0.0854
  421MOL0     C55458   9.239   9.543   7.132  0.1111  0.0249 -0.3651
  421MOL0     C55459   9.283   9.420   7.175  0.0898  0.6319 -0.2086
  421MOL0     C55460   9.232   9.346   7.298 -0.0244 -1.2255 -0.5333
  421MOL0     C55461   9.099   9.268   7.276  0.4258 -0.3025  0.2024
  421MOL0     C55462   9.047   9.202   7.400 -0.5530 -1.0977 -1.1635
  421MOL0     C55463   8.912   9.146   7.391  0.3426  0.2797  0.1576
  421MOL0     O55464   8.817   9.249   7.380  0.8717 -0.6700  0.3924
  421MOL0     C55465   8.689   9.208   7.353  0.4806 -0.0409  0.3128
  421MOL0     C55466   8.593   9.283   7.275 -0.4924 -0.6761 -0.6539
  421MOL0     C55467   8.461   9.254   7.256 -0.8308  0.7803 -0.4295
  421MOL0     C55468   8.406   9.151   7.334 -0.2706 -0.0832 -0.8863
  421MOL0     C55469   8.266   9.112   7.336  0.0616 -1.4055  1.1040
  421MOL0     O55470   8.190   9.168   7.240  0.1842 -1.3040 -0.0769
  421MOL0     C55471   8.064   9.128   7.211 -0.5275  0.8861 -0.2558
  421MOL0     C55472   7.970   9.227   7.235 -0.3258  0.9223  0.4976
  421MOL0     C55473   7.834   9.212   7.218 -0.5718  0.1874  0.6208
  421MOL0     C55474   7.790   9.098   7.166 -0.0518 -0.5815 -1.4558
  421MOL0     O55475   7.651   9.098   7.156  0.0157  0.4670 -0.2202
  421MOL0     C55476   7.578   9.005   7.080 -0.2006  0.5057  0.0691
  421MOL0     C55477   7.505   8.909   7.175  0.3130  0.1154  0.4165
  421MOL0     C55478   7.385   8.969   7.237 -0.5458 -0.5884 -0.2138
  421MOL0     C55479   7.300   8.853   7.299 -0.3486 -0.4938  0.1967
  421MOL0     C55480   7.190   8.910   7.385  0.1050  0.4073  0.5055
  421MOL0     C55481   7.094   8.797   7.432  1.1540  0.2075 -0.4443
  421MOL0     C55482   6.957   8.834   7.497 -0.9794 -0.9386  0.5947
  421MOL0     C55483   6.969   8.919   7.629 -0.7276  0.4725  1.4970
  421MOL0    Cl55484   6.819   8.963   7.714  0.1831  0.2036 -0.1232
  421MOL0     C55485   7.874   8.991   7.144 -0.6096  0.6912  0.5886
  421MOL0     C55486   8.012   9.005   7.171 -0.4943  0.1641 -0.7570
  421MOL0     O55487   8.231   9.041   7.431 -0.1511  0.2277  0.0124
  421MOL0     C55488   8.495   9.082   7.422  0.9765 -0.7138 -0.2144
  421MOL0     C55489   8.629   9.103   7.423 -0.0661 -0.1914 -0.0168
  421MOL0     N55490   9.385   9.373   7.098 -0.2725 -0.1202  0.0918
  421MOL0     N55491   9.405   9.463   7.009 -0.6360 -0.6265  0.3133
  421MOL0     C55492   9.756  10.308   6.784 -0.3056 -0.3584 -0.6272
  421MOL0     C55493   9.896  10.334   6.779  0.6059 -0.4198 -0.5021
  421MOL0     C55494  10.266  10.582   6.717  0.8054  0.2377  0.1110
  421MOL0     C55495  10.347  10.503   6.804  0.4772  0.5574  0.0038
  421MOL0     C55496  10.481  10.504   6.792 -0.2497 -0.5998 -0.6592
  421MOL0     C55497  10.550  10.588   6.699 -0.7062  1.1408 -0.4705
  421MOL0     O55498  10.687  10.576   6.711 -0.0043  0.2219 -0.4696
  421MOL0     C55499  10.764  10.628   6.604 -0.3787 -0.3857  0.5741
  421MOL0     C55500  10.917  10.583   6.605  0.5861 -0.1234 -0.0783
  421MOL0     C55501  11.021  10.688   6.571  0.5374  0.3166  0.1290
  421MOL0     C55502  11.167  10.631   6.591  1.1108 -0.3018  0.3089
  421MOL0     C55503  11.196  10.518   6.495 -0.6945  0.8256 -0.0120
  421MOL0     C55504  11.216  10.419   6.435  0.2379 -0.0385  0.7862
  421MOL0     C55505  10.468  10.658   6.608 -0.2984 -0.2207  0.2061
  421MOL0     C55506  10.329  10.649   6.613  0.3850  0.4717  0.2724
  421MOL0     H55507   9.905  10.642   6.916 -0.2475 -0.3494  0.6626
  421MOL0     H55508   9.677  10.604   6.941 -0.2152  1.2212 -0.7042
  421MOL0     H55509   9.445  10.491   6.776  2.4818  0.7996  1.9457
  421MOL0     H55510   9.338  10.363   6.848 -1.0229  1.7135 -0.9311
  421MOL0     H55511   9.507  10.343   6.603 -1.6258 -0.5876 -2.4774
  421MOL0     H55512   9.333  10.329   6.605  0.5827  0.2537 -2.2493
  421MOL0     H55513   9.516  10.121   6.725  1.6020  2.8004 -0.4988
  421MOL0     H55514   9.409  10.113   6.581  0.0608  3.4337 -1.5880
  421MOL0     H55515   9.288  10.130   6.867  2.0485 -2.8680  0.8417
  421MOL0     H55516   9.206  10.123   6.718 -1.1374  0.7138  3.3672
  421MOL0     H55517   9.405   9.907   6.806 -0.6992 -1.0912  0.3457
  421MOL0     H55518   9.303   9.907   6.665  0.3612  0.7204  0.5127
  421MOL0     H55519   9.095   9.905   6.809  1.3904  1.0910 -2.4999
  421MOL0     H55520   9.204   9.961   6.940 -1.9098 -1.7726  2.1666
  421MOL0     H55521   9.128   9.738   7.002 -0.6562  0.0161 -0.7888
  421MOL0     H55522   9.154   9.675   6.836  1.2398  0.4802 -0.8398
  421MOL0     H55523   9.379   9.766   7.017  2.0422  1.6898 -2.4226
  421MOL0     H55524   9.387   9.674   6.857 -0.2323 -3.4755 -0.3449
  421MOL0     H55525   9.170   9.612   7.178 -1.2217 -1.0155 -0.7594
  421MOL0     H55526   9.236   9.424   7.375 -0.8681 -2.1627  0.4872
  421MOL0     H55527   9.310   9.276   7.330  1.1838 -0.8172 -2.4056
  421MOL0     H55528   9.113   9.194   7.197  4.0673  1.6352 -1.1764
  421MOL0     H55529   9.026   9.337   7.232 -0.4366 -1.1197  0.3059
  421MOL0     H55530   9.117   9.119   7.410 -1.3077 -1.4741  2.3026
  421MOL0     H55531   9.052   9.269   7.486 -2.3885 -1.9311 -0.3523
  421MOL0     H55532   8.898   9.085   7.481  0.5818  2.3974  1.7277
  421MOL0     H55533   8.913   9.078   7.306 -1.8775 -1.1791  1.2018
  421MOL0     H55534   8.639   9.353   7.206 -0.0817 -1.8634 -1.6108
  421MOL0     H55535   8.401   9.306   7.182 -3.8937 -1.6945  0.1102
  421MOL0     H55536   8.001   9.321   7.279  0.6399  0.2884  1.1932
  421MOL0     H55537   7.769   9.298   7.229 -2.4830 -0.9455 -1.0785
  421MOL0     H55538   7.647   8.963   7.006 -0.6936  2.8724 -1.8428
  421MOL0     H55539   7.507   9.070   7.028  0.5842  0.1922 -1.4687
  421MOL0     H55540   7.577   8.863   7.243  0.4188  1.2688  1.1193
  421MOL0     H55541   7.463   8.829   7.114 -1.9432  3.0919 -2.3098
  421MOL0     H55542   7.324   9.021   7.163 -2.8058 -1.1140  1.1843
  421MOL0     H55543   7.408   9.044   7.312  0.5005 -0.4721 -0.6236
  421MOL0     H55544   7.251   8.792   7.223 -1.2890 -2.1022  1.9909
  421MOL0     H55545   7.358   8.786   7.363 -0.8264 -0.0182  1.1538
  421MOL0     H55546   7.125   8.980   7.331 -1.2729  0.6124  2.3307
  421MOL0     H55547   7.233   8.967   7.468 -0.7274  2.5675 -0.4557
  421MOL0     H55548   7.153   8.737   7.502  0.3825 -0.8425 -0.6653
  421MOL0     H55549   7.075   8.745   7.338  3.4862  1.8041 -1.8969
  421MOL0     H55550   6.904   8.894   7.422  0.6533 -0.3547 -0.1543
  421MOL0     H55551   6.892   8.750   7.524 -2.4799 -0.0813 -0.2185
  421MOL0     H55552   7.011   9.019   7.617  1.0083 -0.3633  0.2259
  421MOL0     H55553   7.032   8.868   7.702 -0.6963 -0.9637  0.5132
  421MOL0     H55554   7.830   8.899   7.105  1.4445  0.1502 -0.6697
  421MOL0     H55555   8.081   8.924   7.148  0.4314  0.2761  1.3938
  421MOL0     H55556   8.459   8.998   7.482  2.3801 -1.6227 -0.5864
  421MOL0     H55557   8.688   9.039   7.488  2.7359  0.6002 -1.6180
  421MOL0     H55558   9.723  10.209   6.753  0.3500 -0.0625 -2.4298
  421MOL0     H55559   9.954  10.257   6.730 -2.7008 -1.4550 -3.2088
  421MOL0     H55560  10.310  10.423   6.868  1.2502 -0.3070 -0.5944
  421MOL0     H55561  10.527  10.420   6.843 -1.0315 -0.7628 -0.1933
  421MOL0     H55562  10.771  10.735   6.624  0.2798 -0.2815 -0.1884
  421MOL0     H55563  10.719  10.611   6.506 -0.1008 -1.2248  0.5893
  421MOL0     H55564  10.927  10.549   6.708 -0.1511 -2.4133 -0.7001
  421MOL0     H55565  10.930  10.499   6.536 -2.2011 -0.2593 -0.5646
  421MOL0     H55566  11.005  10.776   6.635  1.0024  0.3752  0.1645
  421MOL0     H55567  11.015  10.714   6.465 -0.4234 -0.0610  0.0743
  421MOL0     H55568  11.234  10.715   6.572 -0.4536  0.8012 -0.5968
  421MOL0     H55569  11.172  10.588   6.691  0.0751  1.1454  1.0183
  421MOL0     H55570  11.241  10.333   6.378 -1.0005  0.7177 -0.9820
  421MOL0     H55571  10.507  10.708   6.520  0.8122 -1.7037 -0.1918
  421MOL0     H55572  10.275  10.692   6.530  0.4084  0.6764  0.3636
  422MOL0     O55573  10.540   9.992   8.816 -0.3563  0.0846 -0.0826
  422MOL0     C55574  10.631   9.945   8.883 -0.7228  0.7873 -0.5325
  422MOL0     O55575  10.642   9.954   9.023  0.0424  0.0346  0.0751
  422MOL0     C55576  10.549  10.023   9.095  0.5241  0.4376  0.4271
  422MOL0     C55577  10.458   9.973   9.180 -0.0506 -0.4385 -0.1229
  422MOL0     C55578  10.357  10.048   9.236  0.8486  0.8588 -0.6329
  422MOL0     C55579  10.353  10.185   9.212  0.1578 -0.0279  0.5094
  422MOL0     O55580  10.261  10.265   9.255  0.4601 -0.8339 -0.4139
  422MOL0     C55581  10.253  10.415   9.240 -0.0398  0.3634  0.2825
  422MOL0     C55582  10.114  10.455   9.287 -0.4270  0.5661  1.5877
  422MOL0     C55583  10.114  10.608   9.294 -1.3388 -0.7199  0.8658
  422MOL0     C55584   9.985  10.673   9.349 -0.1839  1.0207 -0.0145
  422MOL0     C55585   9.979  10.816   9.322 -0.3930  0.0363 -0.5714
  422MOL0     C55586   9.847  10.885   9.358 -0.1402  0.7271 -0.5528
  422MOL0     C55587   9.864  11.030   9.324 -0.0696 -0.5606  0.1904
  422MOL0     C55588   9.749  11.108   9.379  0.1899 -0.2539 -0.0764
  422MOL0     N55589   9.625  11.110   9.296  0.4174 -0.6910  0.2174
  422MOL0     C55590   9.497  11.079   9.352  0.4895  0.4478 -0.1428
  422MOL0     C55591   9.421  11.101   9.241 -0.3547 -0.1423  0.1583
  422MOL0     C55592   9.276  11.082   9.246  0.4318 -0.0875  0.4664
  422MOL0     C55593   9.204  11.207   9.303  0.2582 -0.6747 -0.6898
  422MOL0     C55594   9.170  11.319   9.205 -0.3755 -0.5153 -0.2242
  422MOL0     C55595   9.029  11.368   9.251 -0.5245  0.1771  1.2907
  422MOL0     O55596   9.052  11.464   9.354  0.3253 -0.3922  0.6265
  422MOL0     C55597   8.954  11.467   9.443  1.6216  0.2232  0.8769
  422MOL0     C55598   8.845  11.557   9.421  0.3595  0.6168  0.4062
  422MOL0     C55599   8.724  11.555   9.491 -0.2681 -0.0466 -0.2297
  422MOL0     C55600   8.703  11.464   9.598 -0.4566  0.7738  0.4094
  422MOL0     C55601   8.570  11.457   9.653 -0.2373  0.5434 -0.3731
  422MOL0     O55602   8.474  11.497   9.563 -0.2169 -0.3247  0.1197
  422MOL0     C55603   8.347  11.510   9.623  0.3702  0.2226 -1.3482
  422MOL0     C55604   8.298  11.630   9.660 -0.6155  0.0103  0.3902
  422MOL0     C55605   8.177  11.652   9.718  0.0469  0.6600 -0.5913
  422MOL0     C55606   8.097  11.542   9.752 -0.2056 -0.2318  0.6915
  422MOL0     O55607   7.972  11.553   9.804 -0.1244  0.3076 -0.2144
  422MOL0     C55608   7.896  11.648   9.734 -0.3161  0.1896  0.0276
  422MOL0     C55609   7.748  11.606   9.723 -1.2443  0.6836  0.4115
  422MOL0     C55610   7.689  11.585   9.866  0.4766  0.1059 -0.9448
  422MOL0     C55611   7.544  11.540   9.854 -0.0238  0.2353  1.0079
  422MOL0     C55612   7.476  11.551   9.985  0.1720 -0.0503 -0.2822
  422MOL0     C55613   7.331  11.496   9.988 -0.0082 -0.7167  0.4400
  422MOL0     C55614   7.251  11.490  10.114  0.0024 -0.4653  0.1480
  422MOL0     C55615   7.102  11.444  10.096 -0.6167  0.5167 -0.2638
  422MOL0    Cl55616   7.006  11.553   9.991 -0.1072 -0.2948  0.3714
  422MOL0     C55617   8.146  11.414   9.737  0.0455 -0.0760  0.5667
  422MOL0     C55618   8.267  11.400   9.658  0.1408 -0.7236  0.4297
  422MOL0     O55619   8.553  11.435   9.774 -0.6087 -0.0366  0.1222
  422MOL0     C55620   8.814  11.375   9.617 -0.1547 -0.2302 -0.7785
  422MOL0     C55621   8.940  11.378   9.549 -0.1302  0.2121 -0.3223
  422MOL0     N55622   9.496  11.142   9.135  0.0895  0.3012  1.4985
  422MOL0     N55623   9.619  11.156   9.167  0.3198  0.6299 -0.1007
  422MOL0     C55624  10.457  10.245   9.128  0.3493  0.3549  0.4233
  422MOL0     C55625  10.550  10.159   9.068 -0.2704  0.1807 -0.2762
  422MOL0     C55626  10.739   9.870   8.829 -0.1555 -0.6373 -0.2893
  422MOL0     C55627  10.725   9.817   8.703  0.4859  0.6221 -0.2822
  422MOL0     C55628  10.820   9.730   8.652 -0.7386  0.6980 -0.3818
  422MOL0     C55629  10.926   9.697   8.733  0.2714  0.7843  0.4504
  422MOL0     O55630  11.014   9.605   8.675 -0.1465  0.6696  0.2003
  422MOL0     C55631  11.158   9.638   8.680  1.5066  1.2632  0.3478
  422MOL0     C55632  11.227   9.527   8.759  0.4190  0.3420  0.7301
  422MOL0     C55633  11.192   9.385   8.716 -0.9223 -0.4803  0.0124
  422MOL0     C55634  11.267   9.345   8.587  0.7907  0.2209  0.0588
  422MOL0     C55635  11.405   9.378   8.567  0.0018 -0.7362  0.3650
  422MOL0     C55636  11.524   9.392   8.566  0.1798 -0.0699  0.4026
  422MOL0     C55637  10.938   9.758   8.855 -0.7887 -0.1766 -0.1263
  422MOL0     C55638  10.856   9.854   8.908  0.4740 -0.6685  0.9446
  422MOL0     H55639  10.452   9.866   9.199  0.4898 -0.4598 -0.0618
  422MOL0     H55640  10.284  10.000   9.300 -0.0454  3.0469  0.0615
  422MOL0     H55641  10.278  10.445   9.138  1.2871 -4.2102 -0.9702
  422MOL0     H55642  10.323  10.460   9.311  1.7085 -0.4133 -0.8881
  422MOL0     H55643  10.100  10.421   9.390 -1.4762  0.8608  1.5509
  422MOL0     H55644  10.033  10.412   9.229  1.2647 -1.4926  0.5952
  422MOL0     H55645  10.124  10.651   9.194 -5.3259 -0.0773  0.5732
  422MOL0     H55646  10.201  10.639   9.352 -0.7632  1.1387 -0.8967
  422MOL0     H55647   9.899  10.622   9.305 -0.3983  0.3012  1.1915
  422MOL0     H55648   9.985  10.657   9.457 -0.6919 -0.7218 -0.2330
  422MOL0     H55649   9.994  10.839   9.216  1.3589 -0.5395 -0.4711
  422MOL0     H55650  10.060  10.863   9.378  1.3034  0.1888 -3.0061
  422MOL0     H55651   9.829  10.855   9.461 -0.6713 -1.0684 -1.1309
  422MOL0     H55652   9.764  10.840   9.302  0.1508  1.9460 -2.0451
  422MOL0     H55653   9.951  11.074   9.373 -0.0886  2.7370 -2.3822
  422MOL0     H55654   9.885  11.046   9.218  2.2353 -1.5728  0.4462
  422MOL0     H55655   9.788  11.210   9.392  0.5932 -0.8112  6.3287
  422MOL0     H55656   9.721  11.080   9.481 -2.4926 -0.0626 -0.6755
  422MOL0     H55657   9.470  11.043   9.450 -0.3106  1.9721  0.2141
  422MOL0     H55658   9.257  10.986   9.295 -1.0659 -0.3003 -0.4628
  422MOL0     H55659   9.256  11.065   9.140 -1.1801  1.6224  0.4399
  422MOL0     H55660   9.274  11.237   9.381 -2.2796 -2.5657  2.6157
  422MOL0     H55661   9.118  11.168   9.358 -0.8287  0.0426 -1.8324
  422MOL0     H55662   9.241  11.402   9.196 -0.9493  0.0341  0.2753
  422MOL0     H55663   9.164  11.274   9.105  3.1296 -0.3829 -0.6324
  422MOL0     H55664   8.958  11.292   9.286 -3.3173  0.4051 -3.1153
  422MOL0     H55665   8.975  11.418   9.170 -0.2019  0.1350  1.0475
  422MOL0     H55666   8.860  11.622   9.335  0.3046  1.2251  0.8474
  422MOL0     H55667   8.636  11.606   9.453 -0.7099 -0.3716  0.3409
  422MOL0     H55668   8.360  11.709   9.619  0.7437 -0.4436  1.5073
  422MOL0     H55669   8.144  11.755   9.711  1.8729  1.3180 -0.0007
  422MOL0     H55670   7.933  11.663   9.632 -1.9158 -1.3071 -0.8266
  422MOL0     H55671   7.911  11.743   9.785  2.0691 -0.2723  0.3100
  422MOL0     H55672   7.734  11.505   9.685 -3.0081  1.7875 -2.1363
  422MOL0     H55673   7.697  11.679   9.660  0.1942  0.5945 -0.9153
  422MOL0     H55674   7.696  11.670   9.936 -2.9660  1.1641 -1.7235
  422MOL0     H55675   7.745  11.504   9.913  0.4994 -0.0666 -1.2666
  422MOL0     H55676   7.488  11.614   9.795 -1.2158 -0.5234  1.1490
  422MOL0     H55677   7.542  11.438   9.816 -0.0642 -0.0697  1.8219
  422MOL0     H55678   7.463  11.657  10.012  0.1787 -0.3817  1.0964
  422MOL0     H55679   7.540  11.501  10.059 -0.6469  1.5530  1.6045
  422MOL0     H55680   7.329  11.395   9.944 -1.5932 -1.9876  3.1442
  422MOL0     H55681   7.278  11.558   9.915  1.9998  0.6660  0.0832
  422MOL0     H55682   7.304  11.421  10.180 -0.9995  0.7820  2.3556
  422MOL0     H55683   7.235  11.591  10.152 -3.7140  0.3145 -2.8542
  422MOL0     H55684   7.063  11.447  10.198  0.3593 -0.1476  0.1430
  422MOL0     H55685   7.087  11.344  10.055 -0.5498 -0.1768  1.3432
  422MOL0     H55686   8.083  11.331   9.769  1.1562 -1.9793 -1.8635
  422MOL0     H55687   8.313  11.302   9.646 -0.4787 -0.6710 -3.6540
  422MOL0     H55688   8.812  11.322   9.712  1.3804 -1.0999 -1.1991
  422MOL0     H55689   9.018  11.304   9.565  0.0731  0.4302 -0.3132
  422MOL0     H55690  10.462  10.352   9.111  0.6393  0.5304  1.5108
  422MOL0     H55691  10.612  10.200   8.989  0.1204  1.5388  0.6816
  422MOL0     H55692  10.637   9.839   8.643 -2.4933 -1.4387  2.9622
  422MOL0     H55693  10.802   9.671   8.562  3.2324 -1.5784  0.0853
  422MOL0     H55694  11.164   9.729   8.740 -2.2131 -1.0334  4.7946
  422MOL0     H55695  11.207   9.635   8.582  1.4885  1.6973  0.3240
  422MOL0     H55696  11.335   9.543   8.767  0.2204  1.1014  2.2011
  422MOL0     H55697  11.194   9.531   8.863  4.4491  0.7302  2.1377
  422MOL0     H55698  11.085   9.368   8.700 -1.2079 -0.3304  1.5945
  422MOL0     H55699  11.229   9.322   8.798  1.4458 -3.7432 -3.2599
  422MOL0     H55700  11.266   9.236   8.592  0.5379 -0.0826 -3.7119
  422MOL0     H55701  11.209   9.383   8.502  2.1001  2.9395  0.2579
  422MOL0     H55702  11.631   9.388   8.558  0.1319 -2.5062  0.3488
  422MOL0     H55703  11.029   9.729   8.906 -0.3459 -0.2252 -0.9291
  422MOL0     H55704  10.878   9.898   9.005  0.8307  0.4555  0.3663
  423MOL0     O55705   3.931  10.023   0.385  0.1170 -0.3120 -1.0018
  423MOL0     C55706   3.844  10.039   0.470 -0.0135 -0.2982  0.2509
  423MOL0     O55707   3.711  10.024   0.449 -0.7792  0.2951  0.3852
  423MOL0     C55708   3.675  10.005   0.315  0.0648 -0.4655 -0.7881
  423MOL0     C55709   3.647   9.878   0.266 -0.2654  0.1376  0.5858
  423MOL0     C55710   3.635   9.869   0.129 -0.3464  0.4396  0.5608
  423MOL0     C55711   3.637   9.985   0.042 -0.5125 -0.6675 -0.4254
  423MOL0     O55712   3.628   9.969  -0.093 -0.1789 -0.0155 -0.8868
  423MOL0     C55713   3.560  10.079  -0.160 -0.2248  0.0541  0.3675
  423MOL0     C55714   3.468  10.032  -0.275 -0.1858 -0.2593 -0.8505
  423MOL0     C55715   3.409  10.156  -0.348  0.4227 -0.0652  0.0897
  423MOL0     C55716   3.324  10.115  -0.474  0.3545  0.1724 -0.2277
  423MOL0     C55717   3.306  10.230  -0.570  0.0649 -1.3033  0.2602
  423MOL0     C55718   3.238  10.351  -0.500 -0.3331  0.1136 -0.1969
  423MOL0     C55719   3.090  10.304  -0.470  0.6938  0.1291  0.3739
  423MOL0     C55720   2.991  10.423  -0.485 -1.2970 -1.0322 -0.5067
  423MOL0     N55721   2.854  10.387  -0.483  0.0542  0.0599 -1.1316
  423MOL0     C55722   2.747  10.440  -0.550  0.3654  0.8444  0.3522
  423MOL0     C55723   2.644  10.388  -0.486 -0.1613 -0.1383 -0.1009
  423MOL0     C55724   2.493  10.391  -0.533  0.1096  0.0632  0.1279
  423MOL0     C55725   2.492  10.357  -0.684 -0.1759  0.1548  0.9254
  423MOL0     C55726   2.343  10.355  -0.728  0.5112 -0.0799  1.3090
  423MOL0     C55727   2.323  10.278  -0.860 -0.0018 -0.2286  0.7355
  423MOL0     O55728   2.200  10.322  -0.914 -0.2953  0.4664  0.6277
  423MOL0     C55729   2.172  10.274  -1.043  1.3721 -0.1237 -0.7944
  423MOL0     C55730   2.253  10.311  -1.146  0.7858  0.2068  0.7514
  423MOL0     C55731   2.229  10.262  -1.280 -0.1272  0.7478 -0.1642
  423MOL0     C55732   2.126  10.180  -1.300  0.6317 -0.2768  0.2637
  423MOL0     C55733   2.082  10.150  -1.433  0.7317 -0.4005  0.0859
  423MOL0     O55734   2.142  10.222  -1.540  0.0246  0.6440  0.0728
  423MOL0     C55735   2.124  10.153  -1.663  0.3488 -0.2987 -0.2642
  423MOL0     C55736   2.230  10.076  -1.720 -0.1166 -0.7857 -0.0956
  423MOL0     C55737   2.218  10.005  -1.845  1.2630  0.1665 -0.0798
  423MOL0     C55738   2.099  10.013  -1.922  0.0617 -0.0959 -0.4497
  423MOL0     O55739   2.090   9.929  -2.037 -0.1359  0.3320  0.5506
  423MOL0     C55740   1.958   9.904  -2.085  0.0157 -0.3222  0.1807
  423MOL0     C55741   1.973   9.826  -2.222  0.3522  0.0091 -0.6959
  423MOL0     C55742   2.053   9.690  -2.203 -0.0841  0.5202  0.2065
  423MOL0     C55743   2.137   9.642  -2.323  0.2523  0.3119 -0.6254
  423MOL0     C55744   2.167   9.498  -2.297 -0.3238  0.6962  0.2645
  423MOL0     C55745   2.268   9.434  -2.391  0.1223 -0.1573 -0.5548
  423MOL0     C55746   2.304   9.297  -2.338 -0.6073  0.2120  0.6035
  423MOL0     C55747   2.410   9.239  -2.419 -0.1602 -0.0418  0.5914
  423MOL0    Cl55748   2.569   9.300  -2.375  0.4268 -0.2408 -0.6219
  423MOL0     C55749   1.996  10.089  -1.859 -0.6421 -1.1741 -0.7256
  423MOL0     C55750   2.017  10.159  -1.744 -0.2401  0.8808 -0.3225
  423MOL0     O55751   2.007  10.056  -1.445 -0.0399 -0.2084 -0.1608
  423MOL0     C55752   2.038  10.142  -1.190 -1.0316 -0.1959  0.3553
  423MOL0     C55753   2.063  10.190  -1.065  0.5201  0.0475  0.5114
  423MOL0     N55754   2.676  10.305  -0.383  0.2916  0.0697 -0.1808
  423MOL0     N55755   2.806  10.308  -0.388  0.1373 -0.4891 -0.7537
  423MOL0     C55756   3.688  10.103   0.095 -0.5924  0.0750 -0.1657
  423MOL0     C55757   3.696  10.115   0.233 -0.4624  1.0703 -0.2000
  423MOL0     C55758   3.888  10.087   0.600  0.4296 -0.2519  0.9817
  423MOL0     C55759   4.020  10.078   0.647 -0.9624  0.8723 -0.0169
  423MOL0     C55760   4.045  10.134   0.774 -0.1465 -0.6905  0.0193
  423MOL0     C55761   3.943  10.181   0.861  0.1173 -0.1643  0.0107
  423MOL0     O55762   3.977  10.211   0.992  0.1375  0.7109 -0.6130
  423MOL0     C55763   3.881  10.173   1.097  0.4679  0.0658 -0.4191
  423MOL0     C55764   3.822  10.299   1.163  0.5846  0.0831  0.1531
  423MOL0     C55765   3.933  10.392   1.227 -0.6335  0.0162  0.5381
  423MOL0     C55766   3.884  10.511   1.303 -0.1661 -0.8296 -0.3237
  423MOL0     C55767   3.741  10.503   1.347  0.6840 -0.3514 -1.0609
  423MOL0     C55768   3.621  10.501   1.379  0.2484  0.0574  0.7883
  423MOL0     C55769   3.822  10.201   0.804 -0.0273 -0.5759 -0.0950
  423MOL0     C55770   3.789  10.147   0.680 -0.1619 -0.3644  0.1127
  423MOL0     H55771   3.654   9.794   0.334  0.6771 -1.0296 -0.8713
  423MOL0     H55772   3.629   9.766   0.092  2.2602  0.1628  0.7348
  423MOL0     H55773   3.630  10.150  -0.205 -1.7722  0.3939 -1.6240
  423MOL0     H55774   3.510  10.139  -0.083  0.1713  0.0348  0.6383
  423MOL0     H55775   3.386   9.977  -0.227 -0.5363  1.5677  0.7540
  423MOL0     H55776   3.529   9.962  -0.333  0.2487 -1.7903  1.3344
  423MOL0     H55777   3.477  10.230  -0.391 -0.1387  0.1275 -0.4793
  423MOL0     H55778   3.345  10.212  -0.279 -1.0896 -1.5035 -0.0921
  423MOL0     H55779   3.392  10.044  -0.524  0.5897 -0.1513  0.5280
  423MOL0     H55780   3.232  10.062  -0.450  0.7117 -0.3703 -0.0210
  423MOL0     H55781   3.242  10.200  -0.654 -0.7717  0.7021  0.1210
  423MOL0     H55782   3.401  10.263  -0.611 -1.2256  2.3515 -0.1536
  423MOL0     H55783   3.231  10.429  -0.576  2.4281 -0.0407 -0.7088
  423MOL0     H55784   3.287  10.403  -0.417  1.4678 -0.8459 -0.6192
  423MOL0     H55785   3.066  10.223  -0.540  1.6245  1.1451 -1.2088
  423MOL0     H55786   3.085  10.255  -0.373 -0.7684 -0.3577  0.0692
  423MOL0     H55787   3.011  10.487  -0.572  2.5927 -0.2082  0.7612
  423MOL0     H55788   3.005  10.496  -0.405  0.8436 -0.6999 -1.1195
  423MOL0     H55789   2.758  10.511  -0.632  4.4890 -0.5579 -0.5840
  423MOL0     H55790   2.458  10.494  -0.520  0.2909  0.1991 -0.4191
  423MOL0     H55791   2.426  10.325  -0.478 -0.7868  1.4807  0.8000
  423MOL0     H55792   2.526  10.257  -0.710 -1.6138  0.1346 -1.0829
  423MOL0     H55793   2.547  10.435  -0.738 -0.9335  1.2468  1.6835
  423MOL0     H55794   2.278  10.300  -0.660 -1.3459 -0.0171 -0.3286
  423MOL0     H55795   2.302  10.456  -0.736 -0.7461 -0.7305 -2.3339
  423MOL0     H55796   2.332  10.172  -0.835  3.4281 -1.1371 -3.2159
  423MOL0     H55797   2.402  10.311  -0.928 -0.7071 -1.7082 -0.8653
  423MOL0     H55798   2.339  10.375  -1.132  0.9851  0.1117 -0.0026
  423MOL0     H55799   2.297  10.284  -1.362  1.5687 -4.2174 -0.4422
  423MOL0     H55800   2.328  10.065  -1.677 -0.5493  0.1457  1.1957
  423MOL0     H55801   2.300   9.945  -1.882  1.6127  0.0331  0.8938
  423MOL0     H55802   1.905   9.999  -2.093  0.1786 -0.3761 -2.6958
  423MOL0     H55803   1.902   9.849  -2.009  2.4661 -3.3428  0.0126
  423MOL0     H55804   2.026   9.904  -2.279 -1.1674  2.5057  1.0916
  423MOL0     H55805   1.869   9.802  -2.247  0.5726 -1.7871  0.0059
  423MOL0     H55806   1.982   9.613  -2.174 -0.4383  0.1878 -1.4167
  423MOL0     H55807   2.121   9.711  -2.120 -1.9002 -1.5636  2.3524
  423MOL0     H55808   2.079   9.644  -2.416  5.2336  0.4320 -4.1471
  423MOL0     H55809   2.231   9.695  -2.339  3.0272 -4.2588 -1.2901
  423MOL0     H55810   2.074   9.443  -2.312 -1.2560  2.6800 -1.9186
  423MOL0     H55811   2.213   9.493  -2.198 -0.8393 -1.6114  0.4390
  423MOL0     H55812   2.363   9.487  -2.398 -0.2328  0.7195  0.9052
  423MOL0     H55813   2.228   9.418  -2.492  1.3614  0.6677 -1.2063
  423MOL0     H55814   2.336   9.301  -2.234  1.2213 -0.5307  0.1044
  423MOL0     H55815   2.218   9.231  -2.351 -1.7287  1.7135 -0.0011
  423MOL0     H55816   2.387   9.251  -2.526 -0.3463  0.3929  0.6777
  423MOL0     H55817   2.412   9.131  -2.402 -1.3434 -0.1794 -0.0612
  423MOL0     H55818   1.901  10.104  -1.909 -0.6789  1.5319  0.0468
  423MOL0     H55819   1.933  10.220  -1.715 -1.1236 -0.3120 -0.2670
  423MOL0     H55820   1.952  10.082  -1.216  0.1102 -1.0480 -1.6429
  423MOL0     H55821   2.006  10.166  -0.976  2.1708 -0.1049  1.5445
  423MOL0     H55822   3.720  10.181   0.026  1.2140 -0.3935  0.1098
  423MOL0     H55823   3.735  10.203   0.283  0.6885 -0.2249  1.2330
  423MOL0     H55824   4.096  10.028   0.588  1.9499  2.3010  2.2607
  423MOL0     H55825   4.146  10.142   0.816  0.1204 -0.0888 -0.7150
  423MOL0     H55826   3.929  10.116   1.178 -3.4362 -0.8852  1.4837
  423MOL0     H55827   3.787  10.122   1.072 -0.9254  1.0149  2.3817
  423MOL0     H55828   3.761  10.361   1.097  1.3109  2.2999  1.4721
  423MOL0     H55829   3.761  10.253   1.242  0.3710 -2.6656 -1.4691
  423MOL0     H55830   4.002  10.415   1.146  0.7103 -0.0374  1.6266
  423MOL0     H55831   3.986  10.331   1.301 -0.5554 -2.4699 -1.4021
  423MOL0     H55832   3.945  10.524   1.393  1.6693  1.3266 -1.7755
  423MOL0     H55833   3.905  10.606   1.253  3.8178 -0.9904  0.7370
  423MOL0     H55834   3.516  10.481   1.389  0.1603  0.6401  1.0690
  423MOL0     H55835   3.741  10.263   0.842  0.9470  1.1514 -0.7101
  423MOL0     H55836   3.688  10.144   0.640 -0.8978  1.5593  1.6937
  424MOL0     O55837  10.993   7.512   9.499  0.8539  0.5947  0.2346
  424MOL0     C55838  11.049   7.518   9.606 -0.0481 -0.6899  0.0243
  424MOL0     O55839  10.994   7.579   9.722  0.4815  0.3026 -0.4982
  424MOL0     C55840  10.862   7.621   9.705 -0.6037 -0.1242 -0.8374
  424MOL0     C55841  10.759   7.532   9.730  0.3179  0.1742 -0.4988
  424MOL0     C55842  10.621   7.569   9.704  0.4318 -0.0711  0.2716
  424MOL0     C55843  10.595   7.684   9.633 -0.5323  0.1574  0.7793
  424MOL0     O55844  10.472   7.712   9.590  0.1897  0.4043  0.8344
  424MOL0     C55845  10.382   7.756   9.698 -0.4602  0.7913  0.2599
  424MOL0     C55846  10.251   7.684   9.677 -0.7551  0.7578  0.4705
  424MOL0     C55847  10.134   7.760   9.743 -0.0456 -0.4468 -1.4598
  424MOL0     C55848   9.999   7.709   9.693 -0.0646 -0.3851 -0.1997
  424MOL0     C55849   9.894   7.760   9.787  0.2125 -0.4447 -0.8344
  424MOL0     C55850   9.758   7.696   9.761  0.6913  0.8094 -0.1795
  424MOL0     C55851   9.652   7.738   9.864  0.4508  0.5275 -0.8683
  424MOL0     C55852   9.563   7.622   9.908 -0.1297 -0.8700  0.1875
  424MOL0     N55853   9.472   7.671  10.015 -0.6631  0.3860  0.8016
  424MOL0     C55854   9.368   7.750   9.999  0.4436  0.5133  0.9815
  424MOL0     C55855   9.304   7.740  10.115  0.8774 -0.2812 -0.5783
  424MOL0     C55856   9.187   7.817  10.161 -0.2807 -0.3948  0.5942
  424MOL0     C55857   9.060   7.754  10.104 -0.2343  0.0083  0.1242
  424MOL0     C55858   8.945   7.823  10.153  0.5418 -0.2112  0.2124
  424MOL0     C55859   8.815   7.806  10.069 -1.0612 -0.2440 -0.7634
  424MOL0     O55860   8.705   7.884  10.132  0.1975  0.3082 -0.5774
  424MOL0     C55861   8.577   7.881  10.079  0.0177 -0.3327 -0.2277
  424MOL0     C55862   8.547   7.833   9.955 -0.8716 -0.1279 -0.1591
  424MOL0     C55863   8.427   7.861   9.892  0.7850 -0.5996  0.2323
  424MOL0     C55864   8.318   7.899   9.972 -0.5556 -0.4562  0.4408
  424MOL0     C55865   8.176   7.895   9.921  0.7774 -0.0099  0.7022
  424MOL0     O55866   8.082   7.952  10.010  0.2016 -0.6963  0.2333
  424MOL0     C55867   7.944   7.957   9.978 -1.0996 -0.0050 -0.3312
  424MOL0     C55868   7.912   8.019   9.864 -0.3696  0.3022  1.1510
  424MOL0     C55869   7.775   8.036   9.831  0.3986  0.4248  0.4989
  424MOL0     C55870   7.670   7.998   9.919 -0.3476 -0.5069  0.3701
  424MOL0     O55871   7.543   8.019   9.880  0.4473 -0.0345 -0.7866
  424MOL0     C55872   7.431   7.997   9.978  0.2543 -0.2623 -0.3897
  424MOL0     C55873   7.305   8.068   9.921  0.4799  0.1059 -0.0290
  424MOL0     C55874   7.219   8.013   9.809  0.2186  0.2354 -0.4946
  424MOL0     C55875   7.165   7.869   9.843 -0.4623  0.7085  0.1109
  424MOL0     C55876   7.087   7.824   9.717  0.2905 -0.5924 -0.8203
  424MOL0     C55877   6.959   7.917   9.700  0.2749 -0.5519  0.1532
  424MOL0     C55878   6.836   7.827   9.681  1.3622 -0.5021 -0.7827
  424MOL0     C55879   6.789   7.747   9.804 -0.5177 -0.5626 -0.3346
  424MOL0    Cl55880   6.734   7.857   9.945  0.0251  0.7763 -0.2517
  424MOL0     C55881   7.713   7.938  10.041 -0.5710 -0.0695 -0.4760
  424MOL0     C55882   7.848   7.906  10.063 -1.6529 -0.0669  0.1567
  424MOL0     O55883   8.150   7.836   9.816 -0.0365  0.1924 -0.2645
  424MOL0     C55884   8.342   7.945  10.101 -0.6475  0.0238 -0.2331
  424MOL0     C55885   8.473   7.928  10.157 -0.6199 -0.4172 -0.0742
  424MOL0     N55886   9.349   7.631  10.185  0.1125 -0.7512 -0.2795
  424MOL0     N55887   9.459   7.596  10.133  0.4268 -0.0856  0.6427
  424MOL0     C55888  10.697   7.772   9.610 -0.6260  0.8968  0.5988
  424MOL0     C55889  10.834   7.743   9.644  0.6233 -0.4697  0.5432
  424MOL0     C55890  11.185   7.474   9.619 -0.2333  0.0427  0.1007
  424MOL0     C55891  11.245   7.479   9.746  0.2007  0.8005  0.7979
  424MOL0     C55892  11.379   7.452   9.759  0.1988 -1.0945  0.3851
  424MOL0     C55893  11.451   7.399   9.655  0.0832 -1.0101  0.7030
  424MOL0     O55894  11.577   7.358   9.692  0.1686 -0.1177 -0.4857
  424MOL0     C55895  11.649   7.265   9.611  0.0126  0.2545  0.7136
  424MOL0     C55896  11.768   7.237   9.695 -0.4358  0.4515  0.3180
  424MOL0     C55897  11.850   7.136   9.617 -0.1829 -0.1128 -0.5929
  424MOL0     C55898  11.980   7.109   9.683 -0.6048 -0.9554 -0.4788
  424MOL0     C55899  12.020   6.981   9.642  0.2491 -1.0280  0.3239
  424MOL0     C55900  12.053   6.874   9.605  0.5490 -0.7934  0.1072
  424MOL0     C55901  11.400   7.384   9.527 -0.5610  0.2682 -0.5560
  424MOL0     C55902  11.266   7.431   9.508 -0.2774  0.6718  0.0356
  424MOL0     H55903  10.766   7.436   9.780  0.8438 -0.2418 -1.3346
  424MOL0     H55904  10.538   7.501   9.721  0.3993  0.2823  1.6324
  424MOL0     H55905  10.367   7.864   9.688  1.4975  1.1255  0.5697
  424MOL0     H55906  10.418   7.725   9.796 -1.3172 -1.4308 -0.0814
  424MOL0     H55907  10.254   7.580   9.711 -1.9728  0.8658  0.9751
  424MOL0     H55908  10.237   7.675   9.568  0.2308  0.7871  0.3374
  424MOL0     H55909  10.136   7.866   9.717 -0.3010 -0.4608 -1.5367
  424MOL0     H55910  10.150   7.757   9.851  0.4305 -3.2207 -1.5264
  424MOL0     H55911   9.974   7.740   9.591 -2.7138  1.5553  0.9274
  424MOL0     H55912  10.005   7.600   9.701 -0.7021 -0.3262  1.5705
  424MOL0     H55913   9.867   7.865   9.769 -0.8761 -0.7464 -1.0800
  424MOL0     H55914   9.919   7.745   9.892 -2.2383  1.2917  0.1093
  424MOL0     H55915   9.782   7.590   9.774  0.1354  0.8198  1.0283
  424MOL0     H55916   9.721   7.704   9.659  2.9439 -3.0090 -1.5189
  424MOL0     H55917   9.698   7.777   9.955 -0.2226  0.9390 -0.6992
  424MOL0     H55918   9.594   7.819   9.819 -1.9503  2.3162  4.5349
  424MOL0     H55919   9.628   7.543   9.945  0.5522  0.3756  1.8030
  424MOL0     H55920   9.496   7.578   9.834 -0.0828  0.6817 -0.8411
  424MOL0     H55921   9.355   7.801   9.904 -0.6859 -1.4148  0.0344
  424MOL0     H55922   9.197   7.919  10.122  1.1276 -1.3543 -1.6782
  424MOL0     H55923   9.176   7.809  10.270  1.3713 -0.6939  0.7648
  424MOL0     H55924   9.055   7.647  10.126 -0.1934  0.2410  1.3009
  424MOL0     H55925   9.041   7.760   9.996 -3.0964 -2.1692  0.3919
  424MOL0     H55926   8.925   7.791  10.256 -0.9406 -2.1478 -0.5988
  424MOL0     H55927   8.962   7.931  10.155 -1.9898  0.2723 -0.3624
  424MOL0     H55928   8.784   7.701  10.063 -2.0074  0.0792 -1.9500
  424MOL0     H55929   8.843   7.840   9.969  0.8559  0.6362  0.0380
  424MOL0     H55930   8.619   7.795   9.883 -1.3537 -0.2385 -0.5910
  424MOL0     H55931   8.410   7.846   9.786  0.2251  3.0683 -0.3251
  424MOL0     H55932   7.990   8.067   9.805  1.7386  0.5814  3.9827
  424MOL0     H55933   7.756   8.086   9.737  0.3900  2.1606  1.3755
  424MOL0     H55934   7.454   8.057  10.066 -3.2857 -0.1915  0.6209
  424MOL0     H55935   7.406   7.895  10.010 -2.5651  0.4686  0.0059
  424MOL0     H55936   7.339   8.168   9.890  1.5924  0.0223  0.8821
  424MOL0     H55937   7.240   8.083  10.007  3.1029  1.9684  1.7942
  424MOL0     H55938   7.276   7.996   9.717 -0.3299 -2.0822 -0.4832
  424MOL0     H55939   7.145   8.090   9.787  1.8409  1.8918 -0.3727
  424MOL0     H55940   7.243   7.794   9.862 -1.9273 -1.5572 -2.1634
  424MOL0     H55941   7.111   7.882   9.936 -2.4171  3.6582 -1.2900
  424MOL0     H55942   7.063   7.717   9.722 -0.3431 -0.4193  0.0201
  424MOL0     H55943   7.148   7.832   9.627 -1.8570  2.6053 -2.1720
  424MOL0     H55944   6.977   7.965   9.603 -1.3239  1.0872  0.6284
  424MOL0     H55945   6.959   7.989   9.782 -0.1259  2.5888 -2.4102
  424MOL0     H55946   6.755   7.890   9.646  0.2499 -1.5237 -0.1134
  424MOL0     H55947   6.859   7.757   9.601  0.0845 -1.6271 -0.2136
  424MOL0     H55948   6.859   7.670   9.838 -0.3746 -0.0309  0.6023
  424MOL0     H55949   6.703   7.693   9.762 -1.4055 -0.0242  0.7229
  424MOL0     H55950   7.649   7.903  10.121 -1.0774  0.8685 -0.4528
  424MOL0     H55951   7.881   7.851  10.150 -0.8555  0.9728  0.5415
  424MOL0     H55952   8.266   7.985  10.168 -2.0123 -0.7550 -1.2671
  424MOL0     H55953   8.503   7.953  10.258  2.1097 -0.7298 -0.7446
  424MOL0     H55954  10.677   7.865   9.557 -2.2115  0.6535  0.7173
  424MOL0     H55955  10.907   7.810   9.599  1.9967 -2.2164  0.0528
  424MOL0     H55956  11.191   7.527   9.828 -1.7189 -2.4056  1.6136
  424MOL0     H55957  11.417   7.476   9.857  1.0693  0.9935 -0.4089
  424MOL0     H55958  11.683   7.322   9.525 -1.3133  0.4765  0.3056
  424MOL0     H55959  11.597   7.173   9.581  0.2649  0.3074  0.1112
  424MOL0     H55960  11.831   7.326   9.705 -1.6989  1.2701  1.3742
  424MOL0     H55961  11.746   7.203   9.797  1.2023  3.4387  1.8130
  424MOL0     H55962  11.878   7.176   9.519  0.5356 -0.7598 -0.6612
  424MOL0     H55963  11.789   7.047   9.597 -0.0606  0.4317 -3.7770
  424MOL0     H55964  12.058   7.170   9.638 -0.5465 -2.3974 -2.4810
  424MOL0     H55965  11.978   7.124   9.792 -0.6722  1.2606 -0.7407
  424MOL0     H55966  12.066   6.783   9.550 -0.4990  0.4813 -2.4119
  424MOL0     H55967  11.459   7.337   9.449 -0.3640 -2.0040  0.8513
  424MOL0     H55968  11.231   7.426   9.405  0.8556  2.2219 -0.4596
  425MOL0     O55969   6.689   1.618   8.866  0.3088 -0.0296 -0.2597
  425MOL0     C55970   6.724   1.660   8.756 -0.6810  1.0594  0.1770
  425MOL0     O55971   6.825   1.745   8.730  0.4248 -0.3463  0.5294
  425MOL0     C55972   6.902   1.779   8.842  0.6992 -0.2077 -0.3308
  425MOL0     C55973   7.032   1.729   8.864  0.4526  0.8095  0.7546
  425MOL0     C55974   7.115   1.767   8.976  0.0622 -0.4880  0.0077
  425MOL0     C55975   7.063   1.855   9.075 -0.4347  0.3085 -0.6268
  425MOL0     O55976   7.149   1.887   9.175  0.7345  0.0384 -0.4650
  425MOL0     C55977   7.093   1.851   9.303 -0.2896 -0.4563 -0.5558
  425MOL0     C55978   7.223   1.838   9.394  0.3319 -1.1603 -0.0049
  425MOL0     C55979   7.176   1.823   9.537 -0.0109  0.4745 -0.5712
  425MOL0     C55980   7.101   1.693   9.566  1.2540 -0.6127  0.1896
  425MOL0     C55981   7.155   1.619   9.684  0.7659  0.1596 -0.5201
  425MOL0     C55982   7.112   1.473   9.696 -1.0838 -0.0403  0.0347
  425MOL0     C55983   6.966   1.456   9.714  0.1636  0.1364 -0.3078
  425MOL0     C55984   6.922   1.314   9.731 -0.6005  0.0782  0.3897
  425MOL0     N55985   6.777   1.305   9.742 -0.6738  0.6369 -0.3142
  425MOL0     C55986   6.693   1.325   9.631  0.6774 -0.2369  0.2550
  425MOL0     C55987   6.572   1.311   9.689 -0.1669 -0.8315 -0.8198
  425MOL0     C55988   6.446   1.311   9.608 -0.2185 -0.5329  0.2375
  425MOL0     C55989   6.317   1.311   9.692 -0.3027  0.7905  0.5555
  425MOL0     C55990   6.296   1.433   9.779 -0.5913 -0.4527  0.5969
  425MOL0     C55991   6.152   1.449   9.837  0.7769  0.4725 -0.7514
  425MOL0     O55992   6.093   1.315   9.861 -0.4861 -0.4733  0.3183
  425MOL0     C55993   5.959   1.308   9.882  0.9441  0.1505 -0.2670
  425MOL0     C55994   5.861   1.358   9.798  0.6575  0.8354  0.4647
  425MOL0     C55995   5.725   1.341   9.820 -0.0479 -0.5206  0.6134
  425MOL0     C55996   5.683   1.280   9.940 -0.6980 -0.4665  0.2726
  425MOL0     C55997   5.543   1.263   9.966  0.3145 -0.2563  0.5221
  425MOL0     O55998   5.510   1.191  10.080 -0.7509  0.1562  0.1047
  425MOL0     C55999   5.379   1.163  10.104 -0.0659  0.2858  0.0860
  425MOL0     C56000   5.282   1.257  10.118  0.1677 -0.1372  0.1880
  425MOL0     C56001   5.140   1.227  10.139 -0.1783 -0.6459 -0.8174
  425MOL0     C56002   5.115   1.091  10.144  0.8057  0.2417 -1.1073
  425MOL0     O56003   4.984   1.046  10.152 -0.2158  0.5157 -0.2412
  425MOL0     C56004   4.896   1.116  10.243 -0.7884  0.5880  1.5847
  425MOL0     C56005   4.764   1.036  10.245  0.0970  1.1009 -0.6932
  425MOL0     C56006   4.673   1.094  10.353  1.2744  0.9747 -1.6026
  425MOL0     C56007   4.573   0.989  10.407 -0.3698 -0.2458 -1.2984
  425MOL0     C56008   4.478   1.053  10.513  0.4056 -0.6030  0.5266
  425MOL0     C56009   4.351   1.127  10.455 -0.4221  0.0319  0.4252
  425MOL0     C56010   4.224   1.039  10.452 -0.3087 -0.2317  0.5041
  425MOL0     C56011   4.128   1.118  10.362 -0.2680 -0.0668  0.0256
  425MOL0    Cl56012   3.985   1.008  10.319  0.0324  0.2094  0.0879
  425MOL0     C56013   5.216   0.992  10.144 -0.4443  0.5928 -0.3074
  425MOL0     C56014   5.350   1.038  10.129  0.5476  0.2787 -0.6156
  425MOL0     O56015   5.458   1.310   9.886 -0.3518 -0.1050 -0.0127
  425MOL0     C56016   5.783   1.228  10.022 -0.0201  0.0896 -1.1695
  425MOL0     C56017   5.919   1.230   9.996 -0.1282 -0.5609 -0.1424
  425MOL0     N56018   6.570   1.304   9.826  0.1058  0.6721 -0.1232
  425MOL0     N56019   6.699   1.297   9.856  0.3996 -0.6234  0.0518
  425MOL0     C56020   6.929   1.902   9.055  0.1895 -0.3195  0.0448
  425MOL0     C56021   6.855   1.865   8.940  0.9646 -1.3171  0.1731
  425MOL0     C56022   6.620   1.643   8.646  0.3676  0.3126 -0.2747
  425MOL0     C56023   6.628   1.692   8.525 -0.6002  0.4467  0.6654
  425MOL0     C56024   6.531   1.677   8.423  0.6552  1.0860  0.4697
  425MOL0     C56025   6.417   1.597   8.450  0.5201  0.2573  0.2707
  425MOL0     O56026   6.311   1.606   8.365 -0.1643  0.7485 -0.5666
  425MOL0     C56027   6.276   1.487   8.298  1.1762  1.3859  0.7669
  425MOL0     C56028   6.350   1.494   8.163 -0.3953  0.0561 -0.6818
  425MOL0     C56029   6.342   1.373   8.065 -0.0049 -0.8033  0.5128
  425MOL0     C56030   6.407   1.415   7.935 -0.0474 -0.5074  0.1731
  425MOL0     C56031   6.354   1.527   7.867 -0.1154 -0.3179  0.7122
  425MOL0     C56032   6.331   1.624   7.795  0.4911  0.7224  0.4319
  425MOL0     C56033   6.405   1.535   8.576  0.4527 -1.1289  0.1799
  425MOL0     C56034   6.508   1.567   8.674  0.3079  0.2416  0.4493
  425MOL0     H56035   7.067   1.672   8.779 -0.3944  1.7248 -0.2534
  425MOL0     H56036   7.218   1.740   8.995 -0.7817 -3.8666  0.4393
  425MOL0     H56037   7.044   1.753   9.301  1.0649 -1.1656 -3.0315
  425MOL0     H56038   7.033   1.933   9.343  0.6936  1.1906 -2.3162
  425MOL0     H56039   7.296   1.919   9.387  1.5707 -2.1376  1.1033
  425MOL0     H56040   7.271   1.744   9.365 -1.3011 -1.7557 -0.8864
  425MOL0     H56041   7.122   1.914   9.563  0.5373  0.6610 -0.0534
  425MOL0     H56042   7.267   1.817   9.597 -1.6888 -2.3575  1.9331
  425MOL0     H56043   6.995   1.714   9.582  1.5626 -0.8366  2.9960
  425MOL0     H56044   7.111   1.626   9.480  2.9717 -1.1164  0.7447
  425MOL0     H56045   7.132   1.673   9.776 -0.1498 -2.5350  0.9325
  425MOL0     H56046   7.264   1.626   9.672  0.9332 -2.2722 -0.9298
  425MOL0     H56047   7.168   1.414   9.770  0.6496 -1.1819 -2.0636
  425MOL0     H56048   7.139   1.419   9.605 -0.3852  0.3396  0.0092
  425MOL0     H56049   6.950   1.514   9.805 -1.7117 -2.6661  1.2848
  425MOL0     H56050   6.911   1.508   9.636  0.5973  1.2226  0.0976
  425MOL0     H56051   6.963   1.272   9.823  4.9930 -1.5000 -2.3651
  425MOL0     H56052   6.965   1.260   9.646  1.3857  1.4303  0.4621
  425MOL0     H56053   6.704   1.352   9.527 -4.0452  0.4706 -0.3019
  425MOL0     H56054   6.457   1.230   9.536 -0.4356  0.4723 -0.9445
  425MOL0     H56055   6.457   1.402   9.548 -2.3485  0.1795  0.8284
  425MOL0     H56056   6.316   1.227   9.762 -1.0906  0.1223 -0.2406
  425MOL0     H56057   6.232   1.302   9.624 -2.2402  2.7286  2.5355
  425MOL0     H56058   6.357   1.418   9.868 -1.3867 -2.2705  0.8866
  425MOL0     H56059   6.325   1.520   9.720  0.6551 -2.0421 -1.2660
  425MOL0     H56060   6.081   1.507   9.778  1.9427  2.0591 -0.6374
  425MOL0     H56061   6.152   1.505   9.931 -1.0123  2.6457 -1.9604
  425MOL0     H56062   5.891   1.413   9.709  2.4314  3.4672  2.5549
  425MOL0     H56063   5.652   1.381   9.750  0.3157  2.3345  1.7519
  425MOL0     H56064   5.305   1.362  10.108 -0.0858 -0.1924 -1.1593
  425MOL0     H56065   5.059   1.292  10.170 -2.4780 -3.4655 -0.4918
  425MOL0     H56066   4.880   1.217  10.205  3.2338  1.1458  0.9055
  425MOL0     H56067   4.955   1.127  10.335  0.0833 -0.5902  1.1958
  425MOL0     H56068   4.794   0.936  10.277  0.1472  1.2130 -0.3864
  425MOL0     H56069   4.717   1.022  10.148  0.7884 -3.1351 -0.5667
  425MOL0     H56070   4.622   1.185  10.319  2.2169  2.1746  0.0927
  425MOL0     H56071   4.738   1.120  10.436 -1.0819 -1.6979  1.3409
  425MOL0     H56072   4.512   0.946  10.328 -0.0333  2.6034 -3.2541
  425MOL0     H56073   4.613   0.912  10.474 -3.4166  2.1944  3.9937
  425MOL0     H56074   4.532   1.114  10.585 -1.1900  1.6391 -0.0817
  425MOL0     H56075   4.450   0.966  10.574  1.4354 -1.5680 -0.3414
  425MOL0     H56076   4.381   1.149  10.352 -1.7626  0.3215  0.0797
  425MOL0     H56077   4.333   1.222  10.505  2.1740  0.6224  0.3831
  425MOL0     H56078   4.237   0.940  10.407  0.0933 -0.7388  1.7036
  425MOL0     H56079   4.182   1.024  10.552  2.2224  3.2208  2.2791
  425MOL0     H56080   4.172   1.172  10.277  0.9249 -1.2619 -0.1589
  425MOL0     H56081   4.098   1.190  10.439  0.7650  0.7908 -0.3344
  425MOL0     H56082   5.199   0.886  10.164  1.2731  0.6593  1.8683
  425MOL0     H56083   5.421   0.956  10.124  0.4645  0.1768 -0.1599
  425MOL0     H56084   5.757   1.174  10.112  1.2910  1.3280 -0.0035
  425MOL0     H56085   5.994   1.176  10.053 -1.8285 -0.6161  2.2043
  425MOL0     H56086   6.870   1.968   9.117 -1.0281  0.7326 -2.1348
  425MOL0     H56087   6.760   1.911   8.918  0.8507 -1.0545  1.1469
  425MOL0     H56088   6.709   1.760   8.498 -0.1744 -0.3711 -0.1786
  425MOL0     H56089   6.539   1.716   8.323 -1.3189 -2.4016 -1.2455
  425MOL0     H56090   6.168   1.503   8.285  1.4831  2.7199 -0.5086
  425MOL0     H56091   6.303   1.393   8.345  0.3275  1.2395  0.9810
  425MOL0     H56092   6.313   1.584   8.113  0.5125  0.9866  0.2790
  425MOL0     H56093   6.454   1.489   8.196 -0.5643 -0.1343 -0.1781
  425MOL0     H56094   6.237   1.345   8.051 -0.5166  0.6973  1.1102
  425MOL0     H56095   6.401   1.297   8.116  0.2525 -0.6303  0.4758
  425MOL0     H56096   6.515   1.433   7.938 -0.4003  1.6271  1.4477
  425MOL0     H56097   6.403   1.332   7.863  2.4573  2.1922 -3.4065
  425MOL0     H56098   6.321   1.720   7.748  0.6567  2.1314  3.0825
  425MOL0     H56099   6.322   1.472   8.605 -1.4388  0.2801 -1.8303
  425MOL0     H56100   6.500   1.530   8.776 -1.4134  2.7079  1.2809
  426MOL0     O56101   0.456   5.364   5.722 -0.1339  0.6877 -0.1484
  426MOL0     C56102   0.408   5.421   5.624  0.4849  0.3625  0.2413
  426MOL0     O56103   0.283   5.391   5.567 -0.5491  0.0548  0.0088
  426MOL0     C56104   0.211   5.285   5.623 -0.0777 -0.1863  0.5237
  426MOL0     C56105   0.194   5.273   5.753  1.0031 -0.8163 -0.6720
  426MOL0     C56106   0.115   5.164   5.809 -0.2513 -0.5406  0.7716
  426MOL0     C56107   0.060   5.073   5.721 -0.7330 -0.1213  0.1385
  426MOL0     O56108  -0.023   4.974   5.754  0.2260  0.0922 -0.0536
  426MOL0     C56109  -0.102   4.985   5.884 -0.7364  0.4098  0.4940
  426MOL0     C56110  -0.212   4.881   5.892 -0.0218  0.2129  0.7190
  426MOL0     C56111  -0.288   4.893   6.018 -0.3889  0.3729 -0.0281
  426MOL0     C56112  -0.390   4.786   6.029  0.0318  0.2893  0.4118
  426MOL0     C56113  -0.492   4.821   6.137 -0.1038 -0.3347 -0.4616
  426MOL0     C56114  -0.571   4.703   6.178  0.8773  0.8356  0.1517
  426MOL0     C56115  -0.674   4.648   6.080  0.6300 -0.5626  0.1177
  426MOL0     C56116  -0.812   4.708   6.108 -0.7607  0.0122  0.1754
  426MOL0     N56117  -0.881   4.682   6.233 -0.0625 -0.3581  1.1595
  426MOL0     C56118  -0.979   4.582   6.250 -0.2542 -0.1915  0.4363
  426MOL0     C56119  -1.032   4.600   6.371  0.6060 -0.0539  0.1540
  426MOL0     C56120  -1.133   4.506   6.452 -0.6269  1.0780  0.1655
  426MOL0     C56121  -1.221   4.580   6.551 -0.3362  0.3956  0.3798
  426MOL0     C56122  -1.164   4.563   6.692 -0.6987  0.8778 -0.4590
  426MOL0     C56123  -1.173   4.418   6.753  0.1875  0.0570  0.1333
  426MOL0     O56124  -1.287   4.349   6.707 -0.1857 -0.5960 -0.2097
  426MOL0     C56125  -1.408   4.411   6.739 -0.1665 -0.4829 -0.0452
  426MOL0     C56126  -1.434   4.475   6.862 -0.2190  0.1079 -0.6337
  426MOL0     C56127  -1.561   4.535   6.881  0.8953 -0.3311  0.0272
  426MOL0     C56128  -1.654   4.536   6.769  0.8309  0.5087 -0.0561
  426MOL0     C56129  -1.773   4.611   6.780  0.5171 -0.2489  0.7031
  426MOL0     O56130  -1.786   4.682   6.892  0.5889  0.6195 -0.3521
  426MOL0     C56131  -1.900   4.756   6.903  0.9469  0.2900 -0.5777
  426MOL0     C56132  -2.027   4.697   6.907 -0.7362 -0.0149  0.0662
  426MOL0     C56133  -2.134   4.775   6.951 -0.5558  0.2972 -0.2687
  426MOL0     C56134  -2.119   4.909   6.995  0.3530 -0.3185 -0.2721
  426MOL0     O56135  -2.214   4.980   7.059  0.3360  1.0881  0.4254
  426MOL0     C56136  -2.332   4.988   6.982 -0.3231  0.6903 -0.2559
  426MOL0     C56137  -2.424   5.097   7.044  0.0762  0.1487  0.9649
  426MOL0     C56138  -2.356   5.233   7.028  0.0290  0.0113  0.4015
  426MOL0     C56139  -2.451   5.351   7.063  0.5267  0.0239 -0.9101
  426MOL0     C56140  -2.545   5.398   6.948 -0.8501  0.3131  0.7898
  426MOL0     C56141  -2.644   5.505   6.992  0.6643 -0.5846 -0.5028
  426MOL0     C56142  -2.748   5.538   6.886  0.2868  0.0266  0.6913
  426MOL0     C56143  -2.851   5.419   6.861 -0.0323 -0.0098 -0.0364
  426MOL0    Cl56144  -2.994   5.488   6.784  0.3628 -0.0886 -0.1451
  426MOL0     C56145  -1.995   4.970   6.967 -0.8232  0.1441 -0.0703
  426MOL0     C56146  -1.886   4.895   6.935 -0.0211  0.3410 -0.4354
  426MOL0     O56147  -1.857   4.602   6.686  0.0324 -0.1054  0.5858
  426MOL0     C56148  -1.630   4.471   6.652 -0.5874 -0.2335 -0.3295
  426MOL0     C56149  -1.503   4.407   6.636  0.1774  0.2048  0.1268
  426MOL0     N56150  -0.960   4.706   6.433  0.0593 -0.0130 -0.0272
  426MOL0     N56151  -0.879   4.759   6.340 -0.0940  0.4236 -0.1819
  426MOL0     C56152   0.090   5.076   5.584 -0.1688  0.1982 -0.3387
  426MOL0     C56153   0.161   5.191   5.530  0.3386  1.2985  0.6417
  426MOL0     C56154   0.502   5.498   5.552 -0.7451 -0.0369 -0.3309
  426MOL0     C56155   0.584   5.589   5.615  0.1641  0.6016 -0.7376
  426MOL0     C56156   0.695   5.653   5.561  0.6693  0.5177 -0.3020
  426MOL0     C56157   0.726   5.630   5.429 -0.4545  1.3399  0.0934
  426MOL0     O56158   0.830   5.684   5.362 -0.1347 -0.0867 -0.1458
  426MOL0     C56159   0.926   5.770   5.421  0.7274 -0.0405 -0.9912
  426MOL0     C56160   1.041   5.821   5.330  0.6828  0.9813 -0.6227
  426MOL0     C56161   1.181   5.779   5.372  1.0948  0.1471  0.7593
  426MOL0     C56162   1.279   5.782   5.259 -0.0184 -0.4512 -0.3302
  426MOL0     C56163   1.314   5.917   5.210  0.1301  0.0856  0.2747
  426MOL0     C56164   1.330   6.026   5.161 -0.1116 -0.1699 -0.2352
  426MOL0     C56165   0.646   5.538   5.358 -0.2444  0.0990 -0.9767
  426MOL0     C56166   0.538   5.477   5.419 -0.7073  0.0009  0.5208
  426MOL0     H56167   0.220   5.357   5.816  0.0505  0.1302 -1.5019
  426MOL0     H56168   0.081   5.163   5.912  0.4697  0.8171  1.0456
  426MOL0     H56169  -0.163   5.075   5.878  1.2017  1.7437  0.1184
  426MOL0     H56170  -0.043   5.000   5.975  0.8108 -0.9881 -0.2080
  426MOL0     H56171  -0.164   4.783   5.891 -1.0067 -0.2722  0.1589
  426MOL0     H56172  -0.280   4.886   5.806  1.3544 -1.0771 -0.4937
  426MOL0     H56173  -0.342   4.989   6.013 -3.2478 -1.0275  1.4735
  426MOL0     H56174  -0.225   4.887   6.107 -1.1722 -3.4903  0.4140
  426MOL0     H56175  -0.446   4.779   5.936 -3.1652  3.3712  1.8608
  426MOL0     H56176  -0.340   4.696   6.066  0.4338  1.3223  2.5851
  426MOL0     H56177  -0.548   4.905   6.095  0.5132  0.5215  0.3925
  426MOL0     H56178  -0.441   4.862   6.225  1.0197  1.2334 -1.7860
  426MOL0     H56179  -0.625   4.717   6.272  1.2072 -0.0440  0.4845
  426MOL0     H56180  -0.498   4.625   6.205 -0.2295 -0.2096  0.2309
  426MOL0     H56181  -0.645   4.656   5.975  0.8270 -3.6294 -0.1363
  426MOL0     H56182  -0.668   4.544   6.112 -2.4323 -1.0490 -0.5712
  426MOL0     H56183  -0.878   4.666   6.031 -0.6316  0.6633 -0.3036
  426MOL0     H56184  -0.799   4.817   6.101 -0.8338  0.1312  1.7022
  426MOL0     H56185  -1.005   4.505   6.178  2.2080 -1.4167  0.7317
  426MOL0     H56186  -1.076   4.426   6.500  0.4573  2.3135  1.0080
  426MOL0     H56187  -1.198   4.454   6.382  0.3543  0.9284 -0.6651
  426MOL0     H56188  -1.327   4.554   6.545 -0.2512  0.4812 -3.2300
  426MOL0     H56189  -1.225   4.684   6.517 -0.2737  0.9025  1.8297
  426MOL0     H56190  -1.062   4.602   6.697  1.5208 -3.6274 -3.3921
  426MOL0     H56191  -1.227   4.630   6.752 -0.4510  0.6376  0.0732
  426MOL0     H56192  -1.164   4.431   6.861  2.6907  0.1041 -0.0263
  426MOL0     H56193  -1.085   4.360   6.726  0.1385 -0.6768  1.4627
  426MOL0     H56194  -1.364   4.486   6.944  0.2606 -0.4850 -0.9458
  426MOL0     H56195  -1.589   4.587   6.971 -2.6767  1.1936 -1.7858
  426MOL0     H56196  -2.045   4.593   6.877 -2.0665  0.4542 -0.8950
  426MOL0     H56197  -2.226   4.721   6.970  0.2049 -1.3895 -1.1873
  426MOL0     H56198  -2.396   4.900   6.990 -0.0761  0.5815  0.6015
  426MOL0     H56199  -2.309   5.016   6.879  0.2732 -1.4767 -0.7613
  426MOL0     H56200  -2.441   5.078   7.151 -3.4968  2.1480  0.9139
  426MOL0     H56201  -2.524   5.107   7.000  1.4237  0.1970 -2.3434
  426MOL0     H56202  -2.329   5.246   6.923 -1.1557  0.1269  0.0980
  426MOL0     H56203  -2.278   5.236   7.105 -3.5819  0.7480  4.4464
  426MOL0     H56204  -2.512   5.321   7.149  0.9878 -0.8590 -0.8780
  426MOL0     H56205  -2.392   5.437   7.097 -1.3673  0.9907  0.0998
  426MOL0     H56206  -2.602   5.308   6.924  1.1820 -1.6940  2.9525
  426MOL0     H56207  -2.478   5.435   6.869 -0.8402  0.0745  0.6866
  426MOL0     H56208  -2.583   5.593   7.010 -1.1026  0.2938  1.6989
  426MOL0     H56209  -2.701   5.483   7.083 -0.1003  0.1375 -0.7943
  426MOL0     H56210  -2.799   5.630   6.917 -1.5473 -1.4126  2.1703
  426MOL0     H56211  -2.711   5.558   6.785 -3.9288  1.1826 -0.8576
  426MOL0     H56212  -2.879   5.367   6.953  2.5373 -0.7433  0.4253
  426MOL0     H56213  -2.808   5.344   6.794 -0.9553 -0.1108 -0.5372
  426MOL0     H56214  -1.977   5.074   6.992  0.5027  0.0652 -0.6424
  426MOL0     H56215  -1.790   4.944   6.930 -0.3023  1.1433  1.2266
  426MOL0     H56216  -1.706   4.467   6.575 -1.2466 -3.3176  0.3340
  426MOL0     H56217  -1.490   4.365   6.536  3.4651 -0.8275  0.8393
  426MOL0     H56218   0.058   4.998   5.515 -3.1401  3.8062 -3.5319
  426MOL0     H56219   0.183   5.193   5.424 -2.9680  0.4518 -0.1711
  426MOL0     H56220   0.572   5.602   5.722 -1.2118  1.1216 -0.9436
  426MOL0     H56221   0.751   5.724   5.622 -1.3105  1.8297  0.0706
  426MOL0     H56222   0.949   5.727   5.518 -3.2379 -0.4775 -0.0840
  426MOL0     H56223   0.890   5.866   5.460  1.5331 -0.0174 -0.2790
  426MOL0     H56224   1.025   5.776   5.231  1.6041 -1.6537  0.3391
  426MOL0     H56225   1.039   5.929   5.313 -2.9000  1.6032  2.4057
  426MOL0     H56226   1.186   5.682   5.423 -0.0698  0.0506  0.7278
  426MOL0     H56227   1.203   5.850   5.453  0.0426  1.9878 -0.4980
  426MOL0     H56228   1.365   5.725   5.296  0.1703 -0.2276 -0.4254
  426MOL0     H56229   1.247   5.731   5.167  4.1832 -2.0630 -1.1560
  426MOL0     H56230   1.349   6.115   5.105 -1.3772 -0.7277 -1.5964
  426MOL0     H56231   0.683   5.517   5.259 -1.3183  0.7959 -1.5422
  426MOL0     H56232   0.475   5.413   5.357  1.9462 -1.1976 -1.1319
  427MOL0     O56233   4.398   6.578   5.270  0.0155 -0.1328 -0.5063
  427MOL0     C56234   4.282   6.635   5.267 -0.4585  0.1514 -0.5275
  427MOL0     O56235   4.213   6.689   5.370  0.2017  0.1532 -0.5971
  427MOL0     C56236   4.261   6.673   5.495 -0.0887  0.1078 -0.6574
  427MOL0     C56237   4.179   6.629   5.600 -0.3983 -0.1616  0.0530
  427MOL0     C56238   4.241   6.615   5.735 -0.4154  0.5043  0.1150
  427MOL0     C56239   4.363   6.667   5.766  0.2907 -0.1488  0.1427
  427MOL0     O56240   4.416   6.650   5.891 -0.5064 -0.4246  0.7750
  427MOL0     C56241   4.425   6.523   5.946  0.6040 -0.0439  0.0829
  427MOL0     C56242   4.553   6.507   6.015  0.8060 -1.6055  1.0814
  427MOL0     C56243   4.558   6.387   6.102  0.3775 -0.3039 -0.4388
  427MOL0     C56244   4.692   6.364   6.168  0.4895  0.1450  0.1545
  427MOL0     C56245   4.710   6.241   6.253 -0.1004  0.3589  0.7538
  427MOL0     C56246   4.848   6.212   6.301 -0.2116  0.8139 -0.8753
  427MOL0     C56247   4.957   6.208   6.182  0.2781  0.4148 -1.1122
  427MOL0     C56248   4.945   6.075   6.104  0.7516 -0.0924  0.3668
  427MOL0     N56249   5.076   6.037   6.059 -0.0208  0.5459  0.5437
  427MOL0     C56250   5.133   6.080   5.941  1.2213 -0.2474  0.5390
  427MOL0     C56251   5.254   6.023   5.924  1.2552  0.7596 -0.3120
  427MOL0     C56252   5.369   6.028   5.824  0.4028 -0.4313 -0.0603
  427MOL0     C56253   5.329   6.043   5.676  0.2725 -0.0460  0.0054
  427MOL0     C56254   5.267   5.916   5.612 -0.3002 -0.3846 -0.0626
  427MOL0     C56255   5.201   5.940   5.475  0.5451 -0.1519 -0.0181
  427MOL0     O56256   5.145   5.811   5.437  0.2500  0.7100 -0.9641
  427MOL0     C56257   5.071   5.799   5.321  0.2326 -0.0752  0.1373
  427MOL0     C56258   5.048   5.904   5.231 -0.2545  0.2125 -0.0244
  427MOL0     C56259   4.965   5.891   5.121  0.5701 -0.4231  0.0838
  427MOL0     C56260   4.893   5.774   5.094 -0.1256  0.2435 -0.2416
  427MOL0     C56261   4.810   5.775   4.977  0.6213  0.6017  0.1775
  427MOL0     O56262   4.804   5.885   4.898  0.0715 -0.4694  0.1904
  427MOL0     C56263   4.688   5.909   4.827  0.7779  0.3896  1.0983
  427MOL0     C56264   4.570   5.840   4.840  0.4469 -0.7387  0.2276
  427MOL0     C56265   4.455   5.869   4.764  0.1537  0.2011  0.2511
  427MOL0     C56266   4.462   5.967   4.657  0.5070 -0.3653  0.3094
  427MOL0     O56267   4.357   5.977   4.574 -0.0346 -0.1826  0.3294
  427MOL0     C56268   4.301   6.111   4.552 -0.1532 -1.0295 -0.5198
  427MOL0     C56269   4.178   6.103   4.466  0.1707  1.4372 -0.3733
  427MOL0     C56270   4.209   6.067   4.316  0.6285 -0.5993 -0.2677
  427MOL0     C56271   4.087   6.018   4.224 -0.4602 -0.0844 -0.1418
  427MOL0     C56272   4.136   6.016   4.086 -0.1977 -0.4275  0.2644
  427MOL0     C56273   4.039   5.941   4.002 -0.2997 -0.2345 -0.4585
  427MOL0     C56274   4.066   5.959   3.854 -0.0703  0.1813  1.1099
  427MOL0     C56275   3.958   5.887   3.777  0.7839  0.3234  0.8343
  427MOL0    Cl56276   3.973   5.709   3.808  0.2665  0.7895  0.6373
  427MOL0     C56277   4.576   6.042   4.651 -0.4013  0.9974  0.3982
  427MOL0     C56278   4.688   6.015   4.734  0.7194 -0.2974 -0.1892
  427MOL0     O56279   4.763   5.662   4.947  0.0168  0.3079 -0.0522
  427MOL0     C56280   4.901   5.668   5.188  0.0251  0.2137 -1.4395
  427MOL0     C56281   4.998   5.680   5.295  0.1284 -0.8792 -0.4872
  427MOL0     N56282   5.268   5.946   6.045  0.0728  0.1899 -0.7761
  427MOL0     N56283   5.158   5.942   6.121  0.2032 -0.7429  0.6704
  427MOL0     C56284   4.435   6.725   5.663 -0.1695 -0.1916  0.0900
  427MOL0     C56285   4.384   6.726   5.527 -0.0044 -0.1600 -0.5029
  427MOL0     C56286   4.232   6.652   5.126 -0.1670  0.7604  0.5990
  427MOL0     C56287   4.278   6.557   5.026  0.5828  0.4668 -0.2922
  427MOL0     C56288   4.207   6.548   4.902  0.1705  0.8912  0.6150
  427MOL0     C56289   4.090   6.623   4.882  0.7512  1.1239  0.1561
  427MOL0     O56290   4.005   6.606   4.772 -0.1790  0.3083 -0.0231
  427MOL0     C56291   3.879   6.675   4.759  0.1498 -0.8149 -0.2132
  427MOL0     C56292   3.914   6.810   4.694 -0.3215  0.1941 -0.6535
  427MOL0     C56293   3.792   6.910   4.685  0.1294 -0.4386  0.5887
  427MOL0     C56294   3.738   6.963   4.813 -0.7865  0.4877  0.3217
  427MOL0     C56295   3.648   7.080   4.797 -0.9122  0.1496 -0.1225
  427MOL0     C56296   3.579   7.173   4.762  0.6508 -0.3158 -0.0053
  427MOL0     C56297   4.050   6.711   4.984  0.5446 -0.0220 -0.2470
  427MOL0     C56298   4.118   6.725   5.103  0.5844  0.7299 -0.2504
  427MOL0     H56299   4.075   6.603   5.582  0.0146 -2.4217  0.6046
  427MOL0     H56300   4.180   6.573   5.814 -1.5784  0.4942 -0.7494
  427MOL0     H56301   4.416   6.447   5.868 -1.1929 -2.9010  2.8008
  427MOL0     H56302   4.348   6.505   6.022 -1.9846  1.4056 -2.0258
  427MOL0     H56303   4.569   6.599   6.071 -0.6091  0.0701 -1.0698
  427MOL0     H56304   4.634   6.501   5.942  0.9852 -3.2230  1.3731
  427MOL0     H56305   4.541   6.301   6.036 -1.3732  0.9323 -1.6955
  427MOL0     H56306   4.487   6.395   6.185 -3.2995  1.8188 -3.4771
  427MOL0     H56307   4.762   6.370   6.084 -1.9235  1.1030 -1.9215
  427MOL0     H56308   4.722   6.441   6.239  1.6833 -1.6177  1.6590
  427MOL0     H56309   4.676   6.151   6.201  0.7891  1.6870 -2.3700
  427MOL0     H56310   4.648   6.256   6.342  1.0921  0.3257  1.6141
  427MOL0     H56311   4.852   6.115   6.352  1.3678  0.5233 -1.4931
  427MOL0     H56312   4.888   6.288   6.369  3.5198 -1.8869  0.2935
  427MOL0     H56313   4.949   6.289   6.109 -0.2220  0.6282 -0.8173
  427MOL0     H56314   5.053   6.205   6.236  1.1173 -0.2698 -2.5634
  427MOL0     H56315   4.888   6.093   6.012 -0.0364 -0.4387  0.7788
  427MOL0     H56316   4.905   5.996   6.169 -1.9367 -1.3524 -2.5442
  427MOL0     H56317   5.089   6.156   5.877  0.5877  0.1342  1.3996
  427MOL0     H56318   5.435   5.942   5.839  0.4101 -0.9402 -2.4711
  427MOL0     H56319   5.436   6.112   5.847  1.5557 -1.9875  2.7118
  427MOL0     H56320   5.416   6.058   5.612 -0.0072  2.9442  0.1916
  427MOL0     H56321   5.257   6.125   5.670  0.4718  0.1240 -0.0399
  427MOL0     H56322   5.340   5.836   5.600 -1.2412 -1.4789  1.1770
  427MOL0     H56323   5.196   5.878   5.686 -2.6143  0.8996 -1.4834
  427MOL0     H56324   5.274   5.975   5.401  1.8565 -2.4618  0.1093
  427MOL0     H56325   5.129   6.021   5.491  1.1285  0.2966  0.3965
  427MOL0     H56326   5.091   6.003   5.237 -0.0383  0.6099 -4.5674
  427MOL0     H56327   4.960   5.971   5.047  1.2863 -3.6351 -3.7761
  427MOL0     H56328   4.556   5.746   4.893 -1.4498 -1.9393 -2.1617
  427MOL0     H56329   4.366   5.807   4.777  0.0689  0.1568 -0.4889
  427MOL0     H56330   4.371   6.185   4.513 -1.0394  0.5938  0.8491
  427MOL0     H56331   4.272   6.149   4.651  1.8048 -0.3892 -0.1354
  427MOL0     H56332   4.117   6.194   4.462 -2.5960 -0.3322 -3.3214
  427MOL0     H56333   4.108   6.026   4.502  0.0366 -0.0483 -3.4937
  427MOL0     H56334   4.285   5.988   4.320  1.2609  0.0432  2.3930
  427MOL0     H56335   4.266   6.146   4.266  1.3234 -1.8333 -1.4902
  427MOL0     H56336   4.037   5.927   4.260 -2.3815 -0.4062 -3.2729
  427MOL0     H56337   4.009   6.094   4.233  1.6556  2.0925  1.0044
  427MOL0     H56338   4.233   5.965   4.089  0.2116  0.0923 -2.1401
  427MOL0     H56339   4.146   6.120   4.054  3.1735 -0.5559  0.4841
  427MOL0     H56340   3.937   5.967   4.028  0.1196  0.2057  0.8047
  427MOL0     H56341   4.041   5.838   4.038  0.9289 -0.9600 -2.4192
  427MOL0     H56342   4.052   6.066   3.835 -0.2838  0.0270  0.3778
  427MOL0     H56343   4.165   5.917   3.835  1.2233  1.6570  3.9639
  427MOL0     H56344   3.966   5.886   3.668  1.1627  0.3196  0.8589
  427MOL0     H56345   3.858   5.923   3.802 -0.2487  1.3126 -3.7832
  427MOL0     H56346   4.566   6.123   4.580  0.8233  0.0664 -0.8777
  427MOL0     H56347   4.776   6.073   4.708  0.1694  1.2337  1.1632
  427MOL0     H56348   4.847   5.574   5.192 -0.8095  0.7081 -0.4332
  427MOL0     H56349   5.003   5.596   5.363 -1.7119 -2.3207 -2.0293
  427MOL0     H56350   4.540   6.750   5.677 -0.6432  1.7777  0.4982
  427MOL0     H56351   4.455   6.774   5.461 -2.5299  1.2931 -2.3440
  427MOL0     H56352   4.372   6.507   5.043  0.3842 -0.3405 -1.4665
  427MOL0     H56353   4.244   6.480   4.827 -2.6807 -1.8425  1.4630
  427MOL0     H56354   3.822   6.685   4.852 -1.9529 -3.4013 -1.0918
  427MOL0     H56355   3.805   6.624   4.697  0.5624 -1.5003 -0.1588
  427MOL0     H56356   3.994   6.852   4.755 -0.7531 -0.2267  0.2250
  427MOL0     H56357   3.953   6.788   4.594  2.3208  0.5787  0.2360
  427MOL0     H56358   3.710   6.854   4.639 -2.5950  1.6040  2.6598
  427MOL0     H56359   3.829   6.995   4.626  2.5114 -1.7918  0.0301
  427MOL0     H56360   3.689   6.884   4.870 -1.3959 -0.5918 -1.5998
  427MOL0     H56361   3.825   7.000   4.868 -1.3667  1.0947  0.8503
  427MOL0     H56362   3.523   7.262   4.743 -0.9205 -1.3768 -0.5558
  427MOL0     H56363   3.963   6.775   4.985  0.6041  0.0807  1.5175
  427MOL0     H56364   4.082   6.795   5.178  3.4267  2.4929 -0.3432
  428MOL0     O56365   9.182   9.466   1.952  0.4554  0.2196  0.0219
  428MOL0     C56366   9.221   9.583   1.940  0.9319 -0.5907 -1.0602
  428MOL0     O56367   9.150   9.695   1.896 -0.3915  0.0860 -0.2931
  428MOL0     C56368   9.017   9.689   1.893  0.0003 -0.2674 -0.2649
  428MOL0     C56369   8.952   9.752   1.788 -0.4111  0.3608  0.4880
  428MOL0     C56370   8.812   9.749   1.771 -0.3531  0.7467  0.4656
  428MOL0     C56371   8.734   9.678   1.865  0.1718  0.6083 -0.2371
  428MOL0     O56372   8.594   9.672   1.865 -0.2180 -0.7704 -0.2707
  428MOL0     C56373   8.522   9.704   1.743 -0.4429 -0.3569 -0.1257
  428MOL0     C56374   8.376   9.662   1.741  0.6615 -0.9584 -1.0095
  428MOL0     C56375   8.315   9.665   1.596  0.1739 -0.5630 -0.6013
  428MOL0     C56376   8.342   9.545   1.514  0.0245  0.5196 -0.1980
  428MOL0     C56377   8.288   9.558   1.367  0.8389  0.6014  0.1401
  428MOL0     C56378   8.219   9.429   1.326 -0.6761 -0.2198  0.4693
  428MOL0     C56379   8.089   9.411   1.410  0.0749 -0.1755  0.1146
  428MOL0     C56380   7.973   9.492   1.346  0.6696  0.7719 -0.0064
  428MOL0     N56381   7.854   9.493   1.437 -0.7100 -0.2094 -0.1668
  428MOL0     C56382   7.836   9.600   1.523 -0.3460  0.7687  0.5972
  428MOL0     C56383   7.727   9.561   1.598 -0.6072  0.3656 -0.1187
  428MOL0     C56384   7.663   9.660   1.690 -1.1886 -0.1085 -0.3578
  428MOL0     C56385   7.518   9.709   1.654  0.2011  0.2369  0.0259
  428MOL0     C56386   7.474   9.814   1.752  0.6971 -0.3152  0.3360
  428MOL0     C56387   7.328   9.825   1.755  0.2115  0.2519  0.3774
  428MOL0     O56388   7.264   9.845   1.628  0.3856  0.3176  0.1317
  428MOL0     C56389   7.139   9.906   1.635 -0.2131  0.7717  0.5395
  428MOL0     C56390   7.090   9.920   1.512 -0.5900  0.2977  1.0639
  428MOL0     C56391   6.983  10.004   1.483 -0.6406  0.1766  0.6507
  428MOL0     C56392   6.917  10.076   1.594 -0.3372 -1.0519 -0.2134
  428MOL0     C56393   6.807  10.173   1.565 -0.5916 -0.5644 -0.2450
  428MOL0     O56394   6.725  10.209   1.667  0.0511 -0.3381 -0.4360
  428MOL0     C56395   6.636  10.311   1.659  1.0390  0.0912  0.4145
  428MOL0     C56396   6.497  10.286   1.675  0.5148 -0.3210 -0.0128
  428MOL0     C56397   6.413  10.401   1.662 -0.3124  0.1403 -1.2639
  428MOL0     C56398   6.462  10.532   1.667 -0.3859 -0.3618 -0.2256
  428MOL0     O56399   6.384  10.642   1.663  0.1868  0.0513 -0.1090
  428MOL0     C56400   6.250  10.630   1.605  1.2256 -0.1855  0.6438
  428MOL0     C56401   6.192  10.775   1.591 -0.5932  0.5346  0.3671
  428MOL0     C56402   6.062  10.758   1.512  0.2788  0.2490 -0.1416
  428MOL0     C56403   5.956  10.689   1.600 -0.1125  0.0297  0.8532
  428MOL0     C56404   5.813  10.736   1.562  0.6365  0.4833  0.0688
  428MOL0     C56405   5.698  10.673   1.655 -0.6173 -0.6469  0.2812
  428MOL0     C56406   5.562  10.693   1.586 -0.7795  0.4154  0.1189
  428MOL0     C56407   5.447  10.646   1.680 -0.9340  0.4787 -0.0189
  428MOL0    Cl56408   5.296  10.736   1.638 -0.3014  0.1451  0.4638
  428MOL0     C56409   6.597  10.556   1.658 -0.2872 -0.2683 -0.2120
  428MOL0     C56410   6.681  10.443   1.641  0.0035 -0.5832  0.7873
  428MOL0     O56411   6.793  10.203   1.451 -0.0120  0.5167 -0.5503
  428MOL0     C56412   6.968  10.049   1.724 -0.1372  0.1740  0.2120
  428MOL0     C56413   7.074   9.957   1.742  0.4174 -0.5970 -0.3009
  428MOL0     N56414   7.682   9.440   1.549  0.7644  0.5472 -0.9784
  428MOL0     N56415   7.764   9.397   1.459 -0.5250  0.0019 -0.3059
  428MOL0     C56416   8.804   9.617   1.969  0.2942 -0.6292 -0.5713
  428MOL0     C56417   8.937   9.628   1.993 -0.4794 -0.2466  0.5240
  428MOL0     C56418   9.357   9.617   1.982  0.0844  1.2064  0.3739
  428MOL0     C56419   9.388   9.740   2.032 -0.6033  0.0467  0.1532
  428MOL0     C56420   9.516   9.756   2.075 -1.2333 -0.5482  0.2888
  428MOL0     C56421   9.616   9.653   2.089  1.0747  0.6355  0.1592
  428MOL0     O56422   9.725   9.683   2.155  0.5290 -0.1411  0.1960
  428MOL0     C56423   9.848   9.677   2.080 -0.0369 -0.0847 -0.8397
  428MOL0     C56424   9.933   9.763   2.153  0.4279  0.8647  0.1561
  428MOL0     C56425  10.008   9.688   2.263  0.2360  0.7720 -0.3356
  428MOL0     C56426  10.105   9.767   2.342 -0.2624  0.3690 -0.3655
  428MOL0     C56427  10.223   9.783   2.260  0.2366  0.2915  0.3988
  428MOL0     C56428  10.322   9.800   2.195  0.0408  0.2882 -0.4103
  428MOL0     C56429   9.576   9.527   2.058  0.4599  0.7238  0.0736
  428MOL0     C56430   9.446   9.507   1.996 -0.4637 -0.2984  0.0539
  428MOL0     H56431   9.010   9.815   1.721  1.8346  1.1476  3.0005
  428MOL0     H56432   8.772   9.816   1.696 -2.2255  0.0078  0.7387
  428MOL0     H56433   8.583   9.653   1.668  0.3750 -1.6047  1.3334
  428MOL0     H56434   8.534   9.813   1.739  2.3835 -0.5483  0.9688
  428MOL0     H56435   8.324   9.747   1.787  2.5202 -0.2923 -0.0065
  428MOL0     H56436   8.358   9.584   1.816 -1.9242  0.7899  0.3233
  428MOL0     H56437   8.334   9.756   1.538 -0.0912  0.7355  1.2703
  428MOL0     H56438   8.208   9.661   1.617 -0.1303  0.2472 -1.8786
  428MOL0     H56439   8.449   9.526   1.514 -0.4298 -2.7886  1.2259
  428MOL0     H56440   8.302   9.461   1.571 -0.3478  1.7422  1.4010
  428MOL0     H56441   8.372   9.568   1.298  0.5093 -0.6319 -0.4701
  428MOL0     H56442   8.218   9.641   1.354 -0.8085 -0.8827 -0.9400
  428MOL0     H56443   8.291   9.348   1.340  1.7343  2.0575  2.3021
  428MOL0     H56444   8.203   9.438   1.218  0.3464  1.2445  0.4118
  428MOL0     H56445   8.058   9.306   1.402 -1.9859  0.4091 -0.1912
  428MOL0     H56446   8.097   9.450   1.512  1.9465  0.7880 -0.3541
  428MOL0     H56447   7.943   9.465   1.244 -0.2919  2.1037 -0.1115
  428MOL0     H56448   8.015   9.593   1.333 -1.5506  1.7504 -0.1148
  428MOL0     H56449   7.892   9.692   1.537  0.3324  0.7412 -1.5927
  428MOL0     H56450   7.726   9.749   1.691 -1.1691 -0.1249  0.5091
  428MOL0     H56451   7.661   9.613   1.788 -0.0967 -1.0235 -0.7436
  428MOL0     H56452   7.442   9.630   1.664 -1.9326  2.2843  1.2489
  428MOL0     H56453   7.508   9.733   1.548 -0.3458 -3.2003 -0.8064
  428MOL0     H56454   7.509   9.793   1.854 -3.0757 -0.3783  1.7940
  428MOL0     H56455   7.501   9.914   1.717  2.4251 -1.6251 -2.4068
  428MOL0     H56456   7.305   9.904   1.827 -0.0445 -1.9169  2.8315
  428MOL0     H56457   7.296   9.732   1.804  3.8540 -0.0863  2.4924
  428MOL0     H56458   7.155   9.876   1.437 -0.5522  0.0748  1.2274
  428MOL0     H56459   6.963  10.008   1.377  0.4888 -5.3033 -0.0525
  428MOL0     H56460   6.465  10.183   1.679 -1.4502  0.2156 -0.5887
  428MOL0     H56461   6.308  10.377   1.672 -0.3690 -0.4506 -2.9753
  428MOL0     H56462   6.185  10.575   1.673  0.4951 -1.1579 -0.7970
  428MOL0     H56463   6.255  10.586   1.505  0.9812  0.3298  0.3995
  428MOL0     H56464   6.264  10.826   1.526 -2.4484  0.8798 -1.5452
  428MOL0     H56465   6.168  10.818   1.688 -0.9635 -1.1842  1.0879
  428MOL0     H56466   6.068  10.722   1.409  3.4300  4.4676 -1.6926
  428MOL0     H56467   6.026  10.860   1.495 -4.3237 -0.6088  2.7158
  428MOL0     H56468   5.964  10.582   1.578 -0.3607  0.8490 -4.8094
  428MOL0     H56469   5.975  10.708   1.706  4.0390 -1.4833  0.5608
  428MOL0     H56470   5.797  10.707   1.458  1.4755  2.0265 -0.5108
  428MOL0     H56471   5.814  10.845   1.564 -4.0558  0.7236  0.1456
  428MOL0     H56472   5.711  10.720   1.753  1.8772 -0.8636  0.1276
  428MOL0     H56473   5.711  10.566   1.674 -2.1175 -1.3010 -2.0156
  428MOL0     H56474   5.554  10.802   1.575  1.8950  0.5346 -1.3159
  428MOL0     H56475   5.559  10.647   1.487  1.0310 -2.1962  1.1871
  428MOL0     H56476   5.479  10.671   1.782 -0.1275  0.0087 -0.1459
  428MOL0     H56477   5.436  10.538   1.689 -2.5911  0.4062 -2.0262
  428MOL0     H56478   6.631  10.659   1.646 -1.1901  0.0177 -0.3591
  428MOL0     H56479   6.785  10.463   1.621 -0.5349  3.2058  1.1797
  428MOL0     H56480   6.928  10.098   1.813  1.7390 -1.0661  1.8293
  428MOL0     H56481   7.094   9.929   1.844  0.2340 -2.2995 -0.7091
  428MOL0     H56482   8.737   9.563   2.035  0.3108  0.6560  0.5602
  428MOL0     H56483   8.984   9.594   2.085  3.0209  2.3105 -0.1154
  428MOL0     H56484   9.316   9.821   2.035  0.1145  0.8523 -1.9048
  428MOL0     H56485   9.551   9.848   2.121  1.5098 -0.9388 -0.7950
  428MOL0     H56486   9.842   9.720   1.980  3.0767  0.6963 -0.7567
  428MOL0     H56487   9.886   9.574   2.082  6.8842  2.0358 -0.4725
  428MOL0     H56488  10.002   9.800   2.076  0.8280 -1.9557 -0.9730
  428MOL0     H56489   9.880   9.844   2.202 -2.3526 -1.5901  1.5008
  428MOL0     H56490  10.042   9.592   2.222  0.3063  1.8458 -3.0614
  428MOL0     H56491   9.926   9.667   2.331 -0.0530  1.8562 -0.3319
  428MOL0     H56492  10.057   9.861   2.370 -1.5399 -0.7122  1.1882
  428MOL0     H56493  10.127   9.709   2.431  1.1319 -0.1641 -1.0280
  428MOL0     H56494  10.414   9.813   2.143  1.5824 -1.6838  1.6290
  428MOL0     H56495   9.637   9.445   2.095 -2.2330 -1.8119 -0.7201
  428MOL0     H56496   9.426   9.403   1.972  1.2967 -1.2029  2.1045
  429MOL0     O56497   7.228   2.223   3.301  0.4324  0.8011  0.3440
  429MOL0     C56498   7.321   2.242   3.372 -0.2843 -0.1048  0.5556
  429MOL0     O56499   7.325   2.195   3.502  0.7172 -0.2805  0.5529
  429MOL0     C56500   7.218   2.119   3.537 -0.1076  0.1901 -0.7019
  429MOL0     C56501   7.232   1.976   3.553 -0.1459 -1.0617  0.2737
  429MOL0     C56502   7.136   1.892   3.606 -0.5837 -0.4438  0.0061
  429MOL0     C56503   7.012   1.948   3.631  0.2460 -0.2378  0.9618
  429MOL0     O56504   6.911   1.853   3.643  0.0322 -0.5181  0.0171
  429MOL0     C56505   6.778   1.900   3.673  0.3622  0.2778  0.3449
  429MOL0     C56506   6.702   1.770   3.703 -1.0752  0.3342 -0.4103
  429MOL0     C56507   6.736   1.716   3.838  0.2881  0.1437 -0.5497
  429MOL0     C56508   6.693   1.800   3.963  0.6365 -0.6682  1.4204
  429MOL0     C56509   6.685   1.718   4.090  0.1235 -0.9851  0.5249
  429MOL0     C56510   6.557   1.631   4.107  0.7693  0.3212 -0.3366
  429MOL0     C56511   6.431   1.714   4.156  0.2122  0.2484  0.8815
  429MOL0     C56512   6.307   1.614   4.155 -0.1940 -0.2641  0.2466
  429MOL0     N56513   6.269   1.587   4.021 -0.6748 -0.0347  0.6424
  429MOL0     C56514   6.243   1.462   3.969 -0.1487 -0.4218 -0.0152
  429MOL0     C56515   6.214   1.481   3.843  0.1446  0.7921  0.3061
  429MOL0     C56516   6.173   1.377   3.742 -0.1783 -0.9417 -0.4377
  429MOL0     C56517   6.026   1.346   3.756 -0.2337 -0.5320  0.3544
  429MOL0     C56518   5.924   1.463   3.743 -0.1838 -0.5402 -0.4392
  429MOL0     C56519   5.784   1.407   3.773 -0.0525  0.0117 -0.1645
  429MOL0     O56520   5.767   1.384   3.911 -0.2991  0.1071 -0.4774
  429MOL0     C56521   5.645   1.352   3.961  0.0285  0.6335  0.9720
  429MOL0     C56522   5.529   1.334   3.888 -0.5665  0.7917  0.0427
  429MOL0     C56523   5.413   1.282   3.950  0.5744  0.7005  0.5748
  429MOL0     C56524   5.411   1.252   4.088  1.0838  0.2107 -0.2890
  429MOL0     C56525   5.288   1.211   4.166  0.9647 -0.9672  0.0518
  429MOL0     O56526   5.174   1.233   4.101 -0.1417  1.0654 -0.5114
  429MOL0     C56527   5.053   1.177   4.137  0.2218 -0.2937  0.6483
  429MOL0     C56528   5.038   1.050   4.190 -0.7548 -0.7372 -0.5776
  429MOL0     C56529   4.915   0.992   4.224  0.4768 -0.5825  0.2212
  429MOL0     C56530   4.801   1.058   4.177  0.4725  0.7332 -0.8980
  429MOL0     O56531   4.676   1.002   4.180 -0.3015  0.1801  0.4135
  429MOL0     C56532   4.640   0.918   4.281 -0.6909  0.7941 -0.2817
  429MOL0     C56533   4.494   0.874   4.251 -0.1925 -0.4306 -0.3513
  429MOL0     C56534   4.472   0.806   4.111 -0.0322 -0.2791  0.2020
  429MOL0     C56535   4.471   0.895   3.985 -0.1169  0.4438 -0.7653
  429MOL0     C56536   4.402   0.821   3.868 -0.5310  0.0286  0.2225
  429MOL0     C56537   4.452   0.876   3.731  0.7573  0.8717  0.0021
  429MOL0     C56538   4.404   1.016   3.709  0.1542  0.1905 -0.6088
  429MOL0     C56539   4.445   1.045   3.572  0.8723 -0.4716  0.4472
  429MOL0    Cl56540   4.364   1.200   3.518  0.1444 -0.2759 -0.2566
  429MOL0     C56541   4.816   1.181   4.120 -0.4957  1.2423 -0.1033
  429MOL0     C56542   4.938   1.250   4.112  0.3358 -0.3111 -0.0098
  429MOL0     O56543   5.291   1.180   4.284  0.0630  0.6719 -0.8326
  429MOL0     C56544   5.526   1.274   4.157  0.2782  0.1802  0.5022
  429MOL0     C56545   5.640   1.328   4.098 -1.3691 -0.3018  0.0596
  429MOL0     N56546   6.225   1.614   3.815  0.2836  0.2387  0.9688
  429MOL0     N56547   6.251   1.677   3.925 -0.9725 -0.6796 -0.5808
  429MOL0     C56548   6.989   2.087   3.618  0.4668  0.2961 -0.0096
  429MOL0     C56549   7.090   2.175   3.580  0.7041 -0.0571 -0.3073
  429MOL0     C56550   7.442   2.308   3.311  0.0535 -1.0907 -0.5673
  429MOL0     C56551   7.431   2.359   3.185 -0.6295  0.0665 -0.4335
  429MOL0     C56552   7.543   2.414   3.125 -0.4203 -0.0223 -1.2769
  429MOL0     C56553   7.667   2.408   3.193  0.6549  0.6426  0.6115
  429MOL0     O56554   7.779   2.437   3.117 -0.5211 -0.6048  0.0547
  429MOL0     C56555   7.899   2.474   3.178 -0.5009 -0.7102  0.6043
  429MOL0     C56556   7.881   2.613   3.240  0.4548 -0.1800 -0.5920
  429MOL0     C56557   8.018   2.673   3.276 -0.5728  0.3021  0.0572
  429MOL0     C56558   7.993   2.823   3.309  0.0570  0.7264  0.2941
  429MOL0     C56559   8.116   2.908   3.287 -0.0717  0.5809 -0.8683
  429MOL0     C56560   8.224   2.959   3.272 -0.0095  0.0711  0.3969
  429MOL0     C56561   7.666   2.372   3.324  1.1378  0.6297  0.3494
  429MOL0     C56562   7.556   2.312   3.389 -0.4849 -0.7691  0.6533
  429MOL0     H56563   7.324   1.932   3.517  0.6648 -1.2751  2.4443
  429MOL0     H56564   7.158   1.786   3.616 -2.1016 -0.6928  1.0494
  429MOL0     H56565   6.736   1.962   3.594 -0.1660  1.9978  1.9125
  429MOL0     H56566   6.777   1.957   3.767 -0.4679 -0.6426  0.9196
  429MOL0     H56567   6.733   1.697   3.628  2.6807 -0.8038  1.9759
  429MOL0     H56568   6.594   1.786   3.696 -1.1920 -1.0072 -2.2544
  429MOL0     H56569   6.845   1.705   3.846  0.4030  1.0629 -0.8212
  429MOL0     H56570   6.684   1.620   3.851  0.1586  0.0862 -1.4232
  429MOL0     H56571   6.761   1.883   3.982 -2.9394  3.4050 -1.5902
  429MOL0     H56572   6.592   1.840   3.948  1.4836  0.9893 -0.2613
  429MOL0     H56573   6.684   1.786   4.175 -0.3160  0.8110 -0.8558
  429MOL0     H56574   6.779   1.663   4.096  0.9803  0.5923  2.7547
  429MOL0     H56575   6.567   1.563   4.192 -1.2758  1.7856  1.1799
  429MOL0     H56576   6.535   1.580   4.012  2.7518 -1.0219 -0.1253
  429MOL0     H56577   6.450   1.748   4.258 -2.7895 -2.8825  2.7040
  429MOL0     H56578   6.415   1.803   4.095 -1.8706 -0.3122  0.5479
  429MOL0     H56579   6.220   1.642   4.215 -1.1318 -2.4724  0.0266
  429MOL0     H56580   6.344   1.524   4.204  0.5273 -0.4355 -0.5866
  429MOL0     H56581   6.250   1.368   4.022 -1.1564 -0.8220 -0.5645
  429MOL0     H56582   6.231   1.285   3.741  1.2745 -0.0521 -0.3120
  429MOL0     H56583   6.185   1.421   3.643  0.6149  0.9627  0.4534
  429MOL0     H56584   5.994   1.291   3.845 -5.5432  0.0514 -0.8749
  429MOL0     H56585   6.008   1.275   3.674 -3.8364  1.0458 -0.4113
  429MOL0     H56586   5.937   1.551   3.806  1.5564  0.1546 -1.6800
  429MOL0     H56587   5.931   1.503   3.641 -1.5802 -1.1631 -0.8086
  429MOL0     H56588   5.776   1.321   3.707 -1.4067  1.0550 -1.4312
  429MOL0     H56589   5.712   1.483   3.741 -3.1917 -1.1744  3.3856
  429MOL0     H56590   5.524   1.364   3.784  0.7234 -0.2533 -0.3417
  429MOL0     H56591   5.324   1.273   3.888  2.0303  1.8094 -1.8626
  429MOL0     H56592   5.130   0.997   4.215 -0.9188 -1.5036 -1.5642
  429MOL0     H56593   4.911   0.893   4.269  2.1247 -1.0259 -0.5374
  429MOL0     H56594   4.647   0.966   4.379  1.2244 -1.0902  0.5804
  429MOL0     H56595   4.703   0.828   4.286 -0.0989  0.7872 -4.3699
  429MOL0     H56596   4.432   0.964   4.259  0.5478  0.1493 -1.0501
  429MOL0     H56597   4.462   0.804   4.329  2.1079 -0.9993  0.1507
  429MOL0     H56598   4.375   0.755   4.109 -0.5797  0.7205 -1.9682
  429MOL0     H56599   4.551   0.734   4.090  1.9053  2.2118 -1.7520
  429MOL0     H56600   4.421   0.991   4.001 -0.7662 -0.1436  0.9008
  429MOL0     H56601   4.572   0.920   3.953  0.1670  3.7332  2.1034
  429MOL0     H56602   4.294   0.838   3.869 -0.1841  3.1782 -1.2545
  429MOL0     H56603   4.427   0.715   3.877  0.6411  0.3280  0.7523
  429MOL0     H56604   4.403   0.811   3.658 -0.4025  0.2354  1.2858
  429MOL0     H56605   4.561   0.871   3.726  0.8407 -1.0374  2.2350
  429MOL0     H56606   4.296   1.013   3.730  0.1680 -0.5064 -0.6055
  429MOL0     H56607   4.451   1.084   3.780  1.2529 -0.9535 -0.2125
  429MOL0     H56608   4.414   0.969   3.501  0.6242  1.2861 -1.4147
  429MOL0     H56609   4.554   1.057   3.569  0.6868  1.9959 -3.3015
  429MOL0     H56610   4.721   1.225   4.088 -0.9727 -0.1504 -0.6846
  429MOL0     H56611   4.932   1.345   4.061 -4.8683 -0.9537 -1.1245
  429MOL0     H56612   5.509   1.264   4.264 -2.4407 -1.9162 -0.0294
  429MOL0     H56613   5.727   1.352   4.158 -0.6286 -0.8368 -0.7730
  429MOL0     H56614   6.897   2.144   3.619  0.1957 -0.0553 -1.7950
  429MOL0     H56615   7.077   2.283   3.584 -1.0886 -0.2952  1.3915
  429MOL0     H56616   7.339   2.347   3.130 -0.1264  0.6319 -1.4304
  429MOL0     H56617   7.552   2.444   3.021  2.2105  2.1990 -0.5247
  429MOL0     H56618   7.971   2.482   3.095 -0.8046  1.4961  0.4974
  429MOL0     H56619   7.929   2.395   3.248 -0.6910 -0.0717  1.4199
  429MOL0     H56620   7.839   2.675   3.161 -1.7230  1.2134  1.5521
  429MOL0     H56621   7.826   2.617   3.334  0.1877  0.5715 -0.7778
  429MOL0     H56622   8.083   2.658   3.189 -2.0617  0.5747 -1.1327
  429MOL0     H56623   8.060   2.622   3.363 -4.1989 -0.9020  1.2576
  429MOL0     H56624   7.914   2.868   3.249  0.1865  0.0466 -0.4022
  429MOL0     H56625   7.956   2.813   3.412 -1.9781 -3.5066 -0.6249
  429MOL0     H56626   8.316   3.011   3.261  0.9444 -0.3298  4.5915
  429MOL0     H56627   7.756   2.389   3.383  2.8389 -0.7087 -1.7296
  429MOL0     H56628   7.565   2.263   3.485 -1.8680 -1.6735  0.3491
  430MOL0     O56629   9.853   0.791   7.125 -0.6694 -0.2782  0.5110
  430MOL0     C56630   9.795   0.764   7.229 -0.9505 -0.5626 -0.4960
  430MOL0     O56631   9.837   0.794   7.359  0.3184  0.6438 -0.8550
  430MOL0     C56632   9.957   0.862   7.382  0.4068 -0.2640 -0.4198
  430MOL0     C56633  10.028   0.836   7.506  0.0819  0.1305  0.3466
  430MOL0     C56634  10.163   0.880   7.528  0.3110 -0.6802  0.2605
  430MOL0     C56635  10.232   0.958   7.437 -0.5859  0.6319  0.5340
  430MOL0     O56636  10.355   1.012   7.448  0.4830  0.9176  0.5808
  430MOL0     C56637  10.380   1.087   7.566 -0.3029  0.0930 -0.5946
  430MOL0     C56638  10.362   1.242   7.541  0.5667  0.1376  1.7838
  430MOL0     C56639  10.415   1.331   7.645  0.0873  0.0922 -0.2280
  430MOL0     C56640  10.549   1.305   7.702 -0.8989 -0.2925 -0.1256
  430MOL0     C56641  10.602   1.427   7.774 -0.5852  0.2053  0.2800
  430MOL0     C56642  10.745   1.399   7.816 -1.0304 -0.6376 -0.0510
  430MOL0     C56643  10.787   1.526   7.890 -0.1482  0.6803  1.4716
  430MOL0     C56644  10.925   1.508   7.939 -0.2415  0.5395 -0.0637
  430MOL0     N56645  10.965   1.636   8.004  0.8383  0.2899  1.0370
  430MOL0     C56646  11.029   1.737   7.938 -0.8997  0.1561 -0.1582
  430MOL0     C56647  11.024   1.835   8.029  0.4766  0.2330 -0.0917
  430MOL0     C56648  11.093   1.975   8.014  0.2930  0.2695  0.0050
  430MOL0     C56649  11.212   1.992   8.111 -0.7367  0.5813 -0.1677
  430MOL0     C56650  11.294   2.130   8.104  0.6004 -0.4516 -0.0469
  430MOL0     C56651  11.283   2.215   8.223  0.2598 -0.2637 -1.0341
  430MOL0     O56652  11.159   2.210   8.287 -0.2106 -0.2083 -0.7993
  430MOL0     C56653  11.046   2.271   8.240 -0.3247  0.0983  0.3731
  430MOL0     C56654  10.942   2.272   8.324  0.8900 -0.5069  0.7227
  430MOL0     C56655  10.811   2.309   8.292  1.1299 -0.4530  0.0615
  430MOL0     C56656  10.785   2.364   8.167 -0.1395 -0.1827  0.8847
  430MOL0     C56657  10.648   2.396   8.128 -0.1724  0.5440 -0.5114
  430MOL0     O56658  10.558   2.373   8.230  0.2897 -0.0512 -0.1497
  430MOL0     C56659  10.427   2.417   8.219  0.9262  0.9171  0.1203
  430MOL0     C56660  10.328   2.319   8.280 -0.4923  0.0287  0.2259
  430MOL0     C56661  10.194   2.353   8.268  0.4448  0.1063  0.4138
  430MOL0     C56662  10.144   2.469   8.220 -0.3393 -0.2623 -0.7329
  430MOL0     O56663  10.004   2.488   8.218  0.8408  0.7288  0.7574
  430MOL0     C56664   9.940   2.606   8.161  0.0817  0.0334 -0.4626
  430MOL0     C56665   9.796   2.611   8.209  0.9162  0.0184  0.6502
  430MOL0     C56666   9.728   2.743   8.171 -1.3808  0.1547 -0.2174
  430MOL0     C56667   9.581   2.750   8.214 -0.1374  0.1942  0.9529
  430MOL0     C56668   9.490   2.643   8.151 -0.0660  0.3486 -0.1785
  430MOL0     C56669   9.344   2.678   8.209 -0.2084  0.5534  0.3617
  430MOL0     C56670   9.240   2.581   8.145 -1.1002  0.1675 -0.4055
  430MOL0     C56671   9.100   2.617   8.186  0.5371  0.0772 -0.4569
  430MOL0    Cl56672   9.059   2.789   8.140 -0.2845  0.2866 -0.1416
  430MOL0     C56673  10.241   2.563   8.179 -0.7336  0.2441  0.1333
  430MOL0     C56674  10.377   2.528   8.167  0.3060 -0.6164 -0.6068
  430MOL0     O56675  10.629   2.442   8.017  0.0531  0.7859 -0.0450
  430MOL0     C56676  10.899   2.379   8.079  0.1806  0.3335 -0.7670
  430MOL0     C56677  11.028   2.332   8.117  0.4859  0.6546 -0.1254
  430MOL0     N56678  10.939   1.801   8.129 -0.7451  0.1794  0.4047
  430MOL0     N56679  10.904   1.678   8.118 -0.2452 -0.4810  0.4720
  430MOL0     C56680  10.161   0.997   7.321  0.3795  0.0677  0.1518
  430MOL0     C56681  10.025   0.954   7.294  0.7950  0.1214 -0.0643
  430MOL0     C56682   9.673   0.698   7.203 -0.9823 -0.6377 -0.6642
  430MOL0     C56683   9.612   0.686   7.072 -0.6482 -0.0497  0.6933
  430MOL0     C56684   9.493   0.612   7.051 -0.0817  0.0265 -0.3301
  430MOL0     C56685   9.439   0.546   7.164  0.9674  0.4014 -0.0247
  430MOL0     O56686   9.323   0.472   7.161 -0.3202  0.6898  0.2805
  430MOL0     C56687   9.242   0.462   7.034 -0.4942 -0.0625 -0.0073
  430MOL0     C56688   9.130   0.357   7.056  0.5566 -0.5533 -0.7028
  430MOL0     C56689   9.070   0.318   6.925  0.0828 -0.7087  0.1864
  430MOL0     C56690   8.973   0.206   6.953  0.2239 -0.2401  0.6261
  430MOL0     C56691   8.915   0.140   6.836 -0.0895  0.3677  0.8385
  430MOL0     C56692   8.864   0.078   6.734 -0.2783 -0.2663  0.4399
  430MOL0     C56693   9.502   0.547   7.286  0.4083 -0.0477  0.2519
  430MOL0     C56694   9.616   0.628   7.310 -0.4509  0.2667 -0.3496
  430MOL0     H56695   9.981   0.771   7.579  2.3113 -2.7366 -0.6097
  430MOL0     H56696  10.212   0.853   7.622 -1.4783 -0.2267  1.3690
  430MOL0     H56697  10.472   1.058   7.616 -0.4312  0.1979 -0.2955
  430MOL0     H56698  10.304   1.053   7.637  0.0139  3.4892  1.5923
  430MOL0     H56699  10.256   1.257   7.521  0.5250 -1.6183  0.4256
  430MOL0     H56700  10.405   1.280   7.448  1.5328  1.7231  2.8165
  430MOL0     H56701  10.336   1.336   7.720 -1.1015  1.9712 -1.5196
  430MOL0     H56702  10.406   1.437   7.617  3.9124 -0.1529 -3.2772
  430MOL0     H56703  10.535   1.222   7.772 -2.5994 -1.7692 -2.0807
  430MOL0     H56704  10.615   1.269   7.623 -0.2950  1.8176 -0.6578
  430MOL0     H56705  10.542   1.447   7.864  1.2169 -2.7787  2.3446
  430MOL0     H56706  10.585   1.507   7.702 -3.2863 -0.6470 -0.1557
  430MOL0     H56707  10.803   1.372   7.727 -1.0446  2.4968 -1.1358
  430MOL0     H56708  10.739   1.313   7.883  1.9962 -0.8159  0.1203
  430MOL0     H56709  10.778   1.607   7.817  3.3615 -2.2267 -2.6510
  430MOL0     H56710  10.728   1.536   7.982 -1.0064  0.2038  0.9781
  430MOL0     H56711  10.993   1.492   7.855 -1.2714  0.5128 -0.9057
  430MOL0     H56712  10.930   1.428   8.014 -1.7186  0.0869 -0.4258
  430MOL0     H56713  11.091   1.733   7.849 -1.6412 -1.4643 -0.6325
  430MOL0     H56714  11.020   2.053   8.033  1.5453  0.6722  4.0306
  430MOL0     H56715  11.128   1.995   7.912 -1.2385  2.4208 -0.1604
  430MOL0     H56716  11.279   1.912   8.080 -1.0961  0.2555 -0.1198
  430MOL0     H56717  11.174   1.962   8.209 -2.2520 -0.8283 -1.1288
  430MOL0     H56718  11.395   2.116   8.064 -0.5493 -1.2822 -2.9081
  430MOL0     H56719  11.249   2.181   8.019  0.9663 -1.3740 -0.8193
  430MOL0     H56720  11.300   2.317   8.190  1.5719  0.1814  0.8375
  430MOL0     H56721  11.365   2.192   8.292 -1.4113  2.8737  2.3451
  430MOL0     H56722  10.970   2.241   8.424 -0.8763  2.8033  2.4373
  430MOL0     H56723  10.741   2.299   8.374 -0.1335  0.4196 -0.8712
  430MOL0     H56724  10.369   2.235   8.334  1.7780  3.2174  4.0239
  430MOL0     H56725  10.122   2.279   8.301 -0.0477  0.5031  0.2318
  430MOL0     H56726   9.945   2.611   8.052 -0.9226 -1.5929 -0.6113
  430MOL0     H56727   9.965   2.702   8.208 -2.4191  1.7464 -2.3994
  430MOL0     H56728   9.802   2.599   8.317 -0.8902 -0.6899  0.7149
  430MOL0     H56729   9.744   2.521   8.174 -3.6231  2.4624  0.3733
  430MOL0     H56730   9.715   2.747   8.063  0.9632 -2.7718 -0.7398
  430MOL0     H56731   9.781   2.833   8.204 -2.0433  1.4575 -2.5277
  430MOL0     H56732   9.568   2.727   8.321  3.1716 -2.8431  0.9112
  430MOL0     H56733   9.542   2.850   8.195  0.4058  0.0689 -0.9570
  430MOL0     H56734   9.523   2.544   8.182 -3.8660 -0.4062  2.1681
  430MOL0     H56735   9.484   2.652   8.042 -0.1760  1.4956 -0.0948
  430MOL0     H56736   9.316   2.777   8.171 -0.6481 -0.3878 -1.9247
  430MOL0     H56737   9.339   2.672   8.319 -4.7653 -2.8268  0.2444
  430MOL0     H56738   9.254   2.576   8.036 -0.2902 -0.0997 -0.2998
  430MOL0     H56739   9.258   2.485   8.193 -0.0265  0.4814 -0.1595
  430MOL0     H56740   9.083   2.598   8.293  1.0102 -1.6265 -0.6654
  430MOL0     H56741   9.023   2.558   8.137 -0.1966  0.6898 -0.0651
  430MOL0     H56742  10.200   2.658   8.146  0.2336  0.5925 -0.0830
  430MOL0     H56743  10.440   2.601   8.117  3.2718 -1.8221  1.1033
  430MOL0     H56744  10.887   2.411   7.976  2.9937  0.4489 -1.1227
  430MOL0     H56745  11.104   2.334   8.040 -0.1025  0.4629 -0.7253
  430MOL0     H56746  10.211   1.063   7.251 -1.2385  0.1215 -1.0105
  430MOL0     H56747   9.971   0.987   7.206 -1.2418 -0.1739  1.0266
  430MOL0     H56748   9.651   0.736   6.983 -1.5325  2.1523  1.4677
  430MOL0     H56749   9.442   0.603   6.956  0.7966 -0.6869 -0.7461
  430MOL0     H56750   9.307   0.412   6.961 -0.9387 -2.2364  1.0018
  430MOL0     H56751   9.214   0.560   6.994 -0.3149 -0.7999 -2.0043
  430MOL0     H56752   9.157   0.265   7.109 -0.3836 -1.1463 -1.2429
  430MOL0     H56753   9.062   0.410   7.123 -0.4419 -0.9501 -1.3891
  430MOL0     H56754   9.149   0.271   6.866 -0.7376 -0.7952 -0.8757
  430MOL0     H56755   9.022   0.403   6.875  2.0766  0.6105  0.4284
  430MOL0     H56756   9.020   0.137   7.023  2.0738  1.6817  1.3681
  430MOL0     H56757   8.884   0.252   6.998 -0.4042  0.3902 -1.1510
  430MOL0     H56758   8.816   0.047   6.644  1.2025  0.8692 -0.7901
  430MOL0     H56759   9.452   0.488   7.362 -1.1050  1.1908  0.2667
  430MOL0     H56760   9.657   0.626   7.411 -2.7364 -0.5400  0.6460
  431MOL0     O56761   5.396   8.171   8.454 -0.0889  0.6316  0.7545
  431MOL0     C56762   5.449   8.271   8.492 -0.2656  0.0269  0.1855
  431MOL0     O56763   5.426   8.408   8.453 -0.5455  0.6480 -0.3405
  431MOL0     C56764   5.343   8.447   8.349  0.2363 -0.6038  0.7172
  431MOL0     C56765   5.252   8.551   8.363  0.4546 -0.0864  1.3205
  431MOL0     C56766   5.163   8.593   8.267  0.5699 -0.5154  0.1683
  431MOL0     C56767   5.163   8.529   8.144  0.0139 -0.2062  0.5135
  431MOL0     O56768   5.089   8.569   8.035 -0.6569  0.4083 -0.3716
  431MOL0     C56769   4.957   8.628   8.053  0.8734  0.1351  0.1974
  431MOL0     C56770   4.860   8.568   7.949  0.0202  0.5696 -0.2180
  431MOL0     C56771   4.715   8.618   7.951 -0.1229  0.1754 -0.2358
  431MOL0     C56772   4.625   8.548   7.853  0.1227 -0.1249 -0.6867
  431MOL0     C56773   4.673   8.561   7.712  0.9000 -0.1315  0.3932
  431MOL0     C56774   4.580   8.481   7.624  0.3619 -1.5890 -0.2233
  431MOL0     C56775   4.558   8.337   7.652 -0.5085  0.1823 -0.1037
  431MOL0     C56776   4.497   8.269   7.538  0.2367 -0.1674  0.2114
  431MOL0     N56777   4.352   8.273   7.551 -0.6631 -0.3731 -0.1522
  431MOL0     C56778   4.273   8.173   7.596 -0.3034  0.2203 -0.3029
  431MOL0     C56779   4.149   8.212   7.555  0.2637  0.3963 -0.3029
  431MOL0     C56780   4.027   8.126   7.580  1.2148 -0.0583 -0.8517
  431MOL0     C56781   3.990   8.050   7.458 -0.1425  0.6205 -0.4980
  431MOL0     C56782   3.893   7.941   7.496 -0.2386  0.2463 -0.1235
  431MOL0     C56783   3.869   7.837   7.383 -0.5808 -0.3497 -0.7363
  431MOL0     O56784   3.810   7.905   7.276  0.1770 -0.1577 -0.3931
  431MOL0     C56785   3.673   7.930   7.287 -0.7190  0.6278 -0.6304
  431MOL0     C56786   3.627   8.053   7.326 -0.0534 -0.0510  0.3589
  431MOL0     C56787   3.494   8.066   7.354  0.9852 -0.2892 -0.3889
  431MOL0     C56788   3.402   7.963   7.358 -0.1912  0.0656  0.6471
  431MOL0     C56789   3.263   7.982   7.392 -0.8339  1.0217  0.1355
  431MOL0     O56790   3.211   8.112   7.409  0.5849  0.0473 -0.6085
  431MOL0     C56791   3.084   8.121   7.450  0.1386  0.0646  0.1318
  431MOL0     C56792   2.978   8.098   7.354 -0.3668  0.0943  0.2933
  431MOL0     C56793   2.848   8.139   7.379  0.4663  0.5817 -0.3873
  431MOL0     C56794   2.817   8.198   7.508  0.0056 -0.6719  0.0193
  431MOL0     O56795   2.678   8.209   7.529  0.1444 -0.7067 -0.4175
  431MOL0     C56796   2.644   8.288   7.644 -0.7225  0.4022 -0.6328
  431MOL0     C56797   2.492   8.304   7.654 -0.2494  0.4411 -0.1037
  431MOL0     C56798   2.417   8.185   7.703  0.1735 -0.3855  0.4340
  431MOL0     C56799   2.265   8.193   7.668 -0.6463 -0.3824 -0.7268
  431MOL0     C56800   2.182   8.067   7.706 -0.4677 -0.0054  0.3697
  431MOL0     C56801   2.032   8.086   7.674 -0.7314 -0.3987 -0.2812
  431MOL0     C56802   1.946   7.977   7.718 -0.0589 -0.2359 -0.3433
  431MOL0     C56803   1.805   7.985   7.661 -0.5985 -0.5215  0.4947
  431MOL0    Cl56804   1.716   7.837   7.701 -0.4020  0.0097 -0.0601
  431MOL0     C56805   2.917   8.204   7.609 -0.8453  0.2406 -0.2704
  431MOL0     C56806   3.049   8.158   7.578  0.7911  0.3659  0.7143
  431MOL0     O56807   3.200   7.875   7.391 -0.0751  0.0778  0.0371
  431MOL0     C56808   3.452   7.837   7.315  0.4385  0.2555 -0.3062
  431MOL0     C56809   3.587   7.819   7.282  0.4872 -0.4834  0.1440
  431MOL0     N56810   4.164   8.337   7.493 -0.0876  0.0567  0.2628
  431MOL0     N56811   4.287   8.369   7.483  0.0730  0.1204 -0.6654
  431MOL0     C56812   5.257   8.432   8.123 -0.4697  0.7761 -0.5613
  431MOL0     C56813   5.339   8.380   8.229 -0.1712  0.1238  0.6788
  431MOL0     C56814   5.550   8.256   8.604  1.4454  0.1877  0.0061
  431MOL0     C56815   5.617   8.376   8.650  0.8107 -0.1140  0.5491
  431MOL0     C56816   5.706   8.367   8.758  0.5432  0.4462 -0.2908
  431MOL0     C56817   5.735   8.240   8.815  0.4566  0.0559  0.1649
  431MOL0     O56818   5.837   8.223   8.907  0.0079 -0.0105 -0.8291
  431MOL0     C56819   5.915   8.328   8.959 -0.4850 -0.5922  0.5310
  431MOL0     C56820   6.024   8.277   9.059 -0.1269  0.4229 -0.3253
  431MOL0     C56821   5.956   8.230   9.188  0.2202 -0.2776 -0.8349
  431MOL0     C56822   5.930   8.077   9.191  0.5396 -0.5088  0.5023
  431MOL0     C56823   5.827   8.054   9.295 -0.0617  0.6244 -1.2388
  431MOL0     C56824   5.748   8.038   9.390 -0.5802 -0.4579 -0.6433
  431MOL0     C56825   5.668   8.129   8.767  0.7106  0.4684 -1.0136
  431MOL0     C56826   5.573   8.136   8.667 -0.9940 -0.4623  0.4396
  431MOL0     H56827   5.248   8.589   8.464  2.6257 -0.8478  1.7499
  431MOL0     H56828   5.104   8.681   8.292  1.6757  0.3544 -0.2126
  431MOL0     H56829   4.951   8.737   8.044  2.4790  0.1662 -1.0594
  431MOL0     H56830   4.919   8.594   8.150 -0.6719  2.0899  0.3184
  431MOL0     H56831   4.857   8.459   7.947 -0.0618  0.4908  2.1553
  431MOL0     H56832   4.900   8.598   7.851 -2.3471  1.0386 -1.1015
  431MOL0     H56833   4.716   8.726   7.932 -3.4888  0.8216  2.2340
  431MOL0     H56834   4.666   8.605   8.048 -1.6633  1.6166 -0.7606
  431MOL0     H56835   4.619   8.441   7.876 -0.8138  0.0838  0.1386
  431MOL0     H56836   4.527   8.595   7.870  0.9589  2.0920 -1.6850
  431MOL0     H56837   4.779   8.534   7.707  1.0835  0.2500  1.7564
  431MOL0     H56838   4.653   8.667   7.698  0.7913 -0.1382  0.5013
  431MOL0     H56839   4.609   8.491   7.519 -0.4093  0.5814 -0.2736
  431MOL0     H56840   4.483   8.531   7.631 -0.1054 -2.6764  2.4171
  431MOL0     H56841   4.643   8.274   7.677  0.2303  1.1648 -0.0911
  431MOL0     H56842   4.491   8.331   7.738 -1.0397  2.0376 -0.3432
  431MOL0     H56843   4.517   8.162   7.544  0.1221 -0.2715 -1.0301
  431MOL0     H56844   4.534   8.301   7.440 -1.2505 -0.8838 -0.6212
  431MOL0     H56845   4.301   8.082   7.647 -1.3143 -0.7258 -1.3537
  431MOL0     H56846   3.952   8.178   7.640  0.1978 -1.5819 -0.7506
  431MOL0     H56847   4.066   8.046   7.644  2.5163  0.9387 -0.3619
  431MOL0     H56848   4.083   8.007   7.419 -0.1625  0.7295 -0.6664
  431MOL0     H56849   3.952   8.111   7.376 -1.4006  1.1214  0.4288
  431MOL0     H56850   3.932   7.883   7.580 -0.4314  0.0844 -0.1422
  431MOL0     H56851   3.796   7.981   7.528 -0.2085 -0.7399  1.2922
  431MOL0     H56852   3.813   7.749   7.416  0.5133 -1.1376 -0.9136
  431MOL0     H56853   3.968   7.805   7.348  0.0679  1.9936 -1.2400
  431MOL0     H56854   3.698   8.135   7.331  1.7333 -1.5684  1.1562
  431MOL0     H56855   3.448   8.161   7.379  2.1806 -0.1425  1.4100
  431MOL0     H56856   2.999   8.060   7.255 -1.1368 -0.0574  0.1833
  431MOL0     H56857   2.771   8.125   7.303 -2.3549  2.6648  1.8532
  431MOL0     H56858   2.694   8.384   7.627  1.1710 -0.0085  1.9447
  431MOL0     H56859   2.672   8.227   7.730  0.1561  1.9463  0.2007
  431MOL0     H56860   2.460   8.320   7.550  2.1308 -2.2452 -1.3955
  431MOL0     H56861   2.473   8.389   7.719 -0.2017  1.9261 -1.9296
  431MOL0     H56862   2.429   8.197   7.811 -0.6059  0.8411  0.4047
  431MOL0     H56863   2.456   8.091   7.664  1.6323  0.3259  0.1056
  431MOL0     H56864   2.230   8.282   7.720  0.3010 -1.0418  1.1005
  431MOL0     H56865   2.254   8.192   7.559 -2.2645 -0.7403 -0.5863
  431MOL0     H56866   2.190   8.055   7.814 -1.4673  1.0457  0.5734
  431MOL0     H56867   2.221   7.983   7.648 -2.2725  0.6154 -1.8906
  431MOL0     H56868   2.031   8.105   7.566 -2.6575  1.0169 -0.0721
  431MOL0     H56869   1.998   8.178   7.722  0.4894 -0.0335 -0.0755
  431MOL0     H56870   1.989   7.877   7.709  0.0774 -0.3964  1.5696
  431MOL0     H56871   1.930   7.984   7.827  0.9449 -0.4328 -0.1786
  431MOL0     H56872   1.809   7.991   7.552  1.8753 -0.8895  0.4973
  431MOL0     H56873   1.770   8.078   7.707 -0.9087 -1.3227  1.9562
  431MOL0     H56874   2.914   8.250   7.707 -0.9484 -1.2210  0.4380
  431MOL0     H56875   3.119   8.165   7.661  2.0569 -0.0081 -0.2847
  431MOL0     H56876   3.385   7.752   7.327 -0.1200  0.9346  2.0541
  431MOL0     H56877   3.616   7.716   7.266  2.2520  0.4141 -3.3016
  431MOL0     H56878   5.254   8.374   8.032  0.6206  0.3399 -0.3383
  431MOL0     H56879   5.401   8.293   8.211 -0.0853  0.4750 -0.8565
  431MOL0     H56880   5.604   8.469   8.596 -1.1197 -0.2825  0.6558
  431MOL0     H56881   5.759   8.456   8.789 -3.7459  3.2035 -0.0557
  431MOL0     H56882   5.839   8.393   9.002 -1.3394 -0.3944 -1.1867
  431MOL0     H56883   5.958   8.376   8.871 -1.5248 -1.6045 -0.5590
  431MOL0     H56884   6.083   8.194   9.019 -0.3648 -1.0623  2.1657
  431MOL0     H56885   6.085   8.365   9.084  2.3714 -0.8982 -1.4047
  431MOL0     H56886   5.862   8.285   9.196  0.9812  0.9431  0.1685
  431MOL0     H56887   6.018   8.255   9.274 -2.6898 -2.6119  2.2135
  431MOL0     H56888   5.890   8.041   9.096 -0.7848 -2.1501  1.6083
  431MOL0     H56889   6.013   8.011   9.215 -0.3864 -1.7972  0.2753
  431MOL0     H56890   5.701   8.033   9.486  1.3996  1.6453  0.5339
  431MOL0     H56891   5.680   8.037   8.824 -0.4713  1.6578  1.3266
  431MOL0     H56892   5.528   8.046   8.626 -1.0803 -2.2978  4.1645
  432MOL0     O56893   2.458   9.144   9.940 -1.1074 -0.1338  0.3524
  432MOL0     C56894   2.564   9.109   9.988 -0.5233  0.5504  0.1343
  432MOL0     O56895   2.583   9.016  10.087 -0.6200  0.1251  0.6159
  432MOL0     C56896   2.475   8.943  10.127  0.0148 -0.5048 -0.0491
  432MOL0     C56897   2.411   8.859  10.048 -0.0612 -0.8546 -0.5545
  432MOL0     C56898   2.291   8.795  10.091 -0.2152  0.2666  0.3820
  432MOL0     C56899   2.232   8.821  10.215  0.3282  0.7637 -1.1410
  432MOL0     O56900   2.131   8.750  10.275  0.5288  0.1929 -0.0829
  432MOL0     C56901   2.024   8.722  10.180 -1.2122  0.2409 -0.1800
  432MOL0     C56902   1.899   8.710  10.251  0.2892  0.1713  0.1235
  432MOL0     C56903   1.783   8.718  10.158 -0.8981 -0.8487 -0.4159
  432MOL0     C56904   1.657   8.713  10.240  0.0418  0.8207  0.4914
  432MOL0     C56905   1.537   8.735  10.145 -0.3535 -0.6774 -0.1465
  432MOL0     C56906   1.395   8.725  10.201 -0.0562  0.3541 -0.7407
  432MOL0     C56907   1.364   8.578  10.249  0.1193  0.1638  0.7636
  432MOL0     C56908   1.210   8.561  10.268 -0.1302 -0.6780  0.2053
  432MOL0     N56909   1.160   8.428  10.299 -0.4239  0.3837 -0.0864
  432MOL0     C56910   1.090   8.381  10.406 -0.4407  0.8533  0.2344
  432MOL0     C56911   1.073   8.243  10.386  0.2644 -0.6154  0.3230
  432MOL0     C56912   1.019   8.140  10.480  0.5209 -0.0896  0.5980
  432MOL0     C56913   0.874   8.189  10.525 -0.3213 -0.8658  0.9095
  432MOL0     C56914   0.796   8.069  10.589 -0.3932 -0.4241  0.8251
  432MOL0     C56915   0.690   8.107  10.680  0.2370 -0.0501 -0.4767
  432MOL0     O56916   0.623   8.209  10.615 -0.9471  0.0698  0.7568
  432MOL0     C56917   0.498   8.245  10.647  0.3228 -0.0054 -0.3614
  432MOL0     C56918   0.407   8.162  10.703 -0.2029 -0.5111  0.1714
  432MOL0     C56919   0.290   8.220  10.750 -0.2555 -0.5671 -0.2127
  432MOL0     C56920   0.264   8.358  10.742  0.2790  0.8955  0.0771
  432MOL0     C56921   0.131   8.407  10.781  0.3918  0.2511  1.2206
  432MOL0     O56922   0.026   8.318  10.783  0.0483  0.2680 -0.0586
  432MOL0     C56923  -0.066   8.345  10.873 -0.6145 -0.5411 -0.2576
  432MOL0     C56924  -0.031   8.306  10.998  0.1538 -0.0268  0.6989
  432MOL0     C56925  -0.127   8.339  11.111  0.5711 -0.2584  0.4419
  432MOL0     C56926  -0.249   8.403  11.078 -0.5142 -0.2277 -0.7387
  432MOL0     O56927  -0.345   8.415  11.179 -1.3169  0.0885  0.2161
  432MOL0     C56928  -0.472   8.371  11.140 -0.0765 -0.0712 -0.0122
  432MOL0     C56929  -0.557   8.397  11.258  0.5209  0.0252  0.0819
  432MOL0     C56930  -0.584   8.282  11.356 -0.8627  0.1528  0.5600
  432MOL0     C56931  -0.457   8.220  11.419  0.6120  0.2847 -0.2754
  432MOL0     C56932  -0.494   8.116  11.531 -0.7158  0.8155  0.0604
  432MOL0     C56933  -0.372   8.047  11.600 -0.0056  0.5536  0.6299
  432MOL0     C56934  -0.342   7.897  11.537  0.2165  0.4120  0.1363
  432MOL0     C56935  -0.276   7.890  11.398  0.2538 -0.1292 -0.5197
  432MOL0    Cl56936  -0.140   7.777  11.379  0.5781  0.1860 -0.0188
  432MOL0     C56937  -0.273   8.446  10.946 -0.3141  0.3739  0.3808
  432MOL0     C56938  -0.178   8.422  10.843  0.4015  0.0658 -0.7429
  432MOL0     O56939   0.112   8.531  10.801 -0.1028 -0.4862  0.2850
  432MOL0     C56940   0.358   8.440  10.697  0.0980 -0.6679 -0.0985
  432MOL0     C56941   0.470   8.383  10.637 -0.0273  0.2309 -0.2905
  432MOL0     N56942   1.140   8.213  10.263 -0.2018  0.1081 -0.3844
  432MOL0     N56943   1.180   8.323  10.211 -0.6718 -0.3619 -0.5581
  432MOL0     C56944   2.315   8.892  10.308  0.1095  0.8729  0.3925
  432MOL0     C56945   2.431   8.960  10.262  0.6050  0.2578  0.3663
  432MOL0     C56946   2.683   9.191   9.945 -0.1224  0.0244  1.1649
  432MOL0     C56947   2.811   9.144   9.956 -0.5056  0.4349  0.1628
  432MOL0     C56948   2.924   9.214   9.910 -0.1455 -0.9381  0.2080
  432MOL0     C56949   2.916   9.342   9.854  0.6791 -0.4546  0.1150
  432MOL0     O56950   3.026   9.422   9.802 -0.4120  0.2218 -0.2338
  432MOL0     C56951   3.165   9.376   9.832  0.5017 -0.0216  0.2118
  432MOL0     C56952   3.201   9.274   9.724  0.2103  0.7166 -0.6749
  432MOL0     C56953   3.166   9.300   9.577 -0.5218 -0.0281 -0.3481
  432MOL0     C56954   3.212   9.438   9.526 -0.4075  0.3099  0.0428
  432MOL0     C56955   3.348   9.467   9.573  0.3600 -0.5110 -0.2225
  432MOL0     C56956   3.452   9.512   9.618  0.1692 -0.3558 -0.9582
  432MOL0     C56957   2.786   9.395   9.838  0.2751 -1.0330  1.3005
  432MOL0     C56958   2.673   9.317   9.874  0.3772  0.0675  0.3514
  432MOL0     H56959   2.442   8.862   9.944  1.7010 -0.5979 -0.0555
  432MOL0     H56960   2.237   8.730  10.024  2.2212 -1.8630  0.3308
  432MOL0     H56961   2.059   8.632  10.128  0.1391  1.4709 -1.5215
  432MOL0     H56962   2.019   8.803  10.106  2.8960 -0.1830 -1.1465
  432MOL0     H56963   1.901   8.786  10.330  1.0814 -1.9644  2.3039
  432MOL0     H56964   1.905   8.615  10.305  1.8026 -1.3696 -2.5805
  432MOL0     H56965   1.785   8.633  10.088 -0.0598 -3.4023  2.4869
  432MOL0     H56966   1.787   8.816  10.110 -0.4722  1.4202  3.8209
  432MOL0     H56967   1.639   8.615  10.286  1.7499  0.4375  0.4168
  432MOL0     H56968   1.648   8.777  10.329 -1.0786  0.9241  0.3182
  432MOL0     H56969   1.553   8.667  10.061  0.3612  0.1212 -0.6777
  432MOL0     H56970   1.543   8.833  10.097 -0.6754 -0.2197  0.7227
  432MOL0     H56971   1.325   8.759  10.124  0.0155  0.7593 -0.6310
  432MOL0     H56972   1.383   8.787  10.290 -0.6848 -1.9956  0.8963
  432MOL0     H56973   1.392   8.506  10.172  0.2929 -0.5098  1.4415
  432MOL0     H56974   1.414   8.553  10.343 -0.0802  2.0969  1.4230
  432MOL0     H56975   1.168   8.588  10.171 -0.1203  1.8137  0.8432
  432MOL0     H56976   1.177   8.633  10.342 -0.4053 -0.0405 -0.5300
  432MOL0     H56977   1.068   8.431  10.499 -1.2996 -2.5129  1.9996
  432MOL0     H56978   1.073   8.121  10.574 -0.8224  0.8410  1.6008
  432MOL0     H56979   0.999   8.053  10.418 -1.9866  0.8259 -0.0116
  432MOL0     H56980   0.813   8.206  10.435  0.8351 -0.0910  0.2528
  432MOL0     H56981   0.889   8.273  10.594 -0.8255 -0.7934  0.9410
  432MOL0     H56982   0.752   8.012  10.507  4.4009 -1.3156 -1.5253
  432MOL0     H56983   0.870   8.010  10.644  0.9290  1.1111  0.7966
  432MOL0     H56984   0.734   8.149  10.771  0.0916  4.8836 -2.3326
  432MOL0     H56985   0.625   8.021  10.693  0.5310 -0.1266  0.5158
  432MOL0     H56986   0.423   8.055  10.706 -0.1907 -0.7483 -3.3946
  432MOL0     H56987   0.216   8.151  10.789 -0.3215 -0.7863 -0.7075
  432MOL0     H56988   0.062   8.252  11.011  1.0518  1.1293 -0.6782
  432MOL0     H56989  -0.112   8.315  11.215 -2.6395  0.8636  1.2808
  432MOL0     H56990  -0.476   8.266  11.107 -0.8488 -0.5438  1.4868
  432MOL0     H56991  -0.517   8.424  11.056 -0.3397  0.6623  0.5824
  432MOL0     H56992  -0.658   8.426  11.227  0.4525 -0.4787 -0.1805
  432MOL0     H56993  -0.530   8.489  11.310  3.1663 -0.8848  0.4543
  432MOL0     H56994  -0.634   8.205  11.296 -2.0667  1.4972 -0.2174
  432MOL0     H56995  -0.650   8.323  11.433  0.9036 -1.3913  3.0447
  432MOL0     H56996  -0.390   8.172  11.348 -0.1149  2.1642 -2.3698
  432MOL0     H56997  -0.404   8.304  11.465  1.4918 -0.6048  0.3528
  432MOL0     H56998  -0.566   8.042  11.495  0.0808 -0.9502  1.9350
  432MOL0     H56999  -0.541   8.172  11.613 -2.4456  0.7835 -0.8624
  432MOL0     H57000  -0.390   8.041  11.708  0.3566 -3.3054  0.6434
  432MOL0     H57001  -0.296   8.123  11.577 -0.9212  1.1879 -0.3943
  432MOL0     H57002  -0.296   7.819  11.598  1.1755 -0.9475 -2.1797
  432MOL0     H57003  -0.438   7.849  11.518  0.1900  0.4320  0.2237
  432MOL0     H57004  -0.240   7.988  11.366 -0.1140  0.5851  1.1352
  432MOL0     H57005  -0.349   7.873  11.318 -1.1045  1.6062  0.2944
  432MOL0     H57006  -0.365   8.498  10.919  1.0981  2.2055 -1.2767
  432MOL0     H57007  -0.192   8.470  10.747 -2.0843  1.8173  0.4039
  432MOL0     H57008   0.348   8.547  10.685  2.1944 -0.1009  2.2475
  432MOL0     H57009   0.543   8.455  10.602  2.7706 -2.0430  0.4577
  432MOL0     H57010   2.288   8.906  10.412 -3.6110  0.3327 -0.3417
  432MOL0     H57011   2.493   9.026  10.323  1.8912 -0.4015 -0.1856
  432MOL0     H57012   2.843   9.054  10.007 -0.6133  1.3239  1.8616
  432MOL0     H57013   3.024   9.181   9.938  0.2776 -1.4782 -1.7952
  432MOL0     H57014   3.177   9.340   9.934  1.1206 -1.2304 -0.2625
  432MOL0     H57015   3.241   9.451   9.813  0.6662 -0.5149 -1.2085
  432MOL0     H57016   3.308   9.255   9.738  0.0245 -1.1230 -1.4825
  432MOL0     H57017   3.160   9.175   9.744 -2.1149  1.7785  0.2163
  432MOL0     H57018   3.057   9.305   9.565 -0.8051 -1.2160  1.3288
  432MOL0     H57019   3.203   9.221   9.511 -2.8587 -1.3337 -0.2224
  432MOL0     H57020   3.200   9.442   9.418  0.8645  1.7067 -0.0775
  432MOL0     H57021   3.139   9.510   9.564  0.4005  1.0109  0.3240
  432MOL0     H57022   3.543   9.558   9.652 -0.6179  1.6862 -1.4981
  432MOL0     H57023   2.771   9.487   9.783  0.2751 -0.8720  1.5689
  432MOL0     H57024   2.577   9.350   9.835  1.7576  3.5027 -0.5390
  433MOL0     O57025   3.351   5.031   2.412 -0.4087 -0.3109 -0.0583
  433MOL0     C57026   3.460   5.088   2.389  0.4943 -1.0175 -0.4024
  433MOL0     O57027   3.476   5.215   2.369  0.1889 -0.5645 -0.2451
  433MOL0     C57028   3.363   5.291   2.341  0.2620  0.0878  0.3149
  433MOL0     C57029   3.263   5.264   2.244  0.6633 -0.3418  0.5671
  433MOL0     C57030   3.145   5.344   2.223  0.7043 -0.0652 -0.5887
  433MOL0     C57031   3.123   5.449   2.303  0.6789 -0.7784  0.2924
  433MOL0     O57032   3.007   5.529   2.282 -0.2174  0.3655  0.5297
  433MOL0     C57033   2.882   5.459   2.308 -0.3126  0.5407 -0.4603
  433MOL0     C57034   2.778   5.515   2.213 -0.2162 -0.3389 -0.1798
  433MOL0     C57035   2.752   5.444   2.076 -0.3794 -1.2618  0.2712
  433MOL0     C57036   2.654   5.514   1.976 -0.1811  0.4527 -0.3942
  433MOL0     C57037   2.521   5.565   2.041 -0.1732 -0.4987 -0.1075
  433MOL0     C57038   2.395   5.545   1.956  0.0111  0.3186 -0.7465
  433MOL0     C57039   2.410   5.633   1.830  0.9962  0.4566  1.2837
  433MOL0     C57040   2.301   5.606   1.733  0.0311 -0.0797  0.5288
  433MOL0     N57041   2.180   5.691   1.766  0.0054  0.4190  0.3090
  433MOL0     C57042   2.119   5.791   1.690 -0.5676  0.1692  0.5950
  433MOL0     C57043   1.991   5.799   1.734 -0.7204  0.9607 -0.9594
  433MOL0     C57044   1.880   5.885   1.683 -0.5045  0.3087 -0.0788
  433MOL0     C57045   1.920   5.989   1.571 -0.8362 -0.4593 -0.3957
  433MOL0     C57046   1.810   6.034   1.479  0.1196 -0.2551  0.9973
  433MOL0     C57047   1.719   6.121   1.566 -0.2552 -0.3578 -0.1568
  433MOL0     O57048   1.610   6.155   1.476 -0.2893  0.5428  0.6929
  433MOL0     C57049   1.485   6.139   1.525  0.7994  1.0299 -0.9323
  433MOL0     C57050   1.422   6.248   1.579  0.5027 -0.3097  1.4762
  433MOL0     C57051   1.299   6.241   1.634  0.9789  0.1542 -0.0814
  433MOL0     C57052   1.240   6.113   1.658  0.5235 -1.5661 -0.8821
  433MOL0     C57053   1.109   6.105   1.718 -0.6170  0.8665  0.2821
  433MOL0     O57054   1.079   5.982   1.759 -0.4760 -0.2524  0.4119
  433MOL0     C57055   0.958   5.947   1.794 -0.2249  0.3097 -0.5186
  433MOL0     C57056   0.921   5.902   1.925 -0.1154  0.1277 -0.3339
  433MOL0     C57057   0.795   5.852   1.956  1.0360  0.7886 -0.0735
  433MOL0     C57058   0.693   5.841   1.864 -0.5378  0.4700  0.3885
  433MOL0     O57059   0.567   5.792   1.885  0.8914 -0.0495 -0.4715
  433MOL0     C57060   0.539   5.772   2.022  0.8845 -0.0249 -0.2284
  433MOL0     C57061   0.389   5.730   2.021 -0.1140 -0.2590 -0.1365
  433MOL0     C57062   0.281   5.832   2.065  0.0471  0.7596  0.7207
  433MOL0     C57063   0.279   5.949   1.968 -0.7303 -0.1135  0.0265
  433MOL0     C57064   0.158   6.043   2.008  0.4909  0.0938 -0.1163
  433MOL0     C57065   0.154   6.169   1.929  0.2263  0.8549 -0.6478
  433MOL0     C57066   0.259   6.281   1.958  0.8511 -0.4139  0.4329
  433MOL0     C57067   0.212   6.366   2.077 -0.1431 -0.5820  0.2732
  433MOL0    Cl57068   0.343   6.478   2.123  0.0675  0.4781  0.0683
  433MOL0     C57069   0.730   5.884   1.741  0.2680 -0.0392  0.5199
  433MOL0     C57070   0.859   5.934   1.703  0.6634 -0.7908  0.1180
  433MOL0     O57071   1.045   6.204   1.753  0.2472  0.2412 -0.8904
  433MOL0     C57072   1.300   6.000   1.611  0.8637  0.0287  0.5427
  433MOL0     C57073   1.421   6.017   1.548 -0.7969 -0.4135  0.5101
  433MOL0     N57074   1.980   5.696   1.832 -0.8869  0.2498 -0.4283
  433MOL0     N57075   2.095   5.647   1.862  1.1778 -0.4766 -0.3404
  433MOL0     C57076   3.218   5.486   2.407  0.3352  0.7135  0.6942
  433MOL0     C57077   3.335   5.406   2.420  0.6106 -0.0683 -0.4820
  433MOL0     C57078   3.582   5.006   2.367 -0.0527  0.1273 -0.0429
  433MOL0     C57079   3.711   5.072   2.352  0.1912  0.3913 -0.7632
  433MOL0     C57080   3.827   5.007   2.336 -1.0065 -0.2515  0.8014
  433MOL0     C57081   3.826   4.864   2.342 -0.6028  0.5888  0.1111
  433MOL0     O57082   3.937   4.783   2.349  0.1011  0.4889  0.3061
  433MOL0     C57083   4.063   4.846   2.355  0.4093 -0.9636  0.3402
  433MOL0     C57084   4.108   4.894   2.494  0.0343 -0.0237 -0.2737
  433MOL0     C57085   4.157   4.768   2.573 -0.4952 -0.5204  0.0076
  433MOL0     C57086   4.111   4.772   2.724  0.9353  0.3803  0.0170
  433MOL0     C57087   4.203   4.844   2.817 -0.2383  0.2842 -0.4433
  433MOL0     C57088   4.257   4.903   2.912  0.5294  0.3043 -0.3971
  433MOL0     C57089   3.707   4.791   2.347 -0.8493  0.9499  1.5370
  433MOL0     C57090   3.581   4.865   2.359 -0.3249  0.7961  0.5173
  433MOL0     H57091   3.281   5.184   2.173  0.6852  1.0623 -1.1065
  433MOL0     H57092   3.084   5.313   2.138  1.3076 -0.7793 -0.7757
  433MOL0     H57093   2.870   5.493   2.412  1.5151 -0.1864  0.0217
  433MOL0     H57094   2.885   5.350   2.302  3.6136  0.6135 -2.9751
  433MOL0     H57095   2.808   5.620   2.203 -0.2504 -0.1651  1.2648
  433MOL0     H57096   2.682   5.526   2.265  0.4040 -0.7509  1.0983
  433MOL0     H57097   2.699   5.352   2.103 -3.3260  0.5009  1.0372
  433MOL0     H57098   2.837   5.426   2.011 -0.9277 -0.8332 -0.5856
  433MOL0     H57099   2.706   5.603   1.940 -0.2543  1.0996  1.0535
  433MOL0     H57100   2.637   5.431   1.906 -0.8282  0.3326 -0.1014
  433MOL0     H57101   2.531   5.673   2.051 -0.5842 -0.4337 -0.3767
  433MOL0     H57102   2.503   5.510   2.134 -1.6116  0.8450  0.4696
  433MOL0     H57103   2.308   5.577   2.014 -1.0995 -2.9434 -0.4260
  433MOL0     H57104   2.382   5.440   1.928 -1.2062  0.0046  0.8256
  433MOL0     H57105   2.405   5.737   1.863 -3.7215  0.2671  1.8838
  433MOL0     H57106   2.509   5.620   1.785  0.4015  2.0589 -0.6103
  433MOL0     H57107   2.273   5.500   1.735 -1.0510 -0.1538 -4.6339
  433MOL0     H57108   2.328   5.624   1.629 -0.8329  1.5458  0.5459
  433MOL0     H57109   2.157   5.835   1.598  2.0364 -0.4112  1.3117
  433MOL0     H57110   1.824   5.934   1.763 -1.7009 -1.8033  0.4531
  433MOL0     H57111   1.811   5.812   1.640 -0.1153 -0.6347  0.8509
  433MOL0     H57112   2.003   5.957   1.508  0.2970 -2.9007  2.1014
  433MOL0     H57113   1.964   6.073   1.624  0.2873 -0.8125 -0.7495
  433MOL0     H57114   1.853   6.089   1.395  0.8491 -2.3451 -0.0403
  433MOL0     H57115   1.770   5.944   1.431  3.8678 -1.8736  0.6279
  433MOL0     H57116   1.762   6.216   1.600 -1.3954 -1.0766  3.8097
  433MOL0     H57117   1.679   6.071   1.655  1.5055 -0.5201  0.5805
  433MOL0     H57118   1.467   6.347   1.580 -0.6957  0.2510  1.2564
  433MOL0     H57119   1.250   6.328   1.677  0.2043 -1.1192  1.7406
  433MOL0     H57120   1.001   5.917   1.996  0.9662  0.5731 -1.5969
  433MOL0     H57121   0.788   5.843   2.064  0.3988  2.0005  0.0063
  433MOL0     H57122   0.553   5.861   2.085  0.5040  0.3687 -0.6934
  433MOL0     H57123   0.599   5.689   2.061  1.0996  0.2849  0.1121
  433MOL0     H57124   0.376   5.636   2.076 -2.4046  0.0005 -0.1369
  433MOL0     H57125   0.356   5.705   1.920 -3.9313 -1.7894  1.3215
  433MOL0     H57126   0.292   5.870   2.167  0.2545 -1.0918  1.4367
  433MOL0     H57127   0.181   5.789   2.066  1.1844 -2.2620 -0.6234
  433MOL0     H57128   0.373   6.005   1.971 -0.5901 -0.0435 -3.0168
  433MOL0     H57129   0.265   5.914   1.866 -2.1210 -1.5857  0.6802
  433MOL0     H57130   0.151   6.067   2.115  1.3124 -0.3272  0.0443
  433MOL0     H57131   0.068   5.985   1.985 -1.2633  3.4271 -2.3712
  433MOL0     H57132   0.057   6.216   1.948  1.1622  2.5369  0.1917
  433MOL0     H57133   0.162   6.141   1.823  2.2764  2.6703 -1.0650
  433MOL0     H57134   0.362   6.247   1.972  0.9340 -0.4647 -0.2506
  433MOL0     H57135   0.256   6.357   1.879 -2.2163  0.3601  1.1509
  433MOL0     H57136   0.193   6.306   2.166  1.5679  3.9434  4.0533
  433MOL0     H57137   0.123   6.426   2.055  0.8474  1.4842  1.6545
  433MOL0     H57138   0.651   5.878   1.667  3.4033  0.3555 -3.2382
  433MOL0     H57139   0.883   5.968   1.603  3.6450  0.8267  1.2753
  433MOL0     H57140   1.261   5.901   1.631  1.2788 -1.0461 -3.0840
  433MOL0     H57141   1.470   5.926   1.514 -2.0971 -0.8450 -0.2520
  433MOL0     H57142   3.200   5.568   2.475  1.0407  0.5495  1.0835
  433MOL0     H57143   3.399   5.433   2.504 -0.7826  1.2708  0.1973
  433MOL0     H57144   3.714   5.180   2.359  1.5365  0.4182 -1.3747
  433MOL0     H57145   3.912   5.073   2.324 -0.4576 -0.8184  1.5607
  433MOL0     H57146   4.063   4.930   2.285  0.2727 -1.3521 -0.1355
  433MOL0     H57147   4.136   4.776   2.313 -0.6079 -0.9179 -1.6209
  433MOL0     H57148   4.191   4.965   2.494  1.1863 -1.2689 -2.2749
  433MOL0     H57149   4.022   4.941   2.542  0.6092  1.5794 -0.7620
  433MOL0     H57150   4.266   4.776   2.575 -0.6274  1.8759  0.6460
  433MOL0     H57151   4.126   4.671   2.534 -0.4513 -0.9775  1.0954
  433MOL0     H57152   4.008   4.808   2.720  0.1566 -1.7244 -0.1385
  433MOL0     H57153   4.107   4.670   2.763 -3.6875  0.4489  0.2769
  433MOL0     H57154   4.309   4.947   2.995 -1.9881  0.9311  0.9500
  433MOL0     H57155   3.703   4.683   2.346  0.3379  0.8876  0.4658
  433MOL0     H57156   3.490   4.807   2.372 -0.1022 -0.1866 -1.8169
  434MOL0     O57157  10.112   8.019   4.401  0.2857 -0.1496 -0.6611
  434MOL0     C57158  10.095   8.133   4.350  0.4006  0.5119  0.0243
  434MOL0     O57159  10.182   8.232   4.352 -1.0572  0.2269  0.1193
  434MOL0     C57160  10.308   8.216   4.412 -0.7250 -0.0496 -0.9664
  434MOL0     C57161  10.379   8.094   4.383  0.5084  0.5338 -0.1259
  434MOL0     C57162  10.511   8.082   4.414 -0.3991 -0.3348 -0.3156
  434MOL0     C57163  10.570   8.185   4.498  1.1632 -0.0135  1.0078
  434MOL0     O57164  10.683   8.146   4.557  0.2268 -0.2624  0.0294
  434MOL0     C57165  10.762   8.244   4.635  0.3109  1.4240 -0.2458
  434MOL0     C57166  10.912   8.211   4.615 -0.2879  0.5111 -0.1067
  434MOL0     C57167  10.974   8.096   4.701 -0.0772  0.2198 -0.0073
  434MOL0     C57168  11.124   8.074   4.657 -0.5022  0.7494 -0.1683
  434MOL0     C57169  11.185   7.964   4.743  0.3551 -0.7135 -0.2810
  434MOL0     C57170  11.330   7.932   4.688 -0.5700  0.3170 -0.6185
  434MOL0     C57171  11.377   7.830   4.790  0.1909 -0.4690 -0.2366
  434MOL0     C57172  11.533   7.825   4.788  0.3079  0.0535  0.3378
  434MOL0     N57173  11.598   7.746   4.884 -0.3728  0.7042 -0.7937
  434MOL0     C57174  11.701   7.795   4.963  0.1949  0.0426  0.1514
  434MOL0     C57175  11.716   7.695   5.050  0.3416  0.0355 -0.3447
  434MOL0     C57176  11.798   7.707   5.177  0.0862 -0.6421 -0.0858
  434MOL0     C57177  11.950   7.741   5.146  0.2669  0.6465  0.2235
  434MOL0     C57178  11.991   7.887   5.138  0.3280 -0.4150  0.2008
  434MOL0     C57179  12.142   7.911   5.151 -0.3229 -0.7263 -0.5186
  434MOL0     O57180  12.217   7.812   5.081  0.1544  0.4784 -0.2527
  434MOL0     C57181  12.354   7.823   5.080  0.0031  0.2828  0.3238
  434MOL0     C57182  12.430   7.936   5.112  0.2862  0.1544 -0.1762
  434MOL0     C57183  12.565   7.935   5.094  0.4013 -0.7699 -0.1715
  434MOL0     C57184  12.632   7.813   5.070 -0.3424 -0.0598  0.1351
  434MOL0     C57185  12.788   7.817   5.080 -1.2875  0.6374  0.2117
  434MOL0     O57186  12.853   7.940   5.103 -0.4342  0.5162  0.0331
  434MOL0     C57187  12.989   7.954   5.101 -0.2944 -0.1633  0.9585
  434MOL0     C57188  13.065   7.906   4.987 -1.1785 -0.8258  0.2724
  434MOL0     C57189  13.206   7.900   5.003  0.6383 -0.3814 -0.0414
  434MOL0     C57190  13.271   7.959   5.114  0.0748 -0.1240 -0.4054
  434MOL0     O57191  13.410   7.955   5.128  0.4753 -0.1093  0.0308
  434MOL0     C57192  13.490   8.073   5.106 -0.7788 -0.0085  0.0691
  434MOL0     C57193  13.595   8.058   4.999 -0.2826  0.9805 -0.9168
  434MOL0     C57194  13.702   8.173   4.991  0.3358  0.4579 -0.1553
  434MOL0     C57195  13.807   8.126   4.880 -0.2730 -0.4041  0.9870
  434MOL0     C57196  13.896   8.245   4.834  0.4840  0.1172 -0.4126
  434MOL0     C57197  14.014   8.183   4.752  0.2170  1.0826 -0.3935
  434MOL0     C57198  14.077   8.292   4.673 -0.6504 -1.2094 -0.1064
  434MOL0     C57199  14.188   8.245   4.582  0.2582 -0.8311 -0.8865
  434MOL0    Cl57200  14.330   8.211   4.693  0.3075  0.0778  0.3191
  434MOL0     C57201  13.195   8.011   5.223  0.6674 -0.5591 -0.0160
  434MOL0     C57202  13.056   8.017   5.208  0.9829  1.2631  0.7978
  434MOL0     O57203  12.842   7.712   5.063 -0.0769  0.1884 -0.0511
  434MOL0     C57204  12.560   7.701   5.038 -0.5051  0.0290 -0.1892
  434MOL0     C57205  12.418   7.707   5.027  0.0126  0.5020 -0.3998
  434MOL0     N57206  11.627   7.588   5.031 -0.6645 -0.5493  0.4523
  434MOL0     N57207  11.557   7.614   4.925  0.2877 -1.2448 -0.8039
  434MOL0     C57208  10.500   8.308   4.522  0.5494 -0.5474  0.4982
  434MOL0     C57209  10.376   8.323   4.466 -0.4147  0.0351  0.6377
  434MOL0     C57210   9.961   8.172   4.304  0.4793  0.0081  0.4998
  434MOL0     C57211   9.857   8.086   4.273  0.2493  0.2624  0.8740
  434MOL0     C57212   9.728   8.132   4.241 -0.7177  1.2123 -0.9719
  434MOL0     C57213   9.702   8.260   4.215 -0.1552  0.2429 -0.4489
  434MOL0     O57214   9.580   8.305   4.181  0.0517  0.2287 -0.2841
  434MOL0     C57215   9.548   8.436   4.141  1.2009  0.4664  0.1209
  434MOL0     C57216   9.452   8.510   4.243 -0.4657 -0.6430 -1.1330
  434MOL0     C57217   9.317   8.443   4.285  0.5989 -0.5526 -0.1413
  434MOL0     C57218   9.259   8.326   4.194 -0.4957 -0.5767  0.1910
  434MOL0     C57219   9.236   8.357   4.044  0.2892 -0.0906  0.8057
  434MOL0     C57220   9.218   8.374   3.923  0.1903  0.2616 -0.0121
  434MOL0     C57221   9.808   8.348   4.226 -0.1723 -1.2824 -0.0323
  434MOL0     C57222   9.936   8.307   4.275 -0.6770 -0.1421  0.1870
  434MOL0     H57223  10.331   8.013   4.329  2.0944 -0.6565  0.1663
  434MOL0     H57224  10.562   7.986   4.406 -0.5729 -0.5680  1.0772
  434MOL0     H57225  10.732   8.241   4.741 -4.2962 -1.1287 -1.3300
  434MOL0     H57226  10.759   8.343   4.589  1.5788  0.8470 -1.6248
  434MOL0     H57227  10.969   8.300   4.643  0.2869  0.4988 -1.1920
  434MOL0     H57228  10.930   8.197   4.508  0.7630 -1.2171  0.2543
  434MOL0     H57229  10.918   8.003   4.688 -3.3364  2.2061 -1.4663
  434MOL0     H57230  10.964   8.112   4.809 -4.0674 -1.0450 -0.0123
  434MOL0     H57231  11.127   8.038   4.554 -0.6713 -1.9095  0.6974
  434MOL0     H57232  11.169   8.174   4.662  1.8225 -0.2351  0.3325
  434MOL0     H57233  11.113   7.882   4.746 -0.8521  0.2475 -1.5170
  434MOL0     H57234  11.194   8.004   4.844 -0.9656  1.0264 -0.7947
  434MOL0     H57235  11.393   8.020   4.708  1.2364 -1.4878  2.5927
  434MOL0     H57236  11.339   7.893   4.586  1.2195  0.2784 -0.4928
  434MOL0     H57237  11.359   7.856   4.895  2.1204  0.8177 -0.1758
  434MOL0     H57238  11.335   7.733   4.763  0.2731 -0.8528  0.9350
  434MOL0     H57239  11.570   7.927   4.800 -0.7657  0.9453 -2.7643
  434MOL0     H57240  11.562   7.802   4.685 -0.8921  4.2635 -1.1509
  434MOL0     H57241  11.756   7.889   4.958  0.9827 -0.3062  1.6601
  434MOL0     H57242  11.801   7.611   5.229  0.2877 -0.5305  0.1117
  434MOL0     H57243  11.754   7.773   5.253  1.6014 -1.4633  1.5835
  434MOL0     H57244  11.988   7.694   5.055  0.7269  1.7689 -0.1880
  434MOL0     H57245  11.997   7.693   5.233 -2.5411  1.6398  2.4406
  434MOL0     H57246  11.954   7.923   5.041  2.1652 -1.9203 -1.1442
  434MOL0     H57247  11.936   7.938   5.218 -0.0438  0.5882 -0.6654
  434MOL0     H57248  12.165   7.909   5.258  0.7940 -1.5338 -0.7497
  434MOL0     H57249  12.177   8.008   5.115  3.8708 -1.3953  1.1652
  434MOL0     H57250  12.383   8.027   5.148 -1.4358 -0.1996 -1.3912
  434MOL0     H57251  12.622   8.025   5.116 -0.1632 -0.3648 -0.3360
  434MOL0     H57252  13.018   7.856   4.903  0.0758  1.0063 -1.6210
  434MOL0     H57253  13.253   7.839   4.927  1.5497 -0.6681  0.7310
  434MOL0     H57254  13.534   8.094   5.203  0.1982  0.2504 -0.4137
  434MOL0     H57255  13.418   8.153   5.089  0.6532  1.0688 -1.3363
  434MOL0     H57256  13.548   8.055   4.900  0.2830 -2.6592 -1.2218
  434MOL0     H57257  13.638   7.957   5.006 -0.3527  0.7360 -3.2033
  434MOL0     H57258  13.748   8.181   5.090 -1.4134  0.3241  0.6986
  434MOL0     H57259  13.658   8.270   4.969  0.9995  0.2160 -2.9580
  434MOL0     H57260  13.885   8.055   4.911  3.0962  3.1711  1.4923
  434MOL0     H57261  13.756   8.100   4.787 -1.5949  2.4330  0.8284
  434MOL0     H57262  13.934   8.303   4.918  0.3150 -0.5349  0.1297
  434MOL0     H57263  13.834   8.312   4.773  1.0039 -1.8789 -3.3674
  434MOL0     H57264  13.970   8.112   4.681  1.1947  1.1209 -1.0646
  434MOL0     H57265  14.092   8.131   4.807 -1.3785 -1.3758 -0.2937
  434MOL0     H57266  13.999   8.333   4.608 -0.1439 -1.6216 -0.9806
  434MOL0     H57267  14.122   8.367   4.739  1.0105 -0.6940 -1.7420
  434MOL0     H57268  14.208   8.323   4.508 -3.1426  1.7176  0.6344
  434MOL0     H57269  14.161   8.159   4.520  2.5639 -1.2397 -1.4461
  434MOL0     H57270  13.236   8.049   5.317 -0.0265 -2.4642  1.1173
  434MOL0     H57271  12.990   8.063   5.280  0.0067 -0.8341  1.3150
  434MOL0     H57272  12.616   7.614   5.005 -0.3318  0.1499 -0.2138
  434MOL0     H57273  12.363   7.615   5.010  6.1239 -3.8688  0.2460
  434MOL0     H57274  10.547   8.380   4.588  0.2236 -0.6004  0.7892
  434MOL0     H57275  10.315   8.412   4.472  0.1617  0.7170 -2.3853
  434MOL0     H57276   9.867   7.980   4.295 -0.3954  0.5694  2.8567
  434MOL0     H57277   9.651   8.056   4.245  0.6826 -0.1869  0.8559
  434MOL0     H57278   9.496   8.423   4.046  3.2338 -2.0761 -0.7562
  434MOL0     H57279   9.626   8.509   4.115 -2.1740  3.3708 -2.8686
  434MOL0     H57280   9.510   8.519   4.336 -3.3795  1.3638  0.6505
  434MOL0     H57281   9.429   8.611   4.209  0.3173 -0.9655 -2.6737
  434MOL0     H57282   9.237   8.518   4.287  1.5347  0.6005 -2.1398
  434MOL0     H57283   9.332   8.407   4.387  0.7044 -0.2337 -0.0406
  434MOL0     H57284   9.318   8.235   4.206 -1.9001 -1.5023  0.2922
  434MOL0     H57285   9.163   8.295   4.238 -1.1180  0.7362 -0.1867
  434MOL0     H57286   9.219   8.396   3.818  0.7108  1.5766  0.2401
  434MOL0     H57287   9.810   8.455   4.210  2.1682 -1.1839  0.6457
  434MOL0     H57288  10.003   8.389   4.300 -1.5444  0.7539 -0.3391
  435MOL0     O57289   6.209   8.689   9.015 -0.6739  0.1973  0.3003
  435MOL0     C57290   6.191   8.784   9.092 -1.2517  0.9231  0.2012
  435MOL0     O57291   6.085   8.799   9.164  0.1417  0.3663 -0.8581
  435MOL0     C57292   5.969   8.740   9.115  0.2166 -0.2726  1.2187
  435MOL0     C57293   5.908   8.773   8.989 -0.1421  0.1556 -0.4992
  435MOL0     C57294   5.779   8.716   8.953 -0.6111 -0.6834  0.3535
  435MOL0     C57295   5.715   8.617   9.039  0.4450 -0.2317  0.2156
  435MOL0     O57296   5.596   8.557   9.019  0.2073  0.0660  0.2574
  435MOL0     C57297   5.506   8.613   8.921 -0.0028  0.4036 -0.0210
  435MOL0     C57298   5.368   8.564   8.941  0.4478  0.5006  0.4914
  435MOL0     C57299   5.332   8.443   8.846  0.2847  0.7041  0.0854
  435MOL0     C57300   5.184   8.403   8.859 -0.1644 -0.0300  0.9107
  435MOL0     C57301   5.118   8.300   8.771 -0.3016 -1.1453  0.1156
  435MOL0     C57302   4.965   8.293   8.809  0.4993 -0.2499  0.3942
  435MOL0     C57303   4.894   8.174   8.735 -0.5132  0.5303  0.3933
  435MOL0     C57304   4.757   8.161   8.797 -0.0544  0.2193 -0.3087
  435MOL0     N57305   4.674   8.051   8.722  0.1702 -0.1705  0.5530
  435MOL0     C57306   4.690   7.922   8.742  0.5195  0.4704  0.6174
  435MOL0     C57307   4.598   7.861   8.667  0.9993  0.2559  0.2826
  435MOL0     C57308   4.560   7.713   8.657 -0.4539  0.8195 -0.1998
  435MOL0     C57309   4.609   7.654   8.525  0.7942 -0.3078 -0.9729
  435MOL0     C57310   4.586   7.499   8.516 -0.6289 -0.5936 -0.6701
  435MOL0     C57311   4.454   7.445   8.556  0.6063  0.8631  0.3282
  435MOL0     O57312   4.358   7.455   8.454 -0.1475  0.1391  0.6709
  435MOL0     C57313   4.229   7.452   8.487 -0.1167 -0.3638  0.5726
  435MOL0     C57314   4.153   7.326   8.461 -0.2238 -0.0433  0.0324
  435MOL0     C57315   4.015   7.324   8.487 -0.2002  0.0704 -0.0048
  435MOL0     C57316   3.949   7.441   8.537  0.8089  0.2741 -0.1429
  435MOL0     C57317   3.807   7.435   8.574  0.3944 -0.4361 -0.9753
  435MOL0     O57318   3.754   7.511   8.666  0.4845 -0.8604 -0.5338
  435MOL0     C57319   3.615   7.506   8.670 -0.0919 -0.0864 -0.3574
  435MOL0     C57320   3.553   7.588   8.583 -0.6552 -0.2373 -0.6979
  435MOL0     C57321   3.413   7.603   8.589 -0.1557 -1.6002  0.1055
  435MOL0     C57322   3.342   7.544   8.691 -1.4021  0.3251  0.7782
  435MOL0     O57323   3.212   7.569   8.706 -0.0950  0.7847 -0.4057
  435MOL0     C57324   3.131   7.471   8.775 -0.1402 -0.7421 -0.3080
  435MOL0     C57325   2.984   7.477   8.732 -0.0680  0.1369 -0.7612
  435MOL0     C57326   2.891   7.389   8.821 -0.1032 -0.1671  0.1396
  435MOL0     C57327   2.750   7.379   8.767  0.0685  0.2115 -0.7289
  435MOL0     C57328   2.674   7.505   8.800  0.2963 -0.1663  0.3018
  435MOL0     C57329   2.526   7.473   8.796 -0.8051  0.2190 -0.1514
  435MOL0     C57330   2.431   7.587   8.823  0.2472 -0.5533  0.4410
  435MOL0     C57331   2.280   7.543   8.824 -1.3961 -0.4514  0.0024
  435MOL0    Cl57332   2.247   7.449   8.968 -0.3685 -0.0460  0.1810
  435MOL0     C57333   3.415   7.473   8.787 -0.4880 -0.6188 -0.7121
  435MOL0     C57334   3.551   7.446   8.781 -0.8801 -0.4032 -0.3041
  435MOL0     O57335   3.748   7.341   8.523 -0.2647  0.7400 -1.0097
  435MOL0     C57336   4.031   7.556   8.563 -1.0455  0.3177  0.9129
  435MOL0     C57337   4.166   7.567   8.529  1.2715  0.3390 -0.0666
  435MOL0     N57338   4.522   7.964   8.609  0.6794  0.0092  0.1893
  435MOL0     N57339   4.579   8.076   8.626 -0.6995 -1.3232 -0.1299
  435MOL0     C57340   5.768   8.603   9.159 -0.4945 -0.0616  0.1744
  435MOL0     C57341   5.894   8.650   9.198  0.7473 -0.7778  0.0514
  435MOL0     C57342   6.288   8.892   9.086  0.0798  0.1208 -0.6013
  435MOL0     C57343   6.269   9.006   9.164  0.1081 -0.4046 -0.5892
  435MOL0     C57344   6.369   9.104   9.173  0.6192 -0.0807 -0.1238
  435MOL0     C57345   6.496   9.090   9.109  0.1285 -0.3958 -0.5022
  435MOL0     O57346   6.609   9.171   9.137  0.5084 -0.5084  0.1171
  435MOL0     C57347   6.586   9.310   9.161  0.5552 -0.1640  0.3257
  435MOL0     C57348   6.710   9.381   9.128  0.4940  0.4784  1.1249
  435MOL0     C57349   6.813   9.297   9.045 -0.3433  0.4384  0.2088
  435MOL0     C57350   6.926   9.395   9.004  0.0959 -0.1707  1.0200
  435MOL0     C57351   7.032   9.332   8.919 -0.3827  0.7154 -0.4871
  435MOL0     C57352   7.119   9.266   8.861 -0.5253  0.6954 -0.2034
  435MOL0     C57353   6.511   8.972   9.027  1.2674  0.4611  0.1801
  435MOL0     C57354   6.408   8.872   9.020 -0.2616 -0.7104  0.6642
  435MOL0     H57355   5.960   8.844   8.925  0.2289  3.4359  3.0685
  435MOL0     H57356   5.738   8.751   8.859  3.4969  1.2072 -0.9932
  435MOL0     H57357   5.545   8.579   8.824  3.1402  0.7113  1.0320
  435MOL0     H57358   5.507   8.723   8.917  0.3664  0.4971  1.9277
  435MOL0     H57359   5.289   8.639   8.936 -0.6232 -0.4210  2.4116
  435MOL0     H57360   5.356   8.533   9.045 -5.3167  0.0639  0.0351
  435MOL0     H57361   5.386   8.351   8.872 -2.8274 -1.4756 -0.5804
  435MOL0     H57362   5.349   8.480   8.745 -0.6606  0.0853 -0.3174
  435MOL0     H57363   5.174   8.362   8.960 -1.2044  0.7348  1.1367
  435MOL0     H57364   5.126   8.496   8.864  0.5479  0.3563  2.6884
  435MOL0     H57365   5.163   8.203   8.792  0.0145 -0.6606  1.7995
  435MOL0     H57366   5.131   8.334   8.668  3.3978 -1.6796  0.2885
  435MOL0     H57367   4.916   8.386   8.782 -0.2033 -0.3340  1.3428
  435MOL0     H57368   4.957   8.273   8.916  1.9001  1.7092  0.9066
  435MOL0     H57369   4.895   8.178   8.626  2.4415 -0.3802  0.2836
  435MOL0     H57370   4.943   8.081   8.765 -0.1710  0.7806  0.6348
  435MOL0     H57371   4.707   8.257   8.806  0.6342  0.5862 -0.2837
  435MOL0     H57372   4.771   8.121   8.898 -1.2712 -0.1371 -0.2659
  435MOL0     H57373   4.761   7.881   8.812  0.1146 -1.2032  0.0954
  435MOL0     H57374   4.454   7.703   8.681 -0.2658 -1.7217 -0.0641
  435MOL0     H57375   4.615   7.663   8.738  1.9660  0.4170 -1.9648
  435MOL0     H57376   4.711   7.684   8.500  0.6759  0.2635 -0.7696
  435MOL0     H57377   4.535   7.686   8.451  1.1806  1.7769 -0.4966
  435MOL0     H57378   4.594   7.464   8.412 -0.2015  1.5759 -1.4327
  435MOL0     H57379   4.662   7.438   8.565  0.1066  0.9817  0.2322
  435MOL0     H57380   4.424   7.480   8.655 -2.4702 -0.8390  0.1248
  435MOL0     H57381   4.468   7.341   8.586 -1.7946  0.6655  0.9198
  435MOL0     H57382   4.216   7.246   8.424 -1.1425 -1.6027  1.6817
  435MOL0     H57383   3.966   7.232   8.460  0.5815 -0.6984  1.0959
  435MOL0     H57384   3.622   7.646   8.522  1.2485  0.7696  2.1626
  435MOL0     H57385   3.363   7.663   8.514  0.4322 -0.7767  0.3543
  435MOL0     H57386   3.122   7.481   8.884 -1.1458  0.5593 -0.5005
  435MOL0     H57387   3.172   7.369   8.768  0.1412 -0.7877  1.5402
  435MOL0     H57388   2.990   7.445   8.627  0.7982 -0.9849 -0.3889
  435MOL0     H57389   2.948   7.580   8.724  2.5760  1.0373 -2.1109
  435MOL0     H57390   2.898   7.415   8.927 -2.1475  1.9418 -0.1605
  435MOL0     H57391   2.921   7.284   8.811 -2.2197 -0.7765 -0.3773
  435MOL0     H57392   2.762   7.385   8.659 -0.3283 -1.7201 -0.9226
  435MOL0     H57393   2.701   7.289   8.807 -1.6428  2.1446  1.8005
  435MOL0     H57394   2.702   7.576   8.722  0.9127  0.0818  0.7410
  435MOL0     H57395   2.688   7.547   8.901 -0.8935 -0.3084  0.5422
  435MOL0     H57396   2.513   7.394   8.870  1.5187 -0.3839 -0.2978
  435MOL0     H57397   2.497   7.439   8.696 -1.8475  1.4378 -0.2821
  435MOL0     H57398   2.465   7.629   8.918  2.0800 -1.0942  0.0678
  435MOL0     H57399   2.463   7.665   8.753 -1.0059 -0.3375  0.0817
  435MOL0     H57400   2.253   7.486   8.735  0.4031 -0.4323 -0.5908
  435MOL0     H57401   2.224   7.636   8.823 -1.0956 -0.2710 -0.8865
  435MOL0     H57402   3.367   7.427   8.873  1.8754 -0.1182  0.9672
  435MOL0     H57403   3.595   7.368   8.842 -1.2353 -1.1050 -0.9344
  435MOL0     H57404   3.991   7.647   8.606 -0.6075  0.9900 -0.0639
  435MOL0     H57405   4.215   7.663   8.545 -2.2262  2.1876  0.4624
  435MOL0     H57406   5.698   8.567   9.234 -1.6448 -0.1532 -0.9073
  435MOL0     H57407   5.921   8.631   9.301  0.8050 -0.5309  0.0823
  435MOL0     H57408   6.184   9.017   9.230 -0.4006 -0.0201 -1.2952
  435MOL0     H57409   6.367   9.172   9.257 -0.9412 -0.7680  0.4322
  435MOL0     H57410   6.539   9.333   9.257  0.8410  2.1849 -0.0561
  435MOL0     H57411   6.506   9.346   9.095  0.9738  1.8537  0.8667
  435MOL0     H57412   6.683   9.479   9.086  1.8578  1.0133  1.4437
  435MOL0     H57413   6.754   9.411   9.223 -2.5223  1.5783  2.3121
  435MOL0     H57414   6.769   9.252   8.957 -0.1672 -0.3950  0.5398
  435MOL0     H57415   6.851   9.215   9.107 -0.6258  0.8233  0.9038
  435MOL0     H57416   6.881   9.475   8.946  1.8497 -0.8099 -1.3822
  435MOL0     H57417   6.976   9.439   9.091  2.1886 -0.8108  0.2224
  435MOL0     H57418   7.205   9.214   8.825 -0.4631  1.5218 -1.2928
  435MOL0     H57419   6.606   8.958   8.976 -0.2463 -4.3976 -1.8462
  435MOL0     H57420   6.437   8.781   8.968  4.2644  0.4268  0.7975
  436MOL0     O57421   7.688   3.795   1.579 -1.0498 -0.3435  0.8214
  436MOL0     C57422   7.695   3.793   1.704 -0.0828 -1.1492 -0.0639
  436MOL0     O57423   7.585   3.794   1.788 -0.1198 -0.1089 -0.2807
  436MOL0     C57424   7.462   3.767   1.734 -0.0262 -0.2252  0.4356
  436MOL0     C57425   7.445   3.632   1.705  0.5986 -0.4309 -0.6100
  436MOL0     C57426   7.321   3.596   1.649 -0.1399  0.9558  0.7530
  436MOL0     C57427   7.209   3.679   1.640 -0.1301  0.5145  0.1322
  436MOL0     O57428   7.100   3.620   1.580  0.1449 -0.1248 -0.0154
  436MOL0     C57429   6.970   3.671   1.605  0.2152 -0.4442 -0.0036
  436MOL0     C57430   6.867   3.567   1.567 -0.3786  0.2877 -0.5568
  436MOL0     C57431   6.723   3.610   1.568  0.0807 -0.1414 -1.3666
  436MOL0     C57432   6.626   3.501   1.547  0.4985  0.8458 -0.4108
  436MOL0     C57433   6.488   3.563   1.552  0.4212  0.6794 -0.5077
  436MOL0     C57434   6.398   3.431   1.538  0.0171 -0.6933 -0.6598
  436MOL0     C57435   6.253   3.465   1.568 -0.4032 -0.1987 -0.3787
  436MOL0     C57436   6.200   3.565   1.466 -0.6428 -0.8264 -0.6649
  436MOL0     N57437   6.086   3.507   1.399  0.3165  0.1418  0.1162
  436MOL0     C57438   6.049   3.530   1.272  0.2672  0.0432 -0.4447
  436MOL0     C57439   5.919   3.483   1.257 -0.3117 -0.2143 -0.1191
  436MOL0     C57440   5.834   3.483   1.130 -0.1482  0.0458  0.2485
  436MOL0     C57441   5.834   3.331   1.079  0.3227 -0.0639 -0.0690
  436MOL0     C57442   5.720   3.305   0.991  0.1455  0.3036  0.1835
  436MOL0     C57443   5.720   3.393   0.865 -0.0146 -0.0307 -0.9337
  436MOL0     O57444   5.621   3.335   0.779  0.3368 -0.7021  0.6422
  436MOL0     C57445   5.485   3.355   0.789 -0.2677 -0.1736  0.1133
  436MOL0     C57446   5.417   3.407   0.901 -0.7875 -0.1701 -0.1923
  436MOL0     C57447   5.273   3.420   0.905 -0.0119 -0.7321 -0.2667
  436MOL0     C57448   5.192   3.377   0.803  0.6599 -0.2657 -0.8691
  436MOL0     C57449   5.049   3.398   0.819  1.0548  0.8305  0.0518
  436MOL0     O57450   5.011   3.505   0.895  0.4073 -0.1899 -0.0400
  436MOL0     C57451   4.870   3.529   0.890  0.6598 -0.4053  0.7549
  436MOL0     C57452   4.785   3.466   0.975 -0.3780  1.0940 -0.3564
  436MOL0     C57453   4.656   3.499   0.972  0.4135  0.3433  0.0979
  436MOL0     C57454   4.599   3.575   0.868 -0.1877 -0.1059 -0.4330
  436MOL0     O57455   4.467   3.600   0.875 -0.0197  0.3589 -0.4592
  436MOL0     C57456   4.426   3.739   0.860  0.1682  0.2341  0.4314
  436MOL0     C57457   4.288   3.764   0.929  0.2722  0.3363  0.3307
  436MOL0     C57458   4.197   3.824   0.819 -0.1871 -0.2863  0.4285
  436MOL0     C57459   4.048   3.824   0.861 -0.5281 -0.4107  0.7008
  436MOL0     C57460   3.972   3.882   0.745 -0.1186 -0.0043 -0.0379
  436MOL0     C57461   3.817   3.864   0.763  0.4143 -0.1732 -0.0770
  436MOL0     C57462   3.736   3.899   0.888  0.3191  0.2542 -0.6947
  436MOL0     C57463   3.580   3.859   0.859  0.1352 -1.1051  0.5550
  436MOL0    Cl57464   3.491   3.991   0.775  0.2991 -0.2646 -0.6868
  436MOL0     C57465   4.681   3.635   0.771 -0.5388  0.1217 -0.0339
  436MOL0     C57466   4.820   3.615   0.787 -0.5879  0.2513  0.7675
  436MOL0     O57467   4.974   3.326   0.747 -0.4504 -0.5947 -0.6026
  436MOL0     C57468   5.259   3.338   0.685  0.2519  0.1096  0.6852
  436MOL0     C57469   5.403   3.332   0.686 -0.8525 -0.3655  0.5172
  436MOL0     N57470   5.879   3.452   1.388  0.9315 -0.3701 -0.2195
  436MOL0     N57471   5.977   3.462   1.466 -0.1007  0.2964  0.8366
  436MOL0     C57472   7.226   3.805   1.677  0.5545  0.5322  0.2529
  436MOL0     C57473   7.349   3.853   1.726  0.1669  0.3223  0.1969
  436MOL0     C57474   7.829   3.813   1.761  0.3484  0.3137 -0.3576
  436MOL0     C57475   7.841   3.819   1.903 -0.0068  0.1887  0.0608
  436MOL0     C57476   7.965   3.827   1.958 -0.4932  0.0045  0.7167
  436MOL0     C57477   8.090   3.808   1.892 -0.9485  0.0433  0.0577
  436MOL0     O57478   8.209   3.804   1.960 -0.1613  0.0341  0.1623
  436MOL0     C57479   8.315   3.757   1.884 -0.2754  0.7062  0.3689
  436MOL0     C57480   8.437   3.748   1.982  0.3679 -0.5209 -0.6181
  436MOL0     C57481   8.417   3.610   2.059 -0.1270 -0.2203 -0.7425
  436MOL0     C57482   8.308   3.620   2.165  0.8481  0.2785 -0.1920
  436MOL0     C57483   8.310   3.506   2.259  0.0435  0.0624  0.4088
  436MOL0     C57484   8.305   3.404   2.325  0.1867 -0.7643 -1.3329
  436MOL0     C57485   8.074   3.799   1.750  0.2430  0.4419 -0.1047
  436MOL0     C57486   7.952   3.811   1.685  0.6884 -0.2935 -0.2952
  436MOL0     H57487   7.524   3.558   1.699  0.4057 -0.6366 -0.6692
  436MOL0     H57488   7.322   3.493   1.616 -1.3616  0.6984  1.4750
  436MOL0     H57489   6.946   3.760   1.546 -3.0387 -2.2534 -1.7301
  436MOL0     H57490   6.951   3.696   1.709 -0.5141  1.9939 -0.6527
  436MOL0     H57491   6.873   3.481   1.634 -1.6335  0.0960 -0.6522
  436MOL0     H57492   6.893   3.530   1.468 -0.5943 -0.8431 -0.2083
  436MOL0     H57493   6.705   3.698   1.506  0.4831  1.2843  0.4510
  436MOL0     H57494   6.709   3.651   1.668  0.0124 -1.0387 -1.0026
  436MOL0     H57495   6.647   3.452   1.451  1.9867  1.5119 -0.4405
  436MOL0     H57496   6.644   3.429   1.627  2.1445 -1.0329 -2.3172
  436MOL0     H57497   6.470   3.642   1.478  0.7539  1.6073  0.3816
  436MOL0     H57498   6.475   3.611   1.649  0.3311  0.6494 -0.5045
  436MOL0     H57499   6.431   3.351   1.606 -0.1336 -0.5397 -0.4030
  436MOL0     H57500   6.400   3.401   1.433 -0.1788 -2.5488 -0.1700
  436MOL0     H57501   6.190   3.375   1.578 -0.5244 -0.4891 -3.1366
  436MOL0     H57502   6.249   3.505   1.670  0.2999 -3.3972  1.0351
  436MOL0     H57503   6.277   3.591   1.392  0.6832  3.1464  1.7805
  436MOL0     H57504   6.170   3.662   1.507  4.6467  0.8716 -0.0922
  436MOL0     H57505   6.103   3.577   1.191 -0.0078  1.2035  0.0255
  436MOL0     H57506   5.863   3.566   1.065  0.3044 -0.6305 -0.4300
  436MOL0     H57507   5.735   3.519   1.159 -0.2901  1.4701 -1.7878
  436MOL0     H57508   5.837   3.263   1.165  1.5309 -0.1690 -0.1831
  436MOL0     H57509   5.927   3.325   1.021  0.4105 -1.2851  0.1640
  436MOL0     H57510   5.739   3.208   0.945 -2.7964 -0.9843  1.4869
  436MOL0     H57511   5.631   3.300   1.054  1.2387  3.6800  2.2564
  436MOL0     H57512   5.812   3.395   0.806 -0.6102  1.9004 -1.8751
  436MOL0     H57513   5.697   3.498   0.882  3.2733  0.7991 -0.8351
  436MOL0     H57514   5.468   3.442   0.990 -1.7279  0.6063  0.0620
  436MOL0     H57515   5.222   3.464   0.990 -0.5332 -2.9632  0.6379
  436MOL0     H57516   4.827   3.391   1.041  0.8882  0.0399 -2.2613
  436MOL0     H57517   4.593   3.461   1.052  0.4323 -0.2319 -0.1593
  436MOL0     H57518   4.415   3.765   0.754 -2.9140  0.2153  0.6372
  436MOL0     H57519   4.497   3.807   0.907  0.5075  1.1128 -1.2591
  436MOL0     H57520   4.299   3.830   1.016  1.9510 -0.3100  0.6532
  436MOL0     H57521   4.244   3.670   0.964 -1.2809  0.3044 -1.5450
  436MOL0     H57522   4.218   3.769   0.727 -1.6098 -0.2363  0.0587
  436MOL0     H57523   4.230   3.926   0.797  0.3817 -0.3681  0.8865
  436MOL0     H57524   4.020   3.719   0.869  2.3163 -1.5437 -2.0305
  436MOL0     H57525   4.029   3.864   0.961  1.4789  2.9513 -0.1024
  436MOL0     H57526   4.013   3.846   0.650  1.3172  2.0259 -0.2550
  436MOL0     H57527   3.976   3.991   0.740  0.4618 -0.0729 -2.6703
  436MOL0     H57528   3.790   3.761   0.735  1.8095 -0.3151 -1.0351
  436MOL0     H57529   3.768   3.920   0.683  0.3762 -1.8740 -1.3126
  436MOL0     H57530   3.774   3.842   0.974 -3.0865  0.8504  1.3942
  436MOL0     H57531   3.749   4.004   0.917  2.1687 -1.1013  4.5066
  436MOL0     H57532   3.531   3.843   0.956 -0.8635  0.2970  0.3146
  436MOL0     H57533   3.569   3.768   0.801  1.3065 -0.9787  0.1112
  436MOL0     H57534   4.636   3.697   0.694  0.7350 -1.1786 -1.8931
  436MOL0     H57535   4.899   3.653   0.723 -0.8610  2.5567  1.6840
  436MOL0     H57536   5.199   3.311   0.598  1.3905  1.0085 -0.4123
  436MOL0     H57537   5.457   3.295   0.599  2.7207 -1.5329  2.9752
  436MOL0     H57538   7.150   3.880   1.656  0.4554  0.8011  1.4899
  436MOL0     H57539   7.362   3.959   1.742  0.4188  0.5317 -1.1969
  436MOL0     H57540   7.754   3.824   1.967 -0.2043 -1.0252 -0.0914
  436MOL0     H57541   7.967   3.845   2.065 -0.7168  0.0344  0.7168
  436MOL0     H57542   8.330   3.829   1.803 -2.6961  1.1738  0.2542
  436MOL0     H57543   8.288   3.659   1.842 -1.2301  0.3414  1.7564
  436MOL0     H57544   8.532   3.739   1.930  0.6324 -2.4703  0.1206
  436MOL0     H57545   8.443   3.825   2.059  2.4126 -2.8531  1.7251
  436MOL0     H57546   8.514   3.578   2.096 -0.0938  2.1572  1.5217
  436MOL0     H57547   8.393   3.533   1.985 -0.5801 -1.8723  1.0565
  436MOL0     H57548   8.324   3.714   2.220 -0.2452  1.4618 -1.7853
  436MOL0     H57549   8.211   3.626   2.115  2.0338  1.7592 -2.4664
  436MOL0     H57550   8.284   3.324   2.393 -0.5283  2.6274  2.8709
  436MOL0     H57551   8.153   3.787   1.676 -0.6380 -1.1119 -0.8397
  436MOL0     H57552   7.955   3.802   1.577 -0.6958  3.1536 -0.7563
  437MOL0     O57553   8.670   9.636   6.513 -0.3826  0.2732  0.1682
  437MOL0     C57554   8.636   9.758   6.541  0.4010  0.5263  0.7961
  437MOL0     O57555   8.508   9.804   6.558  0.2380 -0.1511 -0.8097
  437MOL0     C57556   8.402   9.716   6.550 -0.7262 -1.4206 -1.1664
  437MOL0     C57557   8.389   9.599   6.471 -0.0439 -0.3357 -0.0110
  437MOL0     C57558   8.269   9.535   6.469  0.1574  0.0972  1.8485
  437MOL0     C57559   8.152   9.590   6.520 -0.1024 -0.3230  0.3904
  437MOL0     O57560   8.023   9.540   6.505 -0.4308  0.3151  0.3362
  437MOL0     C57561   8.010   9.401   6.453 -0.3068  1.1031 -0.0255
  437MOL0     C57562   7.885   9.342   6.524 -0.6508  0.2194  0.2779
  437MOL0     C57563   7.759   9.403   6.458 -0.1205 -0.7053  0.5784
  437MOL0     C57564   7.628   9.361   6.525  0.2777  0.1303  0.1118
  437MOL0     C57565   7.507   9.420   6.455 -0.8296 -0.1023 -0.6973
  437MOL0     C57566   7.487   9.569   6.479 -0.1421  0.1940  0.1587
  437MOL0     C57567   7.342   9.604   6.471  1.0348 -0.2214  0.0009
  437MOL0     C57568   7.331   9.755   6.482  0.0143 -0.4120 -1.0256
  437MOL0     N57569   7.190   9.793   6.501  0.2989  0.2279 -0.0778
  437MOL0     C57570   7.104   9.823   6.612 -0.4507 -0.4847  0.3297
  437MOL0     C57571   6.989   9.868   6.564 -0.2860 -0.4609  0.3182
  437MOL0     C57572   6.886   9.953   6.645  0.0571  0.6948  0.8720
  437MOL0     C57573   6.881  10.102   6.614  0.1533  0.0341 -0.2455
  437MOL0     C57574   6.746  10.166   6.656  0.1226 -0.5591  0.3938
  437MOL0     C57575   6.675  10.131   6.790  0.0272 -0.1936 -0.9291
  437MOL0     O57576   6.552  10.200   6.793 -0.1431 -0.1013  0.5190
  437MOL0     C57577   6.452  10.156   6.709  0.2868 -0.4237  1.2819
  437MOL0     C57578   6.426  10.028   6.662 -0.2611  0.2904  0.2174
  437MOL0     C57579   6.317  10.004   6.586  0.7128 -0.3764  0.0307
  437MOL0     C57580   6.221  10.100   6.565  0.1519 -0.3345 -0.0206
  437MOL0     C57581   6.105  10.074   6.478  1.1362 -0.5512  0.6633
  437MOL0     O57582   6.070   9.940   6.473 -0.0188  0.1452 -0.1361
  437MOL0     C57583   5.932   9.916   6.479  0.5712 -0.0047 -0.0803
  437MOL0     C57584   5.858   9.840   6.383 -1.2500 -0.2045 -0.0794
  437MOL0     C57585   5.719   9.821   6.390 -0.9193 -0.4157 -0.5900
  437MOL0     C57586   5.655   9.865   6.503  0.5610 -0.1111  0.5479
  437MOL0     O57587   5.523   9.830   6.516 -0.5284 -0.3033 -0.4619
  437MOL0     C57588   5.439   9.940   6.568  0.2231  0.1076  0.8015
  437MOL0     C57589   5.298   9.920   6.536 -0.1824 -0.2458 -0.5636
  437MOL0     C57590   5.202  10.004   6.628 -0.7686 -0.2705  0.2499
  437MOL0     C57591   5.063  10.000   6.570  0.0506 -0.3033  0.0976
  437MOL0     C57592   4.979  10.124   6.610 -0.0465  0.4687 -0.6398
  437MOL0     C57593   4.865  10.152   6.525  0.0196  0.1771  0.8000
  437MOL0     C57594   4.772  10.254   6.579  0.7273  0.4410 -0.0454
  437MOL0     C57595   4.675  10.294   6.465 -0.1006 -0.0166  0.7892
  437MOL0    Cl57596   4.557  10.405   6.526  0.6067 -0.3134 -0.1483
  437MOL0     C57597   5.725   9.936   6.600 -0.2005 -0.3179  0.0668
  437MOL0     C57598   5.865   9.954   6.591  1.5586 -0.4380 -1.2091
  437MOL0     O57599   6.042  10.168   6.429 -0.0810 -0.4080  0.7203
  437MOL0     C57600   6.231  10.220   6.631  0.0369  0.3695  0.0264
  437MOL0     C57601   6.356  10.256   6.694  0.5749  0.0778  0.6343
  437MOL0     N57602   6.996   9.833   6.425  0.1392 -0.2010  0.4173
  437MOL0     N57603   7.113   9.785   6.387  0.5179  0.6095 -0.1424
  437MOL0     C57604   8.159   9.709   6.597 -0.9018 -0.2185 -0.3085
  437MOL0     C57605   8.286   9.768   6.618 -0.8162 -0.0827  0.3440
  437MOL0     C57606   8.738   9.859   6.526 -0.7105  0.9679  0.6364
  437MOL0     C57607   8.875   9.840   6.563 -0.5433  0.4440  1.2700
  437MOL0     C57608   8.960   9.954   6.570 -0.1686 -0.2292  0.9894
  437MOL0     C57609   8.920  10.080   6.529  0.5175  0.6543  0.4618
  437MOL0     O57610   9.007  10.178   6.553 -0.1338 -0.0585  0.4455
  437MOL0     C57611   8.968  10.320   6.546 -0.1296  0.1119 -0.6096
  437MOL0     C57612   8.968  10.372   6.409  0.7489 -0.2820  0.4539
  437MOL0     C57613   9.106  10.381   6.333 -0.4921 -0.0270 -0.0543
  437MOL0     C57614   9.209  10.499   6.372 -0.0851 -0.2182  0.0149
  437MOL0     C57615   9.218  10.550   6.510  0.8023  0.0995  0.1364
  437MOL0     C57616   9.215  10.584   6.628 -0.8906 -0.0638  0.2310
  437MOL0     C57617   8.789  10.092   6.486 -0.4421 -0.2665 -0.2467
  437MOL0     C57618   8.698   9.983   6.486  0.1069  0.1166 -0.2211
  437MOL0     H57619   8.469   9.553   6.414  2.6833  1.4193  2.1706
  437MOL0     H57620   8.269   9.443   6.412 -1.1540  1.7666 -1.0844
  437MOL0     H57621   8.093   9.334   6.472 -2.9456 -1.7087  2.7531
  437MOL0     H57622   7.995   9.401   6.345  3.3817 -0.4866 -0.6799
  437MOL0     H57623   7.887   9.362   6.631  0.3918  1.4728  0.0465
  437MOL0     H57624   7.886   9.233   6.510  3.1945 -0.1171  1.9353
  437MOL0     H57625   7.752   9.367   6.355  0.4932 -0.6284  0.5013
  437MOL0     H57626   7.765   9.512   6.460 -1.7031 -0.6015  1.6391
  437MOL0     H57627   7.617   9.254   6.505 -1.9479  0.4491 -0.7127
  437MOL0     H57628   7.639   9.372   6.634  3.3758 -3.8520  0.4299
  437MOL0     H57629   7.414   9.377   6.493 -1.1970  2.4454  1.6011
  437MOL0     H57630   7.508   9.406   6.347 -2.8064 -1.2575 -0.6022
  437MOL0     H57631   7.543   9.627   6.405  0.7094 -1.9904 -1.0084
  437MOL0     H57632   7.514   9.597   6.582 -1.9472 -0.7888  0.9443
  437MOL0     H57633   7.305   9.577   6.371  0.2115 -1.5424  0.6268
  437MOL0     H57634   7.279   9.559   6.549  1.2741 -0.9822 -0.2323
  437MOL0     H57635   7.362   9.806   6.390  0.2655 -1.2884 -1.4446
  437MOL0     H57636   7.386   9.801   6.564 -0.4926 -0.7392 -0.5003
  437MOL0     H57637   7.140   9.831   6.714 -1.1557 -3.5512  0.9149
  437MOL0     H57638   6.921   9.950   6.748  1.7207 -0.3585  0.3159
  437MOL0     H57639   6.786   9.908   6.647  1.4527 -2.8367 -0.4423
  437MOL0     H57640   6.883  10.108   6.505 -1.1251  0.9837 -0.2377
  437MOL0     H57641   6.966  10.154   6.660  1.0103 -0.7008 -0.9802
  437MOL0     H57642   6.758  10.274   6.653 -1.3489 -0.3935  0.0054
  437MOL0     H57643   6.674  10.148   6.576 -1.6835  1.1510  1.5442
  437MOL0     H57644   6.744  10.164   6.868  0.7228 -2.3464 -0.5727
  437MOL0     H57645   6.659  10.024   6.807 -2.5424  0.5054  2.0569
  437MOL0     H57646   6.494   9.945   6.679 -0.5998  0.1516  0.9032
  437MOL0     H57647   6.292   9.905   6.548 -0.7878 -0.5690  1.3747
  437MOL0     H57648   5.907   9.793   6.298 -1.5193 -0.1880 -0.2451
  437MOL0     H57649   5.654   9.768   6.321 -2.7386  1.0141 -0.0492
  437MOL0     H57650   5.462  10.040   6.529  0.3940 -0.2532 -0.0514
  437MOL0     H57651   5.455   9.946   6.676 -0.0685  3.8664  0.7691
  437MOL0     H57652   5.264   9.817   6.556 -2.6069  0.0316 -2.7031
  437MOL0     H57653   5.280   9.946   6.431 -0.2761  0.2172 -0.4351
  437MOL0     H57654   5.243  10.103   6.606  0.1271 -0.8883 -1.0019
  437MOL0     H57655   5.198   9.994   6.736  2.8562  0.8352  0.6224
  437MOL0     H57656   5.064   9.993   6.461  2.4136 -0.0944  0.0631
  437MOL0     H57657   5.016   9.908   6.606 -2.0785  0.7447  0.1234
  437MOL0     H57658   5.049  10.206   6.596  0.5625 -0.0921 -0.9166
  437MOL0     H57659   4.953  10.119   6.717  0.0346  2.7850 -0.4611
  437MOL0     H57660   4.815  10.057   6.506 -1.0438  0.9736 -0.5692
  437MOL0     H57661   4.894  10.197   6.430 -0.8280  2.2898  1.4608
  437MOL0     H57662   4.721  10.216   6.668  0.0851  1.6894  0.1376
  437MOL0     H57663   4.822  10.347   6.607 -1.3097  1.4893  0.2793
  437MOL0     H57664   4.620  10.213   6.414  2.4369  0.4360 -3.0410
  437MOL0     H57665   4.725  10.336   6.378 -1.0976 -0.7665 -0.1812
  437MOL0     H57666   5.662   9.964   6.684 -0.4674  1.8881 -0.7797
  437MOL0     H57667   5.916   9.998   6.676  0.8185  0.6401 -1.3110
  437MOL0     H57668   6.157  10.298   6.617 -1.4703 -0.8969  0.6547
  437MOL0     H57669   6.363  10.353   6.743  0.6727 -0.3723  1.5195
  437MOL0     H57670   8.075   9.760   6.642  1.6724  2.4750  1.7987
  437MOL0     H57671   8.302   9.862   6.670  2.7749  0.1051 -0.8291
  437MOL0     H57672   8.905   9.738   6.585 -0.6650 -0.0177 -0.5779
  437MOL0     H57673   9.057   9.928   6.610  0.7298 -0.5493 -1.2328
  437MOL0     H57674   9.032  10.380   6.612 -0.3244  0.8856 -1.1102
  437MOL0     H57675   8.864  10.329   6.580 -0.8597 -2.9560 -1.7331
  437MOL0     H57676   8.894  10.330   6.340 -0.5557  1.8278  0.4872
  437MOL0     H57677   8.927  10.471   6.433 -2.4164 -1.4306  0.2336
  437MOL0     H57678   9.083  10.386   6.227 -1.2045 -1.7839 -0.0178
  437MOL0     H57679   9.157  10.285   6.351 -1.6939 -0.8722 -0.9854
  437MOL0     H57680   9.306  10.459   6.342  0.0713  0.5774 -0.5915
  437MOL0     H57681   9.176  10.588   6.317 -0.9262 -0.1098  0.6730
  437MOL0     H57682   9.197  10.599   6.732 -0.6710 -0.6985  0.3631
  437MOL0     H57683   8.763  10.188   6.443 -0.2756 -0.6629 -1.2493
  437MOL0     H57684   8.601  10.008   6.443  0.4633  0.9059 -0.5953
  438MOL0     O57685   4.846   3.270   5.255 -0.3509  0.1004  0.3012
  438MOL0     C57686   4.934   3.230   5.176  0.3512  0.1350  0.0880
  438MOL0     O57687   4.912   3.164   5.061  0.2230  0.3435 -0.1581
  438MOL0     C57688   4.783   3.131   5.043  0.3609  0.3986  1.6679
  438MOL0     C57689   4.693   3.205   4.963  0.2597  0.5816 -0.0185
  438MOL0     C57690   4.575   3.156   4.922  0.9214 -0.3633  0.4887
  438MOL0     C57691   4.516   3.054   4.998  0.4270  0.6888 -0.2863
  438MOL0     O57692   4.381   3.023   4.986  0.3703 -0.8539  0.1314
  438MOL0     C57693   4.314   3.065   4.871 -0.1580  0.2478  0.0827
  438MOL0     C57694   4.183   2.987   4.881  0.4708 -0.4680 -0.3208
  438MOL0     C57695   4.107   3.013   4.750 -0.6760  0.3981  0.0104
  438MOL0     C57696   4.001   2.897   4.748 -0.2072  0.3545  0.6606
  438MOL0     C57697   3.900   2.883   4.870  0.4852 -0.1281  0.9709
  438MOL0     C57698   3.777   2.788   4.851  0.1758 -0.7679 -0.5472
  438MOL0     C57699   3.685   2.837   4.736  0.0702  0.6718 -0.1333
  438MOL0     C57700   3.584   2.724   4.718 -0.3885 -0.4668  0.1363
  438MOL0     N57701   3.617   2.644   4.596  0.4465  0.0577 -0.5241
  438MOL0     C57702   3.701   2.534   4.586 -0.8251  0.0873  0.0900
  438MOL0     C57703   3.709   2.512   4.449 -0.1493  0.1174 -0.7974
  438MOL0     C57704   3.779   2.412   4.378 -0.2714  0.0875  0.2174
  438MOL0     C57705   3.718   2.360   4.244  0.1375 -0.2309 -0.3904
  438MOL0     C57706   3.575   2.303   4.260 -0.4236  0.2316 -0.0560
  438MOL0     C57707   3.569   2.148   4.272  0.7448 -0.3520  0.1970
  438MOL0     O57708   3.441   2.111   4.214  0.1751  0.5278  0.0935
  438MOL0     C57709   3.387   1.987   4.236  0.4597 -0.0094  0.0625
  438MOL0     C57710   3.253   1.986   4.218  0.4923  0.0908 -0.0423
  438MOL0     C57711   3.185   1.866   4.241  0.9605  1.1581  0.1255
  438MOL0     C57712   3.254   1.741   4.262 -1.1189  0.8146  0.1740
  438MOL0     C57713   3.181   1.614   4.270 -0.7362 -0.4732 -0.5481
  438MOL0     O57714   3.047   1.629   4.263 -0.2994  0.7049  0.8015
  438MOL0     C57715   2.966   1.517   4.272 -0.2916  0.9781  0.0234
  438MOL0     C57716   2.970   1.422   4.378  0.9723 -0.4002 -0.7932
  438MOL0     C57717   2.885   1.308   4.376 -0.3214 -0.0430 -0.1536
  438MOL0     C57718   2.794   1.290   4.276 -0.1773  0.3080 -0.6575
  438MOL0     O57719   2.714   1.181   4.296 -0.0474 -0.0411  0.6208
  438MOL0     C57720   2.575   1.186   4.247  0.0783 -0.1518 -0.4597
  438MOL0     C57721   2.520   1.048   4.273  0.3194  0.0781  0.9942
  438MOL0     C57722   2.602   0.932   4.221  0.4298 -0.2291 -0.1104
  438MOL0     C57723   2.550   0.787   4.248  0.6186 -0.5606  0.8068
  438MOL0     C57724   2.640   0.677   4.206  0.4606 -0.2485 -0.8681
  438MOL0     C57725   2.589   0.541   4.259 -0.4000 -0.4576  0.3616
  438MOL0     C57726   2.630   0.527   4.402 -0.4568  0.2333 -0.6566
  438MOL0     C57727   2.586   0.394   4.463 -0.5289 -0.0651 -0.0470
  438MOL0    Cl57728   2.660   0.365   4.622  0.4696 -0.0883  0.2773
  438MOL0     C57729   2.787   1.380   4.168  0.0365 -0.3686  0.3813
  438MOL0     C57730   2.878   1.493   4.163  0.1254 -0.2422 -0.6964
  438MOL0     O57731   3.249   1.511   4.243 -0.0220 -0.1240 -0.0598
  438MOL0     C57732   3.399   1.743   4.282  0.6536  0.4128  0.4982
  438MOL0     C57733   3.460   1.869   4.275  0.0124  0.7803 -0.1183
  438MOL0     N57734   3.629   2.604   4.382  0.0517 -0.6575  0.8553
  438MOL0     N57735   3.581   2.688   4.470 -0.3074  0.3387 -0.4351
  438MOL0     C57736   4.590   2.994   5.101 -0.2621 -0.5562 -0.0852
  438MOL0     C57737   4.725   3.031   5.110 -0.7721  0.2302 -0.1247
  438MOL0     C57738   5.078   3.269   5.204 -0.1385  0.2223 -0.5749
  438MOL0     C57739   5.110   3.324   5.328  0.1507  0.3416  0.2561
  438MOL0     C57740   5.239   3.369   5.365 -0.0457  0.6511  0.0973
  438MOL0     C57741   5.347   3.351   5.271  0.3472 -0.8080 -0.7113
  438MOL0     O57742   5.475   3.376   5.314 -0.3540 -0.7185 -0.3190
  438MOL0     C57743   5.574   3.274   5.286 -0.1743  0.0900 -0.5906
  438MOL0     C57744   5.546   3.149   5.374  0.5132 -0.0350 -1.0765
  438MOL0     C57745   5.546   3.194   5.525  1.3845  0.1504  0.8541
  438MOL0     C57746   5.556   3.071   5.615  0.8148  0.0617  0.0587
  438MOL0     C57747   5.610   3.095   5.749 -0.1276 -0.3939 -0.7871
  438MOL0     C57748   5.673   3.109   5.854  0.4446  0.4837  0.3683
  438MOL0     C57749   5.312   3.296   5.151  0.3907  1.1005 -0.1051
  438MOL0     C57750   5.185   3.253   5.104 -1.5584  0.2541 -0.1538
  438MOL0     H57751   4.729   3.295   4.915  2.1682  0.7377  1.5663
  438MOL0     H57752   4.519   3.207   4.844 -2.6852 -0.7547  2.6033
  438MOL0     H57753   4.375   3.038   4.785  1.4574  1.5303  0.7650
  438MOL0     H57754   4.290   3.172   4.877 -2.6283 -0.3477  2.7122
  438MOL0     H57755   4.129   3.020   4.970  1.6755 -0.6213  0.4827
  438MOL0     H57756   4.206   2.880   4.882 -2.7627 -1.3522  3.5762
  438MOL0     H57757   4.165   3.022   4.658 -2.7406  1.1532 -1.2766
  438MOL0     H57758   4.054   3.108   4.759 -2.2135 -0.4439  0.2812
  438MOL0     H57759   3.938   2.911   4.659 -2.4820 -2.6300  1.6553
  438MOL0     H57760   4.050   2.801   4.731  1.1351  0.7003  2.3167
  438MOL0     H57761   3.858   2.982   4.887 -2.2347 -0.5230 -2.3018
  438MOL0     H57762   3.951   2.849   4.961  0.5091 -2.2605  0.2239
  438MOL0     H57763   3.728   2.788   4.949  0.7425 -2.2843 -0.2199
  438MOL0     H57764   3.825   2.692   4.828 -0.8769 -0.9611 -2.0628
  438MOL0     H57765   3.636   2.932   4.761  0.7254  0.7471  0.9300
  438MOL0     H57766   3.740   2.849   4.642  2.9590 -0.9898  1.2117
  438MOL0     H57767   3.488   2.772   4.698  0.6597  1.8311  0.1941
  438MOL0     H57768   3.578   2.676   4.816  0.1651  0.3797  0.6001
  438MOL0     H57769   3.753   2.472   4.659 -1.0044  1.9084  1.8394
  438MOL0     H57770   3.786   2.332   4.452  1.5977  0.4215  0.4666
  438MOL0     H57771   3.880   2.447   4.351  1.1978 -2.6385  1.7710
  438MOL0     H57772   3.787   2.287   4.200  1.9237  1.2462 -0.1819
  438MOL0     H57773   3.701   2.439   4.171 -1.8804  1.0799  1.3669
  438MOL0     H57774   3.549   2.344   4.358  0.7044 -2.7503  1.6278
  438MOL0     H57775   3.512   2.337   4.178  1.8294  3.5320 -0.6111
  438MOL0     H57776   3.563   2.110   4.374  0.0949  2.1327  1.1627
  438MOL0     H57777   3.651   2.104   4.215  0.6338 -1.2963  0.7546
  438MOL0     H57778   3.197   2.074   4.190  0.4475 -0.5965 -2.3047
  438MOL0     H57779   3.077   1.870   4.249  0.8491 -1.6224  0.9156
  438MOL0     H57780   3.048   1.433   4.453  0.8178  0.1104 -0.7054
  438MOL0     H57781   2.888   1.224   4.445  0.4294  0.4547  0.4218
  438MOL0     H57782   2.564   1.231   4.148 -1.4124  0.5013 -0.0133
  438MOL0     H57783   2.531   1.258   4.315  1.1939 -2.4664  2.9831
  438MOL0     H57784   2.424   1.043   4.220 -1.4005 -3.1721  4.0052
  438MOL0     H57785   2.509   1.039   4.381 -1.3786 -2.3633  0.7060
  438MOL0     H57786   2.700   0.936   4.268  0.4779 -0.3425 -0.1990
  438MOL0     H57787   2.629   0.949   4.116  1.6241  1.5789  0.4589
  438MOL0     H57788   2.524   0.771   4.353 -2.4745 -0.8530  0.1075
  438MOL0     H57789   2.450   0.781   4.204  0.2284  2.3451  1.0938
  438MOL0     H57790   2.742   0.697   4.236  0.3717 -0.2515 -0.5676
  438MOL0     H57791   2.633   0.675   4.096 -1.1724 -0.5152 -0.7959
  438MOL0     H57792   2.640   0.474   4.189 -2.1868 -0.1567 -1.3366
  438MOL0     H57793   2.481   0.529   4.244 -0.3759  0.7316 -0.9437
  438MOL0     H57794   2.739   0.533   4.409 -0.5831  0.5476  2.0915
  438MOL0     H57795   2.592   0.607   4.467  4.1144  0.0008  2.7946
  438MOL0     H57796   2.602   0.305   4.401  3.1342  0.4764 -0.0820
  438MOL0     H57797   2.478   0.396   4.484 -0.3112  0.0207  1.1286
  438MOL0     H57798   2.733   1.366   4.075  0.3439 -0.9329  0.2822
  438MOL0     H57799   2.884   1.569   4.086  3.7818  2.8511  2.2440
  438MOL0     H57800   3.449   1.650   4.304  2.7840  0.9098 -1.7355
  438MOL0     H57801   3.566   1.880   4.294  0.2722 -1.6071  0.2242
  438MOL0     H57802   4.548   2.911   5.156 -0.7591  0.4595  1.1211
  438MOL0     H57803   4.778   2.972   5.184  0.1783  1.0942 -0.0939
  438MOL0     H57804   5.030   3.341   5.399  0.5124 -0.6689  0.9455
  438MOL0     H57805   5.261   3.415   5.461  0.0037  2.7745 -0.8749
  438MOL0     H57806   5.679   3.302   5.297  0.3474 -2.2337  1.0943
  438MOL0     H57807   5.565   3.235   5.184  3.1638 -2.0125 -0.2373
  438MOL0     H57808   5.458   3.092   5.343  3.3831 -3.7086 -3.3449
  438MOL0     H57809   5.632   3.084   5.356  1.8193  2.2352 -3.8245
  438MOL0     H57810   5.455   3.246   5.556  1.3789  3.0481 -3.2571
  438MOL0     H57811   5.639   3.251   5.538 -0.7880  3.9478  1.2020
  438MOL0     H57812   5.457   3.029   5.635 -0.2205  2.8153  1.2424
  438MOL0     H57813   5.607   2.995   5.555 -0.6284 -0.5981 -0.3814
  438MOL0     H57814   5.714   3.137   5.949 -1.9526  0.2952  1.5184
  438MOL0     H57815   5.391   3.276   5.080 -1.8581 -0.1070 -2.4203
  438MOL0     H57816   5.178   3.200   5.010 -2.2262 -0.8200  0.4839
  439MOL0     O57817   6.183  10.098   3.430 -0.2909 -0.2569 -0.4120
  439MOL0     C57818   6.208  10.088   3.313  0.2550 -1.1346  0.3614
  439MOL0     O57819   6.117  10.075   3.221  0.0679 -0.1286 -0.5294
  439MOL0     C57820   5.990  10.043   3.260  0.6457 -0.1573  0.3138
  439MOL0     C57821   5.960   9.918   3.322  0.0419  0.3350  0.5910
  439MOL0     C57822   5.826   9.883   3.347  0.2272 -0.8352  0.3425
  439MOL0     C57823   5.714   9.963   3.327 -0.2283 -1.3015  0.5842
  439MOL0     O57824   5.581   9.934   3.339 -0.6457 -0.2880 -0.5638
  439MOL0     C57825   5.555   9.833   3.444  0.3665 -0.0496  0.2410
  439MOL0     C57826   5.407   9.805   3.447 -0.3500  0.6999 -0.0037
  439MOL0     C57827   5.373   9.738   3.320 -0.7476  0.1763 -0.2232
  439MOL0     C57828   5.224   9.702   3.319  0.2908 -0.3969 -0.2766
  439MOL0     C57829   5.181   9.632   3.200 -1.0170 -0.4050 -0.4073
  439MOL0     C57830   5.057   9.549   3.234 -1.0820 -0.3698 -0.7807
  439MOL0     C57831   5.023   9.483   3.107 -0.4002 -0.8256  0.3817
  439MOL0     C57832   4.886   9.415   3.108  1.1578  0.0547  0.3296
  439MOL0     N57833   4.779   9.510   3.140  0.3256  0.7887 -0.2899
  439MOL0     C57834   4.774   9.642   3.108 -0.6296  0.1773  0.3948
  439MOL0     C57835   4.668   9.700   3.160 -0.4810 -0.2177  0.0639
  439MOL0     C57836   4.624   9.840   3.138 -1.2516  0.1931 -1.1092
  439MOL0     C57837   4.724   9.948   3.178  0.3703 -0.4441  1.5620
  439MOL0     C57838   4.793   9.910   3.318 -0.3614 -0.1263 -0.5312
  439MOL0     C57839   4.890  10.011   3.379  0.0847  0.4323  0.5727
  439MOL0     O57840   5.009  10.004   3.297 -0.0208  0.0142 -0.1707
  439MOL0     C57841   5.105  10.107   3.314 -0.8397  0.7974 -0.0004
  439MOL0     C57842   5.230  10.072   3.251 -0.4080 -0.1462 -0.7774
  439MOL0     C57843   5.342  10.161   3.259 -0.1944  0.6144 -0.3946
  439MOL0     C57844   5.328  10.282   3.331  0.0116  0.4204 -0.4492
  439MOL0     C57845   5.437  10.384   3.344  0.0956  0.6968  0.2754
  439MOL0     O57846   5.543  10.364   3.256  0.5562 -0.5993 -0.9294
  439MOL0     C57847   5.647  10.454   3.270  0.2886  0.0882  0.3361
  439MOL0     C57848   5.765  10.426   3.346 -0.4912 -0.4772 -0.4231
  439MOL0     C57849   5.855  10.525   3.352 -0.1794  0.0247  0.5135
  439MOL0     C57850   5.849  10.653   3.274 -0.2944 -0.1332  0.1541
  439MOL0     O57851   5.941  10.757   3.282  0.3452  0.7065 -0.2472
  439MOL0     C57852   6.077  10.741   3.265  0.0629 -0.3374 -0.3564
  439MOL0     C57853   6.161  10.776   3.382 -0.6716 -0.1033 -0.0540
  439MOL0     C57854   6.145  10.923   3.418  0.5148 -0.6071  0.4475
  439MOL0     C57855   6.198  10.938   3.555  0.2456 -0.0792  0.7856
  439MOL0     C57856   6.191  11.089   3.596  0.3945 -0.1045 -0.1857
  439MOL0     C57857   6.302  11.168   3.534 -0.3912 -1.1276 -0.2548
  439MOL0     C57858   6.286  11.322   3.545  0.4245  0.0926  0.5694
  439MOL0     C57859   6.411  11.406   3.509  0.1137 -0.4888 -0.0163
  439MOL0    Cl57860   6.352  11.507   3.352  0.1617 -0.3722 -0.2501
  439MOL0     C57861   5.734  10.668   3.194  0.1679  0.4096 -0.1730
  439MOL0     C57862   5.630  10.573   3.196 -0.3901  1.2808 -0.7359
  439MOL0     O57863   5.425  10.484   3.411 -0.0979  0.4343  0.4137
  439MOL0     C57864   5.207  10.307   3.401  0.2971  0.7160 -0.4251
  439MOL0     C57865   5.095  10.222   3.399 -0.4330  0.6864  0.1111
  439MOL0     N57866   4.604   9.596   3.228  0.3001 -0.3978 -0.4095
  439MOL0     N57867   4.679   9.488   3.219 -0.5059 -0.3270 -0.6626
  439MOL0     C57868   5.744  10.090   3.262  0.3056 -0.0018 -0.7032
  439MOL0     C57869   5.884  10.126   3.235 -0.7465  0.4489 -0.7046
  439MOL0     C57870   6.343  10.098   3.268  0.5096  0.5416 -0.5872
  439MOL0     C57871   6.446  10.184   3.314  0.5926 -0.3802  1.1605
  439MOL0     C57872   6.578  10.169   3.266 -0.0710  0.8146 -0.7319
  439MOL0     C57873   6.622  10.054   3.201 -0.7883  0.4929  0.4871
  439MOL0     O57874   6.758  10.036   3.183  0.4560  0.3335  0.1932
  439MOL0     C57875   6.800   9.920   3.109  0.2994 -0.3922 -0.2298
  439MOL0     C57876   6.947   9.904   3.133 -0.5927  0.5730  0.1314
  439MOL0     C57877   7.024   9.835   3.021 -0.1889  0.9643  0.1350
  439MOL0     C57878   7.161   9.812   3.072  0.2771  0.5951 -0.5281
  439MOL0     C57879   7.234   9.935   3.076 -0.7334 -0.1921 -0.0758
  439MOL0     C57880   7.290  10.040   3.077  0.6245  0.0766 -1.2791
  439MOL0     C57881   6.526   9.965   3.166 -0.8291 -0.6363 -1.3392
  439MOL0     C57882   6.389   9.987   3.187  0.1408  0.3383  0.4344
  439MOL0     H57883   6.042   9.850   3.344 -0.3823 -0.2349  0.4254
  439MOL0     H57884   5.810   9.790   3.400 -1.7951 -0.6859  0.0849
  439MOL0     H57885   5.602   9.873   3.535 -0.7729  0.5149  0.6092
  439MOL0     H57886   5.603   9.735   3.436 -0.9927 -0.9510  2.1586
  439MOL0     H57887   5.356   9.902   3.455 -0.6211  0.4425  1.8541
  439MOL0     H57888   5.381   9.743   3.533 -1.1989 -1.6796 -1.8339
  439MOL0     H57889   5.443   9.658   3.295 -0.5161  0.1559  0.4861
  439MOL0     H57890   5.388   9.802   3.232 -3.5780  1.0638 -0.1758
  439MOL0     H57891   5.202   9.650   3.413 -1.1146 -1.1949 -1.0155
  439MOL0     H57892   5.165   9.793   3.331  0.6953  0.2595 -2.7362
  439MOL0     H57893   5.259   9.562   3.169  1.3370 -0.5502  4.8039
  439MOL0     H57894   5.157   9.707   3.124  0.3397  0.7953  0.3011
  439MOL0     H57895   4.973   9.604   3.278  0.9375  0.3866  2.4454
  439MOL0     H57896   5.089   9.472   3.304 -2.7524  0.9852  1.6545
  439MOL0     H57897   5.022   9.558   3.028 -0.0836  0.3888  1.4863
  439MOL0     H57898   5.099   9.407   3.082  1.0023  1.2485 -2.1519
  439MOL0     H57899   4.895   9.335   3.181  0.5741 -1.6672 -1.4082
  439MOL0     H57900   4.857   9.374   3.011 -0.8845 -0.6248  1.1725
  439MOL0     H57901   4.857   9.691   3.058 -0.0316 -0.2562  0.9392
  439MOL0     H57902   4.534   9.856   3.199 -1.3394 -0.6001 -1.0213
  439MOL0     H57903   4.596   9.850   3.033  0.7225 -0.5005 -1.7373
  439MOL0     H57904   4.661  10.037   3.184  1.0910  0.1913  0.2770
  439MOL0     H57905   4.792   9.960   3.093  0.5017  0.8839  1.8310
  439MOL0     H57906   4.718   9.904   3.397  0.3901  0.9299  0.2978
  439MOL0     H57907   4.848   9.816   3.311 -0.6059 -0.6131  2.6284
  439MOL0     H57908   4.916   9.997   3.485  0.8693  1.3087  0.5103
  439MOL0     H57909   4.856  10.114   3.376  1.3258  0.8402 -0.3735
  439MOL0     H57910   5.228   9.980   3.193 -3.4158  0.1075 -1.2152
  439MOL0     H57911   5.435  10.135   3.209 -1.4166 -2.8075 -1.2377
  439MOL0     H57912   5.771  10.338   3.408 -2.2076 -0.4579 -0.1821
  439MOL0     H57913   5.945  10.502   3.407  1.4828 -1.0059 -2.4312
  439MOL0     H57914   6.115  10.807   3.186  0.7635 -0.0397  0.2140
  439MOL0     H57915   6.109  10.638   3.249  0.2114 -0.1918 -1.0326
  439MOL0     H57916   6.264  10.752   3.354 -0.1132 -0.1360  1.8813
  439MOL0     H57917   6.128  10.706   3.460  0.9032  0.1945  0.9141
  439MOL0     H57918   6.042  10.960   3.416  1.8828  3.7669 -0.2491
  439MOL0     H57919   6.196  10.987   3.345  1.6640 -1.6924  0.2725
  439MOL0     H57920   6.134  10.881   3.623  2.1065  0.3442  3.0200
  439MOL0     H57921   6.296  10.891   3.563  0.0433 -0.5894  0.3358
  439MOL0     H57922   6.208  11.104   3.703 -3.9808  5.1251  0.2047
  439MOL0     H57923   6.098  11.140   3.571 -1.1123 -3.0503 -1.0836
  439MOL0     H57924   6.306  11.143   3.428 -1.1744 -1.2911 -0.2458
  439MOL0     H57925   6.394  11.147   3.590  0.0912 -0.5932 -0.8240
  439MOL0     H57926   6.201  11.343   3.479 -0.5105 -1.5305  1.1961
  439MOL0     H57927   6.256  11.349   3.647 -2.2394  0.9390 -0.3558
  439MOL0     H57928   6.502  11.356   3.476 -1.1515 -0.7537 -3.6733
  439MOL0     H57929   6.423  11.493   3.574 -3.6891 -0.3775  0.7600
  439MOL0     H57930   5.713  10.758   3.138  0.6391  0.2334 -0.6343
  439MOL0     H57931   5.553  10.588   3.121  1.2395  0.5164 -2.6603
  439MOL0     H57932   5.214  10.387   3.474  1.7937  0.5282 -0.3298
  439MOL0     H57933   5.004  10.241   3.456  0.4500  1.4642  1.3135
  439MOL0     H57934   5.654  10.148   3.243  0.9578  0.7080 -1.7283
  439MOL0     H57935   5.902  10.228   3.202  1.8388  0.7436  1.2985
  439MOL0     H57936   6.417  10.272   3.371 -0.2943  0.9674 -1.1913
  439MOL0     H57937   6.651  10.244   3.294 -0.6633  0.4443  2.1967
  439MOL0     H57938   6.782   9.941   3.003  0.9082  1.8789  0.0624
  439MOL0     H57939   6.741   9.834   3.141  2.5424 -1.6741  0.6558
  439MOL0     H57940   6.992  10.002   3.152 -0.0470 -0.0432  2.3402
  439MOL0     H57941   6.957   9.850   3.228 -0.4378  1.1106  0.4242
  439MOL0     H57942   7.023   9.890   2.927 -1.3358  1.7648  0.5802
  439MOL0     H57943   6.974   9.739   3.005  2.8946 -0.3404 -3.1082
  439MOL0     H57944   7.159   9.768   3.172 -0.9132 -0.9080 -1.1745
  439MOL0     H57945   7.215   9.745   3.004  1.5050  0.6999  0.2995
  439MOL0     H57946   7.345  10.128   3.106 -1.0392  0.5329  0.6456
  439MOL0     H57947   6.546   9.871   3.116  0.2638 -1.5091  0.6168
  439MOL0     H57948   6.323   9.910   3.150 -0.6050  1.1456  0.0638
  440MOL0     O57949   7.369   7.751   4.053  0.5977 -0.1600  0.2842
  440MOL0     C57950   7.413   7.697   4.156 -0.1133  0.0363 -0.4455
  440MOL0     O57951   7.348   7.681   4.277  0.6248  0.0168 -0.2431
  440MOL0     C57952   7.211   7.695   4.284  0.1694  0.2679  0.2942
  440MOL0     C57953   7.116   7.677   4.178 -0.5655 -0.1130  0.9689
  440MOL0     C57954   6.982   7.674   4.206  0.2540 -0.7462 -0.9784
  440MOL0     C57955   6.937   7.712   4.328  0.8271 -0.1473 -0.9686
  440MOL0     O57956   6.801   7.747   4.348  0.4014  0.5380  0.0632
  440MOL0     C57957   6.722   7.673   4.442  0.4351 -0.4220 -0.3615
  440MOL0     C57958   6.619   7.767   4.506  0.3101  0.4332  0.0275
  440MOL0     C57959   6.481   7.772   4.431 -1.3225 -0.3281 -1.5471
  440MOL0     C57960   6.407   7.898   4.476 -0.3291  0.1220 -0.5528
  440MOL0     C57961   6.276   7.899   4.391  0.5472  0.2522 -1.0508
  440MOL0     C57962   6.193   8.025   4.409  0.1546  0.2055  0.2236
  440MOL0     C57963   6.075   7.999   4.323  0.3525 -0.2219  0.9372
  440MOL0     C57964   5.973   8.116   4.334 -0.8434 -0.0592  0.0851
  440MOL0     N57965   5.855   8.114   4.247 -0.1233  0.6922  0.2207
  440MOL0     C57966   5.832   8.172   4.125 -0.0216 -0.8994  0.0894
  440MOL0     C57967   5.707   8.159   4.105 -0.3994  0.0026  0.4502
  440MOL0     C57968   5.639   8.207   3.976 -0.3902  0.1127 -1.1306
  440MOL0     C57969   5.642   8.362   3.970  0.6511  0.3425  0.0551
  440MOL0     C57970   5.570   8.417   3.837 -0.2714 -0.2961  0.1828
  440MOL0     C57971   5.639   8.355   3.715  0.4820  0.3070  0.7345
  440MOL0     O57972   5.581   8.424   3.598  0.0322  0.5675  0.5054
  440MOL0     C57973   5.649   8.421   3.471 -0.3852 -0.1995  0.2216
  440MOL0     C57974   5.766   8.345   3.453  1.0226 -0.0658  0.7528
  440MOL0     C57975   5.840   8.356   3.335  0.1379  0.2532 -0.1667
  440MOL0     C57976   5.809   8.433   3.233  0.1506 -0.4700 -0.2129
  440MOL0     C57977   5.908   8.460   3.119 -0.5278  0.2060  0.0259
  440MOL0     O57978   6.035   8.396   3.129 -0.1267 -0.7589  0.3789
  440MOL0     C57979   6.132   8.429   3.038  0.2732 -0.2948 -1.2969
  440MOL0     C57980   6.223   8.328   3.005  0.4689 -0.8336 -0.2620
  440MOL0     C57981   6.338   8.348   2.937 -0.3233 -0.7712 -0.4668
  440MOL0     C57982   6.377   8.481   2.893 -1.0674  0.0134 -0.0861
  440MOL0     O57983   6.488   8.512   2.816  0.0285 -0.2948 -0.2370
  440MOL0     C57984   6.560   8.396   2.763  0.2628 -0.2990 -0.7632
  440MOL0     C57985   6.670   8.450   2.667 -0.9282  1.0114  0.8109
  440MOL0     C57986   6.612   8.551   2.570 -0.2025  0.1441  0.4253
  440MOL0     C57987   6.508   8.491   2.461  0.1531  0.1345 -0.2876
  440MOL0     C57988   6.493   8.578   2.337 -0.3281 -0.0910  0.1330
  440MOL0     C57989   6.595   8.583   2.226  0.1083 -0.0462 -0.3566
  440MOL0     C57990   6.644   8.438   2.186  0.3966  0.5973 -0.1604
  440MOL0     C57991   6.730   8.430   2.062 -0.2822  0.3487  1.1685
  440MOL0    Cl57992   6.895   8.511   2.078  0.0528 -0.4851 -0.0854
  440MOL0     C57993   6.289   8.583   2.925 -0.0517  0.2507 -0.5830
  440MOL0     C57994   6.168   8.560   2.997  0.5334 -0.1116 -0.2796
  440MOL0     O57995   5.876   8.547   3.036 -0.7388  0.8068 -0.1213
  440MOL0     C57996   5.690   8.508   3.250  0.2823  0.5015  0.0192
  440MOL0     C57997   5.607   8.494   3.362  0.5754  0.3415  0.2266
  440MOL0     N57998   5.647   8.089   4.212  0.3325 -0.1371 -0.1863
  440MOL0     N57999   5.742   8.066   4.295  0.6616  0.7509 -0.5291
  440MOL0     C58000   7.027   7.724   4.437  0.6927  0.3943 -0.2580
  440MOL0     C58001   7.162   7.709   4.411 -0.7009 -0.4270 -0.4585
  440MOL0     C58002   7.542   7.628   4.146 -0.8433  0.2944  0.6121
  440MOL0     C58003   7.647   7.669   4.053  0.2502 -0.9553 -0.7032
  440MOL0     C58004   7.773   7.607   4.046 -0.8747 -0.0728  0.0262
  440MOL0     C58005   7.797   7.498   4.134 -0.0487  0.0386  0.1256
  440MOL0     O58006   7.913   7.430   4.141 -0.3331  0.6370 -0.5692
  440MOL0     C58007   7.981   7.400   4.015  0.2726 -0.0182 -0.4651
  440MOL0     C58008   7.896   7.316   3.921 -0.2673 -0.3373 -0.1886
  440MOL0     C58009   7.893   7.173   3.985  0.6755  0.2044 -0.1206
  440MOL0     C58010   7.806   7.068   3.895  0.4703 -0.5276  0.0808
  440MOL0     C58011   7.664   7.109   3.885 -0.5440  0.2660  0.3933
  440MOL0     C58012   7.553   7.136   3.874 -0.6357 -0.1043 -0.0016
  440MOL0     C58013   7.712   7.478   4.239  0.7415 -0.8635 -0.5108
  440MOL0     C58014   7.585   7.534   4.236 -0.9427 -0.4512 -0.3621
  440MOL0     H58015   7.133   7.646   4.076 -0.0533  3.8751 -0.3033
  440MOL0     H58016   6.910   7.651   4.128 -1.7724 -1.5818  1.0293
  440MOL0     H58017   6.781   7.627   4.522 -1.4824 -1.3464  0.5850
  440MOL0     H58018   6.661   7.600   4.388 -1.6500  1.5751 -0.8745
  440MOL0     H58019   6.663   7.867   4.500 -0.6978  0.9025  0.2742
  440MOL0     H58020   6.592   7.744   4.609  0.7802 -1.0111 -0.1484
  440MOL0     H58021   6.426   7.681   4.453 -1.9145  0.1230 -1.1277
  440MOL0     H58022   6.505   7.779   4.324  1.9769 -1.5428 -0.9851
  440MOL0     H58023   6.387   7.895   4.583  1.1628  0.2410 -0.2407
  440MOL0     H58024   6.471   7.986   4.462 -1.0740  0.7533 -0.0761
  440MOL0     H58025   6.209   7.830   4.443  0.8966 -0.5781 -1.6708
  440MOL0     H58026   6.291   7.873   4.285 -0.6027  3.3742 -2.0732
  440MOL0     H58027   6.257   8.107   4.375 -1.0127 -0.2578 -3.6446
  440MOL0     H58028   6.161   8.029   4.513 -1.8408  0.4010 -0.3486
  440MOL0     H58029   6.109   7.980   4.221  1.5198  0.3830  1.1971
  440MOL0     H58030   6.032   7.906   4.361  1.7249 -0.9591  0.7518
  440MOL0     H58031   6.007   8.220   4.341 -1.7134  0.1658  1.5060
  440MOL0     H58032   5.937   8.118   4.438 -2.0253  1.4672 -0.2973
  440MOL0     H58033   5.899   8.228   4.061  3.2481 -4.8167 -0.3429
  440MOL0     H58034   5.535   8.174   3.983 -0.1160 -0.5617  0.0972
  440MOL0     H58035   5.700   8.170   3.893 -0.6687  0.5813 -1.5488
  440MOL0     H58036   5.747   8.392   3.967  1.4718 -2.3674 -0.8521
  440MOL0     H58037   5.594   8.409   4.057 -3.4832  4.4015 -3.8125
  440MOL0     H58038   5.467   8.383   3.844  0.4704 -2.3287  2.0873
  440MOL0     H58039   5.571   8.526   3.833  1.3804 -0.2442  0.9332
  440MOL0     H58040   5.630   8.247   3.704  1.9486  0.0332  1.9122
  440MOL0     H58041   5.748   8.364   3.724  0.6597 -0.9199  0.0038
  440MOL0     H58042   5.798   8.274   3.528 -0.7147  0.2819  1.9031
  440MOL0     H58043   5.927   8.291   3.332 -0.2679 -0.3325  0.4538
  440MOL0     H58044   6.196   8.226   3.030 -2.6477 -0.6790 -2.4600
  440MOL0     H58045   6.394   8.259   2.911  0.2081 -0.3534 -0.7730
  440MOL0     H58046   6.482   8.337   2.716 -2.2901  1.3035  1.2028
  440MOL0     H58047   6.614   8.341   2.841  0.4128 -0.3198 -0.8807
  440MOL0     H58048   6.716   8.368   2.610 -1.0478  2.4024 -1.3764
  440MOL0     H58049   6.756   8.492   2.721 -2.3744  2.4390  2.0948
  440MOL0     H58050   6.697   8.577   2.507 -1.9465  1.9112 -1.3442
  440MOL0     H58051   6.585   8.638   2.630  1.7370  0.9026  0.2653
  440MOL0     H58052   6.526   8.386   2.437  0.5223  0.0720  0.2533
  440MOL0     H58053   6.406   8.495   2.499 -0.0992 -0.6062 -0.8633
  440MOL0     H58054   6.469   8.679   2.374 -0.8098 -1.6684  4.7293
  440MOL0     H58055   6.397   8.562   2.287 -1.1171  0.7561  1.2914
  440MOL0     H58056   6.683   8.633   2.267  0.6010 -1.4419  0.3216
  440MOL0     H58057   6.539   8.634   2.147 -0.2572  0.0012 -0.0707
  440MOL0     H58058   6.701   8.385   2.263 -1.3811 -0.2787  0.6160
  440MOL0     H58059   6.549   8.387   2.169 -0.9008  1.7155  2.9900
  440MOL0     H58060   6.669   8.488   1.992  0.5553  1.3753  1.2771
  440MOL0     H58061   6.740   8.330   2.018 -4.1452 -0.1737  1.0853
  440MOL0     H58062   6.312   8.686   2.900  0.3392 -0.0671 -1.5772
  440MOL0     H58063   6.107   8.645   3.025  0.0986  0.1466 -1.9015
  440MOL0     H58064   5.659   8.581   3.176  0.7668 -0.2894 -0.9925
  440MOL0     H58065   5.520   8.558   3.374 -0.3335 -1.1303  1.8499
  440MOL0     H58066   6.997   7.743   4.539  1.3462 -1.3453  0.2936
  440MOL0     H58067   7.234   7.721   4.492 -0.4150  2.0792 -0.9975
  440MOL0     H58068   7.634   7.756   3.990  1.2974 -0.1543  0.1544
  440MOL0     H58069   7.846   7.651   3.978 -1.5277 -1.5733 -1.7247
  440MOL0     H58070   8.072   7.347   4.045  0.0612 -1.0005 -1.4875
  440MOL0     H58071   8.003   7.496   3.968 -1.0683  0.6014  0.1419
  440MOL0     H58072   7.790   7.345   3.910 -0.8917 -1.2379  2.6974
  440MOL0     H58073   7.947   7.318   3.825  1.2406  0.2241  0.5965
  440MOL0     H58074   7.845   7.168   4.083 -0.2158  1.7601 -0.4567
  440MOL0     H58075   7.996   7.139   3.998  0.1560 -0.4726  2.9741
  440MOL0     H58076   7.849   7.070   3.795 -0.0615  3.4263 -0.2562
  440MOL0     H58077   7.810   6.971   3.944 -0.5447  0.2664  1.8339
  440MOL0     H58078   7.448   7.153   3.864 -0.6078 -0.3364 -0.7471
  440MOL0     H58079   7.740   7.399   4.307  0.8753 -1.0371 -0.7641
  440MOL0     H58080   7.509   7.495   4.303 -0.3964 -1.5144 -0.3408
  441MOL0     O58081   3.008   6.433   1.737 -0.1160  1.0498 -1.0974
  441MOL0     C58082   3.003   6.553   1.747  0.7739  0.2082 -0.0594
  441MOL0     O58083   2.896   6.631   1.701 -0.1052  0.5960  0.3210
  441MOL0     C58084   2.771   6.582   1.661  0.1285  0.6715 -1.0773
  441MOL0     C58085   2.682   6.680   1.642  0.7834 -0.5250 -0.2180
  441MOL0     C58086   2.554   6.659   1.589  0.0023  0.2189 -0.2767
  441MOL0     C58087   2.515   6.527   1.559 -1.5114  0.6333  0.9041
  441MOL0     O58088   2.393   6.490   1.520  0.3584  0.1181 -0.1918
  441MOL0     C58089   2.318   6.578   1.431 -0.1914 -0.0350  0.4134
  441MOL0     C58090   2.188   6.516   1.395  0.8103 -0.0874 -0.1622
  441MOL0     C58091   2.096   6.508   1.520  1.0096 -0.6986 -0.3164
  441MOL0     C58092   1.946   6.498   1.459 -0.5610 -0.1226 -0.2111
  441MOL0     C58093   1.887   6.643   1.439  0.6893 -0.0113  0.4729
  441MOL0     C58094   1.770   6.635   1.344 -0.0330 -0.4575 -0.4388
  441MOL0     C58095   1.657   6.546   1.404  0.1985  0.8502 -0.3368
  441MOL0     C58096   1.531   6.537   1.316  0.1301  0.2386  0.0852
  441MOL0     N58097   1.467   6.676   1.283 -1.1276  0.5668 -0.4940
  441MOL0     C58098   1.501   6.795   1.331 -0.9683 -1.2023 -0.9462
  441MOL0     C58099   1.396   6.874   1.288  0.2439  0.2239  0.0907
  441MOL0     C58100   1.391   7.020   1.317  0.0176 -0.6609  0.8841
  441MOL0     C58101   1.509   7.083   1.234  0.0874 -0.8632 -0.5526
  441MOL0     C58102   1.624   7.106   1.334  0.2214  0.1813  0.2838
  441MOL0     C58103   1.747   7.148   1.266 -0.5826  0.4078 -1.2406
  441MOL0     O58104   1.820   7.047   1.195 -0.1289  0.3519  0.3416
  441MOL0     C58105   1.933   7.091   1.129  0.7743 -0.0018  0.4387
  441MOL0     C58106   1.950   7.212   1.061 -0.3118 -0.3987  0.4901
  441MOL0     C58107   2.072   7.250   1.013 -0.1344 -0.0686  0.7130
  441MOL0     C58108   2.182   7.158   1.016 -0.4328  0.6635 -0.6360
  441MOL0     C58109   2.311   7.202   0.964  0.1737  0.0696  1.2980
  441MOL0     O58110   2.313   7.268   0.851 -0.4336  0.7156 -0.3255
  441MOL0     C58111   2.412   7.352   0.814 -0.7123 -0.7336  0.4801
  441MOL0     C58112   2.489   7.435   0.909  0.5489 -0.2645 -1.0851
  441MOL0     C58113   2.595   7.526   0.869  0.7028  0.1099 -0.4010
  441MOL0     C58114   2.617   7.542   0.736  0.4059  0.7876 -0.4708
  441MOL0     O58115   2.707   7.633   0.691 -0.6426 -0.0179 -0.2163
  441MOL0     C58116   2.833   7.569   0.661  0.1072 -0.9655 -0.0332
  441MOL0     C58117   2.928   7.685   0.615  1.2716 -0.3825 -0.4265
  441MOL0     C58118   3.062   7.674   0.681 -0.4089 -0.0482  0.8742
  441MOL0     C58119   3.129   7.538   0.680  0.0364  0.4924 -0.3831
  441MOL0     C58120   3.171   7.485   0.542  0.6987 -0.1703 -0.4943
  441MOL0     C58121   3.242   7.348   0.555 -0.0162  0.3161 -0.2765
  441MOL0     C58122   3.243   7.267   0.417  0.5899 -0.5775 -0.6971
  441MOL0     C58123   3.176   7.132   0.434  0.4697  0.3576 -0.2082
  441MOL0    Cl58124   3.004   7.145   0.465  0.3431  0.0086 -0.4363
  441MOL0     C58125   2.550   7.458   0.646 -0.2694  0.8779  0.4051
  441MOL0     C58126   2.453   7.369   0.678  0.0425  0.1358 -0.3056
  441MOL0     O58127   2.412   7.169   1.024 -0.2250 -0.4474 -0.1540
  441MOL0     C58128   2.157   7.032   1.079  0.2853 -0.3507  0.0183
  441MOL0     C58129   2.033   7.003   1.128 -0.0425  0.4302 -0.7294
  441MOL0     N58130   1.322   6.796   1.196  0.7829  0.7504  0.3738
  441MOL0     N58131   1.358   6.677   1.199 -0.4128 -0.3234  0.5139
  441MOL0     C58132   2.603   6.419   1.593 -0.0507 -0.1437  0.6106
  441MOL0     C58133   2.736   6.449   1.637  0.4523 -0.2260 -0.2226
  441MOL0     C58134   3.110   6.621   1.829 -0.8442 -0.1146  0.2581
  441MOL0     C58135   3.205   6.527   1.891 -0.0980  0.7334  0.6221
  441MOL0     C58136   3.333   6.565   1.932 -0.1493 -0.1967 -0.5397
  441MOL0     C58137   3.371   6.697   1.926  0.1252  0.2873  0.5186
  441MOL0     O58138   3.486   6.744   1.955 -0.2323  0.2006  0.3421
  441MOL0     C58139   3.581   6.674   2.035 -0.1790  0.2948  0.8622
  441MOL0     C58140   3.700   6.767   2.053  0.0300 -0.7649  0.7532
  441MOL0     C58141   3.673   6.893   2.136 -0.2532 -0.0454  0.9951
  441MOL0     C58142   3.777   7.005   2.118 -0.1475  1.8126 -0.4616
  441MOL0     C58143   3.910   6.946   2.174 -0.4685 -0.3109 -1.0183
  441MOL0     C58144   4.013   6.891   2.188  0.1333  0.4701 -0.0038
  441MOL0     C58145   3.278   6.792   1.862 -0.0939  0.0684  0.2095
  441MOL0     C58146   3.155   6.751   1.812 -0.3403 -0.2324  0.2009
  441MOL0     H58147   2.709   6.782   1.666  0.8233  0.3032 -3.3660
  441MOL0     H58148   2.488   6.742   1.565  0.7017  0.5031 -1.2532
  441MOL0     H58149   2.378   6.591   1.340 -1.1075 -0.0927 -0.2040
  441MOL0     H58150   2.292   6.676   1.472 -1.0833  0.4259 -1.1565
  441MOL0     H58151   2.216   6.419   1.353 -0.2021  0.6159 -2.6622
  441MOL0     H58152   2.142   6.571   1.312  1.8893  1.1567  0.0324
  441MOL0     H58153   2.093   6.591   1.590  0.1153 -0.7172 -0.3274
  441MOL0     H58154   2.132   6.414   1.563  1.5620 -1.1978 -1.7896
  441MOL0     H58155   1.947   6.454   1.359 -1.3436 -1.7196  0.4407
  441MOL0     H58156   1.879   6.432   1.516 -0.1987 -0.7176 -0.4596
  441MOL0     H58157   1.967   6.703   1.396  0.0791 -1.3973 -2.9698
  441MOL0     H58158   1.865   6.684   1.538  0.8821 -0.7369  0.8274
  441MOL0     H58159   1.805   6.576   1.259  4.0052 -0.6173  1.1083
  441MOL0     H58160   1.735   6.730   1.303  0.0075  0.3534  1.3306
  441MOL0     H58161   1.687   6.442   1.415  2.1114  1.2696 -1.1615
  441MOL0     H58162   1.622   6.575   1.503  1.0604  0.8773 -0.0334
  441MOL0     H58163   1.463   6.472   1.372  1.7472  0.0952  1.9977
  441MOL0     H58164   1.551   6.487   1.221 -3.0265 -0.0059 -0.5427
  441MOL0     H58165   1.589   6.809   1.394 -1.2032 -3.6634  0.0602
  441MOL0     H58166   1.402   7.040   1.424  0.2920  0.8367  0.6098
  441MOL0     H58167   1.295   7.056   1.278  1.6525  1.9894 -1.0978
  441MOL0     H58168   1.481   7.172   1.178 -1.2763 -1.0524 -0.1984
  441MOL0     H58169   1.542   7.011   1.158 -0.7021  0.1988 -1.9261
  441MOL0     H58170   1.597   7.188   1.401  1.9797  1.1255 -0.1085
  441MOL0     H58171   1.637   7.011   1.387  1.2102  1.0662  1.7208
  441MOL0     H58172   1.816   7.195   1.337 -3.2980  2.2923  0.3014
  441MOL0     H58173   1.705   7.223   1.198 -0.0745  1.8495 -0.0117
  441MOL0     H58174   1.863   7.277   1.061 -0.5959 -0.7684 -0.2360
  441MOL0     H58175   2.093   7.343   0.961  3.1514  0.0153  1.9576
  441MOL0     H58176   2.456   7.433   1.012  1.9143 -1.5573 -0.6194
  441MOL0     H58177   2.656   7.577   0.943 -0.2879  0.5509  0.1404
  441MOL0     H58178   2.828   7.491   0.584  3.2739  0.6472 -2.0885
  441MOL0     H58179   2.857   7.509   0.749  1.0705 -2.2037 -1.0893
  441MOL0     H58180   2.889   7.779   0.655  2.1851 -0.4225  0.6003
  441MOL0     H58181   2.938   7.677   0.506 -2.8253 -1.8214 -0.8647
  441MOL0     H58182   3.037   7.696   0.785 -0.7127  0.3580  0.7149
  441MOL0     H58183   3.124   7.758   0.648 -0.0858  0.0601  1.7355
  441MOL0     H58184   3.213   7.547   0.750 -3.2617  3.9063  3.7084
  441MOL0     H58185   3.068   7.462   0.730  1.8852 -0.0866  1.1403
  441MOL0     H58186   3.239   7.559   0.500  0.5530 -0.0805 -0.5698
  441MOL0     H58187   3.085   7.483   0.475 -0.7581 -0.6122  1.2885
  441MOL0     H58188   3.192   7.292   0.635  1.5098  0.6034  0.9369
  441MOL0     H58189   3.342   7.351   0.601  0.6860  2.2230 -1.7983
  441MOL0     H58190   3.199   7.316   0.330 -0.0957 -1.6147 -0.9657
  441MOL0     H58191   3.347   7.259   0.384  1.1624  2.3443  0.1116
  441MOL0     H58192   3.203   7.082   0.528  1.8369  1.1233 -0.1695
  441MOL0     H58193   3.190   7.069   0.346  1.7652 -0.0707  0.2672
  441MOL0     H58194   2.590   7.454   0.545 -3.1910 -0.1935 -0.7976
  441MOL0     H58195   2.411   7.301   0.604 -1.8824 -2.1194  2.6142
  441MOL0     H58196   2.238   6.960   1.080  0.9483  0.2321 -2.7622
  441MOL0     H58197   2.023   6.907   1.177  2.9317  1.3207  1.9768
  441MOL0     H58198   2.576   6.315   1.578  2.3047 -0.4496 -2.2861
  441MOL0     H58199   2.805   6.366   1.651  1.1422  0.1831 -1.1126
  441MOL0     H58200   3.187   6.420   1.882  0.8094  0.7503 -3.7751
  441MOL0     H58201   3.395   6.486   1.973 -1.6822 -1.5707 -0.7730
  441MOL0     H58202   3.616   6.575   2.003 -0.4053 -0.1044  1.8201
  441MOL0     H58203   3.528   6.666   2.130 -1.6801 -4.4395 -0.1238
  441MOL0     H58204   3.769   6.705   2.110  3.1128 -0.9896 -2.8257
  441MOL0     H58205   3.747   6.785   1.955  0.7142 -1.3564  0.9672
  441MOL0     H58206   3.673   6.882   2.245 -3.3537  3.9456  1.6178
  441MOL0     H58207   3.579   6.941   2.108  0.3704 -0.4900 -2.2632
  441MOL0     H58208   3.792   7.035   2.014  0.1076  4.3391  0.2246
  441MOL0     H58209   3.763   7.103   2.164  0.2681  1.7125 -0.1174
  441MOL0     H58210   4.108   6.842   2.195 -0.1274 -0.2335 -1.2147
  441MOL0     H58211   3.301   6.898   1.862 -3.6622  0.9873  0.4343
  441MOL0     H58212   3.094   6.809   1.743  1.8350 -1.7844 -3.3227
  442MOL0     O58213  11.198   1.665   6.694 -0.4867  0.1389 -0.6840
  442MOL0     C58214  11.097   1.657   6.770 -0.2045  0.4398  0.3693
  442MOL0     O58215  11.099   1.662   6.912  0.4749 -0.5286  0.8061
  442MOL0     C58216  11.223   1.673   6.967 -0.6372  0.0050 -0.2732
  442MOL0     C58217  11.286   1.560   7.009 -0.9827 -0.0382  0.4444
  442MOL0     C58218  11.404   1.565   7.078 -0.1023  0.1486  0.0777
  442MOL0     C58219  11.460   1.685   7.111 -0.6817 -0.3029 -0.7628
  442MOL0     O58220  11.591   1.673   7.160  0.2413  0.8658  0.2171
  442MOL0     C58221  11.695   1.765   7.127  0.1300 -0.4358  0.1335
  442MOL0     C58222  11.834   1.699   7.113 -0.9479 -0.4003 -0.2666
  442MOL0     C58223  11.897   1.655   7.247 -0.4294  0.3344 -0.7055
  442MOL0     C58224  12.005   1.549   7.223  0.4746  0.2988  0.4420
  442MOL0     C58225  12.106   1.600   7.121 -0.7561 -0.2440 -0.5169
  442MOL0     C58226  12.232   1.500   7.135  0.4724  0.4456 -0.7752
  442MOL0     C58227  12.340   1.506   7.037 -0.2111 -0.7865 -0.5484
  442MOL0     C58228  12.294   1.456   6.897 -0.8367 -0.6258  0.4951
  442MOL0     N58229  12.392   1.477   6.788  0.5370 -0.1720  0.4812
  442MOL0     C58230  12.449   1.593   6.744  0.2624  0.7101  0.7658
  442MOL0     C58231  12.536   1.553   6.642 -0.5366  0.0191  0.2152
  442MOL0     C58232  12.632   1.643   6.572  1.1956  0.3965  0.4025
  442MOL0     C58233  12.593   1.643   6.421 -0.7553 -0.0091 -0.2375
  442MOL0     C58234  12.702   1.675   6.321  0.7796  0.6520 -0.3580
  442MOL0     C58235  12.789   1.795   6.366  0.8719 -0.3405 -0.8795
  442MOL0     O58236  12.715   1.913   6.408  0.4241  0.2931 -0.2042
  442MOL0     C58237  12.638   1.963   6.303 -0.6132 -1.4542  0.0523
  442MOL0     C58238  12.515   2.035   6.331  0.0158 -1.1488  0.5212
  442MOL0     C58239  12.435   2.079   6.227  0.4071  0.4497  0.5938
  442MOL0     C58240  12.476   2.069   6.090 -0.4631 -0.7819  0.3283
  442MOL0     C58241  12.396   2.123   5.980 -0.0970 -0.3334 -0.9620
  442MOL0     O58242  12.451   2.116   5.862 -0.1698  0.1764 -0.1433
  442MOL0     C58243  12.380   2.152   5.754  0.6003  0.3579 -1.0106
  442MOL0     C58244  12.360   2.288   5.733 -1.4768  0.2150  0.2785
  442MOL0     C58245  12.295   2.326   5.611  0.9970  0.4430 -0.2072
  442MOL0     C58246  12.252   2.234   5.519  0.0067  0.9362  0.0897
  442MOL0     O58247  12.191   2.286   5.401 -0.0886  0.0159 -0.7893
  442MOL0     C58248  12.185   2.190   5.297  0.4692  0.3405  0.8115
  442MOL0     C58249  12.117   2.238   5.177 -0.9371 -0.0832  0.7689
  442MOL0     C58250  12.220   2.322   5.088 -0.1759 -0.6812 -1.0146
  442MOL0     C58251  12.241   2.260   4.955 -0.8780  0.1955  0.2174
  442MOL0     C58252  12.339   2.346   4.877 -0.0184  0.6551  0.8665
  442MOL0     C58253  12.354   2.308   4.731 -0.2209  0.3410 -0.4860
  442MOL0     C58254  12.490   2.370   4.683  0.4317  0.6808  0.9424
  442MOL0     C58255  12.511   2.352   4.528  0.9425  0.4033 -1.1512
  442MOL0    Cl58256  12.419   2.472   4.440  0.5710 -0.0176 -0.5129
  442MOL0     C58257  12.281   2.096   5.542  0.2065  0.1097  0.7744
  442MOL0     C58258  12.341   2.051   5.660  0.3789 -1.5071 -1.1423
  442MOL0     O58259  12.283   2.169   6.007  0.0609  0.2505  0.2178
  442MOL0     C58260  12.594   2.012   6.069 -0.7532 -0.1614  0.9209
  442MOL0     C58261  12.677   1.966   6.163 -0.5352 -0.3078  0.5071
  442MOL0     N58262  12.528   1.418   6.630 -0.2230  1.2480 -0.0808
  442MOL0     N58263  12.427   1.373   6.714  0.6808 -1.1858 -0.1124
  442MOL0     C58264  11.398   1.804   7.072 -0.8543  0.1692  0.8607
  442MOL0     C58265  11.287   1.794   6.995  1.1977 -0.3867 -0.4639
  442MOL0     C58266  10.968   1.652   6.694 -0.1617  0.9701 -0.0292
  442MOL0     C58267  10.962   1.609   6.562  0.6011 -1.0177  1.0497
  442MOL0     C58268  10.841   1.585   6.498 -0.6402  0.5032 -0.7747
  442MOL0     C58269  10.719   1.615   6.568  0.0115  0.4034  0.2626
  442MOL0     O58270  10.599   1.581   6.500  0.0103 -0.3845 -0.1308
  442MOL0     C58271  10.460   1.614   6.551  0.4115 -0.1494 -0.2023
  442MOL0     C58272  10.407   1.524   6.660  0.4668  0.2617  0.5834
  442MOL0     C58273  10.309   1.426   6.602 -0.0147 -0.3032  0.0810
  442MOL0     C58274  10.229   1.346   6.714 -0.3142  0.2527  0.0263
  442MOL0     C58275  10.313   1.267   6.802 -0.6929 -0.1735 -0.3301
  442MOL0     C58276  10.368   1.200   6.891 -0.5489  0.1892  0.3014
  442MOL0     C58277  10.727   1.641   6.708  0.6792  0.0236  0.8306
  442MOL0     C58278  10.848   1.664   6.771  0.2939 -0.2499  1.1885
  442MOL0     H58279  11.250   1.459   6.993 -0.7393 -0.3323  1.6697
  442MOL0     H58280  11.446   1.468   7.101 -2.8093 -0.5979  2.4749
  442MOL0     H58281  11.697   1.843   7.204 -0.6400 -0.5943  0.3320
  442MOL0     H58282  11.670   1.813   7.032  0.1461 -2.5173 -0.9838
  442MOL0     H58283  11.911   1.765   7.071 -0.6272 -0.8321 -0.3634
  442MOL0     H58284  11.818   1.619   7.040  2.9649 -0.6232 -1.1133
  442MOL0     H58285  11.824   1.606   7.312 -1.0747  1.1652 -0.7905
  442MOL0     H58286  11.947   1.742   7.291 -1.4678  0.5279  0.1073
  442MOL0     H58287  12.051   1.523   7.319 -1.9312 -0.3327  1.5020
  442MOL0     H58288  11.964   1.454   7.186 -1.6345  0.3766  2.3807
  442MOL0     H58289  12.122   1.708   7.129 -4.8281  0.3580  2.4832
  442MOL0     H58290  12.064   1.588   7.020  0.1649 -0.3140 -0.9030
  442MOL0     H58291  12.193   1.398   7.137 -1.0719  0.8956  3.6700
  442MOL0     H58292  12.274   1.514   7.235  3.3455 -3.5550 -1.2136
  442MOL0     H58293  12.383   1.606   7.028  1.7278 -1.6116 -0.9819
  442MOL0     H58294  12.423   1.443   7.070 -1.5852 -4.0463 -2.7591
  442MOL0     H58295  12.201   1.506   6.870  0.6391  1.7305 -0.5470
  442MOL0     H58296  12.279   1.348   6.910  1.7505 -1.6825 -3.4461
  442MOL0     H58297  12.433   1.695   6.777  0.2991  0.6824  0.8695
  442MOL0     H58298  12.728   1.593   6.590  1.3746  0.4358 -0.4020
  442MOL0     H58299  12.642   1.745   6.609  1.7642  1.1845 -1.7681
  442MOL0     H58300  12.503   1.703   6.404 -2.2075 -1.4989  1.6349
  442MOL0     H58301  12.567   1.539   6.399  1.8823 -0.4826 -1.5150
  442MOL0     H58302  12.768   1.590   6.301  0.3479  0.3340 -0.4515
  442MOL0     H58303  12.658   1.702   6.224 -1.3561 -2.9421 -0.5569
  442MOL0     H58304  12.861   1.812   6.286  2.2492  0.8709  0.5714
  442MOL0     H58305  12.838   1.752   6.454 -2.7745 -0.6267  1.2344
  442MOL0     H58306  12.496   2.039   6.438 -3.9768  1.1701 -0.0767
  442MOL0     H58307  12.345   2.133   6.252 -1.3797 -2.1057  0.1030
  442MOL0     H58308  12.393   2.361   5.806 -2.3208 -1.2247  2.1913
  442MOL0     H58309  12.266   2.427   5.582 -1.3350  0.3611  1.5505
  442MOL0     H58310  12.129   2.105   5.337 -0.5459  0.9692  0.7588
  442MOL0     H58311  12.283   2.149   5.272  0.8824  2.3910 -1.2493
  442MOL0     H58312  12.032   2.306   5.191 -1.1525 -0.1693 -0.0497
  442MOL0     H58313  12.075   2.154   5.120 -3.2996 -0.3087  2.6685
  442MOL0     H58314  12.314   2.320   5.144 -1.4838 -0.3154  1.3458
  442MOL0     H58315  12.194   2.427   5.077 -1.8626 -0.7705  1.2773
  442MOL0     H58316  12.283   2.159   4.959  1.9449  1.2462 -0.6543
  442MOL0     H58317  12.141   2.251   4.910 -0.1841 -0.1679 -1.2945
  442MOL0     H58318  12.438   2.346   4.924 -0.3262  0.9042  1.5366
  442MOL0     H58319  12.301   2.448   4.885  0.0746  0.7807 -0.2441
  442MOL0     H58320  12.280   2.366   4.675  0.7033  1.2814 -0.7669
  442MOL0     H58321  12.360   2.200   4.715  1.2666 -0.2596  3.1449
  442MOL0     H58322  12.488   2.480   4.686 -1.5072  0.6671  1.1188
  442MOL0     H58323  12.580   2.329   4.730  1.6528  2.0916 -0.0432
  442MOL0     H58324  12.485   2.251   4.496 -1.4775 -0.6450  3.2503
  442MOL0     H58325  12.619   2.361   4.511  1.7069 -0.4967  2.3965
  442MOL0     H58326  12.261   2.016   5.473 -1.2126 -1.4553  2.8824
  442MOL0     H58327  12.357   1.946   5.679  2.7959 -1.3063 -1.7098
  442MOL0     H58328  12.639   2.021   5.970  2.1848  1.5938  2.2723
  442MOL0     H58329  12.773   1.920   6.141  0.8582  1.3276  2.7654
  442MOL0     H58330  11.443   1.898   7.101  2.2882 -1.2635  1.0186
  442MOL0     H58331  11.235   1.880   6.956 -0.1468 -1.1010 -0.3098
  442MOL0     H58332  11.053   1.574   6.514  0.2663 -0.3731 -0.1063
  442MOL0     H58333  10.833   1.539   6.400 -1.2883  0.8576 -0.8960
  442MOL0     H58334  10.391   1.628   6.467 -1.7042 -1.0862  1.3025
  442MOL0     H58335  10.459   1.712   6.599 -1.1421 -1.4488  2.6559
  442MOL0     H58336  10.481   1.458   6.706  1.1662  1.2505  0.8903
  442MOL0     H58337  10.349   1.577   6.735 -1.6693 -2.1188  0.7581
  442MOL0     H58338  10.350   1.356   6.528 -3.2853 -2.2817 -0.0915
  442MOL0     H58339  10.236   1.491   6.553  2.5747  4.0226  1.4735
  442MOL0     H58340  10.176   1.406   6.788 -1.8256  0.0547 -0.8650
  442MOL0     H58341  10.149   1.280   6.678  0.9273 -0.1196 -2.2260
  442MOL0     H58342  10.424   1.142   6.961  1.1729 -2.2242 -2.7983
  442MOL0     H58343  10.639   1.637   6.771  0.1125  0.4809  0.0870
  442MOL0     H58344  10.846   1.682   6.878  1.1089 -1.1177  1.3688
  443MOL0     O58345  10.221   3.337   7.340 -0.5294  0.6880 -0.4916
  443MOL0     C58346  10.148   3.313   7.252 -0.8664 -0.1414 -0.7041
  443MOL0     O58347  10.197   3.233   7.150 -0.3403 -0.2560  0.5231
  443MOL0     C58348  10.316   3.155   7.164 -0.3416  0.0459 -0.0696
  443MOL0     C58349  10.433   3.195   7.104 -0.4728 -0.1043  0.2691
  443MOL0     C58350  10.555   3.123   7.125  0.4931 -0.1641 -0.3652
  443MOL0     C58351  10.559   2.998   7.188  0.1924  0.2366 -0.1624
  443MOL0     O58352  10.682   2.932   7.195 -0.4374  0.4492 -0.5381
  443MOL0     C58353  10.674   2.796   7.216  0.0541  0.1652  0.8473
  443MOL0     C58354  10.625   2.731   7.083  0.5226  0.2762 -0.3454
  443MOL0     C58355  10.664   2.587   7.081  0.1520  0.8044 -0.9796
  443MOL0     C58356  10.637   2.517   6.949  0.4428  0.4192  0.3148
  443MOL0     C58357  10.582   2.376   6.976  0.3541  0.3813  0.4154
  443MOL0     C58358  10.583   2.300   6.839 -0.0746 -0.2227  0.6069
  443MOL0     C58359  10.509   2.160   6.842 -0.5832  0.5427 -1.0710
  443MOL0     C58360  10.585   2.058   6.927 -0.6829 -0.5545 -0.0089
  443MOL0     N58361  10.504   1.933   6.948 -0.1995 -0.4561 -0.1118
  443MOL0     C58362  10.379   1.916   7.002 -0.2573  0.5126 -0.2790
  443MOL0     C58363  10.372   1.796   7.053  0.6389  0.0220  0.3296
  443MOL0     C58364  10.258   1.732   7.119 -0.4816  0.0854  1.1341
  443MOL0     C58365  10.286   1.583   7.133  0.0796  0.3320  0.8322
  443MOL0     C58366  10.193   1.516   7.231 -0.8719  0.4232 -0.3244
  443MOL0     C58367  10.206   1.359   7.236 -0.4285  0.1574  0.8310
  443MOL0     O58368  10.169   1.302   7.109  0.3014  0.1137 -0.2469
  443MOL0     C58369  10.034   1.260   7.085 -0.4241  0.0719 -0.0267
  443MOL0     C58370  10.014   1.177   6.973  0.2894  0.7652  0.0507
  443MOL0     C58371   9.886   1.117   6.949 -0.0232 -0.0612 -0.0735
  443MOL0     C58372   9.779   1.129   7.035 -0.8599  0.1092  0.5114
  443MOL0     C58373   9.663   1.041   7.033 -0.3015 -0.6599 -0.3676
  443MOL0     O58374   9.580   1.044   7.146  0.1026 -0.0472  0.1189
  443MOL0     C58375   9.459   0.977   7.147 -0.4187  0.0309 -0.8089
  443MOL0     C58376   9.419   0.919   7.265 -0.4269  0.0123  0.2109
  443MOL0     C58377   9.304   0.846   7.274  0.5251  0.6521  0.2786
  443MOL0     C58378   9.227   0.819   7.164  0.2548  0.8361  0.3667
  443MOL0     O58379   9.117   0.735   7.186 -0.2557 -1.0357 -0.0510
  443MOL0     C58380   9.002   0.739   7.090 -0.0050 -0.4433  0.8564
  443MOL0     C58381   8.887   0.660   7.151 -0.6195 -0.1703 -0.3273
  443MOL0     C58382   8.759   0.664   7.064 -0.2217  0.3377 -0.1854
  443MOL0     C58383   8.785   0.581   6.939 -0.3430 -1.3936 -0.0318
  443MOL0     C58384   8.674   0.587   6.836 -0.1117 -0.2019 -1.2818
  443MOL0     C58385   8.539   0.546   6.902 -0.3579  0.9926 -0.0996
  443MOL0     C58386   8.436   0.503   6.799 -0.5799  0.5526 -0.5596
  443MOL0     C58387   8.306   0.457   6.863  0.5287 -0.3269 -0.0084
  443MOL0    Cl58388   8.180   0.443   6.738  0.0597  0.1483  0.2632
  443MOL0     C58389   9.268   0.871   7.037  0.2375 -0.0888 -0.2034
  443MOL0     C58390   9.376   0.953   7.037 -0.8243 -0.3256  0.0124
  443MOL0     O58391   9.647   0.981   6.928  0.5200  0.4016  0.1392
  443MOL0     C58392   9.799   1.219   7.141  0.5353  0.7673 -0.5652
  443MOL0     C58393   9.917   1.287   7.164 -0.0555  0.5865 -0.1659
  443MOL0     N58394  10.479   1.725   7.011 -0.3429  0.2017 -0.0285
  443MOL0     N58395  10.558   1.808   6.957  0.1196  0.1872  0.2300
  443MOL0     C58396  10.439   2.959   7.256  0.7449 -0.6566 -0.2475
  443MOL0     C58397  10.321   3.037   7.237  0.2069 -1.2301  0.0666
  443MOL0     C58398  10.020   3.371   7.246 -0.5246  0.3800  0.3417
  443MOL0     C58399   9.961   3.381   7.120  0.4176 -0.6237 -0.8133
  443MOL0     C58400   9.840   3.452   7.107  0.4046 -0.2257 -0.0433
  443MOL0     C58401   9.764   3.506   7.216  0.0342 -0.3599 -0.1952
  443MOL0     O58402   9.652   3.570   7.197  0.1164 -0.0856  0.5339
  443MOL0     C58403   9.596   3.640   7.310  0.1042 -0.4434  0.7023
  443MOL0     C58404   9.491   3.732   7.253 -0.0718 -1.0512 -0.9315
  443MOL0     C58405   9.377   3.723   7.355 -0.1355 -0.6418 -0.4568
  443MOL0     C58406   9.266   3.828   7.324 -0.4796  0.2579  0.1930
  443MOL0     C58407   9.302   3.963   7.375 -0.6928  0.7179  0.0424
  443MOL0     C58408   9.324   4.060   7.436  0.2356 -0.4663  0.2698
  443MOL0     C58409   9.828   3.499   7.343 -0.0469  0.2826  0.7509
  443MOL0     C58410   9.951   3.432   7.352 -1.0394 -0.1518  0.0726
  443MOL0     H58411  10.436   3.284   7.041  1.3274  2.9093  4.1927
  443MOL0     H58412  10.645   3.158   7.076  1.1213  0.0643  0.9170
  443MOL0     H58413  10.617   2.778   7.307 -0.5603  1.7739  0.8020
  443MOL0     H58414  10.775   2.755   7.230  1.9207  3.7948 -0.6324
  443MOL0     H58415  10.673   2.782   6.999 -1.0918  3.8095  0.7137
  443MOL0     H58416  10.517   2.740   7.064  0.3029  0.1316  0.7832
  443MOL0     H58417  10.606   2.549   7.166 -2.5991  3.0243 -1.7377
  443MOL0     H58418  10.773   2.575   7.080  0.0471 -3.1534 -6.2219
  443MOL0     H58419  10.567   2.570   6.885  1.2487 -1.0022 -1.8518
  443MOL0     H58420  10.730   2.526   6.893 -0.2332  0.7971 -0.7784
  443MOL0     H58421  10.484   2.386   7.024  1.4666  4.6995  2.3031
  443MOL0     H58422  10.649   2.313   7.034  1.9535 -0.0574 -1.7843
  443MOL0     H58423  10.687   2.285   6.809  0.0531 -0.4034  1.1372
  443MOL0     H58424  10.523   2.354   6.765  1.9473  2.1090  0.5359
  443MOL0     H58425  10.407   2.173   6.881 -0.0458 -1.2679  1.1289
  443MOL0     H58426  10.511   2.114   6.743 -0.6894  1.1930 -1.3817
  443MOL0     H58427  10.612   2.104   7.023 -0.2271  1.0576 -0.8726
  443MOL0     H58428  10.687   2.042   6.889 -1.4632 -0.5090 -2.2630
  443MOL0     H58429  10.299   1.989   6.995 -0.3381  0.3462 -1.1455
  443MOL0     H58430  10.174   1.739   7.050 -0.2368 -2.6409  0.4315
  443MOL0     H58431  10.240   1.780   7.216 -0.9793 -0.0289  1.0984
  443MOL0     H58432  10.387   1.573   7.176  1.1632  2.1490 -1.0774
  443MOL0     H58433  10.278   1.532   7.036  0.3542  1.2569  0.3159
  443MOL0     H58434  10.223   1.564   7.324 -1.5092 -2.2328  1.3635
  443MOL0     H58435  10.091   1.551   7.211 -1.0856  0.3201  0.5264
  443MOL0     H58436  10.140   1.328   7.317 -4.3078  2.1751 -1.2494
  443MOL0     H58437  10.309   1.323   7.245 -1.5301 -3.5239  0.2903
  443MOL0     H58438  10.097   1.143   6.911  1.1199  1.5429  0.7136
  443MOL0     H58439   9.877   1.043   6.871  1.5295 -0.3175 -0.0384
  443MOL0     H58440   9.481   0.943   7.351 -0.7188  0.4067  0.3145
  443MOL0     H58441   9.271   0.815   7.373 -1.2012 -0.0571 -0.4829
  443MOL0     H58442   9.027   0.711   6.987 -0.7996 -1.3424  0.8887
  443MOL0     H58443   8.975   0.845   7.089  2.7209  0.3813  2.8522
  443MOL0     H58444   8.876   0.706   7.249 -2.0509 -0.7512 -0.1831
  443MOL0     H58445   8.907   0.552   7.152 -0.8839 -0.2497 -1.5150
  443MOL0     H58446   8.726   0.766   7.044 -2.4544 -0.0831  0.9570
  443MOL0     H58447   8.678   0.624   7.126  0.6012  1.0795  1.4062
  443MOL0     H58448   8.880   0.613   6.896 -0.4271 -0.0257  0.7410
  443MOL0     H58449   8.809   0.480   6.974  2.4196 -0.0285  2.4041
  443MOL0     H58450   8.697   0.522   6.751 -5.2545 -2.7653 -1.1543
  443MOL0     H58451   8.659   0.687   6.794 -0.5657 -0.3816 -1.5578
  443MOL0     H58452   8.504   0.637   6.952  1.4852  1.4573  0.4548
  443MOL0     H58453   8.552   0.461   6.970  0.0506  1.0105 -0.1479
  443MOL0     H58454   8.427   0.597   6.742  1.9089  1.2081  0.0273
  443MOL0     H58455   8.473   0.427   6.731 -1.3670  0.5892 -1.0486
  443MOL0     H58456   8.272   0.528   6.938  1.9192 -0.7167  1.0388
  443MOL0     H58457   8.314   0.353   6.897  3.1334 -1.9676 -4.6011
  443MOL0     H58458   9.223   0.838   6.944  0.1715  0.8312 -0.5127
  443MOL0     H58459   9.406   0.995   6.942 -3.3090  2.7236  0.4226
  443MOL0     H58460   9.722   1.234   7.216  0.9185 -2.4508  0.6386
  443MOL0     H58461   9.920   1.342   7.258  2.5580 -2.6322  1.8662
  443MOL0     H58462  10.417   2.865   7.307 -0.6971 -0.1291  0.1553
  443MOL0     H58463  10.224   3.002   7.272  0.8735 -2.6991  0.5162
  443MOL0     H58464  10.017   3.342   7.035  0.4055  0.1694 -1.1974
  443MOL0     H58465   9.806   3.468   7.005  0.2593  1.5066  0.2555
  443MOL0     H58466   9.670   3.709   7.352 -0.5710  1.3856 -0.9901
  443MOL0     H58467   9.563   3.581   7.397 -0.5363  0.8715  1.3770
  443MOL0     H58468   9.526   3.835   7.264 -1.2728 -0.3163 -3.3341
  443MOL0     H58469   9.470   3.721   7.146  1.2780  0.1821 -1.3603
  443MOL0     H58470   9.416   3.742   7.455 -0.6514 -0.7668 -0.2292
  443MOL0     H58471   9.332   3.623   7.358  1.0101 -1.1507  1.8917
  443MOL0     H58472   9.244   3.835   7.217 -0.6001  1.6564  0.2902
  443MOL0     H58473   9.181   3.799   7.386 -2.0134  2.7127 -0.6172
  443MOL0     H58474   9.331   4.157   7.483  0.3420  0.8931 -2.3830
  443MOL0     H58475   9.784   3.541   7.433 -0.9651 -1.0108  0.9450
  443MOL0     H58476   9.997   3.437   7.450  0.1214  3.7109 -0.5162
  444MOL0     O58477   0.819   9.292   2.154 -0.2280 -0.5210 -0.2138
  444MOL0     C58478   0.838   9.414   2.157 -0.2978  0.5422  0.8130
  444MOL0     O58479   0.763   9.507   2.221 -0.2784  1.2277  0.1648
  444MOL0     C58480   0.676   9.472   2.323  0.6487 -0.7742  0.2300
  444MOL0     C58481   0.604   9.581   2.356  0.0808 -0.8549 -0.5863
  444MOL0     C58482   0.506   9.573   2.458 -0.0046  0.3022 -0.1761
  444MOL0     C58483   0.474   9.443   2.508  0.6289  0.0605 -0.0377
  444MOL0     O58484   0.356   9.420   2.584  0.0092 -0.0503  0.0555
  444MOL0     C58485   0.397   9.414   2.720  0.8433 -0.1913 -1.2831
  444MOL0     C58486   0.275   9.404   2.821 -0.1619 -0.3589 -0.2901
  444MOL0     C58487   0.153   9.323   2.774 -0.2925  0.0619 -0.0403
  444MOL0     C58488   0.025   9.345   2.858  0.5261 -1.3252  1.2503
  444MOL0     C58489  -0.096   9.280   2.790  0.6148 -0.5098  0.6533
  444MOL0     C58490  -0.228   9.299   2.875 -0.4273 -0.7863  0.2649
  444MOL0     C58491  -0.356   9.219   2.818 -0.2753  0.1605  0.5208
  444MOL0     C58492  -0.365   9.226   2.659  0.1125 -0.4712 -0.4621
  444MOL0     N58493  -0.482   9.147   2.610 -0.7855 -0.1741  0.0230
  444MOL0     C58494  -0.615   9.178   2.613  0.1801 -0.2671 -0.6026
  444MOL0     C58495  -0.672   9.070   2.548  0.6548 -0.1071 -0.7521
  444MOL0     C58496  -0.822   9.056   2.517 -0.5469 -0.2345 -0.9178
  444MOL0     C58497  -0.853   9.085   2.369 -0.2414 -0.2145 -0.6145
  444MOL0     C58498  -0.970   9.172   2.343  0.1051 -0.3473  0.1489
  444MOL0     C58499  -1.102   9.094   2.373  0.3487  0.4094  0.6655
  444MOL0     O58500  -1.211   9.175   2.317 -0.7437 -0.5695  0.2122
  444MOL0     C58501  -1.337   9.122   2.302  0.5603 -0.4983 -1.0832
  444MOL0     C58502  -1.432   9.213   2.268  0.5970 -0.1996  0.5142
  444MOL0     C58503  -1.562   9.168   2.233  0.0048 -0.0525  0.0777
  444MOL0     C58504  -1.596   9.041   2.256 -0.0380  0.5344 -0.3251
  444MOL0     C58505  -1.733   8.993   2.231  0.6438  0.3402 -0.5257
  444MOL0     O58506  -1.820   9.073   2.169 -0.4684  1.5699 -0.1778
  444MOL0     C58507  -1.921   9.017   2.094 -0.7654  0.8610 -0.4744
  444MOL0     C58508  -1.908   8.889   2.029  0.2371  0.7613 -1.4861
  444MOL0     C58509  -2.007   8.835   1.955  0.2533 -0.4252  0.5272
  444MOL0     C58510  -2.130   8.896   1.941  0.4132 -0.3030  0.2807
  444MOL0     O58511  -2.223   8.821   1.880  0.3282  0.2207 -0.2479
  444MOL0     C58512  -2.369   8.853   1.861 -0.9827 -0.1701 -0.5486
  444MOL0     C58513  -2.441   8.718   1.859  0.1794  0.0334 -0.0249
  444MOL0     C58514  -2.562   8.723   1.951  0.4946  0.1165  0.0689
  444MOL0     C58515  -2.631   8.587   1.970  0.3805  0.6951  0.0193
  444MOL0     C58516  -2.729   8.607   2.090 -0.4796  0.7061 -0.8202
  444MOL0     C58517  -2.840   8.505   2.099  0.2926  0.0155  0.0961
  444MOL0     C58518  -2.788   8.360   2.123  0.5907  0.0261 -0.0169
  444MOL0     C58519  -2.675   8.344   2.230 -0.3115  0.3029  0.1684
  444MOL0    Cl58520  -2.729   8.367   2.393  0.1984  0.3327  0.2096
  444MOL0     C58521  -2.143   9.026   1.998 -0.6850 -0.7356  0.2545
  444MOL0     C58522  -2.034   9.090   2.062 -0.3606 -0.0495  0.1354
  444MOL0     O58523  -1.763   8.880   2.276  0.1661 -0.0918  0.5580
  444MOL0     C58524  -1.505   8.949   2.314 -0.1245  0.1321  0.1501
  444MOL0     C58525  -1.373   8.988   2.328  0.1314 -0.0626 -0.9612
  444MOL0     N58526  -0.575   8.988   2.499  0.5070 -0.5914 -0.4579
  444MOL0     N58527  -0.460   9.034   2.534  0.1626  0.3648 -0.2057
  444MOL0     C58528   0.550   9.337   2.476  0.0327 -0.3404  0.6995
  444MOL0     C58529   0.650   9.352   2.378 -0.2552  1.6416 -0.7655
  444MOL0     C58530   0.956   9.458   2.087 -0.0412 -0.1081  0.2092
  444MOL0     C58531   1.004   9.391   1.971  0.5540  0.4517 -0.2644
  444MOL0     C58532   1.118   9.441   1.905 -0.1316 -0.0694  0.3476
  444MOL0     C58533   1.185   9.555   1.954  0.5842  0.3993  0.0800
  444MOL0     O58534   1.294   9.596   1.883  0.4593 -0.1699  0.0353
  444MOL0     C58535   1.310   9.742   1.871  0.2568  0.1856  0.3478
  444MOL0     C58536   1.397   9.768   1.747 -0.5507  0.0993  0.1954
  444MOL0     C58537   1.545   9.737   1.786  1.3200  1.0206  0.5859
  444MOL0     C58538   1.654   9.800   1.700 -0.1765  0.3489 -0.6967
  444MOL0     C58539   1.640   9.938   1.656  0.6805 -0.0040  0.0902
  444MOL0     C58540   1.632  10.056   1.629 -0.1221 -0.2631  0.8040
  444MOL0     C58541   1.137   9.622   2.068 -1.3085 -0.0374  0.5146
  444MOL0     C58542   1.025   9.570   2.132 -1.1524 -0.1847  0.8357
  444MOL0     H58543   0.616   9.682   2.317  1.8396 -1.4885 -1.7593
  444MOL0     H58544   0.440   9.657   2.472 -0.5569 -0.1885  0.2220
  444MOL0     H58545   0.449   9.505   2.750 -0.4417  0.0342  0.4538
  444MOL0     H58546   0.478   9.345   2.744  0.9509  0.7814  1.4302
  444MOL0     H58547   0.243   9.508   2.832 -0.2329 -0.4018 -0.0881
  444MOL0     H58548   0.313   9.363   2.915 -0.1489  2.9606  1.3159
  444MOL0     H58549   0.180   9.217   2.784  0.6296  0.2576 -0.3379
  444MOL0     H58550   0.134   9.346   2.669  2.7351 -0.7518 -0.8716
  444MOL0     H58551   0.041   9.303   2.957  1.2066 -0.6109  1.4509
  444MOL0     H58552  -0.003   9.451   2.862 -3.9667 -2.2212 -0.6585
  444MOL0     H58553  -0.077   9.174   2.777 -1.7179 -1.0128  0.8468
  444MOL0     H58554  -0.104   9.328   2.692  2.4480  0.2801  0.8553
  444MOL0     H58555  -0.251   9.405   2.870  1.4576 -0.3266  0.7146
  444MOL0     H58556  -0.210   9.270   2.979  3.8363  1.1783  0.2992
  444MOL0     H58557  -0.340   9.114   2.844  2.3096  0.1466 -0.8403
  444MOL0     H58558  -0.453   9.252   2.858 -1.4355 -1.5953 -0.6993
  444MOL0     H58559  -0.278   9.184   2.608  1.1465  0.6516  0.3213
  444MOL0     H58560  -0.364   9.331   2.630  1.7104 -0.0244  1.0295
  444MOL0     H58561  -0.655   9.270   2.655  2.2937  1.1381 -1.4890
  444MOL0     H58562  -0.867   9.134   2.579 -0.2108 -1.5012  1.0174
  444MOL0     H58563  -0.869   8.962   2.549 -2.8405  1.2492  0.4298
  444MOL0     H58564  -0.872   8.996   2.307 -1.7877 -0.7612  0.5783
  444MOL0     H58565  -0.770   9.143   2.327  0.2064 -0.5116 -0.1477
  444MOL0     H58566  -0.963   9.269   2.394  2.8284  0.8064 -2.1575
  444MOL0     H58567  -0.964   9.216   2.243  0.2822 -1.1787 -0.2139
  444MOL0     H58568  -1.132   9.078   2.477 -4.2873 -1.1701 -0.6714
  444MOL0     H58569  -1.088   8.996   2.325  0.5456  1.2746 -1.1269
  444MOL0     H58570  -1.416   9.319   2.251 -2.0244  0.1229 -0.3647
  444MOL0     H58571  -1.636   9.240   2.201  0.2015 -0.2596 -0.8509
  444MOL0     H58572  -1.826   8.823   2.053 -0.0540  0.5380 -1.0883
  444MOL0     H58573  -1.998   8.732   1.922 -1.6797 -1.0763  1.8607
  444MOL0     H58574  -2.392   8.907   1.769  0.3980 -0.7066 -1.2417
  444MOL0     H58575  -2.397   8.918   1.944  0.4722  1.6336 -1.3930
  444MOL0     H58576  -2.381   8.635   1.897 -1.9460 -1.0087  1.1928
  444MOL0     H58577  -2.475   8.693   1.758  2.2965 -2.0009 -0.3269
  444MOL0     H58578  -2.619   8.810   1.916 -0.6284  0.0548  1.6276
  444MOL0     H58579  -2.520   8.751   2.048 -0.1157 -2.6271  1.2070
  444MOL0     H58580  -2.685   8.574   1.876  1.4746  0.2597 -0.5599
  444MOL0     H58581  -2.560   8.508   1.993  0.7085  0.7147 -0.8753
  444MOL0     H58582  -2.770   8.708   2.093  2.0586  1.7902  1.5568
  444MOL0     H58583  -2.674   8.615   2.184 -0.6335 -1.8155 -0.4422
  444MOL0     H58584  -2.902   8.513   2.009  0.7495  0.3573 -0.1950
  444MOL0     H58585  -2.909   8.525   2.181 -1.6231  0.5959 -1.5635
  444MOL0     H58586  -2.874   8.294   2.141  1.5115 -0.8459  1.3582
  444MOL0     H58587  -2.745   8.315   2.033  2.0742 -0.9497  1.1299
  444MOL0     H58588  -2.590   8.412   2.217  0.6611 -1.3928 -3.7894
  444MOL0     H58589  -2.638   8.241   2.230  0.2602  0.4952  0.6387
  444MOL0     H58590  -2.237   9.079   1.990 -0.5139 -0.0214  2.4452
  444MOL0     H58591  -2.049   9.190   2.102  0.0558  0.0011  0.1617
  444MOL0     H58592  -1.544   8.850   2.339  0.5377  0.1567  1.3286
  444MOL0     H58593  -1.298   8.922   2.371 -1.6228  0.1114  2.8131
  444MOL0     H58594   0.530   9.240   2.521 -0.9274 -0.5827 -0.1940
  444MOL0     H58595   0.710   9.264   2.359 -2.3953 -0.0072 -0.2670
  444MOL0     H58596   0.950   9.314   1.916  2.1341  1.0440 -2.8376
  444MOL0     H58597   1.145   9.381   1.819 -1.4646 -0.6018  0.2701
  444MOL0     H58598   1.350   9.782   1.965  2.9501 -1.5657  0.0576
  444MOL0     H58599   1.214   9.790   1.851  0.8851  1.2341 -0.2316
  444MOL0     H58600   1.372   9.709   1.658 -0.6699  2.0476 -1.1246
  444MOL0     H58601   1.379   9.870   1.711 -0.8433 -0.4560 -1.3093
  444MOL0     H58602   1.552   9.629   1.801  2.8857  1.4114  3.1030
  444MOL0     H58603   1.553   9.776   1.887  5.4441  0.5347  0.6220
  444MOL0     H58604   1.748   9.782   1.751  2.0930  3.3577 -3.3731
  444MOL0     H58605   1.654   9.740   1.609  2.2548 -1.8619  0.6539
  444MOL0     H58606   1.634  10.156   1.592  1.4505 -1.8218 -4.0285
  444MOL0     H58607   1.188   9.710   2.105 -1.2665 -0.4511  1.4690
  444MOL0     H58608   0.982   9.621   2.218 -1.2427  1.5996 -0.2212
  445MOL0     O58609   3.167   8.748   5.558  0.3755  0.5964  0.4049
  445MOL0     C58610   3.112   8.707   5.452 -0.5472 -0.3374  0.5003
  445MOL0     O58611   2.985   8.710   5.430  0.9228  1.4105 -0.2556
  445MOL0     C58612   2.899   8.641   5.518  0.4553  0.3544 -1.0508
  445MOL0     C58613   2.926   8.525   5.603  0.6554  0.0832  0.2512
  445MOL0     C58614   2.818   8.466   5.676  0.6100 -0.3488 -0.5026
  445MOL0     C58615   2.694   8.522   5.679 -0.1286  0.3623  0.9900
  445MOL0     O58616   2.593   8.446   5.729 -0.5605 -0.0258  0.6231
  445MOL0     C58617   2.475   8.513   5.767 -0.4292  0.1674 -0.1034
  445MOL0     C58618   2.391   8.411   5.833  0.4347  0.0205 -0.3968
  445MOL0     C58619   2.275   8.493   5.885 -0.4936  0.8462 -0.5136
  445MOL0     C58620   2.164   8.416   5.945 -0.3613 -0.1584 -0.1486
  445MOL0     C58621   2.052   8.513   5.972 -0.2005  0.3333  0.1671
  445MOL0     C58622   1.953   8.465   6.074 -0.8991  0.4656  0.4385
  445MOL0     C58623   1.854   8.568   6.117 -0.3626  0.3605  0.1132
  445MOL0     C58624   1.722   8.507   6.172  1.2404  0.2956  0.2860
  445MOL0     N58625   1.641   8.608   6.250 -0.3593 -0.6237  0.8843
  445MOL0     C58626   1.680   8.659   6.370  0.1237 -0.0576 -0.4586
  445MOL0     C58627   1.609   8.774   6.376  0.2027 -0.2711  0.0792
  445MOL0     C58628   1.576   8.849   6.501 -0.6437  0.8639 -0.0350
  445MOL0     C58629   1.452   8.789   6.579 -0.8089  0.0285 -0.3583
  445MOL0     C58630   1.317   8.798   6.504 -0.8700  0.5972  0.9586
  445MOL0     C58631   1.187   8.793   6.587  0.8219 -0.1597 -0.1607
  445MOL0     O58632   1.072   8.803   6.495 -0.3840 -0.5572  0.3230
  445MOL0     C58633   0.949   8.810   6.552  0.2799  0.0481  0.3899
  445MOL0     C58634   0.906   8.809   6.683 -0.1636 -0.5563  0.1456
  445MOL0     C58635   0.778   8.839   6.721 -0.2691 -0.2522  0.0289
  445MOL0     C58636   0.685   8.873   6.621 -0.7720  0.0104  0.0236
  445MOL0     C58637   0.559   8.934   6.657 -0.7699 -0.2524 -0.3472
  445MOL0     O58638   0.546   8.982   6.787  0.9919 -0.8954 -0.1677
  445MOL0     C58639   0.427   9.048   6.819 -0.2088  0.4877 -0.4558
  445MOL0     C58640   0.397   9.182   6.806 -1.2281  0.4530 -0.2397
  445MOL0     C58641   0.277   9.228   6.864  0.2312 -0.6660 -0.0348
  445MOL0     C58642   0.184   9.148   6.922 -0.1266  0.3755  0.0025
  445MOL0     O58643   0.066   9.206   6.966 -0.1455 -0.4656  0.2915
  445MOL0     C58644  -0.045   9.104   6.974 -0.3394  0.1105  0.7393
  445MOL0     C58645  -0.157   9.170   7.047  0.2363  0.1660  0.1488
  445MOL0     C58646  -0.185   9.123   7.192  0.5563  0.4863 -0.1648
  445MOL0     C58647  -0.339   9.130   7.235  0.8697 -0.6057 -0.8469
  445MOL0     C58648  -0.377   9.062   7.375  0.6679  0.2305  0.2917
  445MOL0     C58649  -0.517   9.073   7.427 -0.7909  0.3909 -0.1104
  445MOL0     C58650  -0.545   8.998   7.561  0.4021 -0.0722  0.3338
  445MOL0     C58651  -0.622   9.093   7.658 -0.3750 -0.1362 -0.2994
  445MOL0    Cl58652  -0.789   9.120   7.589  0.1484 -0.0032 -0.6526
  445MOL0     C58653   0.215   9.011   6.921  0.8056  0.3237 -0.2327
  445MOL0     C58654   0.335   8.956   6.880  0.4179 -0.7698  0.0665
  445MOL0     O58655   0.475   8.932   6.569  0.4546 -0.1602  0.1338
  445MOL0     C58656   0.720   8.866   6.489  0.0267 -0.4873 -0.4426
  445MOL0     C58657   0.846   8.824   6.457  0.9744  0.0234 -0.0800
  445MOL0     N58658   1.535   8.797   6.258  1.1488  0.0477  0.1946
  445MOL0     N58659   1.555   8.693   6.182 -0.9306  0.3983  0.4110
  445MOL0     C58660   2.673   8.638   5.608 -0.3948 -0.0190 -0.0280
  445MOL0     C58661   2.769   8.692   5.525  1.5704  0.9714  1.1670
  445MOL0     C58662   3.206   8.662   5.340  0.0256  0.2264 -0.0249
  445MOL0     C58663   3.159   8.647   5.203 -0.3261 -0.1104 -0.2509
  445MOL0     C58664   3.257   8.644   5.104  0.8340  0.2349 -0.0686
  445MOL0     C58665   3.393   8.644   5.131 -1.2717  1.2738  0.6834
  445MOL0     O58666   3.468   8.607   5.021  0.1734  0.4362  0.3301
  445MOL0     C58667   3.609   8.635   5.017 -0.3662  0.6445 -0.2145
  445MOL0     C58668   3.645   8.765   4.953  0.7469  0.2946 -0.4462
  445MOL0     C58669   3.622   8.883   5.046  0.2256  0.3861  0.0779
  445MOL0     C58670   3.625   9.023   4.973 -0.5961 -0.2483  0.5108
  445MOL0     C58671   3.764   9.082   4.949 -0.4886 -0.8894 -0.0829
  445MOL0     C58672   3.938   9.162   4.906  0.7423 -0.3765  0.8348
  445MOL0     C58673   3.447   8.662   5.259  1.1141 -0.1361  0.6433
  445MOL0     C58674   3.347   8.679   5.361 -0.5019 -0.3015 -0.2560
  445MOL0     H58675   3.026   8.483   5.595  0.8599  0.9107 -2.5941
  445MOL0     H58676   2.829   8.370   5.725  1.3520  0.8485  1.8372
  445MOL0     H58677   2.417   8.561   5.688 -1.7960 -1.1878  0.0304
  445MOL0     H58678   2.505   8.588   5.841  3.6596 -2.2141  0.9124
  445MOL0     H58679   2.450   8.356   5.907  1.0294 -0.2635 -1.0681
  445MOL0     H58680   2.363   8.340   5.754 -0.7464 -1.3214  1.1460
  445MOL0     H58681   2.243   8.558   5.803  1.9377  0.5117 -1.8318
  445MOL0     H58682   2.306   8.562   5.964 -1.9742  0.9599  0.0002
  445MOL0     H58683   2.134   8.344   5.870 -0.0049 -1.9429  1.3513
  445MOL0     H58684   2.209   8.366   6.031 -0.3397  1.2875  0.7180
  445MOL0     H58685   1.992   8.501   5.881  1.3986  2.5231 -1.2978
  445MOL0     H58686   2.091   8.614   5.991  0.2285  0.7484 -2.4715
  445MOL0     H58687   2.011   8.428   6.159 -1.3643  0.4886  0.7690
  445MOL0     H58688   1.905   8.371   6.045  0.2312 -0.1950  0.6581
  445MOL0     H58689   1.913   8.610   6.199  0.6322 -1.3911  0.3508
  445MOL0     H58690   1.818   8.626   6.031 -1.2381  0.9321  0.8564
  445MOL0     H58691   1.734   8.427   6.246 -2.3157 -0.9560 -0.2876
  445MOL0     H58692   1.663   8.458   6.094  0.6225  2.9458 -1.0099
  445MOL0     H58693   1.734   8.617   6.455  0.1910  0.5270 -0.2057
  445MOL0     H58694   1.558   8.953   6.470 -0.1450  0.2732 -2.5597
  445MOL0     H58695   1.663   8.830   6.564 -1.2241 -1.4148  0.1464
  445MOL0     H58696   1.442   8.820   6.684  0.2472 -2.6223  0.6072
  445MOL0     H58697   1.478   8.684   6.593  1.5964  0.7663  1.2831
  445MOL0     H58698   1.309   8.883   6.435  1.7700 -1.3770 -2.0907
  445MOL0     H58699   1.316   8.714   6.433  0.8055  2.1091 -0.9583
  445MOL0     H58700   1.181   8.882   6.651  1.7231  1.1179 -1.7792
  445MOL0     H58701   1.166   8.707   6.651 -0.2551  1.0544  1.1982
  445MOL0     H58702   0.977   8.791   6.763 -2.1899  0.4686  2.2986
  445MOL0     H58703   0.755   8.853   6.827 -1.2779  0.0337 -0.2135
  445MOL0     H58704   0.470   9.245   6.755 -2.6144  4.8683  2.6132
  445MOL0     H58705   0.250   9.333   6.870  1.0517 -0.4393 -0.2364
  445MOL0     H58706  -0.030   9.008   7.026 -2.5108 -1.6464 -1.5987
  445MOL0     H58707  -0.084   9.075   6.876  3.1977 -3.7997  0.1734
  445MOL0     H58708  -0.252   9.144   6.999  0.0798 -1.3363  1.2171
  445MOL0     H58709  -0.144   9.279   7.047 -0.6602  0.2793 -0.3211
  445MOL0     H58710  -0.122   9.177   7.263 -0.1812 -0.5750  1.3566
  445MOL0     H58711  -0.161   9.019   7.217 -1.4235  0.5962  2.7554
  445MOL0     H58712  -0.369   9.234   7.244  1.1611 -0.7265  4.0914
  445MOL0     H58713  -0.403   9.088   7.157  2.0624  0.5270 -2.5054
  445MOL0     H58714  -0.311   9.114   7.445  2.3994 -2.3471  0.7296
  445MOL0     H58715  -0.335   8.960   7.373 -0.0626 -0.0990 -2.3403
  445MOL0     H58716  -0.588   9.026   7.359 -1.6244 -0.0277  1.0100
  445MOL0     H58717  -0.544   9.179   7.436  0.1963  0.6250  0.1255
  445MOL0     H58718  -0.608   8.910   7.544 -0.2191  0.3255  0.5251
  445MOL0     H58719  -0.448   8.969   7.604  0.6090 -1.8303 -1.2025
  445MOL0     H58720  -0.567   9.188   7.660 -0.2352 -0.2285  0.3518
  445MOL0     H58721  -0.626   9.039   7.753  0.8065 -2.3702 -1.4362
  445MOL0     H58722   0.154   8.931   6.962  1.6056 -0.4245 -0.4704
  445MOL0     H58723   0.359   8.851   6.887  1.1990 -0.5252  1.3077
  445MOL0     H58724   0.642   8.887   6.416  0.6486  1.1325 -0.6604
  445MOL0     H58725   0.859   8.815   6.350 -1.4743  1.2287 -0.5681
  445MOL0     H58726   2.575   8.681   5.595 -1.2136 -1.1067  2.0995
  445MOL0     H58727   2.739   8.777   5.464  2.5833 -0.4265 -1.4349
  445MOL0     H58728   3.053   8.648   5.180 -0.5573 -0.1246  0.7589
  445MOL0     H58729   3.214   8.617   5.008 -0.5007  0.7705  0.3724
  445MOL0     H58730   3.660   8.561   4.954 -0.3473  0.8757 -0.4748
  445MOL0     H58731   3.650   8.619   5.117 -2.0293 -1.8466  0.1727
  445MOL0     H58732   3.744   8.769   4.906 -0.3876 -1.4214 -3.1825
  445MOL0     H58733   3.580   8.774   4.866 -1.9345 -0.0670  1.4072
  445MOL0     H58734   3.692   8.873   5.129 -1.0871 -3.2909  0.9279
  445MOL0     H58735   3.522   8.869   5.087  0.4688  0.4307  0.6975
  445MOL0     H58736   3.572   9.014   4.877 -0.3499  1.2305  0.2212
  445MOL0     H58737   3.572   9.096   5.035 -0.1286 -0.1023  0.7395
  445MOL0     H58738   4.034   9.207   4.889 -0.1963  2.3859  2.3812
  445MOL0     H58739   3.549   8.655   5.296  0.6997 -2.3620  1.4948
  445MOL0     H58740   3.380   8.693   5.463 -0.6113  1.0046 -0.3850
  446MOL0     O58741   6.750  10.123   5.316  0.0704  0.2849 -0.1181
  446MOL0     C58742   6.817  10.216   5.269 -0.2513  0.1286  0.4283
  446MOL0     O58743   6.761  10.329   5.225 -0.6905  0.0847  0.8514
  446MOL0     C58744   6.626  10.347   5.216  0.6598  0.3597 -0.1504
  446MOL0     C58745   6.565  10.428   5.314 -0.4458  0.3509 -0.0581
  446MOL0     C58746   6.429  10.430   5.315  0.9419  1.0692  0.0351
  446MOL0     C58747   6.345  10.364   5.223 -0.2650 -0.1242  0.8251
  446MOL0     O58748   6.208  10.377   5.213  0.0891  0.4074 -0.0238
  446MOL0     C58749   6.154  10.465   5.314 -0.1160  0.6226  0.2575
  446MOL0     C58750   6.011  10.505   5.262 -0.6477 -0.8795  0.7120
  446MOL0     C58751   6.019  10.614   5.157  0.6840  0.4931  0.5766
  446MOL0     C58752   5.885  10.687   5.153 -0.9018  0.5369  0.7438
  446MOL0     C58753   5.892  10.814   5.067 -0.3920  0.2284 -0.6777
  446MOL0     C58754   5.769  10.893   5.051 -0.2057  0.0228  0.7016
  446MOL0     C58755   5.630  10.828   5.027  0.9914  0.4884 -0.3411
  446MOL0     C58756   5.527  10.931   5.085  0.7062 -0.3242 -0.1680
  446MOL0     N58757   5.396  10.892   5.048  0.2078 -1.1112 -0.2480
  446MOL0     C58758   5.350  10.763   5.030  0.2144  0.3494  0.4264
  446MOL0     C58759   5.217  10.771   5.021  1.0272  0.4108 -1.0604
  446MOL0     C58760   5.125  10.652   4.998 -0.2511  0.6720  0.1383
  446MOL0     C58761   5.021  10.622   5.103 -0.3689  0.7519 -0.7533
  446MOL0     C58762   4.940  10.742   5.161 -0.6816 -0.4783  0.9025
  446MOL0     C58763   4.817  10.683   5.255 -0.2787  0.1352  1.0321
  446MOL0     O58764   4.720  10.593   5.182  0.0590  0.8451  0.1006
  446MOL0     C58765   4.636  10.652   5.091  0.6767  0.1462 -0.2954
  446MOL0     C58766   4.680  10.693   4.965  0.1709  0.1923 -0.4364
  446MOL0     C58767   4.600  10.770   4.882 -0.4202  0.0132  0.2710
  446MOL0     C58768   4.474  10.817   4.928 -0.7017 -0.3102 -0.0501
  446MOL0     C58769   4.384  10.895   4.849  0.4091  0.2358  0.6852
  446MOL0     O58770   4.281  10.951   4.907 -0.6027 -0.6430  0.1120
  446MOL0     C58771   4.199  11.037   4.842  0.6603  0.6638 -0.6034
  446MOL0     C58772   4.096  10.989   4.766  0.0864  0.0779  0.9108
  446MOL0     C58773   4.010  11.089   4.713 -0.2334  0.2861  1.1126
  446MOL0     C58774   4.041  11.227   4.726  0.6661 -0.3079 -0.1757
  446MOL0     O58775   3.952  11.328   4.682  0.1099  1.0543  0.5540
  446MOL0     C58776   4.009  11.416   4.580  0.5830  0.5911  0.3235
  446MOL0     C58777   3.977  11.390   4.437 -0.1597  0.1909  0.6124
  446MOL0     C58778   3.954  11.512   4.342 -0.1314  0.2240  0.5272
  446MOL0     C58779   3.931  11.476   4.195 -0.2572  0.5979 -0.1973
  446MOL0     C58780   3.800  11.409   4.159 -1.0032  0.6863  0.0650
  446MOL0     C58781   3.684  11.494   4.151  0.0450  0.2356  0.1695
  446MOL0     C58782   3.559  11.412   4.129 -0.7852  0.3148 -0.1908
  446MOL0     C58783   3.552  11.300   4.010 -0.1791 -0.2974  0.7714
  446MOL0    Cl58784   3.363  11.272   3.974  0.2840 -0.0560 -0.2723
  446MOL0     C58785   4.150  11.272   4.803 -1.0648 -0.2225  0.7138
  446MOL0     C58786   4.222  11.170   4.864  0.0031 -0.3489  0.4735
  446MOL0     O58787   4.406  10.907   4.724  0.2223  0.6964  0.0793
  446MOL0     C58788   4.437  10.774   5.059  0.8526  0.2706 -0.4162
  446MOL0     C58789   4.516  10.702   5.140 -0.1449  0.3434 -0.4053
  446MOL0     N58790   5.179  10.906   5.036 -0.5241 -0.2803 -0.7623
  446MOL0     N58791   5.282  10.974   5.052 -0.5958 -0.6627  0.3208
  446MOL0     C58792   6.406  10.291   5.122  0.1979 -0.1271 -0.3621
  446MOL0     C58793   6.545  10.287   5.124 -0.2643  0.7997  0.1250
  446MOL0     C58794   6.957  10.185   5.249 -0.3335 -0.1087 -0.6574
  446MOL0     C58795   7.029  10.091   5.317  0.8360  0.4467 -0.0991
  446MOL0     C58796   7.164  10.066   5.291  0.2224 -0.5792 -0.8669
  446MOL0     C58797   7.232  10.148   5.201  0.6469  0.7540  0.3083
  446MOL0     O58798   7.364  10.137   5.173 -0.0438 -1.1922  0.5220
  446MOL0     C58799   7.446  10.038   5.223  0.2344 -0.5081 -0.3394
  446MOL0     C58800   7.580  10.053   5.146  1.1215  1.2556  0.3796
  446MOL0     C58801   7.642  10.197   5.171 -0.9043  0.8462  0.1670
  446MOL0     C58802   7.754  10.229   5.070  1.3102 -0.5570  0.6788
  446MOL0     C58803   7.858  10.132   5.085  1.1518  0.2241  0.2767
  446MOL0     C58804   7.946  10.052   5.087 -0.2624  0.6233  0.4165
  446MOL0     C58805   7.163  10.241   5.132  0.8184 -0.0303  0.6840
  446MOL0     C58806   7.027  10.265   5.158  0.1949 -0.6488  1.6347
  446MOL0     H58807   6.619  10.470   5.399 -2.0226  0.5712  0.8774
  446MOL0     H58808   6.388  10.489   5.396 -2.7860  0.2689 -1.0836
  446MOL0     H58809   6.207  10.561   5.311 -0.8130  0.9687 -2.1109
  446MOL0     H58810   6.151  10.410   5.409  1.1830 -1.1316 -0.6463
  446MOL0     H58811   5.955  10.565   5.335 -1.6502  2.9954 -2.8517
  446MOL0     H58812   5.947  10.420   5.236 -1.0769 -1.0275  2.1424
  446MOL0     H58813   6.046  10.573   5.059  1.3510  1.6963  0.2310
  446MOL0     H58814   6.098  10.683   5.188  0.0824  1.8408 -0.7750
  446MOL0     H58815   5.814  10.614   5.114  1.3966 -0.9685 -0.8810
  446MOL0     H58816   5.850  10.713   5.253 -1.5023 -4.4131  2.0388
  446MOL0     H58817   5.922  10.784   4.966  1.2523  2.5965 -0.9925
  446MOL0     H58818   5.973  10.880   5.102 -1.1960  0.5345  0.6836
  446MOL0     H58819   5.780  10.962   4.967  0.8182 -0.6269  0.2856
  446MOL0     H58820   5.766  10.963   5.135  2.9060  0.3130  0.6904
  446MOL0     H58821   5.610  10.804   4.922 -1.9238 -0.6985  0.3728
  446MOL0     H58822   5.613  10.736   5.084  1.9696 -0.6243 -1.7797
  446MOL0     H58823   5.561  11.028   5.048  2.0544 -0.0822  1.6057
  446MOL0     H58824   5.530  10.934   5.194 -0.4390  1.2032 -0.1545
  446MOL0     H58825   5.407  10.671   5.027  2.3801  1.3945  3.7808
  446MOL0     H58826   5.184  10.561   4.983 -0.2318  1.0664 -2.6199
  446MOL0     H58827   5.077  10.676   4.903 -2.3889  2.3780  1.5346
  446MOL0     H58828   5.060  10.568   5.190 -3.4127  3.3050  2.5033
  446MOL0     H58829   4.945  10.551   5.067 -2.6972  0.7836  3.4821
  446MOL0     H58830   5.001  10.809   5.221 -1.8931  3.5428 -1.9219
  446MOL0     H58831   4.909  10.807   5.079  3.9340  3.7898  2.0581
  446MOL0     H58832   4.762  10.769   5.295 -0.8512 -0.0223  0.5922
  446MOL0     H58833   4.860  10.622   5.335 -1.8092 -1.7000  0.5513
  446MOL0     H58834   4.783  10.672   4.941  0.4030  3.3679 -3.0419
  446MOL0     H58835   4.634  10.781   4.779  4.0701 -2.6902  1.1986
  446MOL0     H58836   4.077  10.885   4.744 -0.0047  0.0402  1.1637
  446MOL0     H58837   3.920  11.056   4.662  1.6612 -1.9152 -1.0401
  446MOL0     H58838   4.115  11.434   4.600 -0.0414  2.5596  2.3624
  446MOL0     H58839   3.965  11.512   4.609  1.3247 -0.1321  4.5318
  446MOL0     H58840   3.884  11.334   4.427  1.8564 -3.0476 -2.1814
  446MOL0     H58841   4.051  11.321   4.396 -1.6333  1.9725 -6.2171
  446MOL0     H58842   4.041  11.579   4.348  1.3046 -1.6592  1.9442
  446MOL0     H58843   3.879  11.583   4.380 -1.5519 -0.8559 -0.1837
  446MOL0     H58844   3.940  11.566   4.134  1.3721  1.7207  1.6109
  446MOL0     H58845   4.011  11.405   4.170 -1.3028 -0.0408 -1.9333
  446MOL0     H58846   3.783  11.332   4.234  3.4693  0.5865  1.2600
  446MOL0     H58847   3.823  11.356   4.066  0.1969 -0.9929  1.2650
  446MOL0     H58848   3.682  11.555   4.061 -2.1161 -1.1657 -0.8292
  446MOL0     H58849   3.676  11.558   4.239 -4.5112  2.5681 -1.6147
  446MOL0     H58850   3.517  11.364   4.218 -0.8721  0.0380 -0.3798
  446MOL0     H58851   3.480  11.487   4.119 -1.2262 -0.1352 -0.1305
  446MOL0     H58852   3.606  11.209   4.038  1.9785  0.9740  0.9534
  446MOL0     H58853   3.588  11.337   3.914  0.9618 -2.0231  0.4889
  446MOL0     H58854   4.171  11.377   4.823 -4.7509  1.3540 -2.6041
  446MOL0     H58855   4.288  11.205   4.942 -0.6007  2.1373 -0.0525
  446MOL0     H58856   4.338  10.802   5.096  0.7336  0.1250 -0.6239
  446MOL0     H58857   4.480  10.667   5.236  4.3717 -0.8900  1.0763
  446MOL0     H58858   6.342  10.251   5.044 -0.4120 -1.8597  0.9431
  446MOL0     H58859   6.594  10.228   5.048 -1.4567 -0.8724  0.5881
  446MOL0     H58860   6.979  10.035   5.395  1.1399 -0.7275 -0.7206
  446MOL0     H58861   7.210   9.997   5.360 -0.1456 -1.8278 -1.8424
  446MOL0     H58862   7.416   9.938   5.190 -1.1106  0.8957 -3.8374
  446MOL0     H58863   7.458  10.040   5.332  1.8169 -2.8956 -0.3977
  446MOL0     H58864   7.649   9.973   5.175 -1.1229 -0.6597  0.7948
  446MOL0     H58865   7.555  10.033   5.041 -1.3647  0.4353  1.0454
  446MOL0     H58866   7.685  10.195   5.272  0.6299  0.0659 -0.4561
  446MOL0     H58867   7.578  10.285   5.162  3.1051  3.9676 -1.3732
  446MOL0     H58868   7.726  10.246   4.966  1.6902 -1.6296  0.3787
  446MOL0     H58869   7.805  10.322   5.096 -0.4186  0.4857  0.4310
  446MOL0     H58870   8.022   9.976   5.094 -1.6602 -1.1114 -1.7793
  446MOL0     H58871   7.204  10.297   5.048 -0.2731 -0.4624 -0.1589
  446MOL0     H58872   6.969  10.340   5.106  1.2646 -0.9108 -0.0349
  447MOL0     O58873   9.011  10.891   7.471 -0.7772  0.4283  0.1917
  447MOL0     C58874   9.056  10.794   7.538  0.1791 -0.6056  1.5052
  447MOL0     O58875   8.983  10.686   7.570 -0.2187 -0.2311 -0.7312
  447MOL0     C58876   8.884  10.668   7.479  0.4066  1.0269 -0.3944
  447MOL0     C58877   8.896  10.622   7.345 -0.4363  0.6063 -0.2944
  447MOL0     C58878   8.788  10.606   7.258 -0.1139 -0.1256  0.1316
  447MOL0     C58879   8.663  10.641   7.308  0.2876 -0.6601 -1.2061
  447MOL0     O58880   8.549  10.628   7.220  0.0277  0.2324 -0.7524
  447MOL0     C58881   8.420  10.672   7.263  0.0351 -0.0496 -0.2018
  447MOL0     C58882   8.311  10.664   7.159 -0.0525 -0.4085 -1.1443
  447MOL0     C58883   8.313  10.536   7.077  0.1872  0.3481 -0.4883
  447MOL0     C58884   8.185  10.533   6.989  0.4253 -0.8528 -0.1666
  447MOL0     C58885   8.188  10.425   6.875 -0.3730 -0.0554 -0.2773
  447MOL0     C58886   8.067  10.452   6.770  0.5787  1.1345 -0.6200
  447MOL0     C58887   7.930  10.444   6.831  0.4868  0.8734  0.8207
  447MOL0     C58888   7.892  10.296   6.858 -0.5464 -1.2467  0.0633
  447MOL0     N58889   7.879  10.209   6.736 -0.2156 -0.5368  0.4414
  447MOL0     C58890   7.761  10.214   6.664 -1.0547  0.1514  0.0138
  447MOL0     C58891   7.772  10.109   6.577  0.5766 -1.3218  0.3889
  447MOL0     C58892   7.676  10.068   6.462  0.0792 -0.5261 -0.0351
  447MOL0     C58893   7.539  10.135   6.445  0.2266  0.8573  0.1360
  447MOL0     C58894   7.443  10.130   6.569 -0.7166  0.6003 -0.1398
  447MOL0     C58895   7.298  10.172   6.531 -0.2414  0.0619  0.7498
  447MOL0     O58896   7.294  10.318   6.496 -0.5177  0.1025  0.2819
  447MOL0     C58897   7.174  10.376   6.460 -0.6106  0.2255 -0.1221
  447MOL0     C58898   7.069  10.299   6.404 -0.0362 -0.7728 -0.3630
  447MOL0     C58899   6.941  10.356   6.381 -0.0450 -0.5174  0.4354
  447MOL0     C58900   6.923  10.488   6.427 -0.0717 -0.4527 -0.2142
  447MOL0     C58901   6.786  10.551   6.422 -0.0284  0.0091  0.2341
  447MOL0     O58902   6.693  10.487   6.340  0.1082  0.3070 -0.3335
  447MOL0     C58903   6.576  10.550   6.329  0.7300 -0.1120 -0.5362
  447MOL0     C58904   6.477  10.521   6.426  0.2943 -0.4250 -0.7179
  447MOL0     C58905   6.347  10.576   6.426  0.4400  0.5547  0.5682
  447MOL0     C58906   6.306  10.658   6.321  0.4139 -0.1375 -0.2504
  447MOL0     O58907   6.176  10.720   6.311 -0.3321 -0.9684  0.7408
  447MOL0     C58908   6.071  10.673   6.400 -0.7755  0.0934  0.7955
  447MOL0     C58909   5.933  10.712   6.367  0.1930  0.6713  0.0017
  447MOL0     C58910   5.898  10.848   6.432 -0.2798  0.1232  0.0049
  447MOL0     C58911   5.977  10.968   6.360 -0.4189 -0.2338 -0.5863
  447MOL0     C58912   5.945  11.087   6.442 -0.7607 -0.4660 -0.2298
  447MOL0     C58913   6.026  11.209   6.397 -0.3228 -0.1600 -0.1444
  447MOL0     C58914   5.967  11.271   6.268 -0.6775 -0.4907  0.2052
  447MOL0     C58915   5.864  11.379   6.294 -0.1042  0.4171 -0.4321
  447MOL0    Cl58916   5.940  11.515   6.377 -0.1579  0.4264 -0.0646
  447MOL0     C58917   6.401  10.691   6.224 -0.2838  0.6004 -0.3265
  447MOL0     C58918   6.538  10.633   6.229  0.4848  0.2847 -0.2171
  447MOL0     O58919   6.757  10.642   6.506  0.6454  0.5538  0.3787
  447MOL0     C58920   7.027  10.564   6.476  0.4458  0.0338 -0.2358
  447MOL0     C58921   7.155  10.515   6.481 -0.6166  0.2369 -0.0292
  447MOL0     N58922   7.894  10.053   6.597  0.3640 -0.8612 -0.5400
  447MOL0     N58923   7.958  10.114   6.691  0.1157  0.2992  0.1729
  447MOL0     C58924   8.644  10.693   7.442 -0.3901  0.1182  1.2128
  447MOL0     C58925   8.756  10.709   7.519 -1.0377  0.2652  1.1462
  447MOL0     C58926   9.188  10.803   7.573 -0.6412 -0.3034  0.1851
  447MOL0     C58927   9.283  10.884   7.502 -0.4532  1.2013 -0.1420
  447MOL0     C58928   9.417  10.878   7.537 -0.3497 -0.8573  0.4325
  447MOL0     C58929   9.464  10.786   7.629  0.0261 -0.7802 -0.1043
  447MOL0     O58930   9.598  10.800   7.655  0.1391 -0.0281 -0.2782
  447MOL0     C58931   9.680  10.700   7.707 -0.1701  0.0964 -0.3471
  447MOL0     C58932   9.756  10.627   7.596  0.0880 -0.4892  0.0639
  447MOL0     C58933   9.799  10.715   7.481  0.2893 -0.0533  0.0086
  447MOL0     C58934   9.854  10.624   7.372 -0.2604 -0.1361  0.0781
  447MOL0     C58935   9.745  10.541   7.314  0.4933 -0.2264  0.3351
  447MOL0     C58936   9.646  10.503   7.251 -0.4685 -0.4722 -0.4177
  447MOL0     C58937   9.379  10.711   7.702  0.1922  1.5770  0.1657
  447MOL0     C58938   9.240  10.714   7.676 -0.4150 -0.0916  0.8516
  447MOL0     H58939   8.987  10.599   7.290  0.7235  1.3588  1.2394
  447MOL0     H58940   8.808  10.566   7.159  0.1211 -2.8740  1.1923
  447MOL0     H58941   8.433  10.777   7.291  1.0446  0.1920 -1.5149
  447MOL0     H58942   8.376  10.617   7.347  1.5695 -0.5647  0.3022
  447MOL0     H58943   8.343  10.746   7.094  1.6099  1.4152  1.7481
  447MOL0     H58944   8.218  10.676   7.216 -0.5696  2.3404 -2.4087
  447MOL0     H58945   8.299  10.447   7.138 -1.1029 -2.1582 -4.0912
  447MOL0     H58946   8.404  10.525   7.018  0.6150 -2.0656  0.5063
  447MOL0     H58947   8.102  10.523   7.059 -0.2596  0.4669 -0.7596
  447MOL0     H58948   8.167  10.631   6.944  0.6262  0.3587  2.2371
  447MOL0     H58949   8.182  10.326   6.922  5.0042  0.4400  2.2123
  447MOL0     H58950   8.288  10.431   6.832  0.3967  1.5195  1.6096
  447MOL0     H58951   8.074  10.385   6.684  0.1214 -0.2088  0.3696
  447MOL0     H58952   8.074  10.557   6.738 -2.7494  1.3910 -0.8560
  447MOL0     H58953   7.929  10.499   6.925 -3.1926  1.5605  0.5253
  447MOL0     H58954   7.849  10.477   6.765 -0.5100 -0.0157  1.5705
  447MOL0     H58955   7.799  10.293   6.915 -0.8824 -1.2021 -0.4752
  447MOL0     H58956   7.962  10.257   6.933 -0.9374 -1.6313  0.2307
  447MOL0     H58957   7.679  10.285   6.674  0.8216  2.5030 -0.1671
  447MOL0     H58958   7.661   9.961   6.474  3.3860 -1.4736 -2.7963
  447MOL0     H58959   7.729  10.093   6.369 -0.7950 -2.8935 -1.2421
  447MOL0     H58960   7.491  10.100   6.353 -0.3885 -0.6198  0.9953
  447MOL0     H58961   7.562  10.239   6.420 -1.1901  1.0698 -0.3838
  447MOL0     H58962   7.443  10.025   6.597  1.5832  0.6487  0.2439
  447MOL0     H58963   7.481  10.179   6.659  2.1850  0.6464 -1.2866
  447MOL0     H58964   7.232  10.151   6.616  0.5727  0.5820  1.5302
  447MOL0     H58965   7.273  10.108   6.446  2.4810 -2.9737  2.0435
  447MOL0     H58966   7.082  10.193   6.385 -1.0908 -1.0422  0.3285
  447MOL0     H58967   6.854  10.304   6.343 -1.9857  2.3083  0.7006
  447MOL0     H58968   6.499  10.445   6.500  0.4968 -0.8146 -1.1778
  447MOL0     H58969   6.279  10.540   6.503  2.6390 -4.2956  0.6389
  447MOL0     H58970   6.096  10.697   6.504  1.8098  0.2364  0.1929
  447MOL0     H58971   6.072  10.564   6.395 -1.4524  0.0196  1.8405
  447MOL0     H58972   5.860  10.638   6.401 -0.3397  1.1797 -0.0323
  447MOL0     H58973   5.920  10.712   6.259  0.7158  1.5245 -0.0698
  447MOL0     H58974   5.907  10.847   6.541  1.7642 -1.4469 -0.1218
  447MOL0     H58975   5.790  10.856   6.418 -0.1667 -1.4373 -2.2683
  447MOL0     H58976   6.084  10.948   6.362 -0.3729  0.0198 -0.5036
  447MOL0     H58977   5.937  10.981   6.259 -1.4828  1.8131  0.0321
  447MOL0     H58978   5.977  11.070   6.545 -2.6245  0.6541  0.5906
  447MOL0     H58979   5.838  11.102   6.459 -0.3265 -0.3127  3.0692
  447MOL0     H58980   6.127  11.174   6.374 -1.0847 -2.2895 -0.4567
  447MOL0     H58981   6.028  11.278   6.481 -0.7635 -0.9769  0.5442
  447MOL0     H58982   6.038  11.307   6.193  0.7922 -3.1860  0.1732
  447MOL0     H58983   5.915  11.189   6.218 -0.3077 -0.2861 -0.5232
  447MOL0     H58984   5.783  11.339   6.356  0.3474  2.0990  1.3416
  447MOL0     H58985   5.832  11.413   6.195 -1.7453  1.9754  0.5732
  447MOL0     H58986   6.375  10.747   6.134  0.6616 -1.5492 -2.0410
  447MOL0     H58987   6.600  10.648   6.141  0.6126  1.9259  0.1181
  447MOL0     H58988   7.021  10.662   6.522 -0.3175  1.4873 -3.1404
  447MOL0     H58989   7.239  10.572   6.519 -0.6770  1.4040 -1.5512
  447MOL0     H58990   8.548  10.726   7.482 -1.5446  0.0879 -1.3489
  447MOL0     H58991   8.750  10.776   7.604  0.0139  1.5935  0.2297
  447MOL0     H58992   9.249  10.959   7.432  1.5586  1.3641 -1.0175
  447MOL0     H58993   9.486  10.925   7.468 -0.2608  2.3003  2.4565
  447MOL0     H58994   9.616  10.630   7.763 -0.6244 -1.1554 -2.3545
  447MOL0     H58995   9.754  10.751   7.769 -0.8418 -0.5388  1.0494
  447MOL0     H58996   9.845  10.591   7.649  0.1260  0.6212  0.7843
  447MOL0     H58997   9.691  10.546   7.563  0.7192 -0.7347 -0.6113
  447MOL0     H58998   9.880  10.782   7.510  0.2625  0.8244 -1.8197
  447MOL0     H58999   9.716  10.778   7.449  0.2600  1.3098  2.5415
  447MOL0     H59000   9.888  10.687   7.289 -0.6616 -1.2895 -0.9940
  447MOL0     H59001   9.937  10.564   7.409 -2.1597 -3.2813 -0.4649
  447MOL0     H59002   9.558  10.472   7.199 -2.9672  3.6486  0.8941
  447MOL0     H59003   9.412  10.653   7.787 -2.6580  0.7658  0.8282
  447MOL0     H59004   9.167  10.645   7.718  0.3708 -0.5798  1.4511
  448MOL0     O59005   4.892   1.013   9.699 -1.0945  0.8011  0.3195
  448MOL0     C59006   4.926   0.895   9.681  0.2004  0.2306 -0.1678
  448MOL0     O59007   4.852   0.798   9.625  0.1348  0.4788  0.6165
  448MOL0     C59008   4.733   0.834   9.573  0.6674  0.2844  0.5707
  448MOL0     C59009   4.631   0.873   9.660  0.2093 -0.7736 -0.2130
  448MOL0     C59010   4.510   0.911   9.616  0.2527 -0.1101  0.6721
  448MOL0     C59011   4.473   0.883   9.481  0.1300  0.5280 -0.2013
  448MOL0     O59012   4.351   0.917   9.425 -0.7002  0.2192 -0.0260
  448MOL0     C59013   4.245   0.961   9.504  0.0203  1.0496 -0.2924
  448MOL0     C59014   4.130   0.985   9.410  0.7216  0.3829 -0.0101
  448MOL0     C59015   4.002   0.986   9.497 -0.2789 -0.1718 -0.1874
  448MOL0     C59016   3.891   1.046   9.412 -0.1712 -0.0735  0.1176
  448MOL0     C59017   3.762   1.053   9.488  0.4084  0.1174  0.5151
  448MOL0     C59018   3.655   0.945   9.429 -0.0526 -0.1372 -0.0797
  448MOL0     C59019   3.518   0.947   9.502  0.2127 -0.1154  0.5863
  448MOL0     C59020   3.428   0.827   9.461 -0.8335 -0.3586 -0.0786
  448MOL0     N59021   3.293   0.878   9.430 -0.1732 -0.9239 -0.1662
  448MOL0     C59022   3.260   0.927   9.305  0.6474  0.3976 -0.1452
  448MOL0     C59023   3.132   0.969   9.311 -1.0264  0.3077 -1.0773
  448MOL0     C59024   3.049   1.038   9.211  0.4760  0.5623  0.3976
  448MOL0     C59025   2.932   0.949   9.159 -0.3591  0.2757 -0.3970
  448MOL0     C59026   2.803   0.955   9.249 -0.3380  0.4857  0.7428
  448MOL0     C59027   2.676   0.902   9.172 -0.2621 -0.1056 -0.4191
  448MOL0     O59028   2.575   0.901   9.270 -0.6255  0.3410  0.2918
  448MOL0     C59029   2.450   0.849   9.254  0.0424 -0.0410 -0.5208
  448MOL0     C59030   2.414   0.768   9.148  0.9032 -0.7608  0.3636
  448MOL0     C59031   2.290   0.702   9.143 -0.2717 -0.0532 -0.9953
  448MOL0     C59032   2.194   0.709   9.243 -0.0301  0.7774 -0.4809
  448MOL0     C59033   2.073   0.617   9.244  0.2584  0.3916  0.0995
  448MOL0     O59034   2.012   0.612   9.367 -0.0613 -0.3337 -0.2091
  448MOL0     C59035   1.904   0.527   9.402  0.2400  0.2714  0.4466
  448MOL0     C59036   1.924   0.392   9.390 -0.1539 -0.1535 -0.3588
  448MOL0     C59037   1.833   0.304   9.450 -0.6558 -0.0272  0.1261
  448MOL0     C59038   1.722   0.347   9.523  0.5009  0.5834  0.2454
  448MOL0     O59039   1.626   0.249   9.567 -0.5147  0.2598  0.2414
  448MOL0     C59040   1.491   0.283   9.590 -0.4157  0.5302  0.0835
  448MOL0     C59041   1.452   0.249   9.729  0.1475  0.2269 -0.7238
  448MOL0     C59042   1.373   0.121   9.732 -0.2930 -0.0214  0.6549
  448MOL0     C59043   1.317   0.095   9.872 -0.5741  0.0616  0.5834
  448MOL0     C59044   1.253  -0.043   9.882  0.1624  0.1855  0.3265
  448MOL0     C59045   1.176  -0.068  10.012 -0.1983  0.0322 -0.4024
  448MOL0     C59046   1.161  -0.215  10.049 -0.6281 -0.5863 -0.2173
  448MOL0     C59047   1.103  -0.238  10.187  0.4172 -0.7200 -0.5588
  448MOL0    Cl59048   1.199  -0.154  10.329 -0.1959 -0.1146 -0.1257
  448MOL0     C59049   1.703   0.490   9.528  0.4217  0.2371  0.0905
  448MOL0     C59050   1.794   0.578   9.466 -1.4290 -0.3953  1.2784
  448MOL0     O59051   2.046   0.548   9.148 -1.1545  0.6960  0.4529
  448MOL0     C59052   2.235   0.797   9.350  0.4539 -0.7099  0.2567
  448MOL0     C59053   2.358   0.875   9.345  0.6323 -0.3893  0.1932
  448MOL0     N59054   3.096   0.951   9.444 -1.6392 -0.5372 -0.3369
  448MOL0     N59055   3.183   0.892   9.517 -0.0127 -0.3785 -0.3768
  448MOL0     C59056   4.564   0.826   9.401 -0.6786  0.1242  0.8754
  448MOL0     C59057   4.702   0.818   9.440  0.6109  0.1159  0.1581
  448MOL0     C59058   5.071   0.869   9.709 -0.4057  0.8668 -0.3177
  448MOL0     C59059   5.145   0.975   9.773 -0.6058 -0.5374  1.3390
  448MOL0     C59060   5.283   0.957   9.799  0.7542 -0.3575 -0.4717
  448MOL0     C59061   5.359   0.857   9.744  0.1964 -0.9196 -0.4218
  448MOL0     O59062   5.494   0.837   9.755 -0.0447  0.2683  0.0592
  448MOL0     C59063   5.566   0.932   9.827 -0.7737  0.4310  0.0595
  448MOL0     C59064   5.708   0.885   9.840  0.2179 -0.1979 -0.3353
  448MOL0     C59065   5.791   0.888   9.704 -0.0390  0.4668 -0.2612
  448MOL0     C59066   5.815   1.030   9.637  0.7049  0.2910 -0.2975
  448MOL0     C59067   5.937   1.039   9.561 -0.1002 -0.1544 -0.0010
  448MOL0     C59068   6.036   1.053   9.491  0.3916  0.6041 -0.6013
  448MOL0     C59069   5.292   0.755   9.683  0.5011  1.0394  1.2894
  448MOL0     C59070   5.146   0.756   9.671  0.3358 -0.5349  0.8747
  448MOL0     H59071   4.655   0.894   9.763 -0.7433  0.0979 -0.1462
  448MOL0     H59072   4.431   0.958   9.674 -0.2138  1.2106 -0.9651
  448MOL0     H59073   4.268   1.050   9.565  0.5922 -0.2212  1.4301
  448MOL0     H59074   4.218   0.888   9.581  2.7093 -1.3160 -1.4186
  448MOL0     H59075   4.128   0.901   9.341  1.3100  0.2025  0.1929
  448MOL0     H59076   4.143   1.075   9.348  1.2563  0.2083 -0.1551
  448MOL0     H59077   4.017   1.033   9.594 -0.7833 -0.6888  0.1481
  448MOL0     H59078   3.967   0.886   9.525 -0.2784 -0.0330  0.3137
  448MOL0     H59079   3.928   1.144   9.380  0.6353 -0.5764 -0.5341
  448MOL0     H59080   3.880   0.992   9.318 -1.7224 -0.1257  0.3075
  448MOL0     H59081   3.715   1.151   9.477 -0.0323  0.1270  2.1575
  448MOL0     H59082   3.773   1.032   9.595 -0.4964  2.2998  1.0820
  448MOL0     H59083   3.698   0.845   9.440  0.6214  0.1756  0.1972
  448MOL0     H59084   3.630   0.967   9.325 -1.1490 -2.5644 -0.3859
  448MOL0     H59085   3.538   0.942   9.609 -0.5626 -3.2820  0.6707
  448MOL0     H59086   3.474   1.045   9.480  0.1529 -0.2694 -0.0077
  448MOL0     H59087   3.419   0.765   9.551 -2.0517  1.1361  0.8774
  448MOL0     H59088   3.485   0.776   9.383 -0.6043  0.0836 -0.2044
  448MOL0     H59089   3.327   0.929   9.220 -1.9531 -1.7882 -2.4429
  448MOL0     H59090   3.103   1.056   9.118  1.8485 -1.0983  0.8293
  448MOL0     H59091   3.008   1.132   9.251 -0.7526 -0.5404  1.8632
  448MOL0     H59092   2.957   0.844   9.178  0.2593  0.7098  1.4445
  448MOL0     H59093   2.913   0.960   9.052  2.7696 -0.5884 -1.1545
  448MOL0     H59094   2.819   0.900   9.343  3.0178 -0.2376 -0.1116
  448MOL0     H59095   2.798   1.059   9.282  4.4699  0.6787  1.6553
  448MOL0     H59096   2.700   0.800   9.141 -0.5608 -0.4476  0.4440
  448MOL0     H59097   2.664   0.955   9.077 -1.8082  0.6236  0.1438
  448MOL0     H59098   2.488   0.762   9.068  1.4661  1.1685  0.6922
  448MOL0     H59099   2.269   0.648   9.051 -0.5884 -0.6192 -0.5908
  448MOL0     H59100   2.017   0.349   9.354 -0.8856 -2.9929  0.8697
  448MOL0     H59101   1.848   0.196   9.450 -2.2628 -0.2805  0.0666
  448MOL0     H59102   1.439   0.214   9.522  3.4045 -0.7759 -1.7919
  448MOL0     H59103   1.467   0.387   9.565  1.7028  1.3066  1.0926
  448MOL0     H59104   1.398   0.330   9.779 -1.0252 -1.4701  0.8869
  448MOL0     H59105   1.538   0.237   9.795 -1.6458 -1.7691  1.4314
  448MOL0     H59106   1.435   0.040   9.694 -1.5170  0.8500 -3.7457
  448MOL0     H59107   1.276   0.120   9.682 -0.9175 -0.5524  1.8397
  448MOL0     H59108   1.403   0.101   9.940  1.7229  0.8988 -2.1760
  448MOL0     H59109   1.241   0.168   9.901 -2.2674 -1.9753  1.5453
  448MOL0     H59110   1.335  -0.115   9.884  1.2121  1.3413  0.6231
  448MOL0     H59111   1.191  -0.066   9.795 -4.4745  1.4713  2.9135
  448MOL0     H59112   1.080  -0.016  10.001 -0.7942 -1.4454 -3.2345
  448MOL0     H59113   1.217  -0.023  10.103 -0.3914  1.0444 -0.8009
  448MOL0     H59114   1.096  -0.261   9.974 -2.3818  4.0335 -1.9131
  448MOL0     H59115   1.264  -0.251  10.047  0.5304  2.3012  1.5881
  448MOL0     H59116   1.084  -0.345  10.198 -1.0795 -0.3256  1.2048
  448MOL0     H59117   1.002  -0.197  10.198  1.7771  3.5971 -1.8942
  448MOL0     H59118   1.619   0.536   9.579  0.9174  0.8115  0.4116
  448MOL0     H59119   1.800   0.687   9.467  1.6604 -0.3529 -1.9775
  448MOL0     H59120   2.183   0.802   9.445 -0.7576 -2.0959 -0.2972
  448MOL0     H59121   2.389   0.946   9.421 -3.4111  0.0384  1.7310
  448MOL0     H59122   4.539   0.790   9.301 -1.4838 -0.7192  1.3624
  448MOL0     H59123   4.776   0.775   9.373  0.7340  0.5448  0.0158
  448MOL0     H59124   5.099   1.063   9.818 -0.9492 -1.7744  3.5863
  448MOL0     H59125   5.332   1.044   9.841 -1.3322  2.0249 -2.6128
  448MOL0     H59126   5.538   0.940   9.933  0.5176  0.0006  0.4460
  448MOL0     H59127   5.571   1.026   9.771  3.5544 -0.6170 -1.7125
  448MOL0     H59128   5.757   0.948   9.915  0.1111  1.4616 -1.5909
  448MOL0     H59129   5.706   0.786   9.886  1.4766  0.5614  1.4448
  448MOL0     H59130   5.747   0.825   9.626  2.1851 -1.1880 -0.2903
  448MOL0     H59131   5.883   0.837   9.734 -1.3554 -0.5118  2.4689
  448MOL0     H59132   5.725   1.049   9.578 -1.1104 -0.2436  2.1378
  448MOL0     H59133   5.807   1.098   9.723  3.5849  0.6026 -0.1847
  448MOL0     H59134   6.127   1.062   9.435 -1.1034  0.2413 -3.2541
  448MOL0     H59135   5.347   0.670   9.645  0.3113  1.9433 -1.2092
  448MOL0     H59136   5.092   0.670   9.632  0.2764  0.0106 -0.2689
  449MOL0     O59137   7.429   2.210   8.444  0.3755  0.2426 -0.0273
  449MOL0     C59138   7.506   2.299   8.447 -0.1925 -0.1679 -0.0719
  449MOL0     O59139   7.478   2.426   8.492 -0.8071 -0.5976  0.0235
  449MOL0     C59140   7.342   2.472   8.508  0.5827 -0.1329  0.5755
  449MOL0     C59141   7.247   2.423   8.606 -0.0054  0.6215  1.2840
  449MOL0     C59142   7.117   2.478   8.608  0.1330  0.6520  0.0277
  449MOL0     C59143   7.087   2.583   8.528 -0.0002 -0.2560 -0.4187
  449MOL0     O59144   6.961   2.617   8.533 -0.4547 -0.1473 -0.0741
  449MOL0     C59145   6.941   2.757   8.508  0.8141 -0.3204 -0.4930
  449MOL0     C59146   6.818   2.803   8.587  0.0653  0.5191 -0.3503
  449MOL0     C59147   6.682   2.744   8.558 -0.0917 -0.7327  0.3093
  449MOL0     C59148   6.577   2.777   8.667  0.1907 -0.6527  0.8216
  449MOL0     C59149   6.428   2.757   8.621  0.2645 -0.0479  0.3577
  449MOL0     C59150   6.379   2.881   8.543 -0.4533 -0.5816  0.6384
  449MOL0     C59151   6.251   2.854   8.458 -0.3365 -0.1705 -0.2768
  449MOL0     C59152   6.143   2.890   8.560  0.7377  0.1982 -0.4947
  449MOL0     N59153   6.005   2.853   8.521  0.1584 -0.1097  0.4169
  449MOL0     C59154   5.975   2.720   8.512 -0.7419 -0.1062  0.0126
  449MOL0     C59155   5.837   2.722   8.520 -0.1468 -0.9159  0.0443
  449MOL0     C59156   5.748   2.606   8.519  0.8774 -0.2901 -0.0352
  449MOL0     C59157   5.693   2.590   8.660  0.6170  0.9781 -0.4433
  449MOL0     C59158   5.565   2.687   8.668  0.3464 -0.7349 -0.7042
  449MOL0     C59159   5.448   2.651   8.755  1.0571  0.0970 -0.1758
  449MOL0     O59160   5.329   2.722   8.714 -0.0192 -0.3020  0.2830
  449MOL0     C59161   5.206   2.667   8.751 -0.8965  0.1111 -0.0365
  449MOL0     C59162   5.146   2.573   8.663 -1.1085  0.3449  0.6525
  449MOL0     C59163   5.027   2.517   8.691  0.3088 -0.3295 -0.0079
  449MOL0     C59164   4.949   2.549   8.805  0.0681  1.1480  0.6944
  449MOL0     C59165   4.815   2.500   8.815 -0.5296  0.9923 -0.6720
  449MOL0     O59166   4.738   2.593   8.876  0.3693  0.4765  0.1115
  449MOL0     C59167   4.616   2.542   8.900 -0.1106 -0.2803 -0.2283
  449MOL0     C59168   4.579   2.454   9.005 -0.0690 -0.7370 -0.0094
  449MOL0     C59169   4.441   2.421   9.018 -0.4532 -0.2465 -0.4167
  449MOL0     C59170   4.349   2.469   8.928 -0.4363  0.2715  1.2388
  449MOL0     O59171   4.213   2.440   8.956  0.2672  0.1587  0.1723
  449MOL0     C59172   4.109   2.509   8.885 -0.6623  0.9781 -0.6511
  449MOL0     C59173   3.982   2.439   8.936  0.1567  0.1092  0.0305
  449MOL0     C59174   3.861   2.497   8.857  0.2546  0.2661  0.0253
  449MOL0     C59175   3.733   2.427   8.883 -0.3726  0.1648  0.4223
  449MOL0     C59176   3.638   2.523   8.960 -0.1895 -0.1523  0.1491
  449MOL0     C59177   3.589   2.647   8.879  0.4345  0.7180 -0.0872
  449MOL0     C59178   3.516   2.608   8.749  0.2392 -0.1861  0.2167
  449MOL0     C59179   3.420   2.717   8.704 -0.3809 -0.4442  0.0163
  449MOL0    Cl59180   3.453   2.889   8.737 -0.2479  0.2608  0.5028
  449MOL0     C59181   4.385   2.550   8.814  0.1855 -0.3974 -0.2830
  449MOL0     C59182   4.516   2.584   8.808 -1.2525  0.1524  0.4885
  449MOL0     O59183   4.781   2.386   8.771 -0.5364 -0.0045 -0.1111
  449MOL0     C59184   5.014   2.620   8.899 -1.1641 -0.2079 -0.2960
  449MOL0     C59185   5.143   2.686   8.874 -0.0589  0.0032 -0.0840
  449MOL0     N59186   5.791   2.858   8.505  0.9016 -0.0400  0.9141
  449MOL0     N59187   5.893   2.934   8.516 -0.3550  0.1723  0.0773
  449MOL0     C59188   7.178   2.640   8.436  0.3062  0.1224 -0.2844
  449MOL0     C59189   7.305   2.583   8.427  0.1236  0.3572 -0.6218
  449MOL0     C59190   7.636   2.273   8.395  0.7966  0.0756  0.6754
  449MOL0     C59191   7.734   2.369   8.401 -0.5736 -0.0519 -0.1886
  449MOL0     C59192   7.855   2.353   8.332  0.7202  0.6054  0.1358
  449MOL0     C59193   7.873   2.247   8.243  0.0610 -1.0098 -0.8148
  449MOL0     O59194   7.988   2.250   8.165  0.0377  0.8215  0.0446
  449MOL0     C59195   8.041   2.113   8.139  0.1295  0.7303 -0.7747
  449MOL0     C59196   8.172   2.123   8.060 -0.2212 -1.0629  0.4009
  449MOL0     C59197   8.280   2.204   8.129 -0.4798 -0.5906  0.3719
  449MOL0     C59198   8.357   2.119   8.241 -0.4970 -1.3789  0.1181
  449MOL0     C59199   8.480   2.189   8.278  0.9299 -0.4219 -0.3434
  449MOL0     C59200   8.579   2.245   8.316  0.0202 -0.2009 -0.6267
  449MOL0     C59201   7.784   2.144   8.250  0.4885  0.1281 -0.3771
  449MOL0     C59202   7.660   2.156   8.325  0.1526 -0.8167 -0.2035
  449MOL0     H59203   7.266   2.329   8.655 -1.5401  0.2575  1.2460
  449MOL0     H59204   7.046   2.438   8.680  0.8044 -0.2032  0.2353
  449MOL0     H59205   6.929   2.774   8.401 -1.8921  0.1050 -0.1900
  449MOL0     H59206   7.031   2.809   8.541 -0.1688 -0.1929  2.2070
  449MOL0     H59207   6.818   2.910   8.567  0.5556  0.7930  1.0304
  449MOL0     H59208   6.850   2.789   8.690 -0.8057  1.7137  0.1092
  449MOL0     H59209   6.691   2.635   8.552 -0.2978 -0.7577  0.4538
  449MOL0     H59210   6.648   2.792   8.466  0.6030  1.9127  1.3465
  449MOL0     H59211   6.603   2.721   8.757 -1.6982 -0.5394  1.4728
  449MOL0     H59212   6.590   2.883   8.690 -1.4642  0.2300 -1.8522
  449MOL0     H59213   6.363   2.746   8.708 -0.5335 -0.3590 -0.2720
  449MOL0     H59214   6.417   2.667   8.560  0.4055  0.0125  0.2427
  449MOL0     H59215   6.458   2.916   8.476 -0.2224  1.7102  2.0031
  449MOL0     H59216   6.369   2.973   8.600 -0.7582 -0.5680  0.5656
  449MOL0     H59217   6.245   2.928   8.378 -2.8179  0.4025  0.3426
  449MOL0     H59218   6.247   2.751   8.421 -1.3156 -1.1467  2.2850
  449MOL0     H59219   6.145   3.000   8.566 -0.4490  0.3926 -2.7068
  449MOL0     H59220   6.169   2.846   8.657  2.0126  2.0124  0.0562
  449MOL0     H59221   6.038   2.632   8.513 -0.0284  0.3927  0.3587
  449MOL0     H59222   5.797   2.518   8.479  1.0349  0.1748 -0.8979
  449MOL0     H59223   5.667   2.614   8.445  1.9416  0.3732 -1.1569
  449MOL0     H59224   5.764   2.620   8.738 -3.5366 -1.0929  4.7578
  449MOL0     H59225   5.674   2.482   8.658  3.5370  0.3872 -0.4748
  449MOL0     H59226   5.600   2.789   8.689  0.0218 -0.4684 -1.3847
  449MOL0     H59227   5.522   2.712   8.570  2.5548  3.3792 -0.8514
  449MOL0     H59228   5.469   2.683   8.858  0.9882  2.7536 -0.9092
  449MOL0     H59229   5.409   2.549   8.756 -0.8806  0.7897  0.2743
  449MOL0     H59230   5.213   2.543   8.583 -1.1886 -2.2372  1.4365
  449MOL0     H59231   4.999   2.445   8.614  2.3752 -1.1793 -0.0239
  449MOL0     H59232   4.656   2.419   9.074 -1.4837 -1.1468  1.4064
  449MOL0     H59233   4.413   2.386   9.116 -1.3220  1.0510 -0.1676
  449MOL0     H59234   4.114   2.497   8.776  3.2806 -0.7150 -0.4698
  449MOL0     H59235   4.094   2.609   8.926  1.6229  0.1386  2.6658
  449MOL0     H59236   3.966   2.467   9.041 -3.5699 -0.0136 -0.3891
  449MOL0     H59237   3.988   2.329   8.939 -2.2172 -0.0615  0.6878
  449MOL0     H59238   3.897   2.491   8.754  1.4038 -1.4440  0.4860
  449MOL0     H59239   3.851   2.604   8.876 -0.7104 -0.1163  1.8691
  449MOL0     H59240   3.699   2.397   8.783  2.7164  0.9812 -1.0017
  449MOL0     H59241   3.742   2.335   8.942 -1.8941  1.3089  2.5408
  449MOL0     H59242   3.692   2.556   9.050  1.2853  3.6971 -1.9371
  449MOL0     H59243   3.548   2.467   8.988 -1.8244  1.4692 -1.5385
  449MOL0     H59244   3.679   2.703   8.852  0.5756  0.8332  0.5940
  449MOL0     H59245   3.529   2.717   8.938 -0.8242  1.1807 -1.8381
  449MOL0     H59246   3.589   2.589   8.670  0.2667  0.2559  0.1346
  449MOL0     H59247   3.454   2.519   8.766  1.6701 -1.2311  0.1607
  449MOL0     H59248   3.334   2.693   8.768  0.6893  0.4092  1.8433
  449MOL0     H59249   3.393   2.707   8.599  2.2979  1.0179 -0.8961
  449MOL0     H59250   4.312   2.594   8.746  1.1916 -0.0731 -1.1819
  449MOL0     H59251   4.550   2.647   8.726  0.4808 -3.0287 -1.4088
  449MOL0     H59252   4.960   2.627   8.993  0.5664 -0.9214  0.8119
  449MOL0     H59253   5.172   2.758   8.950 -0.0554  2.0036 -1.8728
  449MOL0     H59254   7.143   2.710   8.361 -1.3573 -1.8494 -1.4490
  449MOL0     H59255   7.376   2.631   8.360  1.2571 -1.9266 -1.1824
  449MOL0     H59256   7.718   2.465   8.449  1.7717  1.0065 -1.3847
  449MOL0     H59257   7.929   2.432   8.339  4.1516 -2.3347 -0.0076
  449MOL0     H59258   7.970   2.058   8.076  0.7913  1.9855 -2.7399
  449MOL0     H59259   8.049   2.050   8.228  1.3140  0.2621 -1.1938
  449MOL0     H59260   8.214   2.025   8.033  3.0722  0.6626 -1.4489
  449MOL0     H59261   8.152   2.181   7.970 -0.6871  1.1493  1.8483
  449MOL0     H59262   8.238   2.298   8.165 -2.7080 -1.1774 -0.5607
  449MOL0     H59263   8.348   2.238   8.050  3.0428 -2.6300  2.2235
  449MOL0     H59264   8.280   2.096   8.315 -0.7919  0.0519  0.2758
  449MOL0     H59265   8.395   2.022   8.206  1.1155 -0.9606  0.5969
  449MOL0     H59266   8.670   2.292   8.349  2.1280 -5.4856  2.4488
  449MOL0     H59267   7.792   2.051   8.195  0.2196  1.0919 -2.0999
  449MOL0     H59268   7.585   2.079   8.312 -1.1481  0.6672 -1.9035
  450MOL0     O59269   1.710   1.116   9.983 -1.0108 -0.4815 -0.3951
  450MOL0     C59270   1.745   1.236  10.001  0.0477  0.0065  1.2597
  450MOL0     O59271   1.667   1.353   9.980 -0.5856  0.2739  0.4640
  450MOL0     C59272   1.536   1.323   9.956  0.3561 -0.5203  0.1320
  450MOL0     C59273   1.454   1.245  10.040 -0.5259  0.2838 -0.1677
  450MOL0     C59274   1.325   1.220  10.005 -0.7277 -0.0163  0.1218
  450MOL0     C59275   1.263   1.272   9.896  0.3799 -0.3392  0.2276
  450MOL0     O59276   1.130   1.255   9.883  0.6537  0.4412  0.0734
  450MOL0     C59277   1.061   1.296   9.771 -0.0006 -0.4608 -0.6037
  450MOL0     C59278   0.906   1.320   9.798 -0.4382  1.3801  0.0540
  450MOL0     C59279   0.831   1.201   9.843 -0.4893  0.2868  1.1480
  450MOL0     C59280   0.681   1.230   9.868 -0.6914 -0.0755 -0.1667
  450MOL0     C59281   0.606   1.113   9.911 -0.7000  0.6825  0.0141
  450MOL0     C59282   0.600   1.114  10.068  0.7461 -0.3740 -0.1564
  450MOL0     C59283   0.494   1.012  10.126  0.2380  0.3062 -0.2334
  450MOL0     C59284   0.347   1.064  10.109  0.3483  0.6109 -0.0595
  450MOL0     N59285   0.249   0.961  10.151 -0.8314 -0.5317 -0.0252
  450MOL0     C59286   0.202   0.968  10.275 -0.3924 -0.3963  0.5760
  450MOL0     C59287   0.093   0.889  10.251  0.5946  0.2567  0.0049
  450MOL0     C59288  -0.025   0.859  10.350 -0.1701  1.3371 -0.1027
  450MOL0     C59289  -0.136   0.963  10.327 -0.5594  0.7415 -0.4236
  450MOL0     C59290  -0.248   0.954  10.431 -0.2691 -0.5438 -0.0671
  450MOL0     C59291  -0.370   0.882  10.375 -0.1381 -0.7397 -0.8605
  450MOL0     O59292  -0.457   0.982  10.303 -0.6062 -0.1645 -1.0587
  450MOL0     C59293  -0.587   0.947  10.277  0.4833 -0.5702 -0.1571
  450MOL0     C59294  -0.641   0.817  10.274  0.0699 -0.3502 -0.3463
  450MOL0     C59295  -0.778   0.805  10.256  0.6249  0.6131 -0.3013
  450MOL0     C59296  -0.863   0.910  10.231 -0.8747  0.0275 -1.1771
  450MOL0     C59297  -1.003   0.883  10.204  0.1496 -1.3507 -0.4847
  450MOL0     O59298  -1.071   0.949  10.103 -0.2564  0.5050 -0.7033
  450MOL0     C59299  -1.208   0.968  10.101 -0.4108 -0.8974  0.0529
  450MOL0     C59300  -1.261   1.058  10.005  0.0389 -0.6256 -0.2014
  450MOL0     C59301  -1.396   1.100  10.008  0.3888 -0.1877 -0.2689
  450MOL0     C59302  -1.489   1.050  10.106 -0.1828 -0.4240  0.8725
  450MOL0     O59303  -1.613   1.094  10.101  1.4335  0.8595 -0.2234
  450MOL0     C59304  -1.708   1.065  10.209 -0.7812 -0.0409  0.3645
  450MOL0     C59305  -1.835   1.103  10.151  1.3991  1.3923  0.0014
  450MOL0     C59306  -1.959   1.060  10.242  0.0308 -0.0137  0.6558
  450MOL0     C59307  -1.970   1.150  10.369  0.3932  0.5526 -0.0290
  450MOL0     C59308  -1.993   1.066  10.489 -0.0341  0.3138  0.7816
  450MOL0     C59309  -2.124   0.991  10.483  0.8823  0.2721  0.2386
  450MOL0     C59310  -2.129   0.902  10.604  0.9590  0.2797  0.0136
  450MOL0     C59311  -2.256   0.810  10.618 -0.4440 -0.1129  0.2119
  450MOL0    Cl59312  -2.298   0.754  10.784  0.2142 -0.1948  0.0019
  450MOL0     C59313  -1.436   0.958  10.200  0.0493  0.3410  0.9301
  450MOL0     C59314  -1.303   0.912  10.194 -0.1744 -0.4902  0.1108
  450MOL0     O59315  -1.062   0.805  10.279 -0.5818 -0.5712 -0.4980
  450MOL0     C59316  -0.803   1.047  10.218  0.0176 -0.1746  0.7207
  450MOL0     C59317  -0.670   1.056  10.243  0.0340 -0.8993 -0.3342
  450MOL0     N59318   0.087   0.839  10.122 -0.0017  0.2879 -0.9038
  450MOL0     N59319   0.186   0.872  10.065 -0.8945  0.3254 -0.2733
  450MOL0     C59320   1.336   1.356   9.811 -0.2742 -0.4460 -0.0818
  450MOL0     C59321   1.479   1.376   9.837 -0.0141 -0.0212  0.5760
  450MOL0     C59322   1.888   1.258  10.041 -1.8918  0.6439  0.7537
  450MOL0     C59323   1.940   1.387  10.050 -0.1732 -0.5799 -0.5794
  450MOL0     C59324   2.077   1.400  10.083  0.6950 -0.7415 -0.5791
  450MOL0     C59325   2.170   1.292  10.100  0.7143  0.5305  0.1280
  450MOL0     O59326   2.301   1.314  10.120  0.1551  1.1291  0.3368
  450MOL0     C59327   2.408   1.236  10.067 -0.4745  0.8155 -0.0042
  450MOL0     C59328   2.542   1.278  10.133 -0.2370  0.4774  0.1565
  450MOL0     C59329   2.653   1.225  10.042 -0.0708  0.5882 -0.6806
  450MOL0     C59330   2.791   1.223  10.108  0.2283  0.2162 -0.4771
  450MOL0     C59331   2.890   1.131  10.049  0.5122 -0.8132  0.6151
  450MOL0     C59332   2.980   1.082   9.992  0.2871  0.2104  0.8594
  450MOL0     C59333   2.110   1.165  10.100  0.3508  0.7838  0.3402
  450MOL0     C59334   1.975   1.149  10.069  0.1297 -0.7120 -0.8913
  450MOL0     H59335   1.507   1.205  10.127 -1.7654 -2.8096 -0.6857
  450MOL0     H59336   1.267   1.154  10.069  1.0452  0.0660  1.9167
  450MOL0     H59337   1.072   1.219   9.694  1.1066 -0.9929  0.0684
  450MOL0     H59338   1.082   1.397   9.734  1.1220  0.2549  1.7718
  450MOL0     H59339   0.877   1.351   9.697 -0.8409  1.8285  0.3019
  450MOL0     H59340   0.889   1.400   9.870  0.4351  0.4237  1.3735
  450MOL0     H59341   0.881   1.185   9.939  2.2106  2.9423  0.3472
  450MOL0     H59342   0.836   1.115   9.776 -0.5430  1.0879  0.0872
  450MOL0     H59343   0.670   1.316   9.933 -0.4307  2.1595 -2.8933
  450MOL0     H59344   0.639   1.269   9.775  0.3730  1.4557 -0.0453
  450MOL0     H59345   0.639   1.012   9.886 -0.2488  1.2622 -1.8892
  450MOL0     H59346   0.503   1.125   9.875 -1.5403 -2.6509  0.9229
  450MOL0     H59347   0.570   1.209  10.111  1.9703 -0.7155  1.5293
  450MOL0     H59348   0.698   1.104  10.116  1.2088  0.6545 -0.8612
  450MOL0     H59349   0.512   0.916  10.077 -1.2323  0.1440 -0.5172
  450MOL0     H59350   0.507   0.994  10.233 -2.7786  1.0542  0.3624
  450MOL0     H59351   0.351   1.087  10.002  4.3411  0.5388 -0.0840
  450MOL0     H59352   0.334   1.158  10.163 -1.5742  1.0105 -1.1393
  450MOL0     H59353   0.244   1.008  10.367  1.1835 -2.0538  0.6249
  450MOL0     H59354   0.016   0.862  10.451 -2.2331  4.1071  0.7803
  450MOL0     H59355  -0.054   0.758  10.322 -0.5882  2.2233 -3.2590
  450MOL0     H59356  -0.175   0.946  10.226 -2.1628 -0.1611  0.3122
  450MOL0     H59357  -0.092   1.063  10.335 -0.2345  0.5025  1.0362
  450MOL0     H59358  -0.222   0.908  10.527 -1.2079  0.2773  0.6074
  450MOL0     H59359  -0.273   1.058  10.454 -0.0373 -0.7555  1.2550
  450MOL0     H59360  -0.424   0.829  10.454 -0.0673  1.2092  0.5501
  450MOL0     H59361  -0.334   0.817  10.295 -0.7019 -0.9614 -0.9404
  450MOL0     H59362  -0.583   0.726  10.289 -1.1401 -1.2611 -1.0877
  450MOL0     H59363  -0.812   0.704  10.275  2.4483  0.2636  1.4361
  450MOL0     H59364  -1.205   1.100   9.922  0.5800  1.4320  1.1294
  450MOL0     H59365  -1.430   1.173   9.935  2.4454 -0.7101 -1.8574
  450MOL0     H59366  -1.689   1.114  10.305 -2.4264  1.3735  0.0029
  450MOL0     H59367  -1.710   0.958  10.233  1.1977  0.2922  2.4131
  450MOL0     H59368  -1.842   1.049  10.056 -1.1175  0.0224  0.8861
  450MOL0     H59369  -1.831   1.210  10.126  0.3676  1.1637 -1.2810
  450MOL0     H59370  -1.956   0.954  10.267 -2.2368 -0.5780 -1.1375
  450MOL0     H59371  -2.055   1.059  10.189  0.2166 -1.6472  0.3012
  450MOL0     H59372  -1.879   1.210  10.379 -1.3704  3.6251 -0.8526
  450MOL0     H59373  -2.056   1.217  10.367 -1.3782 -1.6125  0.3402
  450MOL0     H59374  -1.999   1.134  10.575  0.2062 -0.9068  1.7932
  450MOL0     H59375  -1.910   0.996  10.499  0.6302  0.9360 -0.2151
  450MOL0     H59376  -2.128   0.929  10.393  2.8785  0.1327  0.2049
  450MOL0     H59377  -2.200   1.069  10.471 -0.1360 -0.8278 -0.8130
  450MOL0     H59378  -2.043   0.835  10.601  0.1564 -1.0378  2.6240
  450MOL0     H59379  -2.125   0.959  10.697 -0.8444  0.5021  0.0075
  450MOL0     H59380  -2.242   0.729  10.547  0.3411  2.1210 -2.3644
  450MOL0     H59381  -2.338   0.870  10.578 -1.6249 -3.0674 -2.0737
  450MOL0     H59382  -1.499   0.916  10.277  1.0702 -4.7546 -0.5955
  450MOL0     H59383  -1.279   0.821  10.247 -3.7305 -0.8949  1.2642
  450MOL0     H59384  -0.873   1.130  10.205 -0.6554 -0.5858  1.5513
  450MOL0     H59385  -0.625   1.154  10.236 -2.0973  0.1335 -0.0793
  450MOL0     H59386   1.284   1.401   9.727  0.7726 -0.1567 -0.5914
  450MOL0     H59387   1.528   1.441   9.766 -2.3813  1.2782  0.0457
  450MOL0     H59388   1.880   1.477  10.037  1.5015  0.7291  0.2616
  450MOL0     H59389   2.103   1.504  10.096 -0.2733 -0.7464  2.0558
  450MOL0     H59390   2.413   1.238   9.958  0.1387  1.2899  0.0241
  450MOL0     H59391   2.389   1.130  10.080 -0.6244  1.0294  1.8650
  450MOL0     H59392   2.558   1.385  10.148  0.4457  0.1540  1.9104
  450MOL0     H59393   2.547   1.227  10.230  1.9922 -2.4130 -1.2962
  450MOL0     H59394   2.649   1.295   9.958 -1.3528  1.4463  0.0525
  450MOL0     H59395   2.634   1.121  10.014 -1.1336  0.0645  1.7716
  450MOL0     H59396   2.838   1.320  10.088  3.6002 -0.9652  0.8101
  450MOL0     H59397   2.787   1.209  10.217 -4.8507 -0.9015 -0.5788
  450MOL0     H59398   3.055   1.029   9.937 -0.6401 -1.5974  1.2745
  450MOL0     H59399   2.178   1.082  10.112  1.5390  1.4893 -1.1715
  450MOL0     H59400   1.951   1.043  10.070  0.0665 -0.6940  0.0235
  451MOL0     O59401  10.134   1.122   5.182 -0.1805  1.0522  0.3928
  451MOL0     C59402  10.206   1.174   5.268 -0.6257 -0.0771  0.8705
  451MOL0     O59403  10.308   1.101   5.333  0.4916  0.0994  0.2485
  451MOL0     C59404  10.346   0.979   5.276 -0.3222  0.4286  0.1576
  451MOL0     C59405  10.432   0.965   5.165  0.9727 -0.6030 -0.0960
  451MOL0     C59406  10.444   0.841   5.098 -0.2850  1.0036  0.4492
  451MOL0     C59407  10.381   0.723   5.144  0.1812 -0.8453 -0.1171
  451MOL0     O59408  10.373   0.607   5.072 -0.0239  0.9053 -0.1235
  451MOL0     C59409  10.508   0.556   5.044  0.3809 -0.2167 -0.0877
  451MOL0     C59410  10.494   0.406   5.005  0.6762  0.1616  0.4227
  451MOL0     C59411  10.389   0.365   4.894 -0.0194 -0.0834 -0.7106
  451MOL0     C59412  10.398   0.226   4.854  1.0714  0.6572 -0.2258
  451MOL0     C59413  10.358   0.114   4.955 -0.9686 -0.7076 -0.4799
  451MOL0     C59414  10.294  -0.002   4.891 -1.0948 -0.6420  0.4932
  451MOL0     C59415  10.386  -0.088   4.792 -0.1986 -0.9938 -0.5765
  451MOL0     C59416  10.308  -0.204   4.729 -0.1311  0.5694 -0.1823
  451MOL0     N59417  10.188  -0.177   4.651  0.4903  1.0255  0.2021
  451MOL0     C59418  10.052  -0.160   4.698  0.5841  1.0544 -0.6534
  451MOL0     C59419   9.984  -0.109   4.593 -0.2231 -0.4720 -0.5155
  451MOL0     C59420   9.838  -0.090   4.566  0.9737 -1.2308 -0.4314
  451MOL0     C59421   9.748  -0.208   4.525 -0.3253 -0.3852 -0.0120
  451MOL0     C59422   9.598  -0.187   4.546  0.2850  0.3307 -0.3460
  451MOL0     C59423   9.502  -0.307   4.512 -1.5476 -0.7186  0.5203
  451MOL0     O59424   9.376  -0.253   4.526 -0.5896 -0.0807  0.4375
  451MOL0     C59425   9.267  -0.329   4.510  0.0789  1.1774  0.3098
  451MOL0     C59426   9.152  -0.266   4.529 -0.2554  0.8368  0.2516
  451MOL0     C59427   9.030  -0.326   4.500  0.4603 -0.2192 -0.9709
  451MOL0     C59428   9.014  -0.457   4.465 -1.0334  0.3045  0.2987
  451MOL0     C59429   8.894  -0.532   4.429 -0.3053 -0.3743 -0.4896
  451MOL0     O59430   8.913  -0.659   4.376 -0.0209  0.1259 -0.0836
  451MOL0     C59431   8.799  -0.724   4.337  0.4968  0.1129 -0.3095
  451MOL0     C59432   8.740  -0.818   4.427 -1.0181 -0.6558 -0.0627
  451MOL0     C59433   8.621  -0.888   4.395  0.1197  0.3145  0.1020
  451MOL0     C59434   8.565  -0.863   4.268  0.9605 -0.2238  0.4100
  451MOL0     O59435   8.436  -0.913   4.240 -0.5230  0.1972  0.2015
  451MOL0     C59436   8.408  -0.944   4.100 -0.2388  0.2918 -0.6558
  451MOL0     C59437   8.305  -1.058   4.101  0.7218  0.3450 -0.1143
  451MOL0     C59438   8.367  -1.188   4.167 -0.0971 -0.0317  0.4665
  451MOL0     C59439   8.292  -1.314   4.125 -0.5146 -0.0485  0.1279
  451MOL0     C59440   8.141  -1.296   4.153  0.1561  0.6826  0.1584
  451MOL0     C59441   8.067  -1.424   4.123 -0.1849  0.3925  0.1436
  451MOL0     C59442   7.913  -1.397   4.169  0.0234 -0.6523  0.2599
  451MOL0     C59443   7.884  -1.369   4.317  0.1058 -0.0843 -0.0606
  451MOL0    Cl59444   7.727  -1.435   4.361 -0.2033 -0.0437  0.3241
  451MOL0     C59445   8.623  -0.766   4.180 -0.8233  0.6750 -0.5256
  451MOL0     C59446   8.731  -0.689   4.225 -0.6915 -0.6105  0.7630
  451MOL0     O59447   8.779  -0.476   4.441 -1.0466  0.1496 -0.4512
  451MOL0     C59448   9.139  -0.528   4.453  0.9741 -0.9427  0.2010
  451MOL0     C59449   9.265  -0.469   4.470 -0.1596 -0.8240  0.2485
  451MOL0     N59450  10.077  -0.095   4.490  0.5744 -0.1191 -0.6771
  451MOL0     N59451  10.193  -0.128   4.525  1.1137  0.2247  0.5346
  451MOL0     C59452  10.296   0.739   5.249 -0.2577 -0.1971 -0.5442
  451MOL0     C59453  10.285   0.861   5.318 -0.3463  0.5105 -0.1146
  451MOL0     C59454  10.193   1.315   5.310 -1.3307 -0.0470 -0.1397
  451MOL0     C59455  10.273   1.378   5.415  0.0948  0.4223  0.1024
  451MOL0     C59456  10.249   1.509   5.451 -0.0183  0.6307 -0.3856
  451MOL0     C59457  10.159   1.601   5.381  0.7876  0.4401 -0.3187
  451MOL0     O59458  10.154   1.730   5.423 -0.0328 -1.3588  0.4352
  451MOL0     C59459  10.050   1.816   5.377 -0.7164 -0.0117  0.2488
  451MOL0     C59460  10.119   1.896   5.268  0.3678  0.2667 -0.5017
  451MOL0     C59461  10.026   1.999   5.213  0.1513  0.6544 -0.5054
  451MOL0     C59462  10.099   2.075   5.097  0.3664  0.7992  0.4337
  451MOL0     C59463  10.111   2.001   4.969  0.6749  0.6872 -0.3957
  451MOL0     C59464  10.117   1.954   4.864 -0.7735  0.2787  0.2930
  451MOL0     C59465  10.094   1.541   5.270 -0.1463  0.0963 -0.2965
  451MOL0     C59466  10.111   1.404   5.235  0.7456  0.9179  0.0688
  451MOL0     H59467  10.487   1.053   5.132  2.2054 -0.2849  2.5903
  451MOL0     H59468  10.519   0.835   5.019  0.6328 -0.2144  1.3795
  451MOL0     H59469  10.565   0.558   5.137  0.5618 -0.6685 -0.1869
  451MOL0     H59470  10.569   0.613   4.973  3.2930  0.0101  2.4204
  451MOL0     H59471  10.468   0.354   5.098  2.5112 -0.8466  0.4059
  451MOL0     H59472  10.583   0.359   4.962 -1.6355 -3.6439 -0.6532
  451MOL0     H59473  10.406   0.428   4.806  1.8387 -1.1861 -1.1961
  451MOL0     H59474  10.290   0.389   4.933  0.1126  2.0200 -1.5040
  451MOL0     H59475  10.331   0.229   4.767 -0.3551  4.0584  0.8004
  451MOL0     H59476  10.492   0.200   4.805  1.5723  0.5862  0.7542
  451MOL0     H59477  10.285   0.158   5.023 -2.1436  0.1417 -2.2246
  451MOL0     H59478  10.445   0.082   5.013 -0.3786  0.7748 -0.5139
  451MOL0     H59479  10.219   0.037   4.822 -2.7170 -1.8009  1.5162
  451MOL0     H59480  10.243  -0.060   4.968 -1.9479  0.6952  0.9692
  451MOL0     H59481  10.421  -0.035   4.703 -0.9899 -0.2980 -0.4842
  451MOL0     H59482  10.478  -0.117   4.845  1.3834  3.3451 -0.5484
  451MOL0     H59483  10.277  -0.264   4.815 -0.6984  4.3048  2.4794
  451MOL0     H59484  10.376  -0.270   4.674 -1.4617 -1.2134  0.2212
  451MOL0     H59485  10.009  -0.184   4.794 -0.6615 -0.1798 -1.4698
  451MOL0     H59486   9.831  -0.007   4.495  2.4987 -1.4089 -0.8294
  451MOL0     H59487   9.799  -0.040   4.655  0.8564  2.0415 -2.1437
  451MOL0     H59488   9.780  -0.286   4.594  2.2387 -1.0469 -1.8031
  451MOL0     H59489   9.777  -0.242   4.425 -2.3050 -2.9846  0.2136
  451MOL0     H59490   9.576  -0.143   4.644 -3.7665  3.3123 -2.3108
  451MOL0     H59491   9.552  -0.119   4.473 -2.4213 -1.7869 -0.7871
  451MOL0     H59492   9.514  -0.392   4.581 -2.2620 -1.4699 -0.2567
  451MOL0     H59493   9.517  -0.351   4.413 -0.1356 -2.7547  1.5572
  451MOL0     H59494   9.138  -0.165   4.565  0.1964  1.4845 -1.3045
  451MOL0     H59495   8.943  -0.264   4.518  0.7449 -0.0310 -0.1717
  451MOL0     H59496   8.776  -0.841   4.527 -4.1121 -1.7504  0.9191
  451MOL0     H59497   8.582  -0.966   4.461  0.6220 -0.3859 -0.4134
  451MOL0     H59498   8.500  -0.981   4.054  1.0560 -2.5148  3.5583
  451MOL0     H59499   8.360  -0.855   4.059  2.7832  0.7420 -3.6293
  451MOL0     H59500   8.281  -1.077   3.996  0.0131 -0.2823  0.1534
  451MOL0     H59501   8.211  -1.028   4.147  1.4933  1.3162  0.8881
  451MOL0     H59502   8.368  -1.158   4.272 -1.7538  0.8659  0.2640
  451MOL0     H59503   8.471  -1.206   4.140 -0.1841 -0.8103  0.6160
  451MOL0     H59504   8.306  -1.338   4.019 -2.4660 -1.5877  0.1571
  451MOL0     H59505   8.332  -1.395   4.186 -1.2054  1.2511  2.4596
  451MOL0     H59506   8.099  -1.211   4.099  2.6008 -0.9595 -5.0517
  451MOL0     H59507   8.118  -1.274   4.258  0.5076 -0.7408  0.5634
  451MOL0     H59508   8.108  -1.508   4.179 -1.0416 -1.6743 -2.1489
  451MOL0     H59509   8.074  -1.461   4.020 -0.1359 -0.0538  0.3047
  451MOL0     H59510   7.871  -1.313   4.113 -2.2293  1.1425  4.2496
  451MOL0     H59511   7.854  -1.479   4.128 -0.7012  0.3359 -0.7481
  451MOL0     H59512   7.885  -1.263   4.342  1.3501 -0.2231  0.5066
  451MOL0     H59513   7.965  -1.424   4.366  1.0792 -0.2686 -1.7865
  451MOL0     H59514   8.571  -0.730   4.092 -0.2285  0.8035 -0.8279
  451MOL0     H59515   8.774  -0.599   4.182  0.9323 -1.0923  1.3033
  451MOL0     H59516   9.156  -0.632   4.424  1.4935 -1.1427  1.1691
  451MOL0     H59517   9.356  -0.524   4.447 -0.1318 -2.2793  3.3713
  451MOL0     H59518  10.232   0.654   5.272 -1.7683  1.3263  1.2850
  451MOL0     H59519  10.209   0.872   5.396  0.6007 -0.4312  0.9728
  451MOL0     H59520  10.347   1.324   5.474  0.0737  3.1712  2.9405
  451MOL0     H59521  10.304   1.551   5.535  2.9915 -1.7361 -1.0146
  451MOL0     H59522  10.019   1.874   5.464 -1.7491 -1.9348  1.2271
  451MOL0     H59523   9.969   1.766   5.323  1.6064 -3.5952 -0.2166
  451MOL0     H59524  10.200   1.952   5.315  0.4643  0.6276 -1.0856
  451MOL0     H59525  10.169   1.833   5.194  2.3286 -1.1509  1.8883
  451MOL0     H59526   9.993   2.066   5.293 -2.5898  0.4637 -1.3852
  451MOL0     H59527   9.931   1.952   5.186 -0.4036 -0.2560  2.5797
  451MOL0     H59528  10.033   2.159   5.076  0.5442  1.2165  1.4789
  451MOL0     H59529  10.197   2.107   5.134  0.8674  0.5539 -0.6338
  451MOL0     H59530  10.115   1.916   4.764 -1.3233 -1.5638  0.9619
  451MOL0     H59531  10.043   1.608   5.201  1.6879 -1.4284 -3.3584
  451MOL0     H59532  10.044   1.365   5.159 -1.6801  3.3722  0.8195
  452MOL0     O59533   9.268   9.492   3.190  0.3092 -0.5973  0.4052
  452MOL0     C59534   9.303   9.374   3.164 -0.2379  0.2753 -0.2887
  452MOL0     O59535   9.222   9.276   3.137 -0.1273  0.1810  1.4017
  452MOL0     C59536   9.086   9.294   3.146  0.1098 -0.2494 -0.1974
  452MOL0     C59537   9.018   9.213   3.239 -0.2906 -0.5310  0.5014
  452MOL0     C59538   8.881   9.225   3.266  0.4213  0.1427 -0.5228
  452MOL0     C59539   8.809   9.331   3.208 -0.8560 -0.4714 -0.0895
  452MOL0     O59540   8.682   9.364   3.224  0.2066 -0.9182 -0.3746
  452MOL0     C59541   8.597   9.247   3.233 -0.0398 -0.5971  0.2791
  452MOL0     C59542   8.450   9.284   3.206  0.9975  0.2202  0.3009
  452MOL0     C59543   8.364   9.299   3.330 -0.6770  0.8524  0.2814
  452MOL0     C59544   8.307   9.159   3.367 -0.3751 -0.8860 -0.2445
  452MOL0     C59545   8.217   9.158   3.487  0.3547 -0.3947 -0.8806
  452MOL0     C59546   8.180   9.014   3.526  0.9040  0.2533 -0.0806
  452MOL0     C59547   8.117   9.009   3.669 -0.4162  0.1888  0.0125
  452MOL0     C59548   8.059   8.875   3.692  0.2162  0.8696  0.2349
  452MOL0     N59549   7.975   8.878   3.809  0.1395  0.1368 -0.5561
  452MOL0     C59550   7.840   8.854   3.830 -0.2736  0.3084 -0.5164
  452MOL0     C59551   7.830   8.830   3.964 -1.0341  0.2264 -0.4284
  452MOL0     C59552   7.714   8.781   4.037 -0.5873  0.2362 -0.2392
  452MOL0     C59553   7.581   8.841   4.001 -0.5106  0.5994 -0.6519
  452MOL0     C59554   7.564   8.984   4.048 -0.1369  0.0798 -0.0322
  452MOL0     C59555   7.583   9.090   3.937  0.8263  0.0968 -0.4867
  452MOL0     O59556   7.473   9.096   3.846  0.3144  0.4357  0.5296
  452MOL0     C59557   7.350   9.142   3.874  1.1970  0.0865  1.0130
  452MOL0     C59558   7.315   9.213   3.996 -0.9185  0.0409  0.1276
  452MOL0     C59559   7.182   9.266   4.008 -0.4836 -0.1273 -0.7994
  452MOL0     C59560   7.084   9.258   3.912 -0.4253 -0.7420  0.1803
  452MOL0     C59561   6.944   9.297   3.929 -0.4612  0.0322 -0.6193
  452MOL0     O59562   6.913   9.356   4.046  0.1004  0.4593  0.2315
  452MOL0     C59563   6.780   9.381   4.061  0.2935  0.2918 -0.0201
  452MOL0     C59564   6.728   9.513   4.038 -0.9103  0.0385 -0.0097
  452MOL0     C59565   6.594   9.538   4.066 -1.0952 -0.4358 -1.1036
  452MOL0     C59566   6.508   9.443   4.117  0.3229 -0.6077 -0.1689
  452MOL0     O59567   6.372   9.465   4.130  1.1544  0.7274 -0.6522
  452MOL0     C59568   6.336   9.601   4.156  0.3078 -0.4516 -0.6969
  452MOL0     C59569   6.355   9.642   4.300  0.4162  0.0639 -0.4309
  452MOL0     C59570   6.293   9.534   4.397 -0.3184 -0.0961 -0.2052
  452MOL0     C59571   6.311   9.590   4.543  0.0774 -0.8490 -0.2012
  452MOL0     C59572   6.295   9.480   4.646  0.4394  0.5153  0.1597
  452MOL0     C59573   6.327   9.536   4.784 -1.1292  0.5354 -0.9307
  452MOL0     C59574   6.330   9.435   4.897 -0.8086 -0.5489  0.8184
  452MOL0     C59575   6.397   9.494   5.029 -0.3654  0.5162  1.0882
  452MOL0    Cl59576   6.401   9.355   5.145 -0.1018 -1.0240 -0.2046
  452MOL0     C59577   6.556   9.312   4.114  0.0031 -0.2024 -0.2559
  452MOL0     C59578   6.688   9.281   4.098 -0.1490 -0.1518 -1.0258
  452MOL0     O59579   6.867   9.268   3.835 -0.4157 -0.8803 -0.4454
  452MOL0     C59580   7.133   9.214   3.785 -0.6924  0.3909 -0.1198
  452MOL0     C59581   7.258   9.156   3.769 -0.2178  0.5829 -0.2690
  452MOL0     N59582   7.955   8.853   4.023 -0.0213 -0.3835 -0.2362
  452MOL0     N59583   8.035   8.878   3.928  0.1687 -0.4654  0.1810
  452MOL0     C59584   8.877   9.421   3.125  0.1749  0.6212 -0.0683
  452MOL0     C59585   9.009   9.391   3.088 -0.1621  0.0762 -0.0607
  452MOL0     C59586   9.450   9.349   3.172  0.2179  0.2962  0.0014
  452MOL0     C59587   9.500   9.257   3.078 -0.7597  0.0780  0.5674
  452MOL0     C59588   9.639   9.251   3.063  0.0434  0.5689 -0.5488
  452MOL0     C59589   9.723   9.318   3.148 -0.9141  0.1877  0.8462
  452MOL0     O59590   9.856   9.312   3.116 -0.3381  0.2913 -1.0529
  452MOL0     C59591   9.912   9.444   3.078 -0.7604 -0.2393 -0.0473
  452MOL0     C59592  10.066   9.436   3.094  0.9218 -0.2990 -1.1795
  452MOL0     C59593  10.118   9.578   3.105 -0.2692 -0.3634  0.2589
  452MOL0     C59594  10.254   9.578   3.178 -0.4790 -0.2701  0.1294
  452MOL0     C59595  10.336   9.696   3.141 -0.0832 -0.4645 -0.5459
  452MOL0     C59596  10.390   9.797   3.105 -0.3020 -0.5201  1.1912
  452MOL0     C59597   9.678   9.400   3.243 -0.1312 -0.1037 -0.5838
  452MOL0     C59598   9.541   9.422   3.246 -0.6457  0.1090 -0.0333
  452MOL0     H59599   9.088   9.150   3.293 -0.6234 -2.3814 -1.1309
  452MOL0     H59600   8.836   9.150   3.331  0.7820  1.7402  1.6599
  452MOL0     H59601   8.593   9.205   3.334  0.0936  0.5437  0.7823
  452MOL0     H59602   8.631   9.178   3.155  0.9363  2.2194 -1.9942
  452MOL0     H59603   8.406   9.225   3.125  0.5060 -1.1310  1.4869
  452MOL0     H59604   8.459   9.379   3.154  3.9188 -0.3639 -0.4598
  452MOL0     H59605   8.280   9.364   3.309 -3.3901 -2.6197 -0.5836
  452MOL0     H59606   8.436   9.336   3.404  0.3300  1.1871 -0.8325
  452MOL0     H59607   8.251   9.124   3.280 -0.0629  1.6936 -1.6037
  452MOL0     H59608   8.388   9.088   3.380 -0.5478 -1.0605 -0.1161
  452MOL0     H59609   8.126   9.210   3.457  0.8407  1.7098  1.0286
  452MOL0     H59610   8.267   9.221   3.561 -1.6966  0.9720 -0.5670
  452MOL0     H59611   8.268   8.949   3.520  0.0911 -0.7152 -2.6768
  452MOL0     H59612   8.108   8.970   3.457  1.9453  0.1226 -1.1191
  452MOL0     H59613   8.198   9.032   3.739 -1.6526  1.5088  1.0563
  452MOL0     H59614   8.037   9.083   3.671 -1.7242 -1.2061  0.7531
  452MOL0     H59615   8.145   8.810   3.712 -1.6816 -1.1387  2.6380
  452MOL0     H59616   8.010   8.840   3.600  1.4191  1.8968 -0.8344
  452MOL0     H59617   7.761   8.834   3.758 -1.6080  2.7360  0.1465
  452MOL0     H59618   7.733   8.792   4.144  0.8354  0.5485 -0.5117
  452MOL0     H59619   7.694   8.678   4.007 -2.3428  1.2017 -2.7669
  452MOL0     H59620   7.514   8.784   4.066 -0.1673  2.0358  1.0730
  452MOL0     H59621   7.562   8.823   3.895  0.7506 -4.1246 -0.3134
  452MOL0     H59622   7.467   8.999   4.098  0.9689  0.7886  2.0461
  452MOL0     H59623   7.637   9.002   4.128 -1.8502  0.4872  1.5361
  452MOL0     H59624   7.675   9.068   3.881 -1.7110  0.5046 -5.3421
  452MOL0     H59625   7.599   9.190   3.978  3.3963 -0.0767 -0.8774
  452MOL0     H59626   7.394   9.227   4.069 -0.7705  0.2294 -0.0681
  452MOL0     H59627   7.161   9.304   4.107 -2.1817 -3.7064  0.3767
  452MOL0     H59628   6.790   9.597   4.011 -1.7734 -0.2095 -3.1463
  452MOL0     H59629   6.568   9.643   4.057  0.8803  0.2927  0.6910
  452MOL0     H59630   6.233   9.619   4.125 -0.7418  0.1625  2.6511
  452MOL0     H59631   6.396   9.677   4.106  4.1588 -0.4162  3.2793
  452MOL0     H59632   6.308   9.738   4.323  0.1185 -0.6265  2.2616
  452MOL0     H59633   6.464   9.653   4.303  0.6247 -0.9511 -2.4185
  452MOL0     H59634   6.347   9.440   4.381 -2.7347 -1.5681 -0.1274
  452MOL0     H59635   6.187   9.518   4.377 -1.0714  3.3733  0.3666
  452MOL0     H59636   6.409   9.632   4.565 -1.5247  4.6520 -2.0482
  452MOL0     H59637   6.236   9.665   4.570  0.3615  0.3071 -2.4142
  452MOL0     H59638   6.364   9.401   4.617  2.0147  1.6991  0.5510
  452MOL0     H59639   6.192   9.446   4.663  0.3138  0.9971  0.3876
  452MOL0     H59640   6.241   9.600   4.805 -3.0946 -2.5139  1.1466
  452MOL0     H59641   6.413   9.604   4.793 -1.3307  0.7470 -0.5676
  452MOL0     H59642   6.226   9.405   4.908 -2.1396  2.5635 -1.8320
  452MOL0     H59643   6.397   9.353   4.868  1.6198  1.5091  0.1541
  452MOL0     H59644   6.346   9.581   5.072 -0.7868  0.4589  0.7176
  452MOL0     H59645   6.500   9.518   5.001 -0.0153 -1.4449  0.5574
  452MOL0     H59646   6.482   9.243   4.153  1.2983 -0.9077  1.0311
  452MOL0     H59647   6.725   9.181   4.122  4.6647  1.1993 -1.7865
  452MOL0     H59648   7.073   9.224   3.695  0.4826  1.3812 -0.8149
  452MOL0     H59649   7.297   9.132   3.671 -1.8027  0.3372 -0.8625
  452MOL0     H59650   8.824   9.503   3.079  0.3818  0.2007 -1.0862
  452MOL0     H59651   9.051   9.463   3.019  0.1813  2.8934  2.8618
  452MOL0     H59652   9.435   9.206   3.007  1.6863  0.8560 -2.4296
  452MOL0     H59653   9.673   9.182   2.988  1.7753 -0.0551  0.7493
  452MOL0     H59654   9.871   9.527   3.136 -1.0747 -1.8732  2.1959
  452MOL0     H59655   9.893   9.451   2.970  0.4321  0.4867 -0.2218
  452MOL0     H59656  10.092   9.381   3.184  0.0312  0.5190 -0.4027
  452MOL0     H59657  10.111   9.377   3.014 -2.0576 -2.1936 -1.6286
  452MOL0     H59658  10.047   9.645   3.153 -0.6351 -0.5519 -0.0111
  452MOL0     H59659  10.139   9.621   3.006  1.8500  2.2500  1.7108
  452MOL0     H59660  10.229   9.583   3.285  1.3416 -0.0194  0.5905
  452MOL0     H59661  10.321   9.493   3.160 -0.1981  0.3020 -1.6843
  452MOL0     H59662  10.442   9.890   3.091  3.9926 -2.6757  1.0299
  452MOL0     H59663   9.740   9.464   3.304 -1.7972  0.4284  0.6444
  452MOL0     H59664   9.489   9.488   3.316 -2.6028 -1.3509 -0.0256
  453MOL0     O59665   0.929   9.629   7.146  1.1474  0.8219  0.0741
  453MOL0     C59666   0.841   9.711   7.163 -0.0194  0.6239 -0.5291
  453MOL0     O59667   0.829   9.807   7.260 -0.5529 -0.4014  0.0090
  453MOL0     C59668   0.940   9.801   7.346  0.4948 -0.0000  0.7985
  453MOL0     C59669   1.065   9.843   7.313 -0.8027 -0.2474  0.0084
  453MOL0     C59670   1.180   9.830   7.390  0.3015 -0.3889  0.0089
  453MOL0     C59671   1.162   9.782   7.516 -0.8210  0.7552 -0.1748
  453MOL0     O59672   1.262   9.749   7.604  0.5682 -0.0798  0.5606
  453MOL0     C59673   1.354   9.854   7.632  0.2098 -0.1620  0.4932
  453MOL0     C59674   1.476   9.805   7.708 -0.6924 -0.5683  0.2596
  453MOL0     C59675   1.422   9.768   7.842 -0.2105 -0.7356  0.8224
  453MOL0     C59676   1.530   9.690   7.920 -0.2472 -0.3588  1.2013
  453MOL0     C59677   1.494   9.684   8.070  0.7927  0.9712 -0.8290
  453MOL0     C59678   1.383   9.582   8.107 -0.1631  0.0497  0.5463
  453MOL0     C59679   1.398   9.557   8.258  0.6957 -0.0086  0.5871
  453MOL0     C59680   1.299   9.440   8.303 -0.5653  0.1108 -0.4578
  453MOL0     N59681   1.162   9.488   8.314  0.6651 -0.1718 -0.3810
  453MOL0     C59682   1.056   9.433   8.245  0.4877 -0.0087  0.1007
  453MOL0     C59683   0.947   9.465   8.318  0.2982 -0.4559 -0.4459
  453MOL0     C59684   0.812   9.406   8.286 -0.4315 -1.0891 -0.7009
  453MOL0     C59685   0.786   9.277   8.371  0.4750 -0.0591 -0.0120
  453MOL0     C59686   0.702   9.180   8.299  0.2632  0.3220  0.0591
  453MOL0     C59687   0.687   9.053   8.386 -0.3073 -0.1414  0.3054
  453MOL0     O59688   0.618   8.941   8.328 -0.0124  0.6973 -0.2329
  453MOL0     C59689   0.482   8.953   8.328 -0.1153  1.0265  0.8673
  453MOL0     C59690   0.413   9.054   8.390  0.3858 -0.0382  0.7569
  453MOL0     C59691   0.275   9.052   8.398 -0.1734 -0.7329 -0.3190
  453MOL0     C59692   0.206   8.934   8.383 -0.0212 -0.0535 -0.0874
  453MOL0     C59693   0.070   8.922   8.428 -0.0475 -0.4127 -0.0499
  453MOL0     O59694   0.018   8.793   8.433 -0.4788 -0.1829  0.6431
  453MOL0     C59695  -0.119   8.786   8.427 -0.1346  0.5549 -0.4669
  453MOL0     C59696  -0.197   8.769   8.310 -0.4210  0.4115 -0.8562
  453MOL0     C59697  -0.333   8.757   8.310  0.3122  0.6840  1.2902
  453MOL0     C59698  -0.400   8.763   8.427  0.1351  0.8339  0.4983
  453MOL0     O59699  -0.537   8.753   8.450  0.7356  0.2762  0.3404
  453MOL0     C59700  -0.628   8.790   8.346 -0.0343  0.0301  0.2178
  453MOL0     C59701  -0.773   8.799   8.402  0.3042  0.0784 -0.9801
  453MOL0     C59702  -0.779   8.894   8.512  0.4436  0.2596  0.1892
  453MOL0     C59703  -0.918   8.886   8.572  0.9082 -0.1059  0.6434
  453MOL0     C59704  -0.924   8.999   8.663 -0.3856  0.0944 -0.0298
  453MOL0     C59705  -1.053   8.997   8.743  1.4143 -0.3681  0.3578
  453MOL0     C59706  -1.021   9.062   8.878  0.4731 -0.8115  0.2546
  453MOL0     C59707  -1.145   9.066   8.965  0.8156  0.1454 -0.8583
  453MOL0    Cl59708  -1.262   9.166   8.892  0.2749  0.3118  0.2169
  453MOL0     C59709  -0.323   8.780   8.547 -1.1417 -0.3688  0.6177
  453MOL0     C59710  -0.184   8.786   8.551 -1.1639 -1.0765  0.2566
  453MOL0     O59711   0.003   9.024   8.432  0.7585  0.5159 -0.4227
  453MOL0     C59712   0.276   8.824   8.320 -0.3822  0.6267  0.8943
  453MOL0     C59713   0.409   8.844   8.283 -0.2854 -0.3385 -0.3068
  453MOL0     N59714   0.988   9.559   8.410  0.9080  0.3640 -0.8665
  453MOL0     N59715   1.113   9.569   8.413 -0.5047  0.1000 -0.1504
  453MOL0     C59716   1.030   9.738   7.561  0.5416 -0.2210  0.5466
  453MOL0     C59717   0.921   9.766   7.476  1.1043 -0.6328  0.1516
  453MOL0     C59718   0.730   9.701   7.058  0.5428 -0.5617 -0.1379
  453MOL0     C59719   0.645   9.816   7.049  0.1974  0.8204  0.4532
  453MOL0     C59720   0.549   9.822   6.942 -0.7754 -0.6615 -0.6508
  453MOL0     C59721   0.545   9.713   6.851 -1.1111  0.2583 -1.4539
  453MOL0     O59722   0.455   9.721   6.759  0.6125  0.5273  0.2073
  453MOL0     C59723   0.496   9.794   6.642 -0.2183 -0.6599  0.1536
  453MOL0     C59724   0.415   9.920   6.608 -0.5867  0.1522 -0.7366
  453MOL0     C59725   0.274   9.903   6.668 -0.4371  0.9162 -0.2882
  453MOL0     C59726   0.164  10.000   6.622  0.3574  0.3904 -0.4996
  453MOL0     C59727   0.027   9.936   6.622  0.4031  0.3456 -0.1449
  453MOL0     C59728  -0.095   9.920   6.625 -0.7056 -0.1547 -0.0558
  453MOL0     C59729   0.619   9.599   6.871 -1.1772 -0.7501 -0.4075
  453MOL0     C59730   0.713   9.589   6.974 -0.2746 -1.2969 -0.6191
  453MOL0     H59731   1.069   9.873   7.209 -2.6014 -0.0082 -0.0250
  453MOL0     H59732   1.269   9.873   7.345 -1.5507  3.0404 -0.7660
  453MOL0     H59733   1.306   9.934   7.690 -2.1091 -0.4571 -0.9090
  453MOL0     H59734   1.391   9.904   7.542 -0.3258  1.7062  1.2480
  453MOL0     H59735   1.550   9.884   7.722 -1.2010 -0.0966  0.2930
  453MOL0     H59736   1.527   9.727   7.650  1.5768  2.0044 -1.4992
  453MOL0     H59737   1.334   9.702   7.839  1.9328 -3.7509 -0.1114
  453MOL0     H59738   1.390   9.854   7.901 -0.3369 -2.1799  2.9980
  453MOL0     H59739   1.548   9.590   7.880  2.1696  0.5275 -0.0549
  453MOL0     H59740   1.626   9.742   7.917  1.4967 -3.3375 -1.8613
  453MOL0     H59741   1.463   9.777   8.118 -0.9505  0.8536 -1.6383
  453MOL0     H59742   1.582   9.642   8.119  0.0333  3.0855  2.6856
  453MOL0     H59743   1.394   9.491   8.047 -1.7216  0.9607 -1.2443
  453MOL0     H59744   1.288   9.635   8.090  1.0728  2.3370  0.2887
  453MOL0     H59745   1.500   9.529   8.288  1.5667  0.7974 -1.4318
  453MOL0     H59746   1.379   9.650   8.312 -0.1085 -0.4883  1.1439
  453MOL0     H59747   1.330   9.399   8.400 -5.1062 -3.2447 -0.0847
  453MOL0     H59748   1.300   9.353   8.238 -0.4704 -0.1984 -0.0477
  453MOL0     H59749   1.065   9.361   8.165  0.8535  0.0733  0.0651
  453MOL0     H59750   0.809   9.390   8.178  0.0510 -0.3352 -0.8362
  453MOL0     H59751   0.734   9.478   8.310  1.1937  0.2124  0.9332
  453MOL0     H59752   0.741   9.308   8.466  0.0350 -1.9153  0.4136
  453MOL0     H59753   0.883   9.233   8.397  0.0110 -0.2240  1.5152
  453MOL0     H59754   0.607   9.223   8.265 -1.0266 -0.5455  2.4021
  453MOL0     H59755   0.761   9.147   8.212  2.6091  1.7229  1.0066
  453MOL0     H59756   0.652   9.080   8.486 -1.3972  2.3315 -0.6497
  453MOL0     H59757   0.786   9.011   8.402 -0.5251 -0.0818  1.9797
  453MOL0     H59758   0.467   9.141   8.426 -0.4737  2.3816 -3.1776
  453MOL0     H59759   0.236   9.146   8.438 -0.4233 -1.8201  2.1568
  453MOL0     H59760  -0.143   8.756   8.217 -0.7072 -0.3777 -0.9235
  453MOL0     H59761  -0.388   8.757   8.217 -1.0398 -2.5483  1.9309
  453MOL0     H59762  -0.620   8.700   8.283  0.6436  0.1976  0.0636
  453MOL0     H59763  -0.601   8.878   8.287 -1.6166 -0.2352 -0.9733
  453MOL0     H59764  -0.808   8.699   8.429 -3.3543  1.5944  0.5924
  453MOL0     H59765  -0.848   8.831   8.329 -3.0275  0.1129  2.1805
  453MOL0     H59766  -0.751   8.997   8.486 -1.7467  0.8452 -0.1150
  453MOL0     H59767  -0.712   8.861   8.592  0.5841  3.3073  1.4631
  453MOL0     H59768  -0.996   8.882   8.495 -0.5450  0.2541  2.0406
  453MOL0     H59769  -0.920   8.801   8.641 -3.9701  0.9933  2.2927
  453MOL0     H59770  -0.915   9.087   8.599 -0.3870 -2.2478 -3.4779
  453MOL0     H59771  -0.839   8.991   8.732 -0.6143 -0.1742  0.2233
  453MOL0     H59772  -1.087   8.894   8.760  1.9291 -0.7500 -0.8428
  453MOL0     H59773  -1.133   9.056   8.697  0.5123 -1.1726  0.8657
  453MOL0     H59774  -0.939   9.028   8.942  1.5370 -0.4582 -0.8798
  453MOL0     H59775  -1.002   9.169   8.859 -1.6603 -0.4501 -0.0879
  453MOL0     H59776  -1.126   9.100   9.068 -0.0356  0.3798 -0.7699
  453MOL0     H59777  -1.185   8.967   8.986  1.8402  0.3066  2.5381
  453MOL0     H59778  -0.377   8.766   8.640 -1.2807 -3.4736  0.1812
  453MOL0     H59779  -0.134   8.819   8.642 -1.7904  0.8725 -0.0485
  453MOL0     H59780   0.221   8.740   8.279  1.5519  0.8922 -2.6712
  453MOL0     H59781   0.458   8.761   8.232 -0.8924  0.3228 -2.0478
  453MOL0     H59782   1.010   9.707   7.663  0.8940 -0.2629  0.6030
  453MOL0     H59783   0.827   9.730   7.516  0.5356 -0.9095 -1.3639
  453MOL0     H59784   0.661   9.903   7.113  0.4860  0.3030  1.0921
  453MOL0     H59785   0.483   9.908   6.948  2.8958  2.3163  1.9161
  453MOL0     H59786   0.497   9.728   6.555  1.6871  2.1942 -2.1639
  453MOL0     H59787   0.598   9.832   6.651  0.7740 -3.1273  0.2094
  453MOL0     H59788   0.475  10.001   6.651  1.7997 -0.6721 -2.2366
  453MOL0     H59789   0.419   9.928   6.499  0.0164  2.3908 -0.6014
  453MOL0     H59790   0.291   9.908   6.776 -2.2316 -1.5612  0.2002
  453MOL0     H59791   0.243   9.799   6.654  1.5484 -0.1440  2.1926
  453MOL0     H59792   0.160  10.090   6.683 -1.2396 -0.2018  0.3326
  453MOL0     H59793   0.195  10.031   6.521  2.0474  0.1597 -0.0732
  453MOL0     H59794  -0.202   9.925   6.615 -0.7729 -2.2267 -0.8217
  453MOL0     H59795   0.602   9.510   6.811  0.4680 -2.2102  1.1498
  453MOL0     H59796   0.779   9.505   6.994  0.8047  0.3277  3.8812
  454MOL0     O59797   1.494   5.516   6.177 -0.0365  0.0277 -0.3121
  454MOL0     C59798   1.549   5.447   6.259 -0.0729 -0.2261  0.4601
  454MOL0     O59799   1.496   5.322   6.303 -0.5761 -0.1580  0.5717
  454MOL0     C59800   1.387   5.268   6.243  0.4689 -0.9809  0.4507
  454MOL0     C59801   1.266   5.278   6.311 -0.2420 -1.1648 -0.3905
  454MOL0     C59802   1.150   5.215   6.258  0.0693  0.6583  0.7994
  454MOL0     C59803   1.150   5.157   6.133 -0.4433 -0.1255 -0.2885
  454MOL0     O59804   1.026   5.118   6.089 -0.1707  0.5487  0.0350
  454MOL0     C59805   1.020   5.014   5.992 -0.2378 -0.1960  0.2704
  454MOL0     C59806   0.897   5.042   5.911  0.0369  0.6704 -0.2294
  454MOL0     C59807   0.899   4.949   5.788 -0.0757 -0.7893  0.5487
  454MOL0     C59808   0.889   4.804   5.822  0.4266  0.3630  0.5475
  454MOL0     C59809   0.865   4.723   5.691 -0.7000  0.2925  0.2639
  454MOL0     C59810   0.829   4.576   5.720 -0.8326 -0.0112 -0.1800
  454MOL0     C59811   0.786   4.513   5.593  0.3495  0.2350  0.2780
  454MOL0     C59812   0.730   4.381   5.605 -0.0218 -0.1178 -0.0652
  454MOL0     N59813   0.822   4.283   5.662 -0.1993 -0.4464 -1.0339
  454MOL0     C59814   0.953   4.284   5.667 -0.3513  0.0269 -0.9765
  454MOL0     C59815   0.991   4.169   5.725 -1.0472 -0.7962 -0.7809
  454MOL0     C59816   1.130   4.105   5.732  0.3600 -0.0843 -0.5748
  454MOL0     C59817   1.173   4.090   5.883 -1.2871  0.1676  1.0608
  454MOL0     C59818   1.155   4.219   5.969  0.0942 -0.4970  0.0284
  454MOL0     C59819   1.218   4.342   5.910 -0.8072  0.3016 -0.4549
  454MOL0     O59820   1.356   4.334   5.878  0.5392 -0.1538  0.7481
  454MOL0     C59821   1.448   4.303   5.984 -0.5285  0.2529  0.4829
  454MOL0     C59822   1.446   4.379   6.098 -0.6227 -0.7490 -0.1210
  454MOL0     C59823   1.538   4.359   6.203 -0.7081  0.1807  0.0067
  454MOL0     C59824   1.623   4.244   6.193  0.8602 -0.4417  0.1141
  454MOL0     C59825   1.725   4.220   6.293 -0.9091  0.7983  0.1209
  454MOL0     O59826   1.733   4.305   6.401 -0.6193  0.2579 -0.7347
  454MOL0     C59827   1.811   4.268   6.506  0.1760 -0.5810 -0.0900
  454MOL0     C59828   1.942   4.318   6.515  0.6998  0.7594  0.1016
  454MOL0     C59829   2.012   4.287   6.621 -0.1430  1.2102 -0.1612
  454MOL0     C59830   1.961   4.209   6.727 -0.1857  0.4447 -0.4013
  454MOL0     O59831   2.046   4.201   6.836  0.5690 -0.1937  0.5657
  454MOL0     C59832   1.980   4.205   6.965 -0.4700 -0.2266  0.4198
  454MOL0     C59833   2.084   4.231   7.068  0.3006  0.7102 -0.6807
  454MOL0     C59834   2.017   4.220   7.209  0.8742 -0.2714  0.7507
  454MOL0     C59835   2.107   4.273   7.317  0.0296 -0.2320 -0.1565
  454MOL0     C59836   2.032   4.286   7.448  0.2010 -0.2089  0.1429
  454MOL0     C59837   1.898   4.358   7.447  0.0642  0.6409  0.2093
  454MOL0     C59838   1.832   4.356   7.587  0.1529 -0.3863  0.2220
  454MOL0     C59839   1.834   4.498   7.649  0.0549  0.0015 -0.2980
  454MOL0    Cl59840   1.682   4.589   7.604 -1.0077  0.0868 -0.2039
  454MOL0     C59841   1.830   4.170   6.723  0.4979 -0.0445  0.6996
  454MOL0     C59842   1.749   4.199   6.613 -0.0252 -0.6018  0.9356
  454MOL0     O59843   1.802   4.127   6.266 -0.6559 -0.1986 -0.2378
  454MOL0     C59844   1.607   4.151   6.083  0.3917  0.7393 -0.1989
  454MOL0     C59845   1.514   4.181   5.985 -0.4595  0.5228  0.2000
  454MOL0     N59846   0.881   4.116   5.784  0.2288  0.1418  0.3434
  454MOL0     N59847   0.779   4.182   5.740  0.0025 -0.8023  0.3590
  454MOL0     C59848   1.271   5.152   6.066  0.9929  0.0076  0.0947
  454MOL0     C59849   1.389   5.203   6.117 -0.3040 -0.4062 -0.0647
  454MOL0     C59850   1.684   5.479   6.313 -0.0372 -1.4685 -0.9257
  454MOL0     C59851   1.761   5.572   6.244 -0.7107  0.0711  1.1289
  454MOL0     C59852   1.881   5.623   6.300 -0.6115 -0.4364 -0.2832
  454MOL0     C59853   1.933   5.554   6.412 -0.8129  0.0568 -0.3632
  454MOL0     O59854   2.051   5.585   6.470 -0.2952 -0.2307 -0.3046
  454MOL0     C59855   2.153   5.624   6.377  0.1411  0.1506 -0.3398
  454MOL0     C59856   2.295   5.586   6.439  0.2062  0.5738 -0.7496
  454MOL0     C59857   2.412   5.651   6.385 -0.0042 -0.8688  0.1311
  454MOL0     C59858   2.538   5.622   6.486 -0.6906 -0.4774  0.7211
  454MOL0     C59859   2.675   5.639   6.432 -0.3675  0.1365 -0.6904
  454MOL0     C59860   2.792   5.639   6.385  0.5956 -0.5894 -0.3457
  454MOL0     C59861   1.852   5.463   6.478  0.7450  0.2475  0.0886
  454MOL0     C59862   1.731   5.423   6.434  0.4063  0.1457 -1.0180
  454MOL0     H59863   1.252   5.315   6.412  1.3778  0.4244 -0.6843
  454MOL0     H59864   1.064   5.210   6.324 -0.1876  0.7151  0.4704
  454MOL0     H59865   1.009   4.924   6.053  1.2194 -1.0586 -0.6872
  454MOL0     H59866   1.108   5.002   5.928  1.7457 -4.2880  3.2959
  454MOL0     H59867   0.909   5.141   5.866  1.9539  0.3421 -0.5667
  454MOL0     H59868   0.805   5.018   5.964  0.7002 -0.7076  0.3510
  454MOL0     H59869   0.992   4.976   5.737 -0.8790  1.7332  0.3105
  454MOL0     H59870   0.810   4.978   5.732 -0.7525  1.7415  2.7566
  454MOL0     H59871   0.973   4.760   5.877 -1.3766  0.5255  3.6601
  454MOL0     H59872   0.794   4.792   5.876 -0.5786  1.0905 -0.9750
  454MOL0     H59873   0.961   4.718   5.639 -1.0034  0.6458 -0.3340
  454MOL0     H59874   0.797   4.771   5.620 -1.8371 -0.7072  0.6428
  454MOL0     H59875   0.743   4.580   5.787 -1.9734  0.7138 -1.6653
  454MOL0     H59876   0.909   4.531   5.781  0.0844  2.0898  0.2458
  454MOL0     H59877   0.708   4.573   5.545 -1.8772 -2.8369 -0.2155
  454MOL0     H59878   0.877   4.514   5.533 -0.0128  1.3870 -0.2955
  454MOL0     H59879   0.702   4.346   5.506 -2.7144  0.3787  0.4475
  454MOL0     H59880   0.641   4.389   5.667 -0.7393  3.1990 -1.2964
  454MOL0     H59881   1.016   4.355   5.614  1.1931 -0.8265 -0.3485
  454MOL0     H59882   1.205   4.165   5.680 -0.5209  0.4369 -1.2618
  454MOL0     H59883   1.127   4.012   5.673 -1.3381  0.4075 -1.3318
  454MOL0     H59884   1.278   4.059   5.885 -0.6132  2.3363  3.0770
  454MOL0     H59885   1.112   4.016   5.936 -1.8600  1.0375  1.6317
  454MOL0     H59886   1.054   4.255   5.992  0.5056  0.6779  0.0350
  454MOL0     H59887   1.209   4.206   6.063 -0.3444  0.8308  0.4898
  454MOL0     H59888   1.200   4.422   5.982  1.6148  0.9300 -0.4664
  454MOL0     H59889   1.165   4.374   5.819  1.1626  0.8717 -1.4486
  454MOL0     H59890   1.390   4.472   6.093 -0.0911 -0.2144  2.3082
  454MOL0     H59891   1.539   4.424   6.289 -0.7884  1.3973 -0.8829
  454MOL0     H59892   1.978   4.384   6.436 -1.4119  0.1320 -1.4911
  454MOL0     H59893   2.115   4.316   6.638  1.5681 -1.6667 -4.1375
  454MOL0     H59894   1.938   4.105   6.979  0.0061 -0.2612  1.6870
  454MOL0     H59895   1.897   4.272   6.986 -1.8796 -2.1132  1.1272
  454MOL0     H59896   2.128   4.329   7.049  2.0309  0.6834  2.4708
  454MOL0     H59897   2.170   4.164   7.054  0.3423  0.1057  1.9002
  454MOL0     H59898   1.980   4.118   7.224 -2.2599  0.2768 -2.0172
  454MOL0     H59899   1.926   4.280   7.204  2.0603  1.6274  0.7768
  454MOL0     H59900   2.193   4.209   7.338  1.4823  1.8008  0.3516
  454MOL0     H59901   2.155   4.364   7.281 -0.7177  1.3699  2.5809
  454MOL0     H59902   2.090   4.349   7.516 -1.2819  0.0582  1.1953
  454MOL0     H59903   2.006   4.193   7.499 -1.8877 -0.6410 -1.5957
  454MOL0     H59904   1.832   4.287   7.395  2.4557  0.5354 -2.9849
  454MOL0     H59905   1.890   4.453   7.392 -2.4423 -1.5982 -3.7944
  454MOL0     H59906   1.724   4.339   7.578 -0.1750  1.9704 -0.9695
  454MOL0     H59907   1.879   4.297   7.665  2.3988  3.6856  2.2568
  454MOL0     H59908   1.918   4.560   7.616  0.0308  0.1431 -0.0927
  454MOL0     H59909   1.840   4.474   7.755  2.8813 -2.5320 -0.8836
  454MOL0     H59910   1.790   4.117   6.808  1.5924  0.8288  1.7919
  454MOL0     H59911   1.646   4.169   6.593 -0.4546  0.7787  0.9455
  454MOL0     H59912   1.671   4.064   6.068  1.2004  1.3309 -0.2059
  454MOL0     H59913   1.502   4.117   5.898  0.9522  2.8517 -1.8415
  454MOL0     H59914   1.276   5.118   5.963 -2.5804 -1.2268  0.1997
  454MOL0     H59915   1.486   5.199   6.068  0.4316  0.8848  1.2399
  454MOL0     H59916   1.728   5.593   6.143 -3.5028 -1.4100  1.6166
  454MOL0     H59917   1.940   5.700   6.251 -2.2577 -0.2563 -2.1257
  454MOL0     H59918   2.135   5.731   6.370 -0.3888 -0.0241 -2.3860
  454MOL0     H59919   2.143   5.571   6.281  2.9306 -0.2489 -0.5108
  454MOL0     H59920   2.272   5.608   6.543 -1.8337 -0.1976 -0.9801
  454MOL0     H59921   2.312   5.479   6.425 -1.9165 -0.4908  3.2155
  454MOL0     H59922   2.387   5.757   6.396  2.4956 -0.3618  1.8122
  454MOL0     H59923   2.440   5.623   6.283  0.5364  0.8189 -0.2249
  454MOL0     H59924   2.511   5.685   6.571 -1.6427 -0.9483  0.7756
  454MOL0     H59925   2.546   5.522   6.527  2.6097  0.4446  2.7238
  454MOL0     H59926   2.893   5.632   6.349  0.4924  2.2278 -1.4112
  454MOL0     H59927   1.896   5.420   6.568 -1.0493  0.4998  1.1332
  454MOL0     H59928   1.675   5.344   6.483  5.2285 -1.7263  2.2377
  455MOL0     O59929   1.613   3.020   9.446  0.1961 -0.2108 -1.3864
  455MOL0     C59930   1.641   3.004   9.329 -0.1249 -0.1801 -0.1640
  455MOL0     O59931   1.556   2.973   9.220 -0.3687  0.7733  0.3513
  455MOL0     C59932   1.424   2.976   9.243 -0.1711  0.1822  0.5764
  455MOL0     C59933   1.345   2.863   9.227  0.4767 -0.0407  0.0601
  455MOL0     C59934   1.205   2.863   9.222  0.3510  0.6056 -0.4744
  455MOL0     C59935   1.131   2.972   9.244  0.5404  0.4198  0.2946
  455MOL0     O59936   0.993   2.962   9.262 -0.7846  0.2025  0.0673
  455MOL0     C59937   0.918   3.082   9.287 -0.1659  0.0695  0.2547
  455MOL0     C59938   0.778   3.030   9.305  0.3302  0.4093  0.3652
  455MOL0     C59939   0.665   3.129   9.283 -0.5176  0.9185 -1.4357
  455MOL0     C59940   0.543   3.063   9.361 -0.6726 -1.0925  0.5849
  455MOL0     C59941   0.414   3.157   9.335 -0.0021  0.0716 -0.1301
  455MOL0     C59942   0.274   3.117   9.414  0.6656  0.4125  0.1892
  455MOL0     C59943   0.143   3.172   9.349  0.0106 -0.0844 -0.0470
  455MOL0     C59944   0.108   3.091   9.226 -0.0360 -1.0298  0.3066
  455MOL0     N59945   0.068   2.953   9.247  0.2110  0.1988 -1.1228
  455MOL0     C59946  -0.037   2.902   9.319  0.3004 -0.9686 -0.8359
  455MOL0     C59947  -0.016   2.767   9.311 -0.3789  0.3656  0.2056
  455MOL0     C59948  -0.098   2.662   9.381  0.2535  0.9237  0.2597
  455MOL0     C59949  -0.072   2.648   9.529 -0.1917 -0.2595  0.2283
  455MOL0     C59950  -0.156   2.540   9.610 -0.3193  0.0447 -0.0565
  455MOL0     C59951  -0.294   2.590   9.645 -0.2881 -0.3726  0.5561
  455MOL0     O59952  -0.364   2.649   9.529  0.4034 -0.6136 -0.1231
  455MOL0     C59953  -0.498   2.665   9.547 -0.6186  0.9031 -0.2259
  455MOL0     C59954  -0.559   2.721   9.440  0.1694  0.0837  0.1785
  455MOL0     C59955  -0.695   2.742   9.435 -0.0312 -0.5010  0.4293
  455MOL0     C59956  -0.772   2.728   9.552 -0.4645 -0.1559  0.4129
  455MOL0     C59957  -0.914   2.776   9.568 -0.0770  0.6840  0.7051
  455MOL0     O59958  -0.979   2.815   9.459 -0.4256  0.2484 -0.5968
  455MOL0     C59959  -1.115   2.827   9.486 -0.9038  0.0581  0.2499
  455MOL0     C59960  -1.166   2.951   9.517 -0.2256 -0.5543  0.8274
  455MOL0     C59961  -1.306   2.977   9.529 -0.2222  0.1736  0.7249
  455MOL0     C59962  -1.393   2.870   9.501  0.0120 -0.7482 -0.0036
  455MOL0     O59963  -1.528   2.906   9.497  0.3508  0.3194  0.3876
  455MOL0     C59964  -1.621   2.809   9.519  0.5093 -0.4577  0.9321
  455MOL0     C59965  -1.737   2.857   9.434 -0.4192 -0.5647 -0.0385
  455MOL0     C59966  -1.861   2.775   9.455  0.3349  0.4792 -0.9325
  455MOL0     C59967  -1.977   2.812   9.370  0.0874 -0.1517  0.5080
  455MOL0     C59968  -2.123   2.793   9.429  0.5173 -0.3865 -0.8844
  455MOL0     C59969  -2.156   2.648   9.435  0.1003  0.0557 -0.3289
  455MOL0     C59970  -2.300   2.626   9.490 -0.0642 -0.3593  0.4698
  455MOL0     C59971  -2.317   2.484   9.530 -0.3836 -0.2461  0.0528
  455MOL0    Cl59972  -2.475   2.483   9.608  0.1051 -0.0821  0.3339
  455MOL0     C59973  -1.336   2.749   9.465  0.6655  0.1338  0.7045
  455MOL0     C59974  -1.203   2.722   9.442  0.5501 -0.0916 -0.0962
  455MOL0     O59975  -0.954   2.782   9.684  0.5084  0.3739 -0.0403
  455MOL0     C59976  -0.701   2.676   9.665  0.2133  1.4505 -0.3492
  455MOL0     C59977  -0.573   2.643   9.659 -0.5089  0.3497  0.0180
  455MOL0     N59978   0.070   2.736   9.209 -0.0381 -0.3929  0.0874
  455MOL0     N59979   0.111   2.850   9.172 -0.0751 -0.8595  0.2463
  455MOL0     C59980   1.202   3.090   9.274 -0.5258  0.5840  0.8326
  455MOL0     C59981   1.346   3.094   9.276 -1.0676  0.4662 -0.1650
  455MOL0     C59982   1.789   3.016   9.308 -0.9638 -0.6745 -0.5688
  455MOL0     C59983   1.876   3.072   9.408 -0.5670  0.4206  0.4102
  455MOL0     C59984   2.020   3.075   9.399 -0.6220  0.5921 -0.3850
  455MOL0     C59985   2.085   3.012   9.289 -0.0853  0.2060  0.4426
  455MOL0     O59986   2.220   3.032   9.277 -0.1472  0.1364 -0.3864
  455MOL0     C59987   2.275   3.020   9.148 -0.5519 -0.4574 -0.9694
  455MOL0     C59988   2.416   3.080   9.166  0.2512  0.0170  0.7312
  455MOL0     C59989   2.426   3.221   9.238  0.0020  0.2569  0.6299
  455MOL0     C59990   2.553   3.284   9.202  0.3991 -0.3773  0.4647
  455MOL0     C59991   2.564   3.407   9.265  0.5911 -0.3191 -0.0633
  455MOL0     C59992   2.578   3.509   9.334  0.4838  0.2455  0.4652
  455MOL0     C59993   1.999   2.960   9.186  0.0195 -0.0199  0.1865
  455MOL0     C59994   1.865   2.966   9.201  0.6803  0.0365 -0.7526
  455MOL0     H59995   1.403   2.780   9.189 -0.4432  0.4432 -2.6364
  455MOL0     H59996   1.147   2.773   9.207 -0.5493  0.9630  0.6376
  455MOL0     H59997   0.914   3.163   9.213 -0.1253  2.2147  2.5049
  455MOL0     H59998   0.957   3.132   9.375 -1.5820  1.3903  0.1695
  455MOL0     H59999   0.776   2.993   9.408  1.3265  1.7468  0.8916
  455MOL0     H60000   0.765   2.942   9.241  3.2941 -3.2779  4.2198
  455MOL0     H60001   0.646   3.151   9.178  0.8316  1.6007 -1.5570
  455MOL0     H60002   0.693   3.222   9.334  1.6617 -0.1327 -0.6145
  455MOL0     H60003   0.517   2.964   9.322  0.8335 -1.5054  0.5767
  455MOL0     H60004   0.555   3.064   9.469 -2.3350  2.2171  0.8512
  455MOL0     H60005   0.397   3.153   9.227  1.6278  1.8551 -0.5072
  455MOL0     H60006   0.438   3.259   9.365 -2.8801  0.3296  1.7206
  455MOL0     H60007   0.269   3.128   9.522 -1.7640 -1.4809  0.3852
  455MOL0     H60008   0.259   3.010   9.397 -2.1261  0.7806 -0.1623
  455MOL0     H60009   0.069   3.139   9.423 -0.8050 -2.2211 -1.7113
  455MOL0     H60010   0.146   3.279   9.329  0.1207 -0.1214 -0.2337
  455MOL0     H60011   0.186   3.111   9.152  0.7265 -2.1282  0.7825
  455MOL0     H60012   0.015   3.130   9.185 -0.8876 -1.4910  1.7177
  455MOL0     H60013  -0.111   2.959   9.375  2.1594  1.1777 -0.3853
  455MOL0     H60014  -0.074   2.565   9.337  1.8813  1.3861  0.0384
  455MOL0     H60015  -0.204   2.680   9.364  0.3699 -0.4812 -2.5408
  455MOL0     H60016  -0.064   2.743   9.582  2.0998 -2.5815  4.5503
  455MOL0     H60017   0.031   2.613   9.537  0.2127  0.3060 -1.8689
  455MOL0     H60018  -0.159   2.460   9.536 -0.2452  2.3421 -2.6936
  455MOL0     H60019  -0.105   2.504   9.700  1.8156  1.4523 -0.6216
  455MOL0     H60020  -0.286   2.666   9.723  1.3828 -0.6526  0.6861
  455MOL0     H60021  -0.350   2.503   9.680 -0.4050 -0.9958 -1.0769
  455MOL0     H60022  -0.500   2.761   9.357 -0.9523  1.7554  0.1273
  455MOL0     H60023  -0.729   2.788   9.342  2.5937 -1.5817 -1.1725
  455MOL0     H60024  -1.091   3.029   9.527 -2.1555  1.7004 -1.0210
  455MOL0     H60025  -1.345   3.073   9.562 -0.6901  0.9095 -1.8087
  455MOL0     H60026  -1.658   2.796   9.622 -2.5277  0.6645  0.1015
  455MOL0     H60027  -1.595   2.706   9.493  1.8094 -0.0495  0.5508
  455MOL0     H60028  -1.699   2.856   9.332  1.3225 -4.5539  0.4452
  455MOL0     H60029  -1.752   2.963   9.457  0.9973 -0.5640  0.9982
  455MOL0     H60030  -1.896   2.783   9.558  2.3145 -0.1094 -0.1767
  455MOL0     H60031  -1.834   2.669   9.447  1.2678  0.7399 -1.4195
  455MOL0     H60032  -1.961   2.916   9.344  1.0577 -0.7283 -1.3579
  455MOL0     H60033  -1.977   2.750   9.280 -3.3793 -0.7735  0.8168
  455MOL0     H60034  -2.192   2.839   9.359  1.9153  1.6320 -1.0161
  455MOL0     H60035  -2.130   2.827   9.533  2.1443  2.4188 -1.5645
  455MOL0     H60036  -2.086   2.603   9.505 -0.8517  1.2273  1.4664
  455MOL0     H60037  -2.145   2.615   9.332  0.0032  0.8417 -0.6018
  455MOL0     H60038  -2.327   2.695   9.570 -0.2051 -1.1946  1.1506
  455MOL0     H60039  -2.368   2.648   9.407  2.5303 -0.5318 -1.8772
  455MOL0     H60040  -2.233   2.461   9.597 -1.2672 -2.7849  0.3847
  455MOL0     H60041  -2.305   2.420   9.442  0.3677  0.5367 -0.4374
  455MOL0     H60042  -1.400   2.668   9.430  1.7468 -0.4439  0.0131
  455MOL0     H60043  -1.179   2.622   9.407 -0.5353 -0.6935  0.8083
  455MOL0     H60044  -0.758   2.646   9.753 -1.6126 -3.1590 -2.7515
  455MOL0     H60045  -0.535   2.584   9.742 -2.4815 -0.0046  0.7193
  455MOL0     H60046   1.151   3.185   9.284 -3.5399 -0.5230 -2.1183
  455MOL0     H60047   1.393   3.190   9.295  1.4957 -1.1950  2.6455
  455MOL0     H60048   1.840   3.125   9.496 -2.4015  2.6414 -1.5178
  455MOL0     H60049   2.083   3.127   9.471 -0.4444  0.1743 -0.2375
  455MOL0     H60050   2.217   3.065   9.067  0.1857 -1.3418 -2.0045
  455MOL0     H60051   2.291   2.915   9.124 -2.6308 -0.4667 -2.6057
  455MOL0     H60052   2.475   3.007   9.222 -0.4245 -1.2141 -0.1117
  455MOL0     H60053   2.447   3.095   9.062  0.0882  1.5039  0.8748
  455MOL0     H60054   2.407   3.203   9.345  0.3554 -1.3900  0.4303
  455MOL0     H60055   2.347   3.291   9.209  0.2413  0.5850  0.7611
  455MOL0     H60056   2.633   3.224   9.248  2.0360  0.1483 -1.5657
  455MOL0     H60057   2.568   3.296   9.095  0.6392  2.6803  0.7498
  455MOL0     H60058   2.575   3.588   9.407 -0.0578 -1.1386  1.9940
  455MOL0     H60059   2.040   2.919   9.094  0.7851  0.6405  0.2250
  455MOL0     H60060   1.801   2.929   9.122 -1.6483  2.7994 -0.3314
  456MOL0     O60061   4.325   5.890  10.985  0.5929  0.6993 -0.1780
  456MOL0     C60062   4.367   5.997  10.937  1.1126 -0.4907  0.3256
  456MOL0     O60063   4.297   6.072  10.854 -0.0447 -0.9173 -0.0508
  456MOL0     C60064   4.160   6.057  10.864 -0.0813  0.8742  0.3160
  456MOL0     C60065   4.098   5.958  10.793  0.2482 -0.6048 -0.6688
  456MOL0     C60066   3.960   5.936  10.816  0.5856 -0.4555  0.9319
  456MOL0     C60067   3.880   6.013  10.913 -0.6225  0.0558 -0.7185
  456MOL0     O60068   3.739   6.010  10.925 -0.2848 -0.3839 -0.5033
  456MOL0     C60069   3.674   5.882  10.917 -0.3544  0.3960  0.4170
  456MOL0     C60070   3.542   5.910  10.980 -0.5604  0.7124  0.4141
  456MOL0     C60071   3.443   5.991  10.893 -0.5671 -0.9028 -0.4998
  456MOL0     C60072   3.394   5.928  10.769  0.8364  0.0196  0.3039
  456MOL0     C60073   3.276   5.835  10.796 -0.0622 -0.4214 -0.0560
  456MOL0     C60074   3.142   5.905  10.793  0.3645  0.3358  1.0290
  456MOL0     C60075   3.025   5.806  10.819  0.2232  1.5280 -0.3956
  456MOL0     C60076   3.023   5.695  10.708  0.3236 -0.5811  0.2518
  456MOL0     N60077   2.933   5.595  10.748  0.1800 -0.6603 -0.8810
  456MOL0     C60078   2.813   5.608  10.799  0.4168 -0.5187  0.2146
  456MOL0     C60079   2.764   5.482  10.800 -0.2983  0.2630 -0.5619
  456MOL0     C60080   2.617   5.448  10.825 -0.2391 -0.5763  0.3957
  456MOL0     C60081   2.544   5.426  10.684 -0.1810 -0.1325 -0.9778
  456MOL0     C60082   2.413   5.511  10.669  0.0037  0.6209 -0.0315
  456MOL0     C60083   2.310   5.474  10.780  0.7801 -0.4553 -0.3911
  456MOL0     O60084   2.181   5.507  10.727 -0.2541  0.7037 -0.0542
  456MOL0     C60085   2.080   5.475  10.818  0.3372  0.0796 -0.0490
  456MOL0     C60086   2.054   5.347  10.864  0.3549  0.2866  0.2137
  456MOL0     C60087   1.934   5.335  10.944 -0.6491 -0.4257 -0.3571
  456MOL0     C60088   1.855   5.446  10.989  0.0491 -0.7493  0.0572
  456MOL0     C60089   1.733   5.426  11.072 -0.6810  0.0206  0.1118
  456MOL0     O60090   1.632   5.525  11.066  0.0685  0.7881  0.2588
  456MOL0     C60091   1.503   5.500  11.113 -0.3190  0.1033  0.4263
  456MOL0     C60092   1.444   5.373  11.131 -0.5552 -0.0863  0.4668
  456MOL0     C60093   1.304   5.368  11.156  0.1699 -0.0551  0.2500
  456MOL0     C60094   1.225   5.489  11.172  0.2496  0.0414 -0.5456
  456MOL0     O60095   1.090   5.462  11.190 -0.4196 -0.0635 -0.2459
  456MOL0     C60096   1.004   5.524  11.102 -0.0092 -1.2434 -0.4714
  456MOL0     C60097   0.870   5.449  11.110  0.7184 -0.3025 -0.5816
  456MOL0     C60098   0.775   5.496  11.002  0.4474 -1.1524  0.4471
  456MOL0     C60099   0.636   5.421  11.010  0.4920  0.1046  0.5409
  456MOL0     C60100   0.521   5.505  11.079 -0.5909 -0.1237  0.5883
  456MOL0     C60101   0.376   5.463  11.039  0.5978 -0.0056 -0.0828
  456MOL0     C60102   0.276   5.539  11.122 -0.7364  0.5024  0.3601
  456MOL0     C60103   0.141   5.522  11.058  0.3214  0.5255 -0.1037
  456MOL0    Cl60104   0.071   5.353  11.077 -0.1599  0.1021 -0.9099
  456MOL0     C60105   1.285   5.615  11.155 -0.5251 -0.3759  0.6112
  456MOL0     C60106   1.428   5.622  11.125 -0.0498  0.3173  0.1882
  456MOL0     O60107   1.739   5.325  11.136  0.2757  0.0520 -0.4041
  456MOL0     C60108   1.885   5.570  10.934  0.5592 -0.9416 -0.3486
  456MOL0     C60109   1.998   5.583  10.853  0.3915  0.1986  0.6334
  456MOL0     N60110   2.858   5.393  10.773  0.1656  0.8133 -0.2724
  456MOL0     N60111   2.957   5.467  10.733 -0.3522 -0.5239  0.1737
  456MOL0     C60112   3.952   6.115  10.975  0.1516 -0.2649  0.9498
  456MOL0     C60113   4.089   6.130  10.956  0.1380  0.0368 -0.5768
  456MOL0     C60114   4.508   6.026  10.947 -0.6355 -0.3191 -0.5275
  456MOL0     C60115   4.569   6.126  10.883  0.1162 -0.2754 -0.1531
  456MOL0     C60116   4.704   6.165  10.902  0.4258  0.5566  0.4132
  456MOL0     C60117   4.784   6.087  10.988 -0.1005 -0.4243 -0.3054
  456MOL0     O60118   4.920   6.115  10.995 -0.1653 -0.0441 -0.7794
  456MOL0     C60119   5.012   6.055  11.086  0.4861  0.0628  0.3442
  456MOL0     C60120   4.983   6.087  11.240  0.8370  0.1544 -0.0474
  456MOL0     C60121   4.989   6.237  11.273 -0.3044  0.5212 -0.1792
  456MOL0     C60122   4.926   6.282  11.404 -0.2514 -0.6700 -0.0131
  456MOL0     C60123   4.785   6.289  11.389 -0.6378  0.2904 -0.1442
  456MOL0     C60124   4.665   6.284  11.381 -1.0072 -0.3326  0.5241
  456MOL0     C60125   4.720   5.987  11.071 -0.6510  0.1522 -0.4527
  456MOL0     C60126   4.586   5.953  11.040 -0.2111 -0.3189 -0.3117
  456MOL0     H60127   4.143   5.897  10.715  2.5734  2.0208 -1.5490
  456MOL0     H60128   3.913   5.860  10.754  0.1420  2.0113 -1.9699
  456MOL0     H60129   3.733   5.801  10.962 -0.2730 -0.6117 -1.4035
  456MOL0     H60130   3.664   5.840  10.816  0.1159 -1.5984  1.1450
  456MOL0     H60131   3.574   5.967  11.068 -1.2762 -1.5418  2.2228
  456MOL0     H60132   3.492   5.818  11.010  2.0559  0.0916  3.4399
  456MOL0     H60133   3.488   6.089  10.873 -0.5211 -0.7241  0.4247
  456MOL0     H60134   3.355   6.012  10.954 -1.6999  0.7586 -2.5478
  456MOL0     H60135   3.350   6.009  10.709 -0.9389 -0.3252  1.0739
  456MOL0     H60136   3.474   5.875  10.717 -0.1873 -2.6028  1.2278
  456MOL0     H60137   3.291   5.776  10.887 -2.0951 -1.1780 -0.1571
  456MOL0     H60138   3.285   5.766  10.712  1.2844 -0.5288  0.1502
  456MOL0     H60139   3.137   5.951  10.694  0.4679  2.5708  1.9842
  456MOL0     H60140   3.146   5.982  10.871 -0.7883  1.3168  0.1432
  456MOL0     H60141   3.026   5.752  10.914 -1.4434 -2.0330 -2.1797
  456MOL0     H60142   2.934   5.867  10.820 -0.4180  0.5854  0.1745
  456MOL0     H60143   3.120   5.645  10.708 -0.7623 -2.8111  0.3986
  456MOL0     H60144   3.010   5.736  10.607  2.2166  0.5493  0.4146
  456MOL0     H60145   2.760   5.700  10.825 -1.6812 -0.9362 -2.1783
  456MOL0     H60146   2.572   5.533  10.878 -0.4176  0.2826 -1.0734
  456MOL0     H60147   2.599   5.365  10.893  0.9584  1.3182  3.2252
  456MOL0     H60148   2.517   5.321  10.669 -1.1957 -0.0011 -0.2247
  456MOL0     H60149   2.606   5.463  10.603  1.9880  0.0885  0.6953
  456MOL0     H60150   2.427   5.619  10.676 -0.0389  0.8243 -2.3687
  456MOL0     H60151   2.359   5.488  10.577  0.1684 -1.8723  0.4224
  456MOL0     H60152   2.327   5.521  10.877 -0.1706 -1.1358  0.1262
  456MOL0     H60153   2.319   5.367  10.804 -1.1341 -0.2502  1.5465
  456MOL0     H60154   2.112   5.263  10.828  1.7856  1.6582 -0.8335
  456MOL0     H60155   1.905   5.237  10.980  0.9915  0.0916  2.6664
  456MOL0     H60156   1.503   5.283  11.124  1.8612  1.3015  1.7120
  456MOL0     H60157   1.260   5.269  11.159 -3.0042  1.0895 -2.4523
  456MOL0     H60158   1.044   5.517  11.001  3.7644  2.0638  0.5346
  456MOL0     H60159   0.990   5.629  11.130  2.4083 -1.4188  1.7828
  456MOL0     H60160   0.820   5.444  11.207  1.9198 -1.0249  0.0165
  456MOL0     H60161   0.896   5.343  11.105 -1.5044 -0.9889  0.9766
  456MOL0     H60162   0.816   5.486  10.902 -0.3736  2.0501 -0.3325
  456MOL0     H60163   0.751   5.603  10.995 -1.2043 -1.6203 -2.3238
  456MOL0     H60164   0.593   5.418  10.909  1.0303  3.6281  0.0701
  456MOL0     H60165   0.635   5.325  11.062  1.3122 -0.7976 -1.0326
  456MOL0     H60166   0.534   5.610  11.054 -0.9342 -0.6908 -2.2946
  456MOL0     H60167   0.535   5.495  11.187 -1.6202 -0.6004  0.6870
  456MOL0     H60168   0.361   5.357  11.060  2.3386 -0.6321 -1.6976
  456MOL0     H60169   0.364   5.470  10.930  1.6224 -1.4874 -0.3240
  456MOL0     H60170   0.266   5.516  11.228 -2.3830 -1.5907 -0.1851
  456MOL0     H60171   0.309   5.643  11.118 -0.8434  0.5817 -4.1530
  456MOL0     H60172   0.136   5.541  10.950 -0.6986 -0.1276 -0.1742
  456MOL0     H60173   0.063   5.578  11.111 -1.3857 -0.6267 -1.3080
  456MOL0     H60174   1.216   5.698  11.163  0.5064  0.3751  2.4011
  456MOL0     H60175   1.483   5.708  11.090  0.9001 -0.5273 -0.4517
  456MOL0     H60176   1.833   5.661  10.962 -1.0862 -1.7680 -0.6371
  456MOL0     H60177   2.037   5.682  10.832 -2.5159  0.9767 -1.8970
  456MOL0     H60178   3.914   6.189  11.044  0.4273  0.2375  0.5705
  456MOL0     H60179   4.149   6.205  11.008  2.1454 -0.6890 -1.7320
  456MOL0     H60180   4.512   6.190  10.816 -0.4368 -0.7604 -0.1512
  456MOL0     H60181   4.748   6.255  10.860 -1.5359  1.2556 -0.2596
  456MOL0     H60182   5.116   6.075  11.058 -0.0021  1.7496 -0.3672
  456MOL0     H60183   4.998   5.947  11.076 -0.4088 -0.1146  2.9368
  456MOL0     H60184   4.887   6.040  11.264  0.9982 -0.0160  0.2732
  456MOL0     H60185   5.055   6.035  11.304 -1.1221 -5.0250 -1.4564
  456MOL0     H60186   4.929   6.282  11.193  1.2909 -0.9868 -2.2924
  456MOL0     H60187   5.090   6.275  11.256 -1.2043  2.4364 -1.5966
  456MOL0     H60188   4.959   6.235  11.497 -1.5166  2.3485  2.1338
  456MOL0     H60189   4.953   6.387  11.420 -4.1499  0.2570  1.4656
  456MOL0     H60190   4.559   6.289  11.371 -1.2374 -1.4997  2.0484
  456MOL0     H60191   4.789   5.921  11.120  0.6923  0.9265 -1.2285
  456MOL0     H60192   4.536   5.874  11.096 -0.8414  0.9305  0.9569
  457MOL0     O60193   4.142   2.076   7.873  0.0138 -0.7753  0.1422
  457MOL0     C60194   4.207   2.080   7.973  0.2781  0.4736  0.5644
  457MOL0     O60195   4.171   2.141   8.094 -0.4260 -0.0153  0.2743
  457MOL0     C60196   4.064   2.230   8.095  0.3825  0.5538 -0.3324
  457MOL0     C60197   3.973   2.225   8.197  0.2992  0.3845  0.0855
  457MOL0     C60198   3.878   2.318   8.213 -0.1292 -0.8287 -0.3264
  457MOL0     C60199   3.862   2.423   8.124 -0.0918 -0.4647 -0.1911
  457MOL0     O60200   3.768   2.523   8.143 -0.3415 -0.1629 -0.4183
  457MOL0     C60201   3.663   2.507   8.237  0.6952 -0.0338  0.2102
  457MOL0     C60202   3.547   2.614   8.242 -0.2536  0.4685 -0.0555
  457MOL0     C60203   3.420   2.575   8.328 -0.4991 -1.0806  0.9188
  457MOL0     C60204   3.330   2.699   8.338 -0.3677 -0.6245  0.0596
  457MOL0     C60205   3.201   2.657   8.412 -0.0778  1.2340 -0.1597
  457MOL0     C60206   3.101   2.601   8.312  0.1212  0.0774  0.1051
  457MOL0     C60207   2.960   2.571   8.376  0.3554 -0.1827 -0.1829
  457MOL0     C60208   2.968   2.485   8.505  1.5367 -0.4035 -0.3991
  457MOL0     N60209   2.834   2.436   8.545 -0.3189 -0.0791 -0.3913
  457MOL0     C60210   2.731   2.518   8.576 -0.2029  0.4620 -0.0371
  457MOL0     C60211   2.637   2.434   8.625  0.3392 -0.3941 -0.1263
  457MOL0     C60212   2.496   2.464   8.658 -0.3481  0.3081 -0.0931
  457MOL0     C60213   2.436   2.364   8.762 -0.4448 -0.2650  0.2372
  457MOL0     C60214   2.307   2.435   8.819 -0.9133  0.5752  0.2486
  457MOL0     C60215   2.266   2.356   8.935  0.0622  0.6218  0.0490
  457MOL0     O60216   2.269   2.215   8.908  0.3425  0.1213 -0.0002
  457MOL0     C60217   2.194   2.138   8.993  0.7154 -0.0365  0.2140
  457MOL0     C60218   2.134   2.017   8.944 -0.2020 -0.3880 -0.1297
  457MOL0     C60219   2.083   1.932   9.044  0.8465 -0.0864 -0.4888
  457MOL0     C60220   2.082   1.957   9.183  0.1393  0.3960  0.4791
  457MOL0     C60221   2.043   1.853   9.282  0.0773  0.1677 -0.3451
  457MOL0     O60222   2.006   1.735   9.248  0.8411 -0.0379 -0.8801
  457MOL0     C60223   1.970   1.646   9.351  0.4161 -0.0087 -0.4445
  457MOL0     C60224   1.832   1.644   9.393  0.2149 -0.9597  0.2442
  457MOL0     C60225   1.786   1.555   9.484  0.6395  0.3737  0.1951
  457MOL0     C60226   1.872   1.471   9.548 -0.3481  0.2152  0.0223
  457MOL0     O60227   1.806   1.389   9.640  0.5699 -0.4335  0.4067
  457MOL0     C60228   1.848   1.255   9.673  0.2520 -0.1167  0.8195
  457MOL0     C60229   1.737   1.148   9.650 -0.4216 -0.4031 -0.0769
  457MOL0     C60230   1.710   1.114   9.497 -0.9064 -0.0708  0.5111
  457MOL0     C60231   1.630   0.985   9.481 -0.4456 -0.4766  0.3462
  457MOL0     C60232   1.490   1.000   9.514  0.0130  0.1890  0.0356
  457MOL0     C60233   1.419   0.859   9.493  0.5115 -0.2995  0.6619
  457MOL0     C60234   1.277   0.876   9.554  1.0702 -0.3191 -0.4891
  457MOL0     C60235   1.195   0.974   9.497  0.1308 -0.2451  0.4694
  457MOL0    Cl60236   1.033   0.961   9.571  0.1492  0.5210  0.0355
  457MOL0     C60237   2.005   1.466   9.506  0.0509  0.3466  0.3413
  457MOL0     C60238   2.060   1.555   9.405  0.5167 -0.8942  0.1803
  457MOL0     O60239   2.032   1.894   9.395 -0.8690  0.0465  0.6083
  457MOL0     C60240   2.123   2.081   9.228 -0.9912  0.9431  0.4244
  457MOL0     C60241   2.185   2.164   9.134 -0.0816 -0.2011 -0.2512
  457MOL0     N60242   2.694   2.305   8.622  0.1105 -0.5161 -0.0535
  457MOL0     N60243   2.808   2.302   8.557 -0.1324 -0.4489  0.0637
  457MOL0     C60244   3.940   2.424   8.010 -0.1610  0.3751  0.0001
  457MOL0     C60245   4.045   2.325   7.992 -0.4623 -0.6051  0.0147
  457MOL0     C60246   4.341   2.011   7.967 -0.2500 -0.4235 -0.0864
  457MOL0     C60247   4.382   1.950   7.851  0.0505 -0.1019  1.1936
  457MOL0     C60248   4.507   1.888   7.847 -0.6073  1.1274  1.4096
  457MOL0     C60249   4.583   1.860   7.963 -1.1671 -0.1750 -0.6669
  457MOL0     O60250   4.703   1.794   7.949  0.1530  1.0648  1.1192
  457MOL0     C60251   4.784   1.773   8.069 -0.4381  0.0618  0.6151
  457MOL0     C60252   4.919   1.722   8.005  0.1689 -0.2953 -0.7998
  457MOL0     C60253   4.956   1.563   8.039  0.6318  0.1431 -0.1516
  457MOL0     C60254   5.105   1.538   8.063  0.1702 -0.4378  0.4742
  457MOL0     C60255   5.187   1.608   7.961 -0.7627 -0.1467 -0.1197
  457MOL0     C60256   5.254   1.672   7.872 -0.1197  0.4735 -0.3536
  457MOL0     C60257   4.535   1.916   8.079  0.7535  0.7013 -0.3840
  457MOL0     C60258   4.425   1.995   8.083  0.1092 -0.5963  0.3879
  457MOL0     H60259   3.979   2.141   8.266 -1.5129  0.4428  0.3714
  457MOL0     H60260   3.820   2.317   8.304 -2.7871  5.5349 -1.4809
  457MOL0     H60261   3.709   2.509   8.337  1.5745 -0.3715 -0.1771
  457MOL0     H60262   3.614   2.414   8.208 -2.9021  2.1023 -1.1872
  457MOL0     H60263   3.527   2.633   8.137  0.6178  0.1314 -0.2869
  457MOL0     H60264   3.576   2.709   8.288 -0.3300  0.1752  0.6113
  457MOL0     H60265   3.446   2.547   8.430 -1.4931 -0.5748  1.3327
  457MOL0     H60266   3.372   2.492   8.275  1.6752 -0.6143 -2.0579
  457MOL0     H60267   3.375   2.782   8.393  0.4134  0.3993 -1.9983
  457MOL0     H60268   3.298   2.736   8.240 -0.4560 -0.6521  0.0780
  457MOL0     H60269   3.152   2.744   8.455 -0.7004  1.0478 -0.4769
  457MOL0     H60270   3.236   2.579   8.480  1.6329  0.8951 -1.3592
  457MOL0     H60271   3.125   2.507   8.263 -0.8516 -0.0813 -0.0932
  457MOL0     H60272   3.073   2.666   8.229 -1.2293 -1.2214 -0.4912
  457MOL0     H60273   2.913   2.667   8.396  0.0694 -0.3949  0.1751
  457MOL0     H60274   2.894   2.523   8.303  0.4897  0.7672 -0.9490
  457MOL0     H60275   3.036   2.524   8.582  3.0348 -0.1818 -1.7881
  457MOL0     H60276   3.019   2.394   8.471  1.1590 -2.1831  3.2852
  457MOL0     H60277   2.720   2.625   8.563 -1.6555  0.4288  0.6082
  457MOL0     H60278   2.448   2.458   8.560 -0.5298 -3.3787  0.0949
  457MOL0     H60279   2.498   2.568   8.694  1.8658 -0.3001  1.7815
  457MOL0     H60280   2.506   2.339   8.843  0.1846 -0.4627 -0.3570
  457MOL0     H60281   2.416   2.274   8.705  0.6167  0.0529 -0.6837
  457MOL0     H60282   2.317   2.541   8.844 -2.4497  0.5601  1.0497
  457MOL0     H60283   2.227   2.427   8.744 -2.6415  2.1662  1.8088
  457MOL0     H60284   2.175   2.397   8.980  0.0117  1.5495 -0.8636
  457MOL0     H60285   2.337   2.369   9.017 -0.4899 -1.3428  0.8790
  457MOL0     H60286   2.129   2.004   8.836  1.4134 -4.8234  0.0847
  457MOL0     H60287   2.050   1.834   9.011  2.2244 -0.3372 -1.1821
  457MOL0     H60288   1.759   1.699   9.335  1.4242  1.8094  1.1817
  457MOL0     H60289   1.678   1.557   9.494  0.3645 -2.6163 -1.0329
  457MOL0     H60290   1.876   1.257   9.779 -1.4584 -4.2584  1.5558
  457MOL0     H60291   1.938   1.209   9.631 -0.3228 -1.3811  0.9367
  457MOL0     H60292   1.643   1.185   9.690  0.1419 -0.1800  1.0776
  457MOL0     H60293   1.765   1.058   9.706  5.3586  2.4648  2.5120
  457MOL0     H60294   1.807   1.114   9.446 -1.9504  2.6160 -1.7579
  457MOL0     H60295   1.659   1.196   9.445 -0.5526  1.3947  2.3852
  457MOL0     H60296   1.638   0.953   9.377  0.2968  4.2923 -1.3034
  457MOL0     H60297   1.671   0.911   9.550  0.1576 -0.5189 -0.0480
  457MOL0     H60298   1.438   1.069   9.448  0.9948 -0.5816 -1.6064
  457MOL0     H60299   1.466   1.036   9.614  3.1543 -1.2400  1.4539
  457MOL0     H60300   1.455   0.782   9.561 -0.9693 -2.6104 -1.0383
  457MOL0     H60301   1.406   0.828   9.389  1.5813  3.4601 -0.7542
  457MOL0     H60302   1.235   0.774   9.556  2.2244 -0.8301 -1.0720
  457MOL0     H60303   1.281   0.896   9.661 -2.6863 -0.1174 -0.2488
  457MOL0     H60304   1.204   0.945   9.392  1.1334 -1.9566  0.9839
  457MOL0     H60305   1.224   1.074   9.530 -2.6737  0.4820  1.0340
  457MOL0     H60306   2.063   1.386   9.551 -0.7648 -0.4883 -0.0676
  457MOL0     H60307   2.165   1.557   9.377  0.3434  1.3035 -0.5330
  457MOL0     H60308   2.146   2.099   9.333 -1.1831 -1.1711  0.8684
  457MOL0     H60309   2.222   2.253   9.183  2.2650 -0.6076 -1.1849
  457MOL0     H60310   3.935   2.505   7.939  0.0614  0.4983  0.1241
  457MOL0     H60311   4.114   2.335   7.909 -1.0093 -0.9330 -0.4887
  457MOL0     H60312   4.311   1.954   7.769 -0.3987 -2.5675  1.3536
  457MOL0     H60313   4.545   1.848   7.754 -2.6613 -1.0204  1.3958
  457MOL0     H60314   4.729   1.703   8.133 -1.9886  0.0096 -0.6903
  457MOL0     H60315   4.806   1.865   8.123  5.2175 -0.1984 -0.6139
  457MOL0     H60316   4.910   1.736   7.897 -3.2110  1.5610 -0.4127
  457MOL0     H60317   4.995   1.790   8.043  0.5145 -1.1682  0.1052
  457MOL0     H60318   4.929   1.497   7.957 -0.8671 -0.5520  0.8538
  457MOL0     H60319   4.899   1.529   8.126  2.6001 -1.0076  0.7519
  457MOL0     H60320   5.136   1.564   8.164  1.1494 -1.5190  0.4783
  457MOL0     H60321   5.136   1.433   8.062 -0.6178 -0.6941 -1.0235
  457MOL0     H60322   5.316   1.716   7.796  0.5519  1.9125  0.9794
  457MOL0     H60323   4.586   1.904   8.174  1.9543  2.0912 -0.8262
  457MOL0     H60324   4.396   2.047   8.174  0.5196 -0.3497  0.3825
  458MOL0     O60325   5.595   2.420   2.990 -0.1992 -0.6087 -0.5135
  458MOL0     C60326   5.647   2.440   2.877  0.1492  0.1845  0.5467
  458MOL0     O60327   5.577   2.413   2.763 -0.3432 -0.5257  0.2426
  458MOL0     C60328   5.446   2.389   2.781 -0.7428  0.3799 -0.4078
  458MOL0     C60329   5.353   2.497   2.772  0.6913 -0.3087 -0.6815
  458MOL0     C60330   5.214   2.471   2.788 -0.3183  0.3350  0.6814
  458MOL0     C60331   5.173   2.337   2.800 -0.0978  0.0355  0.4860
  458MOL0     O60332   5.045   2.299   2.792  0.4778  0.3878 -0.5730
  458MOL0     C60333   4.933   2.388   2.827 -0.5119  0.3249  0.3779
  458MOL0     C60334   4.829   2.290   2.889  0.0376  0.9941 -0.7091
  458MOL0     C60335   4.699   2.372   2.923  0.3505  0.9422 -0.4661
  458MOL0     C60336   4.578   2.273   2.965 -0.1276 -0.0977  0.2655
  458MOL0     C60337   4.454   2.352   3.007 -0.5456  0.1030  0.4328
  458MOL0     C60338   4.394   2.461   2.904 -0.7953  1.1334 -1.0305
  458MOL0     C60339   4.284   2.543   2.975 -1.0556 -0.3277 -0.1760
  458MOL0     C60340   4.158   2.456   2.966  0.6272 -0.6931  0.1804
  458MOL0     N60341   4.040   2.546   2.999 -0.4037 -0.0837  0.2410
  458MOL0     C60342   3.981   2.640   2.916  0.1124  0.4617  0.0174
  458MOL0     C60343   3.869   2.673   2.987 -0.3988 -0.2378  0.4253
  458MOL0     C60344   3.781   2.785   2.947 -0.1136 -1.4389  0.3685
  458MOL0     C60345   3.687   2.754   2.830  0.3247 -0.1166  0.9143
  458MOL0     C60346   3.657   2.880   2.747  0.3541  0.3425 -0.3784
  458MOL0     C60347   3.545   2.873   2.664  0.4106 -0.3563 -0.4142
  458MOL0     O60348   3.428   2.889   2.741  0.3225  0.2845 -0.6142
  458MOL0     C60349   3.314   2.958   2.691 -0.3932  0.7923  0.6342
  458MOL0     C60350   3.274   2.979   2.556 -0.1062  0.2449 -0.0385
  458MOL0     C60351   3.155   3.055   2.530 -1.3663  0.7379  0.2576
  458MOL0     C60352   3.084   3.115   2.628 -0.4446 -0.2547  0.2469
  458MOL0     C60353   2.972   3.208   2.593 -0.0675 -0.6266 -0.7213
  458MOL0     O60354   2.947   3.239   2.458  0.6759  0.0272  0.6657
  458MOL0     C60355   2.853   3.335   2.425 -0.8540  0.1429 -0.3704
  458MOL0     C60356   2.856   3.468   2.469 -0.1907 -0.5271  0.5365
  458MOL0     C60357   2.762   3.564   2.416 -0.4970  0.4204 -0.6541
  458MOL0     C60358   2.661   3.516   2.332 -0.2448 -1.0865  0.2314
  458MOL0     O60359   2.570   3.603   2.282 -0.4076  0.1793 -1.1254
  458MOL0     C60360   2.479   3.548   2.190  0.3864 -0.5837 -0.2002
  458MOL0     C60361   2.368   3.646   2.180 -0.1439 -0.4810  0.0411
  458MOL0     C60362   2.233   3.585   2.136  0.3221  0.1497  0.0317
  458MOL0     C60363   2.128   3.695   2.157 -0.8085 -0.8904 -0.1188
  458MOL0     C60364   1.985   3.626   2.141 -0.6288  0.3655  0.1002
  458MOL0     C60365   1.878   3.717   2.089  0.1296  0.3014  0.4756
  458MOL0     C60366   1.819   3.798   2.200 -0.2676 -0.1444  0.4517
  458MOL0     C60367   1.779   3.938   2.156 -0.1497 -0.0088  0.1230
  458MOL0    Cl60368   1.676   3.931   2.012 -0.2733  0.2415  0.1494
  458MOL0     C60369   2.663   3.382   2.291 -0.4719 -0.2448 -0.0857
  458MOL0     C60370   2.756   3.296   2.334  0.1531  1.0524 -0.2213
  458MOL0     O60371   2.902   3.259   2.683  0.0226 -0.4630 -0.1127
  458MOL0     C60372   3.119   3.087   2.759 -0.0500 -0.3513 -0.1942
  458MOL0     C60373   3.234   3.011   2.785  0.0580 -0.2080 -1.0433
  458MOL0     N60374   3.866   2.601   3.104  0.0637  0.0212 -0.1876
  458MOL0     N60375   3.970   2.518   3.108  0.2035 -0.0231  0.3359
  458MOL0     C60376   5.264   2.227   2.794 -0.6845  0.1892  0.7293
  458MOL0     C60377   5.403   2.258   2.798  0.7606 -0.3898  0.3044
  458MOL0     C60378   5.775   2.504   2.867  0.6956 -0.8245 -1.1227
  458MOL0     C60379   5.833   2.536   2.740 -0.8724  0.1005 -1.0218
  458MOL0     C60380   5.969   2.582   2.736  1.5139  0.5121 -0.2079
  458MOL0     C60381   6.038   2.600   2.853 -0.2009  0.2893  0.4480
  458MOL0     O60382   6.171   2.660   2.847  0.0715  0.0617 -0.8749
  458MOL0     C60383   6.226   2.680   2.719  0.5322 -0.5334 -0.6183
  458MOL0     C60384   6.349   2.781   2.728  0.4696 -0.1635 -0.9109
  458MOL0     C60385   6.470   2.720   2.797  0.4559  0.7540 -0.0554
  458MOL0     C60386   6.573   2.830   2.820 -0.6221  0.4580  0.9831
  458MOL0     C60387   6.701   2.774   2.878  0.5866 -0.0714  0.4986
  458MOL0     C60388   6.798   2.730   2.935  0.3220  1.0107  0.3483
  458MOL0     C60389   5.981   2.562   2.977  0.4809  1.0990  0.5128
  458MOL0     C60390   5.844   2.526   2.988  0.0283  0.1939  0.3616
  458MOL0     H60391   5.375   2.603   2.763 -2.0676  0.3989 -0.0756
  458MOL0     H60392   5.150   2.559   2.786  1.0350  1.3614 -1.3842
  458MOL0     H60393   4.894   2.441   2.740  0.1617  0.8508  0.3875
  458MOL0     H60394   4.966   2.463   2.899  1.3173 -0.5222  0.4786
  458MOL0     H60395   4.872   2.242   2.977 -0.1186 -1.3829 -1.8288
  458MOL0     H60396   4.805   2.207   2.822  0.2410 -2.0950  2.7312
  458MOL0     H60397   4.664   2.431   2.838 -0.3653 -0.3209 -1.0675
  458MOL0     H60398   4.722   2.436   3.009  2.3998 -0.3685  0.0251
  458MOL0     H60399   4.552   2.210   2.880  1.6513  1.0288 -1.1908
  458MOL0     H60400   4.607   2.205   3.047 -3.3103  0.7238  2.2355
  458MOL0     H60401   4.494   2.406   3.093 -0.4339  2.9931 -1.3073
  458MOL0     H60402   4.374   2.280   3.029 -0.6319 -1.0266 -2.9478
  458MOL0     H60403   4.353   2.414   2.814 -0.4574 -2.2116  0.4141
  458MOL0     H60404   4.467   2.534   2.868 -0.7941 -0.1131 -3.8594
  458MOL0     H60405   4.308   2.566   3.079  1.9161 -0.9251 -0.6547
  458MOL0     H60406   4.277   2.638   2.921 -0.0586  0.7919  1.5798
  458MOL0     H60407   4.168   2.364   3.025 -0.6800 -0.9992 -0.0592
  458MOL0     H60408   4.143   2.427   2.861 -2.3201 -1.8931  0.8551
  458MOL0     H60409   4.012   2.687   2.824 -1.2146 -0.4961 -0.9636
  458MOL0     H60410   3.847   2.872   2.942 -0.0435 -1.5209 -0.1795
  458MOL0     H60411   3.710   2.797   3.030 -1.2988  1.6689 -0.9651
  458MOL0     H60412   3.595   2.713   2.871 -0.1871 -1.3536 -1.2729
  458MOL0     H60413   3.728   2.678   2.762 -2.6898 -0.2598 -0.9403
  458MOL0     H60414   3.645   2.968   2.811  0.9161  0.8189 -0.9140
  458MOL0     H60415   3.732   2.887   2.668  0.3092 -3.1820 -0.8949
  458MOL0     H60416   3.547   2.781   2.604  2.9989  0.9363 -2.5472
  458MOL0     H60417   3.544   2.958   2.595 -4.0411  1.0577  1.0634
  458MOL0     H60418   3.319   2.911   2.484  0.1601 -0.8201  1.0996
  458MOL0     H60419   3.126   3.079   2.428  3.3527 -0.6532 -1.7194
  458MOL0     H60420   2.928   3.498   2.544 -0.7141  0.4257  0.6666
  458MOL0     H60421   2.765   3.670   2.440 -1.5666  0.3355 -0.0899
  458MOL0     H60422   2.438   3.463   2.244 -0.7897  0.5674  0.7709
  458MOL0     H60423   2.529   3.518   2.097 -0.3196  1.3454 -1.2679
  458MOL0     H60424   2.399   3.737   2.129 -0.4841 -0.2157  0.3054
  458MOL0     H60425   2.356   3.688   2.281  2.5541 -1.5211  0.9003
  458MOL0     H60426   2.213   3.487   2.178  0.9512  0.6496  1.5691
  458MOL0     H60427   2.246   3.579   2.027  1.2331 -2.1833  0.2159
  458MOL0     H60428   2.128   3.749   2.252 -0.0473 -2.7477  0.9731
  458MOL0     H60429   2.131   3.784   2.092  1.7931  1.1206  2.4667
  458MOL0     H60430   1.962   3.582   2.239 -1.5544  0.0853 -0.2280
  458MOL0     H60431   1.992   3.547   2.066 -0.5597  0.8168 -0.3751
  458MOL0     H60432   1.788   3.671   2.049 -0.1591  1.8277 -0.7548
  458MOL0     H60433   1.924   3.776   2.009  1.7727  0.1218  1.2423
  458MOL0     H60434   1.739   3.736   2.241  1.1726 -2.4880 -0.0786
  458MOL0     H60435   1.882   3.804   2.289 -1.3721  1.5563  1.1765
  458MOL0     H60436   1.867   4.001   2.141 -1.6809  1.9353 -1.1233
  458MOL0     H60437   1.732   3.985   2.243 -3.7467 -2.9529  0.0204
  458MOL0     H60438   2.591   3.338   2.223  0.4132 -1.0357 -0.5261
  458MOL0     H60439   2.758   3.197   2.290 -1.1739  0.0824  1.7711
  458MOL0     H60440   3.069   3.122   2.849  1.9974  3.0572 -0.1791
  458MOL0     H60441   3.249   2.989   2.890 -4.4000  0.2837 -0.1141
  458MOL0     H60442   5.225   2.126   2.789 -2.3128  0.8514 -1.6675
  458MOL0     H60443   5.475   2.179   2.816  1.6644  0.2822 -0.2443
  458MOL0     H60444   5.787   2.536   2.642 -1.3448 -4.9771 -1.0609
  458MOL0     H60445   6.001   2.606   2.635  2.7996 -1.8480 -0.4390
  458MOL0     H60446   6.159   2.744   2.661  1.1293 -0.1124 -0.8494
  458MOL0     H60447   6.241   2.587   2.663  0.2723 -0.3623 -0.9763
  458MOL0     H60448   6.379   2.819   2.630  0.0287  0.1235 -0.9361
  458MOL0     H60449   6.322   2.872   2.782  1.2998 -0.6200  0.3286
  458MOL0     H60450   6.515   2.635   2.745  2.1470  1.9020 -0.5386
  458MOL0     H60451   6.433   2.682   2.893 -0.7881 -2.0470 -1.5158
  458MOL0     H60452   6.605   2.872   2.725 -1.7695  0.9466  0.8004
  458MOL0     H60453   6.522   2.915   2.868 -0.9961  0.0125  1.3883
  458MOL0     H60454   6.894   2.705   2.976  0.5257 -0.0933 -0.7458
  458MOL0     H60455   6.025   2.594   3.071  0.3082  0.3537  0.8661
  458MOL0     H60456   5.799   2.528   3.087  0.1578 -0.0211  0.4246
  459MOL0     O60457  10.678   2.801   5.920  0.4405  0.5775  0.2867
  459MOL0     C60458  10.676   2.701   5.989 -0.8986 -0.0677  0.1718
  459MOL0     O60459  10.753   2.684   6.105  0.0053  0.1922  0.7955
  459MOL0     C60460  10.818   2.789   6.160  1.2993 -0.0736  0.0760
  459MOL0     C60461  10.781   2.811   6.288  0.2676  0.3773 -0.0716
  459MOL0     C60462  10.839   2.908   6.369  0.0821  0.7939  0.4665
  459MOL0     C60463  10.952   2.976   6.320  0.1066  0.7337 -0.5346
  459MOL0     O60464  11.008   3.080   6.390 -0.3358 -0.2689  0.1157
  459MOL0     C60465  11.035   3.046   6.525  0.1753  0.0002 -0.1343
  459MOL0     C60466  11.122   3.157   6.597 -0.0998 -0.2383 -0.0028
  459MOL0     C60467  11.268   3.141   6.568  0.0754  0.9014 -0.8540
  459MOL0     C60468  11.337   3.257   6.628  0.4665  0.1052 -0.2777
  459MOL0     C60469  11.473   3.262   6.561  0.2238  0.7302  0.6937
  459MOL0     C60470  11.576   3.334   6.645 -0.3741 -1.1874 -0.3884
  459MOL0     C60471  11.711   3.335   6.564 -0.2555 -0.9119  0.2463
  459MOL0     C60472  11.824   3.393   6.651 -0.4485  0.4007 -0.4712
  459MOL0     N60473  11.927   3.461   6.571 -0.0281  0.6481 -0.0046
  459MOL0     C60474  12.058   3.443   6.589  0.2241  0.4543 -0.3087
  459MOL0     C60475  12.124   3.537   6.521 -0.5648 -0.7553  0.1450
  459MOL0     C60476  12.267   3.567   6.519 -0.1856 -0.4499 -0.1105
  459MOL0     C60477  12.320   3.648   6.637 -0.3769 -0.2920  0.2688
  459MOL0     C60478  12.459   3.702   6.619 -0.0799 -0.3608 -0.4675
  459MOL0     C60479  12.531   3.739   6.747 -0.4806  0.0842  0.0947
  459MOL0     O60480  12.466   3.829   6.839  0.6614 -0.1823  0.8181
  459MOL0     C60481  12.494   3.835   6.969 -0.1552  0.5568  0.0098
  459MOL0     C60482  12.605   3.761   7.021 -0.6145  0.4221 -0.5181
  459MOL0     C60483  12.635   3.779   7.154  0.3208  0.4450 -0.0459
  459MOL0     C60484  12.570   3.863   7.245 -0.2693  0.9963  0.3331
  459MOL0     C60485  12.608   3.875   7.384  0.8400 -0.5696 -0.2742
  459MOL0     O60486  12.579   3.988   7.458  0.2729  0.4549  0.2348
  459MOL0     C60487  12.577   3.968   7.596 -0.1038  0.0001  0.4955
  459MOL0     C60488  12.487   3.879   7.667  0.1905  0.3145 -0.4432
  459MOL0     C60489  12.501   3.864   7.807  0.1325  0.0222 -0.3303
  459MOL0     C60490  12.600   3.934   7.872  0.4284  0.2547  0.3009
  459MOL0     O60491  12.627   3.905   8.004 -0.7186  0.3268 -0.2237
  459MOL0     C60492  12.628   4.024   8.086  0.1536  0.2207  0.0517
  459MOL0     C60493  12.565   3.998   8.233  0.3421 -0.3846 -0.2234
  459MOL0     C60494  12.416   3.960   8.235  0.0392 -0.9782 -0.1948
  459MOL0     C60495  12.370   3.973   8.387 -0.4746  0.5599  0.6010
  459MOL0     C60496  12.219   3.965   8.382 -0.3853 -0.3905 -0.8272
  459MOL0     C60497  12.152   3.834   8.411 -0.1802  0.2400  0.3416
  459MOL0     C60498  11.998   3.842   8.389  0.1776 -0.1617 -0.0631
  459MOL0     C60499  11.953   3.717   8.314  0.6661  0.1027 -0.6532
  459MOL0    Cl60500  11.778   3.752   8.264  0.6574 -0.0517 -0.4054
  459MOL0     C60501  12.688   4.026   7.806 -0.1212  0.9690  0.3956
  459MOL0     C60502  12.668   4.037   7.671  0.6604  0.1055  0.4844
  459MOL0     O60503  12.673   3.780   7.424 -0.4409  0.3001 -0.3897
  459MOL0     C60504  12.459   3.936   7.189  0.3776  0.4038 -0.2039
  459MOL0     C60505  12.418   3.925   7.057 -0.3520 -0.1498  0.2372
  459MOL0     N60506  12.029   3.604   6.450  0.1818  0.3512  0.3492
  459MOL0     N60507  11.914   3.560   6.487  0.7404 -0.4691  0.1131
  459MOL0     C60508  10.988   2.955   6.185 -0.2278 -0.1564 -0.7225
  459MOL0     C60509  10.926   2.856   6.107 -0.4810  0.2115 -0.0679
  459MOL0     C60510  10.572   2.599   5.962  0.2325  0.6731  0.4406
  459MOL0     C60511  10.541   2.504   6.054  0.1802 -0.4817 -0.7195
  459MOL0     C60512  10.453   2.400   6.034 -0.3190  0.1434  0.6878
  459MOL0     C60513  10.395   2.382   5.901  0.3529  1.1451  0.3098
  459MOL0     O60514  10.290   2.287   5.900  0.1626  0.4235 -0.5213
  459MOL0     C60515  10.233   2.257   5.769  0.0693  0.6843 -1.0971
  459MOL0     C60516  10.153   2.133   5.799 -0.8492  0.1813  0.6918
  459MOL0     C60517  10.244   2.012   5.768 -0.5994 -1.1385 -0.3328
  459MOL0     C60518  10.195   1.888   5.848  0.7828 -0.1439  0.3874
  459MOL0     C60519  10.057   1.845   5.813  0.4364  0.2954  1.1254
  459MOL0     C60520   9.950   1.808   5.776  0.5856  0.3501  0.0591
  459MOL0     C60521  10.427   2.474   5.800 -0.2679 -0.2616  0.0313
  459MOL0     C60522  10.508   2.577   5.834 -0.2745  0.6764 -0.0398
  459MOL0     H60523  10.701   2.753   6.333  0.1785  0.7526  0.2593
  459MOL0     H60524  10.781   2.917   6.460 -2.6539 -0.8969 -1.0027
  459MOL0     H60525  11.081   2.946   6.524 -1.9852 -1.0555 -0.7745
  459MOL0     H60526  10.940   3.042   6.578  0.0190  1.8413 -0.2272
  459MOL0     H60527  11.129   3.149   6.706 -0.6698 -1.0059 -0.0176
  459MOL0     H60528  11.093   3.257   6.563  1.2884 -1.1600 -4.6163
  459MOL0     H60529  11.282   3.134   6.460 -4.4850  0.1573 -1.5922
  459MOL0     H60530  11.306   3.041   6.592 -1.9405 -0.8050 -3.9985
  459MOL0     H60531  11.282   3.351   6.614  1.8000  0.6385 -2.7437
  459MOL0     H60532  11.352   3.242   6.735  1.0816  0.7710 -0.2591
  459MOL0     H60533  11.457   3.311   6.464 -0.7493 -3.4023 -1.4701
  459MOL0     H60534  11.509   3.159   6.551  1.0901  1.2476 -2.5810
  459MOL0     H60535  11.583   3.293   6.746  0.1817  0.7169  0.3797
  459MOL0     H60536  11.549   3.438   6.661  1.0245 -0.7543 -0.6678
  459MOL0     H60537  11.729   3.235   6.524  0.8103 -0.2652 -0.9440
  459MOL0     H60538  11.703   3.400   6.476  0.5248  1.7080  1.9838
  459MOL0     H60539  11.863   3.310   6.710 -1.7357 -0.8633 -1.3186
  459MOL0     H60540  11.799   3.468   6.726  3.8780  1.7068 -0.0599
  459MOL0     H60541  12.102   3.371   6.657 -2.0244  1.3699  2.3113
  459MOL0     H60542  12.282   3.622   6.425 -1.8132 -0.5530 -0.4653
  459MOL0     H60543  12.327   3.475   6.515 -2.8545 -2.2852 -0.5817
  459MOL0     H60544  12.331   3.583   6.725 -0.5928 -1.1306 -0.3149
  459MOL0     H60545  12.254   3.726   6.677  0.5077 -0.0483  1.3059
  459MOL0     H60546  12.518   3.627   6.565 -0.9510  0.3009 -2.4507
  459MOL0     H60547  12.450   3.787   6.550  0.1203 -0.2607 -0.3713
  459MOL0     H60548  12.632   3.778   6.734 -0.2020  0.2250  2.2249
  459MOL0     H60549  12.543   3.640   6.793  1.5222  1.1794  2.1789
  459MOL0     H60550  12.663   3.697   6.954 -1.5828  0.2089 -1.1709
  459MOL0     H60551  12.726   3.725   7.179 -1.4966 -2.7801  0.2099
  459MOL0     H60552  12.415   3.826   7.606  1.6054  0.0574 -1.9888
  459MOL0     H60553  12.456   3.786   7.867  2.2348  0.3155  1.7849
  459MOL0     H60554  12.558   4.099   8.048  1.2861  2.2482  1.7345
  459MOL0     H60555  12.729   4.066   8.091 -0.3415  1.3953  0.7227
  459MOL0     H60556  12.583   4.090   8.290  1.0353  0.1727 -1.3086
  459MOL0     H60557  12.614   3.924   8.297  0.9019 -1.8676 -2.2561
  459MOL0     H60558  12.408   3.854   8.209  0.9429 -0.9188 -0.7457
  459MOL0     H60559  12.369   4.033   8.168  1.9788  1.0987  0.5703
  459MOL0     H60560  12.421   3.904   8.456 -0.8170  1.0929  1.4065
  459MOL0     H60561  12.411   4.071   8.413  0.2907  0.7305 -1.1522
  459MOL0     H60562  12.180   3.999   8.286 -0.8628 -0.2494 -0.5863
  459MOL0     H60563  12.189   4.048   8.448 -1.4234 -3.1808  2.4770
  459MOL0     H60564  12.172   3.811   8.516  1.4329  0.2624  0.0619
  459MOL0     H60565  12.193   3.754   8.350 -1.6386 -1.9845  2.1114
  459MOL0     H60566  11.964   3.857   8.492  1.1341  0.8513  0.1238
  459MOL0     H60567  11.961   3.929   8.334  1.3126  0.1803 -0.3112
  459MOL0     H60568  11.950   3.634   8.386 -1.2039 -0.2490 -1.0805
  459MOL0     H60569  12.013   3.694   8.225 -2.9240 -2.7618 -2.6093
  459MOL0     H60570  12.774   4.074   7.850 -0.0395 -0.4193  1.8529
  459MOL0     H60571  12.740   4.093   7.613  0.0537  0.2256 -0.1709
  459MOL0     H60572  12.407   4.000   7.261  0.7335  1.1487 -0.5995
  459MOL0     H60573  12.328   3.974   7.022 -0.3926  2.4678  3.5369
  459MOL0     H60574  11.072   3.011   6.144 -0.6753  1.7227  0.7830
  459MOL0     H60575  10.953   2.828   6.006 -2.0933  2.0330 -1.0887
  459MOL0     H60576  10.592   2.510   6.150  1.5626  1.8925 -1.5259
  459MOL0     H60577  10.423   2.334   6.116  1.0817 -0.4130  0.7751
  459MOL0     H60578  10.314   2.255   5.696  0.8107 -0.7058 -0.2816
  459MOL0     H60579  10.170   2.344   5.750  0.6822  1.4280  0.1954
  459MOL0     H60580  10.122   2.120   5.903 -0.4927 -0.8881  0.6848
  459MOL0     H60581  10.063   2.136   5.737  0.6169  1.9696 -1.5095
  459MOL0     H60582  10.341   2.043   5.809 -0.4454 -0.9666 -0.8174
  459MOL0     H60583  10.264   1.996   5.661 -0.2948  0.0721 -0.4733
  459MOL0     H60584  10.254   1.804   5.811 -0.8861 -1.2796  0.1923
  459MOL0     H60585  10.209   1.903   5.956 -4.4972  1.0226  1.1753
  459MOL0     H60586   9.865   1.768   5.724  1.2168  2.6050 -2.9949
  459MOL0     H60587  10.387   2.464   5.699 -0.6681  3.1020 -0.2468
  459MOL0     H60588  10.538   2.644   5.754 -0.2626  2.1174  1.1144
  460MOL0     O60589   3.666   1.036   5.051  0.8444 -0.5789 -0.3642
  460MOL0     C60590   3.668   0.917   5.040  0.1867  0.8781 -0.8624
  460MOL0     O60591   3.783   0.835   5.053  0.1582 -0.9736 -0.4491
  460MOL0     C60592   3.894   0.863   5.132 -0.4408 -0.6983 -0.3516
  460MOL0     C60593   4.005   0.773   5.134  0.4916 -0.6215 -0.2412
  460MOL0     C60594   4.125   0.799   5.207 -0.1911  0.1278  0.5437
  460MOL0     C60595   4.134   0.916   5.280 -0.5922 -0.0739  0.4533
  460MOL0     O60596   4.251   0.949   5.353  1.3620  0.2211  0.7767
  460MOL0     C60597   4.376   0.898   5.324  0.4964  0.2682 -0.1497
  460MOL0     C60598   4.471   1.001   5.380  0.4017  0.3082  0.2664
  460MOL0     C60599   4.620   0.974   5.351  0.4144 -0.0355  0.2348
  460MOL0     C60600   4.713   1.085   5.403 -0.6135  0.5415 -0.0508
  460MOL0     C60601   4.859   1.048   5.411  0.1801  0.3085  0.1555
  460MOL0     C60602   4.925   1.134   5.521  0.0672  0.1728  0.0467
  460MOL0     C60603   5.078   1.104   5.534  0.3013 -0.7789  0.7986
  460MOL0     C60604   5.147   1.218   5.601  0.1461  0.2042 -0.3820
  460MOL0     N60605   5.288   1.188   5.586 -0.5729  0.6776  0.0903
  460MOL0     C60606   5.379   1.208   5.687 -0.1345  0.5054 -0.2378
  460MOL0     C60607   5.501   1.160   5.635  0.0433  0.1696  0.2769
  460MOL0     C60608   5.631   1.147   5.714  0.0702 -0.2602  0.5161
  460MOL0     C60609   5.663   1.272   5.795  0.4859  1.1009 -0.1142
  460MOL0     C60610   5.778   1.251   5.892  0.5379 -0.1114 -0.1983
  460MOL0     C60611   5.910   1.226   5.814 -0.7546  0.5066  0.2415
  460MOL0     O60612   6.020   1.257   5.901  0.2602  0.1182 -0.6750
  460MOL0     C60613   6.141   1.211   5.857  0.6620  0.0832  0.7205
  460MOL0     C60614   6.172   1.147   5.733  0.1046  1.0019 -0.7494
  460MOL0     C60615   6.303   1.120   5.700  0.0655 -0.9060 -0.3925
  460MOL0     C60616   6.413   1.151   5.781 -0.0458  0.4656  0.5818
  460MOL0     C60617   6.550   1.138   5.733  1.0007 -1.0916 -0.7584
  460MOL0     O60618   6.643   1.096   5.831  0.4477 -0.4781  0.8265
  460MOL0     C60619   6.768   1.056   5.796 -0.2219  0.3232  0.6618
  460MOL0     C60620   6.868   1.151   5.789 -0.8649  0.1589 -0.1757
  460MOL0     C60621   6.996   1.105   5.765 -0.3233  0.3041 -0.2446
  460MOL0     C60622   7.031   0.968   5.760 -0.2627 -0.6625 -0.6253
  460MOL0     O60623   7.143   0.924   5.705  0.1331 -0.2409  0.5549
  460MOL0     C60624   7.266   0.974   5.769  0.9317  0.1272  0.4532
  460MOL0     C60625   7.381   0.916   5.681  0.1373 -0.1961  0.4513
  460MOL0     C60626   7.527   0.913   5.736  0.0478 -0.0933 -0.1454
  460MOL0     C60627   7.640   0.923   5.636  0.2474 -0.3806  0.4250
  460MOL0     C60628   7.770   0.872   5.695 -0.0054 -0.0775 -0.2929
  460MOL0     C60629   7.887   0.913   5.603  0.2182  0.3417  0.7101
  460MOL0     C60630   8.020   0.886   5.669 -0.2434 -0.0587  0.1805
  460MOL0     C60631   8.140   0.932   5.580  0.6902  0.6635 -0.5047
  460MOL0    Cl60632   8.288   0.909   5.674  0.7334 -0.1549 -0.1489
  460MOL0     C60633   6.924   0.872   5.764  0.3590  0.6015 -0.1977
  460MOL0     C60634   6.787   0.922   5.784 -0.4015  0.6929 -0.4505
  460MOL0     O60635   6.568   1.143   5.612  0.3256  0.5407 -0.5206
  460MOL0     C60636   6.385   1.208   5.906 -0.0422  0.8137 -0.0876
  460MOL0     C60637   6.252   1.237   5.942 -0.1920  0.3259  0.7173
  460MOL0     N60638   5.471   1.113   5.509  0.0692 -0.5769 -0.1099
  460MOL0     N60639   5.352   1.145   5.473  0.4688 -0.4052 -0.4109
  460MOL0     C60640   4.024   1.002   5.286  0.9225  0.5887 -0.0024
  460MOL0     C60641   3.904   0.984   5.214  0.7692  1.1744  0.1129
  460MOL0     C60642   3.541   0.845   4.995  0.0878 -0.6061 -0.4036
  460MOL0     C60643   3.546   0.703   4.961  0.2586  0.2259  0.4833
  460MOL0     C60644   3.437   0.634   4.919  1.1859  0.2598  0.0591
  460MOL0     C60645   3.321   0.702   4.898  0.6521  0.4982  0.4002
  460MOL0     O60646   3.206   0.645   4.852  0.1532  0.0871 -0.1628
  460MOL0     C60647   3.208   0.507   4.807 -0.8225 -0.0948  0.3191
  460MOL0     C60648   3.059   0.461   4.778  0.1648  0.1421 -0.0002
  460MOL0     C60649   2.959   0.440   4.893  0.6625 -0.0943 -0.7316
  460MOL0     C60650   2.959   0.296   4.950 -0.3238 -0.1042 -0.4967
  460MOL0     C60651   2.897   0.206   4.851  0.3359  0.0138  0.3895
  460MOL0     C60652   2.847   0.125   4.778 -1.4376 -0.2695 -0.7420
  460MOL0     C60653   3.307   0.833   4.940 -0.1601 -0.8064  0.0053
  460MOL0     C60654   3.419   0.906   4.990  1.2970 -0.0299 -0.1500
  460MOL0     H60655   3.986   0.674   5.094 -1.2470 -0.2596 -0.3680
  460MOL0     H60656   4.210   0.732   5.203 -0.3605 -0.0359 -0.5932
  460MOL0     H60657   4.404   0.889   5.219 -0.1443  1.0908 -0.4035
  460MOL0     H60658   4.399   0.799   5.365  0.7751  1.1909  2.0790
  460MOL0     H60659   4.449   1.012   5.487 -4.1045  0.7445 -0.5079
  460MOL0     H60660   4.445   1.094   5.330 -0.8217  0.2753  0.8004
  460MOL0     H60661   4.638   0.960   5.244  2.2916  0.4865  0.4516
  460MOL0     H60662   4.648   0.878   5.394  0.1836 -0.8340 -1.3328
  460MOL0     H60663   4.711   1.172   5.336  2.7486 -0.4813 -1.6903
  460MOL0     H60664   4.682   1.116   5.503  0.6864  0.7647  0.3048
  460MOL0     H60665   4.912   1.075   5.319  1.8052 -1.3513  0.5377
  460MOL0     H60666   4.871   0.941   5.431  3.3779  0.2132 -1.6306
  460MOL0     H60667   4.872   1.118   5.615  0.6097 -3.6444 -0.1300
  460MOL0     H60668   4.892   1.234   5.492  1.2776  1.1994  2.0184
  460MOL0     H60669   5.093   1.013   5.592 -0.6234 -0.1610  2.0468
  460MOL0     H60670   5.124   1.099   5.435  0.3325  0.9619  0.7009
  460MOL0     H60671   5.126   1.208   5.708  5.4403 -0.0857  0.8978
  460MOL0     H60672   5.119   1.317   5.564 -0.1957  0.2723  0.0485
  460MOL0     H60673   5.350   1.246   5.784  0.1571  1.2674 -0.4384
  460MOL0     H60674   5.717   1.128   5.649 -0.4643 -2.7984  0.4264
  460MOL0     H60675   5.625   1.058   5.778 -3.7766  0.2527  1.1208
  460MOL0     H60676   5.574   1.301   5.851  0.9903 -1.1914  1.9928
  460MOL0     H60677   5.693   1.357   5.733 -0.6885  1.5747 -0.0631
  460MOL0     H60678   5.795   1.350   5.936  1.6450  1.7914 -4.3883
  460MOL0     H60679   5.756   1.167   5.959 -1.2153 -0.2685 -0.9205
  460MOL0     H60680   5.903   1.307   5.740 -0.2313 -0.5721 -1.0199
  460MOL0     H60681   5.915   1.132   5.759 -1.0326 -0.3247  1.5770
  460MOL0     H60682   6.096   1.112   5.664  0.0952  0.9236 -0.6995
  460MOL0     H60683   6.316   1.081   5.600 -1.3587 -0.3621 -0.8069
  460MOL0     H60684   6.842   1.257   5.788 -1.7989  0.0050  1.8833
  460MOL0     H60685   7.067   1.184   5.744 -0.0060  0.3406  0.9129
  460MOL0     H60686   7.281   0.928   5.867  2.5132 -2.4119 -0.8497
  460MOL0     H60687   7.263   1.083   5.779  0.1734  0.2953 -1.2532
  460MOL0     H60688   7.382   0.962   5.582  0.6467 -3.1292 -1.0255
  460MOL0     H60689   7.361   0.814   5.647 -1.0767  0.2839 -0.3356
  460MOL0     H60690   7.533   0.839   5.816 -0.3434  2.6693  2.6100
  460MOL0     H60691   7.537   1.006   5.792 -1.0647  0.3895 -0.7121
  460MOL0     H60692   7.616   0.862   5.548  0.9499 -0.7002  0.4501
  460MOL0     H60693   7.650   1.028   5.609 -0.5813 -0.9954 -2.7543
  460MOL0     H60694   7.775   0.763   5.705  1.2608 -0.1942 -1.8831
  460MOL0     H60695   7.785   0.926   5.789 -0.8340  1.1307 -0.8341
  460MOL0     H60696   7.873   1.022   5.597 -0.1059  0.2627 -0.1445
  460MOL0     H60697   7.887   0.872   5.502  0.4221 -1.5791  1.4620
  460MOL0     H60698   8.036   0.933   5.766 -0.5011  1.8221 -0.6502
  460MOL0     H60699   8.033   0.777   5.664  1.7854  0.1463  0.0667
  460MOL0     H60700   8.130   1.039   5.557  0.6651  1.5419  3.0241
  460MOL0     H60701   8.149   0.869   5.491 -0.7581 -0.5465  0.1457
  460MOL0     H60702   6.957   0.769   5.754 -0.4999  0.3886 -0.9828
  460MOL0     H60703   6.703   0.856   5.763 -1.6761  2.3596 -0.7985
  460MOL0     H60704   6.470   1.233   5.970  0.1834  2.4932 -0.9837
  460MOL0     H60705   6.241   1.297   6.032  1.7443  1.0299  0.5296
  460MOL0     H60706   4.027   1.083   5.358  1.4560  0.9275 -0.4013
  460MOL0     H60707   3.830   1.063   5.214 -0.3451  0.2207 -2.1989
  460MOL0     H60708   3.643   0.656   4.970  1.7247  2.9116 -0.2363
  460MOL0     H60709   3.440   0.533   4.881  0.3395 -0.1738  1.1057
  460MOL0     H60710   3.244   0.434   4.880  0.4835 -1.1280 -1.2522
  460MOL0     H60711   3.268   0.492   4.716 -2.3007 -0.4053 -0.6448
  460MOL0     H60712   3.008   0.524   4.705 -3.2527 -3.4306 -1.0270
  460MOL0     H60713   3.077   0.365   4.730 -0.7206  0.1181 -0.3001
  460MOL0     H60714   2.857   0.454   4.855  0.0450 -1.2420  0.4249
  460MOL0     H60715   2.986   0.515   4.969 -0.2090 -1.5965  1.1361
  460MOL0     H60716   3.064   0.268   4.964 -0.5274 -0.7657 -0.2599
  460MOL0     H60717   2.896   0.285   5.039 -1.2962  3.4989 -0.5876
  460MOL0     H60718   2.823   0.047   4.709 -2.9465 -1.7655  1.3666
  460MOL0     H60719   3.211   0.884   4.929 -0.0489 -0.4621  0.5610
  460MOL0     H60720   3.416   1.013   5.009  1.0070  0.0766 -0.7736
  461MOL0     O60721   9.727   8.784   1.925  0.1570  0.3235 -0.2389
  461MOL0     C60722   9.819   8.709   1.914 -1.2821 -0.8354  0.0864
  461MOL0     O60723   9.815   8.569   1.897  0.1355 -0.4985  0.0745
  461MOL0     C60724   9.691   8.514   1.870 -0.9601  0.4695 -0.5741
  461MOL0     C60725   9.625   8.552   1.749 -0.0137  0.2104 -0.2591
  461MOL0     C60726   9.490   8.506   1.729  0.2374  0.1259 -0.5435
  461MOL0     C60727   9.428   8.434   1.828  1.2234  0.2490  1.0788
  461MOL0     O60728   9.302   8.385   1.810  0.8033 -0.3863  0.5063
  461MOL0     C60729   9.205   8.495   1.784  0.2574  0.1052 -0.7167
  461MOL0     C60730   9.139   8.491   1.644 -0.0387  0.3880  0.0131
  461MOL0     C60731   9.046   8.370   1.638  0.5358  0.5142  0.5254
  461MOL0     C60732   8.950   8.367   1.517 -0.4345 -0.2965 -0.1849
  461MOL0     C60733   8.902   8.228   1.485 -0.8355  0.0351 -0.6943
  461MOL0     C60734   8.827   8.177   1.601  0.9640  0.3258 -0.7390
  461MOL0     C60735   8.738   8.051   1.574 -0.0724 -0.3653 -0.0437
  461MOL0     C60736   8.688   7.980   1.702 -0.3475 -0.0808 -0.5325
  461MOL0     N60737   8.565   8.032   1.757  0.4868 -0.3245 -0.4089
  461MOL0     C60738   8.440   8.016   1.706  0.3381  0.5186  0.3045
  461MOL0     C60739   8.353   8.090   1.781  0.1798  0.7004 -1.2491
  461MOL0     C60740   8.204   8.093   1.773 -0.2376 -0.8245 -0.3669
  461MOL0     C60741   8.128   7.973   1.734  0.4784 -0.3069  0.5561
  461MOL0     C60742   7.970   7.986   1.740 -0.5847 -0.4033  0.4415
  461MOL0     C60743   7.916   7.957   1.872 -1.2528 -0.0602 -0.5854
  461MOL0     O60744   7.779   7.978   1.860  0.4457 -0.7580  0.5590
  461MOL0     C60745   7.724   8.031   1.965  0.3292 -0.3558 -0.0662
  461MOL0     C60746   7.617   7.952   2.022 -0.2016  0.1685  1.1397
  461MOL0     C60747   7.558   7.986   2.135  0.1266  0.2195  0.5194
  461MOL0     C60748   7.600   8.107   2.204 -0.0073  0.7948 -0.5508
  461MOL0     C60749   7.529   8.149   2.324  0.3322 -0.7006  0.0064
  461MOL0     O60750   7.393   8.150   2.312  0.0805 -0.7338  0.1943
  461MOL0     C60751   7.300   8.204   2.403  0.8106 -0.4612  1.3316
  461MOL0     C60752   7.334   8.270   2.528  0.0118 -0.2112 -0.2522
  461MOL0     C60753   7.232   8.329   2.607  0.7865  0.2815  0.4291
  461MOL0     C60754   7.098   8.343   2.564 -0.5642  0.6391  0.1811
  461MOL0     O60755   6.999   8.427   2.621  0.0021  0.5349 -0.1985
  461MOL0     C60756   7.030   8.513   2.726  0.2515 -0.4469  0.3122
  461MOL0     C60757   7.121   8.626   2.669 -0.8346 -0.1469 -0.4343
  461MOL0     C60758   7.044   8.709   2.568  0.0994  1.0926  0.2871
  461MOL0     C60759   7.131   8.806   2.485  0.3754  0.5273 -0.6346
  461MOL0     C60760   7.060   8.890   2.375 -0.2972 -0.4180 -1.0608
  461MOL0     C60761   6.948   8.833   2.291  0.3232  0.1051  0.2890
  461MOL0     C60762   6.898   8.907   2.167  0.3855  0.7392  0.3217
  461MOL0     C60763   6.773   8.848   2.096  0.8268 -0.5367 -0.0665
  461MOL0    Cl60764   6.624   8.910   2.171 -0.1236 -0.2589 -0.1051
  461MOL0     C60765   7.067   8.283   2.443  1.0231 -0.8365  0.3115
  461MOL0     C60766   7.159   8.218   2.364 -0.2429 -0.4698  0.0921
  461MOL0     O60767   7.597   8.175   2.422 -0.0851 -0.1210 -0.2162
  461MOL0     C60768   7.698   8.192   2.136 -0.0237  0.9096 -0.2612
  461MOL0     C60769   7.761   8.157   2.014 -0.3541 -0.8193 -0.0591
  461MOL0     N60770   8.433   8.145   1.880 -0.0686 -0.1751 -0.5719
  461MOL0     N60771   8.555   8.126   1.852 -0.3679 -0.8635 -1.0520
  461MOL0     C60772   9.495   8.399   1.943 -1.3853 -0.6529 -0.2265
  461MOL0     C60773   9.627   8.447   1.971 -0.0460 -0.3338  0.6915
  461MOL0     C60774   9.958   8.757   1.925  0.3891  0.2177  0.9433
  461MOL0     C60775   9.991   8.878   1.985 -0.6336  0.3300 -0.9536
  461MOL0     C60776  10.123   8.919   2.007 -0.7748 -0.0230 -0.1697
  461MOL0     C60777  10.233   8.835   1.971  0.1412  0.6704 -0.0808
  461MOL0     O60778  10.362   8.871   2.013  0.3481  0.4024  0.3893
  461MOL0     C60779  10.479   8.785   1.984  0.2483  0.0918 -0.0729
  461MOL0     C60780  10.507   8.811   1.833  0.4702  0.3267  0.5586
  461MOL0     C60781  10.591   8.698   1.782  0.6812  0.5111 -0.4956
  461MOL0     C60782  10.738   8.719   1.805 -0.3880  1.5002  0.5629
  461MOL0     C60783  10.788   8.802   1.697 -1.0980  0.1818 -0.3004
  461MOL0     C60784  10.838   8.862   1.611  0.1186  0.3272  0.8507
  461MOL0     C60785  10.204   8.721   1.891 -0.2276 -0.2128  0.7142
  461MOL0     C60786  10.069   8.684   1.868 -0.7791  0.5063  0.6894
  461MOL0     H60787   9.659   8.625   1.677  1.2757  0.0341  0.1465
  461MOL0     H60788   9.442   8.512   1.631 -1.5557  0.0693  0.2787
  461MOL0     H60789   9.253   8.593   1.779  1.8201 -0.5157  1.0116
  461MOL0     H60790   9.135   8.500   1.868  0.6675 -2.0374 -0.1831
  461MOL0     H60791   9.212   8.498   1.563  0.2809 -1.6608  0.0795
  461MOL0     H60792   9.087   8.587   1.630  2.6249  1.9150 -0.1521
  461MOL0     H60793   8.980   8.365   1.726  0.0628  1.4130  0.2388
  461MOL0     H60794   9.110   8.282   1.641 -0.0295  0.1090  3.0254
  461MOL0     H60795   8.863   8.429   1.543 -0.0114 -0.7423  2.6524
  461MOL0     H60796   8.998   8.415   1.432  1.9936  1.5718  2.0745
  461MOL0     H60797   8.990   8.170   1.456 -0.0463 -0.0675  1.6778
  461MOL0     H60798   8.833   8.240   1.400 -2.6247 -1.8960  0.3712
  461MOL0     H60799   8.758   8.258   1.627  1.7855  1.5097 -2.0729
  461MOL0     H60800   8.904   8.160   1.676  3.4451 -0.1757 -3.2484
  461MOL0     H60801   8.657   8.073   1.504 -0.0412 -0.7602 -0.2077
  461MOL0     H60802   8.801   7.976   1.525 -2.4993 -1.0201 -2.3628
  461MOL0     H60803   8.764   7.980   1.780  0.5662  0.5656 -1.3965
  461MOL0     H60804   8.666   7.876   1.676 -1.3163  0.4462 -1.9479
  461MOL0     H60805   8.410   7.954   1.623 -1.8058  1.4733  0.3039
  461MOL0     H60806   8.168   8.171   1.705  2.1545 -0.5038 -1.3687
  461MOL0     H60807   8.155   8.134   1.862 -0.1954  1.8713 -1.4847
  461MOL0     H60808   8.157   7.894   1.804  3.9962 -0.1127 -0.5081
  461MOL0     H60809   8.161   7.931   1.639 -2.5110 -0.2743 -0.6119
  461MOL0     H60810   7.948   8.089   1.712 -0.3538  0.0881  1.9289
  461MOL0     H60811   7.924   7.910   1.677 -0.5687  0.3370 -0.4855
  461MOL0     H60812   7.958   8.022   1.950  1.1214 -0.8190 -1.1423
  461MOL0     H60813   7.935   7.853   1.899 -1.9968 -0.7412 -2.5423
  461MOL0     H60814   7.592   7.865   1.961  1.1763  1.0259 -0.7391
  461MOL0     H60815   7.479   7.922   2.173  0.7447 -2.3530 -2.1311
  461MOL0     H60816   7.434   8.270   2.569 -0.7404 -1.3658  1.7082
  461MOL0     H60817   7.266   8.363   2.705  3.3815 -2.2714  0.5471
  461MOL0     H60818   7.072   8.464   2.814 -2.9425 -0.3669  2.0438
  461MOL0     H60819   6.935   8.549   2.767  0.3136 -0.3646  0.3853
  461MOL0     H60820   7.211   8.585   2.623 -2.2176 -2.3055 -1.3730
  461MOL0     H60821   7.150   8.688   2.755  1.1503 -1.5515 -0.0380
  461MOL0     H60822   6.969   8.769   2.621 -1.2200 -1.5230  1.5204
  461MOL0     H60823   6.997   8.641   2.496 -1.6072  1.7681  0.7103
  461MOL0     H60824   7.195   8.864   2.553 -0.9145 -0.3366  1.4159
  461MOL0     H60825   7.203   8.751   2.423 -1.1888 -3.0289  0.4382
  461MOL0     H60826   7.142   8.931   2.315  0.5258  0.3225  0.5236
  461MOL0     H60827   7.016   8.969   2.436 -1.3525 -1.1115 -0.8800
  461MOL0     H60828   6.862   8.827   2.358 -0.7942  4.2565 -0.4961
  461MOL0     H60829   6.977   8.730   2.267 -0.8711  0.0324 -0.9776
  461MOL0     H60830   6.865   9.006   2.199 -0.1794  0.8852 -0.6704
  461MOL0     H60831   6.982   8.909   2.098  1.5224 -4.1064  1.1785
  461MOL0     H60832   6.774   8.739   2.103  2.0085 -0.4767  1.2028
  461MOL0     H60833   6.778   8.859   1.987  0.2831  0.5597 -0.0009
  461MOL0     H60834   6.966   8.302   2.407  0.3216 -1.3447  1.8998
  461MOL0     H60835   7.130   8.179   2.267 -0.5552  0.2684 -0.1186
  461MOL0     H60836   7.723   8.284   2.188 -3.5029 -0.2115  3.8882
  461MOL0     H60837   7.833   8.229   1.977 -1.7813  1.1012  0.7085
  461MOL0     H60838   9.450   8.348   2.028 -0.8543  0.8967  1.0317
  461MOL0     H60839   9.669   8.450   2.071  0.5006 -1.3076  0.5004
  461MOL0     H60840   9.907   8.935   2.024  1.4636  1.0456  3.0977
  461MOL0     H60841  10.144   9.014   2.054  1.2972 -1.0835  1.1901
  461MOL0     H60842  10.453   8.681   2.007 -1.4716  0.8467  1.6473
  461MOL0     H60843  10.560   8.811   2.053  1.0696 -2.1794 -0.0926
  461MOL0     H60844  10.416   8.835   1.778  1.2825 -0.5119 -1.2587
  461MOL0     H60845  10.560   8.906   1.827 -4.2584  3.1840 -0.8629
  461MOL0     H60846  10.579   8.697   1.673  1.0268  2.0593 -0.5796
  461MOL0     H60847  10.569   8.607   1.838  0.2041 -0.1899 -1.7836
  461MOL0     H60848  10.759   8.767   1.901  1.2108  0.3099  0.8633
  461MOL0     H60849  10.781   8.618   1.812 -1.1847  1.0278 -0.9065
  461MOL0     H60850  10.885   8.930   1.541 -0.2927  0.9410  1.1602
  461MOL0     H60851  10.283   8.654   1.858 -0.5020  0.1211 -0.6528
  461MOL0     H60852  10.049   8.599   1.803  1.8608  0.8031 -0.6566
  462MOL0     O60853   5.268   4.546  11.340 -0.0211  0.2410  0.1895
  462MOL0     C60854   5.254   4.664  11.339 -1.2798 -0.3763  0.6210
  462MOL0     O60855   5.133   4.740  11.328 -0.6899 -0.3934 -0.3125
  462MOL0     C60856   5.014   4.685  11.360 -0.0106 -0.2040 -0.2802
  462MOL0     C60857   4.982   4.592  11.467 -1.1464 -0.4264  0.7714
  462MOL0     C60858   4.855   4.544  11.489 -0.1125  0.4440  0.1756
  462MOL0     C60859   4.748   4.569  11.400 -0.1219 -0.7956  0.1476
  462MOL0     O60860   4.626   4.514  11.433  0.2566 -0.0548 -0.2203
  462MOL0     C60861   4.496   4.565  11.404  1.2056  0.5241  0.7284
  462MOL0     C60862   4.462   4.692  11.472  0.1583  0.1838  0.6700
  462MOL0     C60863   4.482   4.680  11.621  0.2771  0.3377 -0.7403
  462MOL0     C60864   4.456   4.808  11.699 -0.3771 -0.3417 -1.0681
  462MOL0     C60865   4.312   4.857  11.703 -0.7245 -0.1276  0.1649
  462MOL0     C60866   4.302   5.003  11.745 -1.4079  0.0466 -0.2184
  462MOL0     C60867   4.169   5.075  11.738 -0.7058 -0.1147 -0.3331
  462MOL0     C60868   4.144   5.110  11.597 -1.0857 -0.9448  1.0491
  462MOL0     N60869   4.004   5.149  11.590  0.0648  0.4676  0.0908
  462MOL0     C60870   3.904   5.100  11.501  0.5932  0.2024 -1.4139
  462MOL0     C60871   3.796   5.172  11.525 -0.7260  0.4124  0.1280
  462MOL0     C60872   3.656   5.156  11.471 -0.1245  0.6340 -0.4275
  462MOL0     C60873   3.645   5.112  11.325 -0.9483 -0.3732 -0.0029
  462MOL0     C60874   3.520   5.145  11.249 -0.0239  1.1584  0.1465
  462MOL0     C60875   3.389   5.095  11.310 -0.4381 -0.6196  0.4953
  462MOL0     O60876   3.385   4.953  11.307 -0.1981 -0.9232 -0.3166
  462MOL0     C60877   3.273   4.894  11.262  0.0486  0.0326  0.0870
  462MOL0     C60878   3.203   4.800  11.341 -0.0243  0.0532  0.5756
  462MOL0     C60879   3.071   4.753  11.302  0.4190  0.4190  0.3469
  462MOL0     C60880   3.020   4.794  11.173 -0.6828 -0.6367 -0.8044
  462MOL0     C60881   2.891   4.741  11.116  0.1144 -1.0561  0.2241
  462MOL0     O60882   2.870   4.613  11.141  0.3127 -0.2862 -0.2922
  462MOL0     C60883   2.746   4.558  11.107 -0.4192 -0.3247 -0.4321
  462MOL0     C60884   2.736   4.459  11.009 -0.2784 -0.6012  0.1126
  462MOL0     C60885   2.612   4.397  10.977  0.0666 -0.5019 -0.7531
  462MOL0     C60886   2.493   4.445  11.041  0.3354  0.5217  0.6635
  462MOL0     O60887   2.365   4.395  11.017 -0.1083  0.4154 -0.1328
  462MOL0     C60888   2.349   4.296  10.906 -0.0633 -0.4181  0.4119
  462MOL0     C60889   2.213   4.230  10.901 -0.5414  0.1991  0.0310
  462MOL0     C60890   2.095   4.322  10.873 -0.0825 -0.2723  0.5054
  462MOL0     C60891   1.966   4.274  10.926 -0.1234  0.0266  0.3350
  462MOL0     C60892   1.837   4.335  10.855  0.9227  1.1109  0.3180
  462MOL0     C60893   1.822   4.481  10.866  0.2255 -0.1092 -0.4507
  462MOL0     C60894   1.799   4.523  11.012 -0.1365 -0.0491  0.2743
  462MOL0     C60895   1.724   4.430  11.105  0.5923  0.2832  0.6679
  462MOL0    Cl60896   1.555   4.429  11.044  0.1602  0.2655  0.4128
  462MOL0     C60897   2.507   4.528  11.153 -0.5862  0.1748  0.2037
  462MOL0     C60898   2.631   4.594  11.181 -0.4865  0.4941  0.1968
  462MOL0     O60899   2.821   4.828  11.065  0.4789 -0.1684 -0.4594
  462MOL0     C60900   3.090   4.879  11.095  0.6494 -0.6545 -0.0954
  462MOL0     C60901   3.220   4.929  11.142  0.5897  0.3610 -0.1994
  462MOL0     N60902   3.812   5.243  11.639  0.2160 -0.7005  0.4350
  462MOL0     N60903   3.939   5.247  11.658 -0.2367 -0.4899  0.1374
  462MOL0     C60904   4.775   4.657  11.296 -0.9854  0.9349 -0.4113
  462MOL0     C60905   4.902   4.716  11.273  0.8086 -0.0248 -0.1168
  462MOL0     C60906   5.382   4.737  11.332 -0.2318  0.5928  0.4592
  462MOL0     C60907   5.376   4.850  11.250  0.0453 -1.1203  0.6960
  462MOL0     C60908   5.493   4.925  11.237  0.0001 -0.2733  0.5660
  462MOL0     C60909   5.611   4.883  11.294 -0.8715 -0.2121 -0.1402
  462MOL0     O60910   5.728   4.947  11.259  0.0922 -0.0778  0.3340
  462MOL0     C60911   5.821   4.984  11.362  0.7451  0.7972 -0.0754
  462MOL0     C60912   5.903   5.102  11.313  0.6440  0.5558  0.9635
  462MOL0     C60913   6.024   5.132  11.402  0.4998  0.0695  0.3405
  462MOL0     C60914   6.101   5.255  11.361 -0.7133 -0.2731 -0.3508
  462MOL0     C60915   6.183   5.307  11.475 -0.7978 -0.7782 -0.0398
  462MOL0     C60916   6.233   5.335  11.582  0.6975  0.2575  0.1083
  462MOL0     C60917   5.618   4.763  11.367 -0.9846  0.2167 -0.0704
  462MOL0     C60918   5.503   4.703  11.399  0.4678  2.0520 -0.1615
  462MOL0     H60919   5.067   4.577  11.532  0.3225  0.0360 -0.9423
  462MOL0     H60920   4.837   4.471  11.567 -0.5615 -1.1456 -1.3252
  462MOL0     H60921   4.438   4.479  11.441  2.7492 -1.1292 -0.5052
  462MOL0     H60922   4.485   4.573  11.295  6.2930 -1.8457 -0.2336
  462MOL0     H60923   4.361   4.725  11.448 -0.4782 -1.4641  0.9337
  462MOL0     H60924   4.540   4.761  11.438 -1.1458  1.1580 -0.4112
  462MOL0     H60925   4.587   4.651  11.636  0.9058  2.3162 -0.9979
  462MOL0     H60926   4.410   4.609  11.664  2.3503 -0.9281  0.8688
  462MOL0     H60927   4.492   4.806  11.802 -2.1904  0.4136 -0.3848
  462MOL0     H60928   4.523   4.881  11.652 -2.3944  2.2170 -0.1800
  462MOL0     H60929   4.248   4.792  11.763 -1.4607 -1.7183 -2.1828
  462MOL0     H60930   4.274   4.847  11.601 -1.1702  0.6543  0.2459
  462MOL0     H60931   4.382   5.068  11.707 -3.0555  1.0641 -2.1518
  462MOL0     H60932   4.334   4.994  11.849  1.4473 -1.3481 -1.1333
  462MOL0     H60933   4.097   5.002  11.774  1.7718 -1.6659  1.8632
  462MOL0     H60934   4.187   5.169  11.792  2.4631  0.5226 -2.2326
  462MOL0     H60935   4.161   5.022  11.533 -0.2046 -0.4702  0.6169
  462MOL0     H60936   4.211   5.190  11.564 -2.2855  0.6745  2.3655
  462MOL0     H60937   3.910   5.029  11.419 -1.8432 -1.2673 -0.4552
  462MOL0     H60938   3.604   5.251  11.483 -1.5703 -0.0641 -0.9813
  462MOL0     H60939   3.609   5.079  11.534 -0.9216 -2.0473 -3.9700
  462MOL0     H60940   3.663   5.005  11.335 -1.4217 -0.4085  0.4984
  462MOL0     H60941   3.721   5.165  11.267 -1.3759  2.7594  2.0735
  462MOL0     H60942   3.513   5.254  11.256 -2.3808  1.2548 -2.2719
  462MOL0     H60943   3.525   5.111  11.145  2.0243  0.5149  0.4019
  462MOL0     H60944   3.303   5.150  11.271 -0.1966 -2.0507 -2.3058
  462MOL0     H60945   3.407   5.126  11.413  5.1373  0.0589 -0.3768
  462MOL0     H60946   3.246   4.762  11.433  0.2275 -0.1736  0.3666
  462MOL0     H60947   3.010   4.676  11.348 -1.2837  0.9883 -0.8486
  462MOL0     H60948   2.832   4.434  10.965 -0.0498 -0.8332  0.7368
  462MOL0     H60949   2.603   4.322  10.898  0.0592  1.3720 -2.6295
  462MOL0     H60950   2.405   4.203  10.921  0.9171  0.4404  2.5523
  462MOL0     H60951   2.354   4.358  10.816 -0.2417 -0.2947  0.4883
  462MOL0     H60952   2.206   4.183  11.000 -1.6130 -1.7078 -0.8837
  462MOL0     H60953   2.209   4.151  10.825 -2.0916  1.8672 -1.7174
  462MOL0     H60954   2.084   4.326  10.765 -1.2190 -2.5027  0.4792
  462MOL0     H60955   2.117   4.422  10.911  0.0632 -0.6867  1.5660
  462MOL0     H60956   1.969   4.166  10.908  3.7666  0.0266  0.3308
  462MOL0     H60957   1.970   4.282  11.035  0.8851 -0.1683  0.3211
  462MOL0     H60958   1.745   4.291  10.895 -0.9394  0.7286 -3.8214
  462MOL0     H60959   1.839   4.295  10.753 -2.0828  0.4317  0.4458
  462MOL0     H60960   1.737   4.516  10.807 -1.8726 -2.3313  1.0596
  462MOL0     H60961   1.914   4.534  10.840 -1.0986  2.2481 -0.6258
  462MOL0     H60962   1.896   4.523  11.062 -0.3112 -0.1898  0.6159
  462MOL0     H60963   1.755   4.624  11.014  1.3138  0.6784 -1.7877
  462MOL0     H60964   1.726   4.477  11.204  0.6318  0.7661  0.4401
  462MOL0     H60965   1.755   4.326  11.122 -2.7765 -1.2648 -1.5653
  462MOL0     H60966   2.421   4.550  11.214  0.5204  2.3372  1.0955
  462MOL0     H60967   2.643   4.649  11.274  2.2133 -2.2222  1.6501
  462MOL0     H60968   3.091   4.914  10.992  1.1249 -1.1566 -0.2661
  462MOL0     H60969   3.271   5.004  11.083  0.4496 -0.4810 -1.4261
  462MOL0     H60970   4.699   4.679  11.222  0.2422  0.4338 -1.8748
  462MOL0     H60971   4.914   4.773  11.181  0.5196  2.8796  1.5163
  462MOL0     H60972   5.284   4.879  11.200  0.2352 -3.7458 -1.3695
  462MOL0     H60973   5.489   5.013  11.173  0.6668 -1.2113 -0.8309
  462MOL0     H60974   5.880   4.893  11.376  1.1921  0.9718 -0.8103
  462MOL0     H60975   5.764   5.003  11.454  0.8781 -0.5663  0.3107
  462MOL0     H60976   5.943   5.079  11.214 -0.1182 -0.2934  0.8391
  462MOL0     H60977   5.831   5.183  11.295 -1.3102 -1.1437  0.7740
  462MOL0     H60978   6.080   5.039  11.413 -1.5683 -1.0753  1.7594
  462MOL0     H60979   5.983   5.145  11.502  0.9919  0.2664  0.5206
  462MOL0     H60980   6.165   5.232  11.276 -1.8982 -0.2861 -1.2556
  462MOL0     H60981   6.041   5.337  11.320 -3.7935 -1.9850  0.3808
  462MOL0     H60982   6.272   5.368  11.677  0.3866  0.6700  0.0957
  462MOL0     H60983   5.717   4.727  11.394  0.0802  3.4874  0.9625
  462MOL0     H60984   5.494   4.617  11.465 -2.5503 -0.3218 -3.2788
  463MOL0     O60985   6.470   7.685   0.673  0.1478 -0.0137 -0.3576
  463MOL0     C60986   6.519   7.772   0.600 -0.0441  0.3684 -0.2090
  463MOL0     O60987   6.473   7.903   0.578  0.3457 -0.0681  0.5019
  463MOL0     C60988   6.346   7.938   0.604  0.5607  0.5997  0.9186
  463MOL0     C60989   6.319   8.076   0.605  0.8036  0.1393  0.3076
  463MOL0     C60990   6.198   8.135   0.640 -0.0174  0.6208 -0.2548
  463MOL0     C60991   6.090   8.043   0.666  0.0904  0.3925 -0.6728
  463MOL0     O60992   5.962   8.080   0.699 -0.4785 -0.3691  0.4124
  463MOL0     C60993   5.931   8.209   0.753  0.0418  0.0316 -0.2720
  463MOL0     C60994   5.799   8.200   0.827  0.5791  0.9718  0.4062
  463MOL0     C60995   5.704   8.116   0.738 -0.3185  0.4940  0.7163
  463MOL0     C60996   5.561   8.103   0.797 -0.4958 -0.7709 -0.5276
  463MOL0     C60997   5.449   8.064   0.709 -0.0291 -0.0664  1.0908
  463MOL0     C60998   5.490   7.929   0.648 -0.4467 -0.4200 -0.0958
  463MOL0     C60999   5.366   7.838   0.604  0.0168 -0.3400 -0.0127
  463MOL0     C61000   5.400   7.729   0.501  0.3352 -0.5676  0.4394
  463MOL0     N61001   5.281   7.671   0.440 -0.2589  0.7377 -0.8409
  463MOL0     C61002   5.240   7.699   0.313 -0.5579 -0.3301 -0.8911
  463MOL0     C61003   5.134   7.623   0.295  0.6626  0.5843 -0.6767
  463MOL0     C61004   5.050   7.590   0.177  0.0907  0.5976  0.5029
  463MOL0     C61005   5.133   7.526   0.072 -0.3070  0.3401  0.6536
  463MOL0     C61006   5.055   7.464  -0.033 -0.1907  0.7381 -0.1918
  463MOL0     C61007   5.037   7.314  -0.017  0.7221 -0.5639  0.3419
  463MOL0     O61008   4.983   7.249  -0.128 -0.3060  0.5631  0.3289
  463MOL0     C61009   4.858   7.287  -0.176  0.6611  0.4825  0.0326
  463MOL0     C61010   4.833   7.372  -0.287 -0.0467  0.1200 -0.1529
  463MOL0     C61011   4.713   7.387  -0.347 -0.1513  0.0252 -0.2668
  463MOL0     C61012   4.599   7.328  -0.288  0.0088  0.3853 -0.5535
  463MOL0     C61013   4.465   7.345  -0.345 -0.9998 -0.3735  0.3677
  463MOL0     O61014   4.369   7.267  -0.300 -0.0966  0.4740  0.2986
  463MOL0     C61015   4.241   7.301  -0.326  0.1632  0.1772 -1.2279
  463MOL0     C61016   4.178   7.358  -0.212 -0.3702  0.6634  0.2472
  463MOL0     C61017   4.042   7.394  -0.222 -0.7435  0.0289 -0.7370
  463MOL0     C61018   3.966   7.350  -0.334  0.9939  0.2077  0.4950
  463MOL0     O61019   3.831   7.375  -0.334 -0.2822  0.5854  0.0727
  463MOL0     C61020   3.783   7.482  -0.400  0.4765  0.1008  0.8186
  463MOL0     C61021   3.640   7.524  -0.347  0.3615  0.6134 -0.2440
  463MOL0     C61022   3.586   7.629  -0.432 -0.4271  0.4840  0.1886
  463MOL0     C61023   3.450   7.658  -0.365  0.4975  0.3127 -0.0990
  463MOL0     C61024   3.349   7.743  -0.449  0.1340  0.4128 -0.4511
  463MOL0     C61025   3.340   7.723  -0.603  0.6840 -0.0831  0.4108
  463MOL0     C61026   3.295   7.579  -0.640  0.8249 -0.3634 -0.0219
  463MOL0     C61027   3.281   7.565  -0.790  0.5004  0.0799  0.0627
  463MOL0    Cl61028   3.433   7.603  -0.889 -0.1973 -0.0843  0.6113
  463MOL0     C61029   4.029   7.290  -0.446  0.4521 -0.4141  0.0073
  463MOL0     C61030   4.168   7.277  -0.447 -0.1381  1.5483 -0.8541
  463MOL0     O61031   4.457   7.425  -0.436  0.5861  0.4567 -0.2943
  463MOL0     C61032   4.620   7.252  -0.169  1.5351 -0.6107  0.6172
  463MOL0     C61033   4.744   7.229  -0.117 -0.1672  0.6031  0.5466
  463MOL0     N61034   5.126   7.539   0.406  0.2310 -0.5469  0.4837
  463MOL0     N61035   5.219   7.560   0.486  0.1214  0.5045  0.1073
  463MOL0     C61036   6.105   7.904   0.660 -0.6008 -0.6551  0.1563
  463MOL0     C61037   6.238   7.854   0.626  1.2227 -0.1067  0.5149
  463MOL0     C61038   6.653   7.741   0.549 -0.3097  0.8696  0.8290
  463MOL0     C61039   6.733   7.824   0.463 -0.4474 -0.7209  0.4401
  463MOL0     C61040   6.857   7.784   0.409  0.7081 -0.6842  0.0020
  463MOL0     C61041   6.904   7.656   0.445 -0.0030 -0.2395 -0.2862
  463MOL0     O61042   7.024   7.596   0.413  0.4144  0.7440 -0.1004
  463MOL0     C61043   7.126   7.670   0.334 -0.7065  1.2715 -0.5124
  463MOL0     C61044   7.122   7.645   0.185  0.3448  0.3156 -0.8414
  463MOL0     C61045   6.978   7.629   0.129 -0.3467  0.4161  0.3373
  463MOL0     C61046   6.975   7.609  -0.028 -0.0480 -0.0869 -0.4035
  463MOL0     C61047   6.837   7.589  -0.077  0.9736 -0.1128  0.2532
  463MOL0     C61048   6.717   7.579  -0.105  0.8753  0.8866  0.7101
  463MOL0     C61049   6.839   7.578   0.542  0.8202  0.7674  0.2555
  463MOL0     C61050   6.711   7.620   0.594 -0.1857  0.6905 -0.4837
  463MOL0     H61051   6.386   8.145   0.556 -1.7188  2.3000 -0.3639
  463MOL0     H61052   6.203   8.243   0.633 -0.1173  0.6144 -0.4227
  463MOL0     H61053   5.932   8.270   0.663  0.4927  3.2068  1.7106
  463MOL0     H61054   6.011   8.243   0.819  0.7697  0.3726 -1.3242
  463MOL0     H61055   5.751   8.298   0.838 -0.5270  0.4814  0.1652
  463MOL0     H61056   5.825   8.151   0.921  2.4614 -2.2771 -1.6128
  463MOL0     H61057   5.742   8.014   0.723  1.3911  1.1947  0.0942
  463MOL0     H61058   5.698   8.167   0.642 -0.2818 -1.1538 -0.1998
  463MOL0     H61059   5.564   8.028   0.877  2.3375 -3.5981 -2.9883
  463MOL0     H61060   5.546   8.200   0.845  3.3176 -0.8431  1.2029
  463MOL0     H61061   5.431   8.142   0.634  0.4203 -0.2590  0.7831
  463MOL0     H61062   5.355   8.050   0.763 -0.5310 -2.3132 -0.2321
  463MOL0     H61063   5.558   7.869   0.709  0.1343 -2.9520 -2.9566
  463MOL0     H61064   5.552   7.964   0.565 -1.3044  3.0986  0.6104
  463MOL0     H61065   5.321   7.789   0.691  1.0485  0.1764  0.8345
  463MOL0     H61066   5.291   7.911   0.574  0.6321 -0.5038 -2.1783
  463MOL0     H61067   5.454   7.645   0.545  2.2840 -1.9422 -4.0068
  463MOL0     H61068   5.467   7.771   0.425  0.1751 -1.9638 -0.4956
  463MOL0     H61069   5.266   7.767   0.233  0.0943 -1.7784 -1.9664
  463MOL0     H61070   5.005   7.680   0.134  2.4202  0.5822 -2.2582
  463MOL0     H61071   4.967   7.522   0.199 -0.3526  1.3195  1.0722
  463MOL0     H61072   5.199   7.446   0.106  0.0759 -1.3388 -3.3795
  463MOL0     H61073   5.183   7.606   0.016  0.3213  0.9412  2.0320
  463MOL0     H61074   4.955   7.508  -0.031  0.0843  1.3174  1.2557
  463MOL0     H61075   5.104   7.485  -0.129 -3.4700 -3.7696 -3.2644
  463MOL0     H61076   4.981   7.305   0.077  1.0462  2.1087  0.8868
  463MOL0     H61077   5.140   7.280  -0.008  1.5563  1.4263 -1.0156
  463MOL0     H61078   4.918   7.421  -0.333  0.3476 -0.5577 -0.1742
  463MOL0     H61079   4.711   7.451  -0.435  1.3675 -1.4282 -1.4199
  463MOL0     H61080   4.231   7.372  -0.119 -0.5130  0.2635  0.3911
  463MOL0     H61081   3.999   7.430  -0.130 -1.5642  0.3561 -1.2357
  463MOL0     H61082   3.769   7.457  -0.505 -0.9732 -0.0025  1.0175
  463MOL0     H61083   3.843   7.574  -0.405 -2.3097  2.0232 -3.9977
  463MOL0     H61084   3.649   7.551  -0.241 -2.9391 -1.7360  0.7874
  463MOL0     H61085   3.570   7.441  -0.340  1.7454 -0.6852 -1.3041
  463MOL0     H61086   3.570   7.588  -0.532  1.8485  0.8611 -0.3828
  463MOL0     H61087   3.662   7.707  -0.441  0.8605 -0.4110  2.4717
  463MOL0     H61088   3.398   7.563  -0.348 -0.9531  1.2630  1.0676
  463MOL0     H61089   3.456   7.700  -0.264  1.1566 -0.9881  0.4287
  463MOL0     H61090   3.377   7.845  -0.421 -0.5993  0.2741  0.8837
  463MOL0     H61091   3.246   7.734  -0.413 -0.0057  1.6981 -0.5000
  463MOL0     H61092   3.442   7.737  -0.641  1.7549  2.5447  3.7860
  463MOL0     H61093   3.275   7.803  -0.639  1.9370  0.4349 -0.8117
  463MOL0     H61094   3.369   7.502  -0.612  1.3355 -0.1889 -0.8557
  463MOL0     H61095   3.199   7.557  -0.593 -0.0077 -2.4294 -2.4641
  463MOL0     H61096   3.200   7.629  -0.825  1.8673  1.4551 -0.6955
  463MOL0     H61097   3.247   7.464  -0.813  1.8375 -0.4747  0.4098
  463MOL0     H61098   3.973   7.261  -0.535  2.4763  1.1970 -1.9126
  463MOL0     H61099   4.231   7.237  -0.526  0.9574 -2.8568  1.8930
  463MOL0     H61100   4.543   7.194  -0.119 -1.9305 -1.3838 -4.8094
  463MOL0     H61101   4.744   7.153  -0.041  2.1085  0.4304  0.4435
  463MOL0     H61102   6.034   7.824   0.677  0.6803 -1.4296  2.1808
  463MOL0     H61103   6.247   7.746   0.621  1.3738 -0.0351 -2.1434
  463MOL0     H61104   6.685   7.905   0.409  1.8252 -1.1897 -2.6020
  463MOL0     H61105   6.913   7.846   0.339 -1.3997  1.4104  0.0539
  463MOL0     H61106   7.222   7.646   0.381 -1.7187  2.2363  2.2470
  463MOL0     H61107   7.110   7.775   0.358  0.3995  1.6610 -1.4038
  463MOL0     H61108   7.171   7.733   0.143  0.7848  0.0231 -0.9480
  463MOL0     H61109   7.173   7.550   0.169 -0.0045  0.1761 -1.1528
  463MOL0     H61110   6.925   7.721   0.159 -1.1941  0.9314 -2.4172
  463MOL0     H61111   6.938   7.537   0.172 -0.7539 -1.9524 -4.4695
  463MOL0     H61112   7.013   7.703  -0.069 -1.7955  2.1366  2.6531
  463MOL0     H61113   7.036   7.526  -0.066 -1.6301 -2.9793  2.8378
  463MOL0     H61114   6.618   7.561  -0.140  0.8111  0.1126  1.2671
  463MOL0     H61115   6.867   7.475   0.562 -0.7190 -0.4118 -2.9111
  463MOL0     H61116   6.683   7.558   0.678 -0.5552  1.3108 -0.1459
  464MOL0     O61117   2.795   2.457   7.590  0.8053  0.3579 -0.2719
  464MOL0     C61118   2.858   2.558   7.547 -0.4201  0.7743  0.2340
  464MOL0     O61119   2.807   2.653   7.469  0.0108 -0.9649 -0.3114
  464MOL0     C61120   2.685   2.658   7.417 -0.2972 -0.8857  0.0422
  464MOL0     C61121   2.670   2.730   7.307  0.6806 -0.5657  0.0985
  464MOL0     C61122   2.547   2.757   7.242 -0.0069  1.2838 -0.5468
  464MOL0     C61123   2.432   2.699   7.288 -0.4848  0.5735  0.8643
  464MOL0     O61124   2.313   2.717   7.227 -0.8016  0.0144  0.2045
  464MOL0     C61125   2.198   2.748   7.309 -0.5767 -0.0633 -0.2428
  464MOL0     C61126   2.085   2.651   7.262  0.4829 -0.0507 -0.3163
  464MOL0     C61127   1.963   2.645   7.351  0.2148  0.0120  0.1281
  464MOL0     C61128   1.889   2.778   7.374 -0.3573 -0.1475  0.8656
  464MOL0     C61129   1.751   2.747   7.430 -0.1137 -0.7352 -0.0290
  464MOL0     C61130   1.635   2.697   7.337 -0.6912 -0.3057  0.3407
  464MOL0     C61131   1.499   2.709   7.395  0.0628 -0.9546  0.3164
  464MOL0     C61132   1.475   2.616   7.509 -0.5041  0.5116  0.0713
  464MOL0     N61133   1.342   2.606   7.560 -0.6416  0.0671  0.9810
  464MOL0     C61134   1.276   2.485   7.598 -0.6644 -0.0283 -0.0052
  464MOL0     C61135   1.149   2.517   7.634 -0.4306 -0.3262  0.6296
  464MOL0     C61136   1.036   2.430   7.674 -0.6075  0.9265 -0.7707
  464MOL0     C61137   1.006   2.426   7.824  1.0329  0.0063 -0.1499
  464MOL0     C61138   0.940   2.564   7.865  0.0454 -0.3327 -0.5053
  464MOL0     C61139   0.915   2.571   8.013 -0.1778  0.6342 -0.5170
  464MOL0     O61140   0.822   2.476   8.072 -0.2234  0.7532  0.4285
  464MOL0     C61141   0.684   2.482   8.060 -1.1265  0.9032 -0.3553
  464MOL0     C61142   0.610   2.371   8.099  0.1865 -0.3984  0.5039
  464MOL0     C61143   0.468   2.379   8.090 -0.0420 -0.0628 -0.4811
  464MOL0     C61144   0.403   2.489   8.041 -1.0126 -0.4894 -1.3691
  464MOL0     C61145   0.259   2.487   8.017 -0.0116  0.0354 -0.3706
  464MOL0     O61146   0.209   2.604   7.963 -0.2874  0.1598  0.0938
  464MOL0     C61147   0.074   2.612   7.950 -0.5503  0.5052  0.8185
  464MOL0     C61148  -0.013   2.648   8.057  0.0926 -0.2862  0.2254
  464MOL0     C61149  -0.145   2.671   8.028 -0.0030 -0.4528 -0.0884
  464MOL0     C61150  -0.196   2.657   7.901  0.4729  0.6218 -0.0284
  464MOL0     O61151  -0.332   2.672   7.873  0.0951 -0.1406 -0.6453
  464MOL0     C61152  -0.399   2.775   7.931 -0.0003  0.2446 -0.0370
  464MOL0     C61153  -0.549   2.766   7.879 -0.0516  0.3814 -0.6261
  464MOL0     C61154  -0.669   2.847   7.944  0.7491  0.0695 -0.3679
  464MOL0     C61155  -0.803   2.827   7.861 -0.0856  0.8337 -0.0996
  464MOL0     C61156  -0.913   2.923   7.899 -0.8188 -0.6976  0.2793
  464MOL0     C61157  -1.042   2.863   7.962 -0.3551  0.1912  0.1827
  464MOL0     C61158  -1.113   2.763   7.863  0.9310  0.0269 -0.1777
  464MOL0     C61159  -1.168   2.840   7.737  0.4136  0.0677 -0.5865
  464MOL0    Cl61160  -1.037   2.843   7.621  0.2651 -0.5823  0.0251
  464MOL0     C61161  -0.113   2.604   7.808 -0.3858  0.4423  0.0908
  464MOL0     C61162   0.018   2.599   7.820 -0.2116  0.1038  0.0399
  464MOL0     O61163   0.185   2.392   8.061 -0.9505  0.1900  0.1358
  464MOL0     C61164   0.476   2.602   8.002  0.7186  0.0961 -0.8391
  464MOL0     C61165   0.615   2.594   8.011  0.5062 -0.2473 -0.1149
  464MOL0     N61166   1.141   2.651   7.618  0.4667 -0.3522 -0.5352
  464MOL0     N61167   1.248   2.701   7.568 -0.0411 -0.7722  0.7058
  464MOL0     C61168   2.447   2.614   7.397 -0.0160 -0.0642  0.6042
  464MOL0     C61169   2.568   2.597   7.463 -0.5261 -0.1073  0.2655
  464MOL0     C61170   2.995   2.556   7.583 -0.2063 -0.5236 -0.1461
  464MOL0     C61171   3.049   2.469   7.674 -0.4086 -0.8694  0.2725
  464MOL0     C61172   3.188   2.486   7.701 -0.5141  0.9776 -0.1530
  464MOL0     C61173   3.271   2.584   7.643  0.2311  0.6017  0.0118
  464MOL0     O61174   3.408   2.594   7.690  0.2848  0.7193 -0.1536
  464MOL0     C61175   3.500   2.679   7.615 -0.0844  0.4954  0.6456
  464MOL0     C61176   3.489   2.822   7.664  0.8581 -0.8182 -0.1714
  464MOL0     C61177   3.527   2.836   7.817  0.1900 -0.9524  0.4510
  464MOL0     C61178   3.479   2.966   7.893  0.4373 -0.2008  0.0198
  464MOL0     C61179   3.533   2.958   8.031  0.0477 -0.1777  0.6666
  464MOL0     C61180   3.589   2.948   8.129 -0.6278  0.6753 -0.3142
  464MOL0     C61181   3.216   2.661   7.544  1.7526 -0.4589 -0.4004
  464MOL0     C61182   3.079   2.646   7.513 -0.9442 -0.5196 -0.2937
  464MOL0     H61183   2.749   2.800   7.279 -0.1665  1.3128  2.1051
  464MOL0     H61184   2.550   2.825   7.158  1.1683  1.1340 -0.6387
  464MOL0     H61185   2.170   2.850   7.283 -0.4411 -0.4072 -1.8497
  464MOL0     H61186   2.221   2.751   7.416 -0.8591  2.1615 -0.2084
  464MOL0     H61187   2.109   2.545   7.255 -3.8293 -1.5285  3.0724
  464MOL0     H61188   2.051   2.678   7.161  1.7504 -0.1074 -0.7788
  464MOL0     H61189   2.007   2.605   7.443  1.9706 -3.3050 -1.9507
  464MOL0     H61190   1.898   2.571   7.305  0.2136  0.3308 -0.3911
  464MOL0     H61191   1.955   2.845   7.431 -0.5952  2.0132 -1.2390
  464MOL0     H61192   1.877   2.836   7.282 -0.2754 -0.1484  0.8538
  464MOL0     H61193   1.709   2.840   7.468 -0.1009 -0.3972 -0.8344
  464MOL0     H61194   1.764   2.673   7.510 -0.4649 -0.5887  0.1646
  464MOL0     H61195   1.654   2.594   7.305 -3.4424 -0.5168 -0.8693
  464MOL0     H61196   1.646   2.760   7.248  4.3598 -0.5792  0.4975
  464MOL0     H61197   1.467   2.810   7.421  0.1737 -0.3174 -1.8134
  464MOL0     H61198   1.434   2.682   7.311 -3.3991  0.1756  2.4177
  464MOL0     H61199   1.545   2.646   7.588 -0.1751 -4.0449  1.7913
  464MOL0     H61200   1.500   2.512   7.485 -1.3963  0.0353  1.1587
  464MOL0     H61201   1.320   2.387   7.606 -0.4622  0.0144 -0.5328
  464MOL0     H61202   1.056   2.327   7.642 -0.3434  0.7863 -0.1692
  464MOL0     H61203   0.947   2.459   7.617 -1.4244  0.6572  0.3389
  464MOL0     H61204   1.100   2.405   7.876  0.4135  0.1237  1.0688
  464MOL0     H61205   0.932   2.347   7.834  2.5292 -1.5579 -0.9353
  464MOL0     H61206   1.003   2.646   7.832 -2.1699  1.2899 -0.9518
  464MOL0     H61207   0.853   2.585   7.802  1.0044 -0.9457 -2.0916
  464MOL0     H61208   0.876   2.671   8.034 -0.2234  0.8174 -1.4400
  464MOL0     H61209   1.007   2.554   8.069 -1.5700 -1.4673  1.3441
  464MOL0     H61210   0.657   2.280   8.133  0.2130  0.2776  2.3872
  464MOL0     H61211   0.414   2.289   8.119  0.7531 -0.1913  0.6390
  464MOL0     H61212   0.019   2.664   8.160 -2.1459  1.3925  0.7265
  464MOL0     H61213  -0.203   2.699   8.116  1.4237  1.9972  0.1697
  464MOL0     H61214  -0.363   2.877   7.915 -0.2443  0.2824 -0.3586
  464MOL0     H61215  -0.398   2.753   8.038  2.1727  1.5830  0.2741
  464MOL0     H61216  -0.578   2.661   7.868 -1.4950  0.5894  0.7472
  464MOL0     H61217  -0.526   2.804   7.780  2.1763  1.8314  0.3727
  464MOL0     H61218  -0.657   2.954   7.923 -0.8140  0.0140 -1.7356
  464MOL0     H61219  -0.685   2.818   8.048 -3.3171 -1.4968 -1.2478
  464MOL0     H61220  -0.793   2.840   7.753 -1.4578  1.7749 -0.1508
  464MOL0     H61221  -0.840   2.729   7.891  0.6523  1.1991  2.2575
  464MOL0     H61222  -0.939   2.987   7.815  0.7120 -2.3226 -1.5257
  464MOL0     H61223  -0.878   2.994   7.974 -0.3969 -0.2930 -0.2978
  464MOL0     H61224  -1.120   2.937   7.985 -1.5341 -1.0786  0.3527
  464MOL0     H61225  -1.006   2.811   8.051  1.7603 -1.4032 -1.5066
  464MOL0     H61226  -1.054   2.675   7.835 -0.4746 -0.6374 -1.1660
  464MOL0     H61227  -1.197   2.722   7.920  0.7287  1.2795  0.4411
  464MOL0     H61228  -1.211   2.934   7.772  0.7187 -0.2267  0.6235
  464MOL0     H61229  -1.247   2.771   7.705  0.9680 -1.6227  1.5052
  464MOL0     H61230  -0.159   2.564   7.719 -1.1194  0.7616  0.3145
  464MOL0     H61231   0.080   2.569   7.735  0.0057 -1.5168  0.7303
  464MOL0     H61232   0.438   2.694   7.961  1.3175 -0.1142 -1.9200
  464MOL0     H61233   0.670   2.677   7.968  1.4783 -0.9601 -0.2684
  464MOL0     H61234   2.373   2.551   7.446  0.5239 -1.4654 -0.3533
  464MOL0     H61235   2.569   2.541   7.556 -1.3626  0.9227  0.9118
  464MOL0     H61236   2.988   2.408   7.740  1.2870 -1.6440  1.1966
  464MOL0     H61237   3.213   2.424   7.786 -2.1804 -0.8792 -0.9302
  464MOL0     H61238   3.472   2.677   7.509 -3.2248  0.6942  1.3757
  464MOL0     H61239   3.602   2.641   7.628 -0.2609 -1.3782 -2.4911
  464MOL0     H61240   3.553   2.885   7.601 -0.8696  2.0917  0.8415
  464MOL0     H61241   3.387   2.857   7.649  0.4705 -2.8514 -3.1071
  464MOL0     H61242   3.634   2.820   7.835  0.0023  0.5791  3.5603
  464MOL0     H61243   3.464   2.755   7.857  0.3950 -0.2974  2.1902
  464MOL0     H61244   3.521   3.058   7.853  0.5637  0.9269  2.5564
  464MOL0     H61245   3.370   2.978   7.897  0.6822  2.8553 -0.5236
  464MOL0     H61246   3.645   2.929   8.219 -2.9331  1.0712  1.3175
  464MOL0     H61247   3.262   2.743   7.490 -0.5236 -0.6499 -2.8417
  464MOL0     H61248   3.046   2.728   7.450 -1.5202 -0.2351  0.3629
  465MOL0     O61249   3.173   1.930   7.891  0.8427 -0.2635 -0.4156
  465MOL0     C61250   3.102   1.871   7.806 -0.2100  0.6040 -0.8630
  465MOL0     O61251   3.143   1.752   7.744  0.3277 -0.4825  0.7735
  465MOL0     C61252   3.237   1.678   7.815 -0.5126 -0.2156  0.5707
  465MOL0     C61253   3.194   1.559   7.865 -0.1106  0.3131  0.7258
  465MOL0     C61254   3.281   1.477   7.916 -0.9826  0.8391  0.1942
  465MOL0     C61255   3.403   1.515   7.948 -0.2209  0.0427 -0.9880
  465MOL0     O61256   3.472   1.422   8.025  0.2187 -0.4289 -0.2300
  465MOL0     C61257   3.612   1.411   7.988 -0.0146 -0.2414  0.2309
  465MOL0     C61258   3.698   1.294   8.041  0.0044 -0.8926  0.2102
  465MOL0     C61259   3.852   1.311   8.033  0.1423 -0.2507  0.5519
  465MOL0     C61260   3.906   1.261   7.898 -0.1717  0.6608 -0.0927
  465MOL0     C61261   4.063   1.266   7.910  0.9812  0.5456 -0.7558
  465MOL0     C61262   4.138   1.220   7.788 -0.3995 -0.7000  0.0475
  465MOL0     C61263   4.290   1.212   7.828 -1.0344  0.3723  0.5413
  465MOL0     C61264   4.383   1.232   7.702  0.2509  0.9150  1.4932
  465MOL0     N61265   4.523   1.201   7.738  0.6064 -0.1107 -0.4479
  465MOL0     C61266   4.626   1.295   7.750  0.1693 -0.0707 -0.0886
  465MOL0     C61267   4.737   1.213   7.748  0.3471 -0.0221 -0.5104
  465MOL0     C61268   4.879   1.254   7.769  0.0196 -0.3570  0.3412
  465MOL0     C61269   4.933   1.347   7.656  0.4756 -0.6982 -1.1803
  465MOL0     C61270   4.943   1.275   7.517 -0.4116 -0.1981  0.8336
  465MOL0     C61271   4.817   1.267   7.435  1.0237 -0.2099  0.9873
  465MOL0     O61272   4.735   1.386   7.440 -0.0382 -0.0681 -0.1024
  465MOL0     C61273   4.607   1.360   7.420  0.4400  0.1066 -0.2480
  465MOL0     C61274   4.526   1.469   7.442 -0.2959 -0.0931 -0.0494
  465MOL0     C61275   4.389   1.456   7.437 -0.0247 -0.6260 -0.3460
  465MOL0     C61276   4.325   1.341   7.392  0.3552  0.5559  0.5586
  465MOL0     C61277   4.174   1.333   7.396 -0.2045  0.1078 -0.6579
  465MOL0     O61278   4.103   1.429   7.463 -1.0686  0.3791  0.2838
  465MOL0     C61279   3.968   1.400   7.453 -0.1308  0.2865  0.0153
  465MOL0     C61280   3.897   1.400   7.568  0.7314 -0.0122  0.3183
  465MOL0     C61281   3.758   1.391   7.574  0.4282  0.5195  0.2427
  465MOL0     C61282   3.683   1.371   7.459 -0.4630 -0.2160  0.0929
  465MOL0     O61283   3.546   1.375   7.462  0.1562  0.5453 -0.9885
  465MOL0     C61284   3.485   1.440   7.575  0.6284 -0.5774  0.8120
  465MOL0     C61285   3.333   1.465   7.530  0.6321  0.6494  0.8529
  465MOL0     C61286   3.311   1.574   7.423 -1.2261  0.7875  0.1506
  465MOL0     C61287   3.159   1.579   7.395  0.5961 -0.4719 -0.4298
  465MOL0     C61288   3.096   1.461   7.313  0.6080  0.3832  0.0771
  465MOL0     C61289   2.946   1.492   7.263 -0.4103 -0.1841  0.6036
  465MOL0     C61290   2.852   1.542   7.379 -0.1314 -0.6245 -0.4386
  465MOL0     C61291   2.711   1.536   7.337  0.4779  0.6451  0.5387
  465MOL0    Cl61292   2.651   1.690   7.252 -0.5645 -0.0274 -0.2815
  465MOL0     C61293   3.751   1.359   7.342  0.3166 -0.5507 -0.7361
  465MOL0     C61294   3.889   1.392   7.333 -0.6089 -0.5279  0.4828
  465MOL0     O61295   4.127   1.244   7.333 -0.6495  0.3545 -0.0713
  465MOL0     C61296   4.404   1.235   7.345  0.7336 -0.1048  0.4952
  465MOL0     C61297   4.540   1.241   7.371 -0.3053 -0.1626  0.7089
  465MOL0     N61298   4.695   1.078   7.749 -0.1793  0.0518 -0.2113
  465MOL0     N61299   4.568   1.077   7.735 -0.0113  0.0321  0.4702
  465MOL0     C61300   3.452   1.639   7.909 -0.3851  0.1849  0.3102
  465MOL0     C61301   3.369   1.713   7.824 -0.4674 -0.3685  0.6933
  465MOL0     C61302   2.970   1.919   7.765 -0.8250 -0.2074 -0.4044
  465MOL0     C61303   2.944   2.056   7.739 -0.7949 -0.3336  0.7409
  465MOL0     C61304   2.827   2.093   7.656 -0.5729 -0.5935  0.2347
  465MOL0     C61305   2.729   1.993   7.636 -0.2479  0.2455 -0.3322
  465MOL0     O61306   2.607   2.023   7.583 -0.0807  0.3539  0.2316
  465MOL0     C61307   2.608   2.048   7.444  0.1709  0.2957  0.3804
  465MOL0     C61308   2.474   2.043   7.379  0.2224  0.2751  0.3225
  465MOL0     C61309   2.359   2.139   7.434 -0.0065  0.0823 -0.4760
  465MOL0     C61310   2.219   2.111   7.385  0.9129 -0.1084 -0.1526
  465MOL0     C61311   2.144   2.236   7.414 -1.1630  1.1606  0.0635
  465MOL0     C61312   2.080   2.330   7.443 -0.8122  0.3429  0.0264
  465MOL0     C61313   2.748   1.863   7.674 -0.1602  1.0415 -0.2545
  465MOL0     C61314   2.877   1.821   7.722  0.2137  0.8198 -0.6305
  465MOL0     H61315   3.090   1.535   7.842 -0.2942  1.9274 -0.3667
  465MOL0     H61316   3.256   1.375   7.942 -0.7500  0.4377 -1.1205
  465MOL0     H61317   3.661   1.506   8.007 -1.2534  0.5603 -0.4369
  465MOL0     H61318   3.626   1.414   7.879  1.5841  0.3550  0.4303
  465MOL0     H61319   3.668   1.199   7.996 -2.6481 -1.5671  3.0578
  465MOL0     H61320   3.683   1.280   8.148  2.2281 -1.9923  0.4269
  465MOL0     H61321   3.911   1.267   8.114 -1.1403 -1.4659  0.8613
  465MOL0     H61322   3.872   1.417   8.050 -1.4354  0.1360  0.1226
  465MOL0     H61323   3.869   1.160   7.877 -2.8872  1.5785 -0.0147
  465MOL0     H61324   3.871   1.331   7.822  0.7625  2.2206  0.8663
  465MOL0     H61325   4.096   1.203   7.993  1.0354  0.1412 -1.0798
  465MOL0     H61326   4.091   1.370   7.925  2.0742  0.2880 -0.9374
  465MOL0     H61327   4.126   1.288   7.702 -2.4766 -0.0828  0.7739
  465MOL0     H61328   4.097   1.121   7.766 -0.3085 -1.2544  2.2032
  465MOL0     H61329   4.323   1.294   7.893  1.8943 -0.6574  0.4896
  465MOL0     H61330   4.324   1.118   7.873  0.0098  1.2078  1.5793
  465MOL0     H61331   4.376   1.333   7.660 -1.9380 -0.1999 -1.1694
  465MOL0     H61332   4.354   1.157   7.626  0.5771  0.1893  2.0725
  465MOL0     H61333   4.616   1.403   7.752  1.0018  0.0186 -0.6123
  465MOL0     H61334   4.947   1.170   7.786 -0.5980 -0.5112  2.3931
  465MOL0     H61335   4.874   1.315   7.860 -1.4785 -0.3796  0.3005
  465MOL0     H61336   5.033   1.375   7.691  0.1798 -2.2945  1.2045
  465MOL0     H61337   4.868   1.435   7.653 -0.4553 -1.1742  1.8879
  465MOL0     H61338   5.019   1.324   7.456 -0.5741  1.8055  2.1321
  465MOL0     H61339   4.990   1.181   7.546  0.0566  0.0283  0.8185
  465MOL0     H61340   4.773   1.172   7.469  0.6516 -0.1315  0.7391
  465MOL0     H61341   4.825   1.251   7.327  2.0852  3.6490  0.3732
  465MOL0     H61342   4.556   1.565   7.483 -1.6311  0.0555  0.6467
  465MOL0     H61343   4.325   1.541   7.458  1.8381  0.8264 -0.3175
  465MOL0     H61344   3.956   1.411   7.658  0.0854  0.2162  0.7150
  465MOL0     H61345   3.715   1.388   7.673 -2.1530 -1.1319 -0.8468
  465MOL0     H61346   3.530   1.532   7.611 -1.5926 -0.3164  3.1923
  465MOL0     H61347   3.490   1.364   7.654  3.3083 -1.6957 -0.2842
  465MOL0     H61348   3.271   1.483   7.618 -0.1918 -1.3498  0.7460
  465MOL0     H61349   3.283   1.375   7.492 -0.5149  2.7020 -3.0380
  465MOL0     H61350   3.373   1.547   7.337 -1.0160 -0.2028  0.6024
  465MOL0     H61351   3.353   1.667   7.463 -0.2382 -0.3120  1.7317
  465MOL0     H61352   3.106   1.583   7.490 -1.8368 -0.9889 -1.6701
  465MOL0     H61353   3.129   1.672   7.345 -4.9769 -0.9231  1.3745
  465MOL0     H61354   3.091   1.374   7.380 -0.5999 -1.9457 -2.8026
  465MOL0     H61355   3.165   1.435   7.232 -1.3740  1.5244 -2.0942
  465MOL0     H61356   2.917   1.402   7.209  3.2249 -0.5552 -1.0497
  465MOL0     H61357   2.949   1.578   7.195  0.4458 -0.3682  0.3981
  465MOL0     H61358   2.870   1.493   7.475 -3.1036  1.2060  1.2047
  465MOL0     H61359   2.874   1.646   7.407 -0.8392 -0.1099 -1.6945
  465MOL0     H61360   2.648   1.504   7.420  2.0360  0.9502  1.8752
  465MOL0     H61361   2.709   1.458   7.260  3.6854  1.2510 -0.3139
  465MOL0     H61362   3.694   1.340   7.252 -1.2001 -1.0735  0.2928
  465MOL0     H61363   3.946   1.392   7.240  1.4119  0.8954  1.6424
  465MOL0     H61364   4.353   1.152   7.297 -0.3361 -0.4659  2.1547
  465MOL0     H61365   4.592   1.149   7.349 -1.8228 -0.8989  0.0504
  465MOL0     H61366   3.547   1.682   7.936  0.1168  0.2589 -1.4296
  465MOL0     H61367   3.384   1.814   7.787 -0.9602 -0.0454  1.3481
  465MOL0     H61368   3.028   2.124   7.753 -1.4012  0.4716  0.5866
  465MOL0     H61369   2.806   2.190   7.613 -3.5957 -2.3634 -2.7700
  465MOL0     H61370   2.672   1.969   7.402  0.5214  0.3651  0.7721
  465MOL0     H61371   2.652   2.141   7.406  2.2566 -0.7799 -0.0338
  465MOL0     H61372   2.494   2.075   7.276 -0.0936  0.1745  0.2300
  465MOL0     H61373   2.433   1.942   7.377 -0.3828  0.5139  0.4030
  465MOL0     H61374   2.389   2.235   7.392  0.2625 -0.4097 -1.4413
  465MOL0     H61375   2.366   2.117   7.541  4.3206  0.0784 -0.5774
  465MOL0     H61376   2.214   2.089   7.277 -0.5843  0.9070 -0.3116
  465MOL0     H61377   2.181   2.021   7.435 -0.0131 -1.0890 -2.4426
  465MOL0     H61378   2.021   2.403   7.493 -1.5386 -0.6880  0.7147
  465MOL0     H61379   2.669   1.790   7.661  0.2035  0.6327 -0.2018
  465MOL0     H61380   2.891   1.716   7.748  1.9265  0.9606 -0.8136
  466MOL0     O61381   8.987   8.155   6.412  0.1059 -0.4178 -0.1524
  466MOL0     C61382   8.978   8.175   6.532  0.1933  0.7333 -0.3529
  466MOL0     O61383   8.868   8.134   6.609 -0.7803  0.2074 -0.3216
  466MOL0     C61384   8.752   8.108   6.545 -0.0198 -0.2812 -0.7331
  466MOL0     C61385   8.691   8.204   6.470  0.2754 -0.2740 -0.3761
  466MOL0     C61386   8.576   8.167   6.396  1.0293  0.2195  1.6424
  466MOL0     C61387   8.518   8.040   6.414 -0.0085  0.4309  0.1836
  466MOL0     O61388   8.401   8.007   6.357 -0.4264  0.0856  0.1323
  466MOL0     C61389   8.334   8.109   6.273  0.6157  0.6447 -0.1886
  466MOL0     C61390   8.245   8.046   6.165 -0.6155  0.4259 -0.6440
  466MOL0     C61391   8.129   7.965   6.221 -0.1335  0.2806  0.1086
  466MOL0     C61392   8.025   7.901   6.133  0.7136 -0.1056  0.0141
  466MOL0     C61393   7.979   7.999   6.023  0.6391 -1.2886  0.4949
  466MOL0     C61394   7.887   8.115   6.078 -0.4280  0.2275  0.4940
  466MOL0     C61395   7.744   8.126   6.016 -0.3592  0.0351 -0.4739
  466MOL0     C61396   7.698   8.277   6.032 -0.9408 -0.2370 -0.2512
  466MOL0     N61397   7.556   8.289   6.051 -0.0156 -0.5780 -0.6143
  466MOL0     C61398   7.464   8.268   5.955  0.4396 -0.3564  0.2316
  466MOL0     C61399   7.348   8.249   6.021 -0.8558 -0.6722 -0.4546
  466MOL0     C61400   7.221   8.249   5.951  0.4186  0.2611  0.3832
  466MOL0     C61401   7.106   8.302   6.035  0.3476 -0.2805  0.0208
  466MOL0     C61402   6.985   8.349   5.955  0.6262 -0.0995 -0.4697
  466MOL0     C61403   6.883   8.242   5.939  0.0451 -0.2355 -0.3550
  466MOL0     O61404   6.804   8.264   5.826  0.0605  0.9791  0.7051
  466MOL0     C61405   6.664   8.285   5.842 -0.8873  0.1243 -0.2922
  466MOL0     C61406   6.571   8.215   5.771  1.4573  0.5264 -0.0276
  466MOL0     C61407   6.441   8.266   5.781  0.1142 -0.6048  0.6262
  466MOL0     C61408   6.401   8.370   5.864 -0.0874 -0.0911  0.2728
  466MOL0     C61409   6.259   8.414   5.867  0.1135 -0.8772  0.9067
  466MOL0     O61410   6.166   8.334   5.811 -0.5476 -0.3713  0.4248
  466MOL0     C61411   6.037   8.353   5.833  0.2214  0.1006 -0.3337
  466MOL0     C61412   5.978   8.341   5.963  0.4573 -0.1297  0.6809
  466MOL0     C61413   5.847   8.375   5.989  1.3465 -0.2871  0.1333
  466MOL0     C61414   5.755   8.406   5.893  0.9559  1.0235  0.6737
  466MOL0     O61415   5.616   8.423   5.922 -0.5077  0.0173 -0.2319
  466MOL0     C61416   5.562   8.549   5.883  0.3202  0.2651  0.2962
  466MOL0     C61417   5.458   8.616   5.977  0.5738 -0.0646 -1.2609
  466MOL0     C61418   5.335   8.527   6.029  0.1782 -0.0798 -0.0962
  466MOL0     C61419   5.229   8.506   5.930 -0.4214  0.1136  0.5488
  466MOL0     C61420   5.117   8.405   5.982 -1.2980 -0.5079 -0.6535
  466MOL0     C61421   5.020   8.481   6.074  0.0797 -1.0201 -0.0888
  466MOL0     C61422   4.923   8.376   6.128 -0.0641 -0.6078 -0.7809
  466MOL0     C61423   4.796   8.444   6.206 -1.2038  0.2130  0.1635
  466MOL0    Cl61424   4.681   8.511   6.092 -0.3626  0.4037  0.3807
  466MOL0     C61425   5.802   8.394   5.763  0.4973 -0.3209 -0.5184
  466MOL0     C61426   5.940   8.382   5.736 -0.0444 -0.0706  0.0774
  466MOL0     O61427   6.230   8.516   5.926 -0.3525  0.2518 -0.1572
  466MOL0     C61428   6.498   8.427   5.944  0.2710 -0.0966 -0.4981
  466MOL0     C61429   6.628   8.393   5.926 -0.2669 -0.8114  0.0645
  466MOL0     N61430   7.376   8.256   6.156 -0.3074 -0.5012  0.7272
  466MOL0     N61431   7.500   8.272   6.180  0.1417  0.2438 -0.5068
  466MOL0     C61432   8.577   7.945   6.495 -0.4260 -0.4795 -1.0265
  466MOL0     C61433   8.701   7.984   6.568  0.3902  0.8998 -0.2372
  466MOL0     C61434   9.097   8.225   6.599 -0.8044 -0.4458 -0.1938
  466MOL0     C61435   9.222   8.232   6.526  0.0873 -0.5156 -0.2001
  466MOL0     C61436   9.344   8.261   6.591 -0.0245 -0.7866  0.3377
  466MOL0     C61437   9.354   8.281   6.725  0.7321 -0.3702  0.3874
  466MOL0     O61438   9.473   8.299   6.785 -0.5661 -0.2845  0.4541
  466MOL0     C61439   9.500   8.263   6.923 -0.1887  0.5439 -0.9479
  466MOL0     C61440   9.641   8.269   6.945  0.1404  0.0072 -0.0573
  466MOL0     C61441   9.671   8.301   7.088 -0.4793  0.5189 -0.4370
  466MOL0     C61442   9.703   8.195   7.188  0.2175 -0.5374  0.7586
  466MOL0     C61443   9.593   8.106   7.217  1.8942  0.1364  0.1399
  466MOL0     C61444   9.487   8.048   7.234  0.0805  0.2259 -0.3426
  466MOL0     C61445   9.234   8.285   6.793  0.2767  0.1577 -0.2171
  466MOL0     C61446   9.106   8.257   6.734  0.3673  0.0847 -0.2640
  466MOL0     H61447   8.735   8.303   6.473 -0.3658  0.0441  3.5108
  466MOL0     H61448   8.542   8.232   6.316  2.6067 -0.0844  0.6858
  466MOL0     H61449   8.402   8.167   6.209  0.7527  2.0232  1.1456
  466MOL0     H61450   8.268   8.183   6.318 -0.7108  0.6028 -1.9437
  466MOL0     H61451   8.302   7.987   6.092  2.0095  1.8124  0.1557
  466MOL0     H61452   8.203   8.128   6.106  2.2722  1.8755 -0.8907
  466MOL0     H61453   8.071   8.027   6.290  1.2503 -0.6350  2.2168
  466MOL0     H61454   8.165   7.874   6.269  1.1530 -0.1721 -1.6070
  466MOL0     H61455   8.077   7.816   6.089  1.0100  1.1524 -2.2074
  466MOL0     H61456   7.934   7.862   6.179  0.7514 -1.1796 -0.7879
  466MOL0     H61457   7.930   7.944   5.942  1.2021 -2.4004  0.8876
  466MOL0     H61458   8.070   8.039   5.978  2.3641 -2.4208  2.7714
  466MOL0     H61459   7.939   8.199   6.031  0.4461  0.7462  2.2826
  466MOL0     H61460   7.893   8.124   6.187  2.4623 -2.9624  0.7750
  466MOL0     H61461   7.737   8.109   5.908  1.9640  0.8012 -0.8114
  466MOL0     H61462   7.681   8.051   6.065  0.9822 -1.9041 -1.5799
  466MOL0     H61463   7.739   8.350   5.961 -0.4571  2.4223  2.5255
  466MOL0     H61464   7.744   8.305   6.127 -0.1028  0.5915 -0.8796
  466MOL0     H61465   7.475   8.254   5.848 -0.3896 -4.1133  0.4928
  466MOL0     H61466   7.195   8.144   5.932 -0.1305  0.2813  0.9855
  466MOL0     H61467   7.233   8.303   5.857 -1.0308  1.2604  0.7404
  466MOL0     H61468   7.147   8.379   6.101  3.1707  0.7596 -2.7190
  466MOL0     H61469   7.079   8.208   6.085  0.8636 -0.2967  0.2717
  466MOL0     H61470   6.951   8.428   6.023  2.2445 -1.6885  2.3705
  466MOL0     H61471   7.022   8.375   5.855  2.0745 -1.9642 -0.4720
  466MOL0     H61472   6.826   8.243   6.032  0.2064 -0.0804 -0.2551
  466MOL0     H61473   6.921   8.139   5.941  0.4305 -0.1154 -1.1086
  466MOL0     H61474   6.588   8.126   5.712 -1.6787  0.3454 -0.7977
  466MOL0     H61475   6.368   8.216   5.719  0.0714 -0.2641  0.3978
  466MOL0     H61476   6.048   8.299   6.034  2.9322  0.8253 -1.0534
  466MOL0     H61477   5.807   8.362   6.089 -1.8389 -1.0279 -1.1180
  466MOL0     H61478   5.507   8.526   5.792 -0.0523  1.1425  0.2909
  466MOL0     H61479   5.635   8.627   5.859  0.3525  0.3538  0.6722
  466MOL0     H61480   5.400   8.689   5.920 -0.1414 -0.0244 -0.5080
  466MOL0     H61481   5.499   8.662   6.067 -0.0524  0.9166 -1.4592
  466MOL0     H61482   5.289   8.583   6.111  0.7517 -1.6044  1.3151
  466MOL0     H61483   5.379   8.436   6.072  0.5076  0.2285  0.2354
  466MOL0     H61484   5.185   8.602   5.902 -0.9651  0.5657  2.7286
  466MOL0     H61485   5.285   8.457   5.850 -0.1594  1.0673  0.1291
  466MOL0     H61486   5.166   8.319   6.029  4.6362  0.0939 -4.6776
  466MOL0     H61487   5.069   8.361   5.894  0.8868 -0.5751 -1.8712
  466MOL0     H61488   4.961   8.557   6.022  1.2855 -0.7878 -1.1628
  466MOL0     H61489   5.059   8.532   6.163 -0.7547 -1.0355  0.2976
  466MOL0     H61490   4.893   8.302   6.053 -0.8496 -2.0956  0.9269
  466MOL0     H61491   4.975   8.316   6.203  0.1790  0.3029 -0.2097
  466MOL0     H61492   4.834   8.514   6.281  0.1620 -1.0078  0.6619
  466MOL0     H61493   4.763   8.356   6.263 -2.1473 -2.1576 -3.6695
  466MOL0     H61494   5.729   8.399   5.683 -0.9731 -0.7937  0.7491
  466MOL0     H61495   5.975   8.354   5.637  2.1685  1.3928  0.3715
  466MOL0     H61496   6.470   8.508   6.010 -1.3481  2.9742 -4.5280
  466MOL0     H61497   6.702   8.449   5.983 -0.2177 -0.9026  0.0899
  466MOL0     H61498   8.538   7.845   6.506 -2.2492  0.1807 -1.1467
  466MOL0     H61499   8.747   7.915   6.638  1.3971  2.2559  0.4661
  466MOL0     H61500   9.215   8.209   6.420  3.7147 -1.2465 -0.3814
  466MOL0     H61501   9.434   8.252   6.531 -1.9191 -0.5168 -2.7895
  466MOL0     H61502   9.470   8.158   6.930 -1.8131  0.9606 -1.3153
  466MOL0     H61503   9.452   8.324   7.000  0.9123  0.6155 -0.3039
  466MOL0     H61504   9.691   8.175   6.918  1.5512 -0.0487  2.4313
  466MOL0     H61505   9.670   8.352   6.880  1.4990  0.3967  1.0040
  466MOL0     H61506   9.589   8.361   7.128 -1.9189 -0.2454 -2.0953
  466MOL0     H61507   9.763   8.360   7.092  1.2630 -2.0070 -0.9749
  466MOL0     H61508   9.791   8.148   7.144  0.3532  0.3395  0.0475
  466MOL0     H61509   9.743   8.239   7.279 -1.3888 -0.3907  1.4261
  466MOL0     H61510   9.386   8.013   7.232 -0.1875  0.9605 -0.1006
  466MOL0     H61511   9.232   8.308   6.899 -1.7350  4.1365 -0.9235
  466MOL0     H61512   9.010   8.254   6.783  0.7742 -0.3222  0.5199
  467MOL0     O61513   8.179   2.934   1.447  0.1374  0.3206  0.4522
  467MOL0     C61514   8.267   2.955   1.361 -0.2478 -0.1567  0.2791
  467MOL0     O61515   8.251   3.005   1.234 -0.2615  1.0436 -0.1448
  467MOL0     C61516   8.125   3.053   1.206  1.4246 -0.0537 -0.3405
  467MOL0     C61517   8.040   3.124   1.292  0.1023  0.1049 -0.7626
  467MOL0     C61518   7.909   3.158   1.257  0.3531 -0.4585  0.4647
  467MOL0     C61519   7.862   3.150   1.123  0.5111 -0.1347 -0.2078
  467MOL0     O61520   7.740   3.211   1.093 -0.1461  0.1292 -0.6673
  467MOL0     C61521   7.681   3.176   0.975  0.5724 -0.2802  0.2136
  467MOL0     C61522   7.534   3.216   0.988  0.2626 -0.6636 -0.1681
  467MOL0     C61523   7.462   3.255   0.862  0.0794 -0.3935  0.0896
  467MOL0     C61524   7.318   3.294   0.897 -0.5000 -0.1344  0.3611
  467MOL0     C61525   7.248   3.334   0.770 -0.5228 -0.2087  0.5324
  467MOL0     C61526   7.104   3.387   0.780 -0.5390 -0.0700  0.4957
  467MOL0     C61527   7.046   3.425   0.642  0.2197 -0.1387  0.3242
  467MOL0     C61528   6.903   3.460   0.643 -1.0005  0.4200  0.2732
  467MOL0     N61529   6.809   3.352   0.697 -0.2987 -0.3846  1.0349
  467MOL0     C61530   6.788   3.236   0.630  0.6010  0.4647  0.1037
  467MOL0     C61531   6.677   3.189   0.691 -0.9886 -0.0691 -0.0759
  467MOL0     C61532   6.612   3.054   0.656  0.3591 -0.0180  0.4685
  467MOL0     C61533   6.478   3.068   0.578 -0.0647 -0.4054  0.7284
  467MOL0     C61534   6.440   2.940   0.508  0.9976 -0.2480  0.7447
  467MOL0     C61535   6.298   2.904   0.509  0.7765 -0.1122 -0.4925
  467MOL0     O61536   6.281   2.795   0.423  0.5707  0.5628  0.1672
  467MOL0     C61537   6.166   2.727   0.398  0.7785  0.7134 -0.0952
  467MOL0     C61538   6.179   2.615   0.323  0.0442  0.4881  0.2582
  467MOL0     C61539   6.061   2.547   0.274 -0.4547  0.3348 -0.2236
  467MOL0     C61540   5.934   2.601   0.303  0.0784 -0.3616  0.6430
  467MOL0     C61541   5.807   2.534   0.257 -0.0396  0.3254  0.3238
  467MOL0     O61542   5.683   2.599   0.297 -0.5111 -0.6700 -0.1630
  467MOL0     C61543   5.563   2.543   0.268 -0.2258  0.5502 -0.2168
  467MOL0     C61544   5.479   2.638   0.207  0.6467  0.3908 -0.1601
  467MOL0     C61545   5.352   2.598   0.157 -0.1183 -0.2486 -0.2840
  467MOL0     C61546   5.304   2.463   0.166 -0.0790  0.1285  0.0634
  467MOL0     O61547   5.179   2.427   0.127  0.0333 -0.0900 -0.6865
  467MOL0     C61548   5.098   2.508   0.047 -0.8457  0.0411  0.0967
  467MOL0     C61549   5.024   2.611   0.127 -0.0499  0.3385  0.0451
  467MOL0     C61550   4.904   2.652   0.050  0.0469 -0.8743  0.0168
  467MOL0     C61551   4.771   2.587   0.089 -0.6921  1.0444 -0.7562
  467MOL0     C61552   4.671   2.623  -0.020  0.3699  0.1773  0.5352
  467MOL0     C61553   4.533   2.550   0.003  0.2262  0.3159 -0.1185
  467MOL0     C61554   4.418   2.577  -0.093 -0.2179 -0.6033  0.5302
  467MOL0     C61555   4.277   2.531  -0.064  0.9139  0.3382 -0.6328
  467MOL0    Cl61556   4.276   2.361  -0.025 -0.1349 -0.4521 -0.4023
  467MOL0     C61557   5.384   2.372   0.235 -1.0409 -0.6103 -0.5735
  467MOL0     C61558   5.522   2.408   0.281  0.4973  0.0572 -0.1493
  467MOL0     O61559   5.812   2.428   0.199 -0.0639  0.2277 -0.4480
  467MOL0     C61560   5.923   2.711   0.390  0.0117  0.5154  0.2321
  467MOL0     C61561   6.038   2.772   0.443 -0.3131 -0.4691 -0.7675
  467MOL0     N61562   6.629   3.275   0.789  0.2463 -0.2121  1.0285
  467MOL0     N61563   6.714   3.378   0.795  0.5041  0.5623  0.1640
  467MOL0     C61564   7.951   3.087   1.032  0.2004 -0.5139 -0.7443
  467MOL0     C61565   8.078   3.039   1.071 -1.0932  0.1039  0.1873
  467MOL0     C61566   8.405   2.932   1.420  0.6723 -1.9409  0.1660
  467MOL0     C61567   8.509   2.914   1.327 -0.1653  0.3942  0.6988
  467MOL0     C61568   8.640   2.909   1.377 -0.2203  0.1176  0.3219
  467MOL0     C61569   8.658   2.930   1.512  0.7189 -1.3708 -0.0110
  467MOL0     O61570   8.778   2.950   1.567  0.1125  0.9657  0.7281
  467MOL0     C61571   8.902   2.898   1.492  0.1269  0.4601  0.2429
  467MOL0     C61572   9.028   2.896   1.576 -0.4776  0.8875 -0.1914
  467MOL0     C61573   9.152   2.846   1.497  0.6292  0.0687 -0.3616
  467MOL0     C61574   9.262   2.845   1.597  0.0167 -0.3116  0.2067
  467MOL0     C61575   9.386   2.835   1.529 -0.8257 -0.4465 -0.1249
  467MOL0     C61576   9.495   2.829   1.470 -0.1831  0.5184 -1.3021
  467MOL0     C61577   8.552   2.967   1.608 -0.1447 -0.2989  0.0003
  467MOL0     C61578   8.423   2.957   1.558 -0.3042 -0.2869  0.3842
  467MOL0     H61579   8.089   3.143   1.387  0.3146 -0.0535 -0.8390
  467MOL0     H61580   7.860   3.213   1.336  2.0140  0.4588  0.9012
  467MOL0     H61581   7.670   3.070   0.952 -1.1057  0.3648 -2.3843
  467MOL0     H61582   7.731   3.230   0.893 -2.9108  0.1009 -1.8586
  467MOL0     H61583   7.530   3.304   1.054  4.0794 -2.2485  2.5628
  467MOL0     H61584   7.488   3.128   1.034 -0.6089  0.1016  0.4630
  467MOL0     H61585   7.472   3.168   0.796  1.1716 -0.7977  0.7587
  467MOL0     H61586   7.508   3.344   0.818  0.2918 -0.8696 -0.6701
  467MOL0     H61587   7.269   3.216   0.956  1.3347  0.1997  2.4366
  467MOL0     H61588   7.332   3.378   0.965 -0.2495  1.2178 -1.2815
  467MOL0     H61589   7.257   3.258   0.692  0.4854  0.4242  0.0066
  467MOL0     H61590   7.295   3.424   0.730 -1.8216  0.1401 -0.2464
  467MOL0     H61591   7.101   3.482   0.834 -5.1219  0.5206 -0.3526
  467MOL0     H61592   7.043   3.310   0.828 -3.2768  1.6672  0.0058
  467MOL0     H61593   7.103   3.509   0.602  1.3931  1.4956  4.8241
  467MOL0     H61594   7.043   3.342   0.571 -1.4930  2.4056 -2.8517
  467MOL0     H61595   6.858   3.494   0.549 -0.0765 -2.0037 -1.1275
  467MOL0     H61596   6.900   3.548   0.709  0.3309  0.1355  0.7414
  467MOL0     H61597   6.849   3.202   0.546  0.4309  3.7569 -1.5228
  467MOL0     H61598   6.594   3.007   0.753 -2.3677  0.0672  0.0893
  467MOL0     H61599   6.675   2.994   0.590 -1.5394 -1.4129 -0.1424
  467MOL0     H61600   6.484   3.148   0.504 -1.6533 -0.2480  0.7429
  467MOL0     H61601   6.405   3.101   0.652 -0.5951 -0.2243  0.1308
  467MOL0     H61602   6.479   2.950   0.406 -0.8584 -1.6907 -0.1800
  467MOL0     H61603   6.494   2.852   0.545  1.1129  0.5022  2.4372
  467MOL0     H61604   6.228   2.986   0.491  1.0028  0.1046 -0.3900
  467MOL0     H61605   6.272   2.877   0.612 -1.1339  0.5842 -0.7507
  467MOL0     H61606   6.276   2.589   0.280 -1.5046 -1.5269 -2.3750
  467MOL0     H61607   6.079   2.465   0.205 -3.6891  1.2422 -2.3610
  467MOL0     H61608   5.522   2.737   0.194  6.0083 -1.6629 -1.0015
  467MOL0     H61609   5.307   2.676   0.097  0.3496 -0.2242 -0.6126
  467MOL0     H61610   5.032   2.452  -0.019 -0.7040 -1.5269  1.2298
  467MOL0     H61611   5.180   2.546  -0.015  0.7765 -2.7336  0.3922
  467MOL0     H61612   5.089   2.699   0.134 -2.1794  2.1093 -1.1223
  467MOL0     H61613   5.007   2.581   0.230  0.6539  2.0207  0.6902
  467MOL0     H61614   4.929   2.627  -0.054  0.1130 -0.9381  0.0481
  467MOL0     H61615   4.901   2.761   0.050 -2.2650 -0.8555 -1.7374
  467MOL0     H61616   4.786   2.478   0.090 -0.2860  1.1025 -0.2921
  467MOL0     H61617   4.740   2.619   0.188  3.8652  4.0238 -0.0226
  467MOL0     H61618   4.724   2.591  -0.110  0.3093  1.9217 -0.1550
  467MOL0     H61619   4.659   2.732  -0.022  0.2110  0.2158  2.3133
  467MOL0     H61620   4.496   2.586   0.100  0.5310  0.8789 -0.2015
  467MOL0     H61621   4.551   2.443   0.014  1.7217  0.7866  3.2381
  467MOL0     H61622   4.419   2.685  -0.114  1.1153 -0.8616 -0.9285
  467MOL0     H61623   4.441   2.531  -0.190 -0.2302  2.1460 -0.8967
  467MOL0     H61624   4.214   2.557  -0.149 -0.7342 -0.0125  0.4248
  467MOL0     H61625   4.224   2.586   0.015  0.4754  1.7265 -1.8495
  467MOL0     H61626   5.365   2.267   0.256  2.7003 -1.3982 -0.4284
  467MOL0     H61627   5.592   2.345   0.335  1.2226 -0.4281 -1.6096
  467MOL0     H61628   5.821   2.732   0.422 -0.0099 -0.7316  1.0820
  467MOL0     H61629   6.031   2.854   0.514  2.1711 -1.4079  0.6608
  467MOL0     H61630   7.919   3.063   0.931 -0.0414 -0.4317 -0.6879
  467MOL0     H61631   8.141   2.983   1.003 -0.9152  0.8358 -0.2580
  467MOL0     H61632   8.481   2.890   1.225 -2.0966  0.2670  1.2266
  467MOL0     H61633   8.728   2.898   1.315  0.5253  2.2211  0.9434
  467MOL0     H61634   8.921   2.958   1.403  0.3281  0.0115 -0.0219
  467MOL0     H61635   8.888   2.795   1.455  5.5028  0.2520 -2.1475
  467MOL0     H61636   9.059   2.997   1.604  0.1819  0.2942  1.3083
  467MOL0     H61637   9.003   2.834   1.662 -1.3724 -0.8329 -1.6071
  467MOL0     H61638   9.159   2.909   1.408  0.7145 -1.8560 -1.7926
  467MOL0     H61639   9.133   2.743   1.465 -1.0897  1.2251 -3.5179
  467MOL0     H61640   9.263   2.936   1.658 -0.4563 -1.1924  1.5857
  467MOL0     H61641   9.242   2.757   1.659 -0.5803 -0.6454 -0.4457
  467MOL0     H61642   9.589   2.813   1.422 -0.0332  2.3398 -1.6635
  467MOL0     H61643   8.578   2.996   1.709  0.8240  0.2959 -0.3990
  467MOL0     H61644   8.334   2.963   1.620  1.3174  1.6742  2.7530
  468MOL0     O61645   4.952   5.127   8.283  0.6371 -0.2628  0.6007
  468MOL0     C61646   5.023   5.141   8.381  0.1149  0.0981 -0.0598
  468MOL0     O61647   5.012   5.242   8.469  0.2682  0.9447  0.3719
  468MOL0     C61648   4.920   5.349   8.461  0.0522 -0.0671  0.8398
  468MOL0     C61649   4.921   5.433   8.569  0.1130  0.3305 -0.9111
  468MOL0     C61650   4.803   5.517   8.585 -0.4698 -0.3540  0.0228
  468MOL0     C61651   4.690   5.520   8.510  0.5156 -0.1850 -0.5991
  468MOL0     O61652   4.578   5.602   8.533 -0.3161 -0.0508  0.0287
  468MOL0     C61653   4.455   5.526   8.529 -0.2641  0.2347  0.0396
  468MOL0     C61654   4.325   5.602   8.588  0.1445 -0.9071  0.7855
  468MOL0     C61655   4.277   5.724   8.497 -0.0685 -0.5430 -0.5623
  468MOL0     C61656   4.149   5.788   8.550 -0.2817  0.4791  0.8198
  468MOL0     C61657   4.025   5.736   8.481 -0.5650 -0.5175 -0.2989
  468MOL0     C61658   3.903   5.827   8.515 -0.4263 -0.5896  0.6142
  468MOL0     C61659   3.777   5.773   8.450 -0.1481 -0.5537 -0.4871
  468MOL0     C61660   3.671   5.889   8.422 -1.1299  0.2485  0.0082
  468MOL0     N61661   3.559   5.831   8.352  0.2410  0.4386  0.0021
  468MOL0     C61662   3.558   5.793   8.219 -0.2794  0.1571  0.0383
  468MOL0     C61663   3.438   5.722   8.223  0.5101 -0.0831 -0.4531
  468MOL0     C61664   3.387   5.635   8.113 -0.0950 -0.4763 -0.2288
  468MOL0     C61665   3.348   5.710   7.982  0.1621  0.3784 -0.7819
  468MOL0     C61666   3.228   5.796   8.030 -0.3989 -0.8595 -0.2559
  468MOL0     C61667   3.163   5.888   7.931  0.0078  0.0619  0.3632
  468MOL0     O61668   3.139   5.833   7.796  0.3250 -0.2899 -0.1528
  468MOL0     C61669   3.009   5.789   7.789 -0.1372 -0.1086  0.4515
  468MOL0     C61670   2.981   5.652   7.782 -0.3929  0.3644  0.6063
  468MOL0     C61671   2.846   5.603   7.773 -0.2021 -0.2673  0.5127
  468MOL0     C61672   2.736   5.692   7.760 -1.0183 -0.5478 -0.9427
  468MOL0     C61673   2.602   5.633   7.766  0.2082 -0.7118  0.1342
  468MOL0     O61674   2.502   5.705   7.822  0.6176 -0.1487 -0.3007
  468MOL0     C61675   2.383   5.640   7.841 -0.6910 -0.2691 -0.6522
  468MOL0     C61676   2.309   5.598   7.736  0.3892 -0.2571  1.2508
  468MOL0     C61677   2.181   5.545   7.755  0.4248 -0.2200 -0.4385
  468MOL0     C61678   2.136   5.509   7.885  0.5814  0.1040  0.7744
  468MOL0     O61679   2.012   5.443   7.905 -0.1047  0.4220  0.1732
  468MOL0     C61680   1.921   5.408   7.798 -0.3046 -0.8635 -0.0578
  468MOL0     C61681   1.978   5.280   7.723  0.3927 -0.4225  0.8911
  468MOL0     C61682   1.956   5.152   7.806 -0.7488 -0.5974 -0.4683
  468MOL0     C61683   2.027   5.034   7.754  0.7796 -0.0882  0.0479
  468MOL0     C61684   2.006   4.908   7.848 -1.1215 -0.0895  1.0174
  468MOL0     C61685   2.106   4.794   7.805  0.5518 -0.1391 -0.1830
  468MOL0     C61686   2.100   4.688   7.908  0.0225 -0.0081 -0.5651
  468MOL0     C61687   2.173   4.562   7.858  0.1691  0.0972  0.4916
  468MOL0    Cl61688   2.351   4.589   7.884 -0.1344  0.0023  0.0090
  468MOL0     C61689   2.204   5.559   7.997  0.3335  0.8731  1.0716
  468MOL0     C61690   2.329   5.632   7.974 -0.6866  0.1630 -0.1122
  468MOL0     O61691   2.594   5.520   7.729  0.3689 -0.1092  0.1260
  468MOL0     C61692   2.771   5.828   7.754 -0.5047  0.8116 -1.1756
  468MOL0     C61693   2.905   5.870   7.772  0.0087 -0.1492  0.3970
  468MOL0     N61694   3.377   5.730   8.350  0.0668 -0.6049  0.8156
  468MOL0     N61695   3.451   5.797   8.420 -0.7994 -0.2999 -0.7733
  468MOL0     C61696   4.692   5.439   8.390 -0.3553 -0.3004 -0.2747
  468MOL0     C61697   4.804   5.358   8.373 -1.2010 -0.1489 -0.2643
  468MOL0     C61698   5.141   5.055   8.394 -0.0548  0.1285 -1.0580
  468MOL0     C61699   5.209   5.053   8.521  0.1430  0.3862  0.4381
  468MOL0     C61700   5.311   4.959   8.523  0.5167 -0.6166 -0.6448
  468MOL0     C61701   5.345   4.867   8.437 -0.6221 -0.4041  0.2691
  468MOL0     O61702   5.444   4.773   8.449  0.8798 -0.6871  0.3500
  468MOL0     C61703   5.396   4.645   8.462 -0.1726  0.3696 -0.0627
  468MOL0     C61704   5.518   4.556   8.494  0.6069  0.1980 -0.2146
  468MOL0     C61705   5.543   4.576   8.650 -0.2448  0.0253  0.0586
  468MOL0     C61706   5.428   4.539   8.750 -0.4935  0.6129  0.6638
  468MOL0     C61707   5.364   4.416   8.734  0.4349  0.0545 -0.3279
  468MOL0     C61708   5.328   4.308   8.722 -0.5349  0.3904  1.2346
  468MOL0     C61709   5.267   4.872   8.316  0.0536  0.5301  0.1704
  468MOL0     C61710   5.162   4.963   8.290  0.0293  0.3114  1.0615
  468MOL0     H61711   5.008   5.432   8.634 -0.5214 -0.3828 -0.0406
  468MOL0     H61712   4.805   5.589   8.667  1.7290 -1.2260  0.8191
  468MOL0     H61713   4.465   5.433   8.586  1.6900 -0.8547 -1.8961
  468MOL0     H61714   4.438   5.502   8.424  2.4922 -0.5676 -0.2985
  468MOL0     H61715   4.347   5.641   8.688 -1.3292  2.3341 -0.0155
  468MOL0     H61716   4.236   5.539   8.600 -0.1165 -0.4372  1.4183
  468MOL0     H61717   4.247   5.690   8.398 -0.7610  2.3415 -1.4142
  468MOL0     H61718   4.364   5.790   8.492 -1.9354  1.9862 -1.3043
  468MOL0     H61719   4.145   5.778   8.659  0.0838  0.2568  0.8168
  468MOL0     H61720   4.178   5.890   8.522  4.1772 -0.6547  0.5577
  468MOL0     H61721   4.004   5.631   8.505  3.6714 -1.0888  1.7417
  468MOL0     H61722   4.040   5.743   8.372  2.2794 -0.1015  0.0441
  468MOL0     H61723   3.923   5.933   8.497 -2.7895 -0.2777 -0.6166
  468MOL0     H61724   3.888   5.823   8.623 -2.2408  3.2411  0.6647
  468MOL0     H61725   3.813   5.738   8.353  0.5940 -0.0478 -0.4011
  468MOL0     H61726   3.733   5.691   8.509 -0.5893 -1.4678 -2.0303
  468MOL0     H61727   3.724   5.962   8.361  1.2412  0.8752  2.6380
  468MOL0     H61728   3.649   5.938   8.517 -1.3376  3.0105 -1.3703
  468MOL0     H61729   3.637   5.796   8.145 -2.7286  1.7412 -2.7059
  468MOL0     H61730   3.304   5.583   8.161 -1.5288  1.4221 -0.5742
  468MOL0     H61731   3.460   5.556   8.089 -2.4111 -2.2058 -2.0145
  468MOL0     H61732   3.304   5.652   7.900  0.2175  0.4923 -0.8918
  468MOL0     H61733   3.433   5.760   7.934  0.3885  1.1189  0.3563
  468MOL0     H61734   3.148   5.735   8.073  0.9254 -2.4736  0.0101
  468MOL0     H61735   3.265   5.863   8.109  0.3509  0.2024 -1.4611
  468MOL0     H61736   3.224   5.979   7.926  0.6383 -0.3169  1.1038
  468MOL0     H61737   3.065   5.918   7.971 -1.3642  0.6630 -3.0725
  468MOL0     H61738   3.056   5.574   7.779 -2.5142 -1.7872 -1.6749
  468MOL0     H61739   2.851   5.495   7.773  3.1957 -0.2115  0.3919
  468MOL0     H61740   2.330   5.622   7.632 -0.8117 -1.9170  0.5685
  468MOL0     H61741   2.120   5.521   7.669 -2.6659 -2.8160  2.1718
  468MOL0     H61742   1.907   5.494   7.732 -1.1502  0.6690  1.9894
  468MOL0     H61743   1.823   5.382   7.838 -0.8496  1.7557  0.4983
  468MOL0     H61744   2.085   5.284   7.698  0.5292 -0.3654  1.4632
  468MOL0     H61745   1.932   5.264   7.625  1.9437 -1.5375  0.3036
  468MOL0     H61746   1.851   5.122   7.810 -0.5014 -1.5910 -1.0053
  468MOL0     H61747   1.983   5.171   7.911 -1.4177  0.0067 -0.3944
  468MOL0     H61748   1.993   5.010   7.653 -0.9894 -0.6560  0.7357
  468MOL0     H61749   2.134   5.056   7.759  0.7007  0.0995  1.3603
  468MOL0     H61750   1.908   4.862   7.839 -1.7505  1.5552 -1.6460
  468MOL0     H61751   2.026   4.945   7.948  3.6286  0.5947  0.0645
  468MOL0     H61752   2.208   4.833   7.811  0.4168  0.4298 -1.4060
  468MOL0     H61753   2.092   4.745   7.708  0.5790 -1.4270  0.4387
  468MOL0     H61754   2.153   4.732   7.993  2.0060  0.4960 -1.9900
  468MOL0     H61755   2.000   4.669   7.948  1.7863 -1.5221  3.6986
  468MOL0     H61756   2.144   4.546   7.754 -0.8973 -0.0499  0.7991
  468MOL0     H61757   2.144   4.480   7.923 -2.3475  0.4704 -0.0785
  468MOL0     H61758   2.170   5.525   8.094 -0.7906 -2.6397 -0.3551
  468MOL0     H61759   2.384   5.661   8.063  1.0918 -0.4450 -0.9572
  468MOL0     H61760   2.691   5.902   7.753 -1.7923 -0.4263  1.3575
  468MOL0     H61761   2.922   5.977   7.782 -0.5770 -0.1906  2.2526
  468MOL0     H61762   4.608   5.452   8.323  0.9702  0.7624 -1.8136
  468MOL0     H61763   4.801   5.298   8.283  1.5049  0.7217 -1.0264
  468MOL0     H61764   5.184   5.121   8.601  1.7185  1.0634  0.3837
  468MOL0     H61765   5.362   4.961   8.619 -3.5117  1.8159  1.7133
  468MOL0     H61766   5.356   4.614   8.365 -0.4034 -2.6883  0.9040
  468MOL0     H61767   5.316   4.641   8.536 -1.6485  2.8966 -1.3702
  468MOL0     H61768   5.488   4.451   8.490 -0.5216  0.4525  0.9153
  468MOL0     H61769   5.601   4.587   8.430  0.9434  1.0239  0.6011
  468MOL0     H61770   5.592   4.673   8.662 -0.8690  0.7088 -2.3516
  468MOL0     H61771   5.623   4.506   8.677 -1.0180 -0.8708  0.0445
  468MOL0     H61772   5.476   4.530   8.848  1.6902 -1.1234 -0.4646
  468MOL0     H61773   5.366   4.629   8.749 -1.9142 -0.3454 -0.1212
  468MOL0     H61774   5.309   4.205   8.698  0.4089  0.6708 -0.9782
  468MOL0     H61775   5.292   4.803   8.237 -1.6610 -1.2849  1.1243
  468MOL0     H61776   5.110   4.969   8.195  1.4242  0.1151  0.2464
  469MOL0     O61777   5.821   1.891  10.350 -0.7044  0.3145  0.7396
  469MOL0     C61778   5.848   1.972  10.262  0.7437 -0.3362  0.1094
  469MOL0     O61779   5.772   2.083  10.240 -0.4703 -0.6625  0.1638
  469MOL0     C61780   5.636   2.080  10.249 -0.3814 -0.2500 -0.8811
  469MOL0     C61781   5.563   2.196  10.227  0.0616 -0.0914  0.5749
  469MOL0     C61782   5.424   2.207  10.248 -1.5161 -0.1488  1.0778
  469MOL0     C61783   5.356   2.097  10.286 -0.3221  0.0298 -0.2185
  469MOL0     O61784   5.219   2.102  10.284 -0.2947  0.1702  0.2978
  469MOL0     C61785   5.156   1.992  10.214  0.5446 -0.6791 -0.6013
  469MOL0     C61786   5.096   1.898  10.320  0.2664 -0.5594 -0.8812
  469MOL0     C61787   5.011   1.974  10.417 -0.1230  0.0234 -0.3904
  469MOL0     C61788   4.950   1.880  10.524 -0.0918  0.3150  0.4758
  469MOL0     C61789   4.894   1.970  10.642  0.9654 -0.0025  0.0459
  469MOL0     C61790   4.800   2.073  10.590  0.4733 -0.0547  0.0322
  469MOL0     C61791   4.702   2.099  10.699  0.1710  0.7818  0.5555
  469MOL0     C61792   4.622   2.224  10.673 -0.5253 -1.2547 -0.2274
  469MOL0     N61793   4.534   2.214  10.563 -0.0644 -0.6594  0.3502
  469MOL0     C61794   4.421   2.144  10.552  0.7165  0.1320  0.1159
  469MOL0     C61795   4.375   2.170  10.424  0.1347  0.2331 -0.8696
  469MOL0     C61796   4.269   2.096  10.368 -0.5338  0.5538 -0.0150
  469MOL0     C61797   4.130   2.143  10.408  0.3681 -0.1498 -0.6585
  469MOL0     C61798   4.017   2.055  10.350  0.5849 -1.0869  0.0120
  469MOL0     C61799   3.892   2.062  10.441  1.0246  0.6193  0.4286
  469MOL0     O61800   3.793   1.975  10.378 -0.4232 -0.4027  0.2553
  469MOL0     C61801   3.666   1.983  10.423  0.6280 -0.8728 -0.2877
  469MOL0     C61802   3.573   1.911  10.361  0.0081 -0.3611  0.2893
  469MOL0     C61803   3.437   1.920  10.398 -0.2570 -0.7083  0.7228
  469MOL0     C61804   3.398   2.006  10.502  1.0093  0.8521 -0.4472
  469MOL0     C61805   3.264   2.020  10.541 -0.8076 -0.3709 -0.2947
  469MOL0     O61806   3.225   2.123  10.625 -0.5099 -0.2990  0.8117
  469MOL0     C61807   3.102   2.128  10.675 -0.6835 -0.2021  0.2293
  469MOL0     C61808   3.094   2.154  10.814  0.3269  0.4660 -0.1492
  469MOL0     C61809   2.963   2.168  10.866  0.4442  0.7987 -1.5321
  469MOL0     C61810   2.851   2.154  10.791  0.3694  0.4887  0.1568
  469MOL0     O61811   2.731   2.171  10.846 -0.0004 -0.3578 -0.3170
  469MOL0     C61812   2.630   2.249  10.776  0.1396 -0.8832 -0.4022
  469MOL0     C61813   2.512   2.162  10.745 -0.3589  1.2680 -0.6761
  469MOL0     C61814   2.382   2.235  10.720  0.3697  0.4032  0.1907
  469MOL0     C61815   2.257   2.146  10.687 -0.6136  0.3151  0.2202
  469MOL0     C61816   2.120   2.220  10.702 -0.6155  0.0604 -0.1612
  469MOL0     C61817   2.011   2.140  10.620  0.0765  0.0368  0.7292
  469MOL0     C61818   1.892   2.232  10.601  0.6682  0.8965 -0.7254
  469MOL0     C61819   1.821   2.272  10.729 -0.6303  0.6117 -0.3743
  469MOL0    Cl61820   1.651   2.324  10.715  0.0716  1.0379 -0.0490
  469MOL0     C61821   2.863   2.139  10.657  0.8582 -0.3941 -0.4665
  469MOL0     C61822   2.985   2.122  10.596 -0.7057  1.3970 -0.8301
  469MOL0     O61823   3.190   1.939  10.493 -0.5350  0.5660 -0.5474
  469MOL0     C61824   3.498   2.081  10.563 -0.5676 -0.8231  0.4451
  469MOL0     C61825   3.627   2.066  10.534 -0.5667 -0.0560 -0.4189
  469MOL0     N61826   4.454   2.264  10.372  0.1417 -0.7113 -0.2170
  469MOL0     N61827   4.546   2.291  10.454 -0.4337 -0.6485 -0.3728
  469MOL0     C61828   5.423   1.975  10.300 -0.1733  0.3266  0.3018
  469MOL0     C61829   5.554   1.969  10.276 -0.7848  0.3614 -0.4053
  469MOL0     C61830   5.945   1.937  10.158 -0.3797  0.0073  0.6362
  469MOL0     C61831   5.949   2.018  10.039 -0.1535  0.5416  0.6098
  469MOL0     C61832   6.041   1.990   9.938  0.2580  0.3117 -0.0810
  469MOL0     C61833   6.135   1.883   9.956  0.5855 -0.1650 -0.5505
  469MOL0     O61834   6.232   1.874   9.857 -0.0056 -0.4672  0.0648
  469MOL0     C61835   6.341   1.972   9.875  0.5413 -0.0293 -0.0720
  469MOL0     C61836   6.476   1.925   9.809  0.6669  0.3288 -0.1731
  469MOL0     C61837   6.529   1.803   9.883 -0.4072 -0.0668  0.3100
  469MOL0     C61838   6.622   1.726   9.784  0.1657  0.3111 -0.5670
  469MOL0     C61839   6.712   1.809   9.715 -0.1731  0.2162  0.7536
  469MOL0     C61840   6.788   1.876   9.654 -0.7849  0.1859  0.6240
  469MOL0     C61841   6.135   1.810  10.077 -0.5422 -0.6426  0.5114
  469MOL0     C61842   6.041   1.836  10.179 -0.2966 -0.4622  0.4410
  469MOL0     H61843   5.611   2.293  10.218  0.6606 -0.5235 -1.7205
  469MOL0     H61844   5.376   2.304  10.240  1.7749  1.4653 -0.8076
  469MOL0     H61845   5.226   1.926  10.161  0.9184 -3.1247  2.6223
  469MOL0     H61846   5.078   2.031  10.147  0.4063 -1.9794 -1.2412
  469MOL0     H61847   5.159   1.822  10.366 -0.3678 -1.8879 -2.1336
  469MOL0     H61848   5.027   1.827  10.274 -0.0387 -1.4660  0.8995
  469MOL0     H61849   4.929   2.022  10.362 -0.9209 -0.3890  0.3976
  469MOL0     H61850   5.066   2.050  10.473  1.0036 -0.0811 -1.3267
  469MOL0     H61851   4.871   1.819  10.478 -1.7560  2.1105  0.8039
  469MOL0     H61852   5.028   1.813  10.562  0.4811  1.0685  0.6319
  469MOL0     H61853   4.979   2.015  10.695 -0.3343 -1.6705  3.9625
  469MOL0     H61854   4.836   1.908  10.712 -1.5618  0.0175 -1.8937
  469MOL0     H61855   4.731   2.038  10.513 -2.1139  0.1613  2.0718
  469MOL0     H61856   4.846   2.160  10.542  0.9756  0.2849  1.1049
  469MOL0     H61857   4.628   2.019  10.710  0.2956  0.6533  0.4723
  469MOL0     H61858   4.763   2.111  10.789  2.0855 -0.4500 -0.5022
  469MOL0     H61859   4.685   2.312  10.659  1.2243 -2.2831  0.8834
  469MOL0     H61860   4.559   2.242  10.761  2.2262 -1.7534  1.9653
  469MOL0     H61861   4.380   2.065  10.615 -0.2124 -0.5299 -1.2757
  469MOL0     H61862   4.271   1.989  10.386  0.1277  0.0690 -2.6183
  469MOL0     H61863   4.279   2.106  10.260 -2.6128 -1.5571 -0.4739
  469MOL0     H61864   4.110   2.245  10.376 -2.0685 -0.1548  0.6464
  469MOL0     H61865   4.145   2.136  10.516  1.4164 -1.0871 -0.8433
  469MOL0     H61866   3.998   2.100  10.252  2.3202 -1.7354 -0.6729
  469MOL0     H61867   4.057   1.955  10.330 -0.3694 -0.8816 -3.6645
  469MOL0     H61868   3.859   2.166  10.444  1.5970  0.7919  2.2122
  469MOL0     H61869   3.913   2.030  10.544 -0.9791 -2.2135  0.0637
  469MOL0     H61870   3.585   1.840  10.279  1.1678 -3.0475  2.6101
  469MOL0     H61871   3.375   1.855  10.337 -1.0455 -0.2145  0.9717
  469MOL0     H61872   3.183   2.166  10.874  1.3480 -1.7821 -1.1260
  469MOL0     H61873   2.959   2.202  10.970  1.5282 -0.8414 -0.9233
  469MOL0     H61874   2.665   2.299  10.686 -0.8895 -1.4839 -1.1736
  469MOL0     H61875   2.594   2.333  10.836 -0.3358  1.1574 -3.3185
  469MOL0     H61876   2.489   2.098  10.831  3.6930  1.3073  0.6491
  469MOL0     H61877   2.542   2.095  10.664  1.5370 -2.0030  2.4427
  469MOL0     H61878   2.390   2.296  10.629  0.2260  1.2588  0.7402
  469MOL0     H61879   2.364   2.306  10.801 -0.1257 -2.0702  2.3790
  469MOL0     H61880   2.261   2.118  10.581 -2.2217 -0.9918  0.4673
  469MOL0     H61881   2.254   2.060  10.754 -0.5756  1.3816  1.6242
  469MOL0     H61882   2.128   2.323  10.665  2.8938 -0.5362 -1.4484
  469MOL0     H61883   2.095   2.230  10.808  0.8657 -0.1146  0.2327
  469MOL0     H61884   1.977   2.052  10.675  0.1737 -0.0661  0.6230
  469MOL0     H61885   2.050   2.123  10.519 -2.6782  0.0474 -0.4298
  469MOL0     H61886   1.919   2.319  10.539  2.2001 -0.5708 -2.2058
  469MOL0     H61887   1.820   2.171  10.546  1.1414 -2.7437  2.3124
  469MOL0     H61888   1.885   2.349  10.773 -1.5714 -0.3047  2.8944
  469MOL0     H61889   1.823   2.185  10.796  2.4325  2.2519  1.8995
  469MOL0     H61890   2.768   2.118  10.608  0.7079  0.2949 -0.4937
  469MOL0     H61891   3.003   2.085  10.495  1.7482  2.2934 -0.7845
  469MOL0     H61892   3.476   2.147  10.646 -1.4724  0.2230 -0.5946
  469MOL0     H61893   3.707   2.118  10.586 -1.5172  0.6680  0.3623
  469MOL0     H61894   5.371   1.881  10.316 -0.7008  0.4322 -0.7540
  469MOL0     H61895   5.591   1.868  10.290 -0.4370  0.8109  2.3852
  469MOL0     H61896   5.880   2.099  10.019 -2.7783 -1.3286  1.4370
  469MOL0     H61897   6.046   2.044   9.844 -0.2920  2.1312  0.8760
  469MOL0     H61898   6.364   1.995   9.980  0.8017  2.1141 -0.5453
  469MOL0     H61899   6.315   2.073   9.842  0.8709  0.7239  1.8518
  469MOL0     H61900   6.448   1.897   9.707 -1.2544  0.1366  0.3759
  469MOL0     H61901   6.550   2.006   9.804  2.0539 -0.9541 -2.1250
  469MOL0     H61902   6.448   1.733   9.902  1.2051 -2.0997  0.1010
  469MOL0     H61903   6.578   1.825   9.979 -0.8273  0.3688  0.4246
  469MOL0     H61904   6.686   1.657   9.840  3.6854  3.5538 -0.1626
  469MOL0     H61905   6.559   1.668   9.716 -0.3395 -1.9570  1.7114
  469MOL0     H61906   6.863   1.938   9.608  1.6710 -2.1503  1.2137
  469MOL0     H61907   6.210   1.731  10.078  2.2188  1.5965 -2.6499
  469MOL0     H61908   6.042   1.793  10.279 -1.8925 -3.2793 -0.6332
  470MOL0     O61909   7.926   8.043   8.227 -0.1106  0.6905 -0.0590
  470MOL0     C61910   7.930   8.026   8.350 -0.4962 -0.6520 -0.0938
  470MOL0     O61911   8.049   8.001   8.425  0.4766  0.0764 -0.7787
  470MOL0     C61912   8.164   8.018   8.359 -0.2091  0.0803  0.6360
  470MOL0     C61913   8.195   7.962   8.232  0.2153  0.5919  0.1961
  470MOL0     C61914   8.333   7.969   8.195  0.5206  0.6543  0.0218
  470MOL0     C61915   8.421   8.064   8.255  0.0295 -0.5171 -0.0670
  470MOL0     O61916   8.547   8.087   8.188 -0.6302 -0.7235  0.4091
  470MOL0     C61917   8.655   8.151   8.256 -0.3305  0.3343  0.4587
  470MOL0     C61918   8.795   8.076   8.238  1.0008  0.4049 -0.2465
  470MOL0     C61919   8.905   8.139   8.327  0.3619  0.3235 -0.1090
  470MOL0     C61920   9.025   8.050   8.331  0.9767  0.1306 -0.4179
  470MOL0     C61921   9.141   8.117   8.411 -0.3866 -0.1704  0.4085
  470MOL0     C61922   9.277   8.055   8.398  0.0439 -0.6725  0.1655
  470MOL0     C61923   9.343   8.029   8.260 -0.4377  0.1484 -0.1035
  470MOL0     C61924   9.481   7.974   8.276  0.2148 -0.2875  0.5289
  470MOL0     N61925   9.581   8.069   8.326  0.0976 -0.4290  0.2533
  470MOL0     C61926   9.647   8.157   8.242 -0.1516  0.0593 -0.0137
  470MOL0     C61927   9.714   8.239   8.326 -0.1134  0.5505 -0.4743
  470MOL0     C61928   9.800   8.350   8.284  0.3203  1.0234 -0.1108
  470MOL0     C61929   9.769   8.477   8.357  0.1171 -0.0348 -0.2685
  470MOL0     C61930   9.703   8.582   8.269 -0.0589  0.2327 -0.1003
  470MOL0     C61931   9.547   8.560   8.252  0.8127  0.6045 -0.1694
  470MOL0     O61932   9.491   8.590   8.375 -0.8932 -0.0345  0.2982
  470MOL0     C61933   9.359   8.555   8.393 -0.8428 -0.3679 -0.1627
  470MOL0     C61934   9.260   8.530   8.297 -1.0035 -0.0320  0.5142
  470MOL0     C61935   9.135   8.490   8.341  0.4037 -0.0841  0.3719
  470MOL0     C61936   9.095   8.490   8.476  0.4088  0.9798 -0.6552
  470MOL0     C61937   8.951   8.462   8.529 -1.1695  0.2008  0.1348
  470MOL0     O61938   8.858   8.444   8.440 -0.2182  0.0873 -0.0997
  470MOL0     C61939   8.727   8.435   8.488 -1.8079 -0.8204 -0.2349
  470MOL0     C61940   8.636   8.532   8.437  0.0943  0.0871  0.3596
  470MOL0     C61941   8.500   8.536   8.464 -0.3833 -0.8215  0.3693
  470MOL0     C61942   8.451   8.432   8.547 -0.8151 -0.0136  0.0926
  470MOL0     O61943   8.318   8.426   8.586  0.1955 -0.1382 -0.6653
  470MOL0     C61944   8.232   8.527   8.544 -0.3455 -0.3647  0.1047
  470MOL0     C61945   8.090   8.498   8.603  1.0753  0.1550 -0.5025
  470MOL0     C61946   7.991   8.614   8.563 -0.6266  0.3365  0.6249
  470MOL0     C61947   7.840   8.583   8.584 -0.0516  0.0945  0.1973
  470MOL0     C61948   7.777   8.487   8.479  0.9131  0.2135 -0.5032
  470MOL0     C61949   7.815   8.508   8.335  0.3937  0.1302 -0.3676
  470MOL0     C61950   7.741   8.397   8.251  0.3795  0.1947 -0.0795
  470MOL0     C61951   7.741   8.428   8.102  0.4090  0.4816 -0.4993
  470MOL0    Cl61952   7.739   8.601   8.059  0.2236 -0.0325 -0.1601
  470MOL0     C61953   8.536   8.332   8.587  0.6138 -1.0104 -0.2498
  470MOL0     C61954   8.675   8.328   8.566 -0.7913  0.5336  0.1920
  470MOL0     O61955   8.941   8.463   8.651  0.3542 -0.5209 -0.3848
  470MOL0     C61956   9.186   8.546   8.561  0.0462 -0.2395 -0.1643
  470MOL0     C61957   9.315   8.577   8.524  1.2678  0.8243 -0.3308
  470MOL0     N61958   9.679   8.208   8.460  0.5516 -0.6997  0.3659
  470MOL0     N61959   9.607   8.101   8.458 -1.1516 -0.2984 -0.3638
  470MOL0     C61960   8.367   8.150   8.352  0.1116 -0.0708 -0.9915
  470MOL0     C61961   8.241   8.123   8.407  0.1727 -0.3840  0.4808
  470MOL0     C61962   7.793   8.046   8.413 -0.8081 -1.0914  0.4068
  470MOL0     C61963   7.674   8.026   8.346 -1.3314 -0.7583 -0.1879
  470MOL0     C61964   7.546   8.048   8.397 -0.5772 -0.1034 -0.6873
  470MOL0     C61965   7.540   8.084   8.538  0.1698 -0.4769  0.1958
  470MOL0     O61966   7.422   8.109   8.591 -0.6450  0.2189 -0.3714
  470MOL0     C61967   7.370   8.235   8.563 -0.5111 -0.8517 -0.6764
  470MOL0     C61968   7.302   8.286   8.693 -0.4726  0.5072  0.6964
  470MOL0     C61969   7.209   8.396   8.652 -0.2766  0.1376  0.3161
  470MOL0     C61970   7.276   8.517   8.590 -1.0818 -0.0533 -0.4120
  470MOL0     C61971   7.187   8.638   8.599 -0.1446  0.4394 -0.9350
  470MOL0     C61972   7.114   8.735   8.609  0.6698 -0.3941  0.2191
  470MOL0     C61973   7.653   8.083   8.610 -0.0002  0.4295 -0.0313
  470MOL0     C61974   7.778   8.075   8.549 -0.0566 -0.0978 -0.4867
  470MOL0     H61975   8.128   7.897   8.177  0.0150 -2.3105  3.4823
  470MOL0     H61976   8.372   7.920   8.107  1.7741 -0.2536  1.0376
  470MOL0     H61977   8.623   8.142   8.360 -0.8038 -2.1250  0.1678
  470MOL0     H61978   8.673   8.255   8.229 -0.0325 -0.4133 -2.6234
  470MOL0     H61979   8.810   8.068   8.130 -1.4978 -0.2104 -0.6198
  470MOL0     H61980   8.791   7.976   8.281 -1.3609 -0.0523 -1.3582
  470MOL0     H61981   8.868   8.145   8.430  1.1819 -3.9792  0.6043
  470MOL0     H61982   8.924   8.238   8.284 -1.2878  1.3116  1.2494
  470MOL0     H61983   9.000   7.949   8.365  2.5170 -0.3725 -0.7186
  470MOL0     H61984   9.067   8.035   8.232  2.7473 -0.3989  0.3801
  470MOL0     H61985   9.108   8.115   8.515 -3.3379 -0.3049 -0.4310
  470MOL0     H61986   9.149   8.222   8.383 -0.8718  0.4611  2.4624
  470MOL0     H61987   9.279   7.959   8.450  1.6931 -0.9347 -0.3470
  470MOL0     H61988   9.347   8.121   8.449 -0.8742  1.6486 -1.4347
  470MOL0     H61989   9.280   7.959   8.204  0.9778 -2.3450  1.2601
  470MOL0     H61990   9.344   8.123   8.204  0.3632  1.1098  1.4442
  470MOL0     H61991   9.515   7.928   8.183 -3.2696 -2.8168  0.3033
  470MOL0     H61992   9.478   7.884   8.339  0.0374 -0.6256  0.0469
  470MOL0     H61993   9.642   8.164   8.134 -0.7434  0.0208  0.0072
  470MOL0     H61994   9.807   8.371   8.177  3.0498  0.6402 -0.0711
  470MOL0     H61995   9.901   8.313   8.303  0.7715  2.8995  1.4482
  470MOL0     H61996   9.866   8.516   8.391 -0.2006  0.9625 -0.4835
  470MOL0     H61997   9.704   8.466   8.444 -1.8961  0.0693 -1.6962
  470MOL0     H61998   9.736   8.682   8.299  1.8839 -0.2631 -0.4342
  470MOL0     H61999   9.751   8.581   8.171 -0.4342  0.3989 -0.2877
  470MOL0     H62000   9.521   8.460   8.217  2.7602  0.3782 -1.1106
  470MOL0     H62001   9.497   8.618   8.174 -1.0526 -1.2785 -0.4454
  470MOL0     H62002   9.275   8.533   8.189 -1.6195  0.1594  0.4332
  470MOL0     H62003   9.065   8.466   8.262 -1.6240  0.1354  2.0147
  470MOL0     H62004   8.672   8.602   8.363 -2.3769  0.3671 -0.6929
  470MOL0     H62005   8.441   8.609   8.410 -0.9153 -2.0542 -0.7945
  470MOL0     H62006   8.215   8.541   8.437 -2.0359 -0.7650  0.2802
  470MOL0     H62007   8.271   8.615   8.596 -2.2453  0.0816  0.8628
  470MOL0     H62008   8.093   8.471   8.709  2.1125 -0.5835 -0.7144
  470MOL0     H62009   8.051   8.415   8.544  0.5984  1.7061 -2.5099
  470MOL0     H62010   8.011   8.656   8.463 -0.2522  1.4199  1.1386
  470MOL0     H62011   8.013   8.695   8.633 -1.4251  0.7637  0.3940
  470MOL0     H62012   7.821   8.540   8.683 -0.2003 -1.2594 -0.3999
  470MOL0     H62013   7.790   8.681   8.581 -1.3182 -0.5221  0.5418
  470MOL0     H62014   7.668   8.492   8.482  0.8490 -0.3043 -1.5286
  470MOL0     H62015   7.806   8.386   8.507  1.0483  0.7979  1.6638
  470MOL0     H62016   7.921   8.505   8.308 -0.3807 -2.9825 -3.8286
  470MOL0     H62017   7.784   8.613   8.326 -0.4018  0.0644  1.3200
  470MOL0     H62018   7.786   8.302   8.281 -1.5404  0.1555  3.1870
  470MOL0     H62019   7.633   8.394   8.272 -0.2236 -1.8817 -2.8417
  470MOL0     H62020   7.655   8.386   8.049  0.4379  1.5995 -1.4644
  470MOL0     H62021   7.830   8.377   8.064  0.5182  0.7525 -0.6157
  470MOL0     H62022   8.496   8.264   8.662  2.6578 -1.9633  0.0438
  470MOL0     H62023   8.750   8.256   8.597 -1.4183 -1.1016 -1.8476
  470MOL0     H62024   9.155   8.563   8.663 -3.1760 -3.4537 -0.3888
  470MOL0     H62025   9.386   8.613   8.597  0.7796  1.8430 -0.3473
  470MOL0     H62026   8.423   8.234   8.391 -0.3062 -0.5526  0.6965
  470MOL0     H62027   8.213   8.194   8.485  2.3472 -0.9836  1.8926
  470MOL0     H62028   7.676   7.998   8.241  1.0871  1.3124 -0.7986
  470MOL0     H62029   7.456   8.052   8.337 -1.5038 -0.1004  0.6541
  470MOL0     H62030   7.298   8.230   8.481  1.1730  1.1044 -2.3896
  470MOL0     H62031   7.439   8.313   8.529 -0.7149 -1.7572 -3.3816
  470MOL0     H62032   7.256   8.204   8.749  2.5826 -0.7149  1.6333
  470MOL0     H62033   7.379   8.324   8.761 -0.1352 -0.7042  1.0019
  470MOL0     H62034   7.152   8.424   8.741  0.1714  1.3796  0.2371
  470MOL0     H62035   7.139   8.359   8.576  0.6030  1.0557 -0.9752
  470MOL0     H62036   7.364   8.546   8.648 -2.5178  1.2548  1.2546
  470MOL0     H62037   7.310   8.506   8.487  0.8243 -2.5560  0.3769
  470MOL0     H62038   7.049   8.820   8.617 -0.5893 -1.2552 -0.5275
  470MOL0     H62039   7.652   8.101   8.717 -0.5245 -1.8195  0.3845
  470MOL0     H62040   7.868   8.099   8.604  0.8668  2.0884 -2.7480
  471MOL0     O62041   8.282   1.842   8.403 -0.0944 -0.1478  0.1238
  471MOL0     C62042   8.307   1.856   8.517 -0.2919 -0.3864 -0.6748
  471MOL0     O62043   8.435   1.854   8.562 -0.4664  0.3678 -0.0307
  471MOL0     C62044   8.550   1.822   8.490 -0.1802 -0.7221  0.2430
  471MOL0     C62045   8.611   1.693   8.498 -0.3644 -1.1006 -0.2154
  471MOL0     C62046   8.722   1.665   8.421 -0.2451 -0.5528 -0.0539
  471MOL0     C62047   8.785   1.764   8.348 -0.6297 -0.9827 -1.1773
  471MOL0     O62048   8.903   1.756   8.285 -0.3278 -0.1395 -0.3675
  471MOL0     C62049   8.914   1.650   8.187 -0.1879  0.2530 -0.4922
  471MOL0     C62050   8.903   1.690   8.043 -0.9523  0.4246 -1.4475
  471MOL0     C62051   8.765   1.739   8.000 -0.9859  0.5099 -0.3717
  471MOL0     C62052   8.658   1.639   8.018 -0.0065 -0.2037  0.2648
  471MOL0     C62053   8.511   1.695   8.004  0.3425 -0.3209 -0.3536
  471MOL0     C62054   8.408   1.593   8.064 -0.3265  0.6651 -0.6548
  471MOL0     C62055   8.262   1.614   8.015 -0.7815  1.0304 -0.3266
  471MOL0     C62056   8.185   1.716   8.106  0.4995 -0.2640  0.1787
  471MOL0     N62057   8.042   1.726   8.069  0.7319 -0.3938 -0.5932
  471MOL0     C62058   7.986   1.720   7.946 -0.0745  0.2876  0.7024
  471MOL0     C62059   7.865   1.789   7.949  0.5948  0.5853  0.9140
  471MOL0     C62060   7.773   1.838   7.840 -0.2254  0.1693  0.8101
  471MOL0     C62061   7.738   1.983   7.832 -0.6067 -0.0949  0.0461
  471MOL0     C62062   7.851   2.075   7.794  0.0616 -0.2793  0.2112
  471MOL0     C62063   7.825   2.215   7.848 -0.0787  0.5373 -0.5730
  471MOL0     O62064   7.730   2.289   7.763 -0.0949 -0.6929  0.0724
  471MOL0     C62065   7.672   2.402   7.819 -0.5118 -1.2526  0.0720
  471MOL0     C62066   7.616   2.409   7.947 -0.6566  0.2938 -0.3174
  471MOL0     C62067   7.528   2.505   7.998  0.5079  0.6316  0.8396
  471MOL0     C62068   7.488   2.610   7.912  0.0824  0.5812  0.6646
  471MOL0     C62069   7.400   2.720   7.954  0.2519 -0.3712 -0.5514
  471MOL0     O62070   7.378   2.734   8.093 -0.1830 -0.7780  0.3190
  471MOL0     C62071   7.291   2.819   8.142 -0.2657  0.5577  0.6479
  471MOL0     C62072   7.155   2.833   8.098 -0.7398  0.3334  0.2218
  471MOL0     C62073   7.065   2.914   8.155 -0.0912  0.4491  0.5113
  471MOL0     C62074   7.101   3.003   8.257  0.3284 -0.6114 -0.5350
  471MOL0     O62075   7.022   3.078   8.344  0.7876 -0.0724  0.7018
  471MOL0     C62076   6.885   3.084   8.308 -0.7383 -0.7155  0.2736
  471MOL0     C62077   6.823   3.194   8.413 -0.3646 -0.0550  0.6209
  471MOL0     C62078   6.670   3.218   8.390 -0.3845 -0.2663 -0.2772
  471MOL0     C62079   6.617   3.283   8.516 -0.0319 -0.1678 -0.4297
  471MOL0     C62080   6.470   3.327   8.473  0.3859  0.8032 -0.3765
  471MOL0     C62081   6.384   3.373   8.592  0.1649 -0.0792  0.6799
  471MOL0     C62082   6.244   3.425   8.552  0.6817  0.3870 -0.3978
  471MOL0     C62083   6.248   3.533   8.444 -0.3914  0.5820 -0.3094
  471MOL0    Cl62084   6.098   3.648   8.458  0.1626  0.3522  0.5480
  471MOL0     C62085   7.237   2.999   8.302  0.3861  0.8431  0.7265
  471MOL0     C62086   7.332   2.915   8.238 -0.0083  0.7128 -0.0380
  471MOL0     O62087   7.358   2.796   7.865  0.6934 -0.0202  0.1375
  471MOL0     C62088   7.543   2.614   7.778  0.4800  0.0374  0.2204
  471MOL0     C62089   7.639   2.512   7.741 -0.4838  0.1022  0.7976
  471MOL0     N62090   7.850   1.827   8.076  0.6140 -0.1196 -0.3825
  471MOL0     N62091   7.948   1.780   8.153 -0.3142 -0.2587  0.5506
  471MOL0     C62092   8.745   1.897   8.360 -0.0358 -0.1079 -0.1950
  471MOL0     C62093   8.629   1.927   8.435 -0.8409 -0.3837 -0.8901
  471MOL0     C62094   8.202   1.893   8.614  0.0862 -0.0884  0.5351
  471MOL0     C62095   8.220   1.882   8.751 -0.3306  0.3681 -0.0967
  471MOL0     C62096   8.120   1.899   8.844  1.1644 -0.9000 -0.5185
  471MOL0     C62097   7.991   1.929   8.809 -0.3651 -0.3079 -0.0161
  471MOL0     O62098   7.877   1.931   8.891 -0.0047  0.2897  0.4950
  471MOL0     C62099   7.840   1.800   8.944 -0.2119 -0.0839 -0.7347
  471MOL0     C62100   7.771   1.810   9.078 -0.5241  0.0983  0.1281
  471MOL0     C62101   7.624   1.859   9.064 -0.3067 -0.4376 -0.2389
  471MOL0     C62102   7.551   1.856   9.197 -0.3976 -0.0910  0.1722
  471MOL0     C62103   7.566   1.723   9.252 -0.3094  1.4449 -0.6969
  471MOL0     C62104   7.563   1.611   9.299 -0.9382  0.2868 -0.2545
  471MOL0     C62105   7.965   1.947   8.668  0.2051  0.1300  0.1518
  471MOL0     C62106   8.075   1.927   8.575 -0.1888  0.0815  0.2491
  471MOL0     H62107   8.558   1.612   8.547 -0.6607 -1.1183 -0.5597
  471MOL0     H62108   8.772   1.569   8.424  0.3221 -0.2647 -0.1277
  471MOL0     H62109   8.846   1.565   8.202 -0.6341  0.3487 -1.8553
  471MOL0     H62110   9.014   1.608   8.203 -0.3935  1.0412  4.0272
  471MOL0     H62111   8.931   1.598   7.992 -0.6475 -1.7776  2.3042
  471MOL0     H62112   8.980   1.765   8.021 -1.4579  0.2966 -3.9124
  471MOL0     H62113   8.767   1.768   7.895 -1.7892 -2.1879 -1.2034
  471MOL0     H62114   8.738   1.825   8.061  0.8441  2.3707 -2.0377
  471MOL0     H62115   8.677   1.567   7.939  4.4740  0.5459  0.4361
  471MOL0     H62116   8.655   1.594   8.118  1.7201  1.2776  1.0264
  471MOL0     H62117   8.490   1.690   7.897  1.1267 -0.2025 -0.5174
  471MOL0     H62118   8.497   1.799   8.033 -1.6508 -0.6511  0.0162
  471MOL0     H62119   8.407   1.609   8.172  0.2059  2.6917 -0.9054
  471MOL0     H62120   8.431   1.491   8.030  1.3167 -0.4047  3.0857
  471MOL0     H62121   8.264   1.659   7.916 -3.1361  1.1869 -0.3551
  471MOL0     H62122   8.214   1.516   8.019 -0.1522  0.7353  2.1485
  471MOL0     H62123   8.230   1.815   8.094 -0.9065  0.1745 -2.3193
  471MOL0     H62124   8.184   1.686   8.211 -3.2140  0.4436  0.4957
  471MOL0     H62125   8.033   1.680   7.857 -2.4540  0.1803 -0.5806
  471MOL0     H62126   7.679   1.783   7.852  0.3923 -1.2574 -0.4870
  471MOL0     H62127   7.816   1.821   7.740 -2.8905  3.9265 -1.2301
  471MOL0     H62128   7.692   2.022   7.924  0.6485 -1.8208  1.4782
  471MOL0     H62129   7.674   1.985   7.744  1.0072 -2.7366 -1.2990
  471MOL0     H62130   7.947   2.035   7.826  1.4429  2.7658  0.1926
  471MOL0     H62131   7.861   2.076   7.685 -0.7623  0.6239  0.1263
  471MOL0     H62132   7.914   2.279   7.854  2.2907 -2.6153  0.2436
  471MOL0     H62133   7.797   2.207   7.954  1.1098 -0.6068 -0.3193
  471MOL0     H62134   7.629   2.320   8.009 -0.5853 -0.6553 -1.6616
  471MOL0     H62135   7.484   2.490   8.096 -0.8999 -1.7297 -0.0637
  471MOL0     H62136   7.105   2.765   8.030 -0.4391 -1.1844  1.4342
  471MOL0     H62137   6.967   2.920   8.110 -0.4885 -1.2137  1.0895
  471MOL0     H62138   6.837   2.987   8.320 -1.9808 -0.0251  1.1924
  471MOL0     H62139   6.866   3.121   8.207 -0.7565 -0.4610  0.3688
  471MOL0     H62140   6.877   3.290   8.413 -0.4144 -0.0143  1.8662
  471MOL0     H62141   6.845   3.143   8.507 -0.4248 -1.1439  0.0569
  471MOL0     H62142   6.628   3.117   8.398  0.6378 -0.5536  3.2776
  471MOL0     H62143   6.650   3.276   8.300  2.8704  0.9191 -0.3653
  471MOL0     H62144   6.602   3.214   8.599 -3.4581  2.3752  1.3317
  471MOL0     H62145   6.676   3.366   8.555 -0.2894 -1.0276  1.9416
  471MOL0     H62146   6.420   3.240   8.429 -1.0453  1.3201  0.1670
  471MOL0     H62147   6.477   3.408   8.400 -0.7937 -0.7021 -2.2602
  471MOL0     H62148   6.442   3.453   8.640  0.9451  2.0374 -3.3545
  471MOL0     H62149   6.378   3.296   8.670  1.2594 -1.9126 -0.9697
  471MOL0     H62150   6.185   3.337   8.523  0.7420  1.0166 -2.5781
  471MOL0     H62151   6.195   3.461   8.643  1.7070 -1.2647  0.8760
  471MOL0     H62152   6.244   3.488   8.344 -0.2481 -0.0161 -0.0521
  471MOL0     H62153   6.341   3.590   8.458 -0.0015 -0.6221  3.0604
  471MOL0     H62154   7.263   3.066   8.383 -0.2253 -0.6268  2.2080
  471MOL0     H62155   7.437   2.909   8.264 -0.6048  1.6634  3.0180
  471MOL0     H62156   7.505   2.687   7.707  1.1739  1.4429  1.2423
  471MOL0     H62157   7.664   2.512   7.635 -1.7063 -0.4474  0.4975
  471MOL0     H62158   8.796   1.970   8.297  0.7711 -1.7545 -1.5161
  471MOL0     H62159   8.589   2.028   8.442 -0.4401 -0.2285 -0.8259
  471MOL0     H62160   8.318   1.845   8.779 -1.1980 -3.2302 -1.2072
  471MOL0     H62161   8.133   1.889   8.951 -3.1510  1.4731  0.4559
  471MOL0     H62162   7.927   1.734   8.951  0.6399  1.0423 -0.4121
  471MOL0     H62163   7.773   1.756   8.869  1.7475 -1.4137 -1.7936
  471MOL0     H62164   7.771   1.706   9.110 -0.2111 -0.6132 -2.0100
  471MOL0     H62165   7.821   1.879   9.147 -0.3072  0.1345 -0.0623
  471MOL0     H62166   7.564   1.812   8.986 -1.3112  0.1961  0.1274
  471MOL0     H62167   7.635   1.966   9.042  0.5512  0.4212  3.6010
  471MOL0     H62168   7.575   1.930   9.274  1.8143 -1.4097  0.8365
  471MOL0     H62169   7.443   1.863   9.178 -0.2630 -0.3145 -0.7127
  471MOL0     H62170   7.556   1.513   9.341 -0.0419  0.2837 -0.0817
  471MOL0     H62171   7.868   1.974   8.628  1.9805  2.5899 -2.9890
  471MOL0     H62172   8.052   1.933   8.469  0.3201 -2.1995 -0.0545
  472MOL0     O62173   3.920   3.967  10.933  0.3421 -0.3410 -0.2208
  472MOL0     C62174   3.983   3.865  10.929 -0.3164  0.3890 -0.0629
  472MOL0     O62175   3.926   3.737  10.916  0.1338  0.2223 -0.6088
  472MOL0     C62176   3.796   3.724  10.915 -0.0350  0.9112  0.8714
  472MOL0     C62177   3.728   3.705  10.796  0.2281  0.5276 -0.4338
  472MOL0     C62178   3.592   3.692  10.798 -0.6178 -0.3164 -0.2958
  472MOL0     C62179   3.523   3.674  10.916 -0.2583 -0.0066  0.4123
  472MOL0     O62180   3.389   3.652  10.894  0.0901  0.2498 -0.0803
  472MOL0     C62181   3.299   3.656  11.004  0.5186 -0.3787 -0.2255
  472MOL0     C62182   3.161   3.703  10.942 -0.5662  0.3288  0.4551
  472MOL0     C62183   3.042   3.699  11.030 -0.0171 -0.1801  0.1490
  472MOL0     C62184   2.908   3.737  10.953 -0.1006  0.3408  0.7573
  472MOL0     C62185   2.791   3.681  11.028 -0.2045  0.3286 -0.3666
  472MOL0     C62186   2.656   3.695  10.968  0.2643 -0.1617 -0.5541
  472MOL0     C62187   2.595   3.834  10.954 -0.1446 -0.4078  0.3767
  472MOL0     C62188   2.477   3.847  10.859 -0.3839 -0.2851 -0.3476
  472MOL0     N62189   2.353   3.807  10.925 -0.7806  1.0048 -0.3315
  472MOL0     C62190   2.289   3.879  11.020 -0.2954 -0.2831  0.0410
  472MOL0     C62191   2.171   3.817  11.019  0.1570 -0.8415 -1.3642
  472MOL0     C62192   2.052   3.870  11.093  0.5165 -0.2640  0.8193
  472MOL0     C62193   1.923   3.827  11.031 -0.3193 -0.2661  0.4192
  472MOL0     C62194   1.816   3.935  11.029  0.3588 -0.5184  0.0298
  472MOL0     C62195   1.761   3.941  11.179 -0.2528  0.0240 -0.7360
  472MOL0     O62196   1.663   4.044  11.185  0.9442 -0.2330  0.0093
  472MOL0     C62197   1.579   4.056  11.292  0.0378  0.7440  0.4014
  472MOL0     C62198   1.459   4.101  11.255  0.6399  0.4585 -0.2285
  472MOL0     C62199   1.357   4.123  11.339  0.6816 -0.9193 -0.0749
  472MOL0     C62200   1.370   4.084  11.472  0.1204 -0.2479 -0.0387
  472MOL0     C62201   1.257   4.110  11.572 -0.0953 -0.8911 -0.3984
  472MOL0     O62202   1.132   4.149  11.524  0.6463 -0.0764  0.6128
  472MOL0     C62203   1.037   4.197  11.606  1.4072 -0.6249  0.4676
  472MOL0     C62204   1.003   4.326  11.574 -0.5222  0.4439  0.3528
  472MOL0     C62205   0.919   4.403  11.651 -0.6484 -0.1664  0.6402
  472MOL0     C62206   0.847   4.343  11.747  1.1001 -1.4912 -1.2065
  472MOL0     O62207   0.746   4.420  11.802  0.0030 -0.1789  0.3999
  472MOL0     C62208   0.721   4.442  11.941  0.2613  0.4377 -0.1876
  472MOL0     C62209   0.575   4.478  11.946  0.6587 -0.2405 -0.6002
  472MOL0     C62210   0.527   4.523  12.085 -0.4989 -0.4755 -0.2042
  472MOL0     C62211   0.381   4.565  12.072  1.0015 -0.2346  0.1374
  472MOL0     C62212   0.321   4.587  12.221  0.1184  0.5377 -0.0910
  472MOL0     C62213   0.174   4.636  12.222 -0.0615 -0.0189  0.3275
  472MOL0     C62214   0.140   4.766  12.148 -0.1984  0.2668  0.1837
  472MOL0     C62215  -0.003   4.823  12.185 -0.2346  0.1841 -0.2371
  472MOL0    Cl62216  -0.022   5.005  12.191  0.0854 -0.0108  0.6017
  472MOL0     C62217   0.876   4.209  11.785 -0.1939 -0.6751  0.5599
  472MOL0     C62218   0.980   4.143  11.718 -0.6064 -0.3602 -0.3323
  472MOL0     O62219   1.280   4.097  11.694 -0.2395  0.5977  0.0932
  472MOL0     C62220   1.490   4.028  11.507  0.0867 -0.2554 -0.0025
  472MOL0     C62221   1.601   4.016  11.419  0.5784  0.0972 -0.9157
  472MOL0     N62222   2.172   3.712  10.934  0.5357 -0.4777  0.2758
  472MOL0     N62223   2.281   3.705  10.882 -0.9731 -0.0073  0.2170
  472MOL0     C62224   3.589   3.692  11.042 -0.7413  0.0022 -0.1187
  472MOL0     C62225   3.723   3.716  11.040  0.8387  0.3406 -0.4211
  472MOL0     C62226   4.130   3.873  10.917 -0.7162  0.1106 -0.1655
  472MOL0     C62227   4.203   3.984  10.971  0.1295  0.5445 -0.1282
  472MOL0     C62228   4.342   3.999  10.962  0.4118  0.6482 -0.2923
  472MOL0     C62229   4.417   3.908  10.896  0.1716 -1.1906 -0.2229
  472MOL0     O62230   4.551   3.932  10.885 -0.5029  0.5946  0.5595
  472MOL0     C62231   4.617   3.871  10.768 -0.5610 -0.6779  0.1681
  472MOL0     C62232   4.742   3.945  10.732  0.2406 -1.0814  0.2410
  472MOL0     C62233   4.842   3.934  10.848  0.1797  0.4747 -0.4595
  472MOL0     C62234   4.991   3.973  10.817  0.4379 -0.2154  0.3728
  472MOL0     C62235   5.006   4.110  10.759  0.1379 -0.3175  0.8739
  472MOL0     C62236   5.043   4.212  10.701  0.0288  1.0219 -0.1613
  472MOL0     C62237   4.350   3.795  10.850  0.4829  0.7944  0.0823
  472MOL0     C62238   4.214   3.771  10.871 -0.4138  0.6594  0.7746
  472MOL0     H62239   3.774   3.688  10.700  0.2896 -1.1183 -0.1471
  472MOL0     H62240   3.537   3.694  10.705 -0.1451 -1.0954 -0.6046
  472MOL0     H62241   3.328   3.721  11.087  1.7089 -0.0371 -0.8932
  472MOL0     H62242   3.292   3.559  11.055  2.5942 -1.5403 -2.0063
  472MOL0     H62243   3.134   3.645  10.853  1.1939  0.0537  0.0597
  472MOL0     H62244   3.179   3.807  10.915  1.4302  0.1843  1.0934
  472MOL0     H62245   3.049   3.771  11.112  1.6761 -2.1673  1.8681
  472MOL0     H62246   3.027   3.599  11.071  0.4194  0.2027  1.2937
  472MOL0     H62247   2.899   3.844  10.928  0.5066  0.3224  0.4326
  472MOL0     H62248   2.908   3.690  10.854  3.3244  1.5461  0.0184
  472MOL0     H62249   2.791   3.719  11.131 -0.1670  1.6962 -0.8576
  472MOL0     H62250   2.800   3.572  11.035 -1.9068  0.2473  1.0893
  472MOL0     H62251   2.586   3.629  11.021 -1.3219 -0.1636 -2.5226
  472MOL0     H62252   2.660   3.657  10.866 -1.3946  0.0641 -0.7395
  472MOL0     H62253   2.571   3.862  11.057  2.1529 -3.5311  1.9009
  472MOL0     H62254   2.678   3.900  10.925  0.0286 -0.9335 -0.3354
  472MOL0     H62255   2.490   3.784  10.771 -0.5137  1.6325 -1.8001
  472MOL0     H62256   2.452   3.950  10.831 -3.3553 -0.5182  1.1075
  472MOL0     H62257   2.324   3.960  11.082 -1.0236  0.7705 -0.8802
  472MOL0     H62258   2.073   3.977  11.092 -2.9361  0.5360  0.2402
  472MOL0     H62259   2.055   3.827  11.194  0.3923 -3.7269 -0.5070
  472MOL0     H62260   1.886   3.736  11.080 -0.2052 -2.1700 -2.7797
  472MOL0     H62261   1.931   3.797  10.926 -0.9656  0.9110  0.0096
  472MOL0     H62262   1.846   4.035  10.996 -0.1180  0.0659  1.2999
  472MOL0     H62263   1.738   3.900  10.960  0.7051 -2.8136  0.7147
  472MOL0     H62264   1.837   3.975  11.250 -1.1500  2.2952 -0.7841
  472MOL0     H62265   1.708   3.850  11.208 -1.3509  1.4205  1.9083
  472MOL0     H62266   1.435   4.120  11.151 -0.0874 -1.1855 -0.3826
  472MOL0     H62267   1.267   4.168  11.299  3.3580  5.2989 -0.3132
  472MOL0     H62268   1.043   4.370  11.483 -2.7387 -1.2418 -1.5822
  472MOL0     H62269   0.892   4.499  11.610  1.7701 -0.6878 -2.5686
  472MOL0     H62270   0.770   4.529  11.985 -2.9046  1.1008  2.3925
  472MOL0     H62271   0.750   4.352  11.996 -0.7585  0.5772  0.6006
  472MOL0     H62272   0.521   4.390  11.909  0.4443 -1.8272  3.0810
  472MOL0     H62273   0.551   4.558  11.875 -0.1329 -1.0250 -1.2477
  472MOL0     H62274   0.593   4.606  12.113 -1.7855  0.1005  1.2315
  472MOL0     H62275   0.536   4.450  12.165 -1.3353 -0.3475  0.0127
  472MOL0     H62276   0.378   4.664  12.026  3.9680 -0.1858 -0.1136
  472MOL0     H62277   0.316   4.489  12.027 -1.9513  1.0428  1.9017
  472MOL0     H62278   0.391   4.664  12.255  1.6351 -0.0065 -1.8008
  472MOL0     H62279   0.328   4.493  12.277 -4.3029 -0.0522 -0.1598
  472MOL0     H62280   0.145   4.644  12.327  3.0830  2.5521  1.1653
  472MOL0     H62281   0.117   4.557  12.173  3.1157 -0.9156 -2.2487
  472MOL0     H62282   0.227   4.830  12.167  1.6883 -1.9828 -0.4757
  472MOL0     H62283   0.136   4.752  12.040 -1.1240 -1.6957  0.4269
  472MOL0     H62284  -0.046   4.785  12.278 -1.1629 -2.7742 -1.7363
  472MOL0     H62285  -0.075   4.782  12.114  0.4845 -1.5591 -0.0288
  472MOL0     H62286   0.814   4.147  11.849 -0.3297  0.3024  1.3978
  472MOL0     H62287   1.023   4.050  11.752  2.3812  1.0152 -0.0115
  472MOL0     H62288   1.494   3.972  11.600 -1.5931 -3.2675 -1.5911
  472MOL0     H62289   1.687   3.970  11.467  0.0829  0.4568  0.3794
  472MOL0     H62290   3.535   3.681  11.135 -3.4615 -0.4110 -1.6440
  472MOL0     H62291   3.770   3.744  11.133 -2.4211 -0.1949  1.5591
  472MOL0     H62292   4.146   4.069  11.009 -0.3246 -0.3805  1.3635
  472MOL0     H62293   4.394   4.087  10.997 -0.3480  1.4356 -1.0924
  472MOL0     H62294   4.553   3.881  10.680 -0.3895 -1.8744 -0.1169
  472MOL0     H62295   4.640   3.765  10.785 -2.0551 -1.1506 -0.6207
  472MOL0     H62296   4.779   3.901  10.639  0.7492 -2.2110  0.9627
  472MOL0     H62297   4.710   4.049  10.725 -1.1595 -1.5924 -2.7846
  472MOL0     H62298   4.833   3.833  10.889 -0.0746  0.5338 -0.3697
  472MOL0     H62299   4.801   4.007  10.919 -2.2704 -1.3757  0.1505
  472MOL0     H62300   5.054   3.966  10.906  0.1266  2.2270  0.8634
  472MOL0     H62301   5.021   3.894  10.748 -1.6661 -1.0252  0.3159
  472MOL0     H62302   5.080   4.307  10.668 -0.9198  1.3188 -0.4118
  472MOL0     H62303   4.406   3.709  10.816 -0.9722  0.2114 -0.9135
  472MOL0     H62304   4.171   3.677  10.837 -3.0296  2.0761 -0.1104
  473MOL0     O62305   6.430   2.489   2.475 -0.0396  0.5479  0.0086
  473MOL0     C62306   6.447   2.600   2.435 -0.5967  0.0469 -0.4571
  473MOL0     O62307   6.358   2.679   2.373 -0.1006  0.9186 -0.6591
  473MOL0     C62308   6.220   2.647   2.365  0.8729 -0.5064 -0.2599
  473MOL0     C62309   6.126   2.745   2.381  0.1142 -0.3782 -0.9693
  473MOL0     C62310   5.991   2.714   2.385  0.7750 -0.0045  0.6378
  473MOL0     C62311   5.938   2.584   2.350 -0.0314 -0.5140 -1.0204
  473MOL0     O62312   5.810   2.543   2.336 -0.1908 -0.0967 -0.1773
  473MOL0     C62313   5.694   2.630   2.315  0.3957  0.9445  0.1650
  473MOL0     C62314   5.572   2.540   2.279 -0.8580 -0.8929 -0.0586
  473MOL0     C62315   5.524   2.446   2.397 -0.3103 -1.0241 -0.3690
  473MOL0     C62316   5.421   2.343   2.366 -0.6829  0.7843  0.5248
  473MOL0     C62317   5.278   2.389   2.351  0.4528  0.3650 -0.1108
  473MOL0     C62318   5.188   2.276   2.291  0.9088  1.0181 -0.4995
  473MOL0     C62319   5.036   2.322   2.278 -0.8067  0.6998  0.2730
  473MOL0     C62320   4.967   2.324   2.422 -0.3934  0.5696  0.2369
  473MOL0     N62321   4.828   2.359   2.391 -0.0990  0.0139  0.2783
  473MOL0     C62322   4.718   2.299   2.442 -0.0744 -0.1931 -0.6374
  473MOL0     C62323   4.606   2.373   2.398 -0.0741  0.8308  0.0898
  473MOL0     C62324   4.465   2.353   2.450 -0.4984  0.3647  0.3147
  473MOL0     C62325   4.390   2.484   2.449  0.2509 -0.3574 -0.8013
  473MOL0     C62326   4.242   2.449   2.481  0.2995  0.2275  0.0162
  473MOL0     C62327   4.150   2.552   2.428 -0.3592 -0.4004 -0.5279
  473MOL0     O62328   4.027   2.537   2.496  0.4466  0.3195  0.4738
  473MOL0     C62329   3.912   2.582   2.431 -0.8961 -0.2976  0.4940
  473MOL0     C62330   3.914   2.659   2.315  0.0127 -0.5518  0.5816
  473MOL0     C62331   3.790   2.701   2.265  0.0932 -0.0908 -0.0101
  473MOL0     C62332   3.670   2.662   2.326  0.6639 -0.0761 -0.2663
  473MOL0     C62333   3.543   2.712   2.274 -0.1386  0.2543  0.5104
  473MOL0     O62334   3.540   2.780   2.157  0.1204 -0.3213 -0.7583
  473MOL0     C62335   3.418   2.807   2.101  0.5625 -0.2940  0.8420
  473MOL0     C62336   3.346   2.696   2.044 -0.2647  0.1994  0.1372
  473MOL0     C62337   3.222   2.709   1.976  0.6759 -0.0867 -0.0985
  473MOL0     C62338   3.170   2.847   1.973  0.5261 -0.0784  0.3973
  473MOL0     O62339   3.052   2.868   1.908 -0.3019 -0.3108  0.2482
  473MOL0     C62340   2.942   2.930   1.976  0.5296  0.8755  0.2157
  473MOL0     C62341   2.829   2.829   1.976  0.5321 -0.5345  0.4750
  473MOL0     C62342   2.765   2.810   1.841 -0.7416 -0.2103 -0.3949
  473MOL0     C62343   2.661   2.706   1.843  0.8806 -0.0797 -0.4627
  473MOL0     C62344   2.585   2.683   1.709 -0.2163  0.1749 -0.3176
  473MOL0     C62345   2.451   2.754   1.688  0.3325 -0.3492 -0.3410
  473MOL0     C62346   2.453   2.907   1.708 -0.7188  1.7392  0.0460
  473MOL0     C62347   2.329   2.970   1.647 -0.6248  0.7203 -1.5915
  473MOL0    Cl62348   2.372   3.136   1.620 -0.3088 -0.4962 -0.1341
  473MOL0     C62349   3.239   2.960   2.014  0.5655  1.1840  0.2960
  473MOL0     C62350   3.350   2.932   2.096 -1.4182  0.3614  0.6062
  473MOL0     O62351   3.444   2.685   2.346  0.9086  0.1621  0.6954
  473MOL0     C62352   3.674   2.587   2.447  0.9062  0.7599  0.6381
  473MOL0     C62353   3.793   2.545   2.494 -0.7727  1.5389  0.0891
  473MOL0     N62354   4.654   2.462   2.311  0.3781  0.1803  0.6655
  473MOL0     N62355   4.788   2.465   2.315  0.5273 -0.2959  0.2614
  473MOL0     C62356   6.034   2.496   2.321  0.3248  0.8853  0.5242
  473MOL0     C62357   6.172   2.522   2.323 -0.1379 -0.5414 -0.2800
  473MOL0     C62358   6.591   2.648   2.452  0.2687 -0.4205  0.2682
  473MOL0     C62359   6.629   2.779   2.452  0.2193 -0.2706  0.2124
  473MOL0     C62360   6.757   2.831   2.481  0.5527  0.8388  0.3562
  473MOL0     C62361   6.852   2.746   2.527  0.6379  0.0593 -0.5390
  473MOL0     O62362   6.982   2.789   2.531 -0.7675  0.4469 -0.7185
  473MOL0     C62363   7.086   2.697   2.576 -0.5761 -0.3870  0.0769
  473MOL0     C62364   7.100   2.679   2.726  0.1135  0.5592 -1.1782
  473MOL0     C62365   7.204   2.560   2.761  0.4300 -0.0041  0.2624
  473MOL0     C62366   7.242   2.557   2.913 -0.5676  0.3523 -0.2027
  473MOL0     C62367   7.134   2.486   2.983  0.5762 -0.1757 -0.4294
  473MOL0     C62368   7.028   2.446   3.023  0.4648  0.1896 -0.2331
  473MOL0     C62369   6.824   2.610   2.533  0.3639  0.3092 -0.9272
  473MOL0     C62370   6.693   2.558   2.484 -0.7263  0.3111  0.2489
  473MOL0     H62371   6.158   2.847   2.396  2.3347 -1.3094  1.5543
  473MOL0     H62372   5.918   2.792   2.398  1.2416  0.5779 -0.1056
  473MOL0     H62373   5.720   2.712   2.247  2.2002  1.2188  1.1213
  473MOL0     H62374   5.687   2.680   2.412  3.8824  0.6680  0.6953
  473MOL0     H62375   5.598   2.472   2.198 -4.4912 -0.0483 -2.1480
  473MOL0     H62376   5.499   2.610   2.237 -0.7839 -0.6630  0.1965
  473MOL0     H62377   5.496   2.511   2.481 -1.7891 -1.4141 -0.5381
  473MOL0     H62378   5.609   2.383   2.424  0.1978 -1.4886 -2.8147
  473MOL0     H62379   5.453   2.307   2.268  0.3121  3.6623 -0.3005
  473MOL0     H62380   5.409   2.259   2.436 -0.9212  0.3790  0.0051
  473MOL0     H62381   5.270   2.480   2.290  0.2567  0.6169  0.2886
  473MOL0     H62382   5.242   2.419   2.450 -0.8856 -1.1756 -0.0979
  473MOL0     H62383   5.185   2.185   2.352 -2.3386 -0.9773 -3.2754
  473MOL0     H62384   5.219   2.240   2.193  0.1509  1.9754 -1.1144
  473MOL0     H62385   5.034   2.422   2.233 -2.8462  1.5006  1.9557
  473MOL0     H62386   4.979   2.255   2.214  0.3608 -0.0356 -0.0143
  473MOL0     H62387   5.002   2.400   2.493 -0.1282  0.8163 -0.1591
  473MOL0     H62388   4.981   2.232   2.480  2.1894  0.5486 -0.2904
  473MOL0     H62389   4.728   2.218   2.513  3.6358 -0.3042 -1.0739
  473MOL0     H62390   4.459   2.297   2.543 -0.5230  0.3460  0.3021
  473MOL0     H62391   4.420   2.286   2.376  0.0798  0.0801  0.2178
  473MOL0     H62392   4.404   2.524   2.348  2.9226  1.5012  0.1723
  473MOL0     H62393   4.434   2.563   2.511  3.1304 -0.0670 -2.9806
  473MOL0     H62394   4.212   2.357   2.429  1.5057 -1.0521  1.5030
  473MOL0     H62395   4.232   2.451   2.589  2.9383  1.2493  0.3093
  473MOL0     H62396   4.136   2.537   2.321 -1.0911  1.3377 -0.7039
  473MOL0     H62397   4.187   2.652   2.453 -2.2643 -0.2721  2.2505
  473MOL0     H62398   4.000   2.697   2.260 -2.1147  0.7958 -2.0546
  473MOL0     H62399   3.790   2.757   2.172 -0.5255 -0.5898 -0.3177
  473MOL0     H62400   3.406   2.606   2.036  0.2636  0.7445 -3.4303
  473MOL0     H62401   3.151   2.629   1.955 -1.0904  1.0931  1.0804
  473MOL0     H62402   2.910   3.023   1.929 -4.6107  1.1383  3.4576
  473MOL0     H62403   2.981   2.959   2.074  0.3320  1.6301  0.0814
  473MOL0     H62404   2.752   2.867   2.043  1.2776 -0.6378  1.4037
  473MOL0     H62405   2.862   2.727   1.998  2.8799 -1.6300 -5.8647
  473MOL0     H62406   2.830   2.773   1.760 -1.9179 -0.3581 -1.2978
  473MOL0     H62407   2.731   2.912   1.822 -4.7378 -1.4538 -0.8525
  473MOL0     H62408   2.714   2.613   1.865  0.1369 -0.4115 -0.0349
  473MOL0     H62409   2.590   2.743   1.918 -1.0083 -0.3658 -2.0240
  473MOL0     H62410   2.562   2.577   1.721  0.4950  0.3200  4.3268
  473MOL0     H62411   2.646   2.713   1.623  2.3765 -0.8471  1.0655
  473MOL0     H62412   2.379   2.706   1.755 -0.0520 -0.4757 -0.8464
  473MOL0     H62413   2.422   2.743   1.584 -1.0260  0.4145 -0.0574
  473MOL0     H62414   2.463   2.932   1.814 -1.0167  2.8479 -0.1745
  473MOL0     H62415   2.545   2.948   1.664  1.2384 -0.0605  2.1848
  473MOL0     H62416   2.244   2.960   1.715  0.3537  0.0042 -0.4210
  473MOL0     H62417   2.297   2.918   1.557 -1.5046 -2.5135  0.3972
  473MOL0     H62418   3.195   3.057   1.996 -0.7488  0.3831 -1.0957
  473MOL0     H62419   3.406   3.014   2.140  1.0734  0.4404 -2.3262
  473MOL0     H62420   3.592   2.542   2.502  1.0878 -0.9307 -0.3820
  473MOL0     H62421   3.813   2.504   2.593  3.2605 -1.4161 -1.6508
  473MOL0     H62422   6.005   2.400   2.278  0.7224  0.4596  1.1806
  473MOL0     H62423   6.238   2.439   2.301  1.7551  0.8339 -0.0217
  473MOL0     H62424   6.547   2.850   2.442 -0.3998 -1.1014 -0.7843
  473MOL0     H62425   6.769   2.938   2.472 -2.8032  1.2010 -1.6001
  473MOL0     H62426   7.182   2.742   2.553 -0.8080 -0.1778 -0.5106
  473MOL0     H62427   7.081   2.602   2.521 -1.0265 -0.8323  0.8636
  473MOL0     H62428   7.135   2.776   2.762  1.0859  0.4503 -1.7823
  473MOL0     H62429   7.003   2.658   2.771  0.2870 -0.7569 -1.3631
  473MOL0     H62430   7.301   2.575   2.713  1.2555 -0.0858  1.8258
  473MOL0     H62431   7.153   2.468   2.731 -0.5548  0.0507  1.6572
  473MOL0     H62432   7.325   2.490   2.936 -3.1370 -3.6178 -1.5106
  473MOL0     H62433   7.274   2.655   2.950 -0.7323  0.0709  0.7056
  473MOL0     H62434   6.932   2.413   3.054  0.5843 -1.2518 -1.3036
  473MOL0     H62435   6.893   2.535   2.568 -0.1127  0.4823  0.4778
  473MOL0     H62436   6.678   2.451   2.490  2.1922 -0.3292 -1.4913
  474MOL0     O62437   9.169   0.746   4.864  0.1490 -0.2366  0.6045
  474MOL0     C62438   9.261   0.689   4.915 -0.5150  0.0281 -0.7601
  474MOL0     O62439   9.258   0.580   5.003 -0.8122  0.0191  0.4801
  474MOL0     C62440   9.156   0.491   4.973 -0.9145 -0.7023  0.0700
  474MOL0     C62441   9.203   0.386   4.893 -0.2885 -0.4501  0.9271
  474MOL0     C62442   9.111   0.296   4.847  0.6567  0.3239 -0.4296
  474MOL0     C62443   8.974   0.314   4.864  0.3743  0.1847 -0.6804
  474MOL0     O62444   8.887   0.216   4.806  0.1891  1.3295  0.7758
  474MOL0     C62445   8.771   0.179   4.877  1.2600  0.1291 -0.6387
  474MOL0     C62446   8.698   0.051   4.823 -0.1907 -0.9668  0.2181
  474MOL0     C62447   8.591  -0.008   4.911 -0.1759 -0.7790  0.0108
  474MOL0     C62448   8.469   0.074   4.923  0.3045  0.4772 -0.1829
  474MOL0     C62449   8.363  -0.012   4.985  0.2396 -0.1751 -0.4894
  474MOL0     C62450   8.241   0.077   4.996  0.7859  0.8655 -0.4294
  474MOL0     C62451   8.116  -0.006   5.032 -0.0429  0.2684 -0.1366
  474MOL0     C62452   8.075  -0.079   4.899  0.5444 -0.0235 -0.1998
  474MOL0     N62453   7.931  -0.119   4.896 -0.0509  0.3689  0.0367
  474MOL0     C62454   7.833  -0.028   4.925 -0.3671  0.6901  0.1979
  474MOL0     C62455   7.729  -0.101   4.954 -0.0079 -0.0379 -0.3816
  474MOL0     C62456   7.593  -0.048   4.995 -0.7266  1.0128  0.0747
  474MOL0     C62457   7.478  -0.133   4.956 -0.4113 -0.5487 -0.1237
  474MOL0     C62458   7.340  -0.067   4.992  0.0298 -0.7659 -0.0119
  474MOL0     C62459   7.212  -0.153   4.955  0.2983 -0.3103 -0.0951
  474MOL0     O62460   7.120  -0.053   4.952 -0.3756  0.2425 -0.4546
  474MOL0     C62461   6.994  -0.074   4.908 -0.0839  0.0342 -0.1339
  474MOL0     C62462   6.943  -0.187   4.844  0.4158 -0.4890  0.4472
  474MOL0     C62463   6.813  -0.189   4.809  1.3222 -0.3050 -0.9866
  474MOL0     C62464   6.732  -0.072   4.815 -0.6006 -0.5347  0.1239
  474MOL0     C62465   6.606  -0.075   4.743 -0.7209 -0.0492 -0.4139
  474MOL0     O62466   6.592  -0.187   4.666  0.6651 -0.4841  0.2588
  474MOL0     C62467   6.472  -0.223   4.599  0.0677  0.3973  0.1986
  474MOL0     C62468   6.344  -0.160   4.606  0.5338  0.3100 -0.1694
  474MOL0     C62469   6.229  -0.228   4.549 -0.5121  1.1263 -0.3102
  474MOL0     C62470   6.246  -0.340   4.470 -0.1786  0.4448  0.1638
  474MOL0     O62471   6.140  -0.392   4.402 -0.2029 -0.2067 -0.7674
  474MOL0     C62472   6.134  -0.540   4.390 -0.1673 -0.0936 -1.3679
  474MOL0     C62473   5.990  -0.591   4.408  0.1657  0.3125 -0.8579
  474MOL0     C62474   5.918  -0.508   4.513  0.2822  0.2790 -0.6983
  474MOL0     C62475   5.820  -0.598   4.586  0.1770  0.2576 -0.6342
  474MOL0     C62476   5.706  -0.663   4.511  0.5896  0.0067  0.3313
  474MOL0     C62477   5.635  -0.765   4.606 -0.8137  0.0631  1.2901
  474MOL0     C62478   5.535  -0.844   4.524 -0.3655  0.6094 -0.9731
  474MOL0     C62479   5.466  -0.939   4.625  0.0572  1.1609 -0.2223
  474MOL0    Cl62480   5.313  -1.013   4.555 -0.5462 -0.0737  0.0190
  474MOL0     C62481   6.373  -0.386   4.441 -0.0369  0.6277 -0.6082
  474MOL0     C62482   6.483  -0.337   4.516 -0.7381  0.8686 -0.8126
  474MOL0     O62483   6.520   0.003   4.774 -0.2341  0.1137  0.4378
  474MOL0     C62484   6.777   0.039   4.896  0.4018  0.0792  0.1481
  474MOL0     C62485   6.913   0.042   4.929  0.6837  0.0886 -0.2673
  474MOL0     N62486   7.765  -0.232   4.948 -1.0981  0.4371  0.2094
  474MOL0     N62487   7.892  -0.245   4.908 -0.1303  0.1042 -0.8297
  474MOL0     C62488   8.929   0.427   4.930  0.0371  0.3004 -0.0362
  474MOL0     C62489   9.020   0.509   4.997  0.0437 -1.0353 -0.6412
  474MOL0     C62490   9.402   0.742   4.897  0.4250 -0.2424  0.7542
  474MOL0     C62491   9.426   0.858   4.824 -0.6441 -0.3445  0.1949
  474MOL0     C62492   9.554   0.916   4.811  0.0947 -0.4062  1.2819
  474MOL0     C62493   9.671   0.851   4.856  0.6318  0.7286  0.1646
  474MOL0     O62494   9.798   0.896   4.847 -0.2245 -0.5449  0.1182
  474MOL0     C62495   9.828   1.037   4.833  0.1812  0.2153 -0.1194
  474MOL0     C62496   9.984   1.063   4.856  0.6973 -0.0401  0.3425
  474MOL0     C62497  10.066   0.984   4.739  0.1415  0.1888  0.6390
  474MOL0     C62498  10.221   1.008   4.750  1.2603  0.5877 -0.6530
  474MOL0     C62499  10.305   0.915   4.667  0.0225  0.1145 -0.5553
  474MOL0     C62500  10.371   0.850   4.589 -0.5108 -0.6358 -0.3933
  474MOL0     C62501   9.645   0.731   4.922  0.3991  0.1466 -0.5796
  474MOL0     C62502   9.517   0.671   4.938  0.7313 -0.4164 -0.4754
  474MOL0     H62503   9.310   0.373   4.882  0.0166  1.3291  1.4809
  474MOL0     H62504   9.164   0.215   4.798  0.6753 -0.1403  0.3378
  474MOL0     H62505   8.692   0.255   4.866  1.1496  0.2782  1.0122
  474MOL0     H62506   8.801   0.152   4.978  1.5036 -1.4940 -1.1175
  474MOL0     H62507   8.773  -0.024   4.797  0.1001 -0.5494 -0.1700
  474MOL0     H62508   8.656   0.081   4.726 -1.0013 -1.3617  0.4359
  474MOL0     H62509   8.631  -0.045   5.006 -0.2884  1.0938  0.8411
  474MOL0     H62510   8.558  -0.095   4.854  1.4135 -0.4741 -1.4638
  474MOL0     H62511   8.490   0.162   4.984  1.5502  2.3021 -3.0163
  474MOL0     H62512   8.431   0.125   4.834  0.0643  5.5440  2.5024
  474MOL0     H62513   8.396  -0.047   5.083  2.9055  1.3694 -0.7441
  474MOL0     H62514   8.344  -0.110   4.939  0.4879 -0.6856  0.4661
  474MOL0     H62515   8.211   0.128   4.903  0.2435 -0.4175 -0.9772
  474MOL0     H62516   8.265   0.140   5.082  2.4391 -2.5003  1.7993
  474MOL0     H62517   8.127  -0.078   5.114 -2.8648 -0.5723 -0.4132
  474MOL0     H62518   8.038   0.064   5.063 -1.0554 -0.1751 -1.5949
  474MOL0     H62519   8.131  -0.172   4.891 -2.4629 -2.2391  2.0855
  474MOL0     H62520   8.097  -0.013   4.815  1.5379 -0.8572 -0.6190
  474MOL0     H62521   7.837   0.081   4.925  1.5688  0.6750 -1.0476
  474MOL0     H62522   7.569   0.043   4.938 -0.6545  1.8153  1.2948
  474MOL0     H62523   7.592  -0.024   5.102 -1.6608 -2.2102  0.8991
  474MOL0     H62524   7.482  -0.235   4.997 -1.3642 -0.0936  1.1433
  474MOL0     H62525   7.482  -0.147   4.847  1.0607 -1.5082  0.0250
  474MOL0     H62526   7.346  -0.038   5.097 -2.0399  1.6606 -0.4607
  474MOL0     H62527   7.352   0.030   4.942  1.5846  1.6503  4.5014
  474MOL0     H62528   7.201  -0.234   5.027 -1.9692  0.2652  0.2762
  474MOL0     H62529   7.230  -0.187   4.853  2.5858  0.9228 -0.1729
  474MOL0     H62530   7.015  -0.262   4.815  1.2140  1.0098 -1.6359
  474MOL0     H62531   6.781  -0.280   4.759 -0.1897 -0.6899  0.5944
  474MOL0     H62532   6.335  -0.067   4.662  1.5747  1.1143 -1.2694
  474MOL0     H62533   6.131  -0.184   4.561 -0.8480  1.0086 -2.3109
  474MOL0     H62534   6.188  -0.577   4.478  0.0201  0.4670 -1.2442
  474MOL0     H62535   6.170  -0.576   4.293  1.2287 -1.3100 -0.4536
  474MOL0     H62536   6.011  -0.689   4.454 -1.5546 -1.1506 -2.9724
  474MOL0     H62537   5.928  -0.605   4.319  1.3421  0.9915 -1.8139
  474MOL0     H62538   5.864  -0.422   4.473  1.1963  0.3421 -1.8479
  474MOL0     H62539   5.995  -0.468   4.580  1.5736 -1.9768 -0.7121
  474MOL0     H62540   5.872  -0.670   4.649 -3.0318 -2.3658 -0.6707
  474MOL0     H62541   5.762  -0.535   4.655 -1.0257 -0.4111 -1.0032
  474MOL0     H62542   5.754  -0.731   4.440  0.0011 -0.0393 -0.0321
  474MOL0     H62543   5.648  -0.598   4.446  0.2329 -0.0285  0.6140
  474MOL0     H62544   5.581  -0.713   4.686  0.1006  1.3784  1.0842
  474MOL0     H62545   5.712  -0.828   4.652 -0.5995 -0.9708 -0.3960
  474MOL0     H62546   5.464  -0.770   4.488 -0.4085  1.2298  0.3276
  474MOL0     H62547   5.571  -0.897   4.436  1.2239 -1.5770  0.8668
  474MOL0     H62548   5.436  -0.877   4.709  0.1548  1.4128 -0.3712
  474MOL0     H62549   5.533  -1.017   4.665 -0.7609 -0.4602 -1.8528
  474MOL0     H62550   6.389  -0.460   4.363  2.4855  1.1668 -0.7017
  474MOL0     H62551   6.575  -0.394   4.513 -0.6870  0.8618  0.4514
  474MOL0     H62552   6.716   0.121   4.930  1.8284 -0.5863  5.0630
  474MOL0     H62553   6.953   0.131   4.976  2.2458 -1.8884  2.4030
  474MOL0     H62554   8.821   0.441   4.931 -0.2427 -1.3928 -1.3339
  474MOL0     H62555   8.977   0.583   5.064 -0.4516 -2.8458  1.1565
  474MOL0     H62556   9.349   0.903   4.762  1.7023  1.7975 -1.3476
  474MOL0     H62557   9.553   1.011   4.760 -1.6576 -1.7946 -1.5235
  474MOL0     H62558   9.767   1.084   4.911  1.2611  0.9171  0.3352
  474MOL0     H62559   9.800   1.056   4.729  0.1625 -1.0977 -0.3674
  474MOL0     H62560  10.002   1.170   4.840  1.7019 -0.2234  0.1772
  474MOL0     H62561  10.023   1.029   4.952 -1.8113 -2.3861  0.6569
  474MOL0     H62562  10.033   1.018   4.641  1.7628 -1.8793 -0.7149
  474MOL0     H62563  10.049   0.876   4.747 -2.0238  0.2756 -1.6085
  474MOL0     H62564  10.256   1.109   4.727 -0.0569  0.5923 -2.8688
  474MOL0     H62565  10.241   0.967   4.850 -1.5581 -2.7173 -1.2299
  474MOL0     H62566  10.421   0.791   4.515 -0.0646 -1.6921  0.7174
  474MOL0     H62567   9.733   0.683   4.964 -0.8620 -1.1854  0.7242
  474MOL0     H62568   9.501   0.579   4.993 -1.7013  1.0750  1.5050
  475MOL0     O62569   5.582   6.844   7.328  0.3369  0.6379 -1.2903
  475MOL0     C62570   5.538   6.879   7.435 -0.8884  0.6046 -0.4292
  475MOL0     O62571   5.602   6.872   7.555  0.3143 -0.0534 -0.1940
  475MOL0     C62572   5.731   6.826   7.571  0.1471 -1.4653 -0.1003
  475MOL0     C62573   5.738   6.723   7.661  0.4435 -0.1701  0.3216
  475MOL0     C62574   5.869   6.665   7.667 -0.5113  0.1096 -0.9117
  475MOL0     C62575   5.984   6.706   7.597 -0.3853  0.3592  0.3402
  475MOL0     O62576   6.095   6.629   7.615 -0.1377 -0.0588  0.5015
  475MOL0     C62577   6.218   6.696   7.606 -0.1287  0.5355  0.2259
  475MOL0     C62578   6.304   6.639   7.488 -0.7864 -0.3067  0.9205
  475MOL0     C62579   6.451   6.606   7.531 -0.7256 -0.5991  0.3774
  475MOL0     C62580   6.530   6.730   7.578  0.2027  0.4103  0.1204
  475MOL0     C62581   6.665   6.697   7.631 -0.0877  0.1129 -1.0629
  475MOL0     C62582   6.740   6.593   7.544 -0.4878  0.2841  0.4239
  475MOL0     C62583   6.895   6.576   7.586  0.4542 -0.2734  0.7430
  475MOL0     C62584   6.988   6.687   7.551 -0.3203  0.4062 -0.4509
  475MOL0     N62585   7.130   6.641   7.563 -0.2284  0.8646 -0.0134
  475MOL0     C62586   7.190   6.552   7.476 -0.7432 -0.4255  0.2104
  475MOL0     C62587   7.316   6.544   7.513 -1.0921  0.4256 -0.9031
  475MOL0     C62588   7.430   6.458   7.464  0.4457 -0.6255  0.6427
  475MOL0     C62589   7.386   6.301   7.471 -0.3634  0.4497  0.6739
  475MOL0     C62590   7.362   6.268   7.619 -0.5989 -0.0377  0.5203
  475MOL0     C62591   7.343   6.113   7.615 -0.2431  0.2290 -0.3511
  475MOL0     O62592   7.225   6.078   7.544 -0.5562 -0.2219 -0.2069
  475MOL0     C62593   7.110   6.101   7.619  0.2033 -0.1284  0.1576
  475MOL0     C62594   7.098   6.134   7.752  0.1444 -0.6432  0.2881
  475MOL0     C62595   6.975   6.183   7.805  0.4174 -0.3173 -0.2462
  475MOL0     C62596   6.867   6.189   7.729 -0.2827 -0.5998  0.2522
  475MOL0     C62597   6.733   6.237   7.769 -0.4836 -1.1875 -1.1888
  475MOL0     O62598   6.716   6.243   7.905 -0.8631 -0.6489  0.4755
  475MOL0     C62599   6.584   6.279   7.943  0.3397 -0.5030 -0.6381
  475MOL0     C62600   6.570   6.380   8.034  0.0364 -0.9435  0.0085
  475MOL0     C62601   6.437   6.417   8.071 -0.0587 -0.4487  0.4619
  475MOL0     C62602   6.325   6.341   8.048  0.0970 -0.0572  0.3900
  475MOL0     O62603   6.197   6.374   8.087  0.3602  0.4536 -0.3677
  475MOL0     C62604   6.156   6.512   8.060 -0.5796 -0.1888  0.0801
  475MOL0     C62605   6.000   6.538   8.039  0.3645  0.0006 -0.0629
  475MOL0     C62606   5.931   6.457   8.153  0.1955 -0.3737 -0.2806
  475MOL0     C62607   5.791   6.508   8.196  0.0751 -0.2512  0.9035
  475MOL0     C62608   5.798   6.625   8.297 -0.1463 -0.2776 -0.3326
  475MOL0     C62609   5.675   6.698   8.352 -0.2792 -0.2971  0.8943
  475MOL0     C62610   5.577   6.607   8.417 -1.0265  0.4317 -0.2655
  475MOL0     C62611   5.472   6.689   8.492 -0.4309  0.3902 -0.1555
  475MOL0    Cl62612   5.338   6.748   8.386 -0.6106 -0.1435 -0.5677
  475MOL0     C62613   6.346   6.222   7.968  0.1283 -0.9691 -0.5672
  475MOL0     C62614   6.470   6.201   7.908 -0.5679 -0.3598  0.5886
  475MOL0     O62615   6.655   6.276   7.682 -0.2352  0.3243  0.0957
  475MOL0     C62616   6.878   6.156   7.592  0.8069 -0.0131 -0.2480
  475MOL0     C62617   6.997   6.106   7.534 -0.2639  0.2760  0.5402
  475MOL0     N62618   7.334   6.640   7.616 -0.7248  0.6167  0.7597
  475MOL0     N62619   7.226   6.689   7.653  0.5313 -0.7014 -0.0297
  475MOL0     C62620   5.966   6.817   7.518 -0.8233  0.2890 -0.8654
  475MOL0     C62621   5.844   6.874   7.497 -0.7021  0.2404 -0.8214
  475MOL0     C62622   5.398   6.929   7.433  0.1666  0.4404 -0.1444
  475MOL0     C62623   5.331   6.956   7.312 -0.1694 -0.0031  0.4458
  475MOL0     C62624   5.192   6.975   7.314  0.4584 -1.1176  0.5447
  475MOL0     C62625   5.123   6.987   7.432 -0.2814 -0.3042  0.0802
  475MOL0     O62626   4.991   7.007   7.438 -0.0684  0.0507 -0.7500
  475MOL0     C62627   4.958   7.142   7.472 -0.9400  0.7309  0.8052
  475MOL0     C62628   4.799   7.166   7.504 -0.1657  0.0517 -0.1954
  475MOL0     C62629   4.749   7.074   7.626 -0.2762  0.4089 -0.0357
  475MOL0     C62630   4.618   7.006   7.614  1.6530 -0.0807  0.0050
  475MOL0     C62631   4.504   7.102   7.622  0.7984  0.1435  0.4113
  475MOL0     C62632   4.401   7.165   7.615  0.0168  1.2403  0.0143
  475MOL0     C62633   5.186   6.965   7.557  0.8762 -0.9696 -0.4912
  475MOL0     C62634   5.320   6.924   7.553  0.0016  1.0308  0.0185
  475MOL0     H62635   5.657   6.691   7.726  0.8292 -0.4347  0.6740
  475MOL0     H62636   5.895   6.585   7.735  1.4423 -1.1806 -3.0327
  475MOL0     H62637   6.274   6.673   7.698 -0.1431  1.2600  0.4166
  475MOL0     H62638   6.205   6.802   7.586 -1.0875  0.0623 -1.8447
  475MOL0     H62639   6.300   6.711   7.405  4.0810  2.5916  2.7807
  475MOL0     H62640   6.252   6.548   7.456 -1.2509 -0.4525  2.0683
  475MOL0     H62641   6.496   6.557   7.444  0.1373  0.4759  0.1944
  475MOL0     H62642   6.460   6.532   7.611 -0.2860 -0.9487  0.0171
  475MOL0     H62643   6.534   6.801   7.495  0.9402  1.0073  0.6513
  475MOL0     H62644   6.481   6.778   7.664  0.2312 -2.3979  1.8361
  475MOL0     H62645   6.658   6.644   7.727  4.2832 -0.2869 -0.7467
  475MOL0     H62646   6.721   6.790   7.645 -1.0848  1.0637 -2.9681
  475MOL0     H62647   6.744   6.625   7.440  0.6572  3.5248  1.3363
  475MOL0     H62648   6.685   6.499   7.551 -0.5204 -0.0273 -2.5991
  475MOL0     H62649   6.909   6.553   7.692 -0.8113 -3.2142  0.3809
  475MOL0     H62650   6.929   6.489   7.529  1.6279  0.7045 -0.1117
  475MOL0     H62651   6.984   6.759   7.634  2.5472 -2.7605  2.7593
  475MOL0     H62652   6.972   6.730   7.451 -2.5626  0.1575 -0.2505
  475MOL0     H62653   7.141   6.487   7.405  1.7986 -1.9428 -0.3009
  475MOL0     H62654   7.521   6.475   7.523  1.4814 -0.9297 -0.7965
  475MOL0     H62655   7.447   6.494   7.361  2.8446  2.6393  1.9907
  475MOL0     H62656   7.472   6.249   7.427  1.6985  2.8386  1.6146
  475MOL0     H62657   7.298   6.286   7.408  0.5742 -3.3985  0.0508
  475MOL0     H62658   7.449   6.300   7.678 -1.9426 -0.9317  3.0972
  475MOL0     H62659   7.265   6.306   7.652 -2.3868 -2.6128 -1.3907
  475MOL0     H62660   7.353   6.066   7.714  2.0158  0.8816 -0.2048
  475MOL0     H62661   7.426   6.076   7.554  1.2761  0.8825  1.2285
  475MOL0     H62662   7.184   6.142   7.818  1.3446  1.0361 -1.3599
  475MOL0     H62663   6.960   6.202   7.910  1.8243 -2.0595  0.3163
  475MOL0     H62664   6.658   6.438   8.059 -1.6301  2.1570 -0.8278
  475MOL0     H62665   6.422   6.513   8.119 -2.6137 -1.0293  0.9269
  475MOL0     H62666   6.210   6.554   7.975  1.2010 -0.4858  1.0293
  475MOL0     H62667   6.199   6.556   8.151  1.5488  0.4100 -1.1601
  475MOL0     H62668   5.955   6.502   7.945 -1.4049  1.2205  0.2664
  475MOL0     H62669   5.991   6.646   8.055  1.3684  0.4180 -2.0040
  475MOL0     H62670   5.993   6.459   8.243 -1.4065 -1.4620  0.9101
  475MOL0     H62671   5.918   6.354   8.119 -0.2837 -0.3102 -0.2991
  475MOL0     H62672   5.742   6.528   8.101  2.7240 -0.8613 -0.7193
  475MOL0     H62673   5.737   6.428   8.247 -1.3546  1.3953  2.0857
  475MOL0     H62674   5.863   6.707   8.266 -2.0349  1.8757  1.0895
  475MOL0     H62675   5.843   6.578   8.385 -0.0476 -3.5795 -1.9778
  475MOL0     H62676   5.619   6.749   8.273  2.5694 -0.0392 -1.0954
  475MOL0     H62677   5.708   6.774   8.423  1.1109  0.4295 -0.4735
  475MOL0     H62678   5.536   6.533   8.348 -1.1009 -0.3799  0.6314
  475MOL0     H62679   5.642   6.561   8.492  2.1259  0.8104 -2.5197
  475MOL0     H62680   5.522   6.755   8.564 -0.2513 -1.2182  1.2623
  475MOL0     H62681   5.438   6.615   8.566 -0.8417  1.2849  0.5689
  475MOL0     H62682   6.266   6.149   7.963 -0.0154 -0.8799  0.2112
  475MOL0     H62683   6.496   6.117   7.846  0.4968 -1.6542  2.6708
  475MOL0     H62684   6.802   6.173   7.517  0.4789  0.4664  0.1859
  475MOL0     H62685   6.995   6.096   7.426 -2.4505 -0.3443  0.5816
  475MOL0     H62686   6.053   6.838   7.456  0.3394 -2.8238 -0.4599
  475MOL0     H62687   5.825   6.944   7.416 -0.2347  0.2871 -0.8962
  475MOL0     H62688   5.386   6.951   7.218  1.5031  1.4934  1.2853
  475MOL0     H62689   5.150   6.978   7.214  4.4986  1.7387 -1.3151
  475MOL0     H62690   4.995   7.206   7.391 -0.6101  2.0108  1.9290
  475MOL0     H62691   5.011   7.182   7.559 -0.3088  1.3556  0.1476
  475MOL0     H62692   4.798   7.265   7.550 -0.7371 -0.2975  0.5805
  475MOL0     H62693   4.737   7.150   7.416 -0.0702 -3.2183  0.2193
  475MOL0     H62694   4.751   7.120   7.725 -0.6403 -3.4101  1.9471
  475MOL0     H62695   4.822   6.992   7.631 -1.2457 -0.6530 -2.0352
  475MOL0     H62696   4.615   6.968   7.512  0.1352 -0.2057  0.0786
  475MOL0     H62697   4.599   6.928   7.688 -3.0876  2.0084  1.3601
  475MOL0     H62698   4.308   7.212   7.590 -0.5533  0.2295  0.1853
  475MOL0     H62699   5.123   6.970   7.645 -1.2406 -1.2795 -1.8916
  475MOL0     H62700   5.368   6.900   7.647 -0.4413  1.8392  0.4699
  476MOL0     O62701   4.543   4.128   4.644 -0.6387 -0.3426 -0.6653
  476MOL0     C62702   4.599   4.019   4.657 -1.0909  0.3774  0.0554
  476MOL0     O62703   4.549   3.900   4.621 -0.1360 -0.2355 -0.5841
  476MOL0     C62704   4.439   3.907   4.548  0.3510 -0.1373  1.0453
  476MOL0     C62705   4.437   3.988   4.433 -0.7985 -0.0095  0.3236
  476MOL0     C62706   4.316   4.004   4.373  0.0291 -0.7577 -1.1777
  476MOL0     C62707   4.202   3.930   4.416  0.0281  0.9314 -0.1506
  476MOL0     O62708   4.083   3.957   4.367  0.7420 -0.4685  0.3409
  476MOL0     C62709   4.037   3.869   4.261 -0.0118 -0.4319 -0.4708
  476MOL0     C62710   3.897   3.905   4.210 -0.3295 -0.2000 -0.5863
  476MOL0     C62711   3.840   3.826   4.092  0.1187 -1.0839 -0.5138
  476MOL0     C62712   3.707   3.884   4.022 -0.4402 -0.0966  0.0256
  476MOL0     C62713   3.658   3.768   3.945  0.7258  0.4206 -0.2038
  476MOL0     C62714   3.534   3.795   3.849 -0.5750 -0.1814  0.6640
  476MOL0     C62715   3.418   3.878   3.906 -0.0136 -1.0715 -0.3773
  476MOL0     C62716   3.300   3.889   3.809 -0.0687  0.2815 -0.4264
  476MOL0     N62717   3.211   3.775   3.804 -0.0918 -0.1217 -0.5107
  476MOL0     C62718   3.088   3.763   3.863  0.5017  0.3369 -0.0784
  476MOL0     C62719   3.037   3.646   3.809  0.6223 -0.1197 -0.5016
  476MOL0     C62720   2.889   3.603   3.820  0.4157 -1.3661 -0.5971
  476MOL0     C62721   2.783   3.698   3.757 -0.4294  0.4311 -0.3231
  476MOL0     C62722   2.634   3.664   3.772 -0.4628  0.4521 -0.3573
  476MOL0     C62723   2.551   3.696   3.651  0.8816  1.0859 -0.3538
  476MOL0     O62724   2.420   3.642   3.663  0.0032 -0.7467  0.1164
  476MOL0     C62725   2.338   3.653   3.559 -0.1061 -1.3710  0.1251
  476MOL0     C62726   2.360   3.733   3.447 -0.5485 -0.6445  0.3669
  476MOL0     C62727   2.265   3.772   3.357  0.5072  0.0139 -1.1011
  476MOL0     C62728   2.135   3.721   3.370 -0.2393  0.2275  0.6328
  476MOL0     C62729   2.017   3.761   3.288  0.1478 -0.5354  0.1178
  476MOL0     O62730   1.891   3.726   3.315 -0.5542  1.6889 -0.4337
  476MOL0     C62731   1.788   3.772   3.249  0.1493  0.5354  0.4334
  476MOL0     C62732   1.689   3.847   3.309 -0.1082  0.0925 -0.1893
  476MOL0     C62733   1.572   3.889   3.241  0.4734 -0.6522  0.6175
  476MOL0     C62734   1.558   3.856   3.102 -0.0235 -0.9921 -0.5495
  476MOL0     O62735   1.458   3.901   3.028  0.0329 -0.3334 -0.4508
  476MOL0     C62736   1.334   3.863   3.071  0.7296 -0.5235 -0.0385
  476MOL0     C62737   1.241   3.930   2.970 -0.2561 -0.3059 -0.4837
  476MOL0     C62738   1.096   3.933   3.030 -0.0544 -0.2871 -0.0774
  476MOL0     C62739   0.995   3.954   2.916  0.6942 -0.0131 -0.4336
  476MOL0     C62740   0.850   3.944   2.956  0.0275  0.2029  0.3585
  476MOL0     C62741   0.753   3.931   2.845  1.5660 -0.2382  0.1892
  476MOL0     C62742   0.604   3.936   2.891 -0.0068  0.3044 -0.7133
  476MOL0     C62743   0.550   3.796   2.935 -0.2371 -0.5580  0.5955
  476MOL0    Cl62744   0.375   3.801   2.941  0.3975 -0.1421  0.2470
  476MOL0     C62745   1.659   3.780   3.046  0.4701  0.0293 -0.2817
  476MOL0     C62746   1.772   3.740   3.116  1.2892  0.3090 -0.1621
  476MOL0     O62747   2.045   3.837   3.202 -0.4344  0.0043  0.2541
  476MOL0     C62748   2.121   3.618   3.472 -0.3319  0.4303  0.5573
  476MOL0     C62749   2.217   3.591   3.564 -0.5450 -0.0414 -0.6473
  476MOL0     N62750   3.132   3.584   3.737 -0.3997 -0.1173  0.0139
  476MOL0     N62751   3.238   3.658   3.740 -1.4202  0.5921 -0.0047
  476MOL0     C62752   4.213   3.831   4.510 -0.2565  0.6580 -0.9964
  476MOL0     C62753   4.335   3.825   4.582  0.1311 -0.0759  0.0782
  476MOL0     C62754   4.735   4.018   4.695 -0.7986 -0.4996 -0.6962
  476MOL0     C62755   4.774   3.932   4.798  0.0211 -0.4071 -0.7278
  476MOL0     C62756   4.904   3.937   4.854  1.3459  0.0970  0.7023
  476MOL0     C62757   4.996   4.024   4.810  0.3302  0.7915  0.4134
  476MOL0     O62758   5.109   4.069   4.873  0.0716  0.5347 -0.0891
  476MOL0     C62759   5.134   4.019   5.008 -0.0961  0.3371  0.5468
  476MOL0     C62760   5.250   4.100   5.064  0.4109 -0.0952  0.0611
  476MOL0     C62761   5.275   4.068   5.206  0.0252 -0.0651  0.6766
  476MOL0     C62762   5.390   4.147   5.264  0.7297 -0.2662 -0.2161
  476MOL0     C62763   5.387   4.298   5.270  0.3276  0.1953  0.1040
  476MOL0     C62764   5.383   4.421   5.267  0.0954  0.3786 -0.1443
  476MOL0     C62765   4.956   4.114   4.710  0.7200 -0.4342 -0.2716
  476MOL0     C62766   4.827   4.109   4.647 -0.4602 -0.6262  0.3247
  476MOL0     H62767   4.529   4.040   4.411 -1.1213  1.0298  1.3549
  476MOL0     H62768   4.311   4.085   4.301 -1.9822 -1.3504 -1.7696
  476MOL0     H62769   4.044   3.765   4.295  2.3511 -0.3186 -0.4515
  476MOL0     H62770   4.109   3.873   4.179  0.7285  5.1745  0.0401
  476MOL0     H62771   3.897   4.008   4.174 -0.2704 -0.8644 -2.6278
  476MOL0     H62772   3.831   3.901   4.297  2.0834 -1.0318  1.3462
  476MOL0     H62773   3.827   3.724   4.129  1.0875 -1.8651 -2.1848
  476MOL0     H62774   3.917   3.815   4.015  0.9253 -0.3952  0.1772
  476MOL0     H62775   3.628   3.909   4.093 -2.2355 -0.8604 -1.6097
  476MOL0     H62776   3.735   3.970   3.959 -1.1316  1.7827  2.1411
  476MOL0     H62777   3.620   3.702   4.024 -0.5894 -1.4533 -2.2511
  476MOL0     H62778   3.732   3.699   3.903 -0.3450 -0.3015 -0.9739
  476MOL0     H62779   3.498   3.696   3.820  0.5498 -0.2060 -0.7264
  476MOL0     H62780   3.573   3.844   3.759  1.0413 -0.9394  0.9201
  476MOL0     H62781   3.376   3.838   3.999 -2.2416 -0.4864 -1.0666
  476MOL0     H62782   3.462   3.976   3.925  0.8847 -1.5452  0.0435
  476MOL0     H62783   3.338   3.912   3.709  1.7086 -1.0676 -0.1060
  476MOL0     H62784   3.242   3.977   3.837  2.4673  1.0327  3.0305
  476MOL0     H62785   3.027   3.837   3.913 -2.4277 -1.6307 -0.5269
  476MOL0     H62786   2.865   3.599   3.927  0.4071  1.4665 -0.4144
  476MOL0     H62787   2.879   3.510   3.764  4.5575 -0.7424 -2.8218
  476MOL0     H62788   2.797   3.710   3.650 -5.4962 -0.2162 -1.3272
  476MOL0     H62789   2.805   3.796   3.799 -0.0617  0.3236 -0.2631
  476MOL0     H62790   2.620   3.559   3.801  0.2445  0.2428 -0.7375
  476MOL0     H62791   2.608   3.725   3.859 -0.2311 -0.3707  0.3091
  476MOL0     H62792   2.590   3.662   3.554 -2.6759  1.3108 -2.0243
  476MOL0     H62793   2.542   3.805   3.645  0.3636  1.1410  1.1385
  476MOL0     H62794   2.457   3.777   3.428 -0.8680 -0.5843 -1.2994
  476MOL0     H62795   2.285   3.845   3.279  0.4809  0.6092 -0.5615
  476MOL0     H62796   1.678   3.868   3.415 -2.0708  3.1514 -0.8767
  476MOL0     H62797   1.494   3.945   3.291 -1.1325 -1.2083 -1.1308
  476MOL0     H62798   1.306   3.905   3.168  1.4653  0.5287 -0.2579
  476MOL0     H62799   1.326   3.757   3.095  3.3081 -0.6781  0.3838
  476MOL0     H62800   1.242   3.877   2.874 -0.9305 -4.9589  1.8267
  476MOL0     H62801   1.273   4.033   2.953  2.3687 -0.8956  0.5307
  476MOL0     H62802   1.089   4.012   3.106 -0.3696  1.3150 -1.7128
  476MOL0     H62803   1.087   3.834   3.076 -3.7153  0.0707  0.2926
  476MOL0     H62804   1.011   4.055   2.876 -2.9567 -0.0824 -2.5300
  476MOL0     H62805   1.020   3.880   2.840  0.1981 -1.1196  0.4561
  476MOL0     H62806   0.831   4.027   3.025  0.9555  2.0274 -1.4792
  476MOL0     H62807   0.837   3.851   3.012  1.0817 -0.9330 -1.1881
  476MOL0     H62808   0.782   3.838   2.795  0.7780 -0.4441  0.0996
  476MOL0     H62809   0.776   4.013   2.776 -2.0487 -0.4878 -1.5490
  476MOL0     H62810   0.575   4.013   2.964 -0.0377 -1.2439  0.9646
  476MOL0     H62811   0.540   3.951   2.803 -3.7528  0.5311  1.8147
  476MOL0     H62812   0.576   3.787   3.041  0.4770  4.1626  1.0641
  476MOL0     H62813   0.585   3.716   2.869 -2.9033  0.3053 -2.0810
  476MOL0     H62814   1.655   3.759   2.940 -1.0520 -1.0589 -0.0437
  476MOL0     H62815   1.849   3.684   3.064  0.8959 -0.1059 -0.3030
  476MOL0     H62816   2.024   3.569   3.476  0.1225 -0.7437 -1.4667
  476MOL0     H62817   2.214   3.518   3.644  2.4992  0.2866 -0.1090
  476MOL0     H62818   4.136   3.767   4.552  0.2629  0.8841  0.3611
  476MOL0     H62819   4.331   3.761   4.670 -0.2114  1.5957  1.3242
  476MOL0     H62820   4.697   3.868   4.840  0.3181 -0.9832 -1.0450
  476MOL0     H62821   4.927   3.863   4.931  0.4149 -2.2881 -1.1923
  476MOL0     H62822   5.141   3.909   5.008 -0.6585  0.2978 -0.1115
  476MOL0     H62823   5.044   4.043   5.066 -0.7287  1.5017 -0.8474
  476MOL0     H62824   5.342   4.067   5.015  0.5897 -2.1267  1.6209
  476MOL0     H62825   5.238   4.208   5.048  2.8429 -0.0982 -2.5547
  476MOL0     H62826   5.304   3.963   5.201 -0.0738 -0.0388 -1.3430
  476MOL0     H62827   5.184   4.087   5.265  0.4899  0.4275  1.2518
  476MOL0     H62828   5.406   4.112   5.367 -0.3822 -4.0747 -1.1707
  476MOL0     H62829   5.488   4.116   5.226  0.1223 -0.7263 -1.4464
  476MOL0     H62830   5.372   4.528   5.272 -4.2414  0.0698  1.7973
  476MOL0     H62831   5.021   4.198   4.686 -2.5353  1.6634 -2.5721
  476MOL0     H62832   4.798   4.167   4.561  2.4630  0.4119 -0.0723
  477MOL0     O62833   8.239   9.273   5.857 -0.5160  0.2568 -0.2980
  477MOL0     C62834   8.276   9.386   5.820 -0.5613  0.4547  0.0148
  477MOL0     O62835   8.204   9.503   5.831 -0.5734  0.0089 -0.0495
  477MOL0     C62836   8.069   9.480   5.848 -0.7205  0.5859 -0.2004
  477MOL0     C62837   8.000   9.480   5.965  0.4425 -0.0969  0.0800
  477MOL0     C62838   7.865   9.465   5.967  0.1643  0.4132 -0.2175
  477MOL0     C62839   7.790   9.459   5.852 -0.2242  0.6811  0.1669
  477MOL0     O62840   7.654   9.452   5.850  0.1076 -0.2562  0.0779
  477MOL0     C62841   7.574   9.494   5.965 -0.3114 -0.9976 -0.1876
  477MOL0     C62842   7.423   9.484   5.926 -0.7567 -1.4356 -0.9737
  477MOL0     C62843   7.341   9.571   6.018  0.3160  0.4499  0.4495
  477MOL0     C62844   7.199   9.573   5.977  0.8444  0.3292  0.8385
  477MOL0     C62845   7.106   9.630   6.083 -0.1567 -0.1265  0.0403
  477MOL0     C62846   6.962   9.607   6.043  0.2076  0.0378  0.4411
  477MOL0     C62847   6.853   9.686   6.132 -0.1792  0.3929  1.6099
  477MOL0     C62848   6.716   9.698   6.056 -0.1258  0.4735 -0.4911
  477MOL0     N62849   6.645   9.568   6.064 -0.0913 -0.9646  0.3418
  477MOL0     C62850   6.515   9.548   6.104  0.1317  1.1573 -0.1134
  477MOL0     C62851   6.512   9.413   6.125 -0.1561 -0.3561  0.5948
  477MOL0     C62852   6.387   9.324   6.155 -1.0744 -0.4647 -0.6805
  477MOL0     C62853   6.345   9.252   6.024  0.0657 -0.4437 -0.1884
  477MOL0     C62854   6.399   9.107   6.025 -0.6403 -0.3913 -0.3821
  477MOL0     C62855   6.438   9.077   5.887 -0.0806  0.1769 -0.6314
  477MOL0     O62856   6.496   8.945   5.868 -0.0219  0.6274  0.8921
  477MOL0     C62857   6.630   8.930   5.896  0.5218 -0.7175  0.4711
  477MOL0     C62858   6.721   9.026   5.938  0.0508  0.0928 -0.2079
  477MOL0     C62859   6.852   8.980   5.963  0.6549  0.0761  0.1033
  477MOL0     C62860   6.899   8.846   5.936  0.9602 -1.0782 -0.4682
  477MOL0     C62861   7.039   8.822   5.928  0.2554  0.4237 -0.1759
  477MOL0     O62862   7.087   8.694   5.905 -0.2232 -0.2145 -0.1748
  477MOL0     C62863   7.222   8.679   5.858  0.2315 -0.4030  0.3627
  477MOL0     C62864   7.248   8.569   5.774 -0.4233 -0.9239  0.0563
  477MOL0     C62865   7.378   8.535   5.730  0.7696 -0.1318  0.4631
  477MOL0     C62866   7.485   8.609   5.775 -0.7633 -0.1444  0.3892
  477MOL0     O62867   7.607   8.581   5.716  0.0840 -0.0035 -0.3024
  477MOL0     C62868   7.729   8.640   5.762 -0.7028  0.9866 -0.5623
  477MOL0     C62869   7.857   8.575   5.700  0.2134 -0.4906 -0.3134
  477MOL0     C62870   7.986   8.644   5.737 -0.0826 -0.7042 -0.3324
  477MOL0     C62871   7.983   8.795   5.732  0.4643 -0.3351 -0.4487
  477MOL0     C62872   8.121   8.849   5.764  0.7987 -0.0337 -0.9566
  477MOL0     C62873   8.212   8.862   5.645 -0.8295  0.0048  0.1292
  477MOL0     C62874   8.347   8.919   5.684 -0.0168  0.7450 -0.6340
  477MOL0     C62875   8.447   8.893   5.574  0.6139 -0.2959  0.0158
  477MOL0    Cl62876   8.587   9.006   5.603  0.1817 -0.3303  0.1297
  477MOL0     C62877   7.459   8.717   5.867  0.0423  0.2085  0.6018
  477MOL0     C62878   7.328   8.742   5.907 -0.8243  0.6040  0.0278
  477MOL0     O62879   7.110   8.926   5.933  0.0543  0.9805  0.2751
  477MOL0     C62880   6.801   8.754   5.920  0.7434  0.8246 -0.7483
  477MOL0     C62881   6.671   8.796   5.906 -0.2995  0.2637 -0.1162
  477MOL0     N62882   6.628   9.351   6.098  0.1582  0.0983 -0.1705
  477MOL0     N62883   6.709   9.444   6.073 -1.0942  0.4552 -0.4890
  477MOL0     C62884   7.861   9.461   5.733 -0.1575 -0.1767  0.7550
  477MOL0     C62885   7.999   9.474   5.727 -0.3001  0.0696  0.3304
  477MOL0     C62886   8.415   9.398   5.755  0.6077  0.0141 -0.2405
  477MOL0     C62887   8.507   9.289   5.758 -0.4816 -0.1288  0.3275
  477MOL0     C62888   8.639   9.310   5.714  0.2083 -0.4506  0.5764
  477MOL0     C62889   8.684   9.437   5.681 -1.3823  0.5465  0.5431
  477MOL0     O62890   8.811   9.469   5.624  0.1569  0.3511  0.1150
  477MOL0     C62891   8.906   9.370   5.578  0.5905  0.2428 -0.4389
  477MOL0     C62892   9.033   9.371   5.670 -0.8702 -0.1387  0.0493
  477MOL0     C62893   9.139   9.266   5.619 -0.6355  0.4061 -0.2286
  477MOL0     C62894   9.158   9.283   5.469 -0.0175 -0.7130  0.3592
  477MOL0     C62895   9.291   9.237   5.443  0.6826  0.0138  1.0029
  477MOL0     C62896   9.405   9.215   5.411  0.3669  0.9414  0.0772
  477MOL0     C62897   8.590   9.543   5.678 -0.4219 -0.3470 -0.2743
  477MOL0     C62898   8.457   9.525   5.722  0.2280  0.4639  0.3088
  477MOL0     H62899   8.041   9.471   6.065 -0.1872  1.1901  0.4774
  477MOL0     H62900   7.809   9.446   6.058  1.2626 -2.6297 -0.0656
  477MOL0     H62901   7.610   9.594   5.990  1.1473 -1.3098 -0.9480
  477MOL0     H62902   7.582   9.426   6.050  0.2304 -1.1630 -0.3654
  477MOL0     H62903   7.397   9.378   5.920 -0.3355 -1.8862  2.5836
  477MOL0     H62904   7.425   9.540   5.833 -1.9105 -1.0502 -0.7723
  477MOL0     H62905   7.380   9.673   6.022 -0.3295  0.6916  0.6833
  477MOL0     H62906   7.359   9.544   6.122 -2.1010  0.4927  0.9225
  477MOL0     H62907   7.182   9.631   5.885  2.1298 -1.2003 -0.4219
  477MOL0     H62908   7.167   9.470   5.959 -0.4376  0.5211  1.8757
  477MOL0     H62909   7.115   9.739   6.093  0.6581 -0.2038  0.2324
  477MOL0     H62910   7.132   9.579   6.176  2.6067 -0.6357 -0.9018
  477MOL0     H62911   6.945   9.500   6.036  1.1504 -0.0088 -2.0752
  477MOL0     H62912   6.955   9.642   5.939  0.3954  0.5775  0.6071
  477MOL0     H62913   6.826   9.637   6.226  1.6697 -1.9831  1.0015
  477MOL0     H62914   6.898   9.785   6.147  0.6946  0.8516 -2.8046
  477MOL0     H62915   6.737   9.717   5.950  1.2314  0.7188 -0.1887
  477MOL0     H62916   6.656   9.773   6.108 -0.2841  0.9162 -1.2925
  477MOL0     H62917   6.447   9.626   6.136  1.2772  2.0031  0.3440
  477MOL0     H62918   6.310   9.382   6.207  0.3465 -1.6566  3.1097
  477MOL0     H62919   6.417   9.254   6.234 -1.1294  0.3408  0.0691
  477MOL0     H62920   6.366   9.300   5.928 -4.4712  0.0100 -1.1677
  477MOL0     H62921   6.236   9.249   6.028 -0.1089  0.8454 -2.3043
  477MOL0     H62922   6.489   9.094   6.085  1.5083  0.7503 -3.1342
  477MOL0     H62923   6.319   9.044   6.064 -0.4637 -0.7562 -0.6015
  477MOL0     H62924   6.512   9.139   5.837  0.6301 -1.2889 -1.4806
  477MOL0     H62925   6.349   9.073   5.823  0.9214 -1.2016 -2.0320
  477MOL0     H62926   6.706   9.133   5.936 -0.4158  0.0478  0.4522
  477MOL0     H62927   6.919   9.059   5.996 -1.0567  2.1145 -0.9735
  477MOL0     H62928   7.164   8.516   5.729  1.0978 -0.5274 -3.6496
  477MOL0     H62929   7.387   8.453   5.660  2.1818 -0.7885  1.3668
  477MOL0     H62930   7.724   8.618   5.869 -0.0862  2.1090 -0.2828
  477MOL0     H62931   7.725   8.746   5.737  0.1979  0.9094 -1.1062
  477MOL0     H62932   7.832   8.594   5.595 -1.0474 -2.3110 -0.3874
  477MOL0     H62933   7.859   8.466   5.701  1.6140 -0.4819 -0.0377
  477MOL0     H62934   8.067   8.609   5.673  1.1485  0.5397  0.4848
  477MOL0     H62935   8.012   8.612   5.838  2.4495 -2.6297 -1.4849
  477MOL0     H62936   7.959   8.822   5.628 -2.0064 -0.1114  0.0993
  477MOL0     H62937   7.907   8.839   5.798 -0.0862 -1.9627  0.0371
  477MOL0     H62938   8.168   8.788   5.841 -1.6601 -2.8256 -1.4852
  477MOL0     H62939   8.109   8.950   5.805  3.0050  0.0923 -0.4861
  477MOL0     H62940   8.179   8.942   5.579 -0.7705  0.1811  0.3138
  477MOL0     H62941   8.214   8.765   5.594 -2.6441  0.6764 -1.3368
  477MOL0     H62942   8.341   9.022   5.720  1.7250  0.6200  0.1178
  477MOL0     H62943   8.384   8.854   5.763 -1.1412  1.0472  0.1692
  477MOL0     H62944   8.404   8.913   5.475 -2.3386  0.6806  1.3891
  477MOL0     H62945   8.473   8.787   5.582  1.5899 -0.3366 -2.5606
  477MOL0     H62946   7.545   8.777   5.894  3.4426 -2.2053 -3.5513
  477MOL0     H62947   7.320   8.814   5.987 -0.2686 -0.1599  0.7879
  477MOL0     H62948   6.835   8.654   5.946  0.1654  1.2533  1.8992
  477MOL0     H62949   6.592   8.721   5.899 -2.6890  2.3886  2.1805
  477MOL0     H62950   7.819   9.464   5.633  1.0636  3.1636  0.2124
  477MOL0     H62951   8.052   9.475   5.633  0.2214  1.8071  0.6032
  477MOL0     H62952   8.477   9.191   5.793  1.3367 -0.7075  0.3174
  477MOL0     H62953   8.719   9.237   5.720 -0.3237 -1.2324 -1.1561
  477MOL0     H62954   8.934   9.386   5.473  2.3526  1.2343  0.1358
  477MOL0     H62955   8.862   9.270   5.579  1.6614 -0.2377 -0.4881
  477MOL0     H62956   9.067   9.474   5.682 -2.4090  0.2394  1.6092
  477MOL0     H62957   8.984   9.344   5.764 -3.0836  0.2022 -0.9495
  477MOL0     H62958   9.122   9.159   5.637 -0.0434 -0.2063 -2.9245
  477MOL0     H62959   9.232   9.278   5.675 -1.2670  0.2264  0.9044
  477MOL0     H62960   9.082   9.231   5.409  0.1319 -1.5287  0.8606
  477MOL0     H62961   9.165   9.390   5.448  4.9543 -0.9370 -0.1185
  477MOL0     H62962   9.508   9.216   5.382  0.4403  1.7913  0.3344
  477MOL0     H62963   8.632   9.640   5.654 -0.9569  0.2417  1.0810
  477MOL0     H62964   8.395   9.614   5.728 -1.3208 -0.6116  0.7512
  478MOL0     O62965   6.469   6.619   8.343 -0.8254  0.3879  0.3483
  478MOL0     C62966   6.558   6.576   8.416 -0.3216  0.2354  0.3842
  478MOL0     O62967   6.698   6.592   8.400 -0.1547 -0.2573 -0.1228
  478MOL0     C62968   6.751   6.654   8.288  0.1878  0.1100  0.2007
  478MOL0     C62969   6.883   6.633   8.264  0.6333 -0.1598 -0.2466
  478MOL0     C62970   6.944   6.690   8.159  0.2212 -0.2572  1.1525
  478MOL0     C62971   6.875   6.765   8.061 -0.4681 -1.1297 -0.0517
  478MOL0     O62972   6.947   6.836   7.960  0.0022  0.0335  0.5853
  478MOL0     C62973   6.997   6.972   8.004 -0.0045  0.1595  0.4599
  478MOL0     C62974   7.098   7.030   7.905 -0.1718  0.7055  0.6940
  478MOL0     C62975   7.163   7.140   7.981 -0.9050 -0.9833 -0.5040
  478MOL0     C62976   7.247   7.226   7.897 -0.0190  0.7000  0.3081
  478MOL0     C62977   7.387   7.165   7.873 -0.0880 -0.2680  1.1647
  478MOL0     C62978   7.493   7.261   7.806 -0.4249  0.1974 -0.0451
  478MOL0     C62979   7.429   7.362   7.706  0.1228  0.1900 -1.2562
  478MOL0     C62980   7.534   7.450   7.649 -0.2178 -0.5918 -0.1082
  478MOL0     N62981   7.503   7.504   7.520 -0.1830 -0.4514 -0.4248
  478MOL0     C62982   7.447   7.626   7.490 -0.2525  0.4756 -1.3751
  478MOL0     C62983   7.431   7.632   7.355 -0.1577  0.2291 -0.4117
  478MOL0     C62984   7.394   7.757   7.282  0.5160  0.1688  0.2133
  478MOL0     C62985   7.258   7.817   7.326 -0.1777  0.7783  0.3541
  478MOL0     C62986   7.275   7.924   7.430  1.0744 -0.4888  0.6712
  478MOL0     C62987   7.141   7.951   7.507 -0.4430  0.0783 -0.3883
  478MOL0     O62988   7.099   7.829   7.574  0.4787 -0.7886 -0.1106
  478MOL0     C62989   6.974   7.845   7.626 -0.2596 -0.5265  1.0127
  478MOL0     C62990   6.888   7.734   7.616 -0.0783  0.0696  0.2182
  478MOL0     C62991   6.764   7.721   7.671  0.2969 -0.2748  0.1608
  478MOL0     C62992   6.704   7.838   7.712  0.6372  0.2227 -0.0586
  478MOL0     C62993   6.563   7.844   7.768 -0.8343 -1.0077  0.2960
  478MOL0     O62994   6.526   7.969   7.828  0.0925  0.1462  0.5366
  478MOL0     C62995   6.403   7.968   7.876 -0.2485 -0.5206  0.1542
  478MOL0     C62996   6.380   7.936   8.015  0.6476  0.5786  0.3913
  478MOL0     C62997   6.250   7.930   8.060  0.3476  0.3015  0.8664
  478MOL0     C62998   6.138   7.965   7.975 -0.4424 -0.6926  0.0521
  478MOL0     O62999   6.008   7.970   8.013  0.0644 -0.4624 -0.5714
  478MOL0     C63000   5.974   7.959   8.152 -1.1581  0.0246  0.2886
  478MOL0     C63001   5.958   7.804   8.176 -0.2914  1.0771 -0.3979
  478MOL0     C63002   5.815   7.758   8.195 -0.0510  0.5237 -0.6485
  478MOL0     C63003   5.730   7.824   8.301 -0.2836 -1.1233 -0.1215
  478MOL0     C63004   5.598   7.760   8.315  0.2728  0.7418  0.0392
  478MOL0     C63005   5.521   7.815   8.438 -0.9618  0.6122 -0.1397
  478MOL0     C63006   5.402   7.731   8.483  0.6369  0.3738  0.6281
  478MOL0     C63007   5.317   7.817   8.589 -0.2676 -0.3524 -0.4995
  478MOL0    Cl63008   5.430   7.828   8.736  0.0627  0.0645 -0.0532
  478MOL0     C63009   6.171   8.006   7.842  0.7137  0.2738 -1.8575
  478MOL0     C63010   6.298   8.011   7.797  0.6291  0.2912  0.5428
  478MOL0     O63011   6.493   7.745   7.760 -0.2631  1.0440 -0.0448
  478MOL0     C63012   6.784   7.958   7.714  0.6863  1.1180  0.5481
  478MOL0     C63013   6.916   7.960   7.679 -0.9577 -0.1043 -0.4443
  478MOL0     N63014   7.485   7.518   7.307  0.0690 -0.0811 -0.3188
  478MOL0     N63015   7.537   7.449   7.405  0.5597  0.1287 -0.0665
  478MOL0     C63016   6.741   6.789   8.081 -0.2931 -0.1693 -0.5182
  478MOL0     C63017   6.684   6.740   8.197 -0.2316  0.3900 -0.6289
  478MOL0     C63018   6.496   6.524   8.534 -0.1787  0.2472 -1.1730
  478MOL0     C63019   6.583   6.451   8.619  0.6082 -1.1407 -0.2211
  478MOL0     C63020   6.545   6.413   8.747  0.7034  0.0469  0.0092
  478MOL0     C63021   6.417   6.427   8.789  0.4978  0.7682 -0.1869
  478MOL0     O63022   6.379   6.363   8.898  0.3015  0.1915 -0.5930
  478MOL0     C63023   6.232   6.357   8.936  0.2182 -0.2824 -0.3912
  478MOL0     C63024   6.219   6.286   9.067 -0.6264 -0.9314  0.0673
  478MOL0     C63025   6.082   6.258   9.101  0.3084  0.0678 -0.7548
  478MOL0     C63026   6.001   6.384   9.120  0.5624 -0.4301  0.1744
  478MOL0     C63027   5.858   6.354   9.155 -1.0621 -0.5136  0.6566
  478MOL0     C63028   5.746   6.334   9.186  0.6586  0.4266  0.6861
  478MOL0     C63029   6.327   6.492   8.707  0.3834  0.3202 -0.4128
  478MOL0     C63030   6.370   6.550   8.584  0.6025 -0.0593  0.2544
  478MOL0     H63031   6.941   6.563   8.323  3.2684  0.4027 -2.0076
  478MOL0     H63032   7.048   6.686   8.129 -0.1223  2.4113 -0.6474
  478MOL0     H63033   7.029   6.970   8.108  0.1269  1.3740  0.4604
  478MOL0     H63034   6.910   7.039   7.995 -2.2205 -2.2780  2.3047
  478MOL0     H63035   7.041   7.070   7.821  1.7803  1.5909 -0.2557
  478MOL0     H63036   7.171   6.958   7.866 -1.9937 -0.0309 -1.5339
  478MOL0     H63037   7.230   7.105   8.060  0.3805 -1.0296 -1.5678
  478MOL0     H63038   7.098   7.205   8.040  1.8068  2.4236 -0.9294
  478MOL0     H63039   7.193   7.239   7.803  0.0023 -0.2238  0.1604
  478MOL0     H63040   7.260   7.326   7.940  3.7780  0.9682 -1.0700
  478MOL0     H63041   7.378   7.085   7.800 -0.7085  2.8915 -2.5403
  478MOL0     H63042   7.427   7.127   7.968 -3.3756 -1.9008  2.0286
  478MOL0     H63043   7.565   7.195   7.757  0.5195  1.0955  0.0926
  478MOL0     H63044   7.547   7.319   7.882  1.4493 -1.2862 -0.1915
  478MOL0     H63045   7.372   7.308   7.630  0.1331  1.3217 -2.0808
  478MOL0     H63046   7.362   7.431   7.758 -0.0303  0.0732 -1.2976
  478MOL0     H63047   7.629   7.397   7.644  1.5066  2.3667 -0.5521
  478MOL0     H63048   7.546   7.531   7.722 -1.6706 -1.1760  0.8317
  478MOL0     H63049   7.437   7.706   7.563 -2.1698 -0.9781  0.0614
  478MOL0     H63050   7.396   7.737   7.174  0.5620  0.6975  0.1117
  478MOL0     H63051   7.475   7.828   7.302  1.3132 -1.1686  1.9770
  478MOL0     H63052   7.193   7.739   7.366 -0.8600 -0.0817 -2.2114
  478MOL0     H63053   7.207   7.854   7.236 -1.5305 -0.6506  0.4887
  478MOL0     H63054   7.351   7.889   7.501  0.9295 -0.5655  0.7910
  478MOL0     H63055   7.313   8.017   7.389 -2.4230  1.2980  1.0773
  478MOL0     H63056   7.075   7.966   7.420  1.3041 -1.8973 -2.1623
  478MOL0     H63057   7.150   8.034   7.577  3.7505  0.5321 -1.2333
  478MOL0     H63058   6.933   7.644   7.575 -1.9255 -0.9429  0.2544
  478MOL0     H63059   6.714   7.624   7.664 -1.8736  0.8511 -0.8777
  478MOL0     H63060   6.463   7.915   8.082 -0.4618 -0.9213  1.3493
  478MOL0     H63061   6.219   7.909   8.162 -2.0470  1.3479  0.4230
  478MOL0     H63062   5.880   8.014   8.158  0.0114  2.1378  0.1210
  478MOL0     H63063   6.040   8.006   8.226 -2.4585 -2.6301  3.3581
  478MOL0     H63064   6.015   7.772   8.264 -2.0828  2.1020  1.2231
  478MOL0     H63065   5.989   7.746   8.089 -0.0115  1.7332 -0.7400
  478MOL0     H63066   5.812   7.653   8.225  0.2704  0.7094  0.0610
  478MOL0     H63067   5.764   7.767   8.098  1.6285 -2.1315 -1.9005
  478MOL0     H63068   5.793   7.812   8.389  2.3262 -0.5049 -1.8033
  478MOL0     H63069   5.720   7.933   8.298 -1.7223 -1.1572  1.5961
  478MOL0     H63070   5.615   7.653   8.331 -0.3066  1.1237  4.9870
  478MOL0     H63071   5.526   7.768   8.233  0.8897 -0.8550 -0.6930
  478MOL0     H63072   5.495   7.918   8.413  3.1767  2.0031  0.6120
  478MOL0     H63073   5.591   7.812   8.522  2.5963 -2.1161 -2.8968
  478MOL0     H63074   5.341   7.709   8.395 -0.5649  0.8011  1.3274
  478MOL0     H63075   5.439   7.641   8.533  2.0168  1.7251  2.1549
  478MOL0     H63076   5.225   7.768   8.621  0.5144 -0.8501  1.1296
  478MOL0     H63077   5.297   7.915   8.546  2.3746 -0.0303 -1.2150
  478MOL0     H63078   6.083   8.036   7.787  0.3635 -1.9510 -2.6313
  478MOL0     H63079   6.319   8.023   7.691  2.0180 -1.4337  0.5713
  478MOL0     H63080   6.744   8.052   7.752  2.6328  0.9646  3.1886
  478MOL0     H63081   6.980   8.047   7.679 -0.7168 -0.2696 -1.2385
  478MOL0     H63082   6.688   6.856   8.014 -2.0810 -0.1458  0.8372
  478MOL0     H63083   6.582   6.776   8.212 -1.0132 -2.5686  2.4300
  478MOL0     H63084   6.683   6.421   8.588  1.8038 -0.3286  2.5138
  478MOL0     H63085   6.611   6.351   8.806 -1.6131 -1.1760  1.4902
  478MOL0     H63086   6.182   6.300   8.857  1.6449 -2.4243  0.1394
  478MOL0     H63087   6.186   6.455   8.951 -0.1663 -0.3811 -0.8834
  478MOL0     H63088   6.263   6.186   9.054 -1.2802 -0.9145 -2.9939
  478MOL0     H63089   6.274   6.340   9.145 -2.2555  0.3643  0.3571
  478MOL0     H63090   6.091   6.206   9.196  1.9452 -1.3597 -1.6242
  478MOL0     H63091   6.048   6.193   9.020 -0.1448 -0.9982  0.2690
  478MOL0     H63092   6.039   6.445   9.203  2.2946  0.2222 -1.0567
  478MOL0     H63093   5.984   6.428   9.021 -0.7673 -1.0392  0.1040
  478MOL0     H63094   5.644   6.316   9.216  0.8060 -2.0620 -0.0395
  478MOL0     H63095   6.223   6.508   8.735  0.5054  0.3421  0.0241
  478MOL0     H63096   6.288   6.598   8.531 -0.6453  0.9424  2.9247
  479MOL0     O63097   1.646   6.025   9.789  0.1949 -0.2238  0.3884
  479MOL0     C63098   1.752   5.973   9.829  0.0922 -0.1131  1.3165
  479MOL0     O63099   1.766   5.867   9.918  0.0852  0.5275 -0.0060
  479MOL0     C63100   1.670   5.879  10.024  0.0829  0.6788 -0.4559
  479MOL0     C63101   1.617   5.998  10.084 -0.4170 -0.3015  0.0507
  479MOL0     C63102   1.508   5.999  10.172 -0.2870 -0.1815 -0.1423
  479MOL0     C63103   1.458   5.878  10.228  0.7213  0.4718  0.0228
  479MOL0     O63104   1.359   5.885  10.327  0.1098  0.0688  0.9689
  479MOL0     C63105   1.220   5.903  10.295  0.0803 -0.0338 -0.3973
  479MOL0     C63106   1.122   5.892  10.415 -0.5049 -0.7370 -0.9722
  479MOL0     C63107   0.979   5.921  10.369  0.1292 -1.0979 -0.3639
  479MOL0     C63108   0.889   5.938  10.501 -0.2524  0.2256  0.5992
  479MOL0     C63109   0.740   5.904  10.496  0.4322  0.2656  0.4220
  479MOL0     C63110   0.665   5.991  10.383 -0.1344 -0.1168 -0.0191
  479MOL0     C63111   0.517   5.988  10.432  0.1527  0.3136  0.6624
  479MOL0     C63112   0.425   6.074  10.341  0.2033  0.1099  0.1952
  479MOL0     N63113   0.295   6.087  10.405 -0.4214 -0.4375 -1.2663
  479MOL0     C63114   0.248   6.192  10.477  0.6493 -0.1409 -0.3776
  479MOL0     C63115   0.112   6.182  10.474 -0.3331 -0.1659 -0.0969
  479MOL0     C63116   0.021   6.269  10.540  0.5852 -0.1243  0.5504
  479MOL0     C63117  -0.091   6.312  10.441 -0.4140  0.6965 -0.3293
  479MOL0     C63118  -0.189   6.419  10.486  1.3129 -0.0821  0.5663
  479MOL0     C63119  -0.204   6.451  10.629  0.5715 -0.0414 -0.9307
  479MOL0     O63120  -0.317   6.536  10.643  0.2959  0.3783  0.4689
  479MOL0     C63121  -0.440   6.478  10.676  0.0287  0.2184  0.5641
  479MOL0     C63122  -0.487   6.346  10.657 -0.1175 -0.3404  1.2034
  479MOL0     C63123  -0.615   6.317  10.688 -0.2984  0.5320  0.5515
  479MOL0     C63124  -0.707   6.415  10.730  0.4894 -0.3809  0.6584
  479MOL0     C63125  -0.847   6.377  10.774  0.4387 -0.5458 -0.8942
  479MOL0     O63126  -0.880   6.243  10.756 -0.0269 -0.3481  1.2509
  479MOL0     C63127  -1.019   6.213  10.760 -0.2164  0.2421 -0.0428
  479MOL0     C63128  -1.096   6.231  10.876 -0.2279  0.0847  0.1126
  479MOL0     C63129  -1.227   6.205  10.874  1.5285  0.1911  1.4859
  479MOL0     C63130  -1.285   6.136  10.764  0.4100 -0.6417 -0.7608
  479MOL0     O63131  -1.420   6.102  10.777  0.1990 -0.3385  0.7125
  479MOL0     C63132  -1.494   6.069  10.655 -1.0221 -0.0541  0.3617
  479MOL0     C63133  -1.635   6.042  10.693  1.0865 -0.8791  0.2082
  479MOL0     C63134  -1.656   5.914  10.781 -1.0614 -0.3620  0.5944
  479MOL0     C63135  -1.622   5.779  10.714  1.0713 -0.9161 -0.1225
  479MOL0     C63136  -1.640   5.675  10.820  0.5075 -0.4162 -0.1428
  479MOL0     C63137  -1.607   5.544  10.763 -0.3440 -0.5517 -0.1145
  479MOL0     C63138  -1.705   5.482  10.658  0.7888  0.6381 -0.3612
  479MOL0     C63139  -1.667   5.338  10.611  0.7501 -0.3425  0.4961
  479MOL0    Cl63140  -1.798   5.290  10.507  0.0999 -0.0968 -0.3322
  479MOL0     C63141  -1.206   6.114  10.654  0.2970  1.2901  0.8969
  479MOL0     C63142  -1.073   6.161  10.641  0.1323  0.3604 -0.3341
  479MOL0     O63143  -0.916   6.458  10.829  0.2400 -0.2963 -1.1881
  479MOL0     C63144  -0.664   6.547  10.734 -0.3893 -0.4117 -0.1218
  479MOL0     C63145  -0.534   6.574  10.700  0.0401  0.7446 -0.1658
  479MOL0     N63146   0.087   6.060  10.414 -0.3816  0.0961  0.2803
  479MOL0     N63147   0.193   6.009  10.365 -0.4471 -0.3424 -0.0581
  479MOL0     C63148   1.514   5.751  10.187 -0.4015  0.0037 -0.4228
  479MOL0     C63149   1.609   5.761  10.077 -0.0561 -0.2630 -0.0494
  479MOL0     C63150   1.878   6.028   9.772 -0.3032  0.0743 -0.4503
  479MOL0     C63151   1.990   5.944   9.740  0.3365  0.0273  0.7891
  479MOL0     C63152   2.105   6.003   9.680  0.7311  0.2066 -0.7642
  479MOL0     C63153   2.106   6.142   9.654  0.7045 -0.1788 -0.4029
  479MOL0     O63154   2.217   6.197   9.601 -1.1291 -0.4786 -0.3416
  479MOL0     C63155   2.334   6.142   9.659  0.2181  0.1719 -0.2925
  479MOL0     C63156   2.442   6.238   9.634 -0.1372  1.0281 -0.1679
  479MOL0     C63157   2.461   6.268   9.485 -0.3341 -0.1684  0.1504
  479MOL0     C63158   2.596   6.332   9.455  0.3523  0.3138  0.3334
  479MOL0     C63159   2.621   6.353   9.309  0.0384  0.4541  0.2596
  479MOL0     C63160   2.651   6.353   9.188 -0.8369 -1.1502 -0.7663
  479MOL0     C63161   1.996   6.229   9.680 -0.8651  0.8357 -0.5882
  479MOL0     C63162   1.884   6.164   9.740 -0.0159 -0.5539  0.4051
  479MOL0     H63163   1.648   6.092  10.040 -1.5152 -0.4242 -1.0340
  479MOL0     H63164   1.467   6.098  10.191 -1.7024 -1.1591  2.4215
  479MOL0     H63165   1.181   5.824  10.230 -2.6830  0.1849  0.8631
  479MOL0     H63166   1.218   5.993  10.233  2.4885 -0.5477 -1.3547
  479MOL0     H63167   1.154   5.972  10.482  0.9441 -1.0964 -1.2046
  479MOL0     H63168   1.118   5.794  10.463 -0.7282 -0.7772 -1.0715
  479MOL0     H63169   0.947   5.836  10.308 -2.0650 -1.3653  1.0784
  479MOL0     H63170   0.973   6.018  10.319  3.2960 -1.2385 -1.2895
  479MOL0     H63171   0.932   5.866  10.570 -1.8718  0.0422  1.4526
  479MOL0     H63172   0.897   6.040  10.541 -2.0191  0.6535 -0.0667
  479MOL0     H63173   0.699   5.913  10.598  1.8420  1.2960  0.9333
  479MOL0     H63174   0.726   5.800  10.467  0.1099  0.9443 -2.0646
  479MOL0     H63175   0.674   5.940  10.287 -1.9700  0.8001 -0.7278
  479MOL0     H63176   0.704   6.093  10.378  0.7817 -0.4360  0.4530
  479MOL0     H63177   0.479   5.886  10.442 -0.6401  0.6443  1.0802
  479MOL0     H63178   0.517   6.036  10.530  0.2224  2.1897 -0.2124
  479MOL0     H63179   0.408   6.019  10.248  0.5957  1.9780 -1.0388
  479MOL0     H63180   0.459   6.175  10.318 -0.3145 -0.2681 -2.6043
  479MOL0     H63181   0.301   6.275  10.522  1.3903 -1.6677  1.7554
  479MOL0     H63182   0.073   6.359  10.574  1.9390 -0.9715  0.7566
  479MOL0     H63183  -0.044   6.221  10.613 -2.4720 -1.2786 -2.6524
  479MOL0     H63184  -0.145   6.218  10.427 -0.3554  0.2380  2.0439
  479MOL0     H63185  -0.035   6.337  10.351 -0.7135  4.7735  0.4141
  479MOL0     H63186  -0.162   6.519  10.449 -2.9492  1.4986  1.1237
  479MOL0     H63187  -0.286   6.390  10.445  1.8535  1.0405 -1.7173
  479MOL0     H63188  -0.119   6.512  10.662 -0.8076  1.3902  0.1249
  479MOL0     H63189  -0.220   6.362  10.691 -3.1036  0.2524 -1.2048
  479MOL0     H63190  -0.428   6.269  10.608 -0.8401 -0.5484  0.6245
  479MOL0     H63191  -0.661   6.219  10.678 -0.9281  0.9324 -0.6749
  479MOL0     H63192  -1.059   6.286  10.962 -1.5172 -0.5519  1.1231
  479MOL0     H63193  -1.296   6.243  10.949 -0.3303 -0.4287  0.1638
  479MOL0     H63194  -1.458   5.992  10.586 -0.0152  3.4318 -3.3760
  479MOL0     H63195  -1.492   6.155  10.588 -5.0064 -0.2466 -0.2437
  479MOL0     H63196  -1.690   6.032  10.599  0.3265 -0.2136  0.5696
  479MOL0     H63197  -1.663   6.125  10.759 -2.1193 -0.5846 -1.3304
  479MOL0     H63198  -1.758   5.911  10.819 -1.7388 -3.5776 -1.1564
  479MOL0     H63199  -1.593   5.930  10.869 -1.1514  0.3642  0.5324
  479MOL0     H63200  -1.696   5.766  10.635 -0.3503  2.8154  0.3845
  479MOL0     H63201  -1.520   5.790  10.676 -0.1672 -0.1287 -3.5380
  479MOL0     H63202  -1.745   5.677  10.851  0.9498  0.2463  1.4617
  479MOL0     H63203  -1.589   5.697  10.915 -1.9812 -0.0904  1.2106
  479MOL0     H63204  -1.579   5.469  10.837  2.1382  1.1080  0.7693
  479MOL0     H63205  -1.506   5.549  10.720 -1.1706  1.8633 -1.9963
  479MOL0     H63206  -1.799   5.472  10.714 -2.0071  0.9532 -4.5845
  479MOL0     H63207  -1.727   5.541  10.569  1.2229 -2.1769 -2.4409
  479MOL0     H63208  -1.649   5.274  10.698 -1.3383 -3.2317 -1.0340
  479MOL0     H63209  -1.579   5.347  10.545 -0.3126  3.2853 -0.6900
  479MOL0     H63210  -1.245   6.064  10.566  3.1114 -2.4222  1.5148
  479MOL0     H63211  -1.001   6.152  10.561  0.9094 -3.6127  0.5925
  479MOL0     H63212  -0.737   6.619  10.770 -1.7676 -0.4782 -2.5276
  479MOL0     H63213  -0.508   6.679  10.697  0.6394  0.5856 -1.1508
  479MOL0     H63214   1.467   5.661  10.225 -3.1231  1.1292 -0.9669
  479MOL0     H63215   1.639   5.670  10.026 -1.5861 -1.5536  1.2420
  479MOL0     H63216   1.978   5.836   9.738  2.8497 -0.3727  2.8656
  479MOL0     H63217   2.188   5.942   9.646  1.1953 -1.4478  2.8632
  479MOL0     H63218   2.357   6.044   9.616  0.5163  0.4117 -0.6930
  479MOL0     H63219   2.320   6.126   9.766 -2.1459 -0.0655 -0.5853
  479MOL0     H63220   2.421   6.328   9.691  3.7003  0.7678  2.0085
  479MOL0     H63221   2.530   6.190   9.678 -0.1045 -0.0004 -1.2962
  479MOL0     H63222   2.388   6.342   9.452  1.9444  1.8084 -0.8052
  479MOL0     H63223   2.452   6.174   9.430 -1.2058  0.0604 -0.1080
  479MOL0     H63224   2.592   6.433   9.497 -0.6140  1.0043 -1.3520
  479MOL0     H63225   2.682   6.276   9.495  0.2431  0.1183  0.2981
  479MOL0     H63226   2.659   6.355   9.081 -2.8119 -0.0222 -0.9434
  479MOL0     H63227   2.001   6.334   9.653  1.3187  0.6391 -1.2124
  479MOL0     H63228   1.788   6.215   9.741  0.0022 -0.4646 -0.5789
  480MOL0     O63229  10.059   5.144   3.971 -0.4947 -0.0352 -0.2618
  480MOL0     C63230  10.096   5.043   4.040  0.4708  0.2890  0.5511
  480MOL0     O63231  10.022   4.927   4.054 -0.4993  0.3311 -0.5055
  480MOL0     C63232   9.899   4.919   3.987 -0.0164 -0.5635 -0.2921
  480MOL0     C63233   9.883   4.912   3.848 -0.4686 -0.1524 -0.9497
  480MOL0     C63234   9.757   4.922   3.791 -0.3523  0.5456  0.9224
  480MOL0     C63235   9.649   4.943   3.868  0.9045  0.5153  0.3161
  480MOL0     O63236   9.515   4.944   3.827  0.0652  0.1532 -0.3891
  480MOL0     C63237   9.469   4.882   3.716 -0.1955  0.9075 -0.2411
  480MOL0     C63238   9.343   4.782   3.733 -0.5348 -0.0773 -0.0925
  480MOL0     C63239   9.262   4.758   3.603  0.5247  0.0605  0.1493
  480MOL0     C63240   9.346   4.662   3.518  0.0935 -0.7666  0.1140
  480MOL0     C63241   9.272   4.604   3.396  0.4233 -0.1053 -0.9419
  480MOL0     C63242   9.252   4.709   3.292  0.2902  0.5841  0.6352
  480MOL0     C63243   9.276   4.660   3.142  0.5133 -0.4010  0.4040
  480MOL0     C63244   9.221   4.518   3.107  0.8107  0.8498 -0.5094
  480MOL0     N63245   9.075   4.493   3.141 -0.0425  0.8030 -0.3872
  480MOL0     C63246   8.964   4.566   3.099 -0.5502  0.3200  0.6264
  480MOL0     C63247   8.859   4.523   3.175 -0.0413  0.4070  0.4025
  480MOL0     C63248   8.726   4.582   3.199  0.3363  0.4115  0.5250
  480MOL0     C63249   8.639   4.567   3.080  0.3017  0.0298 -0.5568
  480MOL0     C63250   8.496   4.600   3.125 -0.4532 -0.7009 -0.4945
  480MOL0     C63251   8.406   4.579   3.018  0.5331  0.7312 -0.0164
  480MOL0     O63252   8.268   4.606   3.046  0.8915  0.2004 -0.1185
  480MOL0     C63253   8.179   4.504   3.074  0.7651  0.6607  0.5051
  480MOL0     C63254   8.052   4.511   3.014 -0.7145 -0.2664 -0.0458
  480MOL0     C63255   7.958   4.403   3.028 -0.2545 -0.3638 -0.6786
  480MOL0     C63256   7.999   4.286   3.095 -0.4706  0.0034  0.7199
  480MOL0     C63257   7.909   4.170   3.123  0.0972 -0.5177  0.2580
  480MOL0     O63258   7.798   4.165   3.045  0.6066 -0.6197 -0.1683
  480MOL0     C63259   7.692   4.067   3.054 -0.9104 -0.3663  0.0904
  480MOL0     C63260   7.683   3.949   3.120 -0.1676 -0.3142  0.1715
  480MOL0     C63261   7.562   3.876   3.116 -0.0053  0.1012 -0.4904
  480MOL0     C63262   7.445   3.934   3.060  0.6050 -0.0510 -0.5981
  480MOL0     O63263   7.340   3.854   3.085 -0.1821 -0.4858  0.1448
  480MOL0     C63264   7.208   3.903   3.043 -0.0966 -0.1117 -1.0152
  480MOL0     C63265   7.106   3.805   3.111 -0.4771  0.5120 -0.4116
  480MOL0     C63266   6.973   3.815   3.047  0.7669 -0.0919  0.3512
  480MOL0     C63267   6.878   3.708   3.102 -0.4229 -0.4642 -0.0223
  480MOL0     C63268   6.786   3.662   2.978 -0.4268 -0.4994 -0.3652
  480MOL0     C63269   6.686   3.548   2.994 -0.2514 -0.3862 -0.1149
  480MOL0     C63270   6.762   3.412   2.987  0.1663 -0.9285  0.1008
  480MOL0     C63271   6.680   3.291   3.027  0.2809  0.4067  0.0448
  480MOL0    Cl63272   6.546   3.243   2.907 -0.5349 -0.5231  0.1765
  480MOL0     C63273   7.453   4.052   2.994 -0.1657 -0.8410 -0.2422
  480MOL0     C63274   7.579   4.121   2.998  0.2138 -0.6986 -0.6408
  480MOL0     O63275   7.940   4.097   3.219  0.0320  0.0516  0.0815
  480MOL0     C63276   8.131   4.286   3.150  0.6442  0.4889 -0.4407
  480MOL0     C63277   8.215   4.386   3.133 -0.3639 -0.6061 -0.4088
  480MOL0     N63278   8.899   4.408   3.239  0.6129 -1.2947 -0.4324
  480MOL0     N63279   9.025   4.391   3.225  0.5553  0.1299 -0.2752
  480MOL0     C63280   9.658   4.958   4.003 -0.7338  0.0033 -0.2948
  480MOL0     C63281   9.786   4.954   4.066  0.1633  0.0254  0.1034
  480MOL0     C63282  10.223   5.047   4.112  0.5640 -0.2423 -1.1259
  480MOL0     C63283  10.262   4.956   4.202 -0.4894 -0.1330  0.3367
  480MOL0     C63284  10.378   4.984   4.286 -0.7489  0.0631  0.7579
  480MOL0     C63285  10.451   5.102   4.266  0.4971  0.7078 -1.0703
  480MOL0     O63286  10.556   5.114   4.354  0.3971 -0.1916  0.0142
  480MOL0     C63287  10.681   5.130   4.287  0.6322 -0.2178  0.1109
  480MOL0     C63288  10.781   5.229   4.355 -0.7006  0.0044 -0.0670
  480MOL0     C63289  10.931   5.215   4.308 -0.0538 -0.5947 -0.3179
  480MOL0     C63290  11.013   5.102   4.367  0.0623 -0.0231  0.6627
  480MOL0     C63291  11.156   5.100   4.310  0.9287  0.0099  0.1004
  480MOL0     C63292  11.269   5.112   4.262  1.0192  0.7002  0.9271
  480MOL0     C63293  10.412   5.198   4.165 -0.0011 -0.1607 -1.6889
  480MOL0     C63294  10.293   5.167   4.099 -0.0579  0.5040 -0.0900
  480MOL0     H63295   9.956   4.887   3.772 -0.2152  2.7375 -1.7592
  480MOL0     H63296   9.749   4.900   3.685 -1.4594 -1.0808  1.2972
  480MOL0     H63297   9.550   4.833   3.661  1.2430  3.9500 -1.0838
  480MOL0     H63298   9.432   4.958   3.646  0.6932 -0.2714 -2.0563
  480MOL0     H63299   9.275   4.819   3.810 -1.3395 -1.7200  0.0401
  480MOL0     H63300   9.384   4.687   3.769 -0.0473  1.0134  2.4316
  480MOL0     H63301   9.237   4.845   3.542 -3.1740 -0.1042  1.2015
  480MOL0     H63302   9.170   4.707   3.632  1.0048  0.6526  3.0681
  480MOL0     H63303   9.437   4.716   3.491 -1.5845  1.8697 -0.6253
  480MOL0     H63304   9.368   4.577   3.583 -0.5812  0.4617  2.0298
  480MOL0     H63305   9.175   4.561   3.423 -1.0409  2.1993 -2.2239
  480MOL0     H63306   9.341   4.524   3.366 -0.9999 -1.7597 -0.0450
  480MOL0     H63307   9.324   4.789   3.309  0.6454  0.8267 -1.6778
  480MOL0     H63308   9.153   4.756   3.296  0.0997  0.2756 -0.2080
  480MOL0     H63309   9.218   4.730   3.081 -0.6378  1.0110  2.9375
  480MOL0     H63310   9.382   4.661   3.116  0.6738  3.3520  0.6927
  480MOL0     H63311   9.294   4.448   3.150  1.4137  0.0238 -2.7176
  480MOL0     H63312   9.235   4.499   3.000  2.8443 -1.7183  0.1126
  480MOL0     H63313   8.953   4.656   3.038 -3.2849  1.5139  2.6664
  480MOL0     H63314   8.726   4.688   3.226  1.0486 -0.0986  2.7424
  480MOL0     H63315   8.691   4.529   3.288 -1.2655  1.0698  0.3184
  480MOL0     H63316   8.641   4.466   3.038  0.6164 -0.5764  0.8532
  480MOL0     H63317   8.672   4.625   2.993  1.2960  0.4975  0.1144
  480MOL0     H63318   8.469   4.547   3.216  0.0050 -0.5648 -0.2766
  480MOL0     H63319   8.496   4.707   3.151 -1.2007 -1.3383  2.5101
  480MOL0     H63320   8.433   4.485   2.970  1.4774  0.1847  1.5132
  480MOL0     H63321   8.447   4.645   2.940  1.3764 -0.1672 -0.3486
  480MOL0     H63322   8.034   4.607   2.968  3.7225  0.9661  0.3086
  480MOL0     H63323   7.855   4.418   2.998  0.4776 -1.1166 -3.8793
  480MOL0     H63324   7.784   3.920   3.148  1.2971  1.6479 -2.6338
  480MOL0     H63325   7.552   3.775   3.154  3.6374 -0.8971 -1.8171
  480MOL0     H63326   7.197   3.907   2.934 -1.9169  1.9762 -0.8203
  480MOL0     H63327   7.188   4.002   3.084  0.1868 -1.4482  2.7965
  480MOL0     H63328   7.111   3.824   3.218  0.8117 -0.2252 -0.3195
  480MOL0     H63329   7.133   3.700   3.094 -1.4448  0.6266 -3.1838
  480MOL0     H63330   6.980   3.812   2.938 -1.6488  3.3033 -0.0737
  480MOL0     H63331   6.925   3.906   3.084 -1.1995 -1.7515  2.1470
  480MOL0     H63332   6.923   3.617   3.144 -2.6622 -0.6508  2.1946
  480MOL0     H63333   6.827   3.754   3.187  2.9881 -0.4773  2.2518
  480MOL0     H63334   6.847   3.646   2.889  2.7215  2.2522  1.0727
  480MOL0     H63335   6.717   3.746   2.970  2.0269  2.1511  3.0088
  480MOL0     H63336   6.609   3.556   2.917  0.1216  1.5799 -0.3147
  480MOL0     H63337   6.637   3.559   3.092 -1.0720  0.8530 -0.6446
  480MOL0     H63338   6.795   3.396   2.884  1.3748  0.1358  0.2963
  480MOL0     H63339   6.846   3.428   3.056 -1.4593  2.4282  1.5729
  480MOL0     H63340   6.635   3.308   3.125 -0.5925  0.9937 -0.4514
  480MOL0     H63341   6.752   3.208   3.026 -1.9737 -1.6317 -0.0375
  480MOL0     H63342   7.365   4.093   2.947 -0.1320 -3.2716 -2.7002
  480MOL0     H63343   7.585   4.217   2.947 -0.9909 -1.0136 -1.4122
  480MOL0     H63344   8.171   4.193   3.186 -2.4127 -0.4782  0.8173
  480MOL0     H63345   8.316   4.365   3.168 -0.9753 -1.4744  0.9051
  480MOL0     H63346   9.567   4.979   4.059 -1.4445 -1.4713 -0.8537
  480MOL0     H63347   9.781   4.965   4.174 -2.5676  3.7018 -0.2336
  480MOL0     H63348  10.213   4.859   4.210  1.0658 -0.8640  1.5549
  480MOL0     H63349  10.404   4.920   4.369  2.8638 -2.4460 -1.9845
  480MOL0     H63350  10.680   5.162   4.183  2.7217 -2.1321 -0.5910
  480MOL0     H63351  10.724   5.030   4.283 -0.4032 -0.6252 -1.6821
  480MOL0     H63352  10.749   5.333   4.343  2.4446  1.5054  2.7451
  480MOL0     H63353  10.778   5.207   4.463  0.4135 -4.1862 -0.7007
  480MOL0     H63354  10.980   5.311   4.326 -1.3348 -0.0837  0.6047
  480MOL0     H63355  10.931   5.190   4.201 -1.0727  0.7506 -0.6569
  480MOL0     H63356  11.025   5.109   4.476  2.6497 -0.8692  0.4871
  480MOL0     H63357  10.955   5.015   4.334  0.7640 -0.7736  1.3727
  480MOL0     H63358  11.365   5.119   4.214  1.2860 -0.2380  1.2950
  480MOL0     H63359  10.468   5.288   4.143 -2.6129  1.1622 -3.3654
  480MOL0     H63360  10.262   5.246   4.031  0.2225  1.6848  1.1199
  481MOL0     O63361   6.020   3.144   6.179  0.2163  0.2923  0.4204
  481MOL0     C63362   6.074   3.241   6.234  0.7457 -0.5910  0.3757
  481MOL0     O63363   6.007   3.371   6.246  0.2475 -0.0945 -0.0856
  481MOL0     C63364   5.881   3.387   6.187 -0.8857 -0.0956 -0.3276
  481MOL0     C63365   5.876   3.398   6.050  0.0606 -0.3101 -0.0505
  481MOL0     C63366   5.755   3.427   5.986 -0.3358  0.4127 -0.3164
  481MOL0     C63367   5.626   3.427   6.057  0.5057  0.5647 -0.4377
  481MOL0     O63368   5.499   3.434   6.004 -0.1957  0.0133 -0.2759
  481MOL0     C63369   5.485   3.404   5.865  0.6205 -0.1924  0.1580
  481MOL0     C63370   5.340   3.375   5.835 -0.9006 -0.2839  0.1402
  481MOL0     C63371   5.301   3.232   5.889 -0.0395 -0.0187 -0.0832
  481MOL0     C63372   5.153   3.213   5.870  0.5134  0.2978  0.5199
  481MOL0     C63373   5.125   3.139   5.744 -0.4962 -0.3874 -0.8342
  481MOL0     C63374   5.158   2.984   5.743  0.3497 -0.4935 -0.0728
  481MOL0     C63375   5.143   2.939   5.596 -1.1054  0.4217 -0.1711
  481MOL0     C63376   5.090   2.794   5.570 -0.8222 -0.8922  0.0044
  481MOL0     N63377   5.070   2.778   5.427  0.1147  0.0313 -0.2149
  481MOL0     C63378   5.161   2.735   5.335  1.0371 -0.4510  0.7352
  481MOL0     C63379   5.118   2.788   5.222 -0.1124 -0.5838  0.5276
  481MOL0     C63380   5.183   2.771   5.091 -0.0474 -0.2391  0.1772
  481MOL0     C63381   5.098   2.713   4.975  0.2104  0.2750  0.0752
  481MOL0     C63382   4.971   2.795   4.942  0.5893  1.3900 -1.3345
  481MOL0     C63383   4.920   2.736   4.806  0.1988 -0.1304 -0.4905
  481MOL0     O63384   4.806   2.816   4.774 -0.3592 -1.1806  0.3464
  481MOL0     C63385   4.719   2.758   4.682 -0.1365  0.1260 -0.3103
  481MOL0     C63386   4.752   2.671   4.574 -0.1552  0.0252  0.2186
  481MOL0     C63387   4.651   2.622   4.496 -0.4745 -0.1640  0.1279
  481MOL0     C63388   4.514   2.641   4.519 -0.6719 -0.0559 -1.2142
  481MOL0     C63389   4.407   2.586   4.431  0.2931  0.8824 -0.6575
  481MOL0     O63390   4.437   2.513   4.331  0.0811 -0.6294  0.4713
  481MOL0     C63391   4.341   2.491   4.233  0.0903  0.1997 -0.2531
  481MOL0     C63392   4.336   2.578   4.126  0.5191  0.8110  0.0929
  481MOL0     C63393   4.218   2.566   4.044 -0.0711 -0.8273  0.1881
  481MOL0     C63394   4.122   2.466   4.068 -0.1497  0.1646 -0.9469
  481MOL0     O63395   4.009   2.443   3.990 -0.3286 -0.1106  0.0034
  481MOL0     C63396   3.964   2.552   3.909 -0.3465 -0.4221 -1.0145
  481MOL0     C63397   3.821   2.542   3.855  0.8184 -0.4910 -0.0115
  481MOL0     C63398   3.802   2.412   3.767 -0.0153 -0.6205 -0.2028
  481MOL0     C63399   3.661   2.413   3.700 -0.2804  0.0578 -0.2883
  481MOL0     C63400   3.670   2.489   3.564  0.2647 -0.7660 -0.2751
  481MOL0     C63401   3.547   2.485   3.482  0.7246 -0.6180  0.8879
  481MOL0     C63402   3.583   2.567   3.349 -0.6370 -0.2723 -0.5235
  481MOL0     C63403   3.461   2.598   3.264  0.2561 -0.2394 -0.9591
  481MOL0    Cl63404   3.342   2.702   3.347  0.1189 -0.4653 -0.6588
  481MOL0     C63405   4.127   2.373   4.175  0.4792  0.0319  0.2523
  481MOL0     C63406   4.242   2.392   4.256  1.0140  0.1106 -0.2321
  481MOL0     O63407   4.293   2.618   4.463  0.2408 -0.4047 -0.2296
  481MOL0     C63408   4.484   2.731   4.635 -0.5935  0.4255 -0.2503
  481MOL0     C63409   4.583   2.785   4.709 -0.3674 -0.1164 -0.5048
  481MOL0     N63410   5.012   2.878   5.249 -0.6839  0.0750 -0.8863
  481MOL0     N63411   4.992   2.869   5.372  1.3573  0.4863 -0.2779
  481MOL0     C63412   5.634   3.419   6.193 -0.0783  0.5206 -0.1445
  481MOL0     C63413   5.765   3.396   6.258  0.0568 -0.1106  0.2402
  481MOL0     C63414   6.193   3.223   6.315 -0.1526  0.2841  0.3319
  481MOL0     C63415   6.258   3.332   6.383 -0.3976 -0.4190 -0.2055
  481MOL0     C63416   6.374   3.308   6.456 -0.5023 -0.0431 -0.4264
  481MOL0     C63417   6.425   3.182   6.480 -0.5949  0.1202 -0.4150
  481MOL0     O63418   6.531   3.161   6.560 -0.4811 -0.7298 -0.2249
  481MOL0     C63419   6.545   3.254   6.670 -0.4406 -0.1314 -0.1348
  481MOL0     C63420   6.650   3.352   6.619 -0.0047 -0.3771  0.4285
  481MOL0     C63421   6.794   3.291   6.635  0.3309 -0.4327 -0.3882
  481MOL0     C63422   6.904   3.360   6.557  0.3186  0.5342 -0.6141
  481MOL0     C63423   7.041   3.305   6.597  0.0511 -0.4445  0.2194
  481MOL0     C63424   7.140   3.240   6.632 -0.2522 -1.1229 -0.1742
  481MOL0     C63425   6.354   3.069   6.429 -0.2101  0.4697 -0.2229
  481MOL0     C63426   6.242   3.093   6.343  0.1528 -0.4273 -1.0149
  481MOL0     H63427   5.969   3.387   5.994 -0.0396 -0.2719 -0.2248
  481MOL0     H63428   5.762   3.441   5.879 -2.9732 -2.1596 -0.9622
  481MOL0     H63429   5.547   3.319   5.837  0.7781  0.0537 -0.2575
  481MOL0     H63430   5.514   3.488   5.800 -2.0245 -0.7128 -1.8573
  481MOL0     H63431   5.342   3.370   5.726  0.9915  0.6662  0.0868
  481MOL0     H63432   5.287   3.465   5.868  0.3188  0.7078 -0.4763
  481MOL0     H63433   5.323   3.241   5.996 -0.1166 -1.0790  0.0251
  481MOL0     H63434   5.354   3.143   5.854 -5.1574 -3.7817  0.6252
  481MOL0     H63435   5.115   3.159   5.957 -0.1806  2.1893  1.4557
  481MOL0     H63436   5.099   3.309   5.866 -0.3399 -0.0731  2.1245
  481MOL0     H63437   5.177   3.192   5.663  0.8341 -0.0540  0.2134
  481MOL0     H63438   5.017   3.149   5.730 -0.6738  2.1070  1.5922
  481MOL0     H63439   5.090   2.928   5.808 -1.3225  1.4827 -0.0098
  481MOL0     H63440   5.260   2.971   5.780  0.7755 -1.8080 -1.5992
  481MOL0     H63441   5.070   3.013   5.561  0.3439  1.5973 -0.8149
  481MOL0     H63442   5.241   2.957   5.551 -0.1383 -0.8945  1.2839
  481MOL0     H63443   4.991   2.775   5.611 -0.6066 -4.2166 -0.7485
  481MOL0     H63444   5.159   2.717   5.606 -1.7838 -1.2753  1.0753
  481MOL0     H63445   5.240   2.661   5.341  0.1372 -1.3876  1.3440
  481MOL0     H63446   5.267   2.702   5.105  0.9496  0.7025 -0.9611
  481MOL0     H63447   5.225   2.866   5.057 -0.8172 -0.3027 -0.9798
  481MOL0     H63448   5.076   2.611   5.006 -1.8827  0.5149 -0.4752
  481MOL0     H63449   5.159   2.707   4.884 -0.2778  2.2268 -0.4360
  481MOL0     H63450   4.899   2.778   5.022 -0.4317  2.0631 -2.0788
  481MOL0     H63451   4.990   2.903   4.942 -0.7469  1.6649  0.4439
  481MOL0     H63452   4.898   2.629   4.820  2.2316 -0.6618 -1.0042
  481MOL0     H63453   4.998   2.750   4.731 -0.2028  0.4445 -0.8042
  481MOL0     H63454   4.853   2.640   4.551  0.1389  1.5679 -0.6997
  481MOL0     H63455   4.674   2.560   4.410  0.1329  0.3392 -0.0730
  481MOL0     H63456   4.419   2.647   4.114  1.0874 -0.0372 -1.1033
  481MOL0     H63457   4.201   2.642   3.968  2.9235  0.2600  0.4456
  481MOL0     H63458   4.034   2.553   3.826 -0.2892  0.1354 -0.9633
  481MOL0     H63459   3.963   2.647   3.964 -1.1644  0.2358 -2.1131
  481MOL0     H63460   3.822   2.630   3.790 -1.7896 -0.8264 -0.6021
  481MOL0     H63461   3.746   2.549   3.934 -0.3263  2.6145 -1.2158
  481MOL0     H63462   3.820   2.325   3.832  2.0698  0.4391  0.7345
  481MOL0     H63463   3.880   2.410   3.690  0.9156  0.5311  0.6822
  481MOL0     H63464   3.630   2.310   3.681 -0.6887 -0.2896  2.0364
  481MOL0     H63465   3.587   2.455   3.768 -1.1167 -1.3432 -0.3053
  481MOL0     H63466   3.763   2.464   3.512  0.4772 -1.1428  0.2824
  481MOL0     H63467   3.672   2.597   3.586 -0.7448 -1.0755  1.4984
  481MOL0     H63468   3.461   2.523   3.538 -2.5543 -1.6559 -2.9973
  481MOL0     H63469   3.518   2.383   3.456 -2.4168  0.8990 -2.3357
  481MOL0     H63470   3.617   2.666   3.383  3.6954 -1.7959  0.2624
  481MOL0     H63471   3.664   2.528   3.287 -0.8758  1.7300 -2.2034
  481MOL0     H63472   3.407   2.505   3.243  2.2886 -1.4986 -0.8490
  481MOL0     H63473   3.491   2.639   3.167 -0.0584 -1.3430 -1.5393
  481MOL0     H63474   4.061   2.287   4.186 -1.3622  0.9614 -2.3634
  481MOL0     H63475   4.259   2.340   4.350  1.4140  2.5359  1.1098
  481MOL0     H63476   4.382   2.768   4.646 -0.5565  1.2532 -2.3511
  481MOL0     H63477   4.571   2.849   4.797 -1.1404  1.4816 -1.7165
  481MOL0     H63478   5.546   3.419   6.257 -1.3610 -0.4383 -1.8342
  481MOL0     H63479   5.765   3.378   6.365 -2.0958 -1.2986  0.0867
  481MOL0     H63480   6.225   3.435   6.377  0.2888 -0.2012 -0.3714
  481MOL0     H63481   6.404   3.395   6.514 -2.1833 -0.7955  1.6988
  481MOL0     H63482   6.584   3.203   6.758 -1.0421  0.6598  0.6126
  481MOL0     H63483   6.450   3.301   6.696 -1.3390 -0.3462 -2.7170
  481MOL0     H63484   6.638   3.376   6.513 -0.4963 -2.1989  0.0243
  481MOL0     H63485   6.643   3.441   6.681 -0.0243 -1.8701  2.7069
  481MOL0     H63486   6.788   3.186   6.602 -2.5908 -1.6544  3.2608
  481MOL0     H63487   6.832   3.288   6.737  0.9618  0.8266 -0.5750
  481MOL0     H63488   6.889   3.353   6.449  0.6267 -1.4792 -0.5779
  481MOL0     H63489   6.892   3.462   6.592 -1.6856  0.0077  0.3842
  481MOL0     H63490   7.223   3.185   6.672  1.0839  1.6261  1.0771
  481MOL0     H63491   6.394   2.972   6.458 -3.9864 -0.5040  2.6108
  481MOL0     H63492   6.187   3.006   6.309 -2.4891 -0.1242  1.9375
  482MOL0     O63493   7.933   6.802   9.098 -0.5596  0.0529 -0.4876
  482MOL0     C63494   7.987   6.920   9.091 -0.3696 -0.1190 -0.4289
  482MOL0     O63495   7.916   7.029   9.051  0.4270 -0.4782 -1.0395
  482MOL0     C63496   7.787   7.011   9.048  0.2211 -0.0196 -0.8449
  482MOL0     C63497   7.727   6.978   8.930  0.2282 -0.1484  0.2516
  482MOL0     C63498   7.593   6.976   8.917 -0.7579 -0.4553  0.1160
  482MOL0     C63499   7.508   6.984   9.034  0.3946 -0.4494 -0.1236
  482MOL0     O63500   7.375   6.971   9.008  0.7641 -0.2056 -1.4338
  482MOL0     C63501   7.287   7.000   9.117  0.3745 -0.0573  0.4509
  482MOL0     C63502   7.137   7.016   9.083  0.3411  0.1159  1.6099
  482MOL0     C63503   7.119   7.146   9.014 -0.3218 -0.1124 -0.7359
  482MOL0     C63504   6.985   7.147   8.939 -1.0990  0.6730 -0.6107
  482MOL0     C63505   6.954   7.285   8.875 -0.7740 -0.3346 -0.3637
  482MOL0     C63506   6.842   7.278   8.781  0.6668 -0.1501 -0.1431
  482MOL0     C63507   6.795   7.430   8.746 -0.2919  0.4445 -0.5468
  482MOL0     C63508   6.700   7.491   8.845 -0.2756 -0.4646 -0.2957
  482MOL0     N63509   6.565   7.428   8.856 -0.0843  0.3182 -0.5261
  482MOL0     C63510   6.545   7.339   8.949  0.9072  0.3967  0.5142
  482MOL0     C63511   6.461   7.238   8.897  0.4798 -0.4086 -0.3115
  482MOL0     C63512   6.413   7.119   8.966 -0.0378  0.8590  0.3068
  482MOL0     C63513   6.328   7.158   9.090 -0.2301  0.4676  1.2829
  482MOL0     C63514   6.203   7.225   9.059 -0.1130  0.2379 -0.2575
  482MOL0     C63515   6.116   7.157   8.950  0.5429 -0.5489 -0.4645
  482MOL0     O63516   5.978   7.212   8.950 -0.7631 -0.9615 -0.2086
  482MOL0     C63517   5.894   7.212   9.059 -0.3690 -0.1039 -0.8418
  482MOL0     C63518   5.802   7.316   9.069  0.3350  0.3574  0.2157
  482MOL0     C63519   5.710   7.319   9.170 -0.0118 -0.0477 -1.2047
  482MOL0     C63520   5.706   7.217   9.269  0.0297  0.4072  0.6521
  482MOL0     C63521   5.607   7.213   9.365 -0.3687  0.1204 -0.0457
  482MOL0     O63522   5.600   7.108   9.448 -0.9902  0.1366 -0.1649
  482MOL0     C63523   5.500   7.086   9.542 -0.3244  0.0926  0.3815
  482MOL0     C63524   5.522   7.084   9.683  0.6545 -0.6950 -0.0290
  482MOL0     C63525   5.429   7.044   9.777  0.0609 -0.0588 -0.0742
  482MOL0     C63526   5.305   7.003   9.727  0.1869  1.0879 -0.5319
  482MOL0     O63527   5.204   6.984   9.823  0.1680 -0.8534  0.5008
  482MOL0     C63528   5.200   6.861   9.890 -0.0586 -0.1773 -0.5102
  482MOL0     C63529   5.087   6.847   9.991  0.0654 -0.2840  0.1984
  482MOL0     C63530   5.079   6.707  10.051 -0.5290 -0.1238 -0.4907
  482MOL0     C63531   5.182   6.663  10.143 -1.0262 -0.3412  0.3172
  482MOL0     C63532   5.154   6.525  10.206  0.1964 -0.1886 -0.1417
  482MOL0     C63533   5.144   6.412  10.109  0.5102  0.3512 -0.0974
  482MOL0     C63534   5.272   6.402  10.017  0.3713 -0.2550  0.2774
  482MOL0     C63535   5.269   6.272   9.928  0.6675  0.1915  1.2891
  482MOL0    Cl63536   5.432   6.215   9.875  0.1179 -0.3246  0.1314
  482MOL0     C63537   5.269   7.011   9.588 -0.3939 -0.7395 -0.2593
  482MOL0     C63538   5.380   7.038   9.495  0.3463 -0.1360 -0.1683
  482MOL0     O63539   5.535   7.307   9.370 -0.6842 -0.4010 -0.0116
  482MOL0     C63540   5.814   7.122   9.275 -0.6700 -0.2090 -0.0496
  482MOL0     C63541   5.909   7.122   9.172 -0.0123 -0.2545 -0.2945
  482MOL0     N63542   6.431   7.285   8.772  0.4389  0.5328 -0.2889
  482MOL0     N63543   6.482   7.398   8.747 -0.0145 -0.6458 -0.4953
  482MOL0     C63544   7.565   7.005   9.157  0.7417 -0.4439  0.1039
  482MOL0     C63545   7.708   7.028   9.164 -0.5382 -0.3337  0.7283
  482MOL0     C63546   8.131   6.937   9.112 -0.5911  0.6517 -0.6818
  482MOL0     C63547   8.200   7.059   9.105  0.4294 -0.3211  1.0726
  482MOL0     C63548   8.342   7.069   9.120  0.0499  0.3769  0.0438
  482MOL0     C63549   8.419   6.954   9.132 -0.2632  0.1647 -0.0555
  482MOL0     O63550   8.555   6.942   9.135  0.2957 -0.0537 -0.1756
  482MOL0     C63551   8.623   7.070   9.133 -0.1905  0.5025 -0.2055
  482MOL0     C63552   8.766   7.039   9.146 -0.6084 -1.0901 -0.1158
  482MOL0     C63553   8.830   7.023   9.006  0.6041  0.3977  0.1141
  482MOL0     C63554   8.977   6.967   9.010  0.4925 -0.0100  0.7511
  482MOL0     C63555   8.953   6.831   9.017 -0.0855 -0.1537 -0.8753
  482MOL0     C63556   8.944   6.712   9.014  0.1355 -0.1679 -0.0871
  482MOL0     C63557   8.350   6.831   9.132  0.3744  0.3714  0.0483
  482MOL0     C63558   8.203   6.824   9.124  0.1577  0.2451  0.1072
  482MOL0     H63559   7.785   6.965   8.838 -0.8689  2.1982 -0.8736
  482MOL0     H63560   7.550   6.977   8.818 -0.4922 -0.0742  0.0006
  482MOL0     H63561   7.334   7.088   9.160 -0.4699 -0.1379  1.6122
  482MOL0     H63562   7.301   6.923   9.194  3.6622  2.0919  2.2022
  482MOL0     H63563   7.083   7.017   9.178 -1.1965 -0.9118  0.7870
  482MOL0     H63564   7.100   6.937   9.018  1.1886  2.1267 -1.4977
  482MOL0     H63565   7.197   7.164   8.940  0.5710  0.6312  0.3633
  482MOL0     H63566   7.129   7.225   9.088  2.1045  0.1058 -1.2357
  482MOL0     H63567   6.992   7.064   8.869  2.9345  1.1560 -1.0342
  482MOL0     H63568   6.900   7.119   9.001 -1.0745 -0.3534 -1.0325
  482MOL0     H63569   7.033   7.314   8.804 -0.9239 -0.7734 -0.7140
  482MOL0     H63570   6.940   7.369   8.944 -0.6033  0.5601 -1.3815
  482MOL0     H63571   6.758   7.227   8.828  1.8923  0.2035  2.6171
  482MOL0     H63572   6.873   7.227   8.689 -1.5417 -1.0964 -0.4252
  482MOL0     H63573   6.878   7.498   8.723 -2.1544  2.0818 -2.7464
  482MOL0     H63574   6.735   7.410   8.657  1.1206  1.1478 -1.7145
  482MOL0     H63575   6.681   7.597   8.823  1.3784  0.2927  1.6742
  482MOL0     H63576   6.740   7.502   8.946  0.3426  4.1187 -0.8298
  482MOL0     H63577   6.590   7.336   9.048 -0.3759 -2.5489  1.0872
  482MOL0     H63578   6.509   7.076   8.996  0.0883  0.7807 -0.1953
  482MOL0     H63579   6.363   7.044   8.904  2.3059 -0.8586  0.3480
  482MOL0     H63580   6.387   7.217   9.161  1.5778 -1.0505  1.1025
  482MOL0     H63581   6.306   7.060   9.135 -1.6651  0.8666  1.5241
  482MOL0     H63582   6.150   7.230   9.156  2.6160 -0.3876  1.3619
  482MOL0     H63583   6.224   7.331   9.045  2.4924 -0.4070 -1.6928
  482MOL0     H63584   6.120   7.048   8.956  1.4263 -0.5821 -1.3360
  482MOL0     H63585   6.167   7.190   8.859  1.3601 -0.8287 -0.1264
  482MOL0     H63586   5.799   7.389   8.988 -2.8827 -1.7379 -1.8019
  482MOL0     H63587   5.632   7.394   9.171  1.4056  1.5681  2.1425
  482MOL0     H63588   5.619   7.121   9.715  0.8881 -2.4855  1.4994
  482MOL0     H63589   5.448   7.040   9.884  2.4508  1.3090 -0.3743
  482MOL0     H63590   5.288   6.847   9.953  0.0272 -2.4281 -1.0596
  482MOL0     H63591   5.197   6.779   9.818 -1.0005 -1.3414  0.8007
  482MOL0     H63592   4.994   6.879   9.943  0.2349 -2.3340 -1.6313
  482MOL0     H63593   5.120   6.910  10.074  3.7255  1.2479 -2.1966
  482MOL0     H63594   5.061   6.628   9.977  3.2041 -2.2329  0.5754
  482MOL0     H63595   4.990   6.715  10.113 -0.9641 -1.6039 -0.8752
  482MOL0     H63596   5.282   6.663  10.099 -1.7794 -0.5100 -1.4755
  482MOL0     H63597   5.189   6.726  10.232  1.7840 -0.2070  0.0822
  482MOL0     H63598   5.058   6.533  10.257  0.5742 -2.2379  1.0104
  482MOL0     H63599   5.232   6.514  10.282  1.4671  1.0580 -1.2052
  482MOL0     H63600   5.062   6.423  10.038 -0.9006  3.8997  1.8216
  482MOL0     H63601   5.139   6.324  10.174 -2.6697  1.4384  1.3326
  482MOL0     H63602   5.263   6.486   9.947  0.9146 -1.5557 -1.4375
  482MOL0     H63603   5.364   6.402  10.075 -0.2696 -2.2847  1.3683
  482MOL0     H63604   5.201   6.289   9.844 -0.1000  4.1524  2.5268
  482MOL0     H63605   5.231   6.192   9.993 -2.3082  0.9913  0.6930
  482MOL0     H63606   5.176   6.972   9.547 -0.8284  2.4838 -2.7307
  482MOL0     H63607   5.374   7.022   9.388 -1.2786 -1.2654  0.0437
  482MOL0     H63608   5.814   7.051   9.357 -1.7032 -1.1977 -0.8660
  482MOL0     H63609   5.992   7.053   9.185  0.4817  0.6036  1.3108
  482MOL0     H63610   7.504   6.988   9.246 -1.3409  0.9033 -1.0070
  482MOL0     H63611   7.764   7.044   9.256 -3.5572 -0.4521  2.7276
  482MOL0     H63612   8.144   7.152   9.104 -1.7409 -1.5219  1.8418
  482MOL0     H63613   8.392   7.163   9.101  0.3337  0.4970  1.2847
  482MOL0     H63614   8.576   7.131   9.210 -1.7423 -1.3376  0.4096
  482MOL0     H63615   8.594   7.114   9.037  0.9873 -0.0712 -0.8574
  482MOL0     H63616   8.817   7.124   9.191  1.6817 -1.4938 -1.7517
  482MOL0     H63617   8.793   6.954   9.210 -0.0223  0.1611  1.3661
  482MOL0     H63618   8.838   7.117   8.951 -2.1052  0.9799  0.5896
  482MOL0     H63619   8.761   6.955   8.955 -1.4582  1.8409  0.8790
  482MOL0     H63620   9.023   6.982   8.912  1.5565  0.5437  1.3238
  482MOL0     H63621   9.025   7.021   9.092 -1.2238  1.0196  1.1414
  482MOL0     H63622   8.951   6.605   9.020 -2.3928 -0.3053  2.4916
  482MOL0     H63623   8.396   6.733   9.128  0.8502  0.4531  2.1715
  482MOL0     H63624   8.156   6.726   9.122  1.1598 -0.2331 -0.8478
  483MOL0     O63625   4.860   5.307   4.745 -0.2875 -0.4623  0.3453
  483MOL0     C63626   4.901   5.413   4.702 -0.2920 -1.2034  0.5769
  483MOL0     O63627   4.845   5.490   4.601 -0.7036  0.6069  0.2675
  483MOL0     C63628   4.728   5.438   4.564  0.1808 -0.2702 -0.8434
  483MOL0     C63629   4.721   5.346   4.462  0.3404  0.6750 -0.1396
  483MOL0     C63630   4.595   5.318   4.405 -1.0481  0.2502 -0.1388
  483MOL0     C63631   4.478   5.364   4.461 -0.1044  0.1800  0.6749
  483MOL0     O63632   4.358   5.319   4.421 -0.0015  0.2945 -0.5251
  483MOL0     C63633   4.311   5.247   4.304  0.1191  0.8901  0.5576
  483MOL0     C63634   4.297   5.363   4.201 -0.0840 -0.3533 -0.4843
  483MOL0     C63635   4.246   5.321   4.064  0.3640  0.5246  0.3635
  483MOL0     C63636   4.111   5.248   4.075 -0.9784 -0.2678  0.0308
  483MOL0     C63637   4.011   5.304   3.980  0.7351  0.4841 -0.5330
  483MOL0     C63638   3.871   5.259   4.031  0.4675 -0.0648 -0.0730
  483MOL0     C63639   3.750   5.305   3.946 -0.0933 -0.4917  0.2510
  483MOL0     C63640   3.749   5.453   3.920  0.5110  0.0435  0.4354
  483MOL0     N63641   3.623   5.499   3.857 -0.8456 -0.3961  0.8017
  483MOL0     C63642   3.538   5.431   3.772 -0.3127 -0.2603 -0.4501
  483MOL0     C63643   3.462   5.527   3.720  0.6735  0.0572  0.1846
  483MOL0     C63644   3.338   5.498   3.632  0.7090 -0.2261  0.1084
  483MOL0     C63645   3.211   5.565   3.677  0.2217 -0.3987  0.3296
  483MOL0     C63646   3.102   5.537   3.573  0.6521 -0.1875  0.3016
  483MOL0     C63647   3.100   5.626   3.453  0.3879 -0.5288 -0.3439
  483MOL0     O63648   2.996   5.601   3.354  0.2086  0.3734  0.1316
  483MOL0     C63649   2.876   5.661   3.372  0.0228  0.5950  0.6440
  483MOL0     C63650   2.826   5.745   3.475 -0.3077  0.2658 -0.3791
  483MOL0     C63651   2.697   5.801   3.463 -0.4629 -0.8822 -1.1796
  483MOL0     C63652   2.618   5.782   3.354 -0.2280 -0.0910 -0.4021
  483MOL0     C63653   2.479   5.846   3.348 -0.5023 -0.0243 -0.2968
  483MOL0     O63654   2.427   5.894   3.456  0.0166  0.2070 -0.3780
  483MOL0     C63655   2.291   5.926   3.463  0.1654  0.2481  0.6407
  483MOL0     C63656   2.187   5.834   3.443 -0.6015  1.0233  0.1290
  483MOL0     C63657   2.051   5.871   3.457  0.0960  0.0844 -0.7873
  483MOL0     C63658   2.018   6.005   3.482 -0.4557  1.0958  0.0974
  483MOL0     O63659   1.886   6.044   3.504  0.0902  0.2669 -0.7379
  483MOL0     C63660   1.861   6.164   3.564 -0.2052 -0.4153  0.0414
  483MOL0     C63661   1.719   6.189   3.587  0.0292  0.3706  0.2154
  483MOL0     C63662   1.677   6.109   3.716 -0.0661  0.1787  0.2192
  483MOL0     C63663   1.536   6.051   3.696  0.1325  0.3657 -0.3227
  483MOL0     C63664   1.528   5.949   3.810 -0.3068  0.1255 -0.7563
  483MOL0     C63665   1.386   5.895   3.839  0.1971  0.4750 -0.5674
  483MOL0     C63666   1.397   5.784   3.947  0.1085  0.0372  0.6060
  483MOL0     C63667   1.431   5.837   4.083 -0.0180  0.0247 -0.6679
  483MOL0    Cl63668   1.288   5.935   4.149 -0.0200  0.2616  0.1962
  483MOL0     C63669   2.118   6.093   3.503  0.0894  0.6243  0.0189
  483MOL0     C63670   2.255   6.063   3.486  0.4821  0.4388 -0.8274
  483MOL0     O63671   2.424   5.837   3.236 -0.7012 -0.3630 -0.5458
  483MOL0     C63672   2.659   5.692   3.256  0.5805  0.1498  0.0908
  483MOL0     C63673   2.783   5.631   3.268 -0.7201 -0.9655  1.0404
  483MOL0     N63674   3.501   5.651   3.764 -0.2730 -0.7863  0.4040
  483MOL0     N63675   3.597   5.634   3.845 -0.4826 -0.4803  0.0268
  483MOL0     C63676   4.492   5.446   4.576 -0.1487 -0.3059  0.6826
  483MOL0     C63677   4.612   5.484   4.633  0.3683 -0.9486  0.9665
  483MOL0     C63678   5.015   5.473   4.766 -0.1413 -0.1682 -0.0697
  483MOL0     C63679   5.091   5.585   4.698  0.2089  0.1684 -0.4940
  483MOL0     C63680   5.211   5.636   4.756  0.2406  0.1758  0.0804
  483MOL0     C63681   5.256   5.579   4.883  0.4915  0.6166  0.9711
  483MOL0     O63682   5.346   5.642   4.959 -0.4363 -0.3850  0.3514
  483MOL0     C63683   5.348   5.788   4.963  0.1038  0.0130 -0.8758
  483MOL0     C63684   5.495   5.841   4.983  0.6830  0.4276  0.1857
  483MOL0     C63685   5.596   5.801   4.874 -0.9351  0.7041 -0.6268
  483MOL0     C63686   5.709   5.713   4.933 -0.5098  1.0476 -0.3186
  483MOL0     C63687   5.843   5.751   4.887 -0.0066 -0.4156  0.0514
  483MOL0     C63688   5.960   5.791   4.863  0.9776  0.2599  0.4428
  483MOL0     C63689   5.176   5.480   4.944  1.3450 -0.2339 -1.0650
  483MOL0     C63690   5.065   5.427   4.887 -0.1359  0.0356  0.0214
  483MOL0     H63691   4.817   5.308   4.427  0.3989  1.6227 -1.0710
  483MOL0     H63692   4.584   5.236   4.334 -1.5784  1.0275 -0.9722
  483MOL0     H63693   4.215   5.203   4.333  0.4679  0.7140  1.4548
  483MOL0     H63694   4.386   5.172   4.277  2.8738  3.6771 -0.2128
  483MOL0     H63695   4.395   5.411   4.192 -0.3481  0.7921  2.0756
  483MOL0     H63696   4.238   5.439   4.252 -0.0733 -1.3520  1.0660
  483MOL0     H63697   4.322   5.269   4.007 -0.6802 -1.3043  0.5693
  483MOL0     H63698   4.221   5.408   4.002  1.7390  0.8534  0.2530
  483MOL0     H63699   4.120   5.139   4.083  0.0748 -0.3294 -1.5445
  483MOL0     H63700   4.070   5.276   4.173  1.0566 -0.9530  1.1227
  483MOL0     H63701   4.032   5.271   3.878 -0.7440  1.1338 -1.0799
  483MOL0     H63702   4.017   5.413   3.974  1.6981  0.5683  1.2771
  483MOL0     H63703   3.850   5.287   4.135 -1.0026 -1.5617  0.0667
  483MOL0     H63704   3.867   5.150   4.023  0.8326 -0.0265 -0.9165
  483MOL0     H63705   3.761   5.262   3.846  3.0258 -0.9415  0.7036
  483MOL0     H63706   3.663   5.261   3.996 -0.8484 -0.6861 -1.1692
  483MOL0     H63707   3.836   5.474   3.858  0.6051  2.1684  1.2021
  483MOL0     H63708   3.756   5.501   4.019 -0.9918  0.5381  0.3229
  483MOL0     H63709   3.544   5.325   3.748 -0.8381 -0.1981 -0.8584
  483MOL0     H63710   3.325   5.389   3.627 -0.3875 -0.0541 -1.3831
  483MOL0     H63711   3.360   5.532   3.531  2.1921  2.4095  1.2277
  483MOL0     H63712   3.215   5.674   3.684 -2.7088 -0.1895 -0.0971
  483MOL0     H63713   3.178   5.539   3.778 -0.7715  3.3663  1.1387
  483MOL0     H63714   3.106   5.433   3.539 -0.6571 -1.2303  3.0359
  483MOL0     H63715   3.006   5.549   3.623  2.5673  3.1531  3.6850
  483MOL0     H63716   3.190   5.610   3.392  0.7386  3.5760 -1.2219
  483MOL0     H63717   3.099   5.732   3.480 -1.0857 -0.7238  0.4510
  483MOL0     H63718   2.894   5.775   3.554  0.4497 -1.6688 -0.2225
  483MOL0     H63719   2.673   5.882   3.531  2.5740 -1.7557  1.2132
  483MOL0     H63720   2.226   5.733   3.433  0.5981  1.1067  2.8651
  483MOL0     H63721   1.963   5.807   3.456 -0.9183  1.4338 -0.5819
  483MOL0     H63722   1.896   6.237   3.492 -0.4535 -1.8297 -1.5864
  483MOL0     H63723   1.912   6.181   3.660 -2.2755  0.7274  0.9795
  483MOL0     H63724   1.665   6.161   3.497  0.3914  2.3294 -0.6712
  483MOL0     H63725   1.710   6.298   3.602 -1.9156  0.3173 -0.3404
  483MOL0     H63726   1.679   6.182   3.797 -0.2098  1.8656 -1.2554
  483MOL0     H63727   1.751   6.030   3.733  0.7973  0.4542 -1.9884
  483MOL0     H63728   1.464   6.132   3.711  1.3202  1.0777  2.0932
  483MOL0     H63729   1.527   6.001   3.599 -0.9397 -0.5778  0.2515
  483MOL0     H63730   1.559   6.008   3.897 -0.8556  1.7972 -1.6428
  483MOL0     H63731   1.597   5.866   3.791  0.2494  0.9760 -2.6820
  483MOL0     H63732   1.343   5.848   3.750 -2.5894 -2.7073  2.1915
  483MOL0     H63733   1.321   5.974   3.877  0.6042 -0.9857  3.6925
  483MOL0     H63734   1.306   5.723   3.949  0.5227 -0.5958  0.4360
  483MOL0     H63735   1.473   5.712   3.915 -0.8561 -0.5755 -0.3857
  483MOL0     H63736   1.525   5.893   4.087  1.4619 -2.3004 -0.9496
  483MOL0     H63737   1.446   5.748   4.144 -2.3009 -1.3436 -1.9692
  483MOL0     H63738   2.117   6.200   3.523  1.3309  0.7884 -0.6676
  483MOL0     H63739   2.334   6.134   3.506  0.9635  0.2796 -2.0963
  483MOL0     H63740   2.593   5.656   3.179  0.5895  0.2474  0.0375
  483MOL0     H63741   2.817   5.570   3.185 -0.9368  0.8986 -0.4894
  483MOL0     H63742   4.410   5.476   4.641  1.0682  2.8485  0.9223
  483MOL0     H63743   4.600   5.548   4.720  1.1023 -0.4671  0.7152
  483MOL0     H63744   5.053   5.631   4.607  3.2773  1.0348 -1.4775
  483MOL0     H63745   5.259   5.718   4.705 -1.9067  1.1570 -0.4868
  483MOL0     H63746   5.281   5.832   5.037 -2.2854 -0.7061 -2.5045
  483MOL0     H63747   5.314   5.831   4.869  0.9070 -1.0062 -1.6620
  483MOL0     H63748   5.484   5.949   4.979  0.6928  0.4219 -2.9483
  483MOL0     H63749   5.524   5.804   5.082 -0.1678  0.8435  0.6017
  483MOL0     H63750   5.624   5.900   4.836 -1.3231  0.7906 -0.6862
  483MOL0     H63751   5.563   5.740   4.789  0.0946 -0.0889 -0.4851
  483MOL0     H63752   5.691   5.691   5.038  0.7955 -3.0044 -0.7487
  483MOL0     H63753   5.690   5.612   4.894 -1.6232  1.3938 -0.7046
  483MOL0     H63754   6.064   5.816   4.856  0.7963  2.5347  3.7168
  483MOL0     H63755   5.222   5.443   5.034  3.8694  1.2394 -1.6656
  483MOL0     H63756   5.017   5.343   4.938  0.4206  1.0495  2.3644
  484MOL0     O63757   3.429   5.726   1.720  0.0045 -0.2058  0.2560
  484MOL0     C63758   3.525   5.802   1.744  0.2280 -1.8121 -0.0406
  484MOL0     O63759   3.513   5.935   1.756 -0.2006 -0.4074 -0.1369
  484MOL0     C63760   3.407   5.990   1.696 -0.1279  0.0146 -0.0101
  484MOL0     C63761   3.306   6.052   1.778  1.2691  0.7117  0.5831
  484MOL0     C63762   3.209   6.131   1.716 -0.3603  0.3218  0.0053
  484MOL0     C63763   3.198   6.151   1.574 -0.9218 -0.1343  0.5560
  484MOL0     O63764   3.086   6.221   1.523 -0.2141  0.3094 -0.2270
  484MOL0     C63765   3.038   6.159   1.407  0.7726  0.7371 -0.6413
  484MOL0     C63766   2.918   6.223   1.347 -0.8031  0.2532  0.9320
  484MOL0     C63767   2.931   6.374   1.331 -0.5097  0.2077  0.4847
  484MOL0     C63768   2.805   6.423   1.250 -0.3886  0.6007 -0.9881
  484MOL0     C63769   2.836   6.566   1.216  0.3289  0.2909  0.2281
  484MOL0     C63770   2.754   6.618   1.099  0.1571  1.0619 -0.6849
  484MOL0     C63771   2.600   6.597   1.126 -0.3829  0.0155 -0.1505
  484MOL0     C63772   2.511   6.625   1.011  0.0486  0.6794 -0.2430
  484MOL0     N63773   2.370   6.598   1.055  0.2483  0.0987  0.8201
  484MOL0     C63774   2.309   6.474   1.040 -0.6764 -0.7115  0.1501
  484MOL0     C63775   2.174   6.480   1.058 -1.0847 -0.0134 -0.0252
  484MOL0     C63776   2.066   6.378   1.064  0.9075  0.7955  0.3196
  484MOL0     C63777   2.099   6.240   1.140  0.8971  0.9410 -0.3075
  484MOL0     C63778   2.242   6.200   1.151  0.1342  0.1543  0.4569
  484MOL0     C63779   2.261   6.067   1.216  0.5834 -0.1948  0.1409
  484MOL0     O63780   2.229   6.060   1.358  0.6053  0.0810  0.2990
  484MOL0     C63781   2.316   6.044   1.462  0.1470  0.0133 -0.2323
  484MOL0     C63782   2.426   5.955   1.440  0.0721 -0.1521 -0.3915
  484MOL0     C63783   2.519   5.921   1.530  0.0763  0.2416 -0.1656
  484MOL0     C63784   2.494   5.960   1.665 -0.4252 -0.1590  0.9608
  484MOL0     C63785   2.602   5.934   1.765 -0.9734 -0.6071  0.6371
  484MOL0     O63786   2.738   5.924   1.719 -0.7751 -0.2663 -0.4866
  484MOL0     C63787   2.840   5.897   1.808 -0.3012 -0.5799 -0.3854
  484MOL0     C63788   2.852   5.966   1.932  0.5403  0.5229 -0.7348
  484MOL0     C63789   2.968   5.954   2.000  0.0571 -0.4265 -0.4627
  484MOL0     C63790   3.076   5.873   1.954 -0.3834 -0.8296  0.4993
  484MOL0     O63791   3.196   5.859   2.015  0.2228 -0.8670  0.0478
  484MOL0     C63792   3.194   5.752   2.105  0.2605  0.3119  0.1067
  484MOL0     C63793   3.321   5.771   2.190  0.0927  0.9756  0.4259
  484MOL0     C63794   3.426   5.679   2.131 -1.1168  0.2861  0.5737
  484MOL0     C63795   3.544   5.656   2.222  0.5930 -1.1341  0.1964
  484MOL0     C63796   3.620   5.539   2.162  0.2448 -0.3867  0.7588
  484MOL0     C63797   3.710   5.461   2.261 -0.2833  0.0468 -0.6873
  484MOL0     C63798   3.819   5.550   2.302 -0.4962  0.0197 -0.7168
  484MOL0     C63799   3.920   5.485   2.386  1.1323 -0.3635 -0.4005
  484MOL0    Cl63800   4.034   5.389   2.285  0.1764 -0.5091  0.3408
  484MOL0     C63801   3.064   5.800   1.834  0.1952 -0.2887 -0.6990
  484MOL0     C63802   2.944   5.815   1.760  0.4263 -0.0188  0.0037
  484MOL0     O63803   2.565   5.918   1.879  0.0366  0.2212 -1.3761
  484MOL0     C63804   2.379   6.040   1.699  0.4704 -0.5127 -0.0213
  484MOL0     C63805   2.292   6.086   1.597 -0.5432 -1.0841  0.4384
  484MOL0     N63806   2.158   6.615   1.088 -0.6849 -0.8854 -0.2787
  484MOL0     N63807   2.269   6.687   1.089  0.5563  0.4074  0.3627
  484MOL0     C63808   3.305   6.086   1.500  0.3689  0.4143  0.7051
  484MOL0     C63809   3.406   6.011   1.561  1.1004 -0.5766  1.2684
  484MOL0     C63810   3.659   5.747   1.752 -0.3518  0.4421  0.3789
  484MOL0     C63811   3.769   5.821   1.796  0.5686 -0.3790 -0.5151
  484MOL0     C63812   3.891   5.765   1.820 -0.1016  0.7083 -0.2761
  484MOL0     C63813   3.916   5.633   1.805 -0.0239 -0.1273 -0.5799
  484MOL0     O63814   4.041   5.602   1.849  0.5578  0.0599 -0.1068
  484MOL0     C63815   4.097   5.472   1.839  0.5563 -0.3875 -0.7138
  484MOL0     C63816   4.212   5.470   1.750 -0.1377 -0.0124  0.6444
  484MOL0     C63817   4.281   5.332   1.757 -0.0639  0.1708  0.2342
  484MOL0     C63818   4.404   5.330   1.662 -0.2627  0.1120  0.4821
  484MOL0     C63819   4.481   5.205   1.661  0.5935  0.5163 -0.7003
  484MOL0     C63820   4.542   5.100   1.671 -0.1383  0.0182  0.3524
  484MOL0     C63821   3.811   5.554   1.765  0.1257  1.1391 -0.3887
  484MOL0     C63822   3.687   5.607   1.736  0.3561 -0.1859 -0.1331
  484MOL0     H63823   3.307   6.029   1.884  1.4541 -0.3843  0.3608
  484MOL0     H63824   3.120   6.162   1.769 -0.8425  0.3397 -0.8033
  484MOL0     H63825   3.022   6.052   1.423  2.4899 -0.9534 -7.0595
  484MOL0     H63826   3.109   6.157   1.324  1.3931 -1.2481 -0.1180
  484MOL0     H63827   2.825   6.200   1.400 -3.0878  0.3559 -2.7016
  484MOL0     H63828   2.916   6.174   1.249  3.0160  1.3746  0.1223
  484MOL0     H63829   3.024   6.405   1.281 -1.7046  2.6214 -0.3868
  484MOL0     H63830   2.923   6.429   1.425 -1.4760  0.6569  0.1480
  484MOL0     H63831   2.804   6.367   1.156  2.8779 -3.4614  1.0907
  484MOL0     H63832   2.714   6.412   1.309  0.9316  0.1718  1.0803
  484MOL0     H63833   2.936   6.574   1.174 -0.3127  1.3584 -1.1805
  484MOL0     H63834   2.822   6.628   1.306  4.5933  2.2338 -0.1957
  484MOL0     H63835   2.774   6.569   1.004  0.6570 -2.4015  1.0391
  484MOL0     H63836   2.779   6.724   1.086  0.7737  0.8716 -1.0364
  484MOL0     H63837   2.581   6.497   1.166 -2.3729 -0.1275 -1.3091
  484MOL0     H63838   2.573   6.667   1.205 -0.6371 -1.0435  0.7408
  484MOL0     H63839   2.545   6.577   0.919  0.9589  0.0986  0.3890
  484MOL0     H63840   2.516   6.734   0.999  4.0523  0.9027  1.9678
  484MOL0     H63841   2.359   6.385   1.002  0.4755  0.1404 -0.3776
  484MOL0     H63842   2.025   6.359   0.964  3.4127 -0.7839 -0.5137
  484MOL0     H63843   1.986   6.428   1.119 -0.3574  1.0584 -1.6432
  484MOL0     H63844   2.050   6.159   1.085  1.5951  1.3147 -1.5101
  484MOL0     H63845   2.049   6.248   1.238 -0.4221  1.5562 -1.0009
  484MOL0     H63846   2.283   6.186   1.051 -1.2522 -3.5356  0.2577
  484MOL0     H63847   2.301   6.273   1.208  0.2288 -0.7423  1.5431
  484MOL0     H63848   2.362   6.036   1.186  1.1387  1.8483 -0.2764
  484MOL0     H63849   2.195   6.001   1.160 -1.9049  1.9456  0.3809
  484MOL0     H63850   2.451   5.920   1.340  2.4955  2.3693 -0.7866
  484MOL0     H63851   2.607   5.863   1.505  1.5254  0.8084  3.1843
  484MOL0     H63852   2.778   6.027   1.983 -1.4268 -3.0598  1.0599
  484MOL0     H63853   2.971   5.996   2.101  0.3725  0.2962 -0.7641
  484MOL0     H63854   3.191   5.653   2.060  0.3726  0.7851 -0.9665
  484MOL0     H63855   3.109   5.765   2.173 -0.3277  2.3529 -0.9291
  484MOL0     H63856   3.310   5.750   2.297  2.0183 -1.9206  0.1579
  484MOL0     H63857   3.356   5.874   2.180 -0.9652  1.2954 -0.2567
  484MOL0     H63858   3.465   5.726   2.041 -1.2780  1.2454  0.9952
  484MOL0     H63859   3.378   5.583   2.110 -1.5586  0.9286 -1.4682
  484MOL0     H63860   3.608   5.744   2.222  0.2000 -0.7936  2.2888
  484MOL0     H63861   3.518   5.633   2.326  1.1163 -0.6912  0.4303
  484MOL0     H63862   3.684   5.575   2.081  0.7483  0.6177  1.5764
  484MOL0     H63863   3.548   5.468   2.121 -0.4237  1.0299 -0.6249
  484MOL0     H63864   3.742   5.368   2.212 -0.2745  0.6031 -1.7648
  484MOL0     H63865   3.646   5.431   2.344 -1.4462 -0.1869 -1.6420
  484MOL0     H63866   3.861   5.586   2.208 -0.0980  1.3024 -0.0721
  484MOL0     H63867   3.777   5.633   2.359 -0.0826  0.1145 -0.5468
  484MOL0     H63868   3.867   5.427   2.462 -1.2750  2.0971 -0.0524
  484MOL0     H63869   3.973   5.558   2.448  0.5032  0.9219 -1.3461
  484MOL0     H63870   3.141   5.735   1.794  1.5082 -1.0483  2.7262
  484MOL0     H63871   2.932   5.760   1.667 -1.2892  2.2082 -1.1799
  484MOL0     H63872   2.359   6.061   1.803 -2.2387 -2.9723  0.0748
  484MOL0     H63873   2.201   6.140   1.621  0.4577  0.3642  1.1183
  484MOL0     H63874   3.299   6.110   1.394 -0.6137  2.1671  1.1139
  484MOL0     H63875   3.480   5.964   1.497 -1.4378 -1.7638 -0.9686
  484MOL0     H63876   3.756   5.929   1.804 -1.4968 -0.5340 -1.1060
  484MOL0     H63877   3.973   5.830   1.848  1.3424 -0.3369 -1.9486
  484MOL0     H63878   4.016   5.404   1.810  0.3823 -0.1521 -0.7809
  484MOL0     H63879   4.118   5.437   1.940 -3.8230 -0.1006  0.5039
  484MOL0     H63880   4.182   5.490   1.647  1.9241 -0.6350 -0.1140
  484MOL0     H63881   4.282   5.550   1.775  1.1423  0.3885 -3.5127
  484MOL0     H63882   4.200   5.266   1.725 -0.8639  1.1220  0.2704
  484MOL0     H63883   4.306   5.323   1.863 -0.1062  0.4543  0.2677
  484MOL0     H63884   4.369   5.346   1.559  5.1237 -0.4582 -1.7812
  484MOL0     H63885   4.476   5.401   1.703  0.8127 -1.8763  2.2330
  484MOL0     H63886   4.594   5.006   1.671 -3.2966 -1.8715 -0.8896
  484MOL0     H63887   3.820   5.447   1.749 -0.3745  0.6678  2.0278
  484MOL0     H63888   3.619   5.527   1.711 -0.0038 -0.4426  1.5556
  485MOL0     O63889   6.814   2.300   1.687 -0.4433  0.7208 -0.3373
  485MOL0     C63890   6.880   2.197   1.692 -0.3685 -0.1453  0.0884
  485MOL0     O63891   6.834   2.073   1.683  0.4951  0.1458  0.8015
  485MOL0     C63892   6.712   2.043   1.639  0.1862 -0.2107 -0.8301
  485MOL0     C63893   6.632   2.124   1.554 -0.6657 -0.9466 -0.6425
  485MOL0     C63894   6.512   2.076   1.506 -1.3095  0.8922  0.3591
  485MOL0     C63895   6.465   1.955   1.562 -0.1564 -0.4702  0.2851
  485MOL0     O63896   6.333   1.915   1.539 -0.3022  0.0935 -0.4167
  485MOL0     C63897   6.261   1.968   1.423  0.1375  0.8234 -0.3585
  485MOL0     C63898   6.128   1.904   1.402  0.4821 -0.2391  0.8049
  485MOL0     C63899   6.027   1.954   1.505 -0.2974 -0.5983 -0.0431
  485MOL0     C63900   5.875   1.926   1.471 -0.6055  0.0241  0.4486
  485MOL0     C63901   5.786   1.991   1.577 -0.7066  0.3029 -0.2264
  485MOL0     C63902   5.640   1.939   1.584 -0.2360  0.8807 -0.5401
  485MOL0     C63903   5.553   1.993   1.695  0.4013 -0.4386  0.4334
  485MOL0     C63904   5.413   1.921   1.705 -0.0741 -0.5257 -0.2822
  485MOL0     N63905   5.304   1.982   1.619 -0.6650  0.3293 -0.4399
  485MOL0     C63906   5.283   2.114   1.614  0.2146 -0.9915  1.0202
  485MOL0     C63907   5.170   2.122   1.545  0.0271  0.4046  0.0057
  485MOL0     C63908   5.095   2.252   1.530  0.1595 -0.0627 -0.0176
  485MOL0     C63909   4.949   2.251   1.509  0.9812 -0.4328  0.0785
  485MOL0     C63910   4.916   2.176   1.375 -0.4366 -0.1028 -0.6720
  485MOL0     C63911   4.767   2.176   1.375 -0.2971  0.3598  0.3382
  485MOL0     O63912   4.706   2.303   1.381  0.2279  0.3703  0.1309
  485MOL0     C63913   4.571   2.307   1.392  0.3359  0.8109  0.3043
  485MOL0     C63914   4.504   2.363   1.283 -0.3675 -0.6223 -0.1674
  485MOL0     C63915   4.361   2.373   1.284 -1.5025  0.2024 -0.7938
  485MOL0     C63916   4.289   2.324   1.390 -0.3750  0.2396  0.4765
  485MOL0     C63917   4.145   2.347   1.391 -0.2340  0.6029 -0.5690
  485MOL0     O63918   4.095   2.311   1.510  0.2315 -0.0575 -1.0829
  485MOL0     C63919   3.964   2.277   1.507 -0.8772 -0.5197 -0.7075
  485MOL0     C63920   3.885   2.354   1.591 -1.3459  0.1902 -0.4854
  485MOL0     C63921   3.755   2.315   1.622 -0.1835  0.5209  0.1476
  485MOL0     C63922   3.694   2.214   1.547  0.2196 -0.1498 -0.6260
  485MOL0     O63923   3.559   2.182   1.560 -0.0864  0.5656 -0.6656
  485MOL0     C63924   3.475   2.292   1.569  0.8571  1.0364 -0.2656
  485MOL0     C63925   3.334   2.242   1.526 -0.3405 -0.5902  0.5353
  485MOL0     C63926   3.277   2.119   1.592 -0.0356  0.0059 -0.0750
  485MOL0     C63927   3.122   2.122   1.597 -0.1447 -0.2463  0.0793
  485MOL0     C63928   3.069   1.991   1.666 -0.8420  0.4250  0.2050
  485MOL0     C63929   2.920   1.974   1.635 -0.6595 -0.1098 -0.4474
  485MOL0     C63930   2.838   2.067   1.726  0.2125 -0.0742  0.5775
  485MOL0     C63931   2.703   1.999   1.747 -1.2220  0.3537  0.3208
  485MOL0    Cl63932   2.617   2.065   1.880 -0.0678 -0.2078  0.3626
  485MOL0     C63933   3.769   2.152   1.450  0.5545  0.7392 -0.5890
  485MOL0     C63934   3.910   2.171   1.451 -0.0858 -0.4797  0.3818
  485MOL0     O63935   4.083   2.393   1.298 -0.6520 -0.2027 -0.7403
  485MOL0     C63936   4.361   2.250   1.490  0.1035  0.5030 -0.3421
  485MOL0     C63937   4.506   2.237   1.495  0.7194 -0.7489 -0.7634
  485MOL0     N63938   5.113   1.996   1.528 -0.2628  0.2187 -0.5006
  485MOL0     N63939   5.196   1.908   1.578  0.2800  0.8737 -0.0646
  485MOL0     C63940   6.534   1.876   1.651  0.9867  0.0688  0.0806
  485MOL0     C63941   6.660   1.921   1.689  0.2277 -0.0470  0.8511
  485MOL0     C63942   7.026   2.224   1.712 -0.4979  0.5178  0.5204
  485MOL0     C63943   7.089   2.354   1.714  0.2099  0.2104  0.8938
  485MOL0     C63944   7.219   2.376   1.743  1.4233 -0.0645  0.5978
  485MOL0     C63945   7.296   2.270   1.783  0.6941 -0.6077 -0.5350
  485MOL0     O63946   7.418   2.292   1.844  0.0973 -0.0436  0.5906
  485MOL0     C63947   7.483   2.422   1.858 -0.3184 -0.4652  1.2788
  485MOL0     C63948   7.595   2.404   1.964 -0.1485 -0.1252  0.7544
  485MOL0     C63949   7.688   2.286   1.929 -0.2334  0.0148  0.0518
  485MOL0     C63950   7.802   2.280   2.039 -0.2894  0.3589 -0.4734
  485MOL0     C63951   7.886   2.167   2.010 -0.0512  0.7130  0.1009
  485MOL0     C63952   7.937   2.057   2.008 -0.4396  0.1722 -0.4032
  485MOL0     C63953   7.246   2.142   1.774 -0.1052 -0.1177 -0.1303
  485MOL0     C63954   7.112   2.113   1.748  0.8227  0.1744 -0.2597
  485MOL0     H63955   6.655   2.216   1.503 -1.2921 -1.4610 -1.8887
  485MOL0     H63956   6.456   2.135   1.434 -1.3729  2.5953  1.7299
  485MOL0     H63957   6.318   1.946   1.333 -1.0251 -0.6392 -0.7715
  485MOL0     H63958   6.251   2.077   1.433 -2.0766  0.6603 -0.5014
  485MOL0     H63959   6.147   1.797   1.415  0.7544 -0.5939 -1.8730
  485MOL0     H63960   6.085   1.902   1.302  2.0194 -3.1171  0.1008
  485MOL0     H63961   6.042   2.062   1.502 -0.6848 -0.5685 -1.9491
  485MOL0     H63962   6.053   1.909   1.602  0.5645  1.3444  0.6695
  485MOL0     H63963   5.841   1.972   1.378  1.8774 -0.2075 -0.6377
  485MOL0     H63964   5.864   1.823   1.438  1.2451  0.4927 -1.8964
  485MOL0     H63965   5.783   2.101   1.571 -1.9337  0.6114  3.3701
  485MOL0     H63966   5.831   1.970   1.675 -1.7233 -2.3638 -0.2796
  485MOL0     H63967   5.647   1.830   1.589  1.4213  0.9891  0.2080
  485MOL0     H63968   5.591   1.959   1.488 -0.6271 -1.0532 -0.7786
  485MOL0     H63969   5.614   1.990   1.786  0.7861  2.4442  0.3710
  485MOL0     H63970   5.545   2.099   1.671  3.4953 -0.0366  0.7917
  485MOL0     H63971   5.393   1.940   1.811  0.7683 -2.3924  0.2449
  485MOL0     H63972   5.410   1.813   1.688 -0.0561 -0.1973 -2.6184
  485MOL0     H63973   5.343   2.199   1.645  0.8949 -1.1800  0.2650
  485MOL0     H63974   5.147   2.297   1.445  1.1632 -0.8245  0.1800
  485MOL0     H63975   5.109   2.300   1.628 -3.7456 -0.9902  1.1742
  485MOL0     H63976   4.914   2.354   1.511  3.8600  0.6405  1.8148
  485MOL0     H63977   4.914   2.189   1.592  1.4730 -2.8749 -1.4064
  485MOL0     H63978   4.948   2.222   1.281  0.5982 -1.5980 -1.0852
  485MOL0     H63979   4.959   2.075   1.380  0.2268  0.2521  1.9003
  485MOL0     H63980   4.747   2.108   1.459 -0.6523  0.4997  0.3678
  485MOL0     H63981   4.729   2.127   1.285 -0.6750  0.1242  0.6207
  485MOL0     H63982   4.573   2.405   1.210 -1.0259 -1.2265 -1.1472
  485MOL0     H63983   4.329   2.446   1.210 -0.1454  0.8561 -0.7466
  485MOL0     H63984   3.922   2.442   1.642  1.4494 -1.3343  0.2966
  485MOL0     H63985   3.704   2.386   1.686  1.0057  3.6771 -2.1478
  485MOL0     H63986   3.512   2.371   1.504  3.1115  1.1788  1.0787
  485MOL0     H63987   3.472   2.326   1.673 -0.2110 -2.5604  1.0667
  485MOL0     H63988   3.337   2.225   1.418  1.4157 -1.1269  0.6468
  485MOL0     H63989   3.263   2.323   1.548  0.3886  0.7903 -1.7800
  485MOL0     H63990   3.311   2.106   1.695  2.1045  1.0032 -0.5882
  485MOL0     H63991   3.321   2.039   1.533 -2.3787  0.7561 -3.1467
  485MOL0     H63992   3.066   2.199   1.652 -0.3911 -2.4814  3.2335
  485MOL0     H63993   3.101   2.131   1.490  2.0235  1.6568 -0.2574
  485MOL0     H63994   3.093   1.996   1.772  1.0841 -2.6871  0.0419
  485MOL0     H63995   3.114   1.901   1.622 -4.6082 -2.6667  2.0747
  485MOL0     H63996   2.904   1.867   1.654 -0.2766 -0.2204 -0.7213
  485MOL0     H63997   2.893   1.992   1.531  0.0944 -0.1337 -0.6582
  485MOL0     H63998   2.880   2.072   1.827  1.7231 -0.3587 -0.0022
  485MOL0     H63999   2.831   2.163   1.675  1.3986  1.4052  3.0122
  485MOL0     H64000   2.723   1.895   1.776  0.0408  0.2732 -0.7411
  485MOL0     H64001   2.642   2.000   1.656  1.2278 -1.6634 -1.5148
  485MOL0     H64002   3.721   2.067   1.404  3.4047 -1.8008  0.7298
  485MOL0     H64003   3.975   2.109   1.391 -2.1241  0.7602 -3.4595
  485MOL0     H64004   4.300   2.193   1.560  2.3246 -3.0635 -1.0614
  485MOL0     H64005   4.550   2.182   1.577  0.4108 -1.0223 -0.7792
  485MOL0     H64006   6.484   1.789   1.694  0.4920  1.0103  1.4854
  485MOL0     H64007   6.717   1.872   1.767  1.8487  0.9529  0.3290
  485MOL0     H64008   7.020   2.438   1.709  0.8693  0.7195 -0.2532
  485MOL0     H64009   7.246   2.482   1.743  0.7818  0.1853 -2.1927
  485MOL0     H64010   7.420   2.506   1.890  1.0923 -0.1512  3.4205
  485MOL0     H64011   7.540   2.448   1.768  1.3904 -2.6669  1.6433
  485MOL0     H64012   7.653   2.496   1.980 -0.0273 -0.4680  2.5856
  485MOL0     H64013   7.542   2.375   2.055 -1.0145  0.6814  0.5251
  485MOL0     H64014   7.737   2.300   1.832  1.8050  1.8578  1.2564
  485MOL0     H64015   7.635   2.191   1.920 -0.9480  0.3636  0.4192
  485MOL0     H64016   7.865   2.370   2.044  1.4229 -0.6832 -2.0569
  485MOL0     H64017   7.761   2.269   2.140  0.2455  2.3654  0.0078
  485MOL0     H64018   7.988   1.962   2.014 -2.2216 -0.7477  1.9433
  485MOL0     H64019   7.317   2.068   1.810  2.7202  2.0962 -0.7992
  485MOL0     H64020   7.080   2.009   1.754 -0.4447  0.5221 -0.5834
  486MOL0     O64021   4.405   9.709   1.907  0.6928 -0.4948 -0.1278
  486MOL0     C64022   4.354   9.712   2.019 -0.1362 -0.7041  0.0332
  486MOL0     O64023   4.413   9.720   2.143  0.4333 -0.2567 -0.4158
  486MOL0     C64024   4.544   9.759   2.165 -0.3299 -0.6641 -0.9481
  486MOL0     C64025   4.634   9.801   2.061 -0.6982 -1.0696  1.1138
  486MOL0     C64026   4.769   9.833   2.082  0.7067 -0.4087  0.5055
  486MOL0     C64027   4.819   9.823   2.209  0.1202 -0.0437 -0.3081
  486MOL0     O64028   4.949   9.853   2.249 -0.5943  0.0130  0.8000
  486MOL0     C64029   5.032   9.935   2.162  0.2624  0.2310  0.8457
  486MOL0     C64030   5.166   9.951   2.242  0.9384 -0.6694  0.5455
  486MOL0     C64031   5.292   9.954   2.150  0.6948 -0.0773 -0.3999
  486MOL0     C64032   5.410   9.983   2.244  0.2506 -0.3844  0.8763
  486MOL0     C64033   5.535  10.007   2.149 -0.7450  0.4725  0.2175
  486MOL0     C64034   5.528  10.120   2.043  1.5253  0.5597 -0.2179
  486MOL0     C64035   5.663  10.181   2.015  0.7590  0.6587 -0.3782
  486MOL0     C64036   5.698  10.296   2.111  0.4616  0.0541 -0.3055
  486MOL0     N64037   5.595  10.402   2.093  0.5450 -1.4308  0.2429
  486MOL0     C64038   5.514  10.447   2.195 -0.0415  0.4438 -0.2878
  486MOL0     C64039   5.447  10.552   2.137  0.0387 -0.3414 -0.3365
  486MOL0     C64040   5.334  10.650   2.191 -0.8558  1.1601  0.3041
  486MOL0     C64041   5.412  10.764   2.263  0.4871  0.0025  0.6372
  486MOL0     C64042   5.490  10.859   2.168  0.4385 -0.2034  0.1054
  486MOL0     C64043   5.402  10.888   2.039 -0.7781 -0.1418 -0.2699
  486MOL0     O64044   5.287  10.960   2.084 -0.2477  0.1743 -0.6681
  486MOL0     C64045   5.161  10.921   2.046 -0.0312  0.4698 -0.7177
  486MOL0     C64046   5.122  10.949   1.914  0.5483  0.2997 -0.3598
  486MOL0     C64047   5.009  10.882   1.860 -0.5045  0.1792  0.0585
  486MOL0     C64048   4.931  10.790   1.943 -0.1949 -0.5147  0.1122
  486MOL0     C64049   4.840  10.694   1.889  0.6959 -0.4604  0.8051
  486MOL0     O64050   4.750  10.635   1.971  0.1043  0.7712 -0.2049
  486MOL0     C64051   4.678  10.526   1.928  0.3625  0.1310  0.4932
  486MOL0     C64052   4.746  10.403   1.916  0.8981  0.0329  0.2511
  486MOL0     C64053   4.689  10.295   1.854  0.0921  0.2357  0.2555
  486MOL0     C64054   4.559  10.304   1.796 -0.1552 -0.1744 -0.1141
  486MOL0     O64055   4.502  10.201   1.731  0.2014 -0.6195  0.4353
  486MOL0     C64056   4.495  10.073   1.789 -0.3107 -0.1834  0.0331
  486MOL0     C64057   4.402   9.994   1.694 -0.6483 -0.2579  0.3025
  486MOL0     C64058   4.250  10.005   1.687  0.1193  0.7668  0.2782
  486MOL0     C64059   4.208   9.932   1.556 -0.5398  0.8164 -0.0764
  486MOL0     C64060   4.220  10.006   1.421 -0.5908 -0.3737  0.2145
  486MOL0     C64061   4.186   9.902   1.309 -0.3079  0.4537 -0.2793
  486MOL0     C64062   4.198   9.981   1.165  0.1383  0.3870  0.1189
  486MOL0     C64063   4.153   9.901   1.042 -0.2176 -0.4035 -0.5237
  486MOL0    Cl64064   3.975   9.871   1.054 -0.2624  0.5917  0.1756
  486MOL0     C64065   4.505  10.431   1.788  1.3641 -0.0260 -0.3138
  486MOL0     C64066   4.558  10.543   1.852  0.0713  0.1603  0.2672
  486MOL0     O64067   4.831  10.689   1.768  0.1163 -0.2823  0.1071
  486MOL0     C64068   4.965  10.787   2.080  0.3230  0.3920  0.1241
  486MOL0     C64069   5.075  10.852   2.135 -0.4016 -0.1953  0.2982
  486MOL0     N64070   5.501  10.574   2.012  0.5592  0.5548 -0.5050
  486MOL0     N64071   5.587  10.490   1.987  0.3127 -0.0176 -0.3739
  486MOL0     C64072   4.731   9.772   2.309 -0.1383  0.2609  0.1670
  486MOL0     C64073   4.598   9.744   2.289  0.2699  0.3407  0.2868
  486MOL0     C64074   4.212   9.724   2.013  0.1032 -0.0524  0.0616
  486MOL0     C64075   4.139   9.685   1.899  0.1491 -0.1472  0.3189
  486MOL0     C64076   3.995   9.695   1.891  0.1507 -0.6990 -0.0736
  486MOL0     C64077   3.929   9.757   2.004  0.2294  0.0656  1.3694
  486MOL0     O64078   3.792   9.775   2.007  0.5379  0.6632 -0.7571
  486MOL0     C64079   3.716   9.764   1.885  0.6078 -1.3636 -0.0053
  486MOL0     C64080   3.573   9.828   1.893  1.4500  0.0321 -0.4556
  486MOL0     C64081   3.598   9.968   1.932 -0.3771  0.0987  0.0155
  486MOL0     C64082   3.468  10.052   1.926  0.0504 -0.3344  0.1380
  486MOL0     C64083   3.492  10.170   2.016  0.3124 -0.5462 -0.3872
  486MOL0     C64084   3.507  10.266   2.096  0.0688  0.1361  0.4674
  486MOL0     C64085   4.002   9.800   2.114 -0.0988  0.1211  0.6846
  486MOL0     C64086   4.145   9.786   2.111  0.6257  0.6235  0.4479
  486MOL0     H64087   4.606   9.816   1.957  3.3272  1.8092  0.1721
  486MOL0     H64088   4.834   9.871   2.004  0.1393 -0.4613  0.0031
  486MOL0     H64089   4.992  10.035   2.143  1.5391  0.5668 -0.2383
  486MOL0     H64090   5.065   9.890   2.068  0.0441  0.5585  0.6115
  486MOL0     H64091   5.173   9.871   2.316  0.6087  1.7599  3.3791
  486MOL0     H64092   5.172  10.042   2.303 -1.3151  0.5605 -0.9415
  486MOL0     H64093   5.289  10.034   2.076  0.9251 -0.2836 -0.6343
  486MOL0     H64094   5.292   9.854   2.106 -1.5331 -1.9571  3.3036
  486MOL0     H64095   5.387  10.072   2.303 -2.8237  1.1349 -2.3147
  486MOL0     H64096   5.433   9.901   2.313  1.5353 -1.7625 -1.0863
  486MOL0     H64097   5.556   9.915   2.094 -3.4848 -0.2263  0.1805
  486MOL0     H64098   5.620  10.029   2.214  0.0861  3.6396 -1.7010
  486MOL0     H64099   5.466  10.206   2.069  1.1484  0.6647 -1.4126
  486MOL0     H64100   5.493  10.084   1.946  4.2147 -2.8841 -0.0913
  486MOL0     H64101   5.739  10.103   2.024 -0.5528 -0.4089  3.5049
  486MOL0     H64102   5.653  10.217   1.912 -2.2250  0.8308 -0.1046
  486MOL0     H64103   5.800  10.334   2.097  0.1271  1.6299  1.1542
  486MOL0     H64104   5.683  10.267   2.215  0.0146  1.5381  0.0654
  486MOL0     H64105   5.505  10.406   2.295 -0.7461  0.5867 -0.2859
  486MOL0     H64106   5.282  10.591   2.267 -0.9117  1.0787  0.2020
  486MOL0     H64107   5.259  10.671   2.115 -0.5133 -0.5274 -0.5452
  486MOL0     H64108   5.484  10.720   2.333 -1.2781 -0.8998  1.9384
  486MOL0     H64109   5.345  10.819   2.329  1.1208  1.2113  0.3134
  486MOL0     H64110   5.517  10.949   2.224  1.8836  0.0455 -0.9412
  486MOL0     H64111   5.580  10.811   2.128 -0.9848  0.0882 -3.8446
  486MOL0     H64112   5.370  10.800   1.982  0.5071 -1.0958  0.4208
  486MOL0     H64113   5.458  10.948   1.966 -0.4813 -0.1465 -0.0476
  486MOL0     H64114   5.192  11.000   1.849 -1.2658  1.9852 -1.1052
  486MOL0     H64115   4.972  10.879   1.758 -2.6789 -0.4608  0.8215
  486MOL0     H64116   4.849  10.406   1.949  0.6481  2.5298  1.0065
  486MOL0     H64117   4.741  10.199   1.849  3.0239  1.6686  0.7527
  486MOL0     H64118   4.452  10.088   1.889 -1.3272  0.1131 -0.4485
  486MOL0     H64119   4.589  10.017   1.787  1.9196  3.1878  1.3342
  486MOL0     H64120   4.421   9.887   1.702 -1.0440 -0.3161  0.4511
  486MOL0     H64121   4.435  10.012   1.591 -1.4757 -0.2518  0.0266
  486MOL0     H64122   4.227  10.112   1.695 -1.8843  0.3341  0.8749
  486MOL0     H64123   4.196   9.956   1.768  1.8125 -1.8712 -0.0621
  486MOL0     H64124   4.253   9.832   1.549 -1.8963 -0.0011  1.9464
  486MOL0     H64125   4.100   9.921   1.551 -0.6354  0.9454  1.3069
  486MOL0     H64126   4.321  10.045   1.406 -0.9790  0.6103  0.0615
  486MOL0     H64127   4.152  10.092   1.420 -0.5062 -0.2445 -2.7084
  486MOL0     H64128   4.079   9.883   1.325 -0.1982  1.0246  1.3671
  486MOL0     H64129   4.246   9.812   1.317 -1.0168  0.1673  3.3506
  486MOL0     H64130   4.153  10.081   1.163  0.9311  0.7851  1.0875
  486MOL0     H64131   4.305  10.004   1.153  0.3315 -0.0689  0.9333
  486MOL0     H64132   4.213   9.810   1.037  2.3061  1.2414 -3.5595
  486MOL0     H64133   4.172   9.952   0.947 -0.4064 -1.2730 -1.0425
  486MOL0     H64134   4.407  10.437   1.742 -0.2846 -0.0704  2.8916
  486MOL0     H64135   4.511  10.640   1.835  4.3577  2.8568  2.2743
  486MOL0     H64136   4.916  10.708   2.135 -0.2350  1.3479  1.0342
  486MOL0     H64137   5.114  10.826   2.233  2.7855 -1.2274 -1.1415
  486MOL0     H64138   4.787   9.745   2.399  3.4694 -0.6757 -2.1459
  486MOL0     H64139   4.545   9.696   2.370  0.8266 -3.3273 -1.3215
  486MOL0     H64140   4.184   9.650   1.807 -1.7973  1.5632 -1.3809
  486MOL0     H64141   3.941   9.660   1.804 -0.9646 -1.2124  0.7952
  486MOL0     H64142   3.701   9.657   1.863  3.0477 -1.5077 -1.2407
  486MOL0     H64143   3.779   9.798   1.803  0.9419 -0.4001  0.6349
  486MOL0     H64144   3.515   9.827   1.799  1.0352  1.1641 -0.2312
  486MOL0     H64145   3.506   9.782   1.966 -1.2036  0.5251 -2.4108
  486MOL0     H64146   3.682  10.006   1.873 -0.6416 -2.1633 -1.9782
  486MOL0     H64147   3.632   9.962   2.036  3.0488 -2.4271 -1.0844
  486MOL0     H64148   3.432  10.082   1.827  0.0023 -0.9225 -0.0255
  486MOL0     H64149   3.384  10.001   1.974 -0.0426  2.3131  3.1248
  486MOL0     H64150   3.494  10.341   2.170 -2.2206  1.4799 -1.1601
  486MOL0     H64151   3.953   9.850   2.196  2.1133  2.1486  0.8961
  486MOL0     H64152   4.193   9.834   2.196 -2.6121  0.3632  2.5939
  487MOL0     O64153   3.324   2.958   5.542 -0.0981  0.1108  0.4748
  487MOL0     C64154   3.401   2.939   5.638 -1.7712  0.3933  0.9422
  487MOL0     O64155   3.422   2.820   5.697  0.3660 -0.6866 -0.9421
  487MOL0     C64156   3.368   2.707   5.640 -0.1625  0.1973 -0.4083
  487MOL0     C64157   3.235   2.689   5.585 -0.5933  0.2600  0.8005
  487MOL0     C64158   3.199   2.573   5.517  0.4464  0.0167 -0.2439
  487MOL0     C64159   3.295   2.478   5.485 -1.0437  1.0121 -0.5438
  487MOL0     O64160   3.266   2.366   5.410 -0.1176  0.4755  0.3958
  487MOL0     C64161   3.149   2.361   5.325  0.8669  0.0262  0.6553
  487MOL0     C64162   3.118   2.221   5.276  0.8102 -0.2032  0.4316
  487MOL0     C64163   3.238   2.147   5.213  0.5696 -0.1638  0.1587
  487MOL0     C64164   3.217   1.992   5.208 -0.4864  0.1640 -0.0036
  487MOL0     C64165   3.332   1.931   5.127  0.6129  0.2834  0.2740
  487MOL0     C64166   3.299   1.786   5.098  0.2278 -0.1456 -0.0956
  487MOL0     C64167   3.432   1.722   5.044 -0.0526  0.1805  0.3034
  487MOL0     C64168   3.541   1.706   5.156  0.1076 -0.2177  0.0584
  487MOL0     N64169   3.655   1.621   5.129 -0.3246 -0.1423  1.4428
  487MOL0     C64170   3.763   1.608   5.218 -0.2067 -0.2066  0.1270
  487MOL0     C64171   3.849   1.519   5.165 -0.4711 -0.4023 -0.1951
  487MOL0     C64172   3.973   1.485   5.234  0.4089  0.2203 -0.9941
  487MOL0     C64173   4.059   1.617   5.242  0.0146  0.2902  0.3267
  487MOL0     C64174   4.202   1.601   5.297  0.4372  0.3539  0.3629
  487MOL0     C64175   4.289   1.521   5.213 -0.5258  0.1127  0.2559
  487MOL0     O64176   4.428   1.567   5.215  0.9146  0.8245 -0.6788
  487MOL0     C64177   4.492   1.535   5.337  0.0619  0.6892  0.3603
  487MOL0     C64178   4.597   1.614   5.368 -0.1266  0.1930 -0.2703
  487MOL0     C64179   4.665   1.607   5.493 -0.4469  0.0455 -0.2316
  487MOL0     C64180   4.645   1.496   5.578 -0.4780 -0.0153  0.0760
  487MOL0     C64181   4.718   1.474   5.697 -0.3550 -1.9168  0.1256
  487MOL0     O64182   4.844   1.532   5.704  0.4497 -0.3692 -0.1113
  487MOL0     C64183   4.944   1.472   5.782 -0.3576 -0.1510 -0.4494
  487MOL0     C64184   4.938   1.349   5.855 -1.0297 -0.2582  0.4057
  487MOL0     C64185   5.048   1.311   5.926 -0.2905  0.2794  0.0950
  487MOL0     C64186   5.168   1.387   5.936  0.4461  0.0386 -0.2974
  487MOL0     O64187   5.259   1.339   6.025  0.4611  0.6976 -0.5575
  487MOL0     C64188   5.357   1.438   6.061  0.4637  0.4528  0.5172
  487MOL0     C64189   5.457   1.365   6.149 -0.0918 -0.4560 -0.0872
  487MOL0     C64190   5.577   1.462   6.168  0.0118 -0.8476  0.4446
  487MOL0     C64191   5.699   1.408   6.243 -0.9413  0.2412  0.5290
  487MOL0     C64192   5.808   1.503   6.274  0.6185  0.0116  1.2391
  487MOL0     C64193   5.934   1.485   6.186 -0.0242 -0.1257  0.2946
  487MOL0     C64194   6.055   1.586   6.215 -0.2967 -0.5181  0.3634
  487MOL0     C64195   6.110   1.578   6.364  0.8489  0.6597  0.3317
  487MOL0    Cl64196   6.212   1.421   6.363  0.0455  0.0420  0.0107
  487MOL0     C64197   5.175   1.499   5.847  0.4650  0.2191  0.4596
  487MOL0     C64198   5.069   1.543   5.778  0.5284  0.7578  0.5022
  487MOL0     O64199   4.658   1.428   5.795  0.4276 -0.0654  0.0709
  487MOL0     C64200   4.536   1.413   5.541  0.1020  0.0407  0.1536
  487MOL0     C64201   4.466   1.421   5.417  0.3468 -0.0792 -0.4352
  487MOL0     N64202   3.793   1.479   5.049  0.2358 -0.5039  0.3834
  487MOL0     N64203   3.675   1.529   5.035 -0.2392 -0.3860  0.5721
  487MOL0     C64204   3.426   2.490   5.554  0.6819  0.1428  0.1114
  487MOL0     C64205   3.461   2.600   5.628  0.9631 -0.3592  0.0479
  487MOL0     C64206   3.473   3.061   5.693  0.0014 -0.0705 -0.2653
  487MOL0     C64207   3.556   3.037   5.802  0.3042  0.3276 -0.3339
  487MOL0     C64208   3.618   3.139   5.873 -0.2041  0.2393  0.4790
  487MOL0     C64209   3.603   3.275   5.830 -0.9319 -0.1994 -0.5701
  487MOL0     O64210   3.687   3.378   5.879 -0.4418 -0.7502  0.1298
  487MOL0     C64211   3.812   3.346   5.940 -0.1614  0.0561 -0.4645
  487MOL0     C64212   3.900   3.471   5.974  0.6471 -0.1380  0.2516
  487MOL0     C64213   4.047   3.452   5.987 -0.1248  0.0207 -1.1884
  487MOL0     C64214   4.112   3.579   6.045  0.3767  0.0078 -0.3308
  487MOL0     C64215   4.107   3.599   6.188 -0.3119  0.2464  0.5279
  487MOL0     C64216   4.101   3.579   6.307 -0.3916  0.3375  1.2397
  487MOL0     C64217   3.510   3.300   5.736  0.1024 -0.2059 -0.6738
  487MOL0     C64218   3.445   3.194   5.660 -0.3052 -0.2288  0.8981
  487MOL0     H64219   3.159   2.765   5.601  0.1775  0.8471  1.8477
  487MOL0     H64220   3.092   2.573   5.499  0.4123  1.4294 -0.1664
  487MOL0     H64221   3.158   2.425   5.237 -1.4032  1.9330  1.7039
  487MOL0     H64222   3.058   2.396   5.375 -2.0715 -2.6010 -2.3927
  487MOL0     H64223   3.045   2.226   5.195  0.3155  0.9727  0.9265
  487MOL0     H64224   3.077   2.162   5.359  1.6222 -2.3870 -0.6338
  487MOL0     H64225   3.332   2.168   5.265  2.9373 -4.9623 -1.5602
  487MOL0     H64226   3.253   2.182   5.110  1.6272 -0.1230  0.3213
  487MOL0     H64227   3.204   1.946   5.307 -1.5936 -2.1609 -1.1757
  487MOL0     H64228   3.124   1.974   5.154  0.0393 -0.8782 -0.5642
  487MOL0     H64229   3.420   1.945   5.190  2.5272 -1.1751 -1.9092
  487MOL0     H64230   3.349   1.986   5.034 -1.9833 -1.1319 -1.1634
  487MOL0     H64231   3.232   1.784   5.011  1.6685 -2.6834 -1.2650
  487MOL0     H64232   3.261   1.736   5.188 -0.5938  3.0483  1.4577
  487MOL0     H64233   3.390   1.630   5.004 -1.3801  1.2673 -0.9082
  487MOL0     H64234   3.469   1.776   4.956  0.6476 -0.3868  0.2392
  487MOL0     H64235   3.486   1.679   5.247  2.7617  0.4162  1.9574
  487MOL0     H64236   3.573   1.810   5.174 -3.4887  1.1490 -0.5329
  487MOL0     H64237   3.766   1.645   5.320  0.0735  1.2541 -0.3790
  487MOL0     H64238   4.025   1.409   5.174  0.6516  0.2725 -0.8504
  487MOL0     H64239   3.953   1.448   5.335 -2.3348  1.8012 -0.8538
  487MOL0     H64240   4.006   1.685   5.309 -0.2606 -1.8878  2.4634
  487MOL0     H64241   4.072   1.660   5.142  1.1616 -3.5156 -1.3452
  487MOL0     H64242   4.247   1.697   5.322  0.6895  0.6017 -0.9916
  487MOL0     H64243   4.192   1.553   5.395 -2.0171  2.7085  1.3697
  487MOL0     H64244   4.245   1.543   5.115 -6.8613  1.3604  2.9130
  487MOL0     H64245   4.282   1.415   5.236  1.0579 -0.0240  0.2652
  487MOL0     H64246   4.631   1.698   5.309  3.3138 -1.0271 -0.2224
  487MOL0     H64247   4.751   1.671   5.510 -0.0032 -0.3439 -0.9623
  487MOL0     H64248   4.855   1.280   5.853 -1.5696  0.3378  1.6736
  487MOL0     H64249   5.049   1.210   5.968 -3.3778 -0.8578 -2.2282
  487MOL0     H64250   5.308   1.521   6.112 -0.1994 -1.0993  2.5591
  487MOL0     H64251   5.407   1.490   5.979  0.8184  5.6620  3.5630
  487MOL0     H64252   5.493   1.275   6.098  4.4209  0.5973  0.8239
  487MOL0     H64253   5.397   1.333   6.235 -0.9297 -1.1687 -0.9132
  487MOL0     H64254   5.536   1.546   6.224 -0.0018 -0.7067  0.2265
  487MOL0     H64255   5.608   1.505   6.072 -3.4263  3.1749  0.8636
  487MOL0     H64256   5.673   1.360   6.337 -1.5438  0.3982  0.4424
  487MOL0     H64257   5.748   1.331   6.182 -1.0606  1.3504 -1.0055
  487MOL0     H64258   5.841   1.476   6.375 -0.2576  1.0513  1.8252
  487MOL0     H64259   5.768   1.604   6.262  0.3239 -0.3234 -0.9308
  487MOL0     H64260   5.915   1.498   6.079  1.0082 -2.1616 -0.1907
  487MOL0     H64261   5.972   1.383   6.193  1.6067  0.4804  0.6962
  487MOL0     H64262   6.147   1.571   6.158  0.0614  0.1592  0.7359
  487MOL0     H64263   6.027   1.686   6.180 -1.9645 -0.6672  1.1780
  487MOL0     H64264   6.035   1.584   6.443 -3.2852  1.6107 -3.2458
  487MOL0     H64265   6.170   1.669   6.378  3.7493 -0.6443 -2.2811
  487MOL0     H64266   5.259   1.568   5.849  1.8613 -1.4250  0.9061
  487MOL0     H64267   5.079   1.629   5.713 -0.4731 -1.4034 -2.8024
  487MOL0     H64268   4.514   1.322   5.596 -0.1952  0.1175  0.1595
  487MOL0     H64269   4.381   1.354   5.408 -1.7504  1.7045  3.5026
  487MOL0     H64270   3.492   2.404   5.563  0.8809  0.4440  1.7959
  487MOL0     H64271   3.561   2.594   5.670  0.8477 -0.0116  0.3760
  487MOL0     H64272   3.572   2.940   5.850  1.5575  0.3539 -0.6558
  487MOL0     H64273   3.686   3.118   5.955  0.5245 -0.1399 -0.2097
  487MOL0     H64274   3.868   3.290   5.865 -2.9813  0.4857 -3.0919
  487MOL0     H64275   3.813   3.290   6.034  0.2828  0.8931  0.0440
  487MOL0     H64276   3.883   3.540   5.890 -0.4882 -0.8404 -0.1341
  487MOL0     H64277   3.870   3.506   6.073 -0.3037 -1.2037  0.3683
  487MOL0     H64278   4.094   3.429   5.890  2.1363  3.8859 -1.2039
  487MOL0     H64279   4.066   3.367   6.054  1.1403  2.0558  1.1762
  487MOL0     H64280   4.219   3.576   6.020  0.6098  1.8176  0.2879
  487MOL0     H64281   4.075   3.663   5.984  0.2885 -1.7677 -2.8934
  487MOL0     H64282   4.083   3.556   6.410 -2.3845  0.6008  0.9876
  487MOL0     H64283   3.508   3.404   5.705  3.8032 -0.2770 -1.6125
  487MOL0     H64284   3.375   3.215   5.579 -2.4440  0.5093  2.8108
  488MOL0     O64285   4.073   6.030   7.174 -0.1442 -0.6387 -0.3307
  488MOL0     C64286   4.034   6.078   7.065  0.0325  0.9831 -0.3103
  488MOL0     O64287   4.108   6.093   6.945  0.2103 -0.2118 -0.3207
  488MOL0     C64288   4.241   6.043   6.926  0.5223 -0.4594 -0.8339
  488MOL0     C64289   4.291   6.082   6.806 -0.3260  0.2626 -0.0249
  488MOL0     C64290   4.428   6.051   6.779 -0.6880 -0.3366  0.2636
  488MOL0     C64291   4.509   5.987   6.878 -0.2709 -0.3839  0.7353
  488MOL0     O64292   4.640   5.972   6.857  0.1442  0.2491 -0.5241
  488MOL0     C64293   4.683   5.834   6.825  0.6786 -0.1999  0.2111
  488MOL0     C64294   4.780   5.791   6.934 -0.2292 -0.4557 -0.0163
  488MOL0     C64295   4.896   5.887   6.932  0.1732 -0.0034  0.4369
  488MOL0     C64296   4.995   5.850   7.043 -1.6250 -0.4588  0.0230
  488MOL0     C64297   5.067   5.716   7.020  0.2485 -0.4109  0.1318
  488MOL0     C64298   5.214   5.697   7.059 -0.6569  0.4223 -0.0578
  488MOL0     C64299   5.252   5.543   7.059 -0.1713  1.1780 -0.8776
  488MOL0     C64300   5.261   5.477   6.917 -0.3769 -0.0549  0.4086
  488MOL0     N64301   5.401   5.443   6.878 -0.5444  0.7208  0.3510
  488MOL0     C64302   5.453   5.317   6.852 -0.3313 -0.4577  0.1191
  488MOL0     C64303   5.584   5.345   6.824  0.8369  1.1164  0.1050
  488MOL0     C64304   5.688   5.227   6.801 -0.1424 -0.1318  0.1450
  488MOL0     C64305   5.653   5.131   6.686  0.5085  0.2982  0.6156
  488MOL0     C64306   5.692   5.195   6.554 -0.4888  0.3410 -0.5351
  488MOL0     C64307   5.600   5.167   6.441  0.1739 -0.5888 -0.9359
  488MOL0     O64308   5.467   5.207   6.474 -0.1211  0.2280  0.6162
  488MOL0     C64309   5.370   5.202   6.371 -0.2706  1.0152 -0.0680
  488MOL0     C64310   5.239   5.233   6.419  0.7123 -0.3605 -0.2072
  488MOL0     C64311   5.123   5.239   6.339 -0.1174  0.5787 -0.4214
  488MOL0     C64312   5.137   5.221   6.200 -0.6929  0.3533  0.6463
  488MOL0     C64313   5.029   5.235   6.101 -0.5735  0.4162  0.2763
  488MOL0     O64314   4.906   5.234   6.153  0.0420  0.2864 -0.2792
  488MOL0     C64315   4.789   5.272   6.092 -0.0260  0.1958 -0.1063
  488MOL0     C64316   4.676   5.318   6.175 -0.1751  0.9581 -0.1493
  488MOL0     C64317   4.559   5.356   6.116  0.1187  0.1912  0.3000
  488MOL0     C64318   4.542   5.344   5.975  0.4522  0.7060  0.0556
  488MOL0     O64319   4.417   5.379   5.922  0.8096 -0.3796 -0.3726
  488MOL0     C64320   4.350   5.500   5.969  0.8340  0.1525  0.3455
  488MOL0     C64321   4.248   5.565   5.868 -1.1792 -0.1522  0.3764
  488MOL0     C64322   4.141   5.652   5.930  0.5185  0.5597  0.0983
  488MOL0     C64323   4.039   5.678   5.822  0.6639 -0.4595 -0.0378
  488MOL0     C64324   3.959   5.805   5.863  0.7008 -0.8304  0.2209
  488MOL0     C64325   3.837   5.827   5.773  0.6045 -0.7034 -1.0132
  488MOL0     C64326   3.794   5.970   5.782 -0.5658  0.0907  0.0946
  488MOL0     C64327   3.681   5.985   5.688 -0.4722 -0.4669  0.1870
  488MOL0    Cl64328   3.622   6.149   5.664  0.0483 -0.3297 -0.3951
  488MOL0     C64329   4.638   5.277   5.898  0.6488  1.2966  0.3309
  488MOL0     C64330   4.760   5.250   5.953 -0.8142 -0.0326 -0.8187
  488MOL0     O64331   5.060   5.254   5.977 -0.3339  0.8572 -0.2354
  488MOL0     C64332   5.268   5.196   6.155 -0.0273  0.4408 -0.4175
  488MOL0     C64333   5.380   5.175   6.242  0.5706 -0.6298 -0.2038
  488MOL0     N64334   5.610   5.488   6.829 -0.2508  0.6570  0.1706
  488MOL0     N64335   5.500   5.540   6.863  0.4706  0.1740 -0.0905
  488MOL0     C64336   4.451   5.953   6.995 -0.0732  0.2061  0.1659
  488MOL0     C64337   4.319   5.974   7.022 -1.0583 -0.8059 -0.6101
  488MOL0     C64338   3.890   6.100   7.038 -0.6979  0.0611 -0.4184
  488MOL0     C64339   3.789   6.037   7.114 -0.3522 -0.1302 -0.3874
  488MOL0     C64340   3.650   6.062   7.098 -0.8786 -0.4531 -0.8185
  488MOL0     C64341   3.605   6.164   7.017  0.5443  0.6916 -0.5493
  488MOL0     O64342   3.470   6.211   7.010 -0.8612  0.1514 -0.2996
  488MOL0     C64343   3.360   6.149   7.086 -0.1458  0.0407  0.8201
  488MOL0     C64344   3.272   6.054   6.998 -0.1352  0.3541 -1.0075
  488MOL0     C64345   3.317   6.027   6.855  1.1681 -0.8060  0.0136
  488MOL0     C64346   3.316   6.154   6.757 -0.2190 -0.0894 -0.1547
  488MOL0     C64347   3.179   6.219   6.747 -0.4522 -0.6777 -0.3949
  488MOL0     C64348   3.061   6.254   6.750 -0.2238  0.3333 -0.8530
  488MOL0     C64349   3.702   6.227   6.935 -0.4467 -0.3129 -0.9319
  488MOL0     C64350   3.840   6.193   6.945  0.0534 -0.5107  0.1449
  488MOL0     H64351   4.227   6.129   6.732  1.3155 -0.5191 -2.0136
  488MOL0     H64352   4.467   6.058   6.678 -1.8000 -0.4362 -0.1903
  488MOL0     H64353   4.717   5.830   6.721  0.0346 -0.4265  0.0047
  488MOL0     H64354   4.591   5.775   6.827  0.5255  0.0426  0.4763
  488MOL0     H64355   4.805   5.686   6.922 -2.7944 -1.5061  2.6299
  488MOL0     H64356   4.738   5.810   7.033  1.0554  1.8201  0.1747
  488MOL0     H64357   4.868   5.992   6.945  0.6338  0.3996 -1.4080
  488MOL0     H64358   4.955   5.888   6.839  1.0175  1.2224  0.9581
  488MOL0     H64359   5.070   5.929   7.045  0.9923 -2.7967  2.0216
  488MOL0     H64360   4.948   5.856   7.142  1.3346 -0.1486  1.5061
  488MOL0     H64361   5.061   5.679   6.917 -0.0292 -3.5477  1.1872
  488MOL0     H64362   5.008   5.640   7.071 -0.1264 -0.9788 -1.0969
  488MOL0     H64363   5.211   5.739   7.160 -0.0370 -1.4311  0.7948
  488MOL0     H64364   5.280   5.755   6.995  0.7375  0.8291  1.6755
  488MOL0     H64365   5.345   5.516   7.111 -1.8518  0.9025  2.2361
  488MOL0     H64366   5.167   5.490   7.103  1.1506  0.6846  1.2158
  488MOL0     H64367   5.229   5.543   6.836  1.4442  0.4188  0.0355
  488MOL0     H64368   5.192   5.392   6.925 -2.0180  0.9874 -1.5817
  488MOL0     H64369   5.417   5.214   6.856  2.2221 -1.5542 -2.0652
  488MOL0     H64370   5.691   5.188   6.903 -1.4087  3.1482  1.5885
  488MOL0     H64371   5.790   5.263   6.784  0.0939 -1.1760 -0.7282
  488MOL0     H64372   5.546   5.109   6.686  0.2250  1.5494  0.0385
  488MOL0     H64373   5.706   5.036   6.682  0.8914  0.5451 -1.2978
  488MOL0     H64374   5.694   5.305   6.562  1.7449  0.4359 -1.5902
  488MOL0     H64375   5.797   5.168   6.543 -0.0335  1.4753  0.6991
  488MOL0     H64376   5.605   5.060   6.418  2.0574 -0.8599  0.4827
  488MOL0     H64377   5.635   5.213   6.349  2.0088  1.8143  0.8477
  488MOL0     H64378   5.229   5.235   6.527 -4.4166 -3.4159 -0.3197
  488MOL0     H64379   5.030   5.278   6.378  0.3150  4.2222 -2.5416
  488MOL0     H64380   4.696   5.319   6.282  0.0303  1.0579 -0.1865
  488MOL0     H64381   4.480   5.402   6.175 -0.8287 -2.4412  1.2622
  488MOL0     H64382   4.420   5.579   5.999  1.4739  0.2892 -1.3990
  488MOL0     H64383   4.297   5.475   6.061 -3.1329  2.3448 -1.1063
  488MOL0     H64384   4.205   5.476   5.822  0.4980 -1.7210  1.6875
  488MOL0     H64385   4.300   5.628   5.795  1.0810 -2.1756  0.0895
  488MOL0     H64386   4.183   5.749   5.960  0.1524  0.8891 -0.4342
  488MOL0     H64387   4.108   5.600   6.021  0.1509 -3.2428 -2.0065
  488MOL0     H64388   4.070   5.690   5.718 -3.0472 -0.0568 -1.2488
  488MOL0     H64389   3.971   5.592   5.827 -0.8727  0.6905 -0.1403
  488MOL0     H64390   4.015   5.900   5.860 -2.2573  1.0242  0.0645
  488MOL0     H64391   3.934   5.798   5.969  2.2835  0.9947  0.7908
  488MOL0     H64392   3.759   5.769   5.822  0.8608  1.7163  2.6775
  488MOL0     H64393   3.849   5.797   5.669 -1.3436  1.7369 -2.0706
  488MOL0     H64394   3.768   5.998   5.884  1.4695  2.0360  0.1571
  488MOL0     H64395   3.876   6.039   5.759  2.2468 -2.4661  1.6707
  488MOL0     H64396   3.599   5.925   5.728 -0.1686  0.1843  1.8815
  488MOL0     H64397   3.695   5.949   5.585  2.3134 -0.6384  0.5584
  488MOL0     H64398   4.621   5.260   5.792  1.9147  3.9087 -0.3791
  488MOL0     H64399   4.835   5.208   5.886 -1.8181 -0.1319 -1.9179
  488MOL0     H64400   5.264   5.160   6.053  1.2835  0.3635 -0.4528
  488MOL0     H64401   5.469   5.145   6.188  0.5271  0.1380 -0.7252
  488MOL0     H64402   4.524   5.920   7.069  0.6443  0.9679 -0.1814
  488MOL0     H64403   4.273   5.946   7.117 -1.0276  0.9249 -0.0573
  488MOL0     H64404   3.834   5.955   7.170  2.1807  0.6458 -1.1809
  488MOL0     H64405   3.598   5.990   7.160  1.1201  0.6837  2.5027
  488MOL0     H64406   3.292   6.226   7.124  0.6476  0.9999  0.3579
  488MOL0     H64407   3.390   6.095   7.177  0.1483  1.4191  1.5701
  488MOL0     H64408   3.265   5.961   7.055 -1.8624  1.0021 -0.0745
  488MOL0     H64409   3.174   6.103   6.988 -0.2081 -0.0046 -2.2291
  488MOL0     H64410   3.252   5.952   6.808 -0.2280  1.7744 -2.4904
  488MOL0     H64411   3.421   5.993   6.868  2.0314  1.9228  0.8100
  488MOL0     H64412   3.401   6.218   6.783  0.6874 -1.9807  1.9129
  488MOL0     H64413   3.347   6.111   6.662  2.4736  0.9066  0.1967
  488MOL0     H64414   2.957   6.282   6.746  0.2768  2.9253  1.1169
  488MOL0     H64415   3.670   6.288   6.851  0.5163  1.7413  0.1203
  488MOL0     H64416   3.907   6.238   6.873 -2.1694  0.9773 -1.1087
  489MOL0     O64417   4.206   0.513   0.166  0.0301  0.2257 -0.5169
  489MOL0     C64418   4.256   0.531   0.278  0.1725  0.1999 -0.2746
  489MOL0     O64419   4.189   0.518   0.394  0.6684  0.6846 -0.1252
  489MOL0     C64420   4.075   0.433   0.383 -0.8071  0.2024 -0.0955
  489MOL0     C64421   4.093   0.304   0.330  1.3378  0.4040  0.8698
  489MOL0     C64422   3.992   0.217   0.308  0.0254 -0.6198 -0.4120
  489MOL0     C64423   3.861   0.256   0.356  0.1595 -0.8056 -0.7929
  489MOL0     O64424   3.749   0.181   0.345  0.4858 -0.3792 -0.2887
  489MOL0     C64425   3.737   0.063   0.259 -0.0324 -0.8256  0.0786
  489MOL0     C64426   3.734  -0.055   0.351 -0.1075  0.3613  0.3409
  489MOL0     C64427   3.715  -0.194   0.289 -0.5568 -1.1537 -0.2203
  489MOL0     C64428   3.584  -0.212   0.213  0.2318  0.0430 -0.8485
  489MOL0     C64429   3.567  -0.362   0.177  0.8215 -0.5093  1.0541
  489MOL0     C64430   3.417  -0.381   0.136 -1.1935  0.5424 -0.7565
  489MOL0     C64431   3.404  -0.522   0.084  0.4424 -0.6913  0.7129
  489MOL0     C64432   3.439  -0.633   0.192  0.1124 -0.6728  0.4333
  489MOL0     N64433   3.358  -0.617   0.308 -0.2905  0.1976  0.0455
  489MOL0     C64434   3.405  -0.627   0.436 -0.2258 -0.0644 -0.1338
  489MOL0     C64435   3.286  -0.624   0.504  0.2874  0.3393  0.4776
  489MOL0     C64436   3.269  -0.621   0.661  0.3636 -0.1714  0.3913
  489MOL0     C64437   3.342  -0.502   0.730 -0.1008 -0.0964 -0.2248
  489MOL0     C64438   3.319  -0.368   0.667  1.1261 -0.4208  0.4630
  489MOL0     C64439   3.165  -0.341   0.659 -0.2320 -0.2412 -1.3110
  489MOL0     O64440   3.131  -0.196   0.655  0.0590  1.2142 -0.7469
  489MOL0     C64441   2.995  -0.158   0.644 -0.6955  0.2717 -0.5808
  489MOL0     C64442   2.978  -0.022   0.638  0.0118  0.2376 -0.7782
  489MOL0     C64443   2.854   0.031   0.649  0.3442  0.2282  0.0022
  489MOL0     C64444   2.734  -0.050   0.663 -0.4096 -0.2542  0.3184
  489MOL0     C64445   2.606   0.019   0.656 -0.5104 -0.0188  1.3193
  489MOL0     O64446   2.613   0.157   0.662 -0.3505 -0.2464  0.5271
  489MOL0     C64447   2.505   0.222   0.714 -0.1545  0.4077 -0.0012
  489MOL0     C64448   2.410   0.285   0.633  0.7608 -0.5183 -0.4265
  489MOL0     C64449   2.305   0.356   0.687 -0.1648  0.1168  0.9097
  489MOL0     C64450   2.298   0.382   0.824 -0.2077  0.1984 -0.7326
  489MOL0     O64451   2.192   0.467   0.864 -0.1567  0.7622  0.0371
  489MOL0     C64452   2.121   0.420   0.976  0.1299 -0.0999  0.3001
  489MOL0     C64453   1.996   0.508   0.978  0.2776 -0.4222  0.3039
  489MOL0     C64454   1.913   0.521   0.846  0.2294  0.8469  0.7299
  489MOL0     C64455   1.783   0.610   0.870 -0.7098 -0.1074 -0.1407
  489MOL0     C64456   1.702   0.640   0.746 -0.3457  0.2926  0.5470
  489MOL0     C64457   1.793   0.701   0.629 -0.2237 -0.6804  0.0973
  489MOL0     C64458   1.723   0.745   0.503  0.3745  0.4120 -0.2877
  489MOL0     C64459   1.636   0.636   0.453 -0.1669  0.8930  0.3707
  489MOL0    Cl64460   1.562   0.691   0.303  0.0350  0.1825  0.1808
  489MOL0     C64461   2.390   0.310   0.907  0.2639 -0.2571  0.7842
  489MOL0     C64462   2.489   0.229   0.854  0.1397 -0.1197 -0.9402
  489MOL0     O64463   2.507  -0.055   0.653 -0.3070 -0.3697  0.0958
  489MOL0     C64464   2.752  -0.190   0.661 -0.1146  0.8259 -0.2430
  489MOL0     C64465   2.880  -0.246   0.655 -0.3749  0.3192  0.9592
  489MOL0     N64466   3.180  -0.621   0.416  0.3660 -0.2948 -0.5101
  489MOL0     N64467   3.222  -0.612   0.298  0.2422  1.8341 -0.8150
  489MOL0     C64468   3.846   0.378   0.427 -0.0436 -0.5368 -0.7916
  489MOL0     C64469   3.951   0.470   0.438 -0.6156  1.1434  0.6535
  489MOL0     C64470   4.389   0.600   0.281 -0.4499 -0.4657 -0.3015
  489MOL0     C64471   4.467   0.607   0.400 -0.3020 -0.5246  0.6269
  489MOL0     C64472   4.590   0.671   0.399  0.0292  0.9852 -0.6082
  489MOL0     C64473   4.638   0.725   0.284 -0.5280  0.3134 -0.9094
  489MOL0     O64474   4.756   0.801   0.274 -0.3784  0.6923  0.1491
  489MOL0     C64475   4.822   0.822   0.403  0.5245 -0.0652 -0.0182
  489MOL0     C64476   4.965   0.868   0.373  0.0556  0.0668  1.1051
  489MOL0     C64477   5.043   0.932   0.486 -0.3167  0.5537 -0.3193
  489MOL0     C64478   5.115   0.829   0.580 -0.5591 -0.3481 -0.1760
  489MOL0     C64479   5.210   0.734   0.518  0.3887  0.0124  0.1862
  489MOL0     C64480   5.297   0.663   0.478  0.7834 -0.0005  0.1904
  489MOL0     C64481   4.567   0.713   0.163 -0.6886  0.8325  0.6030
  489MOL0     C64482   4.450   0.639   0.163  0.6973 -0.4567 -0.2886
  489MOL0     H64483   4.196   0.286   0.301  1.0233 -1.7848  0.9594
  489MOL0     H64484   4.012   0.119   0.265  1.7294 -1.1858  1.5219
  489MOL0     H64485   3.821   0.055   0.189 -0.5009 -0.4798 -0.5349
  489MOL0     H64486   3.647   0.072   0.198 -0.4610  3.5770  1.0553
  489MOL0     H64487   3.657  -0.040   0.427  1.6958 -2.1883  2.8659
  489MOL0     H64488   3.832  -0.051   0.398 -0.5167  2.1032  1.1204
  489MOL0     H64489   3.733  -0.267   0.368  1.2138 -1.1348 -0.5531
  489MOL0     H64490   3.797  -0.211   0.219  0.4492 -1.9272  1.1072
  489MOL0     H64491   3.514  -0.193   0.295  1.6338  1.1775  0.1411
  489MOL0     H64492   3.578  -0.138   0.132 -0.3224  1.0527  0.0874
  489MOL0     H64493   3.596  -0.430   0.258  1.0409 -0.1019  1.3229
  489MOL0     H64494   3.631  -0.379   0.090 -1.3116 -0.3061 -0.6236
  489MOL0     H64495   3.387  -0.306   0.062 -1.4688  1.6619  0.4491
  489MOL0     H64496   3.351  -0.380   0.223 -1.3637  2.8100 -0.8538
  489MOL0     H64497   3.300  -0.526   0.048  1.4740 -0.6495 -2.6873
  489MOL0     H64498   3.458  -0.538  -0.010 -0.6662  1.9207 -0.4625
  489MOL0     H64499   3.542  -0.616   0.225 -0.5160  0.6385  1.8555
  489MOL0     H64500   3.427  -0.729   0.141  1.1181  1.2260 -3.8329
  489MOL0     H64501   3.508  -0.625   0.472  0.8651  1.9645 -2.9872
  489MOL0     H64502   3.311  -0.710   0.709 -2.7812 -1.2228  1.4085
  489MOL0     H64503   3.165  -0.618   0.693 -0.0086 -1.5413 -0.6087
  489MOL0     H64504   3.450  -0.520   0.726  0.0826  1.1046 -1.1621
  489MOL0     H64505   3.314  -0.510   0.835  0.4281  0.3360 -0.0479
  489MOL0     H64506   3.368  -0.291   0.727  1.6391  0.5791 -1.1915
  489MOL0     H64507   3.350  -0.367   0.562  1.5558 -1.9303  0.5595
  489MOL0     H64508   3.122  -0.373   0.754  0.8785 -2.3924 -1.4749
  489MOL0     H64509   3.109  -0.397   0.584  1.1078 -1.2818 -1.5629
  489MOL0     H64510   3.059   0.050   0.635  1.5147 -1.3118  0.3164
  489MOL0     H64511   2.846   0.137   0.630 -0.4438  0.0519 -0.7093
  489MOL0     H64512   2.410   0.258   0.528 -2.0585  0.6770 -0.8450
  489MOL0     H64513   2.229   0.392   0.617  0.3017 -1.3247 -0.4037
  489MOL0     H64514   2.179   0.435   1.068  2.8657 -0.4994 -1.2481
  489MOL0     H64515   2.089   0.315   0.980 -0.2584  0.0595  2.6658
  489MOL0     H64516   2.036   0.607   1.004  1.2853 -0.5867 -0.5697
  489MOL0     H64517   1.927   0.471   1.054 -1.3511 -0.4335 -1.1263
  489MOL0     H64518   1.876   0.419   0.833  5.1432 -1.3779  2.0765
  489MOL0     H64519   1.974   0.551   0.760  0.8756 -1.4961  0.2923
  489MOL0     H64520   1.716   0.546   0.929  1.2897 -1.6530  0.5924
  489MOL0     H64521   1.809   0.704   0.919  0.4971  0.1199 -1.1926
  489MOL0     H64522   1.621   0.710   0.766  1.9622  4.0396 -2.0583
  489MOL0     H64523   1.665   0.542   0.714 -0.0848 -0.9444  3.6605
  489MOL0     H64524   1.864   0.624   0.598 -1.2875 -2.6324  2.1484
  489MOL0     H64525   1.856   0.784   0.661  3.9318 -2.7646 -1.9401
  489MOL0     H64526   1.659   0.831   0.522  0.3271  0.5298 -0.9417
  489MOL0     H64527   1.797   0.770   0.427  1.8754  0.5076  1.1516
  489MOL0     H64528   1.558   0.611   0.527  0.3370 -0.6624  0.4156
  489MOL0     H64529   1.708   0.555   0.439  1.9635  2.7362  0.1696
  489MOL0     H64530   2.374   0.325   1.014 -1.9141 -0.6673  0.5611
  489MOL0     H64531   2.542   0.170   0.928  1.0431 -1.4069 -2.5540
  489MOL0     H64532   2.666  -0.256   0.665  0.2774  0.3388  0.2016
  489MOL0     H64533   2.888  -0.354   0.649 -1.3396  0.2693  0.4326
  489MOL0     H64534   3.752   0.409   0.473  0.3084 -1.2035  0.4231
  489MOL0     H64535   3.934   0.564   0.488  1.6063  0.4908  2.8132
  489MOL0     H64536   4.430   0.570   0.495  1.7048 -0.3480  1.5217
  489MOL0     H64537   4.637   0.669   0.497 -3.1395  2.2624  1.0766
  489MOL0     H64538   4.833   0.727   0.455 -2.8761 -0.3477  0.4233
  489MOL0     H64539   4.768   0.892   0.468 -1.5259 -0.0560 -1.6156
  489MOL0     H64540   5.026   0.786   0.331 -1.0888  0.1123 -0.7408
  489MOL0     H64541   4.957   0.943   0.295  2.2408 -1.1750 -0.4302
  489MOL0     H64542   4.978   0.983   0.558  0.5869 -1.1509  1.8055
  489MOL0     H64543   5.121   0.995   0.443 -1.0174  2.9037  1.6195
  489MOL0     H64544   5.189   0.879   0.643 -0.2422 -1.7107  0.5823
  489MOL0     H64545   5.045   0.772   0.642  1.7716 -2.7211  0.4933
  489MOL0     H64546   5.369   0.599   0.431  1.0794  0.8904 -0.5864
  489MOL0     H64547   4.605   0.762   0.073  0.0220  3.9921  2.4690
  489MOL0     H64548   4.400   0.610   0.071 -0.3681 -1.7656  0.6522
  490MOL0     O64549   6.325   3.960   8.415  0.4164 -0.1877 -0.2219
  490MOL0     C64550   6.382   3.864   8.359  0.1081  0.6419 -1.2537
  490MOL0     O64551   6.342   3.797   8.250 -0.2395  0.0102 -0.6419
  490MOL0     C64552   6.236   3.835   8.179  0.5612 -0.7843 -0.7204
  490MOL0     C64553   6.110   3.883   8.234  0.0662 -0.0357 -1.5753
  490MOL0     C64554   6.011   3.924   8.148  0.4565 -0.5127 -0.7839
  490MOL0     C64555   6.016   3.916   8.015 -0.7812  0.1544 -0.2740
  490MOL0     O64556   5.902   3.948   7.945 -0.0782 -0.3611  0.1951
  490MOL0     C64557   5.908   3.944   7.806  1.2315  0.8698  0.2280
  490MOL0     C64558   5.767   3.962   7.749 -0.1677 -0.0398 -0.4340
  490MOL0     C64559   5.706   4.108   7.762 -0.5527  0.6682 -0.2258
  490MOL0     C64560   5.579   4.114   7.677  0.1211 -0.4208 -0.6501
  490MOL0     C64561   5.517   4.256   7.651  0.3012  0.9413 -1.1376
  490MOL0     C64562   5.490   4.331   7.785  0.3038  0.7483  0.0971
  490MOL0     C64563   5.445   4.463   7.758 -0.3629 -0.7888  1.5389
  490MOL0     C64564   5.414   4.535   7.892  0.8749 -0.5825 -0.4657
  490MOL0     N64565   5.374   4.673   7.862  0.9396 -0.5298 -0.6028
  490MOL0     C64566   5.266   4.713   7.777 -0.8950  0.1314  0.5784
  490MOL0     C64567   5.270   4.852   7.784  0.2649  0.2571 -0.0669
  490MOL0     C64568   5.192   4.939   7.700 -0.5997  0.6026  0.1279
  490MOL0     C64569   5.045   4.948   7.728  0.4903 -0.4989 -0.5768
  490MOL0     C64570   5.009   4.942   7.879 -0.4301  0.0085  0.5058
  490MOL0     C64571   4.869   4.986   7.912  0.4765 -0.2121 -0.5728
  490MOL0     O64572   4.769   4.885   7.885 -0.6181 -0.2907 -0.3332
  490MOL0     C64573   4.640   4.927   7.865  0.5461 -0.0449  0.2952
  490MOL0     C64574   4.547   4.822   7.877  0.1606 -0.6738 -0.0534
  490MOL0     C64575   4.414   4.854   7.872  0.8680 -0.0031 -0.0860
  490MOL0     C64576   4.366   4.989   7.881  0.3515  0.2757 -0.8576
  490MOL0     C64577   4.219   5.029   7.890 -0.4219 -1.0775 -0.2726
  490MOL0     O64578   4.128   4.930   7.904  0.4218 -0.5309  0.3244
  490MOL0     C64579   3.997   4.977   7.905  0.0433  1.4606 -0.6389
  490MOL0     C64580   3.916   4.940   8.015 -0.8410 -0.0212  0.8533
  490MOL0     C64581   3.789   4.977   8.024  0.0649 -0.3189  0.4172
  490MOL0     C64582   3.731   5.055   7.920 -0.0986  0.1382 -0.8443
  490MOL0     O64583   3.603   5.089   7.927  1.0315  0.9540 -0.2212
  490MOL0     C64584   3.517   5.047   7.818 -0.7235 -0.6866 -0.0771
  490MOL0     C64585   3.374   5.025   7.865  0.2011 -0.8785  0.1596
  490MOL0     C64586   3.323   5.164   7.915 -0.1645  0.4647  0.8462
  490MOL0     C64587   3.176   5.159   7.948  1.0800 -0.7139  0.5629
  490MOL0     C64588   3.110   5.298   7.989 -0.1042 -0.6933 -0.2205
  490MOL0     C64589   2.963   5.278   8.044 -0.5057  0.2984 -0.0741
  490MOL0     C64590   2.904   5.401   8.113  0.5334 -0.6381  0.2040
  490MOL0     C64591   2.761   5.387   8.180  0.2031  0.2492  0.5926
  490MOL0    Cl64592   2.686   5.539   8.215 -0.5700  0.5689  0.2588
  490MOL0     C64593   3.803   5.071   7.800  0.2167  0.1207  0.5522
  490MOL0     C64594   3.933   5.022   7.788 -0.2678 -0.5667 -0.4364
  490MOL0     O64595   4.193   5.152   7.882  0.0878 -0.5946 -0.6531
  490MOL0     C64596   4.459   5.090   7.878 -0.5732 -0.2434 -0.6540
  490MOL0     C64597   4.594   5.058   7.865  0.4181  0.1630 -0.3233
  490MOL0     N64598   5.368   4.889   7.874 -0.1805 -0.3706 -0.4818
  490MOL0     N64599   5.431   4.781   7.912 -0.4477  0.2318  0.3614
  490MOL0     C64600   6.140   3.868   7.952  0.4180 -0.4257 -0.8164
  490MOL0     C64601   6.250   3.839   8.039  0.6007 -0.4002 -0.4171
  490MOL0     C64602   6.517   3.819   8.412  0.4449 -0.2615  0.1907
  490MOL0     C64603   6.596   3.723   8.348 -0.0375 -0.7077 -0.2420
  490MOL0     C64604   6.706   3.676   8.395  0.2326  0.0049 -0.6556
  490MOL0     C64605   6.746   3.720   8.529 -0.0465 -0.9781  1.2695
  490MOL0     O64606   6.860   3.693   8.590 -0.0382  0.5789 -0.4775
  490MOL0     C64607   6.972   3.642   8.515 -0.0582 -0.0054 -0.2480
  490MOL0     C64608   7.095   3.708   8.572 -1.2116  0.4861 -0.6398
  490MOL0     C64609   7.226   3.699   8.493 -0.1235 -0.1984  0.9311
  490MOL0     C64610   7.229   3.794   8.369 -0.5535 -0.9909 -0.8286
  490MOL0     C64611   7.350   3.767   8.286  0.5456  0.1090 -0.3152
  490MOL0     C64612   7.452   3.735   8.225 -0.2294 -0.6692 -1.4465
  490MOL0     C64613   6.670   3.822   8.595 -0.5319 -0.1540  0.0804
  490MOL0     C64614   6.558   3.877   8.531 -0.7004  0.9364 -0.5529
  490MOL0     H64615   6.084   3.883   8.339  1.5642  0.0759 -1.1739
  490MOL0     H64616   5.929   3.973   8.200  0.1050 -1.6525 -0.2202
  490MOL0     H64617   5.946   3.845   7.780  1.4748  0.3401  2.3714
  490MOL0     H64618   5.962   4.028   7.762  1.9518  1.7677  2.6545
  490MOL0     H64619   5.702   3.892   7.801 -0.5033 -0.4509 -1.3881
  490MOL0     H64620   5.768   3.942   7.641  0.7189 -1.9473 -0.1079
  490MOL0     H64621   5.775   4.182   7.720  0.0552 -0.7546 -1.8784
  490MOL0     H64622   5.697   4.119   7.870  0.9130 -0.8247  0.0915
  490MOL0     H64623   5.590   4.066   7.579 -0.6971  1.2306 -1.5942
  490MOL0     H64624   5.509   4.053   7.735  0.9671 -1.1203 -0.3344
  490MOL0     H64625   5.423   4.247   7.596 -0.8727  2.3013  0.5535
  490MOL0     H64626   5.579   4.316   7.585 -0.1849  0.2694 -2.2343
  490MOL0     H64627   5.583   4.337   7.842  0.1797  1.3037  0.2492
  490MOL0     H64628   5.416   4.274   7.841 -0.1026 -0.2979 -1.4188
  490MOL0     H64629   5.531   4.508   7.708 -0.2025 -1.3091  1.3421
  490MOL0     H64630   5.362   4.470   7.687  0.6801 -0.5871  0.2865
  490MOL0     H64631   5.507   4.546   7.949  0.6163  1.0838 -0.3237
  490MOL0     H64632   5.338   4.480   7.949 -1.1607  0.5283 -2.0166
  490MOL0     H64633   5.197   4.646   7.726  1.9341 -1.9281 -0.8342
  490MOL0     H64634   5.204   4.909   7.596 -4.4030  1.6782 -0.7766
  490MOL0     H64635   5.235   5.040   7.708 -1.5954  1.0021  0.5683
  490MOL0     H64636   4.991   4.866   7.679  0.0438 -0.9116  0.5683
  490MOL0     H64637   5.007   5.043   7.689  1.1133 -0.0423 -0.1006
  490MOL0     H64638   5.026   4.841   7.917 -1.4116 -0.2179  0.3929
  490MOL0     H64639   5.073   5.016   7.928 -1.1877  0.2089  1.2081
  490MOL0     H64640   4.844   5.075   7.853  0.7809 -0.1037 -0.5430
  490MOL0     H64641   4.859   5.036   8.009 -0.1290  1.5710 -1.4944
  490MOL0     H64642   4.581   4.720   7.887  1.5972 -0.2756 -0.6067
  490MOL0     H64643   4.339   4.775   7.876 -0.6794  1.3055 -1.4733
  490MOL0     H64644   3.968   4.887   8.094  0.5645  0.2795  0.1639
  490MOL0     H64645   3.727   4.952   8.110  0.6004 -3.2476  0.0548
  490MOL0     H64646   3.559   4.950   7.790 -1.0339 -1.1242  0.9424
  490MOL0     H64647   3.518   5.124   7.740 -0.3908  0.8839  1.4479
  490MOL0     H64648   3.373   4.957   7.951  0.1103 -2.8041 -1.3094
  490MOL0     H64649   3.293   4.992   7.801 -1.4376 -1.6795  2.5153
  490MOL0     H64650   3.338   5.240   7.837 -0.6459 -0.1257  0.1729
  490MOL0     H64651   3.382   5.189   8.004  0.8842  0.3287  0.2064
  490MOL0     H64652   3.128   5.123   7.857  3.5319 -4.0781  0.3829
  490MOL0     H64653   3.159   5.096   8.035 -1.9328  0.5667  0.9964
  490MOL0     H64654   3.105   5.371   7.908 -1.1504 -2.1098 -1.4778
  490MOL0     H64655   3.169   5.336   8.074  1.1670 -3.8460  0.4636
  490MOL0     H64656   2.952   5.207   8.126  0.1073  0.3343  0.0426
  490MOL0     H64657   2.908   5.233   7.961  1.0538  0.7480 -1.4036
  490MOL0     H64658   2.979   5.439   8.183 -0.9603  0.6027  1.1885
  490MOL0     H64659   2.897   5.470   8.029 -3.3945 -3.3948 -2.0482
  490MOL0     H64660   2.769   5.327   8.271 -1.5843  0.9578  1.2633
  490MOL0     H64661   2.693   5.333   8.113  0.4286  0.3867  0.2479
  490MOL0     H64662   3.749   5.129   7.725  0.7330 -0.3554 -0.2129
  490MOL0     H64663   3.995   5.034   7.700  0.8560  0.1908  0.4293
  490MOL0     H64664   4.433   5.195   7.868 -0.2863 -0.2361 -1.4340
  490MOL0     H64665   4.665   5.141   7.861  0.8534 -0.0281  1.9870
  490MOL0     H64666   6.159   3.858   7.846 -0.4347 -0.2042 -0.9997
  490MOL0     H64667   6.347   3.808   8.002  0.9443 -2.8132  2.1256
  490MOL0     H64668   6.579   3.687   8.247 -0.0246 -0.1055 -0.4640
  490MOL0     H64669   6.783   3.611   8.354  0.4205 -0.1088 -0.1238
  490MOL0     H64670   6.970   3.675   8.411 -0.3991  0.9248  0.0499
  490MOL0     H64671   6.984   3.533   8.503 -1.4186  0.1130 -4.9005
  490MOL0     H64672   7.069   3.813   8.587 -0.5230  0.6538 -0.6322
  490MOL0     H64673   7.122   3.664   8.668  0.2815 -1.0910 -1.7165
  490MOL0     H64674   7.234   3.598   8.451 -1.0838 -0.5551  1.5812
  490MOL0     H64675   7.318   3.728   8.544  1.1464  3.5672 -2.9111
  490MOL0     H64676   7.141   3.762   8.312 -1.7621 -1.9866  1.4508
  490MOL0     H64677   7.204   3.899   8.382 -0.0800 -0.9893  0.2256
  490MOL0     H64678   7.551   3.705   8.196  0.9452  0.4538  1.0638
  490MOL0     H64679   6.708   3.861   8.689  1.5385 -2.4264  0.2770
  490MOL0     H64680   6.498   3.947   8.588  1.6749  0.7794  2.4292
  491MOL0     O64681   0.157   1.750  10.548 -0.3828 -0.5796 -0.4845
  491MOL0     C64682   0.167   1.789  10.664 -0.1080 -0.3149  1.5474
  491MOL0     O64683   0.070   1.847  10.737 -0.0952 -0.2669 -0.1365
  491MOL0     C64684  -0.061   1.870  10.694  0.1184 -0.0342 -0.3243
  491MOL0     C64685  -0.162   1.849  10.793  0.0566 -0.4543  0.7456
  491MOL0     C64686  -0.296   1.879  10.758  0.0977 -0.0147 -0.0650
  491MOL0     C64687  -0.334   1.929  10.630 -0.9304  0.1519 -0.0257
  491MOL0     O64688  -0.464   1.973  10.611 -0.0709 -0.1647 -0.1715
  491MOL0     C64689  -0.514   2.021  10.480 -0.8887 -0.6714  0.1996
  491MOL0     C64690  -0.654   2.076  10.510 -0.0626 -0.3911 -0.0207
  491MOL0     C64691  -0.753   2.079  10.385 -0.6199  0.2581  0.3974
  491MOL0     C64692  -0.902   2.110  10.429 -0.0825  0.1013  0.5851
  491MOL0     C64693  -0.999   2.156  10.313 -0.4812  0.9244 -0.3108
  491MOL0     C64694  -1.149   2.161  10.345 -0.6946  0.3434 -1.4412
  491MOL0     C64695  -1.235   2.249  10.253 -0.2623  0.1906  0.2666
  491MOL0     C64696  -1.384   2.229  10.253  0.0228 -0.0350 -0.5229
  491MOL0     N64697  -1.421   2.275  10.387  0.1776  0.4885 -0.0595
  491MOL0     C64698  -1.520   2.210  10.454 -0.1009  0.2534  0.2192
  491MOL0     C64699  -1.591   2.298  10.525  0.7855 -0.3032 -0.2018
  491MOL0     C64700  -1.716   2.252  10.609 -0.9328  0.0628  0.3130
  491MOL0     C64701  -1.834   2.350  10.623 -0.3673 -0.0052 -0.0691
  491MOL0     C64702  -1.821   2.470  10.723  0.0208  0.8667 -0.9017
  491MOL0     C64703  -1.962   2.535  10.746  0.5278  0.7915  1.3916
  491MOL0     O64704  -1.958   2.632  10.857 -0.3488  0.1324  0.4934
  491MOL0     C64705  -2.072   2.690  10.888  0.4632  0.1823 -0.3385
  491MOL0     C64706  -2.194   2.674  10.817  0.3124  0.0721  0.0977
  491MOL0     C64707  -2.312   2.740  10.848  0.1952 -1.6220 -1.5744
  491MOL0     C64708  -2.305   2.848  10.940  0.0654  0.5356  0.1501
  491MOL0     C64709  -2.426   2.929  10.965  0.3810  0.4026  1.1447
  491MOL0     O64710  -2.408   3.035  11.035  0.5187 -0.6327 -0.4609
  491MOL0     C64711  -2.510   3.121  11.072 -0.1564  0.0518  0.3232
  491MOL0     C64712  -2.503   3.258  11.050 -0.5754 -1.5721 -0.0757
  491MOL0     C64713  -2.607   3.341  11.092  0.1838 -0.3244 -0.2566
  491MOL0     C64714  -2.726   3.286  11.156 -0.9179 -0.0178  0.5767
  491MOL0     O64715  -2.830   3.367  11.196  0.8156  0.3211  0.3681
  491MOL0     C64716  -2.807   3.510  11.230 -0.4149 -0.2771  0.1122
  491MOL0     C64717  -2.917   3.568  11.320  0.5185  0.0727  0.4293
  491MOL0     C64718  -3.057   3.556  11.260  0.9667 -0.2263  0.4632
  491MOL0     C64719  -3.158   3.631  11.344 -0.3777 -0.1624  0.0816
  491MOL0     C64720  -3.307   3.613  11.307 -1.0110  0.5510 -0.6140
  491MOL0     C64721  -3.343   3.685  11.181 -0.3069  0.2520  0.1149
  491MOL0     C64722  -3.492   3.660  11.155  0.6738  0.2277  0.2835
  491MOL0     C64723  -3.509   3.558  11.040  0.8965 -0.1363  0.4182
  491MOL0    Cl64724  -3.529   3.392  11.090 -0.1556  0.0449 -0.1777
  491MOL0     C64725  -2.736   3.153  11.156  0.1018 -0.0945 -0.5399
  491MOL0     C64726  -2.632   3.069  11.119 -0.1257  0.0173  0.1836
  491MOL0     O64727  -2.531   2.904  10.903 -0.1207 -0.4442  0.3206
  491MOL0     C64728  -2.180   2.886  10.996  0.2526  0.8602  0.6429
  491MOL0     C64729  -2.067   2.804  10.978  0.0847 -0.0547  0.2656
  491MOL0     N64730  -1.539   2.422  10.503 -0.7811 -0.9579  0.3019
  491MOL0     N64731  -1.443   2.409  10.416 -0.5658  0.2427  0.7882
  491MOL0     C64732  -0.233   1.949  10.537  0.2477  0.2548 -0.1609
  491MOL0     C64733  -0.100   1.909  10.566 -0.2970  0.4448 -0.3885
  491MOL0     C64734   0.296   1.759  10.727 -0.3921  0.3632  0.1780
  491MOL0     C64735   0.314   1.801  10.858 -0.3545 -0.2647 -0.5708
  491MOL0     C64736   0.430   1.766  10.921  0.1203  0.2956  0.1230
  491MOL0     C64737   0.533   1.692  10.867  0.2363 -0.3235 -0.5672
  491MOL0     O64738   0.641   1.657  10.941  0.1480 -0.0883  0.4648
  491MOL0     C64739   0.716   1.547  10.898 -0.2002 -0.2601  0.7676
  491MOL0     C64740   0.839   1.543  10.986 -0.0264 -0.8891 -0.2971
  491MOL0     C64741   0.814   1.577  11.136 -0.7199 -0.2178  0.6233
  491MOL0     C64742   0.930   1.541  11.228  0.5946 -0.2798  0.0831
  491MOL0     C64743   1.030   1.642  11.207  0.4402 -1.1835  0.0738
  491MOL0     C64744   1.117   1.728  11.196 -0.2697 -0.9126 -0.3458
  491MOL0     C64745   0.518   1.661  10.731 -0.4686  1.0457  0.8959
  491MOL0     C64746   0.403   1.698  10.657  0.3676  1.2588 -0.0681
  491MOL0     H64747  -0.122   1.809  10.885  0.8527 -1.1833  0.1076
  491MOL0     H64748  -0.363   1.875  10.843  0.9274 -0.3322  0.5873
  491MOL0     H64749  -0.506   1.947  10.399 -0.0823  1.3652 -1.6686
  491MOL0     H64750  -0.454   2.103  10.441 -1.2221  1.0789  3.1246
  491MOL0     H64751  -0.635   2.175  10.552 -0.8055 -0.6795  1.0386
  491MOL0     H64752  -0.701   2.018  10.590 -0.9745 -0.5219 -0.6390
  491MOL0     H64753  -0.744   1.986  10.329  0.9402 -0.7548  2.1882
  491MOL0     H64754  -0.716   2.167  10.332 -0.2392  0.3868  0.8719
  491MOL0     H64755  -0.932   2.014  10.473 -0.0804  0.3265  1.0801
  491MOL0     H64756  -0.906   2.170  10.520  2.7630 -0.3835  1.1340
  491MOL0     H64757  -0.989   2.103  10.218 -0.2733 -0.2654  0.3496
  491MOL0     H64758  -0.970   2.259  10.292  0.3129  0.7323 -0.1946
  491MOL0     H64759  -1.161   2.191  10.449  1.0782 -2.4465 -0.3049
  491MOL0     H64760  -1.178   2.055  10.338 -1.2919  0.3753  0.1459
  491MOL0     H64761  -1.209   2.353  10.275 -1.6518 -0.0004  3.2463
  491MOL0     H64762  -1.211   2.229  10.148  1.0355  0.3140  0.5217
  491MOL0     H64763  -1.406   2.122  10.254  3.0875 -0.7756  1.1893
  491MOL0     H64764  -1.428   2.269  10.162  1.1962  0.8368 -0.7422
  491MOL0     H64765  -1.539   2.103  10.443 -1.0696  0.5871 -1.8916
  491MOL0     H64766  -1.689   2.230  10.712 -4.2237  1.2409  1.5647
  491MOL0     H64767  -1.758   2.161  10.564  0.8886 -0.9284  0.5294
  491MOL0     H64768  -1.920   2.294  10.660 -0.4919 -0.6239 -1.2411
  491MOL0     H64769  -1.855   2.381  10.520  2.2948  2.7018  0.0619
  491MOL0     H64770  -1.783   2.430  10.817 -2.0209 -2.1539 -1.2277
  491MOL0     H64771  -1.752   2.547  10.687  0.2462  1.7301  1.2038
  491MOL0     H64772  -2.036   2.458  10.771 -0.7308  1.9375  1.2919
  491MOL0     H64773  -1.995   2.582  10.653 -0.1962 -1.1642  0.5920
  491MOL0     H64774  -2.196   2.596  10.741  5.0157 -0.7718  0.5179
  491MOL0     H64775  -2.413   2.714  10.816 -0.3702 -0.8355 -0.4906
  491MOL0     H64776  -2.410   3.303  11.016 -0.5705 -1.4781  0.0592
  491MOL0     H64777  -2.612   3.450  11.087 -0.4399 -0.4078 -2.2517
  491MOL0     H64778  -2.815   3.567  11.137 -2.2086 -2.3708 -1.1495
  491MOL0     H64779  -2.707   3.530  11.268  0.2394 -0.2259 -1.5691
  491MOL0     H64780  -2.913   3.677  11.329  1.1305  0.5740 -3.7903
  491MOL0     H64781  -2.907   3.520  11.418  2.1516 -3.7143 -1.4029
  491MOL0     H64782  -3.080   3.449  11.271  3.0014 -0.5654  1.8639
  491MOL0     H64783  -3.050   3.590  11.156  0.0746  1.8307  1.0156
  491MOL0     H64784  -3.148   3.603  11.450 -1.0814 -0.6218  0.0331
  491MOL0     H64785  -3.126   3.735  11.335  3.4883 -1.2239 -0.2875
  491MOL0     H64786  -3.368   3.651  11.390  1.3255 -1.6160  2.3016
  491MOL0     H64787  -3.324   3.506  11.292  1.8528 -0.8224  3.7481
  491MOL0     H64788  -3.273   3.658  11.102 -0.4946  2.6109 -0.9146
  491MOL0     H64789  -3.314   3.789  11.196  3.0911 -0.2997 -1.7014
  491MOL0     H64790  -3.557   3.634  11.239  1.5967  0.7509  1.1808
  491MOL0     H64791  -3.523   3.757  11.115  3.7159  0.1800 -2.6248
  491MOL0     H64792  -3.415   3.562  10.984  0.8653 -2.0254  0.1761
  491MOL0     H64793  -3.593   3.590  10.977 -0.7466  0.5694  2.8585
  491MOL0     H64794  -2.829   3.110  11.191 -1.5551  2.7479 -1.1410
  491MOL0     H64795  -2.638   2.961  11.127  2.1122 -0.2789 -1.2587
  491MOL0     H64796  -2.178   2.976  11.057  0.2532  0.7832  0.7577
  491MOL0     H64797  -1.968   2.815  11.020  0.2082 -5.4034  2.1521
  491MOL0     H64798  -0.252   1.999  10.442 -1.6373  1.0911  0.5922
  491MOL0     H64799  -0.025   1.911  10.488 -0.0734  1.2786 -0.1558
  491MOL0     H64800   0.248   1.865  10.915  2.1004  4.4927 -2.4735
  491MOL0     H64801   0.440   1.799  11.024  0.1150  5.9164 -1.3527
  491MOL0     H64802   0.747   1.559  10.793 -0.6934  0.1200  0.6593
  491MOL0     H64803   0.655   1.458  10.910  2.6605 -2.1644  2.2382
  491MOL0     H64804   0.877   1.441  10.972 -3.0772 -2.4002  1.3642
  491MOL0     H64805   0.915   1.612  10.948 -2.2853  0.3861 -2.8457
  491MOL0     H64806   0.727   1.535  11.187  0.2193 -1.0001  1.6394
  491MOL0     H64807   0.792   1.683  11.153 -0.1994  0.3874 -2.0870
  491MOL0     H64808   0.895   1.532  11.331 -1.0252  2.1088 -0.1780
  491MOL0     H64809   0.953   1.444  11.183 -0.9241 -0.5233 -0.1900
  491MOL0     H64810   1.201   1.792  11.179  0.8034 -1.9253  0.8772
  491MOL0     H64811   0.593   1.604  10.677 -1.2487  0.2678  0.6069
  491MOL0     H64812   0.390   1.658  10.557 -2.1652 -1.0223  1.0115
  492MOL0     O64813   8.885   4.029   3.658  0.6722 -0.0546 -0.0157
  492MOL0     C64814   8.962   4.060   3.748  0.2161  0.5047  0.7736
  492MOL0     O64815   8.961   4.002   3.881 -0.0612  0.2002  0.0436
  492MOL0     C64816   8.846   3.954   3.937 -0.2215 -0.4032 -0.6860
  492MOL0     C64817   8.711   3.985   3.916  0.0062 -0.0138  0.0159
  492MOL0     C64818   8.609   3.906   3.984  0.3283  0.0859 -0.0662
  492MOL0     C64819   8.637   3.798   4.076 -0.4516 -0.7218  0.3583
  492MOL0     O64820   8.554   3.713   4.139  0.5147 -0.3447 -0.3317
  492MOL0     C64821   8.431   3.666   4.077 -0.9463  0.1641  0.4943
  492MOL0     C64822   8.320   3.772   4.116  0.7924  0.3307  0.5994
  492MOL0     C64823   8.185   3.749   4.050 -0.0368 -0.3697 -0.5616
  492MOL0     C64824   8.103   3.634   4.095  0.3231 -0.0421 -0.2701
  492MOL0     C64825   7.958   3.641   4.047  0.0602  0.9394 -0.1235
  492MOL0     C64826   7.905   3.499   4.024  1.0975  0.7351 -0.0960
  492MOL0     C64827   7.747   3.512   4.009 -0.5328  1.2002  0.2131
  492MOL0     C64828   7.691   3.369   4.023 -0.1281 -0.6194 -0.1398
  492MOL0     N64829   7.678   3.291   3.898 -0.3139  0.1502  0.3086
  492MOL0     C64830   7.727   3.304   3.769  0.0717 -0.0945  0.2418
  492MOL0     C64831   7.714   3.177   3.720 -0.2141 -0.0861 -0.5546
  492MOL0     C64832   7.742   3.120   3.583  0.6492 -0.2843  0.2357
  492MOL0     C64833   7.897   3.081   3.571 -0.1902  0.6500 -0.0413
  492MOL0     C64834   7.983   3.205   3.570 -0.0507 -0.4889  0.7603
  492MOL0     C64835   8.132   3.159   3.565  0.2252 -0.9187  0.2739
  492MOL0     O64836   8.206   3.281   3.570 -0.6367  0.4181  0.9380
  492MOL0     C64837   8.343   3.266   3.554 -0.4183 -0.0698  0.5237
  492MOL0     C64838   8.419   3.379   3.586  0.3705  0.0804 -0.4101
  492MOL0     C64839   8.559   3.383   3.573  0.4134 -0.4827 -0.3205
  492MOL0     C64840   8.623   3.269   3.528  0.2357  0.0770 -0.4931
  492MOL0     C64841   8.767   3.268   3.503  0.7130  0.0596 -0.1701
  492MOL0     O64842   8.833   3.386   3.527  0.5582  0.4314 -0.6085
  492MOL0     C64843   8.942   3.410   3.450  0.2269 -0.5694 -0.2076
  492MOL0     C64844   8.980   3.361   3.320  0.6122 -0.2517  0.2339
  492MOL0     C64845   9.106   3.393   3.263  0.4103  0.4380 -1.2171
  492MOL0     C64846   9.198   3.472   3.329  0.2280  0.7306  0.3569
  492MOL0     O64847   9.332   3.491   3.292 -0.5919 -0.0854  0.2841
  492MOL0     C64848   9.366   3.439   3.164 -0.7977 -0.0643  0.9269
  492MOL0     C64849   9.510   3.460   3.141 -0.2852  0.1359 -0.5867
  492MOL0     C64850   9.591   3.341   3.207 -0.6162 -0.1896  0.4714
  492MOL0     C64851   9.741   3.370   3.218 -0.6949  0.6852 -0.4521
  492MOL0     C64852   9.835   3.259   3.285 -0.2387  0.2560  0.7348
  492MOL0     C64853   9.968   3.330   3.338  1.0723  0.2116 -0.2935
  492MOL0     C64854  10.043   3.217   3.418 -0.0080 -0.4406 -0.0869
  492MOL0     C64855  10.168   3.278   3.479 -0.1687 -0.4363 -0.0184
  492MOL0    Cl64856  10.123   3.401   3.613 -0.0827 -0.0014 -0.0340
  492MOL0     C64857   9.154   3.535   3.438  0.4635 -0.8443 -0.7395
  492MOL0     C64858   9.032   3.500   3.504  0.3332 -0.1915  0.3479
  492MOL0     O64859   8.821   3.163   3.468 -0.2464  0.6039 -0.4018
  492MOL0     C64860   8.543   3.160   3.506 -0.0871  0.1875  0.5977
  492MOL0     C64861   8.409   3.149   3.515 -0.6383  0.2935 -0.4500
  492MOL0     N64862   7.659   3.096   3.819 -0.3859  0.4104 -0.7341
  492MOL0     N64863   7.634   3.168   3.925  0.6125  0.3315 -0.0913
  492MOL0     C64864   8.776   3.783   4.105  0.0739 -0.6090  0.8245
  492MOL0     C64865   8.874   3.860   4.044 -0.1034  0.3465 -0.7453
  492MOL0     C64866   9.075   4.151   3.712  0.6911 -0.1715 -0.6276
  492MOL0     C64867   9.159   4.208   3.815  0.0141  0.0829 -0.7452
  492MOL0     C64868   9.280   4.272   3.774  0.8700  0.9111  0.7461
  492MOL0     C64869   9.317   4.270   3.637 -0.8737  0.5270 -0.2086
  492MOL0     O64870   9.442   4.321   3.591  0.2795 -0.0114  0.7671
  492MOL0     C64871   9.557   4.321   3.669  0.2207 -0.0439  0.3711
  492MOL0     C64872   9.596   4.446   3.749 -0.6941  0.5006  0.2654
  492MOL0     C64873   9.749   4.446   3.806  0.2852 -0.0957  0.9216
  492MOL0     C64874   9.806   4.584   3.818 -0.5748 -0.5560  0.2918
  492MOL0     C64875   9.949   4.571   3.850  0.0925  0.1911 -0.4946
  492MOL0     C64876  10.069   4.584   3.877 -0.1848  0.4516 -0.1290
  492MOL0     C64877   9.226   4.234   3.541 -0.4300  0.4917 -0.3884
  492MOL0     C64878   9.106   4.174   3.571 -0.0874 -0.1802 -0.0920
  492MOL0     H64879   8.670   4.056   3.845  0.2967  1.4661  1.2656
  492MOL0     H64880   8.507   3.937   3.964 -0.6097 -3.2249 -1.0421
  492MOL0     H64881   8.409   3.566   4.115 -1.4572  0.6733  1.5849
  492MOL0     H64882   8.445   3.662   3.968  2.2352 -0.5729  0.8457
  492MOL0     H64883   8.357   3.872   4.092  1.5069 -0.0556  0.0758
  492MOL0     H64884   8.311   3.772   4.225 -0.7144  3.1756  0.5617
  492MOL0     H64885   8.186   3.738   3.941 -2.1810 -2.8376 -0.4129
  492MOL0     H64886   8.127   3.839   4.071  2.2705  0.4756  3.0948
  492MOL0     H64887   8.152   3.543   4.057 -3.1338 -3.6186  2.8471
  492MOL0     H64888   8.110   3.617   4.203  1.4158 -1.4653 -0.5222
  492MOL0     H64889   7.967   3.699   3.954  2.7578  3.3209  1.4582
  492MOL0     H64890   7.898   3.703   4.114  1.0568 -0.9370  2.6670
  492MOL0     H64891   7.926   3.434   4.109 -2.8714  0.0645  0.5542
  492MOL0     H64892   7.955   3.453   3.938 -0.9382  1.6154 -1.8384
  492MOL0     H64893   7.703   3.575   4.087 -1.5899  3.0024 -1.7314
  492MOL0     H64894   7.718   3.560   3.915 -0.4282  0.3885 -0.2473
  492MOL0     H64895   7.593   3.374   4.071  1.0844  2.3624  2.3759
  492MOL0     H64896   7.756   3.304   4.082  2.4806  2.4888  0.7073
  492MOL0     H64897   7.771   3.393   3.728  2.7463 -1.2968  0.2840
  492MOL0     H64898   7.698   3.176   3.500 -1.2723 -3.5373 -1.1406
  492MOL0     H64899   7.688   3.024   3.579  1.1172 -0.5260 -2.5009
  492MOL0     H64900   7.914   3.038   3.472 -3.4664  2.8387 -1.7708
  492MOL0     H64901   7.927   3.026   3.660 -1.7399  2.1928  1.5162
  492MOL0     H64902   7.953   3.272   3.489  0.5644  0.5491  1.3755
  492MOL0     H64903   7.958   3.265   3.657 -2.6070  1.1630 -0.9799
  492MOL0     H64904   8.146   3.111   3.468  3.1434  1.0418 -0.4021
  492MOL0     H64905   8.142   3.082   3.641 -0.9019 -3.4481 -1.9838
  492MOL0     H64906   8.358   3.460   3.625 -0.0527 -0.0017 -0.8923
  492MOL0     H64907   8.621   3.471   3.592 -0.7666  0.2310  0.3474
  492MOL0     H64908   8.918   3.285   3.272  1.0562 -2.4020  2.8513
  492MOL0     H64909   9.122   3.337   3.172 -2.1163  0.6564 -1.8442
  492MOL0     H64910   9.302   3.482   3.087 -1.1289 -0.4328  0.9938
  492MOL0     H64911   9.345   3.332   3.165  0.4399 -0.3535 -0.4904
  492MOL0     H64912   9.552   3.549   3.190 -2.1943  0.5007  0.4594
  492MOL0     H64913   9.544   3.466   3.037  4.5287 -1.4697  0.6176
  492MOL0     H64914   9.566   3.255   3.144  0.1350  0.5604 -0.8934
  492MOL0     H64915   9.558   3.314   3.308 -1.0664 -1.2942  0.0366
  492MOL0     H64916   9.782   3.402   3.122 -1.7743  1.4266 -0.6884
  492MOL0     H64917   9.759   3.460   3.276 -1.9350  1.4507 -1.2039
  492MOL0     H64918   9.873   3.189   3.210 -0.7344  0.8157 -0.0507
  492MOL0     H64919   9.791   3.195   3.361 -1.4681 -0.6869 -0.7124
  492MOL0     H64920   9.940   3.397   3.420  2.1301  0.9371 -0.5068
  492MOL0     H64921  10.024   3.390   3.266 -0.9230  2.3405 -0.1816
  492MOL0     H64922   9.981   3.161   3.489  0.7161 -1.4171 -0.2059
  492MOL0     H64923  10.087   3.143   3.351  2.8932 -2.0789  3.2587
  492MOL0     H64924  10.226   3.338   3.409  0.8872  0.9826  1.9622
  492MOL0     H64925  10.232   3.192   3.501 -0.7945 -2.4713 -4.9011
  492MOL0     H64926   9.227   3.591   3.494 -1.1332 -0.8702  1.4985
  492MOL0     H64927   9.006   3.538   3.602  2.7320  0.3096  0.8464
  492MOL0     H64928   8.591   3.066   3.479 -0.4347  0.5238 -1.2818
  492MOL0     H64929   8.347   3.064   3.489 -0.5641  0.7198 -2.2086
  492MOL0     H64930   8.792   3.707   4.182 -3.6845 -1.2271  1.2172
  492MOL0     H64931   8.978   3.835   4.061 -0.0734 -0.0062 -1.4332
  492MOL0     H64932   9.133   4.212   3.920 -2.7586  2.3281 -1.4153
  492MOL0     H64933   9.354   4.299   3.848  0.7215  0.6979  0.9728
  492MOL0     H64934   9.631   4.287   3.596 -1.0946 -1.1107 -0.5304
  492MOL0     H64935   9.543   4.239   3.740  0.3238 -2.7567 -2.5097
  492MOL0     H64936   9.590   4.527   3.677 -0.4773 -0.3869 -0.7828
  492MOL0     H64937   9.526   4.466   3.831 -0.6892 -0.4003  0.5013
  492MOL0     H64938   9.811   4.377   3.748  0.6752  0.1731  1.0133
  492MOL0     H64939   9.741   4.393   3.901  0.7314 -1.3505  0.2969
  492MOL0     H64940   9.797   4.633   3.720  1.2275  1.8657  1.2401
  492MOL0     H64941   9.753   4.647   3.890  0.3705  0.2758  0.2866
  492MOL0     H64942  10.172   4.580   3.905 -0.4319 -1.6941  0.6048
  492MOL0     H64943   9.256   4.236   3.437  0.3176 -2.4739 -0.3132
  492MOL0     H64944   9.041   4.154   3.487 -0.3941  1.6829 -0.3416
  493MOL0     O64945   1.606   3.333   4.075  0.2580 -0.2132 -0.3638
  493MOL0     C64946   1.602   3.454   4.097  0.5976 -0.1022 -0.0358
  493MOL0     O64947   1.679   3.523   4.191  0.5100 -0.5800 -0.2905
  493MOL0     C64948   1.769   3.439   4.258  0.4430  0.8382 -0.2869
  493MOL0     C64949   1.868   3.372   4.186  0.4814 -0.0052  0.6999
  493MOL0     C64950   1.946   3.274   4.246  0.3186  0.1480 -0.6883
  493MOL0     C64951   1.936   3.256   4.379 -0.2022  0.3282  0.2527
  493MOL0     O64952   2.009   3.161   4.441 -0.4145 -0.1293  0.6669
  493MOL0     C64953   2.101   3.217   4.535  0.0554  0.5115  0.6664
  493MOL0     C64954   2.201   3.106   4.558 -0.6231 -0.1246 -0.0322
  493MOL0     C64955   2.286   3.114   4.678  0.1725  0.6115 -0.2046
  493MOL0     C64956   2.404   3.210   4.667 -0.0591  0.5054  0.0702
  493MOL0     C64957   2.480   3.208   4.807 -0.0300  0.0525  0.5261
  493MOL0     C64958   2.598   3.308   4.820  0.5322  0.7521 -0.1981
  493MOL0     C64959   2.708   3.281   4.725  0.7451  0.0194  0.3274
  493MOL0     C64960   2.827   3.370   4.750 -0.0715 -0.2366  0.2777
  493MOL0     N64961   2.861   3.365   4.888  1.2599 -0.2479  0.6841
  493MOL0     C64962   2.919   3.262   4.950 -0.1527  0.2587 -0.5151
  493MOL0     C64963   2.963   3.311   5.077  0.1542  0.0138  0.8440
  493MOL0     C64964   3.019   3.221   5.184 -0.0611  0.0520 -0.6581
  493MOL0     C64965   3.168   3.223   5.179 -0.2308 -0.0733 -0.3673
  493MOL0     C64966   3.228   3.328   5.267 -1.1472  0.2114 -0.5511
  493MOL0     C64967   3.384   3.308   5.262  0.3129 -0.6236 -0.3323
  493MOL0     O64968   3.428   3.430   5.328  0.1768  1.0601  0.0843
  493MOL0     C64969   3.548   3.422   5.394  0.3317  0.9061  0.0003
  493MOL0     C64970   3.635   3.319   5.360 -0.5283 -0.1178 -0.6383
  493MOL0     C64971   3.764   3.314   5.429  0.3849 -0.1821  0.5193
  493MOL0     C64972   3.798   3.419   5.511 -0.5977  0.3044 -0.0147
  493MOL0     C64973   3.928   3.411   5.583  0.3417 -0.4315  0.2978
  493MOL0     O64974   4.014   3.305   5.556 -0.0120  0.4438 -0.0307
  493MOL0     C64975   4.119   3.294   5.633  0.0826 -0.8817  0.3467
  493MOL0     C64976   4.231   3.368   5.593 -0.3423 -0.0177  0.0345
  493MOL0     C64977   4.347   3.355   5.672  0.8790  0.2545 -0.1747
  493MOL0     C64978   4.357   3.274   5.782  0.5247  0.3361  0.7424
  493MOL0     O64979   4.466   3.267   5.862 -0.1014  0.0057  0.0731
  493MOL0     C64980   4.573   3.365   5.863 -0.4750 -0.1345 -0.2539
  493MOL0     C64981   4.687   3.312   5.777  0.3474 -1.0938  0.3545
  493MOL0     C64982   4.778   3.419   5.718 -0.9029 -0.2150  0.0188
  493MOL0     C64983   4.854   3.501   5.825 -1.4792 -0.7064  0.3981
  493MOL0     C64984   4.946   3.611   5.757 -0.3134 -0.1677 -0.5685
  493MOL0     C64985   4.981   3.725   5.854  0.1048  0.2904  0.1905
  493MOL0     C64986   5.096   3.662   5.948  0.6212 -0.2852 -0.1392
  493MOL0     C64987   5.118   3.742   6.070 -0.5859 -0.4298  0.3438
  493MOL0    Cl64988   5.150   3.911   6.012 -0.1145  0.0493  0.3140
  493MOL0     C64989   4.247   3.197   5.821 -0.3663 -0.1942  0.4322
  493MOL0     C64990   4.126   3.202   5.745  0.1344 -0.3170 -0.1921
  493MOL0     O64991   3.960   3.513   5.646 -0.6228  0.3480  0.0017
  493MOL0     C64992   3.707   3.521   5.543 -0.7096  0.3473 -0.0807
  493MOL0     C64993   3.575   3.522   5.485 -0.0998 -0.1661 -0.1791
  493MOL0     N64994   2.933   3.446   5.073 -0.3019 -0.0707 -0.7606
  493MOL0     N64995   2.873   3.476   4.963 -0.3760  0.4926 -0.2362
  493MOL0     C64996   1.838   3.324   4.449  0.8588  0.1350 -0.3366
  493MOL0     C64997   1.751   3.415   4.389 -0.3956 -0.9936  0.1372
  493MOL0     C64998   1.489   3.526   4.037 -0.2021  0.1103 -0.0019
  493MOL0     C64999   1.465   3.663   4.061 -0.7564  0.0495 -0.4028
  493MOL0     C65000   1.358   3.736   4.010 -0.2749 -0.4675 -0.3537
  493MOL0     C65001   1.262   3.670   3.928  0.8254 -0.1000 -0.6304
  493MOL0     O65002   1.142   3.738   3.910  0.1600  0.8273 -0.3913
  493MOL0     C65003   1.019   3.665   3.878 -0.5158  0.7321 -0.4825
  493MOL0     C65004   0.900   3.759   3.930 -0.4631 -0.7601  0.2094
  493MOL0     C65005   0.878   3.869   3.829 -0.6048 -0.5336 -0.6306
  493MOL0     C65006   0.794   3.980   3.891  0.2515 -0.4951 -0.1967
  493MOL0     C65007   0.657   3.977   3.828 -0.2579  0.4345 -0.3018
  493MOL0     C65008   0.538   3.985   3.802  0.0308  0.4742 -0.3341
  493MOL0     C65009   1.274   3.531   3.901  0.0013 -0.1994  0.1574
  493MOL0     C65010   1.390   3.460   3.951  0.1379 -0.0023  0.1488
  493MOL0     H65011   1.873   3.388   4.079  0.9800 -2.3784  0.3283
  493MOL0     H65012   2.025   3.216   4.199  0.5018 -0.8355  0.7625
  493MOL0     H65013   2.065   3.246   4.634  2.6986  2.2284  1.2237
  493MOL0     H65014   2.159   3.301   4.496  0.6337 -0.1829 -0.0040
  493MOL0     H65015   2.265   3.097   4.470  0.1657  1.3608  0.3549
  493MOL0     H65016   2.150   3.010   4.569  2.6259 -1.8693  1.1859
  493MOL0     H65017   2.322   3.012   4.696 -2.0346 -0.4379 -1.3265
  493MOL0     H65018   2.225   3.143   4.764 -0.5259 -0.2599 -0.3979
  493MOL0     H65019   2.477   3.174   4.593  2.8501 -0.1012  2.9933
  493MOL0     H65020   2.360   3.309   4.657  0.6815  1.1480  2.4801
  493MOL0     H65021   2.513   3.104   4.819 -1.2811 -0.4176  0.0448
  493MOL0     H65022   2.412   3.214   4.893 -0.0595 -3.1234  0.8759
  493MOL0     H65023   2.626   3.298   4.925 -0.6311  0.1563  0.0786
  493MOL0     H65024   2.566   3.412   4.809 -1.0754  0.4312  1.1728
  493MOL0     H65025   2.753   3.183   4.740 -0.7889 -0.4930  1.9403
  493MOL0     H65026   2.681   3.278   4.619  2.0371 -2.5881 -0.0057
  493MOL0     H65027   2.814   3.477   4.731  0.1311 -0.2249  0.1974
  493MOL0     H65028   2.903   3.332   4.681 -2.0794 -0.7465 -1.7338
  493MOL0     H65029   2.925   3.160   4.913 -1.0229  1.3102 -3.9320
  493MOL0     H65030   2.982   3.120   5.167 -0.0362  0.2063 -1.7318
  493MOL0     H65031   2.988   3.249   5.285 -2.3209 -0.4210 -1.1683
  493MOL0     H65032   3.214   3.218   5.080  0.3690  0.0212 -0.1005
  493MOL0     H65033   3.194   3.136   5.241  0.3317 -0.0878 -0.6204
  493MOL0     H65034   3.210   3.427   5.224 -3.6094 -0.1981 -0.5564
  493MOL0     H65035   3.207   3.329   5.374  0.7728 -1.3216 -0.0875
  493MOL0     H65036   3.428   3.313   5.162  0.9444  0.6761 -0.0105
  493MOL0     H65037   3.411   3.219   5.319 -2.8106 -1.3803  0.1732
  493MOL0     H65038   3.627   3.252   5.275  3.0970 -0.4802 -0.8641
  493MOL0     H65039   3.833   3.230   5.430 -0.6902 -1.1740  3.8582
  493MOL0     H65040   4.226   3.428   5.502 -2.7172  1.0543  0.8031
  493MOL0     H65041   4.424   3.424   5.639  0.7610 -0.3145 -1.7468
  493MOL0     H65042   4.617   3.374   5.963  0.0662 -0.8018 -0.4263
  493MOL0     H65043   4.539   3.465   5.834 -2.7107 -1.0219 -0.9143
  493MOL0     H65044   4.645   3.244   5.702  0.7057 -0.3711 -0.5144
  493MOL0     H65045   4.749   3.259   5.850  1.6893  1.4504  1.1617
  493MOL0     H65046   4.716   3.484   5.656  1.0812 -0.3105 -2.1913
  493MOL0     H65047   4.849   3.366   5.654 -1.5623  0.6758 -1.4973
  493MOL0     H65048   4.779   3.552   5.887 -1.2658 -0.3271  0.3510
  493MOL0     H65049   4.906   3.434   5.894 -2.0549 -1.8447 -0.2528
  493MOL0     H65050   4.901   3.659   5.670 -2.3925 -1.0631 -0.0561
  493MOL0     H65051   5.038   3.570   5.713  0.4733  2.0752 -1.1240
  493MOL0     H65052   4.894   3.745   5.918  0.8911 -0.7866  1.6328
  493MOL0     H65053   5.016   3.815   5.802 -3.3994  2.3368  1.0464
  493MOL0     H65054   5.059   3.569   5.990 -1.3558 -0.0806 -1.2932
  493MOL0     H65055   5.188   3.659   5.888  1.0643 -1.6554  0.5691
  493MOL0     H65056   5.205   3.708   6.126 -0.8567  0.5892  1.4238
  493MOL0     H65057   5.034   3.743   6.140  0.2324 -1.6302  1.3669
  493MOL0     H65058   4.256   3.138   5.911  0.3089 -0.8715 -0.0620
  493MOL0     H65059   4.039   3.144   5.774 -0.3100  1.0654  1.4379
  493MOL0     H65060   3.740   3.601   5.608 -0.3813  0.7141 -0.6876
  493MOL0     H65061   3.497   3.596   5.499  1.3874  1.3652  0.3132
  493MOL0     H65062   1.830   3.308   4.556 -1.6989  0.6655 -0.3746
  493MOL0     H65063   1.677   3.467   4.448  1.0284  1.2768  0.0455
  493MOL0     H65064   1.536   3.714   4.125  3.2992 -3.3365 -1.7920
  493MOL0     H65065   1.349   3.842   4.030 -0.4954 -0.8037  1.4789
  493MOL0     H65066   1.018   3.569   3.932  2.5347 -0.1483 -1.7978
  493MOL0     H65067   0.999   3.645   3.773 -0.5593 -0.8158 -0.2088
  493MOL0     H65068   0.810   3.699   3.943 -0.3733 -0.7933  0.7221
  493MOL0     H65069   0.932   3.810   4.022  1.0234  3.1600 -2.2247
  493MOL0     H65070   0.830   3.825   3.741 -1.1232 -0.3290 -0.4578
  493MOL0     H65071   0.970   3.912   3.789 -1.4635 -0.7512 -3.0512
  493MOL0     H65072   0.791   3.981   4.001  0.8000 -1.4551 -0.1652
  493MOL0     H65073   0.846   4.075   3.875  1.3258 -1.1175 -0.5192
  493MOL0     H65074   0.438   4.008   3.773  0.5560  1.6915 -1.2607
  493MOL0     H65075   1.201   3.465   3.855 -3.0659  2.5845  0.7089
  493MOL0     H65076   1.407   3.356   3.928  1.4608  0.6406 -2.1327
  494MOL0     O65077   5.589   0.047  10.930 -0.1740 -0.2010 -0.0571
  494MOL0     C65078   5.687  -0.003  10.979 -0.1305 -0.5449 -0.1999
  494MOL0     O65079   5.689  -0.113  11.037 -0.2978  0.0708  0.4108
  494MOL0     C65080   5.571  -0.191  11.037  0.1775  0.1165  0.3230
  494MOL0     C65081   5.569  -0.292  10.940  0.2090 -0.7506 -0.1457
  494MOL0     C65082   5.459  -0.383  10.940  0.3215  0.2515 -0.8343
  494MOL0     C65083   5.360  -0.387  11.041 -0.0493 -0.5356  0.1853
  494MOL0     O65084   5.279  -0.496  11.045  0.0451 -0.2759  0.1071
  494MOL0     C65085   5.155  -0.475  10.971 -0.6459 -0.3636  0.1341
  494MOL0     C65086   5.054  -0.385  11.035  0.1569  0.2121 -0.1402
  494MOL0     C65087   4.940  -0.339  10.958  0.7664  0.2139 -0.1587
  494MOL0     C65088   4.971  -0.257  10.838 -0.5738 -0.8908  0.5869
  494MOL0     C65089   5.035  -0.116  10.879  0.5779 -0.4926  0.7300
  494MOL0     C65090   5.069  -0.030  10.754  1.4670 -1.1888  0.2843
  494MOL0     C65091   5.172   0.083  10.779  0.0958  0.1695 -0.1151
  494MOL0     C65092   5.194   0.163  10.641  0.5123 -0.3176 -0.2678
  494MOL0     N65093   5.297   0.269  10.647  0.4910  0.3721 -0.5265
  494MOL0     C65094   5.434   0.255  10.640 -1.0955  0.2503 -2.2547
  494MOL0     C65095   5.479   0.381  10.655  0.0673 -0.7602 -0.6372
  494MOL0     C65096   5.620   0.429  10.626  0.1873  0.0345 -0.5067
  494MOL0     C65097   5.679   0.514  10.735  0.9010  0.0135  0.6250
  494MOL0     C65098   5.810   0.566  10.693  0.0568 -0.1271 -0.0430
  494MOL0     C65099   5.863   0.639  10.816  0.2913  0.1904 -0.1313
  494MOL0     O65100   5.984   0.709  10.777 -0.9257  0.7436  0.4277
  494MOL0     C65101   6.069   0.750  10.876 -0.5663 -0.4280 -0.7748
  494MOL0     C65102   6.039   0.756  11.016  0.6045 -0.1150 -1.2370
  494MOL0     C65103   6.142   0.801  11.101  0.1935 -0.2664  0.1535
  494MOL0     C65104   6.264   0.851  11.058 -0.5400 -0.2825 -0.2469
  494MOL0     C65105   6.363   0.903  11.146 -0.1530  0.2229 -0.4459
  494MOL0     O65106   6.490   0.929  11.089  0.4907  0.6781 -0.3836
  494MOL0     C65107   6.578   0.994  11.167  0.5924  0.5305 -0.1614
  494MOL0     C65108   6.590   1.125  11.139 -0.0816 -0.8304  0.0183
  494MOL0     C65109   6.680   1.200  11.208 -0.0461 -0.6874  0.3157
  494MOL0     C65110   6.770   1.144  11.301  0.0053  0.0069  0.0930
  494MOL0     O65111   6.880   1.227  11.334  0.5808  0.3460 -0.1283
  494MOL0     C65112   6.925   1.225  11.469 -0.4214 -0.0625 -0.1903
  494MOL0     C65113   7.068   1.172  11.488 -0.2177  0.3876  0.3139
  494MOL0     C65114   7.179   1.258  11.429  0.1870 -0.2766 -0.5831
  494MOL0     C65115   7.321   1.201  11.457  0.1080 -0.0441  0.0436
  494MOL0     C65116   7.384   1.157  11.321  0.4119 -0.1909  0.3011
  494MOL0     C65117   7.360   1.006  11.298 -0.5309  0.3122  0.0286
  494MOL0     C65118   7.394   0.959  11.154  0.2340 -0.4981  0.6863
  494MOL0     C65119   7.550   0.969  11.140  0.0560  0.3378  0.0053
  494MOL0    Cl65120   7.597   0.850  11.015  0.0700  0.5965  0.1682
  494MOL0     C65121   6.749   1.010  11.332  0.0976  0.5422 -0.3303
  494MOL0     C65122   6.652   0.935  11.269 -0.0894 -0.1197  0.2030
  494MOL0     O65123   6.337   0.913  11.270  0.2379  0.1875  0.6404
  494MOL0     C65124   6.279   0.863  10.920  0.4445  0.3872 -0.6845
  494MOL0     C65125   6.188   0.808  10.833 -0.1606 -0.8416 -0.1033
  494MOL0     N65126   5.373   0.464  10.686 -0.0142 -0.4111  0.3910
  494MOL0     N65127   5.269   0.395  10.682  0.1827 -0.1526 -0.2683
  494MOL0     C65128   5.377  -0.287  11.136  0.9527  0.3349  1.0271
  494MOL0     C65129   5.476  -0.190  11.138 -0.7540 -0.4846 -0.6553
  494MOL0     C65130   5.817   0.060  10.983 -0.3060 -0.6446 -0.5108
  494MOL0     C65131   5.935   0.022  11.057  0.9058 -0.3438 -0.2758
  494MOL0     C65132   6.053   0.095  11.073 -0.0600 -0.3635  0.2501
  494MOL0     C65133   6.063   0.206  10.987  0.0392 -0.2816  0.0827
  494MOL0     O65134   6.187   0.268  10.979  0.8410 -0.1138 -0.2317
  494MOL0     C65135   6.204   0.405  10.930 -1.1796 -0.6398 -0.4829
  494MOL0     C65136   6.349   0.454  10.957  1.3133  0.3012 -0.0555
  494MOL0     C65137   6.383   0.469  11.113 -0.1088  0.3549  0.3582
  494MOL0     C65138   6.508   0.553  11.128 -0.2311 -0.8321  1.0116
  494MOL0     C65139   6.622   0.495  11.066 -0.1272 -0.2576  0.9506
  494MOL0     C65140   6.724   0.439  11.024  1.3966  1.2674 -0.2874
  494MOL0     C65141   5.953   0.250  10.914 -0.6791  0.0162  0.0728
  494MOL0     C65142   5.831   0.182  10.919  0.3821  0.4305  0.6796
  494MOL0     H65143   5.653  -0.297  10.871 -1.3711 -0.2533 -2.2206
  494MOL0     H65144   5.452  -0.456  10.860 -0.7765  1.3116 -1.7303
  494MOL0     H65145   5.122  -0.569  10.926  0.9467 -0.5341 -0.7553
  494MOL0     H65146   5.177  -0.421  10.878 -2.5343 -0.1649 -0.2340
  494MOL0     H65147   5.103  -0.291  11.062 -2.2454  1.1815  1.1628
  494MOL0     H65148   5.021  -0.416  11.135 -0.5622  1.4945  0.0374
  494MOL0     H65149   4.881  -0.277  11.026 -1.1348 -1.0507 -0.5755
  494MOL0     H65150   4.877  -0.423  10.926  1.3530 -1.4836  2.7772
  494MOL0     H65151   5.035  -0.316  10.771 -0.9344  0.3847 -0.9358
  494MOL0     H65152   4.883  -0.230  10.780  0.9423  0.5120 -1.2156
  494MOL0     H65153   5.133  -0.140  10.920  1.2362 -1.2994 -1.2023
  494MOL0     H65154   4.970  -0.062  10.949  3.0098  0.8932  2.0432
  494MOL0     H65155   4.985   0.006  10.694  0.1872 -3.8031  0.3509
  494MOL0     H65156   5.112  -0.103  10.686 -2.6575 -3.4052 -0.2698
  494MOL0     H65157   5.152   0.158  10.857  1.1763  3.5364 -2.8309
  494MOL0     H65158   5.269   0.038  10.802  1.0036  1.0883 -1.9887
  494MOL0     H65159   5.098   0.209  10.618  0.3318 -0.6643 -0.2087
  494MOL0     H65160   5.214   0.106  10.550 -1.4022  0.7291 -1.4128
  494MOL0     H65161   5.491   0.164  10.622 -1.7144 -0.2759 -1.6143
  494MOL0     H65162   5.609   0.492  10.537 -0.4022  0.0961 -0.3936
  494MOL0     H65163   5.689   0.347  10.602 -0.6575 -0.8158 -0.0939
  494MOL0     H65164   5.672   0.459  10.829 -1.6229  3.1244  2.4285
  494MOL0     H65165   5.623   0.606  10.751 -0.3429 -0.5013 -0.5268
  494MOL0     H65166   5.876   0.479  10.683 -1.1551 -1.1212  0.3445
  494MOL0     H65167   5.813   0.623  10.600 -1.9034 -2.2901 -1.5777
  494MOL0     H65168   5.871   0.576  10.905 -0.1282  1.6339  0.9818
  494MOL0     H65169   5.791   0.719  10.835 -0.0509  0.4063 -2.1609
  494MOL0     H65170   5.947   0.725  11.064  0.8376  1.7860  0.5796
  494MOL0     H65171   6.111   0.809  11.205 -0.7415 -2.5488  0.1056
  494MOL0     H65172   6.534   1.182  11.065  3.0389  1.4573 -0.7840
  494MOL0     H65173   6.699   1.306  11.195 -0.3243 -0.1856  3.2632
  494MOL0     H65174   6.861   1.160  11.530 -2.3062  1.4998 -0.3926
  494MOL0     H65175   6.909   1.325  11.509 -1.8663 -0.8416  1.3077
  494MOL0     H65176   7.071   1.072  11.443 -2.3894  1.7946 -3.4456
  494MOL0     H65177   7.076   1.155  11.596 -0.8384  1.5701  0.5605
  494MOL0     H65178   7.171   1.352  11.483  0.9716 -0.4663 -0.1141
  494MOL0     H65179   7.163   1.271  11.322  0.3481 -2.5278 -0.9386
  494MOL0     H65180   7.381   1.289  11.483  0.2784  0.1564 -0.9807
  494MOL0     H65181   7.324   1.120  11.531  1.0575 -0.5665 -0.5480
  494MOL0     H65182   7.491   1.177  11.331 -0.0653  2.3546  0.9615
  494MOL0     H65183   7.360   1.226  11.239  1.9292  0.9640  0.7951
  494MOL0     H65184   7.255   0.984  11.320 -0.1520 -2.6193 -0.7893
  494MOL0     H65185   7.412   0.953  11.378 -0.7459  0.8602  0.5436
  494MOL0     H65186   7.356   0.857  11.141 -1.7103  0.0887  1.3970
  494MOL0     H65187   7.349   1.018  11.073 -2.1199 -3.0186  0.0099
  494MOL0     H65188   7.612   0.956  11.229 -0.4642 -3.2411  0.0112
  494MOL0     H65189   7.584   1.067  11.105 -0.4121  0.9439  1.1948
  494MOL0     H65190   6.819   0.960  11.398  0.2865  1.9245  0.5537
  494MOL0     H65191   6.647   0.828  11.290 -0.8002 -0.4618 -1.5714
  494MOL0     H65192   6.368   0.913  10.882  0.5213  1.0434  0.3205
  494MOL0     H65193   6.214   0.804  10.727  2.9665  0.7010  0.4577
  494MOL0     H65194   5.294  -0.280  11.206  1.3431 -1.6622  1.7549
  494MOL0     H65195   5.471  -0.107  11.207 -0.4958  0.2147 -1.4676
  494MOL0     H65196   5.919  -0.071  11.111 -1.4417  1.3277  2.1678
  494MOL0     H65197   6.143   0.064  11.125  0.2277 -0.1012 -0.0827
  494MOL0     H65198   6.133   0.470  10.982 -0.0571 -1.3926  2.1436
  494MOL0     H65199   6.184   0.415  10.823 -3.3560  4.7743  0.1354
  494MOL0     H65200   6.415   0.383  10.907  1.6083  0.1192  0.5786
  494MOL0     H65201   6.363   0.552  10.910  1.1925 -1.0700 -3.2132
  494MOL0     H65202   6.394   0.367  11.151 -0.0811 -0.5322 -1.9195
  494MOL0     H65203   6.303   0.522  11.165  0.6734  1.1090  0.8327
  494MOL0     H65204   6.501   0.656  11.092  1.7802 -0.3582  1.8289
  494MOL0     H65205   6.531   0.562  11.234 -0.0967 -1.1308  1.0102
  494MOL0     H65206   6.809   0.397  10.975  2.4385  0.5543  1.9874
  494MOL0     H65207   5.956   0.334  10.845 -2.0180 -0.4131 -0.5525
  494MOL0     H65208   5.750   0.223  10.860  1.5937 -2.6534 -3.6491
  495MOL0     O65209   2.444   0.509   6.281  0.0277  1.5552 -0.0587
  495MOL0     C65210   2.474   0.491   6.400  0.1175 -0.3297 -0.5953
  495MOL0     O65211   2.414   0.544   6.511 -0.8446  0.3286  0.2956
  495MOL0     C65212   2.330   0.654   6.480 -1.1247  0.3230 -0.4085
  495MOL0     C65213   2.365   0.789   6.527  1.6013  0.7150 -0.1444
  495MOL0     C65214   2.269   0.892   6.509 -0.4676  0.7063  0.1271
  495MOL0     C65215   2.150   0.876   6.445  0.0379  0.1608 -0.1328
  495MOL0     O65216   2.053   0.976   6.434 -0.0428 -0.5415  0.1018
  495MOL0     C65217   2.098   1.111   6.398 -0.1402 -0.4437  0.1549
  495MOL0     C65218   2.191   1.130   6.281 -0.1069  0.0437  1.1035
  495MOL0     C65219   2.215   1.285   6.254 -0.3653  0.1844 -0.2402
  495MOL0     C65220   2.097   1.385   6.224  0.3296  0.2364 -1.3672
  495MOL0     C65221   1.996   1.335   6.120  0.5084 -0.3309  0.3385
  495MOL0     C65222   1.910   1.454   6.066  0.0756  0.3768 -0.9286
  495MOL0     C65223   1.827   1.506   6.180  0.8331 -1.1013  0.3226
  495MOL0     C65224   1.756   1.646   6.165 -0.3606 -0.0400  0.3190
  495MOL0     N65225   1.665   1.646   6.044  0.4650 -0.0406 -0.6307
  495MOL0     C65226   1.681   1.691   5.919  0.2813  0.5617  1.2365
  495MOL0     C65227   1.565   1.673   5.850  0.2167 -0.9415  1.3114
  495MOL0     C65228   1.567   1.704   5.699  0.7801  0.3927 -0.4845
  495MOL0     C65229   1.502   1.835   5.666 -0.5379 -0.4093  0.1056
  495MOL0     C65230   1.360   1.850   5.708 -0.8545 -0.2459 -0.4384
  495MOL0     C65231   1.263   1.787   5.610  1.1918  0.3855  0.0077
  495MOL0     O65232   1.252   1.859   5.488 -0.9146 -0.6080  0.0345
  495MOL0     C65233   1.156   1.829   5.393 -0.4388 -0.1224 -0.9434
  495MOL0     C65234   1.094   1.701   5.398 -0.5980 -0.5755  1.2204
  495MOL0     C65235   0.988   1.682   5.308  0.0017 -0.2999 -0.3271
  495MOL0     C65236   0.956   1.780   5.208 -0.0226 -0.3034  0.6108
  495MOL0     C65237   0.851   1.760   5.112 -0.5380  0.7320  0.7629
  495MOL0     O65238   0.779   1.870   5.063 -0.4039 -0.0839 -0.4804
  495MOL0     C65239   0.666   1.840   4.984  0.4981 -0.1286  0.5228
  495MOL0     C65240   0.653   1.928   4.882  0.2611 -0.2582  0.5538
  495MOL0     C65241   0.553   1.909   4.781 -0.7372 -0.0488 -0.1177
  495MOL0     C65242   0.451   1.815   4.803  0.7020  1.1670  0.8478
  495MOL0     O65243   0.335   1.806   4.728  0.3716  0.0324 -0.5161
  495MOL0     C65244   0.278   1.929   4.678 -0.2294 -0.0621  0.0469
  495MOL0     C65245   0.156   1.894   4.581  0.6845 -0.8979 -0.7011
  495MOL0     C65246   0.068   2.005   4.560 -0.2548 -0.6292  0.0689
  495MOL0     C65247   0.141   2.129   4.497 -0.9140 -0.1824  0.3369
  495MOL0     C65248   0.051   2.228   4.435 -0.1218 -0.3272 -0.0729
  495MOL0     C65249  -0.005   2.183   4.303  0.7563  0.5141 -0.3819
  495MOL0     C65250  -0.041   2.299   4.208 -0.9768 -0.1545 -0.4111
  495MOL0     C65251  -0.078   2.248   4.067 -0.5449 -0.2366 -0.0051
  495MOL0    Cl65252  -0.089   2.381   3.942  0.8467 -0.5286  0.2498
  495MOL0     C65253   0.476   1.725   4.897 -0.6967  0.0336  0.5310
  495MOL0     C65254   0.578   1.734   4.987 -0.7145 -0.6168 -0.1635
  495MOL0     O65255   0.827   1.640   5.078  0.4533 -0.2758  0.5006
  495MOL0     C65256   1.027   1.901   5.202  1.3227 -0.5598 -0.0312
  495MOL0     C65257   1.119   1.926   5.302 -0.6037 -0.8646 -0.2828
  495MOL0     N65258   1.480   1.605   5.933 -0.4712  0.0419 -0.5097
  495MOL0     N65259   1.536   1.601   6.051  0.1380 -0.6614  0.1509
  495MOL0     C65260   2.116   0.746   6.414  0.3544  0.3749 -0.6790
  495MOL0     C65261   2.206   0.639   6.421 -0.6184 -0.4099 -0.0766
  495MOL0     C65262   2.592   0.405   6.427  0.0222 -0.2615  0.2728
  495MOL0     C65263   2.651   0.401   6.553 -0.2473 -0.1631 -0.2791
  495MOL0     C65264   2.768   0.327   6.583 -0.2092  0.0027  0.0556
  495MOL0     C65265   2.836   0.260   6.482 -0.8752 -0.2810 -0.6171
  495MOL0     O65266   2.955   0.199   6.522  0.4076 -0.4486 -0.1300
  495MOL0     C65267   3.068   0.185   6.432  0.8831  0.2586  0.5137
  495MOL0     C65268   3.178   0.292   6.452 -0.4449  0.1965 -0.8061
  495MOL0     C65269   3.249   0.266   6.592 -0.9231  0.5152 -0.3693
  495MOL0     C65270   3.388   0.334   6.597  0.1777 -0.9407  0.1205
  495MOL0     C65271   3.479   0.264   6.505  1.1401  0.1661  0.3898
  495MOL0     C65272   3.571   0.212   6.442  0.2952  0.4270  0.1448
  495MOL0     C65273   2.773   0.260   6.359  0.5799  0.7891 -0.2425
  495MOL0     C65274   2.654   0.324   6.332  0.0865 -0.4132  0.0725
  495MOL0     H65275   2.457   0.819   6.576  1.3824 -1.3109  1.6469
  495MOL0     H65276   2.318   0.987   6.529 -0.7592  0.6235  1.3185
  495MOL0     H65277   2.144   1.164   6.481 -1.7225  2.4907 -0.7025
  495MOL0     H65278   2.009   1.170   6.375 -2.5892 -2.6276  3.2009
  495MOL0     H65279   2.139   1.078   6.200  3.2056  0.1167 -1.2551
  495MOL0     H65280   2.288   1.080   6.273 -1.1190 -2.1407  1.7186
  495MOL0     H65281   2.281   1.290   6.166  0.7661 -0.2991  0.5552
  495MOL0     H65282   2.272   1.323   6.339 -0.8218 -1.2347  0.7256
  495MOL0     H65283   2.043   1.402   6.318 -0.5321 -0.1145 -1.7913
  495MOL0     H65284   2.152   1.475   6.195  0.4326  0.2249 -1.2103
  495MOL0     H65285   1.934   1.257   6.167  0.6566  0.4349  1.8667
  495MOL0     H65286   2.038   1.289   6.030 -0.0401  2.4107 -1.4326
  495MOL0     H65287   1.844   1.418   5.986  1.6004 -1.5206 -1.4413
  495MOL0     H65288   1.969   1.531   6.014  1.5541 -0.5735 -0.7312
  495MOL0     H65289   1.748   1.434   6.201 -1.3628  1.4168  1.2743
  495MOL0     H65290   1.885   1.513   6.273  1.7331  2.4486 -0.3479
  495MOL0     H65291   1.837   1.719   6.159 -0.2428 -0.3021 -3.5348
  495MOL0     H65292   1.694   1.659   6.255  3.1086 -0.4833  2.9795
  495MOL0     H65293   1.770   1.726   5.867  0.4604  0.8626  1.7434
  495MOL0     H65294   1.527   1.623   5.637  1.0085  0.0072 -0.1293
  495MOL0     H65295   1.671   1.701   5.664  0.7789 -0.8556 -0.4279
  495MOL0     H65296   1.519   1.862   5.561 -3.8989  1.2307 -0.1440
  495MOL0     H65297   1.552   1.914   5.723  3.2054 -1.1991 -1.7638
  495MOL0     H65298   1.345   1.795   5.801 -0.6076 -0.7251 -0.6729
  495MOL0     H65299   1.325   1.953   5.723  0.5022 -0.0640  2.0311
  495MOL0     H65300   1.166   1.772   5.660  1.3990  4.5209  2.0915
  495MOL0     H65301   1.298   1.687   5.586  1.5183  0.4590  0.1730
  495MOL0     H65302   1.135   1.622   5.459  1.9327 -0.5770 -0.3185
  495MOL0     H65303   0.934   1.589   5.320 -0.2545  0.1368  2.5889
  495MOL0     H65304   0.720   2.014   4.881 -1.7024  1.3899  1.8686
  495MOL0     H65305   0.548   1.983   4.702  1.4002 -0.1022 -0.3498
  495MOL0     H65306   0.342   1.991   4.615 -1.8756  1.1705 -0.4572
  495MOL0     H65307   0.247   1.989   4.763  0.0433  0.8648 -0.4976
  495MOL0     H65308   0.093   1.818   4.628 -0.3687  1.6746  2.3550
  495MOL0     H65309   0.197   1.846   4.492  1.4341 -0.3564 -0.6563
  495MOL0     H65310   0.049   2.041   4.662  1.9488 -0.3565  0.4330
  495MOL0     H65311  -0.029   1.988   4.513 -0.2991 -0.2423  0.0180
  495MOL0     H65312   0.201   2.166   4.581  1.8653  1.4439 -2.1708
  495MOL0     H65313   0.225   2.093   4.437  0.6150 -1.7355  3.2199
  495MOL0     H65314   0.113   2.319   4.431 -0.1041 -0.3382 -0.0535
  495MOL0     H65315  -0.035   2.237   4.502  1.5482 -1.0015  2.3017
  495MOL0     H65316  -0.100   2.130   4.318 -0.6270  3.3179  1.3783
  495MOL0     H65317   0.059   2.109   4.253  2.6944  0.8131  1.5316
  495MOL0     H65318  -0.131   2.356   4.234 -1.6835 -0.4613 -2.0874
  495MOL0     H65319   0.049   2.361   4.214 -0.8415 -0.1934 -1.7609
  495MOL0     H65320  -0.168   2.191   4.091  0.5643 -1.7640  0.6325
  495MOL0     H65321  -0.006   2.175   4.028 -1.3508 -0.0136 -2.0515
  495MOL0     H65322   0.401   1.646   4.907  0.0861 -1.3754 -2.9777
  495MOL0     H65323   0.583   1.669   5.074  1.3331  2.3999  2.2309
  495MOL0     H65324   1.019   1.965   5.115  4.3086  0.9345  0.6598
  495MOL0     H65325   1.189   2.008   5.296 -0.8771 -0.7306 -2.1907
  495MOL0     H65326   2.012   0.733   6.386  0.4128 -0.5317 -0.5084
  495MOL0     H65327   2.171   0.540   6.393  0.3225 -0.5262 -0.8945
  495MOL0     H65328   2.602   0.442   6.641  0.2827 -1.6014  0.7178
  495MOL0     H65329   2.805   0.314   6.684 -1.6424  3.3779  1.1880
  495MOL0     H65330   3.036   0.217   6.332  0.2392 -0.0375  0.6210
  495MOL0     H65331   3.111   0.085   6.437  0.8790  0.0311 -2.2876
  495MOL0     H65332   3.246   0.286   6.366 -3.9089  0.6120 -3.8509
  495MOL0     H65333   3.128   0.389   6.457 -0.4659  0.1274  2.8701
  495MOL0     H65334   3.266   0.158   6.598  1.5927  0.7620 -1.7847
  495MOL0     H65335   3.183   0.306   6.670  0.7722  0.2281  1.2805
  495MOL0     H65336   3.381   0.440   6.572  1.9520 -0.9812 -0.6971
  495MOL0     H65337   3.427   0.325   6.699 -2.1417  2.3758  1.4715
  495MOL0     H65338   3.640   0.174   6.370 -3.1935 -0.9828 -2.8115
  495MOL0     H65339   2.813   0.199   6.279 -0.0012  1.9456 -1.4593
  495MOL0     H65340   2.597   0.307   6.242 -2.8525 -1.8674  2.0698
  496MOL0     O65341   1.613   7.588   4.478 -0.1774 -0.8092  0.1765
  496MOL0     C65342   1.636   7.582   4.600 -0.6277 -0.2444  0.0755
  496MOL0     O65343   1.543   7.544   4.693  0.1414 -0.9133  0.4322
  496MOL0     C65344   1.407   7.540   4.663 -0.2048  0.2047  0.1697
  496MOL0     C65345   1.341   7.458   4.758  0.1007  0.1272  0.7482
  496MOL0     C65346   1.205   7.439   4.742  0.3481 -0.3086  0.3524
  496MOL0     C65347   1.127   7.507   4.650  0.5533 -0.1257 -0.1530
  496MOL0     O65348   0.991   7.474   4.627 -0.3558  0.2259 -0.4109
  496MOL0     C65349   0.904   7.452   4.743 -0.9063 -0.0833 -0.1669
  496MOL0     C65350   0.763   7.482   4.702 -0.2186  0.2694 -0.5212
  496MOL0     C65351   0.659   7.452   4.813  0.7258 -0.5349  0.2965
  496MOL0     C65352   0.636   7.306   4.846  0.0209 -0.5705  0.1501
  496MOL0     C65353   0.504   7.285   4.915 -0.6153  0.1328  0.2219
  496MOL0     C65354   0.476   7.136   4.927  0.5714  0.8356 -1.1531
  496MOL0     C65355   0.332   7.115   4.964  0.0206  0.2220 -0.1008
  496MOL0     C65356   0.276   7.179   5.094  0.2490 -0.8355 -0.9296
  496MOL0     N65357   0.131   7.177   5.099 -0.9309 -0.1788 -0.3676
  496MOL0     C65358   0.046   7.077   5.054  0.0670  0.0480 -0.2367
  496MOL0     C65359  -0.072   7.096   5.116 -0.1411  0.6442  0.0305
  496MOL0     C65360  -0.199   7.018   5.077 -0.0832 -0.3322 -0.0411
  496MOL0     C65361  -0.315   7.117   5.046  0.3797  0.3825  0.3493
  496MOL0     C65362  -0.449   7.037   5.019 -0.1264  0.7552 -0.1862
  496MOL0     C65363  -0.545   7.147   4.982  0.4821  0.7614 -0.0748
  496MOL0     O65364  -0.676   7.081   4.953  0.1208 -0.4042  0.3399
  496MOL0     C65365  -0.789   7.116   5.021 -1.0875  0.7589  0.0636
  496MOL0     C65366  -0.907   7.081   4.957  1.0106  0.2597  0.0173
  496MOL0     C65367  -1.030   7.131   5.001 -0.4151 -0.3422 -0.6316
  496MOL0     C65368  -1.034   7.213   5.113 -0.4722  0.1728 -0.6997
  496MOL0     C65369  -1.160   7.290   5.142 -0.2795 -0.1921  0.2820
  496MOL0     O65370  -1.258   7.295   5.051  0.5793 -0.5765 -0.1757
  496MOL0     C65371  -1.377   7.354   5.095 -0.1830 -0.8097 -0.7114
  496MOL0     C65372  -1.492   7.281   5.067 -0.8024 -0.4155 -0.2805
  496MOL0     C65373  -1.614   7.330   5.093  1.3270  0.1770 -0.1632
  496MOL0     C65374  -1.631   7.462   5.135 -0.1336  0.2927 -0.8792
  496MOL0     O65375  -1.762   7.512   5.140 -0.8509  0.4129 -0.0404
  496MOL0     C65376  -1.872   7.447   5.082 -0.2157 -0.6122  0.6578
  496MOL0     C65377  -1.995   7.534   5.091  0.0749 -0.5934 -0.9185
  496MOL0     C65378  -2.118   7.451   5.065 -0.7844  0.0346 -0.4055
  496MOL0     C65379  -2.236   7.534   5.052 -0.9615  0.4842  0.0412
  496MOL0     C65380  -2.356   7.446   5.103  0.9368 -0.1998 -0.5280
  496MOL0     C65381  -2.476   7.546   5.080  0.3567 -1.0679 -0.6064
  496MOL0     C65382  -2.608   7.471   5.111 -0.4981 -0.0317 -0.3363
  496MOL0     C65383  -2.740   7.553   5.095 -0.6260  0.6441  0.0059
  496MOL0    Cl65384  -2.729   7.724   5.139 -0.5755 -0.0945 -0.3235
  496MOL0     C65385  -1.516   7.537   5.171  0.7541  0.9469 -0.1454
  496MOL0     C65386  -1.386   7.484   5.147  0.6740 -0.3857  0.2703
  496MOL0     O65387  -1.159   7.331   5.255  1.0632  0.4790 -0.4487
  496MOL0     C65388  -0.915   7.248   5.181  0.3245  0.0218  0.9939
  496MOL0     C65389  -0.796   7.193   5.136 -0.8577  0.6265  0.0110
  496MOL0     N65390  -0.061   7.207   5.195  0.4763  0.1177  0.1499
  496MOL0     N65391   0.057   7.259   5.188  0.8654  0.2350  0.2127
  496MOL0     C65392   1.191   7.580   4.553  0.0135 -0.3431  0.6036
  496MOL0     C65393   1.332   7.600   4.556  0.4643  0.0616  0.9865
  496MOL0     C65394   1.785   7.596   4.642 -0.4711  0.2357 -1.5388
  496MOL0     C65395   1.894   7.609   4.549  0.0600  0.0216  1.0178
  496MOL0     C65396   2.027   7.613   4.604 -0.6219  0.7338 -0.2068
  496MOL0     C65397   2.055   7.619   4.742  0.7875 -0.6009  0.5411
  496MOL0     O65398   2.186   7.619   4.774  0.5134  0.0693  0.1689
  496MOL0     C65399   2.233   7.736   4.827 -0.8679  0.3183  0.1797
  496MOL0     C65400   2.386   7.745   4.793  0.6639  0.0872 -0.5880
  496MOL0     C65401   2.435   7.795   4.654 -0.0791 -0.4140 -0.1616
  496MOL0     C65402   2.583   7.789   4.659 -0.0155 -0.0128 -0.2134
  496MOL0     C65403   2.622   7.848   4.529 -0.3356  0.2491  0.2019
  496MOL0     C65404   2.674   7.883   4.421 -0.6066 -0.8139 -0.9256
  496MOL0     C65405   1.945   7.608   4.829  0.6080  0.4883 -0.5013
  496MOL0     C65406   1.811   7.597   4.783  0.0298  0.3627  0.0158
  496MOL0     H65407   1.396   7.398   4.830 -0.3970  0.7454  1.6620
  496MOL0     H65408   1.153   7.383   4.818 -0.2320  1.8248  1.6257
  496MOL0     H65409   0.929   7.528   4.817  0.3853 -0.0712 -0.5748
  496MOL0     H65410   0.911   7.350   4.782  2.0771 -0.2875 -0.9663
  496MOL0     H65411   0.713   7.452   4.609 -0.9440  1.5312 -0.5619
  496MOL0     H65412   0.775   7.590   4.697 -1.1078  0.3271 -3.3019
  496MOL0     H65413   0.566   7.490   4.769 -0.4468 -2.6326  0.8168
  496MOL0     H65414   0.687   7.503   4.905  2.6568 -0.1667 -0.4295
  496MOL0     H65415   0.619   7.266   4.745 -1.5436  0.6229 -0.0931
  496MOL0     H65416   0.718   7.254   4.896 -3.0517 -3.9136  2.2418
  496MOL0     H65417   0.418   7.334   4.868 -2.8970 -2.0208  1.9103
  496MOL0     H65418   0.508   7.333   5.013  0.4836  4.1496 -1.5696
  496MOL0     H65419   0.547   7.086   4.994  1.0542 -0.5319 -2.6267
  496MOL0     H65420   0.483   7.089   4.829  0.5531 -1.2499 -0.2041
  496MOL0     H65421   0.260   7.151   4.890 -0.6684 -2.8098 -1.0192
  496MOL0     H65422   0.315   7.007   4.960 -1.0250  0.3111  1.3827
  496MOL0     H65423   0.307   7.284   5.094 -3.5850  0.4891 -0.7419
  496MOL0     H65424   0.319   7.136   5.185 -1.1930 -0.5071 -0.0487
  496MOL0     H65425   0.055   7.011   4.968  3.0789 -0.0842  0.0572
  496MOL0     H65426  -0.243   6.964   5.161  0.5907 -0.9924 -0.0985
  496MOL0     H65427  -0.177   6.947   4.997 -0.0222  0.4083 -0.6926
  496MOL0     H65428  -0.286   7.179   4.961  1.1534 -1.9442 -1.1607
  496MOL0     H65429  -0.331   7.187   5.128 -0.0211  2.3348 -1.3252
  496MOL0     H65430  -0.434   6.971   4.933  1.0916  0.1365  0.4646
  496MOL0     H65431  -0.479   6.977   5.106  0.3529  2.1440  0.9644
  496MOL0     H65432  -0.508   7.200   4.893  1.2323 -1.6242 -1.2470
  496MOL0     H65433  -0.549   7.218   5.065 -1.2850  1.9048 -1.0779
  496MOL0     H65434  -0.914   7.009   4.875  0.8260 -0.3562  0.5624
  496MOL0     H65435  -1.126   7.106   4.957  0.7263 -3.2631 -1.7434
  496MOL0     H65436  -1.475   7.184   5.023 -1.3807 -0.7005  0.1187
  496MOL0     H65437  -1.697   7.261   5.081  0.4734  0.6459  2.4400
  496MOL0     H65438  -1.888   7.358   5.144  2.8085 -0.5868  1.6099
  496MOL0     H65439  -1.847   7.431   4.977 -0.4168  2.1309  0.0991
  496MOL0     H65440  -1.975   7.612   5.016  2.3828 -1.0728 -0.8814
  496MOL0     H65441  -1.993   7.592   5.184 -1.0228  0.1509 -1.3300
  496MOL0     H65442  -2.139   7.382   5.147 -1.2467  1.7867  1.0222
  496MOL0     H65443  -2.094   7.397   4.973  2.6193  0.4785  0.0949
  496MOL0     H65444  -2.229   7.622   5.116 -0.0318  1.5560 -1.4608
  496MOL0     H65445  -2.248   7.570   4.950 -1.2703 -0.0531 -0.1169
  496MOL0     H65446  -2.357   7.411   5.206 -0.1704 -0.9101 -0.7666
  496MOL0     H65447  -2.366   7.353   5.047 -0.7743 -0.2484 -0.1901
  496MOL0     H65448  -2.471   7.583   4.977  2.0998  0.3674 -0.0563
  496MOL0     H65449  -2.474   7.632   5.147  1.3546 -2.1505  0.8387
  496MOL0     H65450  -2.604   7.392   5.036  3.5122  2.4817 -3.2098
  496MOL0     H65451  -2.595   7.434   5.213  2.5660 -0.1730 -0.6675
  496MOL0     H65452  -2.813   7.505   5.160  0.9219 -3.9391 -1.2480
  496MOL0     H65453  -2.778   7.549   4.992  0.6824 -0.1757 -0.4681
  496MOL0     H65454  -1.526   7.642   5.195  1.2481  1.5177 -2.2417
  496MOL0     H65455  -1.310   7.555   5.180  2.9413 -1.3503 -2.4938
  496MOL0     H65456  -0.928   7.306   5.272 -7.6456 -1.6274  1.6692
  496MOL0     H65457  -0.713   7.201   5.206 -0.8697  1.6645 -0.0794
  496MOL0     H65458   1.138   7.619   4.467 -0.2373 -0.3820  0.7403
  496MOL0     H65459   1.376   7.665   4.481 -3.0158  0.3895 -0.9616
  496MOL0     H65460   1.873   7.604   4.443 -1.0617 -1.2296  1.2630
  496MOL0     H65461   2.111   7.615   4.536  2.8118  2.6778  3.6370
  496MOL0     H65462   2.222   7.726   4.935  1.5411 -0.6605  0.4025
  496MOL0     H65463   2.191   7.829   4.788 -0.4440  0.1004 -0.8311
  496MOL0     H65464   2.436   7.816   4.860 -1.2885  2.3638 -1.4265
  496MOL0     H65465   2.429   7.648   4.820 -2.1842 -0.8277  1.0479
  496MOL0     H65466   2.402   7.900   4.649  2.0156  0.2135 -2.4432
  496MOL0     H65467   2.390   7.728   4.581 -0.8374 -0.6456  0.5014
  496MOL0     H65468   2.624   7.856   4.736 -0.8567  1.0838 -0.6929
  496MOL0     H65469   2.630   7.691   4.670 -0.5645 -0.3200 -0.6041
  496MOL0     H65470   2.727   7.907   4.331 -0.6837 -1.1582 -1.0661
  496MOL0     H65471   1.961   7.593   4.936 -1.3471  0.9214 -0.1061
  496MOL0     H65472   1.736   7.574   4.859  2.4754 -0.9025  2.2065
  497MOL0     O65473   9.470   6.404   8.366  0.1946  0.7002  0.7037
  497MOL0     C65474   9.414   6.410   8.261  0.4854 -0.7409  0.5767
  497MOL0     O65475   9.479   6.421   8.137  0.1413  0.1537  0.0155
  497MOL0     C65476   9.611   6.444   8.144  0.4577  1.0470  0.1508
  497MOL0     C65477   9.698   6.336   8.162 -0.2542 -0.5990  0.0668
  497MOL0     C65478   9.841   6.360   8.168  0.1921  0.8145 -0.5884
  497MOL0     C65479   9.889   6.485   8.178 -0.6527  0.1853  0.4292
  497MOL0     O65480  10.027   6.499   8.181  0.2288  0.6787 -0.2407
  497MOL0     C65481  10.088   6.529   8.051 -0.1806  0.1052  0.7105
  497MOL0     C65482  10.218   6.449   8.025 -0.8120  0.2790  0.0848
  497MOL0     C65483  10.329   6.530   8.090 -0.2877 -0.4193 -0.4991
  497MOL0     C65484  10.450   6.444   8.098 -0.0696  0.2722 -0.7060
  497MOL0     C65485  10.581   6.528   8.112  0.1594  0.2737 -1.4256
  497MOL0     C65486  10.708   6.433   8.101 -0.0719  0.7733 -0.3332
  497MOL0     C65487  10.735   6.332   8.216  0.2347 -0.1605  0.0447
  497MOL0     C65488  10.871   6.261   8.189 -0.0687  0.1182 -0.2086
  497MOL0     N65489  10.912   6.199   8.309  0.6187  0.1015  1.0675
  497MOL0     C65490  10.985   6.258   8.408  0.7664 -0.5114  0.0596
  497MOL0     C65491  10.964   6.177   8.515 -0.2705 -0.2367  0.0656
  497MOL0     C65492  11.019   6.212   8.645 -0.4095 -0.3916  0.7030
  497MOL0     C65493  11.170   6.191   8.656 -0.8679 -0.4489  0.3528
  497MOL0     C65494  11.204   6.197   8.800  0.4422 -0.6863  0.2975
  497MOL0     C65495  11.353   6.215   8.824 -0.0286 -0.0929 -0.7170
  497MOL0     O65496  11.427   6.092   8.798  0.1587  0.7978  0.1973
  497MOL0     C65497  11.566   6.101   8.789  0.0516  0.1122 -0.3669
  497MOL0     C65498  11.650   6.022   8.869  0.7165  0.5214 -0.4156
  497MOL0     C65499  11.788   6.044   8.870  0.4751 -0.3272 -0.6152
  497MOL0     C65500  11.847   6.142   8.785  0.2567  0.8237  0.6064
  497MOL0     C65501  11.994   6.173   8.788 -0.1160  0.2176  0.4620
  497MOL0     O65502  12.075   6.118   8.887  0.1843  0.4102  0.3923
  497MOL0     C65503  12.198   6.168   8.922  0.4743 -0.2217  0.5713
  497MOL0     C65504  12.286   6.246   8.835 -0.1992 -0.3784  0.3631
  497MOL0     C65505  12.416   6.282   8.882  0.5479 -0.5449  0.4486
  497MOL0     C65506  12.452   6.255   9.017  0.0690 -0.4249  0.4029
  497MOL0     O65507  12.574   6.301   9.049  0.4556 -0.3067 -0.0167
  497MOL0     C65508  12.581   6.357   9.181  0.2792  0.1959  0.2208
  497MOL0     C65509  12.719   6.415   9.211  0.3003  0.6683  0.5452
  497MOL0     C65510  12.763   6.509   9.099  0.0624  0.6277  0.2686
  497MOL0     C65511  12.915   6.547   9.112  0.2821  0.2919  0.0255
  497MOL0     C65512  13.018   6.436   9.083 -0.3038 -0.8675  0.9506
  497MOL0     C65513  13.167   6.483   9.079  0.2931 -0.0464 -0.8836
  497MOL0     C65514  13.269   6.378   9.034  0.1660  0.4813  0.5629
  497MOL0     C65515  13.415   6.425   9.066 -0.3258  0.1762  0.3690
  497MOL0    Cl65516  13.460   6.395   9.242  0.1725  0.0682  0.0594
  497MOL0     C65517  12.373   6.179   9.098  0.3034 -0.2481 -0.2100
  497MOL0     C65518  12.252   6.134   9.048 -0.0016  0.1428  1.3920
  497MOL0     O65519  12.032   6.261   8.712 -0.4121 -0.0101  0.4665
  497MOL0     C65520  11.765   6.208   8.694  0.8912  0.4235 -0.8339
  497MOL0     C65521  11.624   6.185   8.687  0.8731  0.2424 -0.4818
  497MOL0     N65522  10.893   6.066   8.479 -0.4884  0.1025 -0.1509
  497MOL0     N65523  10.871   6.074   8.347 -0.8171 -0.5721  0.0272
  497MOL0     C65524   9.801   6.585   8.155 -0.7671 -0.4215 -0.3828
  497MOL0     C65525   9.667   6.572   8.130  0.2444 -0.0392  0.1825
  497MOL0     C65526   9.262   6.427   8.265  0.5379  0.5028 -0.4338
  497MOL0     C65527   9.199   6.448   8.387  0.7810 -1.3634  0.3608
  497MOL0     C65528   9.058   6.481   8.394 -0.3289 -0.2169 -0.1377
  497MOL0     C65529   8.984   6.481   8.281 -0.1819  0.0765  0.1831
  497MOL0     O65530   8.847   6.521   8.277 -0.4173 -0.1726 -1.0453
  497MOL0     C65531   8.756   6.502   8.384 -0.8357  0.4453  0.2256
  497MOL0     C65532   8.725   6.356   8.391 -1.0867 -0.0018  0.0486
  497MOL0     C65533   8.625   6.325   8.499 -0.3599 -0.2635  0.4283
  497MOL0     C65534   8.544   6.198   8.466 -0.1746  0.3607  0.2713
  497MOL0     C65535   8.434   6.209   8.557 -0.4802 -0.4188 -0.1719
  497MOL0     C65536   8.342   6.259   8.618 -0.2859  0.1125  0.1316
  497MOL0     C65537   9.046   6.442   8.160 -0.5514 -0.8766 -0.0596
  497MOL0     C65538   9.183   6.430   8.151  0.4000  0.1467  0.5166
  497MOL0     H65539   9.641   6.245   8.175 -2.0190  0.1552 -1.8412
  497MOL0     H65540   9.914   6.281   8.177 -0.7813 -0.1678 -1.1337
  497MOL0     H65541  10.092   6.637   8.034 -3.4759  0.2237  0.0607
  497MOL0     H65542  10.019   6.485   7.979  0.8132 -2.9859  1.5230
  497MOL0     H65543  10.240   6.436   7.919  1.3062 -0.3962  0.5607
  497MOL0     H65544  10.211   6.350   8.072  1.8434 -0.9786 -1.9224
  497MOL0     H65545  10.297   6.566   8.188  1.5990  1.3443 -0.4559
  497MOL0     H65546  10.355   6.605   8.015 -0.7372  0.4254  0.1705
  497MOL0     H65547  10.441   6.376   8.183 -0.6828 -0.4172 -1.3043
  497MOL0     H65548  10.458   6.385   8.006 -1.4565  2.6910 -2.5061
  497MOL0     H65549  10.584   6.568   8.214 -0.4574 -5.0081  0.9625
  497MOL0     H65550  10.588   6.595   8.025 -2.3113  1.9522 -0.4366
  497MOL0     H65551  10.801   6.490   8.088  2.8370 -3.4013  0.2446
  497MOL0     H65552  10.699   6.381   8.006 -2.6764  1.0296 -0.2831
  497MOL0     H65553  10.727   6.383   8.313 -0.8363 -2.4393  1.2233
  497MOL0     H65554  10.647   6.268   8.223 -0.2102 -0.0956 -3.3680
  497MOL0     H65555  10.945   6.339   8.166  0.1879 -0.3840 -1.1435
  497MOL0     H65556  10.874   6.189   8.107 -2.4151  1.0247 -1.1634
  497MOL0     H65557  11.046   6.348   8.409  0.6578 -0.4409  0.5236
  497MOL0     H65558  10.964   6.149   8.715  0.5482 -1.4170  0.5477
  497MOL0     H65559  10.997   6.318   8.662  1.2615  0.7260 -2.9826
  497MOL0     H65560  11.215   6.281   8.614 -0.1255  0.0112  2.0345
  497MOL0     H65561  11.220   6.101   8.618 -2.5835 -1.8645  1.3042
  497MOL0     H65562  11.161   6.286   8.848  0.4121 -1.0916  1.0242
  497MOL0     H65563  11.161   6.118   8.861  0.5988 -1.8179 -1.0219
  497MOL0     H65564  11.370   6.234   8.931 -0.5894 -0.5293 -0.5452
  497MOL0     H65565  11.385   6.307   8.774 -0.9798  2.1782  2.5110
  497MOL0     H65566  11.613   5.951   8.942  1.4173  0.0215 -0.5353
  497MOL0     H65567  11.850   5.979   8.931  3.6466  0.8996 -2.2898
  497MOL0     H65568  12.269   6.277   8.733 -1.5802 -1.2057  0.3071
  497MOL0     H65569  12.485   6.330   8.812  0.3145  0.8647  1.1362
  497MOL0     H65570  12.558   6.284   9.259 -0.8286 -0.3998 -0.6493
  497MOL0     H65571  12.511   6.441   9.185 -0.4351 -0.4166  0.6700
  497MOL0     H65572  12.778   6.323   9.202  2.9309  2.3642 -0.5486
  497MOL0     H65573  12.725   6.472   9.304  0.1959  0.9493  0.3806
  497MOL0     H65574  12.699   6.598   9.103 -0.6024  0.2183 -0.9070
  497MOL0     H65575  12.756   6.455   9.004  0.8777 -2.7152  1.9560
  497MOL0     H65576  12.936   6.630   9.043 -3.3887  0.5526 -1.0311
  497MOL0     H65577  12.916   6.584   9.215 -2.4844  0.4117  0.0969
  497MOL0     H65578  12.987   6.408   8.982  0.4791  0.2038  0.4013
  497MOL0     H65579  12.995   6.364   9.163 -1.9080 -0.4811  0.8813
  497MOL0     H65580  13.180   6.512   9.184 -4.2875 -1.2337  0.2391
  497MOL0     H65581  13.192   6.565   9.011 -0.8485  0.3122 -0.8895
  497MOL0     H65582  13.265   6.283   9.087  2.8616 -2.1446 -3.4253
  497MOL0     H65583  13.257   6.361   8.927  1.5778 -1.9995  0.7178
  497MOL0     H65584  13.422   6.530   9.037 -0.6660 -0.4632 -2.3010
  497MOL0     H65585  13.479   6.359   9.008  0.8677 -1.4491  3.3405
  497MOL0     H65586  12.392   6.170   9.204 -2.6075  0.2931  0.4342
  497MOL0     H65587  12.186   6.070   9.105  1.6128 -0.3188  2.8434
  497MOL0     H65588  11.809   6.272   8.618  0.0926 -0.2720 -1.9180
  497MOL0     H65589  11.570   6.225   8.602 -0.7148 -1.0000 -0.1020
  497MOL0     H65590   9.849   6.683   8.159 -0.2798 -0.6850  0.2314
  497MOL0     H65591   9.593   6.650   8.113  1.0613  0.3865 -1.5511
  497MOL0     H65592   9.255   6.443   8.480  0.6826  1.4999  0.6787
  497MOL0     H65593   9.015   6.501   8.492 -1.1734 -1.0266 -0.3178
  497MOL0     H65594   8.666   6.560   8.361 -0.6188  0.7145  0.0427
  497MOL0     H65595   8.810   6.538   8.472  0.5401  0.4963 -0.6047
  497MOL0     H65596   8.681   6.326   8.295 -2.9340  0.0284  0.8589
  497MOL0     H65597   8.812   6.293   8.415 -1.0364  1.0007  2.8421
  497MOL0     H65598   8.564   6.416   8.503 -0.1860  0.1263 -2.7401
  497MOL0     H65599   8.675   6.315   8.595  1.9640 -3.1662 -0.9191
  497MOL0     H65600   8.503   6.205   8.364  2.8721  4.0999 -0.9417
  497MOL0     H65601   8.598   6.103   8.477  0.9975  0.9072 -0.4969
  497MOL0     H65602   8.263   6.294   8.682  2.0211  2.1520  2.0773
  497MOL0     H65603   8.982   6.434   8.073  0.2585  0.7586 -0.8453
  497MOL0     H65604   9.229   6.412   8.055 -1.6898  2.9369 -1.1464
  498MOL0     O65605   2.848   1.216   3.310 -0.1359 -0.1365  0.4538
  498MOL0     C65606   2.872   1.119   3.379 -0.4305  0.0820 -0.1186
  498MOL0     O65607   2.779   1.046   3.441  1.1286  0.7225 -0.3972
  498MOL0     C65608   2.645   1.067   3.406 -0.3524  0.6017  0.0181
  498MOL0     C65609   2.557   1.111   3.498  0.0445  0.2611  0.4241
  498MOL0     C65610   2.426   1.124   3.474 -1.0164 -0.2883  0.5067
  498MOL0     C65611   2.374   1.083   3.344  0.4952  0.0916  1.0872
  498MOL0     O65612   2.235   1.081   3.323  0.5381 -0.6244 -0.4113
  498MOL0     C65613   2.150   1.103   3.442  0.1125  0.5245 -0.5206
  498MOL0     C65614   1.996   1.074   3.429 -0.4661  0.1723 -0.6420
  498MOL0     C65615   1.916   1.124   3.551 -0.0082 -0.4862 -0.3773
  498MOL0     C65616   1.766   1.088   3.536  0.6661 -0.1696 -0.3364
  498MOL0     C65617   1.657   1.176   3.616 -0.0851 -0.4433  0.1812
  498MOL0     C65618   1.522   1.098   3.619  0.3164 -0.7072 -0.1757
  498MOL0     C65619   1.415   1.196   3.679  0.4800 -0.1792  0.3994
  498MOL0     C65620   1.271   1.156   3.643  0.8419 -0.3213 -0.4480
  498MOL0     N65621   1.253   1.011   3.659  0.3433 -0.1627 -0.6047
  498MOL0     C65622   1.209   0.938   3.774 -0.1907  0.2311 -0.4152
  498MOL0     C65623   1.192   0.817   3.731  0.0985  0.6561  0.1945
  498MOL0     C65624   1.147   0.699   3.800 -0.1745  0.0645  0.0689
  498MOL0     C65625   0.992   0.669   3.798  0.7898 -0.8258  0.7728
  498MOL0     C65626   0.921   0.690   3.667 -0.3745 -0.7166  0.8556
  498MOL0     C65627   0.789   0.624   3.662 -0.0755 -0.3041  0.1205
  498MOL0     O65628   0.715   0.644   3.539 -0.1606  0.7123 -0.4722
  498MOL0     C65629   0.597   0.581   3.527  0.5715 -0.3690 -0.8557
  498MOL0     C65630   0.554   0.516   3.413  0.2024  0.4256 -0.1111
  498MOL0     C65631   0.429   0.449   3.402 -0.5581  0.4881  0.1581
  498MOL0     C65632   0.341   0.454   3.506 -0.3750  0.6419 -0.9730
  498MOL0     C65633   0.212   0.377   3.506  0.4518 -0.1976 -0.2881
  498MOL0     O65634   0.149   0.382   3.389 -0.3546 -0.0990  0.5408
  498MOL0     C65635   0.025   0.325   3.375 -0.3353 -0.4622  0.0475
  498MOL0     C65636  -0.062   0.386   3.284  0.3675  0.5326 -0.4174
  498MOL0     C65637  -0.187   0.337   3.262  0.2723  0.9137 -0.0052
  498MOL0     C65638  -0.237   0.230   3.330  0.6619  0.3309  0.5950
  498MOL0     O65639  -0.368   0.190   3.309 -0.0250  0.0971 -0.0372
  498MOL0     C65640  -0.424   0.109   3.416 -0.0938  0.2653 -0.7438
  498MOL0     C65641  -0.567   0.088   3.385 -0.9997  0.3063  0.8735
  498MOL0     C65642  -0.654   0.123   3.511 -1.0217  0.3986 -0.3118
  498MOL0     C65643  -0.801   0.134   3.485  0.2519 -0.3139  0.0254
  498MOL0     C65644  -0.850   0.022   3.394 -0.4169  0.2010  0.8112
  498MOL0     C65645  -0.997   0.027   3.394 -0.5349  0.6627  0.5981
  498MOL0     C65646  -1.075  -0.086   3.322  0.6892  0.8228 -0.5416
  498MOL0     C65647  -1.010  -0.228   3.316  0.1819 -0.3314 -0.1225
  498MOL0    Cl65648  -0.986  -0.305   3.479 -0.0982 -0.0912  0.0531
  498MOL0     C65649  -0.146   0.160   3.412 -0.4872  0.3419  0.0819
  498MOL0     C65650  -0.011   0.205   3.432 -0.0305 -0.5860  0.2752
  498MOL0     O65651   0.150   0.361   3.612  0.5030  0.2112 -0.4415
  498MOL0     C65652   0.371   0.533   3.619 -0.0987  0.5994 -0.0905
  498MOL0     C65653   0.493   0.597   3.629  0.0036  0.4947 -0.4179
  498MOL0     N65654   1.215   0.817   3.599 -0.3336  0.7419 -0.3855
  498MOL0     N65655   1.264   0.919   3.560  0.2077 -0.0056  0.5794
  498MOL0     C65656   2.466   1.050   3.239  0.0575  0.7614 -0.8687
  498MOL0     C65657   2.598   1.036   3.281  0.1669 -0.6352  0.5778
  498MOL0     C65658   3.020   1.086   3.396 -0.4524 -0.8932 -0.8901
  498MOL0     C65659   3.123   1.174   3.366 -0.2574  0.1175  0.9022
  498MOL0     C65660   3.259   1.156   3.403 -0.5991 -0.1263  0.8115
  498MOL0     C65661   3.304   1.038   3.457  1.0128  1.0963 -0.5639
  498MOL0     O65662   3.427   0.997   3.498 -0.7433 -0.2460 -0.3024
  498MOL0     C65663   3.539   1.086   3.457  0.9615 -0.2298 -0.7788
  498MOL0     C65664   3.667   1.001   3.462 -0.8913  0.5793  0.7299
  498MOL0     C65665   3.775   1.080   3.388 -0.2766  0.9108  0.0501
  498MOL0     C65666   3.918   1.026   3.422 -0.1635 -0.7561 -0.3607
  498MOL0     C65667   4.020   1.128   3.418 -0.3352  0.0564 -0.2410
  498MOL0     C65668   4.083   1.230   3.409 -0.1649  0.1334 -0.2746
  498MOL0     C65669   3.204   0.937   3.472 -0.3966  0.4089 -0.9644
  498MOL0     C65670   3.067   0.967   3.458 -0.4338  1.0224 -0.8808
  498MOL0     H65671   2.595   1.151   3.592  0.8238  1.5942 -0.4321
  498MOL0     H65672   2.359   1.164   3.549  0.6710 -0.1827  2.0356
  498MOL0     H65673   2.163   1.205   3.479 -1.1565 -0.5392  3.2749
  498MOL0     H65674   2.193   1.044   3.523 -1.0722  1.1177  0.5736
  498MOL0     H65675   1.982   0.967   3.408  1.8503 -0.3197  0.0062
  498MOL0     H65676   1.965   1.138   3.346 -3.9472 -0.1460  0.2628
  498MOL0     H65677   1.939   1.231   3.550  0.0279 -0.4940 -0.4065
  498MOL0     H65678   1.953   1.081   3.644  0.0687  0.8710  0.2444
  498MOL0     H65679   1.737   1.101   3.431 -0.3414  3.1317  0.2326
  498MOL0     H65680   1.745   0.984   3.559  2.0962 -0.7410 -1.4425
  498MOL0     H65681   1.639   1.266   3.556 -1.8128 -1.9000 -1.6388
  498MOL0     H65682   1.686   1.207   3.716 -0.3908 -0.8397  0.3959
  498MOL0     H65683   1.525   1.007   3.680  0.9286 -2.3080 -2.4631
  498MOL0     H65684   1.474   1.064   3.527 -1.3464  0.9407  0.0181
  498MOL0     H65685   1.423   1.189   3.788 -2.1541  2.3472  0.8870
  498MOL0     H65686   1.420   1.302   3.652 -0.3394  0.1843  1.5912
  498MOL0     H65687   1.272   1.182   3.536  3.9050 -1.4238 -0.7752
  498MOL0     H65688   1.204   1.214   3.707  1.8645  0.0856  0.2748
  498MOL0     H65689   1.194   0.982   3.872 -2.6413 -1.4778  0.0744
  498MOL0     H65690   1.171   0.701   3.907 -0.4367 -1.6190  0.1848
  498MOL0     H65691   1.195   0.614   3.750 -0.5822  0.6582 -1.3779
  498MOL0     H65692   0.960   0.736   3.878  0.3490 -0.5646  0.3799
  498MOL0     H65693   0.971   0.573   3.847  1.0112 -1.2072  0.1384
  498MOL0     H65694   0.913   0.799   3.654  2.1008 -0.7903 -2.8571
  498MOL0     H65695   0.981   0.650   3.585  0.2721 -3.0376  2.3855
  498MOL0     H65696   0.738   0.665   3.750 -0.9095  1.9332 -1.3275
  498MOL0     H65697   0.815   0.518   3.670 -0.5074 -0.2960  2.2293
  498MOL0     H65698   0.635   0.518   3.340 -0.7534 -1.4126 -1.3034
  498MOL0     H65699   0.411   0.393   3.311 -3.8120  0.7578  0.5061
  498MOL0     H65700  -0.043   0.476   3.227  0.2075  0.0954 -1.1783
  498MOL0     H65701  -0.243   0.401   3.195  1.1192  0.5355 -1.1075
  498MOL0     H65702  -0.420   0.162   3.512  0.8447 -1.6335  0.3140
  498MOL0     H65703  -0.368   0.019   3.443 -2.3655 -0.1074  3.7375
  498MOL0     H65704  -0.583  -0.017   3.361  0.6667 -0.2097  1.8293
  498MOL0     H65705  -0.602   0.150   3.302 -1.1258 -0.0259  0.6772
  498MOL0     H65706  -0.619   0.217   3.554  0.6734 -1.3285  2.3962
  498MOL0     H65707  -0.638   0.054   3.595  0.2544  2.2706  1.0642
  498MOL0     H65708  -0.859   0.148   3.576 -2.6365 -0.4917 -1.6689
  498MOL0     H65709  -0.809   0.223   3.422 -0.6590 -2.7882 -3.7311
  498MOL0     H65710  -0.801  -0.070   3.429  2.6683  1.3211 -0.2323
  498MOL0     H65711  -0.813   0.038   3.292  2.1784 -2.6185  1.1681
  498MOL0     H65712  -1.031   0.121   3.350 -0.1603 -0.0381 -1.3335
  498MOL0     H65713  -1.036   0.026   3.496 -0.5331 -1.1035  0.6156
  498MOL0     H65714  -1.176  -0.086   3.363 -0.8913  3.2039 -3.9414
  498MOL0     H65715  -1.102  -0.051   3.222 -2.8229 -3.2800 -1.3135
  498MOL0     H65716  -0.914  -0.225   3.264  1.6071 -3.4813  2.0657
  498MOL0     H65717  -1.079  -0.293   3.262 -1.7957  3.4070 -2.5196
  498MOL0     H65718  -0.168   0.067   3.463  0.0562  1.6899  3.0656
  498MOL0     H65719   0.068   0.157   3.489  0.6744 -2.5000 -2.1414
  498MOL0     H65720   0.297   0.542   3.699  1.3854  2.0558  1.1921
  498MOL0     H65721   0.509   0.646   3.725 -1.2743  0.3159 -0.0957
  498MOL0     H65722   2.444   1.002   3.144  0.0579 -0.3248 -0.3321
  498MOL0     H65723   2.676   1.002   3.214  1.4266  1.3331  0.9752
  498MOL0     H65724   3.104   1.259   3.302  1.5310 -0.7851 -0.9511
  498MOL0     H65725   3.330   1.236   3.380 -0.0186 -0.2512  2.0702
  498MOL0     H65726   3.559   1.172   3.521  2.8401 -0.8971 -0.4188
  498MOL0     H65727   3.513   1.112   3.354 -1.4650 -2.0416 -0.7297
  498MOL0     H65728   3.693   0.976   3.566  1.8461 -0.2245 -0.0552
  498MOL0     H65729   3.643   0.906   3.413 -0.5372  2.1341 -2.7504
  498MOL0     H65730   3.766   1.188   3.406 -1.5855  0.3492  3.5149
  498MOL0     H65731   3.755   1.062   3.282 -2.2446  1.4905  0.2698
  498MOL0     H65732   3.922   0.991   3.526 -0.0733  3.7489  1.4113
  498MOL0     H65733   3.936   0.937   3.361  4.4454 -0.5916  0.4085
  498MOL0     H65734   4.150   1.313   3.406 -0.4013  0.3069 -1.0090
  498MOL0     H65735   3.229   0.845   3.524  2.8164  2.6221  1.8718
  498MOL0     H65736   3.007   0.880   3.484  0.4725  0.1548 -1.6094
  499MOL0     O65737  10.841  10.538   8.449  0.5447 -0.2374  0.2166
  499MOL0     C65738  10.879  10.608   8.542 -0.2398 -0.4809  0.1131
  499MOL0     O65739  10.810  10.619   8.656  0.1335 -1.2286  0.7820
  499MOL0     C65740  10.679  10.561   8.662  0.9494 -0.3159  0.3813
  499MOL0     C65741  10.573  10.648   8.642  0.3985  0.0061 -0.5327
  499MOL0     C65742  10.447  10.597   8.657 -0.0682 -0.0139 -0.7942
  499MOL0     C65743  10.424  10.460   8.684 -0.1775  0.2324 -0.8006
  499MOL0     O65744  10.298  10.428   8.722  0.6422 -0.1939 -0.8800
  499MOL0     C65745  10.276  10.302   8.794  0.3360 -0.2644 -0.5035
  499MOL0     C65746  10.128  10.269   8.821  0.3956  0.0189  0.2954
  499MOL0     C65747  10.058  10.385   8.893 -0.0470 -0.8085 -0.1568
  499MOL0     C65748   9.902  10.389   8.881  0.5376 -0.2245 -0.1724
  499MOL0     C65749   9.823  10.471   8.983  0.2047 -0.1984  0.5860
  499MOL0     C65750   9.674  10.422   8.983 -0.1345 -1.3164  0.6370
  499MOL0     C65751   9.573  10.477   9.081  0.3187  0.3993  0.6655
  499MOL0     C65752   9.621  10.499   9.232  0.3592  1.4006 -0.6242
  499MOL0     N65753   9.629  10.364   9.300 -0.1295 -0.1815  0.3469
  499MOL0     C65754   9.525  10.290   9.335  0.6084  0.3112 -0.9226
  499MOL0     C65755   9.584  10.181   9.387  0.5087 -0.2610 -0.2497
  499MOL0     C65756   9.501  10.064   9.417 -0.0166 -1.3552  0.1698
  499MOL0     C65757   9.555   9.922   9.390 -0.4908 -1.1137 -0.8027
  499MOL0     C65758   9.507   9.829   9.499 -0.2932  0.2267 -0.0149
  499MOL0     C65759   9.348   9.835   9.516 -0.0206  0.8627  0.1568
  499MOL0     O65760   9.305   9.897   9.640 -0.1194  0.2473  0.2614
  499MOL0     C65761   9.173   9.936   9.642  0.5819 -0.1730 -0.3284
  499MOL0     C65762   9.071   9.881   9.569  0.5295  0.1611 -0.5869
  499MOL0     C65763   8.933   9.916   9.600 -0.2658  0.7347  0.6746
  499MOL0     C65764   8.902   9.998   9.701  0.1487 -0.2150 -1.2344
  499MOL0     C65765   8.754  10.030   9.731 -0.7178  0.0818 -0.8786
  499MOL0     O65766   8.665  10.006   9.631  0.6035  0.9763 -0.1593
  499MOL0     C65767   8.528  10.020   9.645 -0.4445 -0.0961 -1.0372
  499MOL0     C65768   8.446   9.916   9.604 -0.5980 -0.5476  0.7799
  499MOL0     C65769   8.312   9.929   9.597  0.0372 -0.2754 -0.4616
  499MOL0     C65770   8.255  10.056   9.642  0.2950 -0.3953 -1.1663
  499MOL0     O65771   8.119  10.086   9.626  0.5710 -0.4590 -0.1117
  499MOL0     C65772   8.049  10.139   9.734 -0.9639 -0.0003 -0.2040
  499MOL0     C65773   7.896  10.099   9.723 -0.1996 -1.1862  0.0481
  499MOL0     C65774   7.879   9.949   9.739  0.2604  0.8385 -0.4990
  499MOL0     C65775   7.749   9.905   9.792  0.8115  0.4057  0.1447
  499MOL0     C65776   7.630   9.918   9.700 -0.8704 -0.7876 -1.1234
  499MOL0     C65777   7.504   9.855   9.739  0.1033  0.3812  0.0446
  499MOL0     C65778   7.388   9.863   9.640  0.0975 -0.0771  0.4920
  499MOL0     C65779   7.257   9.806   9.684 -0.4659 -0.2352 -0.6089
  499MOL0    Cl65780   7.161   9.772   9.539  0.1792 -0.0565  0.3970
  499MOL0     C65781   8.336  10.160   9.682 -0.6545  0.4599  0.4687
  499MOL0     C65782   8.475  10.140   9.691 -0.5687  0.1697 -0.7436
  499MOL0     O65783   8.723  10.086   9.840 -0.2902  0.5852 -0.1350
  499MOL0     C65784   9.011  10.050   9.776  0.4933 -0.1207 -0.3008
  499MOL0     C65785   9.147  10.027   9.740  0.4651 -0.3901  0.7657
  499MOL0     N65786   9.723  10.194   9.387  0.4274 -0.6352  0.4223
  499MOL0     N65787   9.747  10.298   9.319 -0.6076  0.0969  0.8496
  499MOL0     C65788  10.535  10.375   8.689  0.5646 -0.4004 -0.6528
  499MOL0     C65789  10.662  10.422   8.683 -0.1994  0.1515  0.0076
  499MOL0     C65790  11.021  10.658   8.542 -0.0739  0.1070 -0.0752
  499MOL0     C65791  11.098  10.641   8.428  0.1536  0.0483 -0.0944
  499MOL0     C65792  11.234  10.683   8.426 -0.2742 -0.7709 -0.1917
  499MOL0     C65793  11.293  10.749   8.536  0.1090 -0.3066  0.1766
  499MOL0     O65794  11.421  10.798   8.518 -0.6389 -0.1353 -0.3131
  499MOL0     C65795  11.480  10.875   8.624  0.1033  0.5169 -0.2680
  499MOL0     C65796  11.616  10.824   8.675  0.2022  0.7220 -0.0679
  499MOL0     C65797  11.614  10.690   8.741  0.5957  0.0665 -0.6424
  499MOL0     C65798  11.549  10.695   8.874 -0.2720  0.2570 -0.0011
  499MOL0     C65799  11.527  10.559   8.915  0.9098  0.1454 -0.1533
  499MOL0     C65800  11.511  10.452   8.946  1.0734 -0.6678 -0.1260
  499MOL0     C65801  11.215  10.754   8.656 -0.4950 -0.3650  0.0301
  499MOL0     C65802  11.078  10.710   8.656  0.6022 -0.0355 -0.2041
  499MOL0     H65803  10.583  10.755   8.627 -1.5999  0.2723 -0.2237
  499MOL0     H65804  10.359  10.659   8.658  0.8864  1.4034  0.5632
  499MOL0     H65805  10.334  10.296   8.887 -2.3116  0.1224  1.2982
  499MOL0     H65806  10.314  10.213   8.745  0.5324 -0.2563 -0.3691
  499MOL0     H65807  10.134  10.174   8.875 -0.3636 -0.1993  0.0053
  499MOL0     H65808  10.070  10.240   8.733  0.2058  0.2098  0.3576
  499MOL0     H65809  10.096  10.485   8.869  1.2331 -1.3752 -0.5734
  499MOL0     H65810  10.087  10.372   8.997  1.1028  0.7189 -0.2473
  499MOL0     H65811   9.875  10.426   8.782 -0.1104 -0.4944 -0.1039
  499MOL0     H65812   9.876  10.283   8.887  0.2487 -0.0925  1.1243
  499MOL0     H65813   9.826  10.578   8.962  2.9333 -0.4798 -0.9232
  499MOL0     H65814   9.871  10.457   9.081  0.0093 -1.0628  0.5631
  499MOL0     H65815   9.676  10.314   9.000  1.9017 -1.3890  0.1123
  499MOL0     H65816   9.635  10.431   8.881 -2.1672 -1.2122  1.3592
  499MOL0     H65817   9.521  10.566   9.045 -1.5929  0.8060  3.9584
  499MOL0     H65818   9.492  10.403   9.074  0.0782  0.7539 -0.4395
  499MOL0     H65819   9.554  10.561   9.292  0.9359  0.6033  0.9137
  499MOL0     H65820   9.717  10.551   9.243  1.0447 -0.1664  1.8937
  499MOL0     H65821   9.418  10.299   9.317  0.1483 -0.0063  1.2880
  499MOL0     H65822   9.406  10.085   9.367  0.0260 -0.2969  0.5200
  499MOL0     H65823   9.471  10.066   9.522 -4.8340  3.1916 -0.8366
  499MOL0     H65824   9.663   9.916   9.408 -0.6314 -0.0624  0.5898
  499MOL0     H65825   9.534   9.882   9.290 -0.7731 -2.1745 -0.3366
  499MOL0     H65826   9.546   9.731   9.469  0.4219  0.8891 -1.3516
  499MOL0     H65827   9.563   9.846   9.591  0.7178  1.8828 -0.8784
  499MOL0     H65828   9.303   9.736   9.526  0.7833  0.4636 -0.1857
  499MOL0     H65829   9.302   9.888   9.433  1.4837 -1.0873 -2.0302
  499MOL0     H65830   9.071   9.801   9.495 -0.3123 -0.2185 -0.1975
  499MOL0     H65831   8.850   9.861   9.556  0.7431 -0.0609 -0.2975
  499MOL0     H65832   8.496   9.825   9.571 -1.2716 -0.6046 -0.1076
  499MOL0     H65833   8.244   9.854   9.558  0.5845 -0.0379 -1.9249
  499MOL0     H65834   8.050  10.248   9.720  0.2480  0.1076  0.5266
  499MOL0     H65835   8.105  10.115   9.825  0.1347  2.5978 -0.0879
  499MOL0     H65836   7.871  10.128   9.620 -0.1465 -1.5634 -0.0734
  499MOL0     H65837   7.835  10.150   9.798  1.7143  1.2779  0.0723
  499MOL0     H65838   7.950   9.936   9.821  0.5984 -1.1044 -1.0424
  499MOL0     H65839   7.901   9.889   9.650 -3.7197 -3.9856  1.2715
  499MOL0     H65840   7.760   9.800   9.818 -0.5034  0.0184 -0.7757
  499MOL0     H65841   7.733   9.965   9.882  0.8600  1.2988 -0.4274
  499MOL0     H65842   7.650   9.876   9.601  4.7266  0.0380 -0.6380
  499MOL0     H65843   7.624  10.025   9.677  4.7457 -0.2186 -1.3580
  499MOL0     H65844   7.485   9.883   9.843  0.8427 -1.5248  0.7388
  499MOL0     H65845   7.533   9.751   9.753 -0.7537  0.1172 -0.0491
  499MOL0     H65846   7.361   9.964   9.608  1.1415  0.0464 -0.0429
  499MOL0     H65847   7.427   9.804   9.557  0.3807 -3.0153  2.5590
  499MOL0     H65848   7.210   9.873   9.758  0.8368  0.4907 -0.4044
  499MOL0     H65849   7.284   9.722   9.748  0.8335  0.0819 -0.7246
  499MOL0     H65850   8.294  10.257   9.707  2.3819  1.3189  2.8631
  499MOL0     H65851   8.539  10.224   9.718 -0.4628  0.8718 -2.9590
  499MOL0     H65852   8.991  10.108   9.866  3.9244 -1.6245  1.6412
  499MOL0     H65853   9.229  10.077   9.791 -0.2647  0.3217  1.2583
  499MOL0     H65854  10.522  10.269   8.710 -1.0689 -0.1316 -0.1682
  499MOL0     H65855  10.753  10.362   8.678 -0.0281  0.5251 -1.8511
  499MOL0     H65856  11.060  10.601   8.334 -1.5862  2.4348 -0.4899
  499MOL0     H65857  11.276  10.685   8.326  1.9158 -0.6647  0.6830
  499MOL0     H65858  11.421  10.894   8.714  2.1980 -0.2639  1.3481
  499MOL0     H65859  11.491  10.979   8.593 -0.3299  0.6807  0.1179
  499MOL0     H65860  11.685  10.806   8.592  0.0724 -1.2116  0.2065
  499MOL0     H65861  11.658  10.892   8.750  0.7525 -0.8783  1.1302
  499MOL0     H65862  11.717  10.653   8.744 -0.2039 -2.4482 -1.4345
  499MOL0     H65863  11.552  10.627   8.677 -2.6757  2.1151  0.2515
  499MOL0     H65864  11.620  10.739   8.944  0.1446  2.2292 -1.5792
  499MOL0     H65865  11.454  10.750   8.873  1.1462  2.8611 -1.6946
  499MOL0     H65866  11.504  10.349   8.975  0.5381 -0.9888 -1.3359
  499MOL0     H65867  11.254  10.798   8.748  0.5345 -0.4778 -0.3397
  499MOL0     H65868  11.017  10.731   8.744  1.2644 -2.0417  0.7874
  500MOL0     O65869   6.073   9.424   7.443 -0.0610  0.8445 -0.2792
  500MOL0     C65870   6.076   9.320   7.382  0.3236 -0.0945 -1.1509
  500MOL0     O65871   5.964   9.250   7.322 -0.0431 -0.7689  0.2334
  500MOL0     C65872   5.839   9.303   7.323 -0.2267  0.3720  0.1833
  500MOL0     C65873   5.788   9.409   7.403  0.1189 -1.2814  0.2784
  500MOL0     C65874   5.652   9.452   7.391  0.1266  0.4096  0.1457
  500MOL0     C65875   5.567   9.394   7.297 -0.4228  0.7244 -0.0313
  500MOL0     O65876   5.445   9.449   7.271  0.8041  0.3499 -0.4616
  500MOL0     C65877   5.331   9.362   7.267  0.6061 -0.6112 -0.6030
  500MOL0     C65878   5.216   9.433   7.191 -0.2390 -0.1557  0.4387
  500MOL0     C65879   5.081   9.360   7.216 -0.7830  0.3584 -0.2964
  500MOL0     C65880   4.968   9.440   7.156  0.5539  0.3401  0.3062
  500MOL0     C65881   4.837   9.358   7.111 -0.0455 -1.2275  0.3976
  500MOL0     C65882   4.720   9.456   7.088  0.4514 -0.0554  0.9193
  500MOL0     C65883   4.577   9.394   7.100  0.3310 -0.2349 -0.9962
  500MOL0     C65884   4.545   9.333   7.240 -0.3326 -0.1514 -0.1607
  500MOL0     N65885   4.407   9.299   7.247  0.4855  0.6719 -0.1334
  500MOL0     C65886   4.363   9.169   7.276 -0.1220 -0.3875  0.2755
  500MOL0     C65887   4.224   9.180   7.268 -0.5036 -0.7489  1.4227
  500MOL0     C65888   4.119   9.077   7.295  0.5279  0.4337  0.3001
  500MOL0     C65889   4.014   9.106   7.394  1.1540  0.1563 -0.1919
  500MOL0     C65890   4.050   9.178   7.525  0.2212 -0.9293 -0.0966
  500MOL0     C65891   3.930   9.191   7.616  0.0939 -0.0269  0.3197
  500MOL0     O65892   3.857   9.313   7.582 -0.0215 -1.1431 -0.0976
  500MOL0     C65893   3.744   9.344   7.657 -0.2067 -0.3311 -0.7130
  500MOL0     C65894   3.691   9.260   7.757 -0.6711  0.2595 -0.5383
  500MOL0     C65895   3.574   9.282   7.830 -0.1847 -0.1828  0.0384
  500MOL0     C65896   3.507   9.405   7.805 -0.0399 -0.2561 -0.4120
  500MOL0     C65897   3.386   9.441   7.891  0.8463 -0.2241  0.1611
  500MOL0     O65898   3.331   9.346   7.980  0.6137 -0.2220  0.7399
  500MOL0     C65899   3.211   9.379   8.038 -0.2481  0.1087  0.1749
  500MOL0     C65900   3.091   9.334   7.987  0.6832 -0.1784 -0.3358
  500MOL0     C65901   2.969   9.367   8.040  0.3562 -0.5385  0.1167
  500MOL0     C65902   2.966   9.461   8.149  0.4505  0.0109  1.0298
  500MOL0     O65903   2.845   9.508   8.209 -0.1531  0.0634 -1.2252
  500MOL0     C65904   2.711   9.473   8.161 -0.6280  0.4104 -0.1612
  500MOL0     C65905   2.616   9.567   8.229 -0.5453  0.1707  0.4278
  500MOL0     C65906   2.486   9.580   8.144 -0.5964  0.1064 -0.9289
  500MOL0     C65907   2.402   9.450   8.140  0.1119  0.1998  0.3343
  500MOL0     C65908   2.283   9.458   8.042  0.6192 -0.7278 -0.8477
  500MOL0     C65909   2.174   9.350   8.061 -0.2133  0.1826  0.1933
  500MOL0     C65910   2.050   9.373   7.973 -0.9884  0.3658 -1.2898
  500MOL0     C65911   1.919   9.327   8.036 -0.3734  0.2806  0.0220
  500MOL0    Cl65912   1.779   9.386   7.935  0.2587 -0.2701 -0.2880
  500MOL0     C65913   3.089   9.501   8.206 -0.3976 -1.2373  0.9086
  500MOL0     C65914   3.214   9.459   8.148 -0.4286 -0.2699  0.0473
  500MOL0     O65915   3.333   9.545   7.864 -0.0595 -0.9243 -0.2557
  500MOL0     C65916   3.559   9.491   7.716 -0.4684  0.8900  0.3895
  500MOL0     C65917   3.674   9.463   7.640  0.6586  0.1590  0.4274
  500MOL0     N65918   4.194   9.304   7.226  0.6839  0.6931  0.1598
  500MOL0     N65919   4.299   9.373   7.222  0.4851  0.6318  0.7300
  500MOL0     C65920   5.618   9.274   7.232  0.4552  0.5009 -0.3504
  500MOL0     C65921   5.747   9.230   7.244 -0.6841  0.2123 -0.3906
  500MOL0     C65922   6.207   9.261   7.362 -0.0285 -0.5480  0.8640
  500MOL0     C65923   6.217   9.139   7.293  0.0715 -0.2653 -0.2119
  500MOL0     C65924   6.334   9.081   7.264  0.6328  0.2227  0.4395
  500MOL0     C65925   6.458   9.132   7.319 -0.1890  0.1381 -0.6202
  500MOL0     O65926   6.584   9.084   7.315 -0.6045 -0.1417 -0.5628
  500MOL0     C65927   6.613   8.959   7.248  0.1480  0.2454  0.5614
  500MOL0     C65928   6.647   8.981   7.098 -0.4128 -0.3670  0.3157
  500MOL0     C65929   6.774   9.068   7.062  0.2236 -0.2245 -0.9620
  500MOL0     C65930   6.894   9.048   7.141  0.3905  0.9715 -0.8089
  500MOL0     C65931   6.989   9.159   7.115 -0.3694  0.5012  0.0351
  500MOL0     C65932   7.075   9.233   7.085 -0.2854  0.2033  0.0653
  500MOL0     C65933   6.445   9.254   7.383  0.6238  0.4514 -0.1859
  500MOL0     C65934   6.318   9.311   7.418 -1.8543  0.6682  0.4949
  500MOL0     H65935   5.843   9.469   7.474 -2.2774  0.4401  0.8389
  500MOL0     H65936   5.613   9.520   7.466  1.6535 -1.0274  2.3565
  500MOL0     H65937   5.306   9.344   7.372 -3.9899 -0.7708 -1.5091
  500MOL0     H65938   5.346   9.265   7.220 -2.2482 -0.4822 -1.9647
  500MOL0     H65939   5.242   9.423   7.086 -1.1777 -0.0383  0.1860
  500MOL0     H65940   5.224   9.537   7.225  0.2977 -1.8358  6.8326
  500MOL0     H65941   5.056   9.345   7.321  0.9167  0.1576  0.1050
  500MOL0     H65942   5.095   9.268   7.159  6.2994  1.0885 -0.6813
  500MOL0     H65943   4.949   9.521   7.228  4.9946  2.3994 -0.4499
  500MOL0     H65944   5.014   9.495   7.073  0.4669 -2.0165 -1.3816
  500MOL0     H65945   4.810   9.292   7.194  1.4462  0.4039  2.2956
  500MOL0     H65946   4.857   9.290   7.028 -1.3034 -0.8208 -0.2639
  500MOL0     H65947   4.738   9.494   6.987 -0.9020 -3.2007 -0.6234
  500MOL0     H65948   4.722   9.546   7.150  1.3592 -0.2467  1.1863
  500MOL0     H65949   4.499   9.468   7.083  0.4544  0.1096 -0.0955
  500MOL0     H65950   4.563   9.308   7.033 -0.3608 -1.1930  0.3295
  500MOL0     H65951   4.561   9.402   7.323  1.3440 -0.5270 -0.1451
  500MOL0     H65952   4.607   9.247   7.266  2.7525  1.7505 -0.7114
  500MOL0     H65953   4.424   9.085   7.307  0.8472 -0.9272 -2.7739
  500MOL0     H65954   4.159   8.979   7.321 -0.1104  0.3850  1.1715
  500MOL0     H65955   4.075   9.062   7.196  1.6589 -0.6794 -0.0504
  500MOL0     H65956   3.957   9.015   7.412 -1.8520  2.1982  1.4298
  500MOL0     H65957   3.946   9.177   7.347  1.9683 -0.2741 -2.1299
  500MOL0     H65958   4.133   9.122   7.568  0.3561  0.1949  1.1429
  500MOL0     H65959   4.088   9.278   7.500 -0.4891 -0.7164 -0.3647
  500MOL0     H65960   3.958   9.194   7.722  1.1857 -0.6117  0.0715
  500MOL0     H65961   3.861   9.110   7.590  0.1017  0.9290 -3.2203
  500MOL0     H65962   3.738   9.165   7.780  1.3700  1.5179  0.8156
  500MOL0     H65963   3.536   9.207   7.898  0.2081  0.0078  0.4717
  500MOL0     H65964   3.081   9.259   7.909  0.4148 -0.1025 -0.3758
  500MOL0     H65965   2.882   9.325   7.992 -2.7019  0.8201  3.9434
  500MOL0     H65966   2.694   9.367   8.183  2.4425 -0.1889 -0.1958
  500MOL0     H65967   2.711   9.494   8.054  0.4444  1.0329 -0.0544
  500MOL0     H65968   2.663   9.664   8.250  1.8730 -1.1207  1.3334
  500MOL0     H65969   2.591   9.527   8.328  2.3059  2.0680  2.0440
  500MOL0     H65970   2.515   9.607   8.042  1.8836 -0.3065 -0.3876
  500MOL0     H65971   2.425   9.661   8.185  0.2007  1.1349 -1.7246
  500MOL0     H65972   2.470   9.367   8.115  0.6031  0.4423  0.8650
  500MOL0     H65973   2.367   9.433   8.242 -2.5906 -0.0491 -0.5512
  500MOL0     H65974   2.322   9.455   7.940 -3.4478 -0.2564 -2.6126
  500MOL0     H65975   2.229   9.552   8.053  2.4455  0.5977 -2.5600
  500MOL0     H65976   2.143   9.332   8.164 -0.4279 -1.0125 -0.0563
  500MOL0     H65977   2.232   9.263   8.028  0.9212  1.1918 -0.5695
  500MOL0     H65978   2.043   9.481   7.958 -1.9845  0.1845 -2.3177
  500MOL0     H65979   2.061   9.330   7.873  0.8354  0.6179 -1.2238
  500MOL0     H65980   1.907   9.374   8.134  2.4548 -1.2274  1.2042
  500MOL0     H65981   1.903   9.219   8.035  0.8009  0.0741  0.8349
  500MOL0     H65982   3.086   9.556   8.299 -4.5450 -0.3097  0.3972
  500MOL0     H65983   3.312   9.489   8.182  0.1385  1.0307 -2.4860
  500MOL0     H65984   3.502   9.582   7.699 -3.4729 -0.4718  2.2544
  500MOL0     H65985   3.687   9.529   7.554 -1.4351  0.1695  0.0502
  500MOL0     H65986   5.547   9.212   7.178 -0.8112  0.8266  0.8876
  500MOL0     H65987   5.784   9.136   7.204 -2.5628  0.8107 -3.9224
  500MOL0     H65988   6.136   9.084   7.248 -0.3146  1.2103 -1.3881
  500MOL0     H65989   6.344   8.991   7.204 -0.4065 -2.2496  3.7120
  500MOL0     H65990   6.538   8.882   7.267  1.4015 -1.2864 -0.4187
  500MOL0     H65991   6.707   8.935   7.298 -1.4939 -1.4682  3.0757
  500MOL0     H65992   6.653   8.883   7.050 -0.0812  0.8385 -2.3091
  500MOL0     H65993   6.561   9.029   7.049  1.1767  1.2377 -1.0691
  500MOL0     H65994   6.731   9.165   7.087 -1.8328 -1.7289  1.8282
  500MOL0     H65995   6.793   9.047   6.956  0.0352 -2.0869 -0.6575
  500MOL0     H65996   6.867   9.039   7.246  0.5670 -0.3564 -0.8548
  500MOL0     H65997   6.943   8.952   7.122 -0.2941  0.4176  0.1485
  500MOL0     H65998   7.152   9.289   7.036 -2.0027 -0.1449 -3.3469
  500MOL0     H65999   6.525   9.318   7.418 -0.4603  0.3444  2.8017
  500MOL0     H66000   6.314   9.401   7.479  1.0699  1.4266 -0.2741
  501MOL0     O66001   7.376   2.768   7.376  0.2912  0.2240  0.3186
  501MOL0     C66002   7.364   2.657   7.319 -0.5649 -0.4819  0.6447
  501MOL0     O66003   7.250   2.618   7.255  0.5322  0.0762  0.1631
  501MOL0     C66004   7.154   2.714   7.248  0.3489  0.3364  0.8068
  501MOL0     C66005   7.150   2.806   7.144 -0.8128  0.6096  0.5846
  501MOL0     C66006   7.044   2.896   7.129  1.5808  0.6661  0.3555
  501MOL0     C66007   6.936   2.899   7.226 -0.5122 -0.5032  0.2716
  501MOL0     O66008   6.827   2.982   7.231  0.2807  0.3344  0.4332
  501MOL0     C66009   6.803   3.072   7.121  0.2096  0.4697 -0.5640
  501MOL0     C66010   6.712   3.009   7.022  0.7942  0.6509  1.2154
  501MOL0     C66011   6.776   2.925   6.919  0.1493 -0.0834  0.5702
  501MOL0     C66012   6.671   2.900   6.805  0.0952  0.8706 -0.0386
  501MOL0     C66013   6.673   2.754   6.763 -0.6494 -0.0560  0.8590
  501MOL0     C66014   6.535   2.706   6.711 -0.2826 -0.6316  0.1866
  501MOL0     C66015   6.469   2.652   6.838 -0.7034 -0.2404  0.2668
  501MOL0     C66016   6.332   2.588   6.809 -0.0135 -0.3449 -0.1924
  501MOL0     N66017   6.238   2.658   6.720 -0.5431 -0.2674 -0.2434
  501MOL0     C66018   6.236   2.661   6.584 -0.0027 -0.3642 -0.2480
  501MOL0     C66019   6.113   2.707   6.547 -0.8036  1.0895 -0.1524
  501MOL0     C66020   6.073   2.725   6.403 -0.4034  0.0459  0.0907
  501MOL0     C66021   5.956   2.833   6.388 -0.1695  0.2377  1.2120
  501MOL0     C66022   5.900   2.838   6.249  1.1324 -0.8814 -0.4156
  501MOL0     C66023   5.783   2.939   6.237 -0.4161  0.4799  0.0546
  501MOL0     O66024   5.682   2.902   6.326 -0.1432 -0.4434  0.9608
  501MOL0     C66025   5.567   2.978   6.339  0.5455 -0.7715  1.0260
  501MOL0     C66026   5.468   2.927   6.435 -0.6403 -0.3763 -0.5391
  501MOL0     C66027   5.353   3.011   6.451 -0.4161  0.2913 -0.7576
  501MOL0     C66028   5.327   3.130   6.375  0.8182 -0.2389  0.7331
  501MOL0     C66029   5.197   3.208   6.391 -0.0636 -0.4674 -0.5585
  501MOL0     O66030   5.193   3.328   6.326  0.5339 -0.2470 -0.2574
  501MOL0     C66031   5.071   3.379   6.293 -0.5173 -0.4136  0.0373
  501MOL0     C66032   4.984   3.306   6.203 -0.9708 -0.4751  0.0945
  501MOL0     C66033   4.865   3.359   6.162  0.9528 -0.4140  1.7422
  501MOL0     C66034   4.818   3.489   6.209 -1.4774 -0.2375 -0.4076
  501MOL0     O66035   4.701   3.544   6.169  0.7932  0.4748 -0.7125
  501MOL0     C66036   4.631   3.639   6.247 -0.3579  0.2243  0.0062
  501MOL0     C66037   4.491   3.649   6.185  1.0261  0.1524 -0.7830
  501MOL0     C66038   4.475   3.755   6.075  0.7593 -0.4390 -0.2191
  501MOL0     C66039   4.599   3.759   5.983  0.4255 -0.0953  0.3721
  501MOL0     C66040   4.581   3.851   5.868  0.5093 -0.0372  0.5836
  501MOL0     C66041   4.575   4.008   5.892 -0.2996  0.1652 -0.2149
  501MOL0     C66042   4.710   4.056   5.959  0.6724 -0.6451 -0.0658
  501MOL0     C66043   4.704   4.207   6.005 -0.0794 -0.5982 -0.0665
  501MOL0    Cl66044   4.851   4.273   6.085 -0.2264 -0.0027 -0.1142
  501MOL0     C66045   4.905   3.558   6.298 -0.2309  0.3454  0.1002
  501MOL0     C66046   5.026   3.503   6.344 -0.1903  0.1685 -0.0961
  501MOL0     O66047   5.113   3.158   6.460 -0.2394  1.2706  0.3767
  501MOL0     C66048   5.416   3.168   6.274 -0.4092 -0.1631 -0.4849
  501MOL0     C66049   5.538   3.091   6.255 -0.0170 -0.3987 -0.4247
  501MOL0     N66050   6.052   2.750   6.666  0.0486 -0.2649 -0.8847
  501MOL0     N66051   6.124   2.718   6.766  0.7630  0.2580  0.9061
  501MOL0     C66052   6.943   2.804   7.321 -0.4553  0.2444 -0.2096
  501MOL0     C66053   7.050   2.712   7.339 -0.2285 -0.0922 -0.7513
  501MOL0     C66054   7.474   2.558   7.333  0.3088  0.2556  0.7779
  501MOL0     C66055   7.454   2.422   7.299 -0.9438 -0.4124 -0.2223
  501MOL0     C66056   7.559   2.322   7.301  0.5609 -0.6382 -1.2360
  501MOL0     C66057   7.688   2.361   7.336  0.2483  1.0598  0.2049
  501MOL0     O66058   7.785   2.262   7.326 -0.8506  1.0029  0.1096
  501MOL0     C66059   7.918   2.313   7.337  0.3462  0.2101  0.7728
  501MOL0     C66060   7.953   2.312   7.483 -0.6230 -0.1093 -0.4693
  501MOL0     C66061   8.050   2.423   7.515 -0.0389  0.2861 -0.2131
  501MOL0     C66062   8.117   2.394   7.654 -0.1624  0.7827  0.5247
  501MOL0     C66063   8.065   2.480   7.762 -0.0784 -0.4801 -1.2037
  501MOL0     C66064   8.036   2.542   7.865 -0.2738 -0.2333  0.2120
  501MOL0     C66065   7.705   2.493   7.380 -0.1344 -0.2684 -0.1369
  501MOL0     C66066   7.599   2.584   7.377  0.2155  0.3221 -0.0342
  501MOL0     H66067   7.238   2.817   7.080 -0.5097  3.0208  1.3136
  501MOL0     H66068   7.043   2.972   7.051  1.4513  2.3500  1.9199
  501MOL0     H66069   6.899   3.112   7.088 -0.2755  1.9316 -0.2558
  501MOL0     H66070   6.764   3.152   7.184  1.7340 -0.1301  1.2240
  501MOL0     H66071   6.662   3.088   6.966  0.3378 -0.2187  0.3780
  501MOL0     H66072   6.632   2.956   7.075  0.5190 -1.3970 -1.1038
  501MOL0     H66073   6.818   2.834   6.963  3.4915 -0.1895 -2.3659
  501MOL0     H66074   6.854   2.979   6.863 -0.5051  0.0107 -0.2639
  501MOL0     H66075   6.573   2.925   6.845 -0.1172  0.6660 -0.4343
  501MOL0     H66076   6.694   2.966   6.721  3.5012  0.0524  0.0823
  501MOL0     H66077   6.722   2.696   6.842 -0.3144 -0.7050  0.1939
  501MOL0     H66078   6.746   2.751   6.681 -0.1590  1.0094  1.2413
  501MOL0     H66079   6.556   2.630   6.634  2.8847  1.8194 -1.6404
  501MOL0     H66080   6.485   2.791   6.664 -1.0626 -1.9517 -1.4735
  501MOL0     H66081   6.540   2.578   6.875  1.0772  1.5167  0.5431
  501MOL0     H66082   6.453   2.731   6.913  2.6046  0.9985 -0.1505
  501MOL0     H66083   6.282   2.587   6.906  1.1972  1.5720  0.5023
  501MOL0     H66084   6.347   2.493   6.757  2.5333  1.6499 -3.5133
  501MOL0     H66085   6.301   2.606   6.516 -0.7603 -2.3032  0.5227
  501MOL0     H66086   6.046   2.625   6.370  0.8660 -0.7405  1.3108
  501MOL0     H66087   6.161   2.761   6.347 -1.2426 -0.5912 -1.7337
  501MOL0     H66088   5.995   2.929   6.423 -2.7381  1.8040  0.0257
  501MOL0     H66089   5.879   2.796   6.456 -0.5443 -1.1742  0.0550
  501MOL0     H66090   5.980   2.892   6.197  1.8848 -1.0138  0.6027
  501MOL0     H66091   5.873   2.746   6.196  1.2034 -2.4516  2.1332
  501MOL0     H66092   5.737   2.939   6.138  1.1095 -0.9752 -0.6991
  501MOL0     H66093   5.831   3.034   6.264 -0.2165  0.3906  0.0167
  501MOL0     H66094   5.476   2.836   6.493 -0.0851 -1.2123 -1.8816
  501MOL0     H66095   5.285   2.980   6.530  0.1702 -1.2269 -0.8081
  501MOL0     H66096   5.016   3.206   6.174  2.3374  0.4890  0.0287
  501MOL0     H66097   4.803   3.316   6.084  2.8039  1.7008 -1.1106
  501MOL0     H66098   4.676   3.738   6.257 -0.2896 -0.0597  3.4213
  501MOL0     H66099   4.624   3.590   6.344  0.7020  0.5381  0.2436
  501MOL0     H66100   4.413   3.671   6.259  1.3749  1.0200 -0.6610
  501MOL0     H66101   4.468   3.549   6.147  0.4697 -1.4366  3.2350
  501MOL0     H66102   4.444   3.845   6.128  1.5694 -0.2523 -0.0488
  501MOL0     H66103   4.386   3.724   6.019 -0.0189 -0.1089  0.8100
  501MOL0     H66104   4.694   3.784   6.030  1.1037  0.2899 -1.1283
  501MOL0     H66105   4.609   3.663   5.930 -0.5920  0.2097 -0.4059
  501MOL0     H66106   4.489   3.824   5.814 -1.7244  2.4813  2.8387
  501MOL0     H66107   4.670   3.838   5.807 -0.9184  1.6774 -2.0899
  501MOL0     H66108   4.496   4.044   5.958  1.4198  1.6574  1.1589
  501MOL0     H66109   4.565   4.046   5.790  1.5750 -1.3324 -1.0186
  501MOL0     H66110   4.730   3.993   6.047 -1.7917 -0.0220  1.0324
  501MOL0     H66111   4.786   4.065   5.882 -1.1910  2.6654 -1.7186
  501MOL0     H66112   4.619   4.221   6.072 -1.9972  0.8573 -2.5988
  501MOL0     H66113   4.682   4.272   5.920 -2.9851 -0.2408  0.8322
  501MOL0     H66114   4.881   3.657   6.335  1.4247 -0.1526  2.7254
  501MOL0     H66115   5.076   3.544   6.431 -0.1452 -2.8937  1.4466
  501MOL0     H66116   5.404   3.258   6.214  5.6647  1.0319 -0.5776
  501MOL0     H66117   5.610   3.117   6.178  0.4166  1.4478  0.5453
  501MOL0     H66118   6.864   2.794   7.395 -0.4446 -0.2035 -0.2553
  501MOL0     H66119   7.046   2.640   7.420  0.4833  1.0446  0.3323
  501MOL0     H66120   7.352   2.387   7.292 -1.3923  0.0295  2.6722
  501MOL0     H66121   7.542   2.215   7.294  0.0971 -0.6235 -0.4263
  501MOL0     H66122   7.920   2.416   7.299 -1.0909 -0.3433 -0.9417
  501MOL0     H66123   7.986   2.254   7.275  0.7223  0.4925  0.9126
  501MOL0     H66124   7.861   2.326   7.541  0.1145 -3.4848  1.8275
  501MOL0     H66125   7.991   2.215   7.518  1.0737 -0.3598 -2.7887
  501MOL0     H66126   7.997   2.518   7.510  0.5136  0.5339 -2.1705
  501MOL0     H66127   8.124   2.429   7.434 -0.9008  1.7293 -0.9245
  501MOL0     H66128   8.100   2.289   7.679 -4.2123  0.5554 -2.2080
  501MOL0     H66129   8.226   2.405   7.650  0.0091 -0.6618  0.5263
  501MOL0     H66130   8.018   2.589   7.960 -0.0168 -1.2137  0.7598
  501MOL0     H66131   7.802   2.520   7.422 -0.0404 -1.8262  0.7525
  501MOL0     H66132   7.628   2.681   7.415  2.6681  0.3248 -1.6535
  502MOL0     O66133   8.403  10.440   0.290  0.3129  0.1442  0.3696
  502MOL0     C66134   8.322  10.444   0.383  0.9978 -0.8477  0.8148
  502MOL0     O66135   8.353  10.411   0.508 -0.0138 -0.5931  0.5255
  502MOL0     C66136   8.488  10.373   0.522  0.5798 -0.5726 -0.0312
  502MOL0     C66137   8.557  10.268   0.454 -0.2560 -0.3164 -1.2272
  502MOL0     C66138   8.688  10.234   0.481  1.4941  0.9585 -0.0080
  502MOL0     C66139   8.759  10.293   0.579 -0.0346 -0.0165  0.2126
  502MOL0     O66140   8.879  10.253   0.628  0.0175 -0.1266  0.0977
  502MOL0     C66141   8.976  10.214   0.531 -0.9213  0.0223  0.0993
  502MOL0     C66142   9.090  10.144   0.604 -0.4095  0.3690 -0.3278
  502MOL0     C66143   9.210  10.084   0.521 -0.1544 -0.3354  0.3794
  502MOL0     C66144   9.335  10.040   0.608  0.2947  0.6125 -0.1018
  502MOL0     C66145   9.423   9.939   0.522  0.0108  0.0183  0.1674
  502MOL0     C66146   9.529   9.854   0.601  0.2433  0.1868 -0.3202
  502MOL0     C66147   9.655   9.949   0.631 -1.0132  0.0146  0.8959
  502MOL0     C66148   9.764   9.966   0.522 -0.2111  0.2298 -0.7514
  502MOL0     N66149   9.836   9.838   0.508 -0.3616 -0.4313 -0.2286
  502MOL0     C66150   9.960   9.797   0.559 -0.3589 -1.2280  0.0773
  502MOL0     C66151   9.977   9.676   0.499 -0.1581  0.1947  0.2633
  502MOL0     C66152  10.102   9.595   0.518 -1.0322 -0.8816 -0.1197
  502MOL0     C66153  10.229   9.693   0.524 -0.6877 -1.1136  0.9133
  502MOL0     C66154  10.348   9.595   0.554 -0.0442  0.0695 -0.2962
  502MOL0     C66155  10.488   9.661   0.542 -0.7999  0.3421  0.1049
  502MOL0     O66156  10.597   9.575   0.580  0.0937 -0.0155  0.4090
  502MOL0     C66157  10.722   9.629   0.585  0.0391  0.7529  0.3027
  502MOL0     C66158  10.762   9.761   0.570  0.2363  0.7116 -0.8663
  502MOL0     C66159  10.896   9.787   0.584 -0.3190 -0.0570  1.1071
  502MOL0     C66160  10.997   9.692   0.617  0.1336 -0.1053  0.6320
  502MOL0     C66161  11.135   9.728   0.629 -0.1669  0.1976 -0.4916
  502MOL0     O66162  11.223   9.626   0.627  0.2854  0.2121  0.2145
  502MOL0     C66163  11.359   9.625   0.637  0.4624 -0.0650 -1.4131
  502MOL0     C66164  11.428   9.728   0.707 -1.0984  0.1887 -0.6055
  502MOL0     C66165  11.561   9.714   0.723 -1.6270  0.3060 -0.4186
  502MOL0     C66166  11.641   9.609   0.671  0.5151 -0.3405 -0.1106
  502MOL0     O66167  11.773   9.613   0.675 -0.4817 -0.6812  0.2862
  502MOL0     C66168  11.837   9.617   0.547 -0.5512  0.5717  0.3747
  502MOL0     C66169  11.942   9.722   0.523  0.9858 -0.4155 -0.5199
  502MOL0     C66170  11.881   9.850   0.465  0.9645  0.1102 -0.4712
  502MOL0     C66171  11.804   9.943   0.566 -0.0715  0.4296 -0.0013
  502MOL0     C66172  11.701  10.030   0.489 -0.6759  0.4349 -0.6653
  502MOL0     C66173  11.596  10.094   0.582  0.8258 -0.0418 -0.9272
  502MOL0     C66174  11.479  10.170   0.514 -0.3644 -0.0092 -0.2649
  502MOL0     C66175  11.361  10.183   0.604  0.3867  0.3819 -1.1951
  502MOL0    Cl66176  11.408  10.287   0.733  0.1379 -0.2531 -0.1872
  502MOL0     C66177  11.567   9.512   0.606  0.6176  1.0051 -0.2829
  502MOL0     C66178  11.431   9.513   0.592  0.8039 -0.5549  0.2097
  502MOL0     O66179  11.171   9.846   0.625 -0.4221  0.5468 -0.5653
  502MOL0     C66180  10.945   9.566   0.632  0.0920  0.2435  0.3248
  502MOL0     C66181  10.814   9.534   0.618 -0.4224 -0.1987  0.0077
  502MOL0     N66182   9.872   9.644   0.416  0.1692 -0.0044  0.0696
  502MOL0     N66183   9.799   9.748   0.413 -0.3343 -0.3790  0.0693
  502MOL0     C66184   8.696  10.399   0.650  0.6435 -0.4110 -1.2223
  502MOL0     C66185   8.558  10.428   0.629  0.3677 -0.3134 -0.1254
  502MOL0     C66186   8.188  10.503   0.353 -0.6975  0.8307 -0.1195
  502MOL0     C66187   8.164  10.573   0.236 -0.7229 -0.0764 -0.1884
  502MOL0     C66188   8.046  10.632   0.215 -0.4121 -0.1989 -0.1904
  502MOL0     C66189   7.945  10.637   0.318 -1.0297 -0.5348  0.6877
  502MOL0     O66190   7.825  10.695   0.307 -0.1681  0.4249 -0.1532
  502MOL0     C66191   7.798  10.805   0.220  0.3258  0.0516 -1.0274
  502MOL0     C66192   7.657  10.849   0.219  0.7361 -0.3671  0.0094
  502MOL0     C66193   7.572  10.731   0.172 -0.5241 -0.0645  0.1235
  502MOL0     C66194   7.428  10.757   0.183 -0.6750 -0.4012  0.3853
  502MOL0     C66195   7.346  10.642   0.177  0.4686 -0.8673 -0.5960
  502MOL0     C66196   7.273  10.545   0.178 -0.0035  0.0930 -0.6766
  502MOL0     C66197   7.971  10.574   0.431 -0.1611  0.2963  0.3225
  502MOL0     C66198   8.096  10.503   0.457  0.0475  0.3376 -0.9960
  502MOL0     H66199   8.508  10.225   0.367  2.2738 -0.3049 -2.7443
  502MOL0     H66200   8.726  10.142   0.437 -0.8884  0.9317 -2.3036
  502MOL0     H66201   9.008  10.304   0.477  2.9015 -1.4316 -0.3886
  502MOL0     H66202   8.949  10.141   0.454  2.9979 -1.0868 -0.4712
  502MOL0     H66203   9.050  10.060   0.662 -1.4064 -0.6050 -2.3353
  502MOL0     H66204   9.120  10.215   0.682 -4.4789  0.6710  1.2199
  502MOL0     H66205   9.235  10.159   0.445  2.4812 -3.4717 -2.1618
  502MOL0     H66206   9.175   9.993   0.471  3.3794 -1.3260 -0.6055
  502MOL0     H66207   9.389  10.127   0.647 -0.1294  0.5319  0.7017
  502MOL0     H66208   9.291   9.994   0.697  2.4248 -2.4466 -0.4770
  502MOL0     H66209   9.479   9.994   0.445 -1.7577  2.6954  0.6497
  502MOL0     H66210   9.362   9.865   0.470  0.2981  0.2919 -0.5740
  502MOL0     H66211   9.560   9.762   0.550  0.0104 -0.1561  0.1544
  502MOL0     H66212   9.482   9.819   0.693 -0.6869  2.6713  0.2200
  502MOL0     H66213   9.620  10.048   0.662 -1.4915  0.0722  0.1810
  502MOL0     H66214   9.710   9.909   0.718  0.3596 -2.2695 -0.8988
  502MOL0     H66215   9.844  10.036   0.548  1.8518 -2.1344 -0.4346
  502MOL0     H66216   9.729   9.988   0.421 -2.7871 -2.1674 -0.5109
  502MOL0     H66217  10.011   9.854   0.636 -2.4020  0.8415  0.0299
  502MOL0     H66218  10.116   9.514   0.446  0.2498  0.2180 -1.1422
  502MOL0     H66219  10.103   9.542   0.614  2.5457  0.0158  0.4918
  502MOL0     H66220  10.222   9.777   0.593 -0.1403 -1.0110  0.8444
  502MOL0     H66221  10.245   9.735   0.424  0.9832 -3.2043  0.2407
  502MOL0     H66222  10.346   9.566   0.660  3.5943 -2.4238 -0.7354
  502MOL0     H66223  10.338   9.510   0.485 -2.3000 -0.1529  0.2170
  502MOL0     H66224  10.478   9.749   0.607  1.6491  0.9672 -0.2646
  502MOL0     H66225  10.492   9.706   0.442  0.1344 -0.4699 -0.2346
  502MOL0     H66226  10.696   9.841   0.537 -1.4816  0.4576  1.7138
  502MOL0     H66227  10.935   9.883   0.552 -0.3949 -1.0216 -2.2280
  502MOL0     H66228  11.375   9.819   0.736 -1.2411  0.7832 -2.5815
  502MOL0     H66229  11.598   9.797   0.782 -1.4515  0.4616 -0.7419
  502MOL0     H66230  11.763   9.614   0.467 -0.1840 -3.3087 -0.0075
  502MOL0     H66231  11.882   9.517   0.543  0.5128  1.0912 -1.4416
  502MOL0     H66232  12.015   9.685   0.450  3.0992  5.9757 -2.3298
  502MOL0     H66233  11.992   9.749   0.616  0.2348 -0.3223 -0.1329
  502MOL0     H66234  11.814   9.826   0.382  1.4143 -3.3251 -0.0059
  502MOL0     H66235  11.957   9.920   0.432  0.7535  3.4374  4.8991
  502MOL0     H66236  11.769   9.878   0.646  2.2483 -2.0586 -0.8410
  502MOL0     H66237  11.877  10.013   0.608 -1.5560  0.5249  2.6318
  502MOL0     H66238  11.641   9.963   0.428  1.0926 -0.2226 -1.7488
  502MOL0     H66239  11.755  10.101   0.426 -0.0259  0.6266  0.0898
  502MOL0     H66240  11.651  10.164   0.646 -0.0366  1.5841 -1.8797
  502MOL0     H66241  11.554  10.018   0.648  2.8108  1.2608  2.0429
  502MOL0     H66242  11.507  10.273   0.492 -1.5776  1.1560  3.0369
  502MOL0     H66243  11.449  10.121   0.420  1.9085 -2.4076  0.1284
  502MOL0     H66244  11.320  10.086   0.632 -4.1853  1.2495 -3.7648
  502MOL0     H66245  11.271  10.217   0.552 -1.5509 -3.8530 -1.0297
  502MOL0     H66246  11.624   9.426   0.574 -2.0058 -1.4878  1.1882
  502MOL0     H66247  11.394   9.434   0.527  0.3955 -0.4293  0.2856
  502MOL0     H66248  11.015   9.484   0.635  1.9374  1.6723 -0.9957
  502MOL0     H66249  10.793   9.427   0.618  2.7413 -0.9642 -1.2475
  502MOL0     H66250   8.739  10.442   0.740 -0.5541 -5.1791  1.9971
  502MOL0     H66251   8.509  10.509   0.684  0.8490 -0.5577  0.6851
  502MOL0     H66252   8.231  10.569   0.150 -0.4815  1.2553 -0.0849
  502MOL0     H66253   8.031  10.678   0.118  2.4171  1.0627 -0.1044
  502MOL0     H66254   7.826  10.785   0.116  0.8681  2.1666 -1.3439
  502MOL0     H66255   7.856  10.893   0.249  2.3801 -1.7198  0.5437
  502MOL0     H66256   7.617  10.886   0.314 -1.8839  0.5517 -1.3480
  502MOL0     H66257   7.653  10.930   0.145  1.3151 -1.3700 -1.1420
  502MOL0     H66258   7.603  10.639   0.222  2.3106  1.2957  1.1348
  502MOL0     H66259   7.599  10.728   0.065  1.8616  0.2150  0.6465
  502MOL0     H66260   7.408  10.812   0.276 -1.0401 -0.3954  0.3041
  502MOL0     H66261   7.401  10.821   0.099  0.5194  0.7341  0.8351
  502MOL0     H66262   7.204  10.466   0.199 -0.0924  0.1219 -0.8464
  502MOL0     H66263   7.912  10.570   0.522  1.5411  1.7053  1.5477
  502MOL0     H66264   8.109  10.447   0.549 -2.1530 -3.8163 -2.9294
  503MOL0     O66265   4.602   9.096   0.262  0.6746 -0.6590 -0.2445
  503MOL0     C66266   4.676   9.019   0.205 -0.6433 -0.9896  0.3121
  503MOL0     O66267   4.642   8.943   0.103  0.1801  0.1564 -0.0692
  503MOL0     C66268   4.514   8.941   0.050 -0.1369  0.7474 -0.1585
  503MOL0     C66269   4.434   8.843   0.087  0.2610  0.0632 -0.5545
  503MOL0     C66270   4.296   8.838   0.062  0.0943 -0.1228  0.3023
  503MOL0     C66271   4.235   8.944  -0.003  0.3380 -0.2255  0.5099
  503MOL0     O66272   4.096   8.953  -0.019  0.4026 -0.1828  0.1183
  503MOL0     C66273   4.010   8.839   0.027  0.3480  0.7173 -0.0045
  503MOL0     C66274   3.866   8.871   0.030  1.0023 -0.0956 -0.4151
  503MOL0     C66275   3.834   8.971   0.149  0.6426  0.1552  0.1671
  503MOL0     C66276   3.686   8.999   0.143  0.0100  0.3638 -0.6321
  503MOL0     C66277   3.635   9.066   0.267 -0.7945  0.3281  0.4253
  503MOL0     C66278   3.490   9.100   0.251  0.0399 -0.7315 -0.0997
  503MOL0     C66279   3.392   8.992   0.261  0.4978  0.4733 -0.2346
  503MOL0     C66280   3.371   8.939   0.412  0.8166  0.1441  0.2902
  503MOL0     N66281   3.358   9.048   0.513 -0.4075  0.4177 -0.3347
  503MOL0     C66282   3.243   9.112   0.553  0.2512 -0.2281 -0.3513
  503MOL0     C66283   3.281   9.211   0.644 -0.3047 -0.4494 -0.1731
  503MOL0     C66284   3.182   9.301   0.722  0.5578  0.1230  0.5350
  503MOL0     C66285   3.085   9.213   0.808  0.8834 -0.2366 -0.6456
  503MOL0     C66286   2.975   9.295   0.884  0.3606 -0.0535  0.3280
  503MOL0     C66287   2.863   9.198   0.931 -0.5554 -0.1594 -0.3446
  503MOL0     O66288   2.762   9.256   1.013  0.8189 -0.7232  0.4351
  503MOL0     C66289   2.662   9.178   1.073  0.5565 -1.4082  0.5060
  503MOL0     C66290   2.612   9.207   1.202 -0.7316 -0.3833  0.2669
  503MOL0     C66291   2.517   9.130   1.267 -0.5101 -0.8522 -0.5350
  503MOL0     C66292   2.473   9.013   1.202 -0.0070 -0.5507  0.3524
  503MOL0     C66293   2.371   8.934   1.276 -0.5116 -0.2702  0.1725
  503MOL0     O66294   2.306   8.853   1.187  0.0634  0.3285 -1.7359
  503MOL0     C66295   2.206   8.775   1.230  0.5963  1.1747 -1.0125
  503MOL0     C66296   2.094   8.830   1.288  0.6299  0.9980 -0.1699
  503MOL0     C66297   1.982   8.755   1.317 -1.0611  0.2178 -0.6019
  503MOL0     C66298   1.980   8.616   1.289 -1.6202 -1.0448 -1.1298
  503MOL0     O66299   1.875   8.544   1.340  0.1500 -0.8240 -0.6135
  503MOL0     C66300   1.853   8.412   1.312  0.5383  0.3425  0.8366
  503MOL0     C66301   1.699   8.376   1.340 -0.0751 -0.1267  0.5014
  503MOL0     C66302   1.664   8.400   1.489 -0.2062  0.4085 -0.2198
  503MOL0     C66303   1.538   8.329   1.529  0.4841  0.7906 -0.0451
  503MOL0     C66304   1.496   8.371   1.674  0.1387 -0.0659 -0.5390
  503MOL0     C66305   1.346   8.416   1.676  0.4658  0.4063  0.0245
  503MOL0     C66306   1.297   8.421   1.824  0.2543  0.5544  0.1901
  503MOL0     C66307   1.182   8.523   1.838  0.3215 -0.7815 -0.1335
  503MOL0    Cl66308   1.054   8.464   1.720  0.1000  0.3556 -0.0354
  503MOL0     C66309   2.086   8.560   1.230 -0.4518  0.8415  0.8509
  503MOL0     C66310   2.206   8.642   1.202 -0.2286  0.2042 -0.6657
  503MOL0     O66311   2.339   8.950   1.395 -0.0477  0.3687 -0.3749
  503MOL0     C66312   2.515   8.981   1.082  0.3017  0.0407 -0.1136
  503MOL0     C66313   2.614   9.059   1.016  0.9993  0.4485  0.7834
  503MOL0     N66314   3.418   9.200   0.648  0.1758 -0.5843 -1.2484
  503MOL0     N66315   3.465   9.111   0.571 -0.0430  0.7454 -0.4329
  503MOL0     C66316   4.320   9.049  -0.046 -0.3952 -0.5675 -0.3922
  503MOL0     C66317   4.453   9.046  -0.016  0.7222  0.6720 -0.4436
  503MOL0     C66318   4.815   9.030   0.252 -0.0744 -0.3086  1.1987
  503MOL0     C66319   4.918   8.968   0.172 -0.3251 -0.1895  0.1587
  503MOL0     C66320   5.059   8.990   0.193  0.2349  0.4936  0.6007
  503MOL0     C66321   5.101   9.060   0.306  0.1701  0.7066 -0.6807
  503MOL0     O66322   5.239   9.075   0.321  0.1436  0.3231 -0.5674
  503MOL0     C66323   5.293   9.143   0.436  0.2646  1.2361 -0.6666
  503MOL0     C66324   5.456   9.152   0.423  1.1867 -0.9647 -0.1173
  503MOL0     C66325   5.519   9.025   0.409  0.2848 -0.3517  0.5679
  503MOL0     C66326   5.672   9.039   0.402  1.3335 -0.5597  0.6383
  503MOL0     C66327   5.715   9.111   0.279 -1.3070 -1.0153  0.4458
  503MOL0     C66328   5.780   9.181   0.194 -0.0023  0.3295 -0.1350
  503MOL0     C66329   4.999   9.120   0.386  0.1666 -0.0684  0.3978
  503MOL0     C66330   4.865   9.115   0.356  0.6878 -0.0205 -0.3004
  503MOL0     H66331   4.487   8.763   0.138  1.0604  1.4664  0.8669
  503MOL0     H66332   4.236   8.751   0.085 -0.7223 -0.2521 -1.9998
  503MOL0     H66333   4.039   8.799   0.125 -0.4771 -2.2349 -0.8616
  503MOL0     H66334   4.024   8.757  -0.044 -1.1202 -0.8293  1.3841
  503MOL0     H66335   3.805   8.780   0.038 -1.8791  1.7076 -0.3524
  503MOL0     H66336   3.835   8.919  -0.063 -5.5323  0.2482  1.4353
  503MOL0     H66337   3.884   9.063   0.117 -1.1031 -0.0954 -3.9654
  503MOL0     H66338   3.871   8.948   0.248  2.9644 -0.7952 -0.8564
  503MOL0     H66339   3.674   9.058   0.052  1.4827  2.8133  0.6706
  503MOL0     H66340   3.634   8.908   0.109 -0.8030  1.6176 -2.9805
  503MOL0     H66341   3.692   9.155   0.296  1.0164 -1.6486  3.7072
  503MOL0     H66342   3.653   8.990   0.344 -0.1254  2.1309  2.1429
  503MOL0     H66343   3.485   9.146   0.152  0.3774 -1.3148 -0.3925
  503MOL0     H66344   3.456   9.182   0.315  0.1753 -0.2265 -0.6664
  503MOL0     H66345   3.298   9.024   0.215 -1.1236 -1.4146  1.5396
  503MOL0     H66346   3.416   8.907   0.197  0.7781  1.9380 -2.1604
  503MOL0     H66347   3.452   8.868   0.432 -1.0407 -2.1604  0.0267
  503MOL0     H66348   3.275   8.887   0.414 -0.9331  3.1965  1.3070
  503MOL0     H66349   3.138   9.083   0.547  0.1610 -0.0728  0.3373
  503MOL0     H66350   3.109   9.339   0.650 -1.3486 -0.0499  2.3093
  503MOL0     H66351   3.234   9.382   0.774  1.0784 -1.0838  1.9345
  503MOL0     H66352   3.139   9.163   0.889  0.6486 -0.2404 -0.4901
  503MOL0     H66353   3.029   9.144   0.744 -1.3837  1.2815 -0.4264
  503MOL0     H66354   3.025   9.341   0.969  0.4883  0.6840 -0.1326
  503MOL0     H66355   2.939   9.379   0.823  2.3147  1.4551  1.1639
  503MOL0     H66356   2.912   9.111   0.977 -0.0745 -1.8306 -3.6917
  503MOL0     H66357   2.816   9.162   0.838  1.1297 -0.2295 -1.2163
  503MOL0     H66358   2.657   9.297   1.243  1.8630 -1.0415 -0.9720
  503MOL0     H66359   2.469   9.156   1.361  0.0329 -1.5026 -0.0719
  503MOL0     H66360   2.089   8.938   1.299 -2.5307  0.6955  3.6988
  503MOL0     H66361   1.889   8.798   1.353 -1.8674 -1.7987 -0.1399
  503MOL0     H66362   1.916   8.346   1.373 -1.0666 -0.4687  1.6816
  503MOL0     H66363   1.875   8.393   1.207 -1.5647 -2.1849  0.7615
  503MOL0     H66364   1.680   8.269   1.322 -0.7265 -0.1731  1.4223
  503MOL0     H66365   1.648   8.433   1.262  1.0530  0.2095 -0.0071
  503MOL0     H66366   1.653   8.506   1.513 -0.1923  0.4899 -0.5698
  503MOL0     H66367   1.743   8.351   1.545 -0.0127 -2.2363 -2.5842
  503MOL0     H66368   1.454   8.340   1.460  0.3119 -4.8633 -1.2516
  503MOL0     H66369   1.559   8.222   1.540  1.2668  0.9754  0.3795
  503MOL0     H66370   1.556   8.454   1.713 -2.7407  0.9289  2.1115
  503MOL0     H66371   1.509   8.288   1.743  0.4651 -0.7235 -1.3735
  503MOL0     H66372   1.298   8.345   1.608  1.3173 -0.0034 -0.1655
  503MOL0     H66373   1.348   8.518   1.636  1.0755  0.9467  1.3547
  503MOL0     H66374   1.261   8.327   1.865  1.6919 -0.7550 -1.3920
  503MOL0     H66375   1.383   8.452   1.885 -1.4624  1.6167  2.1818
  503MOL0     H66376   1.201   8.626   1.807 -1.7662 -0.4488 -0.4335
  503MOL0     H66377   1.144   8.529   1.940 -0.2053 -1.9652 -0.2422
  503MOL0     H66378   2.088   8.456   1.201 -1.2419  0.7732  1.0149
  503MOL0     H66379   2.292   8.604   1.148 -1.0662 -0.4327 -1.5991
  503MOL0     H66380   2.471   8.891   1.041  1.6261 -0.7252  0.0670
  503MOL0     H66381   2.630   9.035   0.911  1.5378 -0.9952  1.1762
  503MOL0     H66382   4.278   9.135  -0.096 -1.7150  0.9196  2.9450
  503MOL0     H66383   4.510   9.136  -0.037  2.0447  0.4377  1.7284
  503MOL0     H66384   4.894   8.903   0.087 -1.1108  2.1897 -1.5441
  503MOL0     H66385   5.144   8.949   0.140 -0.5154 -0.7719  0.3390
  503MOL0     H66386   5.266   9.085   0.524  0.1947 -2.4656 -2.9125
  503MOL0     H66387   5.236   9.237   0.438 -1.1638  0.4600  2.8346
  503MOL0     H66388   5.465   9.225   0.342 -3.2977 -0.2470 -0.2357
  503MOL0     H66389   5.501   9.206   0.506  1.4622  2.6081 -2.3938
  503MOL0     H66390   5.486   8.981   0.314 -0.3361 -1.4274  1.2594
  503MOL0     H66391   5.501   8.960   0.495 -0.7111 -0.8681 -0.0155
  503MOL0     H66392   5.714   9.095   0.485 -0.8651  0.3398  1.2123
  503MOL0     H66393   5.712   8.937   0.398  1.7175 -0.3682 -1.2815
  503MOL0     H66394   5.844   9.246   0.138  3.0389  0.2096  2.8915
  503MOL0     H66395   5.037   9.172   0.473  2.0190  1.9676 -1.5224
  503MOL0     H66396   4.803   9.158   0.434 -0.9700 -0.3917 -1.3543
  504MOL0     O66397   7.406   6.791   0.849  0.3085  0.0606  0.1829
  504MOL0     C66398   7.480   6.881   0.901 -0.3959 -0.0379  0.3599
  504MOL0     O66399   7.440   6.964   1.004 -0.5239  0.0235  0.2821
  504MOL0     C66400   7.313   6.970   1.040 -0.4152 -0.5916  0.6272
  504MOL0     C66401   7.201   6.963   0.948 -0.3189  0.9368 -0.3986
  504MOL0     C66402   7.079   6.966   1.001  0.1256  0.5302 -0.5289
  504MOL0     C66403   7.052   6.969   1.139  1.2663 -0.1966  0.4485
  504MOL0     O66404   6.922   6.970   1.189  0.2245 -0.0169 -0.1309
  504MOL0     C66405   6.829   7.066   1.132 -0.2369  0.3405  0.1163
  504MOL0     C66406   6.707   7.102   1.212  0.2763 -0.1629  0.7559
  504MOL0     C66407   6.742   7.147   1.354  0.4129 -0.3388  0.2749
  504MOL0     C66408   6.623   7.112   1.445 -0.5775 -1.2567  0.0240
  504MOL0     C66409   6.495   7.205   1.420  0.3263  0.9052 -0.1038
  504MOL0     C66410   6.401   7.197   1.546  0.1056 -0.5269 -0.3383
  504MOL0     C66411   6.353   7.056   1.581 -0.5131 -0.2119 -0.2089
  504MOL0     C66412   6.205   7.042   1.617 -0.5608 -0.1315 -0.2957
  504MOL0     N66413   6.111   7.082   1.505  1.1908  0.7160  0.3649
  504MOL0     C66414   5.977   7.088   1.511  0.5110  0.6101  0.0959
  504MOL0     C66415   5.933   7.102   1.390 -0.7137  0.1914  0.1103
  504MOL0     C66416   5.795   7.117   1.332 -0.3955 -0.6024 -0.0667
  504MOL0     C66417   5.761   7.264   1.295 -0.2397 -0.7539  0.2617
  504MOL0     C66418   5.648   7.276   1.199  0.0548 -0.5360 -1.5674
  504MOL0     C66419   5.662   7.209   1.063  0.3019 -1.4457  0.7271
  504MOL0     O66420   5.601   7.296   0.965 -0.1411  0.2410 -1.6904
  504MOL0     C66421   5.462   7.293   0.951  0.1164  0.5757 -0.0640
  504MOL0     C66422   5.375   7.211   1.022 -0.1173  0.0569 -0.2485
  504MOL0     C66423   5.242   7.195   0.982 -0.2460 -0.1383 -0.7005
  504MOL0     C66424   5.193   7.270   0.880  0.1346  0.1996 -0.3522
  504MOL0     C66425   5.050   7.255   0.849 -0.7776 -0.3260 -0.4116
  504MOL0     O66426   5.014   7.313   0.732  0.3352 -0.0990  0.5488
  504MOL0     C66427   4.886   7.301   0.679 -0.2341  0.1682 -0.1936
  504MOL0     C66428   4.831   7.417   0.618  0.6461 -0.1534  0.1237
  504MOL0     C66429   4.694   7.405   0.568  0.3659 -0.1107  0.3842
  504MOL0     C66430   4.624   7.287   0.570 -0.5027 -0.6580  0.2165
  504MOL0     O66431   4.497   7.278   0.527  0.6561  0.8011  0.0193
  504MOL0     C66432   4.403   7.343   0.626 -0.1833  0.4060 -0.1849
  504MOL0     C66433   4.275   7.267   0.644 -0.4154 -0.4915 -0.1053
  504MOL0     C66434   4.205   7.244   0.507  0.5117 -0.0851  0.3534
  504MOL0     C66435   4.093   7.146   0.544  0.4714 -0.1628 -0.1640
  504MOL0     C66436   4.016   7.085   0.416 -0.2247 -0.0186 -0.6251
  504MOL0     C66437   3.893   7.159   0.376 -1.2747 -0.4909  0.2174
  504MOL0     C66438   3.778   7.117   0.462 -0.3508 -0.0955 -0.5053
  504MOL0     C66439   3.648   7.135   0.381  0.7235  0.2784  0.7627
  504MOL0    Cl66440   3.609   7.303   0.394 -0.0988  0.0390 -0.0613
  504MOL0     C66441   4.690   7.181   0.627  0.1847  0.0191 -0.3059
  504MOL0     C66442   4.810   7.185   0.687 -0.6070  0.1676 -0.1697
  504MOL0     O66443   4.975   7.193   0.926 -0.8211 -0.9536  0.9721
  504MOL0     C66444   5.282   7.355   0.809  1.1651 -0.7488 -0.2467
  504MOL0     C66445   5.414   7.363   0.839  0.1991 -0.0314 -0.5607
  504MOL0     N66446   6.043   7.125   1.310  0.0332 -1.4437 -0.4277
  504MOL0     N66447   6.150   7.106   1.374  0.0649  0.9698  0.4117
  504MOL0     C66448   7.155   6.982   1.223 -0.4548 -0.7591  1.2105
  504MOL0     C66449   7.286   6.980   1.175  0.1160  0.2559 -0.1646
  504MOL0     C66450   7.603   6.913   0.830  0.6260 -0.5299  0.2903
  504MOL0     C66451   7.666   6.820   0.746  0.0565 -0.2566  0.1795
  504MOL0     C66452   7.790   6.849   0.698  1.0474 -0.5584 -1.1333
  504MOL0     C66453   7.860   6.964   0.724  0.1273 -0.2346 -0.2729
  504MOL0     O66454   7.983   6.979   0.667 -0.4019  0.3451 -0.1645
  504MOL0     C66455   8.083   6.956   0.769 -0.2435  0.9311 -0.3367
  504MOL0     C66456   8.219   6.994   0.713 -0.1830 -0.8116 -0.2817
  504MOL0     C66457   8.258   6.897   0.598  0.0338 -0.3472 -0.2337
  504MOL0     C66458   8.409   6.926   0.555  1.2327 -0.5045 -0.3926
  504MOL0     C66459   8.451   6.827   0.461  0.6122  0.1364  0.6171
  504MOL0     C66460   8.449   6.740   0.375 -1.0217 -0.3554  0.8037
  504MOL0     C66461   7.793   7.064   0.798 -0.6337  0.1036  0.0457
  504MOL0     C66462   7.671   7.035   0.861 -0.3863  0.5471 -0.1318
  504MOL0     H66463   7.223   6.952   0.843 -5.1601 -0.3560 -1.5563
  504MOL0     H66464   6.989   6.961   0.940 -0.4995 -0.4127  0.4507
  504MOL0     H66465   6.796   7.028   1.035 -2.3047 -0.6587  1.1371
  504MOL0     H66466   6.887   7.158   1.119 -0.0031  0.1178 -0.4325
  504MOL0     H66467   6.661   7.004   1.224  0.3882 -0.3781 -0.5052
  504MOL0     H66468   6.632   7.165   1.163  0.6909 -1.0861 -1.1224
  504MOL0     H66469   6.763   7.255   1.353  0.0527 -0.0242  4.6757
  504MOL0     H66470   6.836   7.107   1.392  1.1880  2.4774  1.6040
  504MOL0     H66471   6.595   7.006   1.437 -2.5843 -0.7208 -0.7625
  504MOL0     H66472   6.659   7.122   1.547 -0.1364  0.8172 -0.2942
  504MOL0     H66473   6.439   7.177   1.330 -1.4127  0.6138  1.0027
  504MOL0     H66474   6.526   7.308   1.402  0.5157  0.8273 -0.2174
  504MOL0     H66475   6.319   7.261   1.513 -0.0121 -1.2523 -1.5197
  504MOL0     H66476   6.435   7.260   1.629 -2.3465 -2.1937  2.0995
  504MOL0     H66477   6.378   6.982   1.503 -2.1128  0.2604 -1.2116
  504MOL0     H66478   6.423   7.024   1.659  0.0303 -2.4885 -1.5332
  504MOL0     H66479   6.188   7.108   1.702 -0.8990 -1.0380  0.3570
  504MOL0     H66480   6.191   6.939   1.651 -0.9194 -0.4745 -1.4199
  504MOL0     H66481   5.908   7.101   1.594 -0.6247 -1.0462 -0.5621
  504MOL0     H66482   5.721   7.073   1.398 -1.2601  1.8146  0.6869
  504MOL0     H66483   5.795   7.055   1.241  1.1943  0.4509 -0.8344
  504MOL0     H66484   5.847   7.322   1.261 -1.3057 -0.3593 -1.9522
  504MOL0     H66485   5.729   7.302   1.392 -1.2856 -3.1572  0.9301
  504MOL0     H66486   5.562   7.235   1.254  0.3193  0.0055 -0.7262
  504MOL0     H66487   5.647   7.385   1.195  2.8473 -0.4489 -1.5646
  504MOL0     H66488   5.623   7.107   1.063  2.4580 -2.3734 -1.5873
  504MOL0     H66489   5.763   7.206   1.021 -0.1402  0.6192 -0.6372
  504MOL0     H66490   5.414   7.152   1.105  1.6573  1.4850  0.0135
  504MOL0     H66491   5.183   7.121   1.036  1.0541 -1.5626 -1.1331
  504MOL0     H66492   4.881   7.512   0.603 -0.2890  1.2262  4.5027
  504MOL0     H66493   4.643   7.495   0.536  0.1074 -0.4409 -0.1447
  504MOL0     H66494   4.377   7.436   0.574  0.5185  1.6481  1.5831
  504MOL0     H66495   4.447   7.354   0.726 -0.4634 -1.0191  0.1128
  504MOL0     H66496   4.206   7.338   0.691 -1.0247 -0.4567 -1.0222
  504MOL0     H66497   4.302   7.180   0.704  1.5607  0.3227  0.2423
  504MOL0     H66498   4.268   7.195   0.433  2.2338 -1.1559  2.4241
  504MOL0     H66499   4.170   7.334   0.454  0.4902 -0.6045 -0.5314
  504MOL0     H66500   4.134   7.064   0.604 -1.7052 -0.6535  0.7957
  504MOL0     H66501   4.024   7.199   0.612  1.9890 -1.3681  2.4645
  504MOL0     H66502   3.988   6.984   0.446  1.0163 -0.5197 -1.1115
  504MOL0     H66503   4.086   7.076   0.333 -0.4785  3.1773 -1.3321
  504MOL0     H66504   3.873   7.134   0.272 -1.3560 -0.5047  0.2367
  504MOL0     H66505   3.913   7.266   0.385 -0.8993 -0.4991 -0.4597
  504MOL0     H66506   3.788   7.011   0.490 -0.2334  0.3416  1.2457
  504MOL0     H66507   3.769   7.168   0.559  1.7480 -4.3857  2.2965
  504MOL0     H66508   3.562   7.086   0.429  1.0012  2.0785  3.3353
  504MOL0     H66509   3.666   7.102   0.279 -1.1806  1.2881  0.0520
  504MOL0     H66510   4.644   7.083   0.630 -1.4521  0.7035 -1.5186
  504MOL0     H66511   4.859   7.099   0.732 -1.5964  0.7813  2.2160
  504MOL0     H66512   5.247   7.417   0.727  2.5122 -1.0633 -1.0953
  504MOL0     H66513   5.480   7.425   0.779  1.0985 -0.1600  0.2643
  504MOL0     H66514   7.127   7.009   1.324  0.1013  2.4301  0.6346
  504MOL0     H66515   7.368   6.986   1.246  0.1253  1.9963 -0.2838
  504MOL0     H66516   7.632   6.721   0.717 -1.4984  1.1969 -3.5623
  504MOL0     H66517   7.842   6.784   0.629 -1.7470 -1.7028 -2.3430
  504MOL0     H66518   8.089   6.852   0.802 -0.1133  0.5955 -1.3878
  504MOL0     H66519   8.061   7.019   0.855  0.8082 -0.4113  0.9721
  504MOL0     H66520   8.217   7.099   0.684  0.2210  0.0974  2.6186
  504MOL0     H66521   8.277   6.981   0.805 -0.1211 -2.4047 -0.5158
  504MOL0     H66522   8.198   6.906   0.507 -2.0389 -1.0353  0.9996
  504MOL0     H66523   8.251   6.802   0.650  1.1184 -0.2184  0.1722
  504MOL0     H66524   8.408   7.024   0.508  2.5375  0.0948  0.7813
  504MOL0     H66525   8.461   6.917   0.651 -0.3823 -0.5841  0.5144
  504MOL0     H66526   8.428   6.659   0.308  0.1225 -0.1039  0.1298
  504MOL0     H66527   7.854   7.150   0.822  0.5648 -1.2072  2.0102
  504MOL0     H66528   7.625   7.095   0.939 -1.4010 -2.7971  2.0884
  505MOL0     O66529   3.183   4.793   3.239 -0.2945 -0.4271  0.0258
  505MOL0     C66530   3.162   4.697   3.306  0.0132  0.0146  0.4899
  505MOL0     O66531   3.036   4.637   3.330  0.4053  0.4080 -0.4065
  505MOL0     C66532   2.920   4.674   3.259  0.1155 -0.8966 -0.2928
  505MOL0     C66533   2.806   4.712   3.329  0.0486 -0.0312 -0.0344
  505MOL0     C66534   2.686   4.747   3.255 -0.2486 -0.7629 -0.1011
  505MOL0     C66535   2.681   4.758   3.116 -0.1987  0.0946  0.5184
  505MOL0     O66536   2.560   4.788   3.049  0.3953  0.0919  0.1482
  505MOL0     C66537   2.566   4.786   2.912 -0.0224  0.2853  0.6713
  505MOL0     C66538   2.425   4.814   2.860  0.6516 -0.6535 -0.5260
  505MOL0     C66539   2.350   4.927   2.932  0.1493 -0.3442 -0.6750
  505MOL0     C66540   2.193   4.936   2.904  0.1707  0.2008  0.1978
  505MOL0     C66541   2.113   5.025   3.002  0.3412 -0.3705  0.0934
  505MOL0     C66542   1.958   4.994   2.999  0.7683 -0.6263  0.0221
  505MOL0     C66543   1.894   5.056   2.868  0.2002  0.4389 -0.8491
  505MOL0     C66544   1.864   5.205   2.881  0.2099 -0.5753  0.4477
  505MOL0     N66545   1.743   5.241   2.958  0.5436  0.2896  0.2873
  505MOL0     C66546   1.722   5.225   3.095 -0.4571  0.0932  0.0320
  505MOL0     C66547   1.586   5.244   3.115  0.0255  0.3779 -0.8562
  505MOL0     C66548   1.523   5.235   3.254  0.5630  0.0900  0.4671
  505MOL0     C66549   1.445   5.357   3.292  0.3898  0.2382 -0.4966
  505MOL0     C66550   1.383   5.344   3.430  0.9592 -0.1877 -0.5902
  505MOL0     C66551   1.299   5.477   3.457 -0.3002 -0.0990 -0.5031
  505MOL0     O66552   1.259   5.500   3.596 -0.3865 -0.2307  0.7687
  505MOL0     C66553   1.184   5.603   3.627  0.8668  0.1525  0.5516
  505MOL0     C66554   1.150   5.707   3.545  0.3931 -0.2736  1.1839
  505MOL0     C66555   1.058   5.806   3.580 -0.0814  0.7878  0.2832
  505MOL0     C66556   0.994   5.798   3.706  0.4597 -0.3422 -0.4150
  505MOL0     C66557   0.908   5.908   3.769  0.0029 -0.2113 -0.0115
  505MOL0     O66558   0.830   5.983   3.683 -0.6008  0.0384 -0.0449
  505MOL0     C66559   0.754   6.085   3.731  0.1615 -0.2547 -0.1128
  505MOL0     C66560   0.665   6.067   3.838  0.1700  0.1282  0.7252
  505MOL0     C66561   0.578   6.167   3.888  0.5348  0.0931 -0.3193
  505MOL0     C66562   0.586   6.293   3.823  0.2487  0.3263  0.1229
  505MOL0     O66563   0.521   6.406   3.857  0.0791  0.1159 -0.1275
  505MOL0     C66564   0.470   6.430   3.993 -0.3742 -0.2822 -0.5823
  505MOL0     C66565   0.348   6.516   3.977  0.4517 -1.1111  0.1065
  505MOL0     C66566   0.300   6.573   4.114  0.0502  0.7148  0.9711
  505MOL0     C66567   0.236   6.457   4.191 -0.1358  0.2834 -0.1108
  505MOL0     C66568   0.145   6.498   4.308 -0.8516 -0.0645 -0.0629
  505MOL0     C66569   0.012   6.567   4.260  0.1748  0.1914 -0.8558
  505MOL0     C66570  -0.097   6.562   4.364  0.3429 -0.2408 -0.2684
  505MOL0     C66571  -0.214   6.664   4.347 -0.6628 -1.0904  0.6581
  505MOL0    Cl66572  -0.306   6.640   4.491  0.3049  0.0944 -0.0582
  505MOL0     C66573   0.666   6.306   3.712 -0.8384  0.0852 -0.4365
  505MOL0     C66574   0.739   6.201   3.661  0.0415 -0.5172 -0.6734
  505MOL0     O66575   0.904   5.926   3.889 -0.1371  0.8253  0.5663
  505MOL0     C66576   1.025   5.697   3.793 -0.7485 -0.1781  0.5516
  505MOL0     C66577   1.118   5.603   3.749 -0.1737 -0.1079 -0.1639
  505MOL0     N66578   1.533   5.285   2.996 -0.5416 -0.5943  0.2362
  505MOL0     N66579   1.619   5.250   2.907 -0.2959  0.6654  0.5323
  505MOL0     C66580   2.801   4.706   3.054 -0.5095 -0.7414 -0.1823
  505MOL0     C66581   2.914   4.670   3.127 -0.4080 -0.5697 -0.9250
  505MOL0     C66582   3.268   4.657   3.402  0.0942  0.2092  0.3212
  505MOL0     C66583   3.254   4.641   3.542 -0.2581 -0.7951 -0.8304
  505MOL0     C66584   3.359   4.618   3.635  0.4670  0.1285 -0.1485
  505MOL0     C66585   3.487   4.608   3.595 -0.2803  0.2616  0.1913
  505MOL0     O66586   3.579   4.561   3.684  0.3568  0.5039  0.1228
  505MOL0     C66587   3.707   4.521   3.646  0.0069  0.6386  0.5128
  505MOL0     C66588   3.804   4.537   3.762  1.0415 -1.2167 -0.7712
  505MOL0     C66589   3.955   4.501   3.750  0.1835  0.0384 -0.5430
  505MOL0     C66590   4.034   4.507   3.887  0.4655  0.8585 -0.3643
  505MOL0     C66591   4.161   4.424   3.897  0.7792 -0.7132  0.9183
  505MOL0     C66592   4.274   4.376   3.892 -0.0036 -1.0989 -1.0597
  505MOL0     C66593   3.510   4.634   3.454  0.0434 -0.4309  0.5511
  505MOL0     C66594   3.405   4.655   3.365  0.4290 -0.5065 -0.6164
  505MOL0     H66595   2.799   4.721   3.437  0.2110 -1.0160  0.0720
  505MOL0     H66596   2.590   4.749   3.306  1.1729 -2.5982  2.8966
  505MOL0     H66597   2.600   4.695   2.862  0.3168  0.1586  1.1243
  505MOL0     H66598   2.628   4.868   2.873  1.6049 -0.7806  0.9137
  505MOL0     H66599   2.366   4.723   2.876 -0.5613 -0.0063 -1.2172
  505MOL0     H66600   2.426   4.837   2.754  2.6853  1.8713 -0.0643
  505MOL0     H66601   2.398   5.022   2.909  0.4240 -0.6601 -1.4237
  505MOL0     H66602   2.365   4.915   3.040  3.7312 -0.6977 -1.0861
  505MOL0     H66603   2.166   4.962   2.801 -0.4159 -0.7974  0.0926
  505MOL0     H66604   2.146   4.838   2.912 -0.3574  0.2293 -1.8544
  505MOL0     H66605   2.138   5.129   2.978  0.1374 -0.5678 -1.0629
  505MOL0     H66606   2.134   4.993   3.104 -1.6444 -1.8438  0.0858
  505MOL0     H66607   1.897   5.024   3.085  0.5379 -1.6931  0.2427
  505MOL0     H66608   1.941   4.886   3.000 -4.9772 -0.0438  2.0308
  505MOL0     H66609   1.963   5.038   2.786 -0.0813  1.2483 -1.2793
  505MOL0     H66610   1.797   5.010   2.845 -0.5518  2.9559 -3.2553
  505MOL0     H66611   1.825   5.235   2.783 -3.2722 -4.5233  0.3375
  505MOL0     H66612   1.951   5.268   2.902  1.5214 -2.3722  0.6465
  505MOL0     H66613   1.785   5.203   3.180 -0.1604 -1.6041 -0.5979
  505MOL0     H66614   1.602   5.206   3.323  0.7991  0.5121  0.3732
  505MOL0     H66615   1.458   5.148   3.240  1.3362 -0.3605 -0.5285
  505MOL0     H66616   1.365   5.366   3.218  0.4703  0.1022 -0.6006
  505MOL0     H66617   1.499   5.452   3.293  1.8555 -0.5590 -1.1993
  505MOL0     H66618   1.306   5.267   3.433 -0.6970  1.3386 -1.3998
  505MOL0     H66619   1.455   5.333   3.511 -0.9733  2.2993  1.6480
  505MOL0     H66620   1.213   5.486   3.390 -0.5705  0.9581 -0.0417
  505MOL0     H66621   1.364   5.561   3.432 -2.4335  1.4573 -1.0920
  505MOL0     H66622   1.191   5.717   3.445  2.9799 -0.3725  2.1628
  505MOL0     H66623   1.043   5.896   3.522 -0.9836  0.8356  0.5849
  505MOL0     H66624   0.677   5.966   3.877  1.6248 -2.0485 -4.4641
  505MOL0     H66625   0.504   6.142   3.963 -1.7608  2.1983 -1.7318
  505MOL0     H66626   0.545   6.482   4.053  1.3298 -2.0850 -1.0236
  505MOL0     H66627   0.444   6.339   4.047 -2.1028  0.9241  0.7120
  505MOL0     H66628   0.267   6.454   3.936 -5.3978  3.9502  2.3965
  505MOL0     H66629   0.354   6.595   3.901 -2.9698 -1.6576 -0.9373
  505MOL0     H66630   0.227   6.652   4.097  1.3455  1.7259 -0.1533
  505MOL0     H66631   0.381   6.619   4.173  0.3382  0.3435  0.8755
  505MOL0     H66632   0.174   6.404   4.118  0.7338  2.2575 -2.4164
  505MOL0     H66633   0.304   6.383   4.235 -0.8366  0.6076  1.5806
  505MOL0     H66634   0.204   6.561   4.376 -0.8932 -0.2431  0.1405
  505MOL0     H66635   0.117   6.409   4.365  2.4665 -1.3237 -0.1619
  505MOL0     H66636  -0.029   6.509   4.176 -1.9885  0.5227 -0.0773
  505MOL0     H66637   0.022   6.673   4.235 -1.4500  0.3401 -1.0124
  505MOL0     H66638  -0.139   6.461   4.369  3.3190 -1.5302  2.0660
  505MOL0     H66639  -0.045   6.589   4.456 -3.0098  1.9907  1.1252
  505MOL0     H66640  -0.259   6.645   4.249  2.6783  0.6122 -1.3949
  505MOL0     H66641  -0.176   6.766   4.357  0.0314 -1.5309  3.2746
  505MOL0     H66642   0.672   6.397   3.654  3.0172 -0.6667 -1.5041
  505MOL0     H66643   0.793   6.226   3.571 -2.3793 -1.3540 -2.4628
  505MOL0     H66644   0.969   5.700   3.887 -2.1359 -0.7352 -0.2279
  505MOL0     H66645   1.152   5.528   3.820 -2.4369 -1.5137 -0.4563
  505MOL0     H66646   2.808   4.700   2.946  0.5597  2.3159 -0.3965
  505MOL0     H66647   3.004   4.632   3.079  1.3361  0.5452  1.2564
  505MOL0     H66648   3.154   4.662   3.578 -0.7363 -1.0272 -1.9681
  505MOL0     H66649   3.331   4.604   3.739 -0.3223 -1.9608 -0.5909
  505MOL0     H66650   3.752   4.580   3.566  0.2646  0.2795  0.3876
  505MOL0     H66651   3.714   4.415   3.619  3.9387  0.0850  2.9218
  505MOL0     H66652   3.795   4.640   3.798 -0.2446 -1.9943  1.3057
  505MOL0     H66653   3.764   4.492   3.853  2.7567 -1.4349 -0.0789
  505MOL0     H66654   4.009   4.556   3.673 -0.2200  0.3148 -0.6299
  505MOL0     H66655   3.960   4.400   3.708 -1.6125  0.1640 -1.1463
  505MOL0     H66656   4.055   4.613   3.907 -2.0612  1.4131 -0.3414
  505MOL0     H66657   3.972   4.476   3.972  1.9052 -0.3990  0.2745
  505MOL0     H66658   4.378   4.350   3.898  0.1231 -0.2700  0.9841
  505MOL0     H66659   3.609   4.619   3.412 -0.0109 -0.5560  0.4663
  505MOL0     H66660   3.427   4.676   3.261  1.5875  0.4999 -0.1842
  506MOL0     O66661   0.567   2.046   1.006 -0.1253 -0.0139 -0.2536
  506MOL0     C66662   0.622   1.953   1.062  0.3344  0.3333  0.3742
  506MOL0     O66663   0.560   1.862   1.146 -0.5618 -0.3919 -0.5324
  506MOL0     C66664   0.430   1.859   1.180 -0.7687  0.8055 -0.0582
  506MOL0     C66665   0.328   1.916   1.104 -0.1170  0.5570  0.4734
  506MOL0     C66666   0.199   1.886   1.129  0.2318 -0.3834  0.8394
  506MOL0     C66667   0.169   1.826   1.251 -0.0298  0.0504  0.3433
  506MOL0     O66668   0.033   1.793   1.271 -0.4802  0.0952 -0.1033
  506MOL0     C66669  -0.015   1.713   1.385  0.0808 -0.1166 -0.5900
  506MOL0     C66670  -0.148   1.662   1.336  0.8074  0.6368 -1.0157
  506MOL0     C66671  -0.261   1.771   1.340 -0.5104  0.9085 -0.2535
  506MOL0     C66672  -0.340   1.781   1.472  0.2956  0.7313  0.3788
  506MOL0     C66673  -0.484   1.827   1.456 -0.0583 -0.2666 -0.1792
  506MOL0     C66674  -0.499   1.966   1.399 -0.7961 -0.4972  0.0112
  506MOL0     C66675  -0.422   2.080   1.472  0.2289 -0.6145 -0.0630
  506MOL0     C66676  -0.453   2.108   1.624 -0.2094  0.0488 -0.7877
  506MOL0     N66677  -0.598   2.145   1.641 -0.2722 -0.3696 -1.5150
  506MOL0     C66678  -0.651   2.269   1.617  0.8840  0.3491  0.0212
  506MOL0     C66679  -0.785   2.261   1.657  0.1333 -0.0673  0.2929
  506MOL0     C66680  -0.871   2.379   1.647  0.1711 -0.2947 -1.2139
  506MOL0     C66681  -0.929   2.383   1.510 -0.1686  1.1588 -0.4962
  506MOL0     C66682  -1.030   2.276   1.471  0.6305 -0.3124  0.4912
  506MOL0     C66683  -1.178   2.299   1.533 -0.2406  0.4794  0.8680
  506MOL0     O66684  -1.255   2.186   1.508  0.2234 -0.2889 -0.3814
  506MOL0     C66685  -1.387   2.205   1.523  0.1555 -0.5903 -1.0526
  506MOL0     C66686  -1.477   2.102   1.500 -0.7319  0.2361 -0.0978
  506MOL0     C66687  -1.614   2.111   1.534  0.6807  0.2002  0.0989
  506MOL0     C66688  -1.676   2.230   1.582 -0.6711  0.2651 -0.0752
  506MOL0     C66689  -1.821   2.246   1.606  0.3096  0.5939 -0.0568
  506MOL0     O66690  -1.894   2.134   1.594  1.0204  0.2169 -0.5726
  506MOL0     C66691  -2.035   2.144   1.612  0.0211  0.3248 -0.0593
  506MOL0     C66692  -2.113   2.250   1.662  0.6365  0.2727  0.7951
  506MOL0     C66693  -2.253   2.237   1.683 -0.3400 -0.2839  0.7959
  506MOL0     C66694  -2.318   2.118   1.649  0.5043  0.3123  1.1967
  506MOL0     O66695  -2.458   2.109   1.648  0.0798  0.4749  0.2576
  506MOL0     C66696  -2.512   1.996   1.573  0.0092 -0.4044 -0.0012
  506MOL0     C66697  -2.661   2.010   1.559 -0.2964 -0.7477 -0.6701
  506MOL0     C66698  -2.671   2.116   1.444 -0.1113 -0.2685  0.1467
  506MOL0     C66699  -2.815   2.118   1.408  0.2083 -0.3324  0.1842
  506MOL0     C66700  -2.838   2.199   1.277 -0.3075 -0.2507 -0.7917
  506MOL0     C66701  -2.971   2.182   1.210 -0.5328 -0.3293 -0.4532
  506MOL0     C66702  -2.974   2.249   1.074 -0.0717 -1.0510 -1.1025
  506MOL0     C66703  -3.072   2.189   0.976 -0.2933 -0.3207 -0.5675
  506MOL0    Cl66704  -3.233   2.232   1.057  0.2349  0.3058 -0.8156
  506MOL0     C66705  -2.233   2.010   1.619 -0.1099  0.1294 -0.9601
  506MOL0     C66706  -2.096   2.024   1.613 -0.5181  0.6606 -1.1384
  506MOL0     O66707  -1.861   2.362   1.624  0.4230  0.5269  0.1152
  506MOL0     C66708  -1.584   2.330   1.609  0.4394  0.0611  0.6101
  506MOL0     C66709  -1.446   2.319   1.576  0.2297 -0.4742 -0.6963
  506MOL0     N66710  -0.810   2.137   1.711  0.5983 -0.6871  1.2076
  506MOL0     N66711  -0.698   2.070   1.696  0.1807  1.0402 -0.0872
  506MOL0     C66712   0.259   1.787   1.335 -0.8180  0.4806 -0.4197
  506MOL0     C66713   0.394   1.785   1.298 -0.5660 -0.2868 -0.1448
  506MOL0     C66714   0.758   1.926   1.048  0.1201 -0.2311  0.7589
  506MOL0     C66715   0.844   2.028   0.992 -0.0885 -0.2958 -0.0170
  506MOL0     C66716   0.984   2.011   1.001  0.0260  0.7181  1.2681
  506MOL0     C66717   1.033   1.883   1.038 -0.3174  0.1468 -0.2576
  506MOL0     O66718   1.166   1.860   1.054 -0.0350  0.2191  0.5285
  506MOL0     C66719   1.263   1.942   0.982  0.2606 -0.1219  1.0522
  506MOL0     C66720   1.313   2.052   1.078  0.5905  1.7116 -0.0032
  506MOL0     C66721   1.399   1.979   1.168 -0.2966  0.9552 -0.4865
  506MOL0     C66722   1.442   2.069   1.286 -0.1366  0.7633  0.0874
  506MOL0     C66723   1.571   2.013   1.338 -0.0566 -0.4263  0.1047
  506MOL0     C66724   1.674   1.974   1.386 -0.3010 -0.4064 -0.3354
  506MOL0     C66725   0.951   1.775   1.082 -0.2727 -0.4521  0.1510
  506MOL0     C66726   0.816   1.807   1.074  0.6067  0.1245 -0.3555
  506MOL0     H66727   0.351   1.968   1.012  0.8601 -1.4307 -0.4678
  506MOL0     H66728   0.117   1.917   1.066  0.9601  2.4339  1.1367
  506MOL0     H66729  -0.035   1.768   1.478 -1.9460 -2.7977  0.7059
  506MOL0     H66730   0.048   1.627   1.406 -2.7642 -1.9383  1.0620
  506MOL0     H66731  -0.181   1.570   1.386  0.6815 -0.0084 -2.2596
  506MOL0     H66732  -0.137   1.634   1.232 -0.1595 -0.5434 -0.8192
  506MOL0     H66733  -0.326   1.749   1.256  1.7878 -2.7634 -1.2929
  506MOL0     H66734  -0.218   1.868   1.311 -0.0522  1.2147  1.3143
  506MOL0     H66735  -0.348   1.680   1.512  1.1368  1.3558  2.2802
  506MOL0     H66736  -0.285   1.845   1.542  1.9753 -0.1707 -0.0417
  506MOL0     H66737  -0.532   1.826   1.555  0.9555  0.9610  0.3608
  506MOL0     H66738  -0.539   1.761   1.388 -3.4043  0.2002  1.8564
  506MOL0     H66739  -0.602   1.998   1.387 -1.7710 -3.3167  0.1355
  506MOL0     H66740  -0.472   1.961   1.293 -0.7874 -1.4036  0.0476
  506MOL0     H66741  -0.314   2.069   1.455 -0.1092 -1.1149 -2.2088
  506MOL0     H66742  -0.429   2.170   1.410  3.3517 -0.9121 -1.0071
  506MOL0     H66743  -0.388   2.190   1.656 -2.3880  0.5771  2.9028
  506MOL0     H66744  -0.421   2.024   1.686  0.8611  0.0175 -1.3704
  506MOL0     H66745  -0.602   2.361   1.586  0.2404  0.0002 -2.2204
  506MOL0     H66746  -0.820   2.472   1.672 -0.4787 -0.0528 -0.7655
  506MOL0     H66747  -0.948   2.374   1.725  4.4080 -1.5270  3.4179
  506MOL0     H66748  -0.852   2.363   1.435 -0.2735 -0.7315 -0.1364
  506MOL0     H66749  -0.966   2.484   1.489 -1.0957  1.1308  0.8999
  506MOL0     H66750  -1.037   2.275   1.362 -4.8250 -2.8958  0.5551
  506MOL0     H66751  -1.005   2.175   1.505 -0.4855 -0.6783  0.2675
  506MOL0     H66752  -1.221   2.383   1.478 -0.4614 -0.0929  0.1413
  506MOL0     H66753  -1.171   2.316   1.641 -0.2320 -0.9387  1.1123
  506MOL0     H66754  -1.457   2.002   1.463 -1.3080  1.5011 -4.3774
  506MOL0     H66755  -1.677   2.027   1.507 -0.0385  0.6083  0.4671
  506MOL0     H66756  -2.073   2.346   1.694 -0.0573  0.6776  0.4867
  506MOL0     H66757  -2.303   2.327   1.716  4.2917  3.4095 -1.0816
  506MOL0     H66758  -2.491   1.903   1.626  0.0907  0.3291  1.2931
  506MOL0     H66759  -2.473   2.000   1.471 -0.8163 -0.8503 -0.3357
  506MOL0     H66760  -2.705   2.041   1.654 -1.0623  0.6630 -1.4333
  506MOL0     H66761  -2.710   1.921   1.518  0.8859 -2.6946  1.8887
  506MOL0     H66762  -2.608   2.091   1.358 -0.4664  1.0145 -0.5115
  506MOL0     H66763  -2.647   2.216   1.480  1.9491 -1.1292  1.3154
  506MOL0     H66764  -2.867   2.023   1.394 -0.2752 -0.5366  2.9327
  506MOL0     H66765  -2.870   2.169   1.488  0.4051  0.9219 -0.4404
  506MOL0     H66766  -2.767   2.165   1.202  1.5228  3.1261 -0.7853
  506MOL0     H66767  -2.823   2.304   1.304  1.7120 -0.8339  0.5236
  506MOL0     H66768  -3.037   2.224   1.286  2.0559  0.3318  1.5759
  506MOL0     H66769  -2.986   2.074   1.196 -0.7980 -0.1693 -1.4601
  506MOL0     H66770  -2.996   2.356   1.087 -1.8406 -0.9089 -4.3151
  506MOL0     H66771  -2.876   2.233   1.029  0.5298 -4.6078  1.0637
  506MOL0     H66772  -3.042   2.083   0.972  0.7805  0.0218 -2.5995
  506MOL0     H66773  -3.065   2.224   0.873 -3.7635 -1.7770 -1.4585
  506MOL0     H66774  -2.281   1.913   1.622 -2.2793  1.1300 -1.6332
  506MOL0     H66775  -2.033   1.935   1.614 -1.6102 -0.1567  0.5610
  506MOL0     H66776  -1.616   2.425   1.651  1.3971  0.5023  0.3658
  506MOL0     H66777  -1.388   2.408   1.596  1.5620 -1.1357 -1.4286
  506MOL0     H66778   0.228   1.747   1.431  0.9447 -0.7986 -0.3249
  506MOL0     H66779   0.470   1.741   1.362 -1.6111 -3.6052 -0.9631
  506MOL0     H66780   0.803   2.124   0.963 -0.2227 -0.2155  0.4220
  506MOL0     H66781   1.049   2.084   0.954 -1.2796  1.5801  0.7483
  506MOL0     H66782   1.231   1.980   0.885 -1.4096 -1.0345  1.2080
  506MOL0     H66783   1.340   1.867   0.961  0.0370 -0.0363 -0.1064
  506MOL0     H66784   1.373   2.120   1.017  1.1784  0.1165 -1.2793
  506MOL0     H66785   1.223   2.093   1.126 -0.3884 -1.7327  1.4012
  506MOL0     H66786   1.491   1.956   1.113  1.4054 -1.9036  3.1318
  506MOL0     H66787   1.357   1.885   1.204 -1.8962  1.5509 -0.6905
  506MOL0     H66788   1.456   2.174   1.260  0.9815 -0.1460 -3.5642
  506MOL0     H66789   1.359   2.061   1.357 -5.0997 -1.9676 -5.1554
  506MOL0     H66790   1.763   1.938   1.435 -1.0064 -1.9564 -0.1404
  506MOL0     H66791   0.984   1.678   1.117 -0.8317 -0.6671  0.0760
  506MOL0     H66792   0.749   1.731   1.113  0.7805 -0.5025 -1.2495
  507MOL0     O66793   9.609   8.396   0.054 -0.0800 -0.0160 -0.8026
  507MOL0     C66794   9.627   8.361   0.170 -0.4216  0.7736 -0.0160
  507MOL0     O66795   9.552   8.273   0.246  0.2072 -0.2976 -0.0575
  507MOL0     C66796   9.439   8.220   0.190 -0.0518  0.0512 -0.6053
  507MOL0     C66797   9.435   8.114   0.095 -0.2738 -0.9833 -0.3191
  507MOL0     C66798   9.325   8.068   0.038  0.4861  0.2169 -0.2456
  507MOL0     C66799   9.204   8.106   0.092  0.6999  0.1073  0.3054
  507MOL0     O66800   9.084   8.045   0.063  0.1566  0.2787 -0.3897
  507MOL0     C66801   9.087   7.898   0.066  0.0894  0.3728  0.6648
  507MOL0     C66802   8.960   7.853   0.139  0.4955  0.0203 -0.0004
  507MOL0     C66803   8.950   7.926   0.285 -0.4236  0.6805 -0.4377
  507MOL0     C66804   8.857   7.835   0.366 -0.4449 -0.0226 -0.4176
  507MOL0     C66805   8.814   7.904   0.496  0.3191  0.0724  0.3698
  507MOL0     C66806   8.720   7.813   0.576  0.0502 -0.0043  0.3151
  507MOL0     C66807   8.604   7.893   0.643 -0.4002  0.7980 -0.1485
  507MOL0     C66808   8.513   7.803   0.740  0.7490 -0.8571 -0.8636
  507MOL0     N66809   8.430   7.889   0.825 -0.6126  0.2091 -1.1296
  507MOL0     C66810   8.302   7.876   0.853 -0.5296 -0.2149 -0.0581
  507MOL0     C66811   8.274   7.972   0.950  0.0839 -0.1736 -0.2211
  507MOL0     C66812   8.129   7.979   1.004  0.5845  0.7813  0.3262
  507MOL0     C66813   8.087   7.839   1.067  0.1021  0.0171  0.7542
  507MOL0     C66814   8.001   7.858   1.196  0.3714 -0.2843  0.4478
  507MOL0     C66815   7.856   7.856   1.156  0.1378  0.1377  0.8799
  507MOL0     O66816   7.824   7.980   1.083  0.0976 -0.6276 -0.6253
  507MOL0     C66817   7.692   8.022   1.086  0.6019 -0.4845  0.6374
  507MOL0     C66818   7.575   7.961   1.137 -0.3039  0.3724 -0.0047
  507MOL0     C66819   7.452   8.031   1.141 -0.3176  0.4197 -0.6841
  507MOL0     C66820   7.447   8.162   1.102  0.3263 -0.1216  0.0462
  507MOL0     C66821   7.316   8.228   1.108 -0.0279 -0.0544  0.6922
  507MOL0     O66822   7.241   8.214   1.222  0.9902 -0.1520 -0.3812
  507MOL0     C66823   7.107   8.234   1.219 -0.3878 -0.3616  0.0594
  507MOL0     C66824   7.020   8.220   1.106 -1.0785 -0.0916 -0.6718
  507MOL0     C66825   6.884   8.244   1.116  1.1983  0.5010 -0.3119
  507MOL0     C66826   6.830   8.280   1.241  0.2223  0.0547  0.5904
  507MOL0     O66827   6.694   8.312   1.244  0.0809 -0.4249 -0.0256
  507MOL0     C66828   6.633   8.371   1.363 -0.4482  0.7040  0.9257
  507MOL0     C66829   6.507   8.437   1.326 -0.3620 -0.3738  0.6576
  507MOL0     C66830   6.383   8.355   1.352  0.2442  0.7078  0.0717
  507MOL0     C66831   6.252   8.428   1.297 -0.3429  0.4419 -0.1492
  507MOL0     C66832   6.135   8.440   1.401  0.7711  0.6301  0.4750
  507MOL0     C66833   6.164   8.521   1.532  0.0222 -0.2621 -0.2933
  507MOL0     C66834   6.041   8.579   1.594  0.7181 -0.5402  0.0584
  507MOL0     C66835   5.942   8.473   1.649  0.8154  0.4793  0.3448
  507MOL0    Cl66836   5.821   8.533   1.765 -0.1127  0.2317 -0.1306
  507MOL0     C66837   6.907   8.288   1.348 -1.1961 -0.0899 -0.7991
  507MOL0     C66838   7.045   8.254   1.343  0.2170 -1.0268  0.3087
  507MOL0     O66839   7.293   8.291   1.001  0.7455 -0.5847 -0.6998
  507MOL0     C66840   7.556   8.221   1.039 -0.0301 -0.3477 -0.2950
  507MOL0     C66841   7.677   8.151   1.037  0.4195  0.1701  0.4022
  507MOL0     N66842   8.391   8.029   0.996  0.1424  0.3262  0.6629
  507MOL0     N66843   8.477   7.985   0.909  0.2570 -0.0772  0.8376
  507MOL0     C66844   9.198   8.211   0.176 -0.5172 -0.0925 -0.1623
  507MOL0     C66845   9.317   8.267   0.231  0.3826  0.4135 -0.4139
  507MOL0     C66846   9.752   8.425   0.221  0.3384 -0.4931 -0.8566
  507MOL0     C66847   9.838   8.503   0.142 -0.0758 -0.4320 -0.2303
  507MOL0     C66848   9.941   8.575   0.205 -0.0435 -1.4026 -0.3760
  507MOL0     C66849   9.955   8.577   0.346 -0.5330 -0.9203 -0.9022
  507MOL0     O66850  10.046   8.666   0.400 -0.2279  0.3758 -0.4119
  507MOL0     C66851  10.104   8.627   0.525  0.2710 -0.9257 -0.7704
  507MOL0     C66852  10.179   8.759   0.580 -0.3960  0.1332  0.5462
  507MOL0     C66853  10.325   8.772   0.530 -0.8500 -0.2961 -0.1028
  507MOL0     C66854  10.351   8.733   0.381 -0.0983 -0.4802  0.2301
  507MOL0     C66855  10.275   8.839   0.298 -0.2633  0.1811 -0.0482
  507MOL0     C66856  10.219   8.930   0.252 -0.7651 -0.4046 -0.4288
  507MOL0     C66857   9.877   8.492   0.417 -0.3241  1.1211  0.7707
  507MOL0     C66858   9.784   8.412   0.354  0.2515 -0.7538 -0.1495
  507MOL0     H66859   9.537   8.084   0.072 -0.5419 -1.3928 -1.0091
  507MOL0     H66860   9.337   7.985  -0.032  3.2415  2.5331 -2.7953
  507MOL0     H66861   9.177   7.860   0.115  1.3574 -1.3293 -2.6964
  507MOL0     H66862   9.080   7.860  -0.036 -1.3024  3.7082 -0.6261
  507MOL0     H66863   8.958   7.747   0.167  0.0332  0.0898  0.2527
  507MOL0     H66864   8.865   7.859   0.084 -1.1170 -1.7532  2.3507
  507MOL0     H66865   8.909   8.026   0.273  0.3361  0.7720 -2.6139
  507MOL0     H66866   9.046   7.925   0.338 -1.4320  1.6339  1.5277
  507MOL0     H66867   8.766   7.813   0.309 -0.7523 -0.6610  0.2961
  507MOL0     H66868   8.910   7.740   0.369  0.8316  0.6162 -1.4957
  507MOL0     H66869   8.763   7.994   0.461  0.2370  0.3608  1.2137
  507MOL0     H66870   8.902   7.933   0.555  0.1981  1.0525  0.0737
  507MOL0     H66871   8.782   7.757   0.645 -1.9154  0.0056  2.1913
  507MOL0     H66872   8.667   7.736   0.519 -5.5353  1.8232  2.3334
  507MOL0     H66873   8.641   7.981   0.697  0.7558  0.6333 -0.6588
  507MOL0     H66874   8.538   7.939   0.568  0.4712  0.9861 -0.8157
  507MOL0     H66875   8.573   7.738   0.804 -0.7085  0.3965  1.9670
  507MOL0     H66876   8.452   7.742   0.673  0.4534 -1.7400  0.1769
  507MOL0     H66877   8.227   7.814   0.804 -2.3732  1.6206  0.2912
  507MOL0     H66878   8.060   8.009   0.924  0.1728  0.9250  0.7334
  507MOL0     H66879   8.134   8.055   1.082  4.0351  0.1775  0.8413
  507MOL0     H66880   8.176   7.785   1.101 -0.9617 -0.7032  2.5462
  507MOL0     H66881   8.035   7.775   0.995  3.7319 -0.5086 -1.6445
  507MOL0     H66882   8.026   7.773   1.260  1.0713  0.0839  0.6695
  507MOL0     H66883   8.021   7.945   1.258 -2.6146  0.1978  0.8910
  507MOL0     H66884   7.798   7.844   1.248 -0.7523  2.5643  0.7000
  507MOL0     H66885   7.834   7.770   1.092  0.2796  1.6375 -1.2839
  507MOL0     H66886   7.593   7.864   1.182  5.4769  1.0136 -0.2017
  507MOL0     H66887   7.370   7.975   1.185 -0.7721  1.1565 -0.5665
  507MOL0     H66888   7.068   8.186   1.014  0.7795 -1.0472  0.5777
  507MOL0     H66889   6.816   8.227   1.033 -0.5876  1.9648  0.7600
  507MOL0     H66890   6.685   8.464   1.390 -0.0748  0.3650  1.3840
  507MOL0     H66891   6.616   8.297   1.442 -3.3607 -0.3762 -0.5510
  507MOL0     H66892   6.517   8.468   1.222  0.5419 -4.4856 -0.6626
  507MOL0     H66893   6.497   8.520   1.397 -1.5490  0.8730 -0.9144
  507MOL0     H66894   6.367   8.325   1.456 -3.4460  0.0477 -0.5628
  507MOL0     H66895   6.402   8.264   1.293 -0.5534 -0.1730  1.1423
  507MOL0     H66896   6.278   8.532   1.274  1.3724  0.1559  0.3533
  507MOL0     H66897   6.218   8.375   1.207  4.3422  0.1695 -2.0152
  507MOL0     H66898   6.108   8.337   1.425  0.3064  0.8544  0.9395
  507MOL0     H66899   6.050   8.483   1.349 -0.7872  0.3278  2.6196
  507MOL0     H66900   6.228   8.602   1.497 -2.1456  1.6604 -0.0467
  507MOL0     H66901   6.222   8.465   1.605 -1.0439  1.9621  2.4374
  507MOL0     H66902   6.065   8.644   1.679 -0.1031  0.9604 -0.8215
  507MOL0     H66903   5.987   8.652   1.533  0.8356 -1.0596 -0.6843
  507MOL0     H66904   5.994   8.392   1.700 -2.2273 -0.3742  2.4099
  507MOL0     H66905   5.880   8.440   1.565 -1.7789  0.1752  2.2486
  507MOL0     H66906   6.869   8.334   1.439 -2.7671 -2.6759 -0.0212
  507MOL0     H66907   7.116   8.275   1.422  0.2667  3.7216 -0.7021
  507MOL0     H66908   7.542   8.322   1.001  1.1169  1.0829  2.7724
  507MOL0     H66909   7.764   8.197   0.990  0.4804  0.0109  0.3582
  507MOL0     H66910   9.104   8.240   0.224 -0.6041 -1.4646  0.5295
  507MOL0     H66911   9.317   8.348   0.303 -0.5397 -0.2201  0.3135
  507MOL0     H66912   9.820   8.527   0.037  3.7730  1.4210 -0.6568
  507MOL0     H66913   9.988   8.641   0.132 -2.3316 -0.4044 -1.0367
  507MOL0     H66914  10.169   8.540   0.522  0.6201 -0.7182  0.3299
  507MOL0     H66915  10.018   8.606   0.590 -1.4472  2.9782 -1.5140
  507MOL0     H66916  10.117   8.846   0.559 -1.2211  0.6815  4.4418
  507MOL0     H66917  10.184   8.750   0.689  3.2994 -0.9492  0.4005
  507MOL0     H66918  10.379   8.701   0.594 -1.0607 -0.4786 -0.1290
  507MOL0     H66919  10.363   8.872   0.554 -0.2697 -0.4573 -0.3344
  507MOL0     H66920  10.455   8.744   0.351 -0.0317  0.6928  0.8187
  507MOL0     H66921  10.329   8.627   0.372 -0.3713 -0.3178 -1.4104
  507MOL0     H66922  10.153   9.014   0.239  0.8146  0.9570 -0.0206
  507MOL0     H66923   9.890   8.470   0.522 -2.1141 -2.3712  0.4184
  507MOL0     H66924   9.739   8.333   0.414  0.1711 -1.2875 -0.8835
  508MOL0     O66925  10.393   8.147   0.961  0.4910  0.4343  0.3750
  508MOL0     C66926  10.480   8.058   0.970 -0.0998 -0.9258 -0.4425
  508MOL0     O66927  10.464   7.923   1.015  0.6681 -1.0371 -0.1884
  508MOL0     C66928  10.334   7.871   1.014 -0.2026 -0.1981 -0.1096
  508MOL0     C66929  10.243   7.886   0.910 -0.3013 -0.0208 -0.5270
  508MOL0     C66930  10.112   7.833   0.916 -0.9803 -0.1328  1.9398
  508MOL0     C66931  10.077   7.765   1.022  0.0205  0.2595 -0.4037
  508MOL0     O66932   9.958   7.699   1.020  0.1524 -0.5282 -0.6011
  508MOL0     C66933   9.988   7.567   0.979  0.0954  0.4590  1.7143
  508MOL0     C66934   9.855   7.489   0.934 -1.1251  0.0345 -0.6619
  508MOL0     C66935   9.725   7.548   0.998 -0.8044 -1.0961  0.3760
  508MOL0     C66936   9.622   7.449   0.966  0.6860 -0.1822  0.5391
  508MOL0     C66937   9.486   7.497   1.022  0.0414  0.1632 -0.6400
  508MOL0     C66938   9.381   7.386   1.007  0.0604  0.5846 -0.1960
  508MOL0     C66939   9.234   7.424   1.036 -0.0088 -0.5277 -0.1961
  508MOL0     C66940   9.127   7.353   0.957 -0.1847  0.2557  0.0527
  508MOL0     N66941   8.997   7.388   0.997  0.3721  0.4528  0.2553
  508MOL0     C66942   8.945   7.367   1.117  0.1543 -1.0226 -0.2836
  508MOL0     C66943   8.817   7.412   1.101  0.6589 -0.0117 -0.5440
  508MOL0     C66944   8.719   7.432   1.225  0.1097 -1.1415 -0.3519
  508MOL0     C66945   8.735   7.561   1.299 -0.2825 -0.8378  0.3623
  508MOL0     C66946   8.725   7.691   1.210  1.6044  0.0314  0.1987
  508MOL0     C66947   8.580   7.727   1.178 -0.1449  0.5792 -0.0239
  508MOL0     O66948   8.504   7.748   1.300  0.4987  0.3018 -0.8492
  508MOL0     C66949   8.447   7.870   1.334  0.1970 -0.5573  0.0757
  508MOL0     C66950   8.315   7.863   1.382  0.2422 -0.2621  0.3977
  508MOL0     C66951   8.240   7.975   1.393  0.0928 -0.7055 -0.7388
  508MOL0     C66952   8.301   8.097   1.366 -0.5021 -0.4924  0.1778
  508MOL0     C66953   8.219   8.227   1.367  0.7876  0.6109  0.1032
  508MOL0     O66954   8.277   8.344   1.346  0.2230  0.3341 -1.2056
  508MOL0     C66955   8.215   8.465   1.337 -1.1508  1.2407 -0.7164
  508MOL0     C66956   8.264   8.542   1.235 -0.1478  0.5770 -0.8032
  508MOL0     C66957   8.188   8.650   1.200 -0.0165  0.2645  0.0829
  508MOL0     C66958   8.083   8.695   1.281  0.0777  0.8667 -0.0578
  508MOL0     O66959   8.035   8.807   1.233 -0.0330 -0.0703  0.5556
  508MOL0     C66960   7.939   8.874   1.314  0.0715 -0.9068 -0.8533
  508MOL0     C66961   8.006   8.919   1.450 -0.8274  0.0210  0.6028
  508MOL0     C66962   8.152   8.986   1.434  0.3747 -0.6784  0.2549
  508MOL0     C66963   8.213   9.022   1.568 -1.2253 -0.3083  0.5079
  508MOL0     C66964   8.247   8.905   1.656 -0.5603 -0.4244  0.0439
  508MOL0     C66965   8.304   8.787   1.584 -0.2506 -0.3626  0.0690
  508MOL0     C66966   8.301   8.665   1.676 -0.3383  0.2947 -0.0030
  508MOL0     C66967   8.423   8.562   1.635 -0.5450  0.1277 -0.6325
  508MOL0    Cl66968   8.588   8.654   1.633 -0.0941 -0.4617 -0.5817
  508MOL0     C66969   8.028   8.618   1.382 -0.2597 -0.9599  0.1996
  508MOL0     C66970   8.098   8.502   1.415 -0.3458  0.4236  0.3451
  508MOL0     O66971   8.099   8.214   1.384  0.2495  0.8540 -0.2992
  508MOL0     C66972   8.431   8.109   1.325 -0.3691 -0.9774  0.7037
  508MOL0     C66973   8.507   7.991   1.303 -0.1747 -0.2504  0.0282
  508MOL0     N66974   8.799   7.457   0.967 -0.5447  0.5685 -0.7196
  508MOL0     N66975   8.905   7.436   0.910  0.0012 -0.4497  0.6433
  508MOL0     C66976  10.167   7.743   1.131  0.4567 -0.4365 -0.4898
  508MOL0     C66977  10.301   7.794   1.127  0.7803  0.0826 -0.1507
  508MOL0     C66978  10.615   8.119   0.955  0.8531  0.1800  0.0645
  508MOL0     C66979  10.638   8.238   0.872  0.8376  0.1323  0.1610
  508MOL0     C66980  10.772   8.279   0.858 -0.1373 -0.6825  0.0211
  508MOL0     C66981  10.880   8.211   0.922  0.2559 -1.2049  0.6909
  508MOL0     O66982  11.007   8.258   0.930 -0.1987 -0.7544  0.6795
  508MOL0     C66983  11.053   8.368   0.852  0.4887 -0.0480  0.1145
  508MOL0     C66984  11.201   8.392   0.893  0.9827 -0.5844 -0.1286
  508MOL0     C66985  11.302   8.281   0.848  0.2412 -0.3904 -1.0890
  508MOL0     C66986  11.374   8.319   0.719  0.9106  0.5661 -0.4582
  508MOL0     C66987  11.286   8.278   0.610  0.6339 -0.2084 -0.0667
  508MOL0     C66988  11.201   8.252   0.522  1.4463  0.8118  1.2463
  508MOL0     C66989  10.856   8.095   0.991  0.4902  0.4858 -0.2043
  508MOL0     C66990  10.728   8.051   1.012 -0.2633  0.2690  0.4915
  508MOL0     H66991  10.280   7.957   0.837  0.3541  1.3367  1.0531
  508MOL0     H66992  10.046   7.844   0.830  2.3415  0.6945 -0.7303
  508MOL0     H66993  10.030   7.512   1.063 -0.9177 -0.9927  1.3007
  508MOL0     H66994  10.048   7.570   0.888 -4.1000  3.7049 -1.3581
  508MOL0     H66995   9.865   7.389   0.978 -4.0518 -0.2391 -0.4161
  508MOL0     H66996   9.844   7.471   0.827 -2.6593 -0.3203 -0.4689
  508MOL0     H66997   9.696   7.645   0.957  0.5682 -0.6872  0.3476
  508MOL0     H66998   9.732   7.560   1.106 -3.1587  1.8862  0.3415
  508MOL0     H66999   9.611   7.432   0.858 -0.4172 -2.4697  0.9608
  508MOL0     H67000   9.639   7.359   1.025  1.3258 -0.6237 -0.2964
  508MOL0     H67001   9.457   7.593   0.978 -1.3137  1.0005  1.9139
  508MOL0     H67002   9.500   7.526   1.126  0.3279  1.2671 -0.9780
  508MOL0     H67003   9.412   7.295   1.059  2.0748  1.1021 -0.4114
  508MOL0     H67004   9.372   7.364   0.900 -1.3200  0.4104 -0.0639
  508MOL0     H67005   9.216   7.395   1.140  1.1955  0.4833  0.3337
  508MOL0     H67006   9.230   7.533   1.028  0.7002 -0.6041 -2.2548
  508MOL0     H67007   9.157   7.249   0.968 -0.6336 -0.0347 -1.2734
  508MOL0     H67008   9.144   7.377   0.851  0.5885 -3.5290 -0.7950
  508MOL0     H67009   8.992   7.326   1.206 -2.0076 -0.8881  0.9959
  508MOL0     H67010   8.731   7.348   1.294  1.4620  0.4860  1.5049
  508MOL0     H67011   8.617   7.417   1.188 -0.0691  1.6099 -1.2029
  508MOL0     H67012   8.835   7.550   1.340 -1.2251  0.5606  3.3026
  508MOL0     H67013   8.659   7.564   1.378 -1.9726 -0.7189 -1.1959
  508MOL0     H67014   8.769   7.775   1.266 -2.7448  0.0547  4.2133
  508MOL0     H67015   8.793   7.683   1.124  1.4887  2.3385 -0.1649
  508MOL0     H67016   8.536   7.653   1.111 -0.1612 -3.1797  3.7282
  508MOL0     H67017   8.582   7.824   1.128  0.9391 -0.3627 -1.8897
  508MOL0     H67018   8.277   7.765   1.408 -2.1399  0.6696  0.6675
  508MOL0     H67019   8.139   7.979   1.431  0.2708  2.2193 -0.3891
  508MOL0     H67020   8.361   8.525   1.189  1.3682  1.9307  1.6583
  508MOL0     H67021   8.218   8.705   1.112  0.3951 -0.1873 -0.0660
  508MOL0     H67022   7.847   8.815   1.323 -1.0880  1.1712  2.7310
  508MOL0     H67023   7.911   8.967   1.264  0.5706 -0.8824 -1.0896
  508MOL0     H67024   8.021   8.831   1.512 -0.9248 -1.5841 -1.5061
  508MOL0     H67025   7.953   9.003   1.495 -1.3170 -0.7643  1.5075
  508MOL0     H67026   8.139   9.086   1.390 -0.7240 -0.7404  0.4164
  508MOL0     H67027   8.215   8.929   1.365 -0.7347 -0.1163 -1.2996
  508MOL0     H67028   8.306   9.075   1.545 -0.6801 -1.6122 -0.4075
  508MOL0     H67029   8.144   9.094   1.613  0.2174  0.9389  0.7955
  508MOL0     H67030   8.154   8.875   1.706 -0.2982 -3.3549 -1.0311
  508MOL0     H67031   8.308   8.955   1.732  2.1513  1.1933 -2.9495
  508MOL0     H67032   8.406   8.820   1.562 -0.8838 -0.5756 -4.0101
  508MOL0     H67033   8.259   8.761   1.488 -1.5561 -3.9306  1.4663
  508MOL0     H67034   8.338   8.692   1.775  3.0681  0.6161 -1.2150
  508MOL0     H67035   8.202   8.619   1.676 -1.4151  2.4989  0.7895
  508MOL0     H67036   8.396   8.510   1.542 -0.1948 -2.0114  0.3927
  508MOL0     H67037   8.418   8.489   1.716 -1.2422 -0.0999 -0.8731
  508MOL0     H67038   7.941   8.642   1.443  0.0340  0.6020  0.0400
  508MOL0     H67039   8.067   8.437   1.496 -0.9394  0.5015  0.1819
  508MOL0     H67040   8.477   8.197   1.281 -3.5831  1.2329  1.4120
  508MOL0     H67041   8.602   8.007   1.253 -0.7905  0.7047 -0.8544
  508MOL0     H67042  10.145   7.686   1.221 -0.7106 -0.4932 -0.7980
  508MOL0     H67043  10.373   7.769   1.204 -1.4967 -2.0648  1.4624
  508MOL0     H67044  10.554   8.293   0.832  2.0286  4.0319  2.4387
  508MOL0     H67045  10.786   8.382   0.827 -1.9035  0.1660  1.8579
  508MOL0     H67046  10.989   8.456   0.866 -1.9392 -1.7282  0.2288
  508MOL0     H67047  11.037   8.343   0.747 -1.8189 -0.2229  0.4667
  508MOL0     H67048  11.228   8.492   0.859 -1.5047  0.4665  0.7297
  508MOL0     H67049  11.209   8.398   1.002 -0.3358  1.0194 -0.0744
  508MOL0     H67050  11.259   8.180   0.839 -1.0425  0.1060 -0.7232
  508MOL0     H67051  11.372   8.278   0.932 -2.2135  0.8064  1.1388
  508MOL0     H67052  11.410   8.421   0.709  1.5411  0.3946 -0.0323
  508MOL0     H67053  11.462   8.254   0.728  1.8800  1.7144 -1.4489
  508MOL0     H67054  11.118   8.234   0.456 -0.7287  3.3867  3.0574
  508MOL0     H67055  10.937   8.052   1.050 -1.1283 -2.3458  0.0956
  508MOL0     H67056  10.708   7.959   1.067 -3.7919 -1.6482 -3.4223
  509MOL0     O67057   5.905   1.395   8.309  0.6822 -0.7464  0.2861
  509MOL0     C67058   5.832   1.392   8.412 -0.7711  0.1061  0.1782
  509MOL0     O67059   5.693   1.403   8.413 -0.6627  0.4342  0.5595
  509MOL0     C67060   5.650   1.391   8.285  0.6009 -0.2623  0.8353
  509MOL0     C67061   5.591   1.508   8.231 -0.3559 -0.9386  0.0959
  509MOL0     C67062   5.527   1.482   8.107 -0.5589  0.1059  0.8732
  509MOL0     C67063   5.501   1.358   8.048 -0.1962 -0.0670 -0.1924
  509MOL0     O67064   5.421   1.367   7.932 -0.3488  1.0195 -0.0969
  509MOL0     C67065   5.343   1.242   7.917 -0.1429  0.1974  0.5502
  509MOL0     C67066   5.271   1.246   7.783 -0.2193 -0.1751 -0.5963
  509MOL0     C67067   5.355   1.182   7.666  0.0341 -0.4612  0.8119
  509MOL0     C67068   5.510   1.228   7.674  0.0832  0.4125  0.5636
  509MOL0     C67069   5.599   1.146   7.571  0.4000  0.4355 -0.2383
  509MOL0     C67070   5.743   1.189   7.597  0.0535  0.0023  0.2219
  509MOL0     C67071   5.809   1.096   7.703 -0.6613  0.3981  0.0983
  509MOL0     C67072   5.831   1.158   7.836 -0.0288  0.0187 -0.7045
  509MOL0     N67073   5.888   1.290   7.842  0.0589  0.1066 -0.2093
  509MOL0     C67074   5.838   1.406   7.887 -0.8487 -0.2981 -0.6866
  509MOL0     C67075   5.950   1.487   7.899 -0.9135 -0.2188 -0.8677
  509MOL0     C67076   5.953   1.620   7.959  1.0001 -0.1089 -0.2725
  509MOL0     C67077   5.829   1.701   7.911  0.2856  0.2554 -0.7914
  509MOL0     C67078   5.842   1.855   7.932 -0.8348  0.7913  0.3744
  509MOL0     C67079   5.933   1.910   8.041  0.7049  0.0703  0.0642
  509MOL0     O67080   5.941   2.050   8.054  0.1116  0.0512 -0.6458
  509MOL0     C67081   5.832   2.116   8.102 -0.3625  0.0575  0.2583
  509MOL0     C67082   5.710   2.060   8.130  0.5125  0.1118 -0.7186
  509MOL0     C67083   5.612   2.141   8.189  0.3527  0.4128  0.5128
  509MOL0     C67084   5.627   2.279   8.203  0.2021 -0.4426  0.1933
  509MOL0     C67085   5.513   2.363   8.247  0.3900 -0.7047  0.8851
  509MOL0     O67086   5.374   2.318   8.218  0.2814 -0.9921  0.1913
  509MOL0     C67087   5.272   2.391   8.266 -0.8896 -0.0345 -0.5161
  509MOL0     C67088   5.157   2.325   8.259  0.2561  0.2782 -0.5770
  509MOL0     C67089   5.036   2.387   8.298  0.3306  0.2919  0.6854
  509MOL0     C67090   5.037   2.523   8.330 -0.0630 -0.1062  0.2013
  509MOL0     O67091   4.911   2.573   8.355  0.2577 -0.5046 -0.2126
  509MOL0     C67092   4.893   2.705   8.393  1.0201 -0.5211  0.0504
  509MOL0     C67093   4.741   2.719   8.406 -0.4685 -0.0748  0.6175
  509MOL0     C67094   4.704   2.851   8.463 -0.7120  0.2027 -0.4872
  509MOL0     C67095   4.548   2.876   8.466 -0.0657  0.1025 -0.2479
  509MOL0     C67096   4.513   3.020   8.415 -0.9629 -0.6740 -0.5679
  509MOL0     C67097   4.365   3.055   8.426 -0.2627 -0.5045 -0.4907
  509MOL0     C67098   4.329   3.208   8.411  0.5807 -0.0214  0.6282
  509MOL0     C67099   4.186   3.216   8.428 -0.7049 -0.0589  0.5354
  509MOL0    Cl67100   4.124   3.188   8.589 -0.2899  0.3695  0.2378
  509MOL0     C67101   5.155   2.594   8.342 -0.7287 -0.4838  0.5315
  509MOL0     C67102   5.273   2.526   8.304  0.6306 -0.4082 -0.6217
  509MOL0     O67103   5.550   2.468   8.298 -0.4376  0.0522 -0.2030
  509MOL0     C67104   5.750   2.335   8.148 -0.1042 -1.2515  0.7718
  509MOL0     C67105   5.855   2.253   8.099  0.3671  0.3150 -0.6159
  509MOL0     N67106   6.057   1.438   7.827  1.0640  0.5027 -0.2492
  509MOL0     N67107   6.017   1.313   7.795  0.4224  0.4425  1.0674
  509MOL0     C67108   5.565   1.248   8.107  0.1162  0.2943 -0.3528
  509MOL0     C67109   5.636   1.265   8.226 -0.2014  0.5510  0.2084
  509MOL0     C67110   5.896   1.371   8.546 -0.4760  0.0157 -0.0255
  509MOL0     C67111   5.845   1.415   8.666  0.7256 -0.9025  0.5762
  509MOL0     C67112   5.916   1.412   8.783 -1.5003  0.2399  0.0861
  509MOL0     C67113   6.040   1.357   8.783  0.1806 -0.3497 -0.2738
  509MOL0     O67114   6.119   1.337   8.900 -0.7652  0.1691 -0.2366
  509MOL0     C67115   6.057   1.378   9.024  0.4743 -0.7562  0.9499
  509MOL0     C67116   6.129   1.340   9.156 -0.8869  0.2778  0.5637
  509MOL0     C67117   6.278   1.345   9.129 -0.2284  0.1467  0.1681
  509MOL0     C67118   6.351   1.303   9.260  0.5531  0.0467 -0.2551
  509MOL0     C67119   6.494   1.285   9.236 -0.3132 -0.0526  0.0669
  509MOL0     C67120   6.612   1.252   9.225 -0.2479 -0.1590 -0.3953
  509MOL0     C67121   6.104   1.312   8.663 -0.6182 -0.3699 -0.8993
  509MOL0     C67122   6.022   1.320   8.546 -0.0975  0.6439 -0.6817
  509MOL0     H67123   5.603   1.604   8.280  3.0665 -0.1315 -1.9945
  509MOL0     H67124   5.479   1.564   8.053 -2.0065 -0.6310  1.0121
  509MOL0     H67125   5.268   1.248   7.997  0.2150  1.1393  0.8356
  509MOL0     H67126   5.396   1.147   7.924  1.0323  0.8937  1.5864
  509MOL0     H67127   5.240   1.351   7.770  3.2918  1.6012  3.0412
  509MOL0     H67128   5.173   1.198   7.793 -0.5771 -0.1614 -3.3377
  509MOL0     H67129   5.309   1.222   7.576  1.0037  0.9277  0.8927
  509MOL0     H67130   5.349   1.073   7.666  1.8827 -0.7113 -2.6563
  509MOL0     H67131   5.514   1.331   7.640 -0.9884  0.1552 -0.3802
  509MOL0     H67132   5.542   1.221   7.779  0.0638 -1.9017  0.4659
  509MOL0     H67133   5.573   1.171   7.468  1.1177  0.6546 -0.3685
  509MOL0     H67134   5.588   1.039   7.589  0.8451  0.6350  1.4654
  509MOL0     H67135   5.758   1.291   7.634 -0.5447  0.0999  0.2057
  509MOL0     H67136   5.794   1.187   7.500  0.5603  3.7824  0.2502
  509MOL0     H67137   5.760   0.999   7.715  3.0983 -1.8578 -1.0767
  509MOL0     H67138   5.904   1.067   7.657 -1.3584 -3.3165  0.7211
  509MOL0     H67139   5.889   1.092   7.901 -0.0808 -1.3171 -1.9539
  509MOL0     H67140   5.735   1.165   7.888 -1.7830 -2.1503 -3.3632
  509MOL0     H67141   5.739   1.428   7.925 -1.2926 -2.2642 -0.5642
  509MOL0     H67142   6.054   1.661   7.951  1.1295 -0.0670  1.2950
  509MOL0     H67143   5.938   1.606   8.066 -1.5678 -0.5938 -0.6233
  509MOL0     H67144   5.735   1.671   7.960 -0.2449  1.9617 -0.6972
  509MOL0     H67145   5.810   1.682   7.805  0.1523 -0.8625 -0.5832
  509MOL0     H67146   5.884   1.900   7.841 -0.7214  0.0014  0.0340
  509MOL0     H67147   5.743   1.901   7.940 -0.3853  1.7362  0.6467
  509MOL0     H67148   6.033   1.876   8.015  0.8395 -0.2225  0.9297
  509MOL0     H67149   5.912   1.866   8.139  0.5232 -1.7943 -0.7768
  509MOL0     H67150   5.684   1.955   8.126  0.0475  0.2168 -0.5341
  509MOL0     H67151   5.533   2.077   8.228 -0.8444  0.9193 -0.9885
  509MOL0     H67152   5.151   2.223   8.223 -1.3974 -0.3946  1.3981
  509MOL0     H67153   4.943   2.337   8.275 -0.1206  2.0034 -1.6027
  509MOL0     H67154   4.942   2.767   8.317 -0.8728  0.3663 -0.4956
  509MOL0     H67155   4.934   2.729   8.491  1.9269  0.3516 -0.5233
  509MOL0     H67156   4.704   2.638   8.469 -1.3329 -0.3543 -0.2378
  509MOL0     H67157   4.700   2.721   8.305  0.2094 -0.8144  0.3148
  509MOL0     H67158   4.748   2.929   8.401 -0.7396  0.3839 -0.2749
  509MOL0     H67159   4.753   2.856   8.560  0.1607 -0.2551 -0.8935
  509MOL0     H67160   4.490   2.801   8.412  0.2607 -0.5532  0.3011
  509MOL0     H67161   4.526   2.866   8.573  1.8751 -0.9100  0.1008
  509MOL0     H67162   4.552   3.034   8.314  3.2332 -2.4186  0.6209
  509MOL0     H67163   4.570   3.084   8.481 -1.1958 -0.5113 -0.5225
  509MOL0     H67164   4.333   3.034   8.528  2.8309  2.3596  1.2683
  509MOL0     H67165   4.309   2.990   8.357 -1.5680 -1.9607  1.8181
  509MOL0     H67166   4.375   3.273   8.486 -0.8160  0.9622  0.6768
  509MOL0     H67167   4.356   3.247   8.312 -0.5128 -0.1502  0.2648
  509MOL0     H67168   4.136   3.141   8.367 -2.7506  2.3289 -0.9313
  509MOL0     H67169   4.150   3.311   8.387 -0.7721 -0.9182 -1.4974
  509MOL0     H67170   5.149   2.699   8.369 -1.1054 -0.6313  1.0428
  509MOL0     H67171   5.365   2.582   8.294 -1.0207  2.3490 -1.3486
  509MOL0     H67172   5.751   2.444   8.142 -0.1710 -1.2107  1.4582
  509MOL0     H67173   5.947   2.286   8.052  0.6038  0.3560 -0.1263
  509MOL0     H67174   5.548   1.146   8.073 -3.8792  0.4117  0.7882
  509MOL0     H67175   5.687   1.177   8.265 -0.9483 -1.1551 -2.3777
  509MOL0     H67176   5.744   1.454   8.656  0.2752 -1.7295  1.6936
  509MOL0     H67177   5.868   1.441   8.876 -0.6314  4.9651 -0.7197
  509MOL0     H67178   5.956   1.337   9.027 -0.7760  2.1383  0.9163
  509MOL0     H67179   6.041   1.486   9.024 -1.9644 -1.0507 -0.5283
  509MOL0     H67180   6.101   1.422   9.222 -0.0920  1.7062 -0.8259
  509MOL0     H67181   6.104   1.245   9.205  2.2121 -0.4290  1.0213
  509MOL0     H67182   6.296   1.451   9.105 -0.5165  0.9909  3.2677
  509MOL0     H67183   6.302   1.288   9.039  4.0714 -0.2719  1.3146
  509MOL0     H67184   6.322   1.383   9.328 -1.4582 -2.7256  2.4112
  509MOL0     H67185   6.313   1.209   9.302 -1.4338  0.7315 -0.4287
  509MOL0     H67186   6.717   1.229   9.220  0.6623  3.2254  0.4261
  509MOL0     H67187   6.198   1.258   8.668 -1.3466 -2.2772 -4.4314
  509MOL0     H67188   6.058   1.270   8.457  2.6208 -2.0838  1.7310
  510MOL0     O67189   9.442   4.856  10.070  0.0177  0.3936 -0.0562
  510MOL0     C67190   9.420   4.737  10.082  0.4235  0.3555 -1.5195
  510MOL0     O67191   9.290   4.673  10.096  0.0882  0.2153 -0.6894
  510MOL0     C67192   9.176   4.750  10.123 -0.8195  0.5463  0.2381
  510MOL0     C67193   9.124   4.836  10.025  0.5079 -0.3189 -0.3106
  510MOL0     C67194   9.000   4.890  10.062  0.7673  0.3774  0.4645
  510MOL0     C67195   8.942   4.885  10.192  0.5639  0.1085 -0.0784
  510MOL0     O67196   8.815   4.932  10.233 -0.1844 -0.0743  0.2250
  510MOL0     C67197   8.740   5.000  10.125  1.3603  0.6454  1.1011
  510MOL0     C67198   8.605   5.059  10.176  0.3631 -0.0678 -0.0566
  510MOL0     C67199   8.507   4.945  10.209  0.3600 -1.0448 -0.1705
  510MOL0     C67200   8.392   4.993  10.281 -0.8436 -0.3226  0.2789
  510MOL0     C67201   8.287   4.896  10.316  0.6341 -0.1977 -0.2958
  510MOL0     C67202   8.170   4.951  10.410  0.2806 -0.9011 -0.3469
  510MOL0     C67203   8.090   5.065  10.345  0.1477 -0.0785 -0.1712
  510MOL0     C67204   7.946   5.053  10.369  0.5262  0.6512 -0.0912
  510MOL0     N67205   7.872   5.174  10.333 -0.0172  0.3279  0.1081
  510MOL0     C67206   7.858   5.284  10.412  0.1228 -0.2718 -1.0929
  510MOL0     C67207   7.788   5.379  10.344 -0.5881 -0.1686 -1.0835
  510MOL0     C67208   7.769   5.523  10.385  0.3862 -1.1412  0.0318
  510MOL0     C67209   7.636   5.577  10.327  0.0977  0.3629  0.3358
  510MOL0     C67210   7.596   5.713  10.376 -0.6073  0.4991  0.5125
  510MOL0     C67211   7.458   5.748  10.324  0.5346 -0.4411 -0.2111
  510MOL0     O67212   7.365   5.651  10.370 -0.0100  0.0382 -0.5869
  510MOL0     C67213   7.227   5.690  10.374  0.2091 -0.8873  0.4208
  510MOL0     C67214   7.179   5.818  10.322 -0.7988  0.2705 -0.2040
  510MOL0     C67215   7.047   5.856  10.340 -0.1525  0.0288 -0.2366
  510MOL0     C67216   6.946   5.771  10.384  0.2645  0.3955 -0.1252
  510MOL0     C67217   6.808   5.806  10.388  0.4869 -0.0040 -0.0882
  510MOL0     O67218   6.779   5.930  10.317  0.0676  0.5354  0.1235
  510MOL0     C67219   6.654   5.973  10.283 -0.2138 -0.4487 -1.1896
  510MOL0     C67220   6.664   6.103  10.222  0.2727  1.0058  0.1958
  510MOL0     C67221   6.545   6.178  10.194 -0.7795 -0.3144  0.1767
  510MOL0     C67222   6.420   6.128  10.213  0.3277 -0.7471  0.8015
  510MOL0     O67223   6.299   6.185  10.194 -0.1708  0.7478 -0.6931
  510MOL0     C67224   6.295   6.331  10.228 -0.3363 -0.2460  0.3988
  510MOL0     C67225   6.149   6.373  10.233  0.0273  0.1530 -0.4471
  510MOL0     C67226   6.078   6.355  10.370  0.2647  0.5779 -0.3330
  510MOL0     C67227   6.100   6.221  10.437 -0.0853 -0.3364  0.9840
  510MOL0     C67228   5.990   6.207  10.550  0.0079  0.8810  0.1528
  510MOL0     C67229   5.962   6.056  10.580  0.0057  0.4208 -0.3361
  510MOL0     C67230   5.829   6.031  10.667 -1.0768 -0.2655 -0.3988
  510MOL0     C67231   5.710   5.986  10.574 -0.5333 -0.0521 -0.1701
  510MOL0    Cl67232   5.743   5.824  10.505 -0.4336 -0.2690 -0.0515
  510MOL0     C67233   6.412   6.002  10.270 -0.1666 -0.3655 -0.1061
  510MOL0     C67234   6.524   5.922  10.307  0.1963  0.1851 -0.4389
  510MOL0     O67235   6.725   5.736  10.450 -0.0259 -0.7974  0.4404
  510MOL0     C67236   7.002   5.646  10.435  0.5718  0.4205 -0.3629
  510MOL0     C67237   7.140   5.608  10.443  0.1974 -0.3073 -0.3367
  510MOL0     N67238   7.738   5.313  10.232  0.2720 -0.4891 -0.0657
  510MOL0     N67239   7.811   5.202  10.218  0.5615  0.6473 -0.6438
  510MOL0     C67240   9.005   4.801  10.289  0.0689 -0.1513 -0.2259
  510MOL0     C67241   9.119   4.728  10.257 -0.2941  0.6307 -0.4313
  510MOL0     C67242   9.541   4.648  10.071  0.3292  0.7658  1.0606
  510MOL0     C67243   9.530   4.520  10.013  0.5668 -0.1056 -0.3576
  510MOL0     C67244   9.640   4.436  10.001  0.3350 -0.6716 -0.8441
  510MOL0     C67245   9.769   4.483  10.041 -0.5197 -0.8976  0.8610
  510MOL0     O67246   9.883   4.400  10.044  1.7326 -0.3942  0.2255
  510MOL0     C67247   9.853   4.261  10.078 -0.7840 -0.5973  0.0537
  510MOL0     C67248   9.967   4.195  10.148 -0.4079 -0.4776 -0.3389
  510MOL0     C67249  10.079   4.167  10.043  0.4236  0.3257 -0.3103
  510MOL0     C67250  10.194   4.099  10.114  0.9242 -0.0136  0.4066
  510MOL0     C67251  10.297   4.085  10.018  0.5968  0.5836  0.5451
  510MOL0     C67252  10.376   4.065   9.925  0.8352  1.0425 -0.8436
  510MOL0     C67253   9.778   4.617  10.086 -1.0040  0.1355  0.8266
  510MOL0     C67254   9.661   4.694  10.108 -0.2197  0.2675 -0.3535
  510MOL0     H67255   9.164   4.856   9.927 -0.0726 -2.9950 -1.1632
  510MOL0     H67256   8.944   4.953   9.993  1.5020 -0.6255 -1.1107
  510MOL0     H67257   8.714   4.929  10.046  1.4670  2.6259 -0.7963
  510MOL0     H67258   8.795   5.081  10.076 -0.6943  2.0385  0.9621
  510MOL0     H67259   8.559   5.120  10.097 -1.6139  0.1304  1.1696
  510MOL0     H67260   8.629   5.124  10.261  2.3191  0.1794 -0.7369
  510MOL0     H67261   8.557   4.875  10.275 -0.9503 -0.6663  1.2894
  510MOL0     H67262   8.471   4.895  10.118  0.9353  0.3039 -1.1734
  510MOL0     H67263   8.427   5.018  10.382  1.2955  1.3540 -0.8075
  510MOL0     H67264   8.350   5.081  10.232 -0.0986 -0.5863 -0.8556
  510MOL0     H67265   8.344   4.819  10.367  1.5844  1.2683  0.9389
  510MOL0     H67266   8.244   4.860  10.222 -0.4745  1.9715 -0.6919
  510MOL0     H67267   8.205   4.973  10.511  0.3715 -0.5814 -0.4461
  510MOL0     H67268   8.095   4.873  10.427  0.2182 -0.8216 -0.2642
  510MOL0     H67269   8.122   5.162  10.385 -1.7804  0.9126 -0.9319
  510MOL0     H67270   8.111   5.061  10.238  0.8694 -1.7560 -0.0048
  510MOL0     H67271   7.943   5.044  10.478  1.5316  1.2175 -0.0091
  510MOL0     H67272   7.913   4.966  10.311  3.3324 -0.0125 -0.8275
  510MOL0     H67273   7.906   5.308  10.507  2.7398 -0.0178 -2.3798
  510MOL0     H67274   7.856   5.586  10.364 -0.6019  2.0413  3.9910
  510MOL0     H67275   7.764   5.518  10.495 -1.1493 -0.6975  0.0134
  510MOL0     H67276   7.559   5.501  10.342  0.5896 -0.6811 -1.9132
  510MOL0     H67277   7.644   5.577  10.218 -0.8842 -2.4688  0.1787
  510MOL0     H67278   7.601   5.711  10.486 -1.4286 -0.0794  0.5499
  510MOL0     H67279   7.671   5.787  10.349  2.2171 -2.6714 -1.0291
  510MOL0     H67280   7.465   5.755  10.215 -1.3759  2.9307 -0.2374
  510MOL0     H67281   7.439   5.850  10.356 -1.3323 -0.8665  0.1119
  510MOL0     H67282   7.240   5.895  10.277 -0.1454 -0.7941 -1.2104
  510MOL0     H67283   7.014   5.949  10.296  1.9409  0.1612 -1.7129
  510MOL0     H67284   6.761   6.142  10.194  1.0232 -1.3497 -0.7496
  510MOL0     H67285   6.564   6.273  10.145 -3.0006  0.4161  0.6314
  510MOL0     H67286   6.348   6.396  10.157  1.8013 -0.3978  1.7590
  510MOL0     H67287   6.346   6.355  10.321 -1.8916  3.9251  0.3741
  510MOL0     H67288   6.101   6.297  10.170 -1.4461 -1.5753  2.5104
  510MOL0     H67289   6.134   6.475  10.199 -2.5596 -1.0173 -3.2721
  510MOL0     H67290   5.971   6.374  10.364 -0.0845 -0.5858  1.3731
  510MOL0     H67291   6.121   6.424  10.443  0.7389 -0.8390  0.7691
  510MOL0     H67292   6.083   6.148  10.358 -0.2213  1.8510 -1.1134
  510MOL0     H67293   6.206   6.207  10.460  0.5821 -4.6058 -3.1474
  510MOL0     H67294   5.894   6.242  10.513 -0.4590  2.3510  2.5389
  510MOL0     H67295   6.024   6.250  10.644 -2.5026 -0.4152  1.7595
  510MOL0     H67296   6.042   6.018  10.644  0.7751  1.2310 -0.7911
  510MOL0     H67297   5.952   6.002  10.486 -3.3037 -0.7687  0.5796
  510MOL0     H67298   5.856   5.948  10.733  0.7564  0.0093 -0.7372
  510MOL0     H67299   5.805   6.119  10.728 -1.9227  0.5641 -1.8767
  510MOL0     H67300   5.698   6.040  10.479 -0.3080  0.8493  0.3039
  510MOL0     H67301   5.620   5.968  10.634  1.1464 -1.9247  1.9661
  510MOL0     H67302   6.308   5.974  10.287  0.6917 -2.0760  3.0346
  510MOL0     H67303   6.496   5.828  10.354 -1.1568  1.1533  0.7979
  510MOL0     H67304   6.941   5.568  10.479 -0.2648  0.3288 -1.6191
  510MOL0     H67305   7.182   5.510  10.466  3.0695  1.1103  0.8980
  510MOL0     H67306   8.959   4.798  10.387  2.3880 -0.5365  0.9335
  510MOL0     H67307   9.165   4.660  10.328 -1.5387  1.5111  1.3004
  510MOL0     H67308   9.433   4.480   9.982  0.8121 -0.3901 -0.7765
  510MOL0     H67309   9.638   4.331   9.971  0.0677 -0.9403  0.0931
  510MOL0     H67310   9.829   4.199   9.991 -0.2415 -1.0905  0.2494
  510MOL0     H67311   9.783   4.262  10.162  0.4822 -2.2555  1.1912
  510MOL0     H67312  10.003   4.257  10.231  0.0259  2.8688 -2.8305
  510MOL0     H67313   9.953   4.093  10.186  0.6405 -0.0444  1.2945
  510MOL0     H67314  10.124   4.256   9.998  0.0442  0.7472  0.1288
  510MOL0     H67315  10.032   4.105   9.966  1.7104  1.2410 -1.8837
  510MOL0     H67316  10.212   4.160  10.204 -1.5439 -1.9474  2.3632
  510MOL0     H67317  10.155   4.006  10.155  0.9408 -0.7160 -1.1248
  510MOL0     H67318  10.454   4.051   9.853  0.6910  1.4217 -1.0807
  510MOL0     H67319   9.876   4.649  10.120 -0.4416  0.4509 -0.9748
  510MOL0     H67320   9.671   4.796  10.144 -1.1511 -0.1403  1.1849
  511MOL0     O67321   2.774   8.105   3.563 -0.2086 -0.7104 -0.6165
  511MOL0     C67322   2.723   8.090   3.451 -0.6900 -0.1262  0.0791
  511MOL0     O67323   2.595   8.081   3.416 -0.3935 -0.8491 -0.1630
  511MOL0     C67324   2.501   8.111   3.512  0.6280 -0.2699  0.3493
  511MOL0     C67325   2.391   8.031   3.540 -0.3331  0.2493  0.4616
  511MOL0     C67326   2.304   8.074   3.634  0.3996  0.2270 -1.1428
  511MOL0     C67327   2.325   8.186   3.714 -0.3694 -0.0633 -0.3906
  511MOL0     O67328   2.244   8.203   3.825 -0.5856 -0.2381  0.4276
  511MOL0     C67329   2.233   8.341   3.862 -0.9533  0.9027  0.1504
  511MOL0     C67330   2.107   8.373   3.943 -0.7287  0.3680  0.0467
  511MOL0     C67331   2.091   8.281   4.066  0.7725 -0.2681  0.7754
  511MOL0     C67332   1.947   8.294   4.126  0.3842  0.0830  0.8179
  511MOL0     C67333   1.935   8.264   4.272 -0.6742 -0.5021 -0.0820
  511MOL0     C67334   1.823   8.341   4.341 -0.5744 -0.2912  0.9810
  511MOL0     C67335   1.685   8.281   4.324 -0.1876 -0.7784 -0.2818
  511MOL0     C67336   1.565   8.365   4.379 -0.5669  0.3353 -0.0177
  511MOL0     N67337   1.576   8.383   4.531  0.5417 -0.2476  0.1571
  511MOL0     C67338   1.569   8.292   4.639 -0.1867 -0.7895  0.1242
  511MOL0     C67339   1.604   8.361   4.747 -0.4183  0.7584 -0.8414
  511MOL0     C67340   1.617   8.313   4.891  0.0631 -0.1519  0.0141
  511MOL0     C67341   1.477   8.296   4.959 -0.1762 -0.6474  0.0732
  511MOL0     C67342   1.463   8.403   5.073  0.1908  0.1205  0.1190
  511MOL0     C67343   1.375   8.372   5.193 -0.3085 -0.2917 -0.3823
  511MOL0     O67344   1.239   8.370   5.136 -0.0126 -0.1936 -0.7002
  511MOL0     C67345   1.136   8.350   5.228 -0.5681 -1.4262  0.2893
  511MOL0     C67346   1.016   8.334   5.159  0.6647 -0.2770 -0.3268
  511MOL0     C67347   0.895   8.317   5.219  0.3550  0.9683  0.2817
  511MOL0     C67348   0.888   8.336   5.362 -0.0487  0.4096 -0.2196
  511MOL0     C67349   0.757   8.306   5.435  0.1594 -0.2968  0.0247
  511MOL0     O67350   0.750   8.326   5.574  0.3283  0.0383 -0.4484
  511MOL0     C67351   0.628   8.310   5.642 -0.4901  0.3017 -0.6414
  511MOL0     C67352   0.642   8.262   5.772 -0.6414  0.4727 -0.3923
  511MOL0     C67353   0.527   8.257   5.851 -0.5469  0.4232 -0.3461
  511MOL0     C67354   0.396   8.305   5.818 -0.0147  0.8788  0.1949
  511MOL0     O67355   0.289   8.297   5.909 -0.2396 -0.9457  0.3027
  511MOL0     C67356   0.176   8.235   5.860  0.5549 -0.9641  0.1217
  511MOL0     C67357   0.066   8.203   5.965  0.1282  0.1141 -0.0129
  511MOL0     C67358  -0.060   8.132   5.896  0.1741  0.6829 -0.0579
  511MOL0     C67359  -0.146   8.224   5.796 -0.3927 -0.3983  0.3733
  511MOL0     C67360  -0.273   8.151   5.745  0.3862  0.0037 -0.3701
  511MOL0     C67361  -0.395   8.178   5.836  0.6264  0.3326 -0.3685
  511MOL0     C67362  -0.437   8.334   5.843 -0.2933  0.5428 -0.3252
  511MOL0     C67363  -0.561   8.344   5.939 -0.0367  0.0818 -0.0656
  511MOL0    Cl67364  -0.648   8.496   5.913  0.1171 -0.2921  0.1099
  511MOL0     C67365   0.379   8.351   5.684 -0.2225 -0.2570  0.0364
  511MOL0     C67366   0.498   8.348   5.599  0.4067 -0.3219 -0.4011
  511MOL0     O67367   0.661   8.281   5.368 -0.9383 -0.2421  0.9023
  511MOL0     C67368   1.007   8.346   5.441  0.2799  0.4383  0.3244
  511MOL0     C67369   1.131   8.360   5.369 -0.9303 -0.4186 -0.3645
  511MOL0     N67370   1.620   8.489   4.707 -0.0412  0.3552 -0.4686
  511MOL0     N67371   1.594   8.507   4.584 -0.0456  0.4478 -0.0800
  511MOL0     C67372   2.433   8.272   3.689  0.4575  0.0103 -0.1387
  511MOL0     C67373   2.519   8.230   3.586 -0.0603 -0.5285  0.0627
  511MOL0     C67374   2.819   8.090   3.334 -1.3340  0.7233 -0.0722
  511MOL0     C67375   2.810   8.182   3.235  0.6546  0.0251  1.0286
  511MOL0     C67376   2.908   8.185   3.125 -0.5980  0.0980 -0.5743
  511MOL0     C67377   3.017   8.092   3.138 -0.0078  0.1308 -1.1600
  511MOL0     O67378   3.095   8.081   3.035  0.0773 -0.3278 -0.4082
  511MOL0     C67379   3.187   8.194   3.021 -0.1243 -0.0525 -0.5696
  511MOL0     C67380   3.319   8.160   2.943 -0.0328 -1.2370  0.0562
  511MOL0     C67381   3.407   8.073   3.027  0.4130  0.5370 -0.0773
  511MOL0     C67382   3.524   8.008   2.944  0.3934  0.5263 -0.3696
  511MOL0     C67383   3.614   8.112   2.889 -0.8976 -0.0573 -1.0131
  511MOL0     C67384   3.667   8.210   2.836  0.5399  0.2701 -0.4535
  511MOL0     C67385   3.035   8.017   3.255 -0.4049  0.4543  0.1983
  511MOL0     C67386   2.945   8.029   3.352 -0.5561  0.1846 -0.2357
  511MOL0     H67387   2.369   7.943   3.480  1.1240 -0.1959  0.5474
  511MOL0     H67388   2.216   8.013   3.651  2.1035 -2.5015 -1.4340
  511MOL0     H67389   2.218   8.401   3.772 -3.3645  0.8933  0.4767
  511MOL0     H67390   2.322   8.372   3.917  0.3005  0.5986 -1.6437
  511MOL0     H67391   2.014   8.354   3.888 -0.9997 -1.3452  1.0266
  511MOL0     H67392   2.117   8.481   3.961 -0.4713  0.3788 -0.1618
  511MOL0     H67393   2.164   8.302   4.145  1.0789 -0.4046  0.5339
  511MOL0     H67394   2.109   8.180   4.027 -0.6530 -0.1203 -0.3484
  511MOL0     H67395   1.903   8.394   4.120 -1.2606 -0.3280  3.8469
  511MOL0     H67396   1.878   8.227   4.073 -0.0208  0.0279  1.4117
  511MOL0     H67397   2.029   8.286   4.323 -1.0987 -2.2437  1.5511
  511MOL0     H67398   1.926   8.156   4.279 -0.5301 -0.5989 -1.2608
  511MOL0     H67399   1.827   8.444   4.303  2.3480 -1.2874 -1.7931
  511MOL0     H67400   1.852   8.352   4.446  2.0186  1.0289  0.2011
  511MOL0     H67401   1.662   8.257   4.220 -2.3826  1.3311 -0.3489
  511MOL0     H67402   1.690   8.178   4.362  4.1161 -0.9943 -0.9269
  511MOL0     H67403   1.476   8.305   4.361 -0.7273  0.0330  1.6488
  511MOL0     H67404   1.552   8.460   4.326  0.6437  0.6863  0.2813
  511MOL0     H67405   1.561   8.184   4.631  1.1738 -0.7718 -3.0198
  511MOL0     H67406   1.683   8.383   4.942  1.6370 -0.3342 -1.6661
  511MOL0     H67407   1.668   8.216   4.893  1.9062  0.7938  1.2434
  511MOL0     H67408   1.477   8.202   5.014  0.5666 -1.4479 -1.2284
  511MOL0     H67409   1.406   8.312   4.877  0.5307  1.7894 -0.1647
  511MOL0     H67410   1.562   8.403   5.120  0.4990 -0.7875 -0.5036
  511MOL0     H67411   1.435   8.499   5.027 -2.7529 -0.6093  0.2049
  511MOL0     H67412   1.384   8.454   5.265 -2.4104 -1.4794  1.3604
  511MOL0     H67413   1.405   8.275   5.234 -1.1194 -0.4920 -0.2391
  511MOL0     H67414   1.027   8.327   5.051 -3.2148 -1.1246 -0.7998
  511MOL0     H67415   0.814   8.300   5.149  1.5968 -2.1877 -0.5627
  511MOL0     H67416   0.737   8.226   5.809  0.0263  0.4825 -1.9999
  511MOL0     H67417   0.542   8.215   5.950 -1.9127  2.5770  0.8586
  511MOL0     H67418   0.196   8.148   5.798  0.8392  1.5479 -3.6240
  511MOL0     H67419   0.128   8.307   5.794  0.8092 -1.3518 -0.4910
  511MOL0     H67420   0.040   8.295   6.018  2.4569  0.8190  0.0110
  511MOL0     H67421   0.100   8.138   6.045 -0.7933 -0.0733  0.2354
  511MOL0     H67422  -0.121   8.087   5.974 -0.3812 -2.1036 -1.9497
  511MOL0     H67423  -0.019   8.052   5.834  0.6675 -0.4058  1.6020
  511MOL0     H67424  -0.156   8.327   5.832 -0.0098  0.7769 -2.6412
  511MOL0     H67425  -0.080   8.234   5.710  0.2758  0.0494  0.9318
  511MOL0     H67426  -0.241   8.046   5.741  3.8736  0.9373 -0.4020
  511MOL0     H67427  -0.297   8.187   5.644 -1.3629  1.7416  0.6044
  511MOL0     H67428  -0.375   8.146   5.938  1.7893  1.6012 -0.1736
  511MOL0     H67429  -0.474   8.117   5.791  0.6608  0.4486 -0.5878
  511MOL0     H67430  -0.363   8.400   5.889  0.1248  0.0636 -0.3118
  511MOL0     H67431  -0.461   8.371   5.743  2.7143  1.1663 -0.8975
  511MOL0     H67432  -0.529   8.354   6.043 -2.0644  3.0964  0.3983
  511MOL0     H67433  -0.625   8.256   5.926 -0.1356 -0.4129  3.0721
  511MOL0     H67434   0.288   8.395   5.643 -0.3908 -0.4691  0.1769
  511MOL0     H67435   0.480   8.391   5.500 -2.5157  1.1929  0.6670
  511MOL0     H67436   1.001   8.361   5.548 -0.6431 -4.2516  1.1457
  511MOL0     H67437   1.221   8.378   5.428 -1.6238  1.9668  0.1061
  511MOL0     H67438   2.439   8.373   3.729 -1.7491  1.6423 -3.4758
  511MOL0     H67439   2.596   8.298   3.553  0.4533 -1.1340 -0.0171
  511MOL0     H67440   2.721   8.243   3.227  0.9222  0.2144 -4.4869
  511MOL0     H67441   2.906   8.251   3.039  0.0986  2.3612  1.0245
  511MOL0     H67442   3.213   8.231   3.121 -1.5891  0.4181 -0.3403
  511MOL0     H67443   3.137   8.274   2.967 -0.6136  0.0886  0.0787
  511MOL0     H67444   3.303   8.105   2.849  2.0273 -4.4422  1.4204
  511MOL0     H67445   3.379   8.246   2.913  1.6680 -2.4774 -0.2653
  511MOL0     H67446   3.343   8.000   3.078  2.6416 -0.4973  1.4437
  511MOL0     H67447   3.447   8.131   3.111  2.5237  0.6796 -1.1120
  511MOL0     H67448   3.568   7.929   3.006 -0.3754 -0.1190 -0.6300
  511MOL0     H67449   3.475   7.949   2.866 -1.1650  0.2289  0.7779
  511MOL0     H67450   3.733   8.284   2.794  1.5855 -0.4418 -0.0898
  511MOL0     H67451   3.118   7.947   3.253 -1.1840 -0.6038 -3.4750
  511MOL0     H67452   2.958   7.976   3.446 -0.5638  0.3906 -0.1166
  512MOL0     O67453   6.803   2.839   7.842 -0.6974 -0.7345  0.0444
  512MOL0     C67454   6.731   2.805   7.749 -0.8345  0.0368 -0.0342
  512MOL0     O67455   6.759   2.697   7.675  0.3875  0.8084  0.1405
  512MOL0     C67456   6.877   2.619   7.682  0.2529  0.5426 -0.1165
  512MOL0     C67457   6.858   2.489   7.628  0.1516 -1.0265 -0.6865
  512MOL0     C67458   6.975   2.409   7.618 -0.3174 -0.5224 -0.7983
  512MOL0     C67459   7.113   2.452   7.650  0.8387  0.2536 -0.0843
  512MOL0     O67460   7.228   2.391   7.606 -0.8101 -0.1946  0.6760
  512MOL0     C67461   7.328   2.362   7.702 -0.8355  0.2045 -0.5721
  512MOL0     C67462   7.328   2.214   7.742 -0.5736 -1.0900 -0.3457
  512MOL0     C67463   7.320   2.114   7.629 -0.7484  0.5043 -0.1201
  512MOL0     C67464   7.336   1.968   7.680 -0.2788 -0.7757 -1.0329
  512MOL0     C67465   7.323   1.890   7.565 -0.3792  0.6408  0.9610
  512MOL0     C67466   7.424   1.772   7.571 -0.2871  0.8643  0.3229
  512MOL0     C67467   7.397   1.669   7.686 -0.3901  0.0694  0.5216
  512MOL0     C67468   7.268   1.594   7.666 -0.1848  0.5501  0.0255
  512MOL0     N67469   7.261   1.494   7.767 -1.1924  0.5594 -0.2214
  512MOL0     C67470   7.213   1.514   7.892  1.1283  0.0718  0.6505
  512MOL0     C67471   7.210   1.392   7.951 -0.2369 -0.8777  0.4845
  512MOL0     C67472   7.148   1.393   8.085  0.1416 -0.8881 -0.6103
  512MOL0     C67473   7.109   1.265   8.152 -0.2090  0.7064  1.0808
  512MOL0     C67474   7.223   1.152   8.160  0.0307  0.7437 -0.7099
  512MOL0     C67475   7.343   1.175   8.243 -0.2731 -0.6783  0.3225
  512MOL0     O67476   7.426   1.056   8.245 -0.0755 -0.5693  0.1977
  512MOL0     C67477   7.540   1.054   8.326 -0.6077 -0.6598  0.6190
  512MOL0     C67478   7.577   1.164   8.408  0.2975 -0.3720 -0.6822
  512MOL0     C67479   7.694   1.160   8.485  0.1008 -0.1374  0.0901
  512MOL0     C67480   7.784   1.048   8.467  0.3763 -0.1776  1.1620
  512MOL0     C67481   7.908   1.032   8.554  0.5287 -0.0068 -0.4401
  512MOL0     O67482   7.994   0.925   8.537 -0.7828 -0.3461 -0.0314
  512MOL0     C67483   8.119   0.935   8.587 -0.7592 -0.0210  0.2936
  512MOL0     C67484   8.155   0.863   8.703  0.9239 -0.0857 -0.1987
  512MOL0     C67485   8.280   0.849   8.746 -0.1835 -0.5583 -0.6833
  512MOL0     C67486   8.385   0.906   8.674  1.7249  0.2055 -0.1160
  512MOL0     O67487   8.509   0.896   8.718  0.3401  0.0096 -0.2715
  512MOL0     C67488   8.537   0.915   8.863  0.4479 -0.1093  0.5564
  512MOL0     C67489   8.668   0.994   8.861  0.3372 -0.0818  0.3584
  512MOL0     C67490   8.779   0.906   8.813  0.7686 -0.0190 -0.1077
  512MOL0     C67491   8.918   0.975   8.808  0.2257  0.3074  0.3458
  512MOL0     C67492   9.035   0.874   8.811 -0.6393 -0.2522  0.3349
  512MOL0     C67493   9.168   0.943   8.783  0.2023 -0.3628 -0.2072
  512MOL0     C67494   9.274   0.838   8.805  1.2529 -0.5300 -0.3000
  512MOL0     C67495   9.408   0.892   8.762 -0.3277 -0.2493  0.0950
  512MOL0    Cl67496   9.524   0.767   8.769 -0.2621 -0.2141  0.5290
  512MOL0     C67497   8.352   0.979   8.557  0.2031  0.2113 -0.1993
  512MOL0     C67498   8.224   0.988   8.515 -0.2301  0.3448  0.2142
  512MOL0     O67499   7.931   1.126   8.632  0.1073  0.6306 -0.0482
  512MOL0     C67500   7.750   0.946   8.367 -0.2073 -0.1424 -0.5654
  512MOL0     C67501   7.628   0.958   8.300  0.2427 -0.0875  1.6862
  512MOL0     N67502   7.271   1.298   7.867  0.4078 -0.1867  0.1868
  512MOL0     N67503   7.297   1.362   7.755  0.0596 -0.7098  0.5877
  512MOL0     C67504   7.115   2.570   7.717  0.4684  0.0299  0.5194
  512MOL0     C67505   7.001   2.652   7.730 -0.3041  0.4193 -0.3241
  512MOL0     C67506   6.610   2.881   7.720 -0.5302 -0.3462 -0.0837
  512MOL0     C67507   6.570   2.994   7.795 -0.0239  0.1938 -0.5575
  512MOL0     C67508   6.456   3.068   7.772  0.7135  0.2642 -0.7771
  512MOL0     C67509   6.365   3.036   7.664  0.5763  0.1574  1.1768
  512MOL0     O67510   6.262   3.114   7.623 -0.0098 -0.2375 -1.1484
  512MOL0     C67511   6.163   3.135   7.724  0.4607 -0.5849  0.5030
  512MOL0     C67512   6.024   3.105   7.661 -0.2384 -0.3747 -0.6536
  512MOL0     C67513   5.916   3.123   7.767  0.4473 -0.3753 -0.1238
  512MOL0     C67514   5.774   3.084   7.713 -0.4964 -0.3292  0.5319
  512MOL0     C67515   5.729   3.172   7.600 -0.5870 -0.2544  0.7473
  512MOL0     C67516   5.680   3.233   7.504  0.0559 -0.1316  0.2714
  512MOL0     C67517   6.398   2.917   7.602 -0.5091  0.2910 -0.6636
  512MOL0     C67518   6.517   2.838   7.621 -0.0070  0.1844  0.7151
  512MOL0     H67519   6.764   2.452   7.588 -1.4303  2.1245 -0.2666
  512MOL0     H67520   6.959   2.313   7.568 -1.7034  0.3628 -2.1595
  512MOL0     H67521   7.314   2.420   7.793 -1.5049 -2.8432  1.4109
  512MOL0     H67522   7.427   2.376   7.656  0.3724  1.3280  2.1649
  512MOL0     H67523   7.244   2.203   7.812 -0.8033 -0.5194 -0.5256
  512MOL0     H67524   7.426   2.210   7.791  0.0843 -1.2155 -1.6460
  512MOL0     H67525   7.403   2.120   7.558  0.1036  1.9600  0.9401
  512MOL0     H67526   7.220   2.107   7.587 -0.0981 -3.0633 -1.4185
  512MOL0     H67527   7.438   1.961   7.718  0.7521  1.6207 -3.0104
  512MOL0     H67528   7.260   1.950   7.756  0.2578  0.7371 -0.1007
  512MOL0     H67529   7.333   1.942   7.469  1.5535 -0.6972  0.3727
  512MOL0     H67530   7.220   1.853   7.571  0.5117 -2.6332 -1.4615
  512MOL0     H67531   7.528   1.803   7.580  0.2251 -0.6818  0.1476
  512MOL0     H67532   7.429   1.709   7.481 -0.9623 -1.6314  1.9330
  512MOL0     H67533   7.487   1.607   7.688  1.2403  2.1299 -1.9737
  512MOL0     H67534   7.393   1.720   7.783  2.8703  0.0011  0.8023
  512MOL0     H67535   7.248   1.552   7.567 -2.8674 -1.4786  1.2846
  512MOL0     H67536   7.180   1.656   7.686 -0.0658  0.7908 -0.1868
  512MOL0     H67537   7.163   1.601   7.932  0.0095 -1.7475  3.5914
  512MOL0     H67538   7.055   1.448   8.069 -0.0396 -0.7143  0.9104
  512MOL0     H67539   7.215   1.444   8.154 -0.8219 -4.0292  2.9713
  512MOL0     H67540   7.027   1.226   8.090 -0.5666  4.2169 -0.9621
  512MOL0     H67541   7.077   1.288   8.254  2.3479 -0.6755  2.2699
  512MOL0     H67542   7.178   1.064   8.206  1.5465  0.4058  0.2072
  512MOL0     H67543   7.253   1.129   8.057  1.1982 -4.2493  0.4817
  512MOL0     H67544   7.309   1.189   8.346  0.5951 -0.5645  0.5996
  512MOL0     H67545   7.391   1.268   8.213 -2.0495  2.0403  4.9076
  512MOL0     H67546   7.508   1.247   8.415 -0.8915 -1.3668 -0.2156
  512MOL0     H67547   7.729   1.232   8.558  2.3664  0.1006 -1.1264
  512MOL0     H67548   8.077   0.808   8.754  1.1578 -0.4299 -0.2104
  512MOL0     H67549   8.299   0.797   8.840  1.9033 -0.0070 -0.7462
  512MOL0     H67550   8.546   0.824   8.923  1.0809  0.4216  1.2773
  512MOL0     H67551   8.455   0.965   8.914 -0.3205  1.8437 -2.3542
  512MOL0     H67552   8.690   1.021   8.964 -2.6978 -1.3893  1.4404
  512MOL0     H67553   8.659   1.082   8.795 -3.6154 -0.1812  0.5252
  512MOL0     H67554   8.766   0.858   8.715 -0.5700 -0.5240  0.2987
  512MOL0     H67555   8.784   0.823   8.884  2.2385  0.8101  0.8122
  512MOL0     H67556   8.920   1.043   8.723 -0.3603 -0.6085 -0.4168
  512MOL0     H67557   8.923   1.025   8.905  0.6836 -3.5265  2.5121
  512MOL0     H67558   9.014   0.790   8.744  1.8176 -1.5422  1.0580
  512MOL0     H67559   9.033   0.841   8.915  0.5560  2.4909  1.3238
  512MOL0     H67560   9.176   1.021   8.858  0.5503 -2.1323  1.6832
  512MOL0     H67561   9.174   0.985   8.682 -1.3690  0.3347 -0.0399
  512MOL0     H67562   9.283   0.818   8.912  1.4153 -0.9898 -0.3997
  512MOL0     H67563   9.262   0.746   8.747  2.7905 -1.6007  1.0143
  512MOL0     H67564   9.431   0.977   8.828 -0.6593 -1.1008  1.3458
  512MOL0     H67565   9.402   0.933   8.661  0.6082 -1.4511 -0.4644
  512MOL0     H67566   8.419   1.046   8.505 -0.5962 -0.3405 -2.0309
  512MOL0     H67567   8.188   1.052   8.435 -0.2382  1.6357  1.2114
  512MOL0     H67568   7.807   0.861   8.332  2.5374  3.1860 -5.4267
  512MOL0     H67569   7.596   0.875   8.238 -1.4343 -0.4983  3.0141
  512MOL0     H67570   7.208   2.610   7.755  1.0336 -0.9355  0.1833
  512MOL0     H67571   7.014   2.750   7.775 -1.0665  0.3683  0.0268
  512MOL0     H67572   6.630   3.023   7.880 -1.1194 -0.1756  0.3703
  512MOL0     H67573   6.434   3.144   7.846  0.3798  0.4126 -1.0291
  512MOL0     H67574   6.158   3.238   7.761  0.0547 -1.1097  2.0055
  512MOL0     H67575   6.178   3.065   7.807  1.6207  0.8641  1.5776
  512MOL0     H67576   6.010   3.167   7.572  1.6735 -0.4922 -1.0672
  512MOL0     H67577   6.015   3.004   7.622  0.1704  0.3347 -2.7187
  512MOL0     H67578   5.909   3.227   7.799  2.2303 -1.2708  3.7269
  512MOL0     H67579   5.943   3.073   7.860  2.4758  1.1810  0.1879
  512MOL0     H67580   5.766   2.979   7.686 -3.8797 -0.3776  1.3206
  512MOL0     H67581   5.702   3.099   7.795  0.8732  1.4828  1.4837
  512MOL0     H67582   5.639   3.297   7.430 -0.3418 -1.9253 -1.1351
  512MOL0     H67583   6.321   2.884   7.534  0.4719 -1.6557 -0.8907
  512MOL0     H67584   6.559   2.754   7.567  4.0082  3.3570 -1.7617
  513MOL0     O67585  10.528   7.025   7.948  0.1325 -0.1133  0.7212
  513MOL0     C67586  10.461   6.931   7.909  0.5133 -1.0394  0.0931
  513MOL0     O67587  10.330   6.898   7.946 -0.0926 -0.0395  0.1357
  513MOL0     C67588  10.249   6.992   8.011 -0.6556 -0.2027 -0.3404
  513MOL0     C67589  10.238   7.126   7.984  0.0548  0.1180 -0.6657
  513MOL0     C67590  10.122   7.195   8.028 -0.2412  0.9604  0.4615
  513MOL0     C67591  10.023   7.137   8.104 -0.0931  0.0031 -0.2469
  513MOL0     O67592   9.895   7.180   8.125 -0.2481  0.0233  0.1766
  513MOL0     C67593   9.867   7.317   8.083  0.1973 -0.2853 -0.2849
  513MOL0     C67594   9.717   7.346   8.115 -0.0581 -0.3929 -0.7869
  513MOL0     C67595   9.696   7.415   8.254 -0.1836  0.2052 -0.0354
  513MOL0     C67596   9.557   7.438   8.283  0.6115 -0.3134 -0.7077
  513MOL0     C67597   9.516   7.437   8.433 -0.0018  0.1980 -0.5319
  513MOL0     C67598   9.561   7.555   8.514 -0.0435 -0.1932 -1.0148
  513MOL0     C67599   9.522   7.561   8.664 -1.1320  0.2860 -0.1739
  513MOL0     C67600   9.556   7.711   8.703  0.1027 -0.5555 -0.5691
  513MOL0     N67601   9.498   7.708   8.840 -0.6846  0.1389 -0.0506
  513MOL0     C67602   9.381   7.767   8.880  0.1606  0.5212  1.2444
  513MOL0     C67603   9.385   7.737   9.000 -1.0160  0.0824 -0.0324
  513MOL0     C67604   9.292   7.788   9.106  0.2093 -0.8366  0.5465
  513MOL0     C67605   9.142   7.825   9.058 -0.2241  0.2145  0.1771
  513MOL0     C67606   9.048   7.829   9.182  0.5439 -0.1424 -0.2600
  513MOL0     C67607   8.902   7.786   9.128  0.0117  1.0940 -0.3614
  513MOL0     O67608   8.873   7.645   9.128 -0.2852  0.0319  0.2451
  513MOL0     C67609   8.744   7.620   9.124  0.4353  1.3364  0.2123
  513MOL0     C67610   8.694   7.507   9.192  0.2189  0.3952 -0.3374
  513MOL0     C67611   8.556   7.479   9.193  0.6421  0.4561  0.6341
  513MOL0     C67612   8.469   7.567   9.117  0.8141 -0.4628 -0.1430
  513MOL0     C67613   8.321   7.549   9.113 -1.0325 -0.0203 -0.4085
  513MOL0     O67614   8.233   7.648   9.071 -0.5089  0.3466  0.0761
  513MOL0     C67615   8.105   7.592   9.055  0.3520 -0.7228  0.5815
  513MOL0     C67616   8.009   7.641   9.137  0.2342 -0.8476  0.7039
  513MOL0     C67617   7.878   7.587   9.125 -0.2651  0.2735 -0.1247
  513MOL0     C67618   7.842   7.480   9.042 -0.7393  0.8391  0.4840
  513MOL0     O67619   7.708   7.443   9.050  0.4311 -0.0925  0.1526
  513MOL0     C67620   7.671   7.332   8.976  0.8229 -0.5931 -0.1843
  513MOL0     C67621   7.521   7.327   8.963 -0.9664 -0.8704  0.2909
  513MOL0     C67622   7.452   7.469   8.983  0.4478 -0.4813  0.2885
  513MOL0     C67623   7.304   7.485   8.952 -0.3063  0.3422 -0.5976
  513MOL0     C67624   7.255   7.627   8.971 -1.4021  0.1751  0.7781
  513MOL0     C67625   7.106   7.657   8.937  0.4810  0.2514 -0.4687
  513MOL0     C67626   7.072   7.806   8.961 -0.0489  0.4801  0.1321
  513MOL0     C67627   6.927   7.817   8.928 -0.0929 -0.0181  0.4703
  513MOL0    Cl67628   6.906   7.830   8.750 -0.5006 -0.3293 -0.0738
  513MOL0     C67629   7.950   7.428   8.959  0.1904 -0.3187  0.4345
  513MOL0     C67630   8.076   7.486   8.971  0.1906  0.8210  0.3973
  513MOL0     O67631   8.289   7.436   9.159 -0.3267  0.9087  0.0957
  513MOL0     C67632   8.519   7.671   9.036  0.1985 -0.6097 -0.8150
  513MOL0     C67633   8.655   7.697   9.042  0.0378  0.2593  0.2720
  513MOL0     N67634   9.491   7.657   9.045  0.6590  0.0425 -0.3542
  513MOL0     N67635   9.564   7.646   8.940 -0.5480 -0.3100  0.4768
  513MOL0     C67636  10.040   7.002   8.135  0.8767  0.3993 -0.2790
  513MOL0     C67637  10.143   6.934   8.085  0.1458  0.1595 -0.1253
  513MOL0     C67638  10.528   6.833   7.816 -0.0310 -0.8587  0.8046
  513MOL0     C67639  10.655   6.880   7.758 -0.4808  0.0168  0.4399
  513MOL0     C67640  10.741   6.788   7.694 -0.1781 -0.0211  0.7429
  513MOL0     C67641  10.696   6.657   7.678 -0.1423  1.2088  0.5923
  513MOL0     O67642  10.791   6.572   7.628 -0.3849  0.3806  1.0113
  513MOL0     C67643  10.759   6.431   7.630  0.2273 -0.0024 -0.6011
  513MOL0     C67644  10.903   6.360   7.630 -0.6648  0.0725  0.1384
  513MOL0     C67645  10.995   6.426   7.736  0.0377 -0.4812 -0.1804
  513MOL0     C67646  11.097   6.321   7.789 -0.0006  0.3241 -0.5753
  513MOL0     C67647  11.049   6.194   7.854  0.6835  0.2811  0.5480
  513MOL0     C67648  11.003   6.099   7.896 -0.6901  1.0181  0.0756
  513MOL0     C67649  10.561   6.621   7.718  0.0791  0.5608 -0.3577
  513MOL0     C67650  10.471   6.710   7.787 -0.0697  0.5564 -0.8645
  513MOL0     H67651  10.310   7.178   7.921  0.9391  3.4417  2.6773
  513MOL0     H67652  10.116   7.297   7.991 -0.4975 -0.1212 -2.8890
  513MOL0     H67653   9.884   7.327   7.975  0.5326  3.0867 -0.0239
  513MOL0     H67654   9.922   7.391   8.141 -1.0893  1.7145 -1.4786
  513MOL0     H67655   9.659   7.253   8.117 -1.1287  0.2704  0.9236
  513MOL0     H67656   9.674   7.416   8.043 -0.5804 -0.1338 -0.2281
  513MOL0     H67657   9.748   7.510   8.261 -1.3419  0.9029 -0.5395
  513MOL0     H67658   9.747   7.351   8.327  2.6857 -1.5526 -3.2634
  513MOL0     H67659   9.519   7.525   8.229  0.4791  0.4244  0.5230
  513MOL0     H67660   9.491   7.357   8.253 -1.0060 -0.6637  3.2141
  513MOL0     H67661   9.562   7.351   8.482 -3.0653 -1.4898 -0.3780
  513MOL0     H67662   9.406   7.433   8.435  0.0328 -0.9560  1.0293
  513MOL0     H67663   9.528   7.649   8.469  0.1614  0.2580 -0.2421
  513MOL0     H67664   9.670   7.546   8.522 -0.0719 -0.6344 -1.1211
  513MOL0     H67665   9.415   7.546   8.678 -1.0821  1.4247  1.8140
  513MOL0     H67666   9.575   7.489   8.728  2.0125  3.1169  0.6791
  513MOL0     H67667   9.520   7.789   8.636 -3.1531 -2.3237 -1.0359
  513MOL0     H67668   9.663   7.730   8.715 -0.3142  1.6631  0.1790
  513MOL0     H67669   9.316   7.832   8.823  2.4090  3.5882  1.9360
  513MOL0     H67670   9.331   7.880   9.151 -1.4085  0.5006 -0.6622
  513MOL0     H67671   9.285   7.713   9.185  3.2192 -2.8056 -0.8779
  513MOL0     H67672   9.106   7.759   8.979  1.7276  0.8676 -1.3300
  513MOL0     H67673   9.138   7.926   9.015 -0.0402 -0.3631 -1.2441
  513MOL0     H67674   9.085   7.754   9.253  4.2332  1.2780 -0.4453
  513MOL0     H67675   9.054   7.930   9.224 -0.0088 -0.5265  0.7928
  513MOL0     H67676   8.904   7.820   9.024  0.5507  2.6706  0.1302
  513MOL0     H67677   8.823   7.844   9.177 -0.9647 -1.3083  1.0724
  513MOL0     H67678   8.772   7.459   9.251  0.8384  3.5821  1.7126
  513MOL0     H67679   8.512   7.395   9.246  0.1740 -1.2307 -2.2420
  513MOL0     H67680   8.017   7.728   9.202  0.1125 -0.2228 -0.0981
  513MOL0     H67681   7.798   7.625   9.188 -0.6292  0.6571 -0.8094
  513MOL0     H67682   7.704   7.247   9.037  0.8130 -2.0039 -2.0530
  513MOL0     H67683   7.719   7.322   8.878 -0.3716  0.4786 -0.9205
  513MOL0     H67684   7.481   7.254   9.034  0.4827  0.3763  2.4914
  513MOL0     H67685   7.481   7.285   8.870 -2.4678 -1.9593  1.3785
  513MOL0     H67686   7.513   7.548   8.939  1.5174 -1.3355  0.1875
  513MOL0     H67687   7.459   7.503   9.087 -3.7269 -0.3229  0.6980
  513MOL0     H67688   7.279   7.446   8.853 -2.3497  0.6305 -0.2318
  513MOL0     H67689   7.249   7.420   9.021  0.4522  0.5960  0.2598
  513MOL0     H67690   7.303   7.692   8.897 -1.2733  0.0503  0.7520
  513MOL0     H67691   7.286   7.659   9.071 -1.4072  1.5257  0.3731
  513MOL0     H67692   7.036   7.601   9.000 -1.0468  4.2700  1.7828
  513MOL0     H67693   7.096   7.617   8.836 -0.8855 -2.3894  0.6214
  513MOL0     H67694   7.098   7.838   9.062  2.2578 -1.2230  0.1567
  513MOL0     H67695   7.127   7.871   8.893 -0.8388  1.3842  0.3414
  513MOL0     H67696   6.882   7.907   8.970 -0.1631  0.3000 -0.2730
  513MOL0     H67697   6.868   7.734   8.970  0.5878 -1.3608 -1.1198
  513MOL0     H67698   7.933   7.347   8.890  0.2867 -1.2457  1.4750
  513MOL0     H67699   8.152   7.446   8.905  0.1802  3.8495 -1.6577
  513MOL0     H67700   8.458   7.736   8.973  1.1934  1.4020  0.2033
  513MOL0     H67701   8.689   7.772   8.971 -2.9147  0.4474 -1.0890
  513MOL0     H67702   9.964   6.951   8.192  0.7025 -0.0536 -0.9028
  513MOL0     H67703  10.156   6.827   8.104 -0.2901  0.6385  3.8522
  513MOL0     H67704  10.693   6.981   7.767 -0.4223  0.1121 -0.6834
  513MOL0     H67705  10.842   6.819   7.668 -1.2356  2.3777 -0.8223
  513MOL0     H67706  10.708   6.400   7.538 -0.9016 -1.8082  0.5454
  513MOL0     H67707  10.705   6.417   7.724 -0.6457  7.7371  0.6720
  513MOL0     H67708  10.888   6.252   7.631  0.6372 -0.3617 -4.4166
  513MOL0     H67709  10.955   6.361   7.533 -3.3648 -1.6613 -1.4709
  513MOL0     H67710  10.938   6.457   7.824  2.9953  2.9610  0.7525
  513MOL0     H67711  11.035   6.515   7.687 -2.6323  0.2289 -1.2454
  513MOL0     H67712  11.173   6.301   7.713 -0.6590  0.5279 -1.3059
  513MOL0     H67713  11.154   6.362   7.873 -0.2663 -0.9781  0.2663
  513MOL0     H67714  10.952   6.010   7.926  0.7902 -0.4852 -1.6960
  513MOL0     H67715  10.509   6.529   7.694 -0.5526  0.5533  0.9401
  513MOL0     H67716  10.372   6.684   7.824  0.0293  1.2425 -0.1008
  514MOL0     O67717   1.113   1.626  10.044  0.5573  0.2618  0.0703
  514MOL0     C67718   1.132   1.748  10.010  0.0160  0.4066  0.5641
  514MOL0     O67719   1.041   1.839   9.986  0.4512  0.0915  1.0082
  514MOL0     C67720   0.914   1.804  10.012 -0.4200  0.3651  0.0772
  514MOL0     C67721   0.849   1.706   9.933 -0.5947 -0.5314  0.1591
  514MOL0     C67722   0.717   1.661   9.964 -0.4452 -0.3842  0.8914
  514MOL0     C67723   0.642   1.716  10.068 -0.1469  0.6610 -0.7153
  514MOL0     O67724   0.510   1.677  10.096  0.7725  0.0722 -1.1188
  514MOL0     C67725   0.447   1.711  10.220  0.0346  0.1877 -0.1759
  514MOL0     C67726   0.308   1.643  10.227 -1.2662 -0.4038 -0.3091
  514MOL0     C67727   0.215   1.731  10.134  0.3446 -0.5892  0.4245
  514MOL0     C67728   0.070   1.694  10.130 -0.0247  0.6810 -0.6686
  514MOL0     C67729   0.010   1.712  10.278  0.7831 -0.5400 -0.0639
  514MOL0     C67730  -0.146   1.694  10.271 -1.5276  0.6652  0.7653
  514MOL0     C67731  -0.223   1.751  10.155  0.6541 -0.7320  1.1008
  514MOL0     C67732  -0.365   1.765  10.210  0.2005 -0.4044  0.6742
  514MOL0     N67733  -0.454   1.834  10.120 -0.6933  0.3609 -0.0722
  514MOL0     C67734  -0.571   1.784  10.066  0.0332  0.0342 -0.1897
  514MOL0     C67735  -0.621   1.889   9.993 -0.1213  0.4970 -0.0509
  514MOL0     C67736  -0.742   1.882   9.892  0.1247 -0.4473 -0.2287
  514MOL0     C67737  -0.694   1.933   9.755 -0.8885 -0.0870 -0.1358
  514MOL0     C67738  -0.811   1.997   9.681 -0.9732  0.0880 -0.1806
  514MOL0     C67739  -0.940   1.912   9.667  0.5883  0.2306  0.0733
  514MOL0     O67740  -1.052   2.001   9.656  0.6729  0.8652 -0.4761
  514MOL0     C67741  -1.150   1.998   9.750  0.1245 -0.3317 -0.3068
  514MOL0     C67742  -1.142   1.972   9.889 -0.2905  0.9629  0.2338
  514MOL0     C67743  -1.256   1.967   9.958  0.0084  0.0880  0.2238
  514MOL0     C67744  -1.385   1.988   9.901  0.4256  0.2782  0.5399
  514MOL0     C67745  -1.511   1.970   9.980  0.2910 -0.3728 -0.5755
  514MOL0     O67746  -1.623   1.997   9.903 -0.1138  0.7523 -0.5844
  514MOL0     C67747  -1.750   1.988   9.952 -0.9959 -0.7202  0.3771
  514MOL0     C67748  -1.794   2.006  10.081  0.3863  0.5250 -0.4501
  514MOL0     C67749  -1.929   1.988  10.118 -0.9266 -0.2290  0.3962
  514MOL0     C67750  -2.018   1.960  10.015  0.2173  0.9910  0.3280
  514MOL0     O67751  -2.142   1.923  10.048 -1.0584 -0.1470  0.2979
  514MOL0     C67752  -2.223   2.041  10.059 -0.4786  0.2987 -0.0212
  514MOL0     C67753  -2.379   2.027  10.082 -0.5975  0.5286 -0.7627
  514MOL0     C67754  -2.419   2.041  10.230 -0.2191 -0.4722 -0.1471
  514MOL0     C67755  -2.570   2.039  10.262  0.1477 -0.5640  0.5925
  514MOL0     C67756  -2.603   2.085  10.410 -0.8563  0.5085 -0.6576
  514MOL0     C67757  -2.583   1.980  10.526  0.0799 -0.5002 -0.3737
  514MOL0     C67758  -2.662   2.024  10.650 -0.0422  0.9950 -0.8289
  514MOL0     C67759  -2.609   2.146  10.716  0.2200  0.2908 -0.1567
  514MOL0    Cl67760  -2.450   2.106  10.790  0.3459 -0.0067 -0.2032
  514MOL0     C67761  -1.980   1.954   9.879  0.6768 -0.0306 -0.7021
  514MOL0     C67762  -1.845   1.970   9.847 -0.0079 -0.1646  0.7478
  514MOL0     O67763  -1.506   1.893  10.078  0.0039  0.1229  0.6165
  514MOL0     C67764  -1.391   2.029   9.763  0.1660 -0.0593 -0.5449
  514MOL0     C67765  -1.272   2.027   9.695  0.7020 -0.0299 -0.1321
  514MOL0     N67766  -0.537   1.990  10.016 -0.2969  0.4547  0.4285
  514MOL0     N67767  -0.450   1.961  10.101 -0.3099 -1.0934  0.4064
  514MOL0     C67768   0.711   1.816  10.143 -0.6399  0.9724  0.3224
  514MOL0     C67769   0.840   1.866  10.115  0.0382  1.5805  0.4477
  514MOL0     C67770   1.274   1.777   9.993 -0.1532 -0.4418  0.2607
  514MOL0     C67771   1.318   1.905   9.932 -0.0249  0.6624 -0.9417
  514MOL0     C67772   1.454   1.924   9.901  0.5183 -0.5424 -0.5774
  514MOL0     C67773   1.546   1.825   9.926  0.1502 -0.1069 -0.0881
  514MOL0     O67774   1.677   1.832   9.884 -0.2156 -0.2856 -0.6639
  514MOL0     C67775   1.732   1.715   9.810 -0.2758  0.8926  0.4992
  514MOL0     C67776   1.879   1.692   9.846 -0.7499  0.4828 -0.0821
  514MOL0     C67777   1.980   1.764   9.751 -0.5359  0.3431  0.1899
  514MOL0     C67778   2.112   1.690   9.769  0.3486  0.3752 -1.3511
  514MOL0     C67779   2.191   1.729   9.885  0.4102 -0.4330 -0.5838
  514MOL0     C67780   2.265   1.752   9.980 -0.5116  0.3417 -0.3278
  514MOL0     C67781   1.508   1.707   9.994 -0.7203  0.9893  0.2587
  514MOL0     C67782   1.373   1.686  10.028 -0.3308  0.0164 -1.2422
  514MOL0     H67783   0.895   1.666   9.843  0.2047 -0.3485  0.4814
  514MOL0     H67784   0.693   1.577   9.899  0.1355  1.0927 -1.3843
  514MOL0     H67785   0.436   1.810  10.264 -0.3153  0.1678 -0.2094
  514MOL0     H67786   0.517   1.662  10.288  0.2413  0.6013 -0.0907
  514MOL0     H67787   0.280   1.657  10.331  0.1932  1.5756 -0.1203
  514MOL0     H67788   0.306   1.539  10.194  1.7633 -0.5715 -0.2540
  514MOL0     H67789   0.252   1.730  10.031  2.7381 -0.5835  1.2325
  514MOL0     H67790   0.209   1.836  10.165  0.3124 -0.9428  1.6297
  514MOL0     H67791   0.033   1.768  10.059  2.5533  0.2322 -2.6461
  514MOL0     H67792   0.057   1.589  10.100 -0.5310  0.6752 -0.4369
  514MOL0     H67793   0.020   1.816  10.310 -3.6297 -0.7010  2.5984
  514MOL0     H67794   0.046   1.643  10.355  0.1963  0.4648  1.1412
  514MOL0     H67795  -0.195   1.732  10.361  0.1216  0.8265  1.6298
  514MOL0     H67796  -0.163   1.586  10.276 -0.1728  0.4885  2.9753
  514MOL0     H67797  -0.186   1.849  10.124 -2.0678  0.6617  1.9022
  514MOL0     H67798  -0.235   1.685  10.069  0.5758 -0.6422  1.0434
  514MOL0     H67799  -0.359   1.837  10.292 -2.1192 -0.5535  1.0660
  514MOL0     H67800  -0.407   1.671  10.246  0.3390 -0.8007 -0.1732
  514MOL0     H67801  -0.605   1.682  10.081 -2.4691  1.0102  1.5290
  514MOL0     H67802  -0.828   1.946   9.916  0.0508  0.1047 -1.7959
  514MOL0     H67803  -0.782   1.781   9.884 -0.1887 -0.4143  0.7730
  514MOL0     H67804  -0.665   1.844   9.698 -4.3597 -1.9444  0.6816
  514MOL0     H67805  -0.610   2.003   9.755  0.0047 -1.1199 -0.2395
  514MOL0     H67806  -0.832   2.087   9.741  1.3824 -1.1523  2.7260
  514MOL0     H67807  -0.780   2.018   9.578  1.2266 -2.4694 -0.1219
  514MOL0     H67808  -0.947   1.841   9.751  0.5659  0.2719  0.1068
  514MOL0     H67809  -0.935   1.861   9.571  2.8285  2.5384 -1.1304
  514MOL0     H67810  -1.045   1.949   9.933  1.1243  1.7611 -2.2106
  514MOL0     H67811  -1.254   1.944  10.065 -2.4757  0.4430  0.3955
  514MOL0     H67812  -1.718   2.032  10.154  0.9263  1.5314 -1.3479
  514MOL0     H67813  -1.972   1.979  10.218  0.4632 -0.1575  1.0252
  514MOL0     H67814  -2.209   2.102   9.970  3.1979  2.8280  2.0197
  514MOL0     H67815  -2.181   2.095  10.145  0.6287  0.3226 -0.5637
  514MOL0     H67816  -2.411   1.931  10.041 -2.2042  1.2047 -1.1665
  514MOL0     H67817  -2.425   2.104  10.019  0.6868  1.4457 -0.6248
  514MOL0     H67818  -2.387   2.140  10.263  0.0186 -0.7691  0.5207
  514MOL0     H67819  -2.376   1.963  10.292 -2.2621 -0.8644  0.8683
  514MOL0     H67820  -2.616   2.109  10.191  1.6716  1.8532  1.8164
  514MOL0     H67821  -2.601   1.936  10.243  4.1766 -1.4099 -3.0396
  514MOL0     H67822  -2.710   2.105  10.404 -1.6256 -2.0829  1.9869
  514MOL0     H67823  -2.535   2.168  10.427 -0.8007  0.2071  0.6753
  514MOL0     H67824  -2.478   1.981  10.555 -0.8819  3.5008  4.4675
  514MOL0     H67825  -2.616   1.877  10.511 -0.0696 -0.3121 -1.3834
  514MOL0     H67826  -2.761   2.034  10.605  0.5668 -1.0551 -2.7968
  514MOL0     H67827  -2.654   1.951  10.731  1.5846  3.6467  1.6077
  514MOL0     H67828  -2.684   2.180  10.787 -1.7384 -0.0249 -1.9603
  514MOL0     H67829  -2.582   2.228  10.649  1.6181 -0.1887 -0.2072
  514MOL0     H67830  -2.057   1.938   9.804 -1.9641 -0.7429  1.9402
  514MOL0     H67831  -1.811   1.954   9.745 -0.4227  1.6661  0.2867
  514MOL0     H67832  -1.482   2.054   9.709  1.3713  4.7925 -0.8070
  514MOL0     H67833  -1.278   2.038   9.587  0.6545 -2.6216 -0.4382
  514MOL0     H67834   0.663   1.873  10.222 -0.6437  0.1928  0.8861
  514MOL0     H67835   0.896   1.930  10.181  1.6224 -0.8741  1.6148
  514MOL0     H67836   1.248   1.985   9.911  0.2307  0.9629 -0.6468
  514MOL0     H67837   1.502   2.015   9.867  3.2047 -0.9464  1.7993
  514MOL0     H67838   1.739   1.749   9.706 -0.6665  2.3430  0.9169
  514MOL0     H67839   1.671   1.625   9.811  1.8009 -0.8515 -3.6942
  514MOL0     H67840   1.899   1.701   9.954  1.4542 -1.4129 -0.2518
  514MOL0     H67841   1.886   1.585   9.827 -2.2952  0.1548  0.9830
  514MOL0     H67842   1.989   1.868   9.785 -2.7733  0.9161 -0.8399
  514MOL0     H67843   1.954   1.760   9.645 -0.8985 -2.2876  0.2977
  514MOL0     H67844   2.097   1.581   9.771  0.7235  0.3350 -0.6362
  514MOL0     H67845   2.184   1.726   9.695 -1.9890  1.4909 -3.2412
  514MOL0     H67846   2.343   1.773  10.050  0.1133  0.6433 -1.0930
  514MOL0     H67847   1.588   1.636  10.013 -1.2251 -0.3297 -2.0877
  514MOL0     H67848   1.351   1.596  10.085  3.5223 -0.2965  0.0337
  515MOL0     O67849   7.152   3.115   9.197  0.0380 -0.0441  0.0842
  515MOL0     C67850   7.263   3.089   9.242  0.0295  0.0012  0.2097
  515MOL0     O67851   7.289   3.042   9.367 -0.3261  0.0885  1.1344
  515MOL0     C67852   7.185   3.000   9.451  0.2169 -0.5886 -0.8674
  515MOL0     C67853   7.171   2.876   9.508  0.3512  0.8197 -0.6176
  515MOL0     C67854   7.079   2.856   9.609  0.2581  0.5024  0.8045
  515MOL0     C67855   6.981   2.950   9.638  0.4721  0.8117 -0.6978
  515MOL0     O67856   6.891   2.910   9.736 -0.6389  0.9916  0.7659
  515MOL0     C67857   6.754   2.940   9.701  0.4944  0.7400 -0.2029
  515MOL0     C67858   6.676   2.901   9.823  0.6327 -0.3466 -0.4674
  515MOL0     C67859   6.528   2.892   9.786  0.5362 -0.4969  0.5027
  515MOL0     C67860   6.461   2.825   9.907  0.5323  0.2956  0.0917
  515MOL0     C67861   6.316   2.805   9.874  0.8242 -0.1093 -0.8622
  515MOL0     C67862   6.233   2.929   9.904 -0.5601 -0.4591  0.0170
  515MOL0     C67863   6.091   2.942   9.852 -0.5847 -0.1565  0.7607
  515MOL0     C67864   6.001   2.857   9.942  0.1810 -0.4572  0.6780
  515MOL0     N67865   5.865   2.891   9.903 -0.4434  0.4646 -0.4465
  515MOL0     C67866   5.817   3.017   9.932 -0.1191 -0.3784  0.0657
  515MOL0     C67867   5.705   3.026   9.859  0.5648 -1.2552  0.8459
  515MOL0     C67868   5.601   3.136   9.841 -0.4446  0.3799  0.3784
  515MOL0     C67869   5.458   3.075   9.822 -0.4935 -0.0323 -0.2809
  515MOL0     C67870   5.359   3.204   9.801 -0.7662 -0.6548 -0.2606
  515MOL0     C67871   5.346   3.297   9.927 -0.6642 -0.3140 -0.6901
  515MOL0     O67872   5.297   3.223  10.040  0.2596  0.5325 -0.3096
  515MOL0     C67873   5.156   3.211  10.054  0.0925 -0.3841 -0.4820
  515MOL0     C67874   5.066   3.220   9.947  0.5415  0.3606 -0.1560
  515MOL0     C67875   4.927   3.203   9.972  0.5591  0.5519  0.7535
  515MOL0     C67876   4.878   3.192  10.105  0.0643  0.0812 -0.1199
  515MOL0     C67877   4.736   3.161  10.134 -1.1523 -0.2506 -0.9351
  515MOL0     O67878   4.658   3.115  10.031  0.1190 -0.7582 -0.1140
  515MOL0     C67879   4.527   3.128  10.057 -0.1653  0.1162  0.8508
  515MOL0     C67880   4.481   3.258  10.040 -0.2120  0.2142 -0.1082
  515MOL0     C67881   4.346   3.292  10.058  0.2511  0.5593  0.2078
  515MOL0     C67882   4.252   3.187  10.099  0.2812 -1.4830  0.3453
  515MOL0     O67883   4.122   3.196  10.112 -0.2847  0.1379 -0.1627
  515MOL0     C67884   4.040   3.298  10.041  0.5228  0.3174 -0.4802
  515MOL0     C67885   3.894   3.289  10.098  0.2406 -0.7039  0.4347
  515MOL0     C67886   3.840   3.149  10.062  0.2528 -0.4895 -0.1679
  515MOL0     C67887   3.686   3.162  10.052 -0.4755 -0.4582 -0.0843
  515MOL0     C67888   3.623   3.035  10.006  0.7695  0.1289 -0.1230
  515MOL0     C67889   3.467   3.050  10.016 -0.6393 -0.9654 -0.0521
  515MOL0     C67890   3.399   2.918   9.988 -0.8865 -0.0207 -0.1651
  515MOL0     C67891   3.398   2.907   9.841  1.1703 -0.5519 -0.6050
  515MOL0    Cl67892   3.274   2.795   9.783 -0.0620 -0.0815 -0.4229
  515MOL0     C67893   4.305   3.066  10.135 -0.1879 -0.2416 -0.1719
  515MOL0     C67894   4.441   3.029  10.109  0.3915 -0.1902 -0.6745
  515MOL0     O67895   4.689   3.176  10.252  0.2595  0.3839  0.4454
  515MOL0     C67896   4.972   3.197  10.213 -0.6772 -0.3088  0.2532
  515MOL0     C67897   5.109   3.190  10.191 -0.1085 -0.8253  0.4475
  515MOL0     N67898   5.685   2.905   9.795 -0.6499  0.1911 -1.1537
  515MOL0     N67899   5.784   2.823   9.823 -0.1184  1.0330  0.5735
  515MOL0     C67900   6.999   3.079   9.592  0.1258  0.0782 -0.5029
  515MOL0     C67901   7.103   3.107   9.505 -0.6636  0.1426 -0.0321
  515MOL0     C67902   7.386   3.134   9.172 -0.0357  0.6786 -0.2246
  515MOL0     C67903   7.524   3.109   9.211  0.4144  0.1319 -1.0754
  515MOL0     C67904   7.633   3.144   9.125  0.8332 -0.3868 -1.1460
  515MOL0     C67905   7.609   3.218   9.007 -0.0481  0.0422 -0.4397
  515MOL0     O67906   7.704   3.262   8.919 -0.1673  0.0758 -0.0326
  515MOL0     C67907   7.838   3.245   8.956  0.7555  0.4378 -0.5376
  515MOL0     C67908   7.916   3.343   8.868 -0.4536  0.5882  0.9925
  515MOL0     C67909   7.877   3.488   8.884 -0.4215 -0.1799 -0.5588
  515MOL0     C67910   7.943   3.594   8.796 -0.5143  0.8806  0.4005
  515MOL0     C67911   7.899   3.586   8.653 -0.5930 -0.5104 -0.7014
  515MOL0     C67912   7.860   3.581   8.541  0.9136 -0.0462  0.6463
  515MOL0     C67913   7.477   3.249   8.979  0.2252  0.0036  0.2912
  515MOL0     C67914   7.371   3.209   9.054  0.5823  0.9579  0.1984
  515MOL0     H67915   7.239   2.796   9.480 -0.5601 -0.0851 -0.3107
  515MOL0     H67916   7.077   2.751   9.638 -0.9205 -0.7343 -3.1736
  515MOL0     H67917   6.721   2.890   9.609  1.0796  3.0541 -1.7973
  515MOL0     H67918   6.731   3.046   9.685 -2.3530  0.7042  2.7022
  515MOL0     H67919   6.693   2.977   9.900  2.1998 -0.0699 -1.0330
  515MOL0     H67920   6.698   2.803   9.866 -4.4474 -0.3033  3.0920
  515MOL0     H67921   6.516   2.815   9.710 -2.0839 -1.4673  1.7781
  515MOL0     H67922   6.487   2.988   9.751  2.9470  0.0791 -0.9554
  515MOL0     H67923   6.510   2.733   9.942 -2.0370 -0.4725  1.9702
  515MOL0     H67924   6.478   2.883   9.998  0.9176 -1.5429  1.2504
  515MOL0     H67925   6.274   2.738   9.949 -5.7135  4.5524  0.4816
  515MOL0     H67926   6.296   2.776   9.771 -2.0146  0.0160 -0.4323
  515MOL0     H67927   6.295   3.008   9.860  0.0183  0.2243  1.9613
  515MOL0     H67928   6.237   2.948  10.012  1.7017 -1.7138  0.1992
  515MOL0     H67929   6.059   3.047   9.855 -0.7006 -0.2036  1.2614
  515MOL0     H67930   6.086   2.907   9.748 -0.7984 -0.1526  0.7686
  515MOL0     H67931   6.029   2.860  10.047  3.6175  0.5767 -0.1414
  515MOL0     H67932   6.006   2.749   9.925  0.3945 -0.4338  0.5841
  515MOL0     H67933   5.865   3.093   9.993 -1.2291 -0.0502  0.5478
  515MOL0     H67934   5.629   3.193   9.752 -0.6703  1.6314  1.0916
  515MOL0     H67935   5.615   3.208   9.922  2.4261 -0.2630  0.5620
  515MOL0     H67936   5.431   3.009   9.905 -0.7555 -0.9411 -1.0693
  515MOL0     H67937   5.460   3.017   9.729  1.9207 -0.7412  0.1389
  515MOL0     H67938   5.402   3.265   9.721  0.3828 -0.3402  0.5665
  515MOL0     H67939   5.265   3.167   9.760 -1.0680  1.3258 -1.4801
  515MOL0     H67940   5.279   3.381   9.907  0.1017  0.4021 -0.3224
  515MOL0     H67941   5.443   3.342   9.953 -0.8336  0.7783 -1.8351
  515MOL0     H67942   5.088   3.218   9.841  0.6937 -0.8714 -0.1099
  515MOL0     H67943   4.865   3.192   9.884  0.5501 -0.9405  0.9232
  515MOL0     H67944   4.538   3.340   9.998  1.6674  0.0279  1.8880
  515MOL0     H67945   4.314   3.392  10.031 -2.0629  0.6963  3.0104
  515MOL0     H67946   4.042   3.269   9.935  1.2806  3.5248 -1.4589
  515MOL0     H67947   4.078   3.399  10.058 -0.1533  0.0522  3.4972
  515MOL0     H67948   3.828   3.360  10.047 -1.2082 -1.9915  0.4588
  515MOL0     H67949   3.898   3.311  10.205  1.7140  0.4186  0.1819
  515MOL0     H67950   3.867   3.084  10.145 -0.1285 -1.6586 -0.9458
  515MOL0     H67951   3.884   3.119   9.966  2.7109  0.4570  0.5727
  515MOL0     H67952   3.654   3.194  10.152  2.9295 -1.8342  1.6303
  515MOL0     H67953   3.662   3.242   9.982  0.8899  0.0443 -0.0069
  515MOL0     H67954   3.661   2.953  10.068  0.8930 -0.9153 -1.5259
  515MOL0     H67955   3.647   3.007   9.903 -0.3527  2.1068 -0.9760
  515MOL0     H67956   3.438   3.131   9.949 -0.5414 -0.3610  0.6213
  515MOL0     H67957   3.447   3.082  10.119  0.9972 -0.9719  0.3023
  515MOL0     H67958   3.451   2.829  10.024  1.7940  0.2239 -2.9960
  515MOL0     H67959   3.302   2.929  10.037 -0.8659 -1.4413  0.2359
  515MOL0     H67960   3.497   2.883   9.800  1.4082  1.2652 -1.1646
  515MOL0     H67961   3.373   3.004   9.798  1.6633  0.8141  1.9715
  515MOL0     H67962   4.240   2.993  10.183 -2.2518  1.2065 -0.6004
  515MOL0     H67963   4.477   2.931  10.139  1.4785 -0.4684 -2.7039
  515MOL0     H67964   4.942   3.185  10.316  0.3582 -1.1158  0.4721
  515MOL0     H67965   5.182   3.181  10.270  0.4311  0.6097  0.1464
  515MOL0     H67966   6.933   3.152   9.637 -1.1814 -1.4555  0.1723
  515MOL0     H67967   7.125   3.211   9.484  2.2108 -0.7293 -1.9988
  515MOL0     H67968   7.522   3.051   9.302 -1.1310  0.8734 -0.5835
  515MOL0     H67969   7.732   3.111   9.155  0.5656 -0.8117 -0.7146
  515MOL0     H67970   7.876   3.142   8.948  2.8888  1.1013  0.3650
  515MOL0     H67971   7.846   3.276   9.061 -0.7924 -0.1196 -0.2248
  515MOL0     H67972   8.022   3.330   8.892  0.0719  1.5454 -0.6588
  515MOL0     H67973   7.914   3.310   8.764  0.8351  1.7366  0.5868
  515MOL0     H67974   7.894   3.506   8.990  0.8807 -0.2160 -0.7510
  515MOL0     H67975   7.773   3.514   8.861  0.4856  1.4645 -3.4388
  515MOL0     H67976   7.925   3.698   8.828 -1.5113  1.0025 -0.4971
  515MOL0     H67977   8.050   3.572   8.801 -0.5496  0.8344  1.0509
  515MOL0     H67978   7.820   3.583   8.441  0.1369 -4.2775  0.6810
  515MOL0     H67979   7.453   3.304   8.889  1.1416 -2.4299 -1.5767
  515MOL0     H67980   7.266   3.234   9.040  0.6272  1.3386  0.5133
  516MOL0     O67981   2.036  10.134   0.951  0.4776 -0.2750  1.2666
  516MOL0     C67982   2.046  10.077   0.841  0.3983 -0.4895 -0.7943
  516MOL0     O67983   1.942  10.045   0.764 -0.3091  0.7888  0.6506
  516MOL0     C67984   1.819  10.089   0.790  0.2628 -0.4735  0.1851
  516MOL0     C67985   1.745  10.041   0.897 -0.8275 -0.0459 -1.0848
  516MOL0     C67986   1.617  10.088   0.918 -0.3008  0.4919  0.3919
  516MOL0     C67987   1.557  10.174   0.821  0.7740 -0.1765 -0.8741
  516MOL0     O67988   1.437  10.233   0.830 -0.0304  0.2147  0.0332
  516MOL0     C67989   1.353  10.196   0.949  0.5563  0.8830 -0.9359
  516MOL0     C67990   1.271  10.063   0.941 -0.4360  0.4824 -0.9871
  516MOL0     C67991   1.189  10.033   1.070  0.4379 -0.3652 -0.3624
  516MOL0     C67992   1.144   9.884   1.080 -0.5447  0.2659  1.2613
  516MOL0     C67993   1.004   9.857   1.144  0.5201 -0.1016 -0.0546
  516MOL0     C67994   1.004   9.853   1.304 -0.2497  0.7255 -0.5865
  516MOL0     C67995   0.870   9.850   1.364  0.3364  0.1362  0.0011
  516MOL0     C67996   0.809   9.989   1.368  0.5320  0.2504  0.1164
  516MOL0     N67997   0.670   9.983   1.403  0.7231 -0.0481  0.5229
  516MOL0     C67998   0.562   9.983   1.314  0.5135 -0.2989  0.6275
  516MOL0     C67999   0.450   9.965   1.388 -0.3613 -0.1806  0.3939
  516MOL0     C68000   0.313   9.951   1.334  0.3164  0.4371 -0.5921
  516MOL0     C68001   0.214  10.024   1.422  0.9697  0.5525  0.0138
  516MOL0     C68002   0.154   9.933   1.538 -0.0174 -0.7082 -0.1479
  516MOL0     C68003   0.077   9.802   1.501 -0.2277 -0.5772  0.0187
  516MOL0     O68004  -0.047   9.858   1.457 -0.3373  0.0710  0.1951
  516MOL0     C68005  -0.157   9.773   1.441  0.8284 -0.2507 -0.0745
  516MOL0     C68006  -0.160   9.645   1.484  0.3644  0.1576  0.4307
  516MOL0     C68007  -0.268   9.570   1.475  0.3015  0.4776  1.0796
  516MOL0     C68008  -0.392   9.626   1.434 -0.2673 -0.2042 -0.8594
  516MOL0     C68009  -0.506   9.545   1.424 -0.0163 -0.2286  0.5846
  516MOL0     O68010  -0.616   9.615   1.388 -0.7675 -0.3331  0.0475
  516MOL0     C68011  -0.743   9.557   1.384 -0.1917  0.2530  0.0350
  516MOL0     C68012  -0.840   9.597   1.470 -0.7950 -0.6364  0.0371
  516MOL0     C68013  -0.967   9.573   1.446  0.1544 -0.3560 -0.0795
  516MOL0     C68014  -1.006   9.488   1.334  0.3525  0.1283  0.4375
  516MOL0     O68015  -1.141   9.465   1.317  0.0790 -0.0520  0.3955
  516MOL0     C68016  -1.186   9.331   1.301 -0.8729  0.5931  0.7843
  516MOL0     C68017  -1.222   9.296   1.158 -0.0904 -0.7376 -0.6021
  516MOL0     C68018  -1.254   9.152   1.149  0.6400  0.7150 -0.1374
  516MOL0     C68019  -1.375   9.120   1.066  0.5194 -0.5148  0.5736
  516MOL0     C68020  -1.509   9.145   1.143 -0.4781  0.0750  0.0617
  516MOL0     C68021  -1.623   9.133   1.049 -0.3010  0.1612  0.5657
  516MOL0     C68022  -1.753   9.178   1.117 -0.5412  0.8359  0.0392
  516MOL0     C68023  -1.880   9.138   1.049  0.4864  0.6832 -0.5422
  516MOL0    Cl68024  -1.884   9.188   0.871 -0.8288  0.4394 -0.2335
  516MOL0     C68025  -0.908   9.444   1.247 -0.4988  0.0262  0.7164
  516MOL0     C68026  -0.775   9.484   1.266 -0.1559  0.4779  0.0472
  516MOL0     O68027  -0.501   9.424   1.447  0.7794 -0.0560  0.0164
  516MOL0     C68028  -0.382   9.757   1.381 -0.1213  0.2766  0.1391
  516MOL0     C68029  -0.270   9.830   1.385 -0.1833 -0.1430  0.3055
  516MOL0     N68030   0.497   9.953   1.514 -0.3396  0.6287 -0.2400
  516MOL0     N68031   0.620   9.965   1.528  0.2443 -0.0467  0.6597
  516MOL0     C68032   1.621  10.201   0.703 -0.1070 -0.8967  0.3795
  516MOL0     C68033   1.761  10.179   0.690  0.1187 -0.2001  0.0853
  516MOL0     C68034   2.174  10.060   0.784 -1.1277 -0.6996 -0.4975
  516MOL0     C68035   2.279  10.131   0.840 -0.5638 -0.4588  0.1496
  516MOL0     C68036   2.419  10.110   0.792 -0.5729 -0.2095 -0.2491
  516MOL0     C68037   2.441  10.019   0.688 -0.8303 -0.0598 -0.1827
  516MOL0     O68038   2.569  10.003   0.645 -0.5168 -0.0761 -0.2035
  516MOL0     C68039   2.596  10.068   0.520 -1.3257  0.7367 -1.4586
  516MOL0     C68040   2.709   9.983   0.461  0.0134  0.1578  0.6991
  516MOL0     C68041   2.776  10.042   0.331  0.0299 -0.4805  0.0715
  516MOL0     C68042   2.890  10.145   0.362 -0.1485  0.2211 -0.3516
  516MOL0     C68043   3.006  10.074   0.412  0.4475 -1.5970  0.6290
  516MOL0     C68044   3.103  10.008   0.453 -0.3599 -1.0448  1.1158
  516MOL0     C68045   2.331   9.944   0.633 -0.8111 -0.2015 -0.7514
  516MOL0     C68046   2.201   9.961   0.688  1.1385 -0.6312  0.2782
  516MOL0     H68047   1.792   9.988   0.979 -3.9589  0.4121  1.1681
  516MOL0     H68048   1.558  10.059   1.004  0.6954  1.4554  1.4182
  516MOL0     H68049   1.272  10.266   0.966 -1.8764 -2.4485  3.1300
  516MOL0     H68050   1.415  10.201   1.039 -2.0364 -1.3176  1.1254
  516MOL0     H68051   1.346   9.985   0.923  0.0179  1.0806 -1.7402
  516MOL0     H68052   1.202  10.069   0.855 -0.3708 -0.2746 -1.0989
  516MOL0     H68053   1.103  10.099   1.087 -0.1076 -1.5951  2.0557
  516MOL0     H68054   1.241  10.049   1.165 -0.1891  2.8231 -0.4202
  516MOL0     H68055   1.138   9.852   0.975  1.5580  2.3911  0.4127
  516MOL0     H68056   1.219   9.822   1.130 -1.1522 -3.8079 -2.2473
  516MOL0     H68057   0.972   9.759   1.107  1.7517 -1.3176  1.9031
  516MOL0     H68058   0.936   9.932   1.103 -1.1615 -1.0796  0.8434
  516MOL0     H68059   1.066   9.935   1.340 -0.6355 -0.0052  1.9496
  516MOL0     H68060   1.042   9.757   1.342 -2.2583 -0.5709 -1.6636
  516MOL0     H68061   0.801   9.790   1.304 -1.9654  2.4597  0.1141
  516MOL0     H68062   0.879   9.799   1.460  2.2276  0.0113 -0.1934
  516MOL0     H68063   0.817  10.052   1.279 -0.7021  0.0261 -0.1660
  516MOL0     H68064   0.855  10.058   1.439 -2.3609  1.1230  1.2548
  516MOL0     H68065   0.574   9.988   1.207  2.9852  1.0769  0.8935
  516MOL0     H68066   0.286   9.845   1.336 -0.0128  0.4577  3.2194
  516MOL0     H68067   0.298   9.987   1.231 -0.2863  2.1874  0.0731
  516MOL0     H68068   0.144  10.076   1.356  1.9339  1.7693 -0.0740
  516MOL0     H68069   0.281  10.099   1.465  0.6594  1.5433 -1.1848
  516MOL0     H68070   0.243   9.902   1.594  0.4551  1.0111  0.1318
  516MOL0     H68071   0.084   9.991   1.600 -0.7793 -2.1054  0.3411
  516MOL0     H68072   0.067   9.740   1.590 -0.0054 -0.2908  0.2456
  516MOL0     H68073   0.118   9.740   1.421 -0.1378  0.9786 -1.1937
  516MOL0     H68074  -0.074   9.592   1.526  0.0394 -0.0947  0.7854
  516MOL0     H68075  -0.260   9.463   1.493  0.6750 -0.7901 -4.6727
  516MOL0     H68076  -0.793   9.652   1.551  0.9966  0.4085 -1.6281
  516MOL0     H68077  -1.050   9.599   1.511  0.7166  3.1741 -0.5638
  516MOL0     H68078  -1.265   9.305   1.372 -2.0823 -2.0298 -1.3629
  516MOL0     H68079  -1.101   9.266   1.325  0.1087  1.4547 -0.2350
  516MOL0     H68080  -1.133   9.317   1.098 -0.1290 -0.8065 -0.6846
  516MOL0     H68081  -1.304   9.356   1.118 -1.1817 -2.4865 -1.0968
  516MOL0     H68082  -1.261   9.090   1.239 -0.6268  0.1601 -0.5983
  516MOL0     H68083  -1.165   9.116   1.097  0.5559 -0.6677  0.6151
  516MOL0     H68084  -1.382   9.180   0.975 -0.3769 -1.3781  0.0409
  516MOL0     H68085  -1.379   9.017   1.029 -0.9355  0.2888 -1.7491
  516MOL0     H68086  -1.501   9.248   1.178 -0.8211 -0.0427  0.4893
  516MOL0     H68087  -1.520   9.066   1.217 -1.9031 -1.5408 -1.7368
  516MOL0     H68088  -1.640   9.034   1.006 -0.7433 -0.1300  1.3912
  516MOL0     H68089  -1.598   9.215   0.980  2.6475  1.4778  2.9906
  516MOL0     H68090  -1.752   9.129   1.216 -1.9524  0.1955 -0.2403
  516MOL0     H68091  -1.750   9.287   1.124 -1.4698  1.0040 -1.7474
  516MOL0     H68092  -1.963   9.187   1.101 -0.5668  0.8307 -2.2651
  516MOL0     H68093  -1.904   9.035   1.074  2.3918  0.3692  0.1862
  516MOL0     H68094  -0.933   9.374   1.168 -0.7974 -1.5460  2.1358
  516MOL0     H68095  -0.701   9.455   1.191 -2.4135 -1.3106 -1.6149
  516MOL0     H68096  -0.462   9.801   1.323  1.5899  1.9581 -1.0998
  516MOL0     H68097  -0.265   9.925   1.332  1.3913 -0.7719 -0.7390
  516MOL0     H68098   1.572  10.250   0.619 -1.1057 -2.3835  0.0492
  516MOL0     H68099   1.819  10.194   0.599 -0.8623 -1.9055 -0.8722
  516MOL0     H68100   2.262  10.204   0.918  0.0656 -0.3769  0.2138
  516MOL0     H68101   2.508  10.150   0.839  0.9366 -4.6679  1.2331
  516MOL0     H68102   2.629  10.169   0.546 -2.5106  0.6893  0.4277
  516MOL0     H68103   2.515  10.072   0.446 -0.9547 -0.0097 -1.9186
  516MOL0     H68104   2.783   9.965   0.539  0.4287  0.0892  0.2928
  516MOL0     H68105   2.661   9.884   0.458 -1.1419  0.7042  0.3326
  516MOL0     H68106   2.707  10.089   0.260  2.4458  1.0879 -1.3885
  516MOL0     H68107   2.814   9.956   0.275  2.8383  1.1178 -0.6768
  516MOL0     H68108   2.911  10.206   0.273 -2.3444  2.6692  0.7029
  516MOL0     H68109   2.846  10.212   0.436 -0.7471 -0.0135 -0.4879
  516MOL0     H68110   3.186   9.952   0.491  1.0216 -0.5933 -1.0247
  516MOL0     H68111   2.367   9.884   0.551  1.3417  0.5294 -0.4209
  516MOL0     H68112   2.121   9.900   0.648 -0.2775  2.2719 -1.5729
  517MOL0     O68113   7.024   3.594   3.407 -0.1089  0.0699 -0.2439
  517MOL0     C68114   7.030   3.604   3.531  0.0892  1.0919  0.6168
  517MOL0     O68115   6.951   3.531   3.614  0.1171  0.1410  0.1468
  517MOL0     C68116   6.885   3.431   3.555 -0.6115  0.3737 -0.4100
  517MOL0     C68117   6.926   3.302   3.552 -0.3882  0.3767 -0.2278
  517MOL0     C68118   6.850   3.198   3.485 -1.1676 -0.4928 -0.7001
  517MOL0     C68119   6.724   3.225   3.436 -0.7600 -0.1295 -0.0156
  517MOL0     O68120   6.646   3.116   3.402 -0.0293  0.3234  0.5335
  517MOL0     C68121   6.518   3.130   3.360  0.8184  0.3181  0.2567
  517MOL0     C68122   6.443   3.000   3.365 -0.6166 -0.1879 -1.2746
  517MOL0     C68123   6.390   2.945   3.238 -0.4503 -0.1646  0.6642
  517MOL0     C68124   6.236   2.978   3.224  0.5349  0.5469 -0.4456
  517MOL0     C68125   6.212   2.924   3.081 -0.3677  0.9649 -0.0268
  517MOL0     C68126   6.074   2.960   3.025  1.3315 -0.2724  0.0507
  517MOL0     C68127   6.023   3.105   3.031  0.5976 -0.4240  0.2305
  517MOL0     C68128   5.929   3.147   2.919  0.5781  0.8724  0.0074
  517MOL0     N68129   5.993   3.123   2.783 -0.9890 -0.4512  0.6240
  517MOL0     C68130   6.090   3.196   2.714  0.4924 -1.7277  0.5378
  517MOL0     C68131   6.117   3.123   2.606 -1.4167  0.1167  0.5451
  517MOL0     C68132   6.206   3.171   2.497 -0.4356  0.3649  0.2568
  517MOL0     C68133   6.329   3.247   2.530  0.1541 -0.6350  0.3906
  517MOL0     C68134   6.398   3.296   2.399  0.0769 -0.5869 -0.5797
  517MOL0     C68135   6.504   3.410   2.424  1.2115  0.2295 -0.4401
  517MOL0     O68136   6.585   3.372   2.534  0.2842  0.0430  0.4819
  517MOL0     C68137   6.707   3.435   2.548 -0.4137  0.3458 -0.1630
  517MOL0     C68138   6.816   3.363   2.600  0.1617  0.0264 -0.4989
  517MOL0     C68139   6.937   3.434   2.627  0.2838  0.1928  0.2578
  517MOL0     C68140   6.963   3.567   2.604  0.2657 -0.1004 -0.1741
  517MOL0     C68141   7.081   3.637   2.677  0.1330 -0.0420 -0.0809
  517MOL0     O68142   7.179   3.549   2.727  0.5201  0.7785 -0.4551
  517MOL0     C68143   7.309   3.592   2.750 -0.1698 -0.8624  0.1900
  517MOL0     C68144   7.366   3.718   2.704  0.4988  0.6712  0.2868
  517MOL0     C68145   7.494   3.758   2.740  0.4534  0.6879  0.3336
  517MOL0     C68146   7.570   3.667   2.821  0.0185 -0.2002 -0.0762
  517MOL0     O68147   7.706   3.671   2.865  0.5403 -0.5390 -0.1524
  517MOL0     C68148   7.781   3.780   2.804 -0.0985 -0.7484 -0.0231
  517MOL0     C68149   7.913   3.801   2.873 -0.6181 -0.2227  1.3306
  517MOL0     C68150   7.981   3.923   2.806  0.0135  0.4875 -0.1764
  517MOL0     C68151   8.131   3.939   2.837 -0.3536  0.6268  0.2370
  517MOL0     C68152   8.184   4.071   2.771  0.0825  0.1759 -0.0615
  517MOL0     C68153   8.324   4.111   2.817  0.5431 -0.2550  0.5110
  517MOL0     C68154   8.366   4.255   2.762 -0.8509 -0.0705 -0.5833
  517MOL0     C68155   8.398   4.265   2.617  0.4725 -0.3209 -0.1259
  517MOL0    Cl68156   8.545   4.186   2.588  0.4834  0.3440 -0.3596
  517MOL0     C68157   7.511   3.555   2.874 -1.2160  0.9448  1.0197
  517MOL0     C68158   7.383   3.514   2.832  0.6021  0.4296 -0.5193
  517MOL0     O68159   7.075   3.758   2.698  0.5334 -0.1250  0.4207
  517MOL0     C68160   6.862   3.630   2.520  0.4946  0.2079 -0.0632
  517MOL0     C68161   6.738   3.558   2.493  0.1780  0.3913 -0.0645
  517MOL0     N68162   6.024   3.017   2.605  0.1009  0.3634  0.1967
  517MOL0     N68163   5.947   3.017   2.707  0.3802  0.3074  0.1393
  517MOL0     C68164   6.687   3.356   3.448  0.5182  0.0478  0.0082
  517MOL0     C68165   6.764   3.462   3.501 -0.4346  0.0733 -0.5731
  517MOL0     C68166   7.132   3.691   3.589  1.0530 -0.5660  1.0357
  517MOL0     C68167   7.134   3.717   3.721 -0.1826  0.1040 -1.0456
  517MOL0     C68168   7.231   3.804   3.787 -0.5636  0.3034 -0.0602
  517MOL0     C68169   7.340   3.845   3.714  0.2000 -0.3178 -0.9375
  517MOL0     O68170   7.454   3.907   3.772 -0.2619 -0.1706 -1.0377
  517MOL0     C68171   7.490   3.875   3.914  0.5493 -0.1369  0.1390
  517MOL0     C68172   7.507   4.007   3.991  1.1290 -0.4435  1.0902
  517MOL0     C68173   7.596   3.987   4.112  0.6164  0.3443  0.0255
  517MOL0     C68174   7.743   4.048   4.089 -0.0898 -0.8187 -0.0448
  517MOL0     C68175   7.822   4.007   3.978  0.2725 -0.0658  0.7547
  517MOL0     C68176   7.887   3.994   3.869 -0.5883 -0.1999 -0.7308
  517MOL0     C68177   7.332   3.834   3.577 -0.4825  0.5357  0.1393
  517MOL0     C68178   7.232   3.751   3.518 -0.7664 -0.0355  0.5638
  517MOL0     H68179   7.016   3.254   3.589 -0.1594  1.6010  0.8504
  517MOL0     H68180   6.884   3.095   3.485  2.2762  0.5231  0.9445
  517MOL0     H68181   6.522   3.177   3.261  4.0074  1.9615  1.0140
  517MOL0     H68182   6.470   3.194   3.434  0.3698  1.4986 -1.0134
  517MOL0     H68183   6.361   3.008   3.438  0.3825 -0.9250 -0.0367
  517MOL0     H68184   6.514   2.935   3.417  2.4895  1.6549 -2.9111
  517MOL0     H68185   6.403   2.838   3.255 -0.0147 -0.2155  0.0336
  517MOL0     H68186   6.456   2.983   3.160  0.1823 -0.4781  1.0370
  517MOL0     H68187   6.166   2.934   3.296  2.9201  0.5556  2.0222
  517MOL0     H68188   6.219   3.086   3.231  2.3882  0.8259  0.2647
  517MOL0     H68189   6.227   2.816   3.075  0.9652  1.2297 -2.0550
  517MOL0     H68190   6.281   2.983   3.021  2.0761 -2.0290 -0.3554
  517MOL0     H68191   6.008   2.895   3.084  1.5462 -1.3294 -0.8508
  517MOL0     H68192   6.058   2.922   2.924  1.7077 -1.1109  0.2996
  517MOL0     H68193   5.968   3.129   3.123 -1.6273 -0.0404 -1.1260
  517MOL0     H68194   6.115   3.165   3.029 -0.1098  0.6763 -2.0031
  517MOL0     H68195   5.899   3.252   2.929 -5.1676 -0.4149 -0.4097
  517MOL0     H68196   5.840   3.086   2.938  1.5527 -0.3006  1.0631
  517MOL0     H68197   6.140   3.289   2.739 -1.5775  1.1334 -4.4221
  517MOL0     H68198   6.143   3.229   2.429 -1.3093 -0.8416  0.0202
  517MOL0     H68199   6.231   3.080   2.443 -1.4983  0.3174 -0.1690
  517MOL0     H68200   6.406   3.198   2.590  0.4260 -1.5684 -0.6854
  517MOL0     H68201   6.311   3.339   2.587  1.4447  1.6265 -2.6028
  517MOL0     H68202   6.444   3.212   2.346 -1.0269 -1.2474 -0.4972
  517MOL0     H68203   6.325   3.344   2.333  1.8021  1.2866 -1.2576
  517MOL0     H68204   6.460   3.508   2.444  1.4912  0.8143 -2.4242
  517MOL0     H68205   6.570   3.426   2.338  0.6577  1.6638 -0.6373
  517MOL0     H68206   6.800   3.262   2.638  0.6177  0.4164  0.7723
  517MOL0     H68207   7.013   3.377   2.680  1.1495  0.2544 -0.8847
  517MOL0     H68208   7.311   3.788   2.641 -1.4458 -1.1887 -0.2028
  517MOL0     H68209   7.536   3.844   2.689  2.3940 -1.1639 -1.3742
  517MOL0     H68210   7.724   3.872   2.813  1.0842  0.3073 -2.4505
  517MOL0     H68211   7.798   3.761   2.698  1.1274 -0.6457  0.1310
  517MOL0     H68212   7.977   3.713   2.864  0.9274  1.0783 -1.4200
  517MOL0     H68213   7.905   3.831   2.978 -0.7623 -2.8331  2.1453
  517MOL0     H68214   7.932   4.006   2.858 -1.7170  0.3772 -1.5207
  517MOL0     H68215   7.958   3.937   2.700  3.1456 -0.0436 -1.0292
  517MOL0     H68216   8.149   3.949   2.944  0.2030 -0.2675  0.2352
  517MOL0     H68217   8.196   3.862   2.795  1.2101  0.6432  2.4557
  517MOL0     H68218   8.121   4.158   2.793  0.6620  1.2944 -2.4566
  517MOL0     H68219   8.181   4.060   2.662  2.7644 -0.5242 -0.1311
  517MOL0     H68220   8.403   4.043   2.782  1.7441  2.5201 -2.7773
  517MOL0     H68221   8.321   4.108   2.926 -2.8357 -2.4071  0.4997
  517MOL0     H68222   8.285   4.323   2.792  1.0059  2.0857 -0.1751
  517MOL0     H68223   8.453   4.280   2.824 -0.9360 -0.5779 -0.2542
  517MOL0     H68224   8.405   4.371   2.591  0.6261  0.7482  3.7258
  517MOL0     H68225   8.317   4.215   2.563 -1.7392 -0.0859  2.7364
  517MOL0     H68226   7.567   3.488   2.939  0.5596  2.9626  1.6963
  517MOL0     H68227   7.339   3.419   2.864  2.7607  0.6235  3.8104
  517MOL0     H68228   6.863   3.732   2.484 -2.4621 -0.1005 -1.3021
  517MOL0     H68229   6.668   3.600   2.421 -0.2233 -1.1663 -0.6149
  517MOL0     H68230   6.590   3.393   3.416 -0.7183 -1.0251  2.3300
  517MOL0     H68231   6.725   3.563   3.496 -0.8252  0.0005  0.6752
  517MOL0     H68232   7.059   3.678   3.790 -0.0700  0.9489 -0.4245
  517MOL0     H68233   7.224   3.831   3.892  0.9522 -0.4007  0.2488
  517MOL0     H68234   7.584   3.821   3.897  0.5820 -0.4221  1.1935
  517MOL0     H68235   7.415   3.812   3.963 -0.9728  2.2599  1.0338
  517MOL0     H68236   7.547   4.085   3.925  1.1148 -1.5099 -0.2131
  517MOL0     H68237   7.403   4.032   4.015 -0.0977 -0.4515 -3.2665
  517MOL0     H68238   7.613   3.886   4.150 -1.6880 -0.5585 -1.1782
  517MOL0     H68239   7.532   4.032   4.189 -0.0471 -1.5179  0.6154
  517MOL0     H68240   7.731   4.157   4.084 -1.1712 -0.9358 -0.2685
  517MOL0     H68241   7.810   4.019   4.170  0.3603 -0.7802 -0.4014
  517MOL0     H68242   7.940   3.986   3.776  2.2016  0.2086  0.7380
  517MOL0     H68243   7.411   3.871   3.512 -0.0679 -0.2682  0.1753
  517MOL0     H68244   7.249   3.735   3.412  1.6665  1.2569  0.6733
  518MOL0     O68245  10.068   5.926   2.548 -0.8982 -0.2625 -0.0843
  518MOL0     C68246  10.000   5.944   2.448 -0.2751 -0.1796  0.1317
  518MOL0     O68247  10.035   5.908   2.323  0.9595 -0.6819 -0.1118
  518MOL0     C68248  10.167   5.867   2.299  1.2395 -0.3233  1.5129
  518MOL0     C68249  10.286   5.931   2.333 -0.1292 -0.4881 -0.1936
  518MOL0     C68250  10.411   5.875   2.296  0.4139  0.5598 -1.0042
  518MOL0     C68251  10.424   5.760   2.217 -0.1595  0.5549  0.3164
  518MOL0     O68252  10.539   5.711   2.175 -0.4816  0.1580  0.0269
  518MOL0     C68253  10.649   5.794   2.144 -0.7548 -1.0425 -0.0524
  518MOL0     C68254  10.773   5.707   2.111 -0.5397 -0.0959  0.0927
  518MOL0     C68255  10.884   5.782   2.040 -0.7211  0.7098  0.3806
  518MOL0     C68256  10.947   5.897   2.111 -0.5223 -0.0582  0.3678
  518MOL0     C68257  11.072   5.946   2.024  0.2241  0.9925 -0.2189
  518MOL0     C68258  11.040   6.003   1.883  0.5743  0.3964 -0.7496
  518MOL0     C68259  11.156   6.080   1.827  0.1199 -1.0604 -0.6773
  518MOL0     C68260  11.136   6.149   1.695 -0.9393 -0.2095 -0.3547
  518MOL0     N68261  11.145   6.054   1.584  0.2065 -0.5055  0.3984
  518MOL0     C68262  11.043   5.988   1.517 -0.1342  0.0299 -0.0188
  518MOL0     C68263  11.102   5.898   1.435  1.0682 -0.1190 -0.1298
  518MOL0     C68264  11.036   5.768   1.381 -0.1658  0.3961 -0.1085
  518MOL0     C68265  10.927   5.790   1.270 -0.3053 -0.9092  0.5646
  518MOL0     C68266  10.863   5.664   1.216 -0.3460 -0.0018  0.3409
  518MOL0     C68267  10.710   5.653   1.221  1.6494 -0.2985  0.0146
  518MOL0     O68268  10.675   5.615   1.355  0.9123 -0.0462  0.7740
  518MOL0     C68269  10.545   5.579   1.368  0.9891 -0.2865 -0.0242
  518MOL0     C68270  10.448   5.669   1.416 -0.6434  0.1278  0.9095
  518MOL0     C68271  10.317   5.648   1.389  0.0986 -0.4594 -0.3147
  518MOL0     C68272  10.263   5.520   1.345  0.0246 -1.2048  1.0028
  518MOL0     C68273  10.116   5.502   1.333 -0.4698 -0.2064  0.2074
  518MOL0     O68274  10.090   5.376   1.284 -0.0035 -0.2105  0.0417
  518MOL0     C68275   9.969   5.342   1.249  0.5981  0.0869  0.4973
  518MOL0     C68276   9.855   5.350   1.335  0.8371 -0.1441  0.8066
  518MOL0     C68277   9.736   5.282   1.313 -0.2374 -0.0610 -0.2859
  518MOL0     C68278   9.731   5.224   1.181 -0.5605 -0.2356 -0.8043
  518MOL0     O68279   9.616   5.162   1.145  0.0907 -0.3364  1.1266
  518MOL0     C68280   9.494   5.169   1.214  0.7541 -0.0703 -0.1102
  518MOL0     C68281   9.410   5.287   1.167 -0.2552  0.0254  0.6103
  518MOL0     C68282   9.264   5.278   1.230  0.5259  0.6529  0.2508
  518MOL0     C68283   9.176   5.388   1.171  0.0845 -0.0916 -0.2895
  518MOL0     C68284   9.041   5.374   1.226  0.3544  0.9144 -0.7648
  518MOL0     C68285   8.969   5.499   1.175 -0.3447  0.5091 -0.6736
  518MOL0     C68286   8.811   5.493   1.192  0.2402 -0.1653 -0.0742
  518MOL0     C68287   8.741   5.549   1.061 -0.3317  0.2624  0.4779
  518MOL0    Cl68288   8.764   5.729   1.066 -0.0594 -0.2957  0.3083
  518MOL0     C68289   9.838   5.238   1.085  0.5284 -0.7284  0.5612
  518MOL0     C68290   9.962   5.283   1.124 -1.1997 -0.3362 -0.1147
  518MOL0     O68291  10.033   5.588   1.350  0.2502 -0.8657  0.8294
  518MOL0     C68292  10.366   5.426   1.314  0.1762  0.1891  0.4810
  518MOL0     C68293  10.502   5.451   1.326  0.3841 -0.1310 -0.5297
  518MOL0     N68294  11.239   5.897   1.465  0.5384 -0.7214  0.4538
  518MOL0     N68295  11.264   5.999   1.550 -0.0432  0.2986  0.2428
  518MOL0     C68296  10.308   5.693   2.187  0.5635  0.8081 -1.0039
  518MOL0     C68297  10.178   5.744   2.232  0.3516 -0.7325  0.0817
  518MOL0     C68298   9.878   6.021   2.470  0.4975 -0.3389 -0.0885
  518MOL0     C68299   9.849   6.081   2.600  0.2288  0.0070  0.2252
  518MOL0     C68300   9.720   6.138   2.612  0.0608 -0.8128  0.1000
  518MOL0     C68301   9.625   6.133   2.512 -1.1990 -0.2401 -0.2111
  518MOL0     O68302   9.503   6.182   2.543 -0.5357 -0.7667  0.5146
  518MOL0     C68303   9.412   6.215   2.434  0.6071 -0.9363 -0.1406
  518MOL0     C68304   9.284   6.270   2.508 -0.0591 -0.2994  0.9863
  518MOL0     C68305   9.174   6.311   2.405 -0.5724  0.2556 -0.2750
  518MOL0     C68306   9.059   6.391   2.472 -0.6419  0.0608 -0.4815
  518MOL0     C68307   9.107   6.520   2.531 -0.4633  0.5361 -0.5670
  518MOL0     C68308   9.145   6.620   2.587 -0.0441  0.3959  0.8918
  518MOL0     C68309   9.643   6.071   2.394 -0.4695  0.0894 -0.7832
  518MOL0     C68310   9.773   6.020   2.368 -0.2091 -0.1769  0.4379
  518MOL0     H68311  10.268   6.009   2.407  0.9579 -0.7048  0.3182
  518MOL0     H68312  10.501   5.927   2.325  0.1174  0.0122  1.0113
  518MOL0     H68313  10.668   5.848   2.238 -0.4414  0.3414 -0.8853
  518MOL0     H68314  10.623   5.861   2.061 -4.5092  1.0321  2.4695
  518MOL0     H68315  10.744   5.621   2.050  3.0303 -0.3585 -1.4291
  518MOL0     H68316  10.814   5.672   2.207  2.0352 -2.0570 -1.5909
  518MOL0     H68317  10.859   5.807   1.936 -1.8133 -0.8502  0.2361
  518MOL0     H68318  10.966   5.713   2.022  0.1463  1.4496  1.4231
  518MOL0     H68319  10.871   5.974   2.128  0.4615  0.8260  0.8785
  518MOL0     H68320  10.978   5.875   2.213  0.6732  0.0976  0.0470
  518MOL0     H68321  11.149   5.869   2.012 -0.6344  0.1632 -0.4771
  518MOL0     H68322  11.123   6.017   2.090  0.3579  1.4101 -0.7660
  518MOL0     H68323  10.950   6.065   1.878  0.8786  0.8964 -0.1594
  518MOL0     H68324  11.024   5.916   1.819 -1.3004 -0.1325  0.3626
  518MOL0     H68325  11.180   6.163   1.894 -0.0567  1.3013 -3.3220
  518MOL0     H68326  11.244   6.016   1.824  0.2095 -0.9209 -1.0631
  518MOL0     H68327  11.211   6.228   1.680  0.1942 -0.8077  1.8019
  518MOL0     H68328  11.037   6.194   1.705 -1.9768 -2.7089  1.6223
  518MOL0     H68329  10.936   6.002   1.529 -0.4492 -0.0093 -2.2474
  518MOL0     H68330  10.995   5.701   1.457 -2.2543  1.3029 -0.3633
  518MOL0     H68331  11.113   5.711   1.328  1.7738  1.2374  1.6817
  518MOL0     H68332  10.965   5.828   1.174  0.9241 -3.7036 -0.1560
  518MOL0     H68333  10.854   5.863   1.306 -1.0658  0.7094 -3.6227
  518MOL0     H68334  10.903   5.641   1.117  0.2298  1.4537  0.2073
  518MOL0     H68335  10.898   5.585   1.283 -4.2259 -0.6501  1.8808
  518MOL0     H68336  10.691   5.564   1.159 -1.0757 -0.3910  0.8541
  518MOL0     H68337  10.658   5.740   1.179 -1.2058 -1.7217  0.3052
  518MOL0     H68338  10.485   5.765   1.450  1.6607  0.4571 -2.1339
  518MOL0     H68339  10.248   5.717   1.437  2.8299  0.0105  3.3920
  518MOL0     H68340   9.878   5.392   1.432  3.1542 -1.5266  0.9041
  518MOL0     H68341   9.658   5.285   1.388  0.5440  2.1679  0.5184
  518MOL0     H68342   9.498   5.186   1.322 -2.0002  1.2817 -0.1296
  518MOL0     H68343   9.430   5.083   1.198  1.6882 -1.1107  1.5163
  518MOL0     H68344   9.409   5.283   1.058  3.0414 -1.3809  0.5304
  518MOL0     H68345   9.451   5.387   1.183 -0.2740  0.0643  0.4134
  518MOL0     H68346   9.263   5.282   1.339 -1.0156  0.5490  0.2618
  518MOL0     H68347   9.227   5.180   1.198 -0.0712  1.2485 -0.9786
  518MOL0     H68348   9.217   5.481   1.210 -0.7818 -1.4534  4.5759
  518MOL0     H68349   9.174   5.377   1.063  0.8034 -2.9311 -0.0976
  518MOL0     H68350   9.014   5.382   1.332  0.5818  0.4171 -0.6686
  518MOL0     H68351   8.997   5.282   1.186  1.0974 -1.1422  2.7016
  518MOL0     H68352   9.000   5.509   1.071  0.8147  0.9396 -0.3070
  518MOL0     H68353   9.021   5.582   1.224 -1.8622  1.0617  0.0639
  518MOL0     H68354   8.783   5.391   1.222 -1.8222  0.3942  0.0378
  518MOL0     H68355   8.783   5.565   1.268  2.7808  0.8783 -0.0486
  518MOL0     H68356   8.639   5.509   1.069  0.8174 -2.9503  0.6201
  518MOL0     H68357   8.786   5.514   0.967 -1.2448  3.4920 -1.3043
  518MOL0     H68358   9.826   5.195   0.986  0.6439  1.5722 -0.5163
  518MOL0     H68359  10.048   5.275   1.059  0.3647  2.1645  1.4474
  518MOL0     H68360  10.332   5.326   1.289  1.1777 -0.0410 -0.0140
  518MOL0     H68361  10.561   5.364   1.299  1.2878  0.3159 -0.0440
  518MOL0     H68362  10.296   5.599   2.134 -0.7873  1.6316 -2.2413
  518MOL0     H68363  10.088   5.691   2.204 -0.0148  0.7508 -1.7181
  518MOL0     H68364   9.925   6.075   2.677  0.3398  1.8479  0.2952
  518MOL0     H68365   9.694   6.196   2.700 -1.0366 -2.4336  0.8909
  518MOL0     H68366   9.398   6.128   2.371 -0.6328 -1.6207  1.0277
  518MOL0     H68367   9.453   6.305   2.386  0.8539  0.8121  3.0369
  518MOL0     H68368   9.244   6.188   2.569  1.9128 -1.9072  0.2082
  518MOL0     H68369   9.313   6.357   2.567 -1.8510  2.7971 -2.2704
  518MOL0     H68370   9.121   6.227   2.359 -1.6948  0.7389  0.0953
  518MOL0     H68371   9.216   6.372   2.325  0.8035 -0.4950 -0.1370
  518MOL0     H68372   8.981   6.403   2.397  0.8413 -0.8485 -2.2332
  518MOL0     H68373   9.022   6.317   2.544 -0.6813 -1.6589 -2.1942
  518MOL0     H68374   9.174   6.719   2.614  1.1607 -0.2800  2.1714
  518MOL0     H68375   9.570   6.053   2.316 -0.0042 -0.9808 -0.9872
  518MOL0     H68376   9.790   5.971   2.273 -2.1975 -0.3628  0.1383
  519MOL0     O68377   9.719   7.986   3.277 -0.2117 -0.2768 -0.3604
  519MOL0     C68378   9.828   8.015   3.326 -0.1011 -0.4999  0.4553
  519MOL0     O68379   9.883   7.970   3.446  0.2587 -0.9149  0.2899
  519MOL0     C68380   9.816   7.875   3.513 -0.1067  0.5689  0.0804
  519MOL0     C68381   9.743   7.771   3.456  0.2705  0.1098 -1.3483
  519MOL0     C68382   9.685   7.682   3.551 -0.2371  0.0935 -0.6272
  519MOL0     C68383   9.713   7.684   3.692  0.1357  0.3550 -0.1764
  519MOL0     O68384   9.655   7.600   3.782 -0.3592 -0.3015  0.4109
  519MOL0     C68385   9.747   7.514   3.845  0.3454 -0.2812 -0.1290
  519MOL0     C68386   9.675   7.410   3.925 -0.1263 -0.0257 -1.1811
  519MOL0     C68387   9.581   7.327   3.840  0.6451  1.0812 -0.9792
  519MOL0     C68388   9.469   7.259   3.920 -0.5273 -0.4802  0.2461
  519MOL0     C68389   9.546   7.130   3.969 -0.1246 -0.4084  0.6413
  519MOL0     C68390   9.437   7.033   4.022 -1.3678 -0.2107 -0.0595
  519MOL0     C68391   9.507   6.894   4.035 -0.3637  0.4158 -0.7742
  519MOL0     C68392   9.393   6.798   4.062 -0.3493 -0.4696  0.3956
  519MOL0     N68393   9.336   6.748   3.942  0.2180  0.9087 -0.0158
  519MOL0     C68394   9.333   6.621   3.896  0.5308 -0.0477  0.6308
  519MOL0     C68395   9.238   6.613   3.798  0.4285  0.4210 -1.0374
  519MOL0     C68396   9.196   6.492   3.715 -0.0116  0.3109  0.7599
  519MOL0     C68397   9.165   6.380   3.816 -0.0041  0.0870  0.0603
  519MOL0     C68398   9.144   6.245   3.748  0.2264 -0.4444  0.0411
  519MOL0     C68399   9.116   6.143   3.844  0.0004 -0.3044  0.1476
  519MOL0     O68400   8.982   6.161   3.892  0.3874 -0.3663  0.4874
  519MOL0     C68401   8.868   6.139   3.808 -0.6598  0.3379 -0.7828
  519MOL0     C68402   8.876   6.084   3.680  0.0402 -0.2962  0.1088
  519MOL0     C68403   8.761   6.071   3.610  0.6823 -0.7371 -0.6303
  519MOL0     C68404   8.637   6.113   3.662 -0.3472  0.8453  0.3532
  519MOL0     C68405   8.524   6.102   3.572 -0.4767  0.0540 -0.5501
  519MOL0     O68406   8.530   6.116   3.438  0.2238  0.1052  0.2438
  519MOL0     C68407   8.433   6.102   3.347  1.0799 -0.1309  0.1625
  519MOL0     C68408   8.304   6.051   3.365  0.4417  0.1538  0.2343
  519MOL0     C68409   8.207   6.051   3.264  0.0445  0.5313 -1.0592
  519MOL0     C68410   8.232   6.102   3.137  0.2212 -0.1673 -0.5098
  519MOL0     O68411   8.131   6.089   3.049  0.2155  0.0197  0.2237
  519MOL0     C68412   8.173   6.101   2.910 -0.4779 -0.0854  0.0865
  519MOL0     C68413   8.065   6.061   2.809  0.4212 -0.3845  0.6365
  519MOL0     C68414   8.110   6.065   2.666  0.0436 -0.2383  1.0287
  519MOL0     C68415   8.127   6.208   2.609  0.3693  0.2330 -0.0185
  519MOL0     C68416   8.008   6.283   2.614  0.2995 -0.8565  0.5113
  519MOL0     C68417   8.006   6.404   2.520 -0.2882  0.5948 -0.1313
  519MOL0     C68418   7.863   6.462   2.493 -0.5836  0.9106 -0.4929
  519MOL0     C68419   7.842   6.515   2.352 -0.6937  0.4663  0.3730
  519MOL0    Cl68420   7.667   6.565   2.343  0.3151 -0.6725 -0.1973
  519MOL0     C68421   8.354   6.165   3.120 -0.2090 -0.7449  0.7288
  519MOL0     C68422   8.450   6.161   3.222  0.2046 -0.0417  0.0022
  519MOL0     O68423   8.422   6.084   3.635 -0.2483  0.6012  0.3146
  519MOL0     C68424   8.637   6.185   3.784 -0.6946  0.8085 -0.5407
  519MOL0     C68425   8.747   6.192   3.855  0.7138 -0.2745 -0.3842
  519MOL0     N68426   9.180   6.740   3.795 -0.3106  0.0810  0.6633
  519MOL0     N68427   9.242   6.818   3.879  0.1702  1.1675  0.0147
  519MOL0     C68428   9.796   7.789   3.741  0.2071  0.6518  0.0696
  519MOL0     C68429   9.850   7.874   3.648 -0.0244 -0.1115  0.2414
  519MOL0     C68430   9.913   8.089   3.230 -0.4830  0.6637 -0.3946
  519MOL0     C68431   9.871   8.132   3.108 -0.9345  1.0864  0.4970
  519MOL0     C68432   9.963   8.179   3.005 -0.5350  0.0992 -0.8446
  519MOL0     C68433  10.093   8.199   3.036 -0.0596  0.0170 -0.5042
  519MOL0     O68434  10.170   8.264   2.940 -0.4755  0.0801 -0.1171
  519MOL0     C68435  10.285   8.337   2.988 -0.8118  0.1803 -0.2080
  519MOL0     C68436  10.316   8.472   2.922 -0.1126 -0.1490  0.7497
  519MOL0     C68437  10.465   8.498   2.932  0.1884  0.6110 -0.5415
  519MOL0     C68438  10.498   8.640   2.903  0.6698  0.2728  0.6760
  519MOL0     C68439  10.637   8.658   2.860  0.4832  0.0739 -0.0715
  519MOL0     C68440  10.756   8.662   2.827  0.4746  1.8183 -0.1016
  519MOL0     C68441  10.134   8.163   3.164 -0.2740  0.8408  0.0974
  519MOL0     C68442  10.050   8.113   3.261  1.2286 -0.4595 -0.5881
  519MOL0     H68443   9.724   7.749   3.352 -0.9291  0.2283 -1.1671
  519MOL0     H68444   9.612   7.607   3.524 -0.9555  0.2461  0.8077
  519MOL0     H68445   9.819   7.569   3.907  1.9152 -0.0114 -2.0944
  519MOL0     H68446   9.808   7.460   3.772 -2.6802 -1.7809 -1.7036
  519MOL0     H68447   9.625   7.464   4.006  1.1826  1.7908 -1.5180
  519MOL0     H68448   9.751   7.346   3.971  0.1923  1.2956  0.2064
  519MOL0     H68449   9.642   7.253   3.786  2.2973 -1.4038  3.6865
  519MOL0     H68450   9.532   7.387   3.762 -0.7189 -0.3922 -1.3139
  519MOL0     H68451   9.427   7.322   3.999  0.6564  1.9637 -0.9326
  519MOL0     H68452   9.390   7.227   3.852  0.8610  0.4257 -1.9085
  519MOL0     H68453   9.622   7.159   4.042 -0.5799  0.8027  0.6624
  519MOL0     H68454   9.600   7.084   3.885  0.9069  1.5475  0.1680
  519MOL0     H68455   9.357   7.019   3.949 -2.2638 -5.4626  1.4890
  519MOL0     H68456   9.397   7.070   4.117 -0.2685 -2.8860  1.5688
  519MOL0     H68457   9.552   6.873   3.937 -1.5425  3.0563 -2.0009
  519MOL0     H68458   9.579   6.903   4.117 -1.7175  0.7070  0.4211
  519MOL0     H68459   9.315   6.851   4.118 -0.2158  1.2143 -0.9476
  519MOL0     H68460   9.431   6.709   4.114  3.1738  0.9465  0.4776
  519MOL0     H68461   9.390   6.535   3.932 -1.1109 -1.6628 -0.4917
  519MOL0     H68462   9.282   6.473   3.650 -1.3204 -2.8711 -0.2725
  519MOL0     H68463   9.111   6.525   3.655  0.5302  0.6808  0.1737
  519MOL0     H68464   9.074   6.413   3.867  0.8932  1.7997  0.6121
  519MOL0     H68465   9.244   6.369   3.891  0.4095 -3.0194 -0.6558
  519MOL0     H68466   9.064   6.260   3.674  1.0984 -0.3445 -0.9124
  519MOL0     H68467   9.231   6.202   3.697 -2.3928 -4.0871 -1.8026
  519MOL0     H68468   9.174   6.125   3.935 -0.4233 -1.4864  0.2074
  519MOL0     H68469   9.131   6.044   3.799  1.5940  0.2703 -0.6649
  519MOL0     H68470   8.967   6.052   3.631 -0.4373 -0.9198 -0.3930
  519MOL0     H68471   8.756   6.043   3.505  1.8504 -0.9755 -0.6328
  519MOL0     H68472   8.282   5.995   3.455  0.7871 -0.8530 -0.2882
  519MOL0     H68473   8.125   5.980   3.266  1.0308 -0.6458 -1.5949
  519MOL0     H68474   8.262   6.041   2.888 -0.2836  0.0745  0.4323
  519MOL0     H68475   8.203   6.203   2.882  2.3308 -1.7581 -4.0385
  519MOL0     H68476   7.975   6.123   2.821  1.1039  1.1897 -1.6476
  519MOL0     H68477   8.028   5.961   2.833  0.2066 -0.2877  0.7126
  519MOL0     H68478   8.025   6.024   2.610  0.4418  1.5340 -1.0421
  519MOL0     H68479   8.205   6.012   2.652 -0.2609 -0.6959  0.6686
  519MOL0     H68480   8.198   6.259   2.676 -0.0392  0.9019 -0.0835
  519MOL0     H68481   8.164   6.196   2.507  0.6398 -0.1461  0.1220
  519MOL0     H68482   7.976   6.312   2.714 -2.5926 -2.3230  0.1312
  519MOL0     H68483   7.926   6.225   2.569 -0.9734  1.2470  0.0070
  519MOL0     H68484   8.050   6.364   2.429  1.1730 -1.6649  1.4742
  519MOL0     H68485   8.069   6.482   2.565  0.7045  0.5566 -1.4063
  519MOL0     H68486   7.787   6.385   2.510  1.6794 -1.9316 -2.3164
  519MOL0     H68487   7.849   6.538   2.570  0.4447  0.2839  0.3349
  519MOL0     H68488   7.871   6.437   2.282 -0.8013 -0.2449  1.1058
  519MOL0     H68489   7.912   6.597   2.337  0.6106  0.1611  3.9912
  519MOL0     H68490   8.379   6.221   3.030  0.0065  1.6823  2.1979
  519MOL0     H68491   8.540   6.217   3.200  0.3228 -0.4272 -0.5402
  519MOL0     H68492   8.547   6.236   3.815 -1.3802 -0.6015 -0.1201
  519MOL0     H68493   8.740   6.252   3.945 -2.5290  0.4136 -0.9795
  519MOL0     H68494   9.824   7.805   3.844 -1.5313  1.7515  0.4087
  519MOL0     H68495   9.902   7.964   3.679  2.2952 -1.3660  0.1350
  519MOL0     H68496   9.769   8.113   3.076 -1.0755  0.2591  1.3960
  519MOL0     H68497   9.935   8.216   2.907 -0.7926 -2.3013 -1.7300
  519MOL0     H68498  10.362   8.266   2.955 -2.8494 -0.0127 -5.5302
  519MOL0     H68499  10.284   8.357   3.095 -1.1505  1.9446 -0.5206
  519MOL0     H68500  10.278   8.487   2.820 -2.5029  4.4204  2.0494
  519MOL0     H68501  10.269   8.547   2.986 -1.9500 -0.4059 -0.2284
  519MOL0     H68502  10.526   8.439   2.862  1.1177  1.1798 -0.2282
  519MOL0     H68503  10.497   8.469   3.033 -0.6057 -1.4525 -0.8281
  519MOL0     H68504  10.422   8.678   2.834  0.6443 -1.4517 -0.3015
  519MOL0     H68505  10.487   8.682   3.004  3.3347 -3.5164  2.7977
  519MOL0     H68506  10.861   8.645   2.824  0.3913  1.0672 -4.1398
  519MOL0     H68507  10.236   8.180   3.197 -0.0413 -0.0234 -0.1620
  519MOL0     H68508  10.089   8.081   3.358  0.8549 -1.8855 -0.8882
  520MOL0     O68509  10.485   3.214   3.465 -0.5061  0.2810 -0.3526
  520MOL0     C68510  10.577   3.256   3.392  1.2318  0.0349  0.1930
  520MOL0     O68511  10.577   3.251   3.254  0.1714 -0.7473 -0.0096
  520MOL0     C68512  10.451   3.228   3.201 -0.9027 -0.0598  0.3986
  520MOL0     C68513  10.383   3.112   3.216 -0.1100 -0.3390  0.6828
  520MOL0     C68514  10.262   3.090   3.153  0.1385 -0.8560 -0.4772
  520MOL0     C68515  10.196   3.191   3.081  0.8798  0.7301  0.6363
  520MOL0     O68516  10.093   3.138   3.001 -0.4658 -0.2760  0.3231
  520MOL0     C68517  10.026   3.227   2.911 -0.1905  0.2590 -0.4889
  520MOL0     C68518   9.916   3.169   2.836 -0.4172 -1.6693  0.8994
  520MOL0     C68519   9.814   3.108   2.923 -1.4249  0.9057  1.2563
  520MOL0     C68520   9.730   3.019   2.839 -0.3768 -0.2745  0.0728
  520MOL0     C68521   9.630   2.961   2.931  0.2821 -0.1749 -0.1317
  520MOL0     C68522   9.560   2.832   2.884 -0.9481 -0.4348  0.1560
  520MOL0     C68523   9.489   2.768   2.997  0.0486 -0.7146 -0.6139
  520MOL0     C68524   9.395   2.851   3.086 -0.7966  0.2895 -0.4091
  520MOL0     N68525   9.296   2.916   3.005  0.0698  0.2629 -0.1747
  520MOL0     C68526   9.190   2.861   2.933  0.1353 -0.1407 -0.6713
  520MOL0     C68527   9.100   2.955   2.899 -0.4692 -0.1525  0.8286
  520MOL0     C68528   8.966   2.942   2.839 -0.3900  0.0727  0.2263
  520MOL0     C68529   8.855   2.999   2.939  0.2142 -0.5276  0.6764
  520MOL0     C68530   8.832   2.916   3.052 -0.6034  0.2072  0.5420
  520MOL0     C68531   8.778   2.990   3.175  0.1040  0.4070 -0.9177
  520MOL0     O68532   8.740   2.896   3.281  0.0281 -0.1942 -0.6722
  520MOL0     C68533   8.636   2.803   3.279 -0.0567 -0.5629  0.1920
  520MOL0     C68534   8.618   2.723   3.392  0.1039 -0.5803  1.0555
  520MOL0     C68535   8.517   2.625   3.400 -0.0692 -0.1466 -0.2878
  520MOL0     C68536   8.435   2.602   3.295  0.3198 -0.7975 -0.0132
  520MOL0     C68537   8.328   2.506   3.304  0.1305  0.4509  0.3118
  520MOL0     O68538   8.303   2.445   3.429 -0.0686 -0.6091  0.5304
  520MOL0     C68539   8.194   2.359   3.439  0.2397  0.6035  0.5581
  520MOL0     C68540   8.109   2.370   3.551 -0.8695  0.5891  1.3459
  520MOL0     C68541   8.003   2.277   3.557 -0.9785 -0.1576 -1.5877
  520MOL0     C68542   7.983   2.177   3.464 -0.4676  0.5708 -0.7158
  520MOL0     O68543   7.866   2.097   3.473 -0.4459 -0.2538 -0.0603
  520MOL0     C68544   7.853   1.978   3.392 -0.4737  0.1736 -0.0845
  520MOL0     C68545   7.722   1.904   3.415  0.6178 -1.0112  1.0961
  520MOL0     C68546   7.724   1.782   3.323  0.2773  0.2643 -0.0172
  520MOL0     C68547   7.599   1.701   3.310 -0.2030 -0.1303 -0.3543
  520MOL0     C68548   7.490   1.754   3.208 -0.1499 -0.7479  0.3658
  520MOL0     C68549   7.356   1.679   3.219 -0.4165 -0.5744  1.0507
  520MOL0     C68550   7.247   1.755   3.137 -0.0131  0.4794  0.3525
  520MOL0     C68551   7.116   1.681   3.147 -0.1208 -0.0765  0.5700
  520MOL0    Cl68552   7.058   1.685   3.314 -0.0917  0.2393  0.1564
  520MOL0     C68553   8.081   2.163   3.361 -0.1699 -0.1561  0.0331
  520MOL0     C68554   8.185   2.255   3.346  0.5480 -0.5275  0.0050
  520MOL0     O68555   8.262   2.481   3.196  0.2064 -0.7527 -0.2266
  520MOL0     C68556   8.455   2.678   3.176  0.2431  0.6487  0.7839
  520MOL0     C68557   8.554   2.783   3.166  0.5888  0.2095 -0.1772
  520MOL0     N68558   9.159   3.072   2.939 -0.3206  0.4084  0.6833
  520MOL0     N68559   9.282   3.051   2.986  0.2723 -0.1403  0.2892
  520MOL0     C68560  10.263   3.317   3.076  0.0039  0.5713  0.4401
  520MOL0     C68561  10.390   3.336   3.127  0.5385 -0.2264 -0.6259
  520MOL0     C68562  10.713   3.273   3.451  0.8624 -0.0811 -0.0581
  520MOL0     C68563  10.824   3.308   3.376 -0.2294  0.4152 -0.0761
  520MOL0     C68564  10.947   3.331   3.438 -0.3051  0.0382  0.4192
  520MOL0     C68565  10.955   3.325   3.584  0.0043 -0.2926 -0.2798
  520MOL0     O68566  11.067   3.351   3.660  0.7177 -0.3106  0.0372
  520MOL0     C68567  11.186   3.364   3.581  0.0562 -0.0897  0.0600
  520MOL0     C68568  11.301   3.369   3.684  0.1085  0.1676  0.3339
  520MOL0     C68569  11.322   3.221   3.748 -0.5681  0.2690 -0.6040
  520MOL0     C68570  11.410   3.228   3.876  0.7084 -0.0578 -0.0592
  520MOL0     C68571  11.326   3.299   3.975 -0.2749 -0.3411  0.7096
  520MOL0     C68572  11.255   3.363   4.060 -0.7277  0.5549 -0.8076
  520MOL0     C68573  10.843   3.287   3.654 -0.0591 -0.5137 -0.2707
  520MOL0     C68574  10.722   3.264   3.592  0.2989 -0.0996  0.4179
  520MOL0     H68575  10.431   3.040   3.282  0.3797 -1.4958 -0.8666
  520MOL0     H68576  10.206   3.001   3.183  0.1388 -0.5921  0.3527
  520MOL0     H68577  10.102   3.248   2.835  0.5564  1.3697  0.5135
  520MOL0     H68578   9.989   3.314   2.967  0.3338  0.8430 -1.0399
  520MOL0     H68579   9.973   3.101   2.771  0.7418 -0.2693  0.4092
  520MOL0     H68580   9.876   3.255   2.781  5.4085  1.4854  0.7826
  520MOL0     H68581   9.765   3.183   2.986  1.7031  2.2244  2.3329
  520MOL0     H68582   9.867   3.043   2.993 -0.1933  1.7718  1.1585
  520MOL0     H68583   9.671   3.062   2.757 -0.2206 -0.7254 -0.2823
  520MOL0     H68584   9.801   2.939   2.814  0.9208 -0.6665  4.2287
  520MOL0     H68585   9.564   3.044   2.957  1.2355  0.9240 -1.1200
  520MOL0     H68586   9.681   2.937   3.024  0.4290 -0.6888 -0.3386
  520MOL0     H68587   9.633   2.755   2.859 -1.8644 -1.8338  1.5836
  520MOL0     H68588   9.506   2.848   2.791  2.1807  2.4706 -1.3594
  520MOL0     H68589   9.438   2.680   2.957 -0.5541 -1.1618  1.0459
  520MOL0     H68590   9.558   2.713   3.062 -0.2993 -0.0588  0.3368
  520MOL0     H68591   9.449   2.932   3.136 -0.5882 -1.1152  1.7851
  520MOL0     H68592   9.338   2.794   3.161 -1.2006  2.6643  1.1827
  520MOL0     H68593   9.177   2.754   2.917 -0.9639 -0.2830  0.9301
  520MOL0     H68594   8.957   2.834   2.825 -0.7735  0.0542  0.5999
  520MOL0     H68595   8.969   2.989   2.740  0.5833 -2.0868 -0.8495
  520MOL0     H68596   8.758   3.005   2.888  0.8117 -1.1713 -0.5715
  520MOL0     H68597   8.890   3.096   2.975 -1.3261 -0.3195  1.7018
  520MOL0     H68598   8.751   2.851   3.019 -1.0008  0.8823  0.1773
  520MOL0     H68599   8.926   2.864   3.072  0.0722  1.3382  0.3990
  520MOL0     H68600   8.688   3.047   3.150  0.8608  1.3706 -1.5211
  520MOL0     H68601   8.853   3.060   3.212  0.1750 -0.0978 -0.0958
  520MOL0     H68602   8.696   2.730   3.467  0.3703 -3.0836  1.0923
  520MOL0     H68603   8.519   2.564   3.490 -2.4647  0.4196  0.2169
  520MOL0     H68604   8.130   2.446   3.626  1.6067 -0.6182  1.9746
  520MOL0     H68605   7.925   2.304   3.627 -0.6975 -0.7813 -1.0299
  520MOL0     H68606   7.932   1.904   3.410  2.2763  2.8800 -0.1738
  520MOL0     H68607   7.859   2.008   3.287 -1.0164  0.2758 -0.0903
  520MOL0     H68608   7.638   1.970   3.397  0.7644 -0.6652  1.6616
  520MOL0     H68609   7.714   1.875   3.520 -0.6837  2.5967  2.1199
  520MOL0     H68610   7.805   1.716   3.353  0.4768 -0.1365 -1.3557
  520MOL0     H68611   7.745   1.813   3.220 -1.6565 -1.9067 -1.1515
  520MOL0     H68612   7.628   1.601   3.276 -1.4935 -0.6074 -0.0851
  520MOL0     H68613   7.550   1.696   3.408 -1.1347 -0.6746 -0.8411
  520MOL0     H68614   7.524   1.749   3.104 -0.6981  1.4070  0.0307
  520MOL0     H68615   7.471   1.859   3.229 -2.0453 -1.0766  0.5038
  520MOL0     H68616   7.338   1.681   3.327  0.2013  1.7029  1.1701
  520MOL0     H68617   7.372   1.577   3.183  0.5685 -0.6355  1.6292
  520MOL0     H68618   7.229   1.854   3.180 -3.4516 -0.6897  2.0020
  520MOL0     H68619   7.268   1.782   3.034  0.8211  1.4236  0.7502
  520MOL0     H68620   7.116   1.575   3.122 -3.7832 -0.2141  0.6095
  520MOL0     H68621   7.054   1.747   3.085  0.3537 -0.7043 -0.5998
  520MOL0     H68622   8.077   2.078   3.294 -0.0082 -0.0237 -0.1437
  520MOL0     H68623   8.252   2.245   3.262 -2.5452  1.5837 -2.9829
  520MOL0     H68624   8.395   2.650   3.091  0.7891 -1.1105  0.9502
  520MOL0     H68625   8.549   2.843   3.075 -2.2846 -0.7994 -0.7767
  520MOL0     H68626  10.214   3.394   3.018  0.8044  0.2521 -0.6835
  520MOL0     H68627  10.435   3.433   3.112  0.4938  0.2366  1.7843
  520MOL0     H68628  10.818   3.330   3.270  2.6531 -2.0539 -0.8821
  520MOL0     H68629  11.037   3.348   3.379 -2.7608  2.9371 -2.9222
  520MOL0     H68630  11.185   3.457   3.524 -0.5056 -0.7384 -1.0181
  520MOL0     H68631  11.200   3.272   3.523  1.0035 -1.9805  3.0946
  520MOL0     H68632  11.388   3.397   3.624 -2.9181  0.0505 -4.6648
  520MOL0     H68633  11.293   3.449   3.758  2.0477 -2.2330  3.3960
  520MOL0     H68634  11.377   3.159   3.678  0.7509 -0.5042  1.0585
  520MOL0     H68635  11.226   3.172   3.770 -0.4567  0.9111  1.5605
  520MOL0     H68636  11.415   3.126   3.916 -3.2073 -0.5701 -0.4590
  520MOL0     H68637  11.512   3.263   3.862  1.8891 -3.4687 -0.9747
  520MOL0     H68638  11.197   3.411   4.137 -0.1946 -1.3516  0.8571
  520MOL0     H68639  10.859   3.283   3.762  2.1935 -0.4340 -0.5618
  520MOL0     H68640  10.638   3.253   3.660  1.3794  1.9936  2.2353
  521MOL0     O68641   3.523   2.893   0.803  0.2961 -0.1590  0.1240
  521MOL0     C68642   3.588   2.873   0.701 -1.3837 -0.6188  0.4880
  521MOL0     O68643   3.541   2.823   0.579 -0.0868  1.0398  0.0660
  521MOL0     C68644   3.409   2.784   0.587 -0.5446 -0.2859  0.4028
  521MOL0     C68645   3.297   2.869   0.613  0.2233 -0.3378  0.3604
  521MOL0     C68646   3.162   2.819   0.625 -0.4187  0.5985  0.3503
  521MOL0     C68647   3.140   2.680   0.611  0.2889  0.3147 -0.0876
  521MOL0     O68648   3.013   2.632   0.647 -0.0943 -0.0126 -0.0505
  521MOL0     C68649   2.900   2.701   0.593 -0.4247  0.0451  0.2369
  521MOL0     C68650   2.777   2.619   0.641  0.2929  0.1677  0.4390
  521MOL0     C68651   2.643   2.703   0.628  0.3535 -0.0230  0.4805
  521MOL0     C68652   2.519   2.616   0.653  0.4550  0.3273 -0.6724
  521MOL0     C68653   2.383   2.700   0.620 -0.2386  0.6327  0.4547
  521MOL0     C68654   2.377   2.803   0.731  1.2282 -0.7461 -0.8652
  521MOL0     C68655   2.228   2.821   0.764  0.3549 -0.2125 -0.5556
  521MOL0     C68656   2.204   2.898   0.896  0.0208 -0.0966 -0.0827
  521MOL0     N68657   2.065   2.908   0.941 -0.6701  0.4547  0.5798
  521MOL0     C68658   2.001   3.023   0.964  0.6413  0.3593 -0.4303
  521MOL0     C68659   1.884   2.985   1.025  0.0388 -0.3121  0.3131
  521MOL0     C68660   1.789   3.090   1.086  0.4029  0.2804 -0.2979
  521MOL0     C68661   1.743   3.063   1.216  0.3421  1.0162  0.1168
  521MOL0     C68662   1.856   3.051   1.316  0.2152  0.0016  1.1458
  521MOL0     C68663   1.801   3.093   1.455  0.3143  0.6824  0.0154
  521MOL0     O68664   1.718   2.993   1.529 -0.1596 -0.1744 -1.6806
  521MOL0     C68665   1.581   2.999   1.527  0.1118 -0.1052  0.2475
  521MOL0     C68666   1.512   3.103   1.590 -0.1324 -0.3779  0.1753
  521MOL0     C68667   1.373   3.134   1.576 -0.7981  0.6356 -0.2243
  521MOL0     C68668   1.306   3.039   1.490  0.3084  0.2767 -0.2574
  521MOL0     C68669   1.157   3.048   1.468  0.2612 -0.2599 -0.0199
  521MOL0     O68670   1.099   2.977   1.372 -0.3195 -0.1927 -0.2577
  521MOL0     C68671   0.965   2.981   1.342  0.4310  1.1234  0.5261
  521MOL0     C68672   0.870   3.085   1.340  0.4266  0.3214  1.2375
  521MOL0     C68673   0.732   3.059   1.323  0.5560  0.6856 -0.2947
  521MOL0     C68674   0.682   2.935   1.291 -0.2157 -0.1169 -0.5311
  521MOL0     O68675   0.550   2.922   1.266 -0.3695  0.2731 -0.3512
  521MOL0     C68676   0.488   2.790   1.294 -0.1857  0.0241 -0.4972
  521MOL0     C68677   0.333   2.814   1.317 -0.3603  0.2260  0.2199
  521MOL0     C68678   0.242   2.733   1.213 -1.0133 -0.0211  0.3214
  521MOL0     C68679   0.105   2.788   1.204 -0.4488 -0.4388  0.3418
  521MOL0     C68680   0.011   2.730   1.103  0.0682 -0.0654 -0.6615
  521MOL0     C68681  -0.118   2.814   1.091 -0.8881  0.2583  0.4663
  521MOL0     C68682  -0.209   2.787   0.976  0.2925  0.4043  0.1496
  521MOL0     C68683  -0.213   2.637   0.964 -0.6129 -1.1138  0.5723
  521MOL0    Cl68684  -0.368   2.601   0.887  0.0329 -0.4614 -0.1923
  521MOL0     C68685   0.768   2.832   1.270 -0.4656 -0.3648 -0.0745
  521MOL0     C68686   0.908   2.858   1.298  0.1286  0.1611  0.6228
  521MOL0     O68687   1.089   3.130   1.541 -0.5275 -0.5220 -0.4438
  521MOL0     C68688   1.378   2.929   1.423  0.8961 -0.0727 -0.4702
  521MOL0     C68689   1.511   2.914   1.447  0.2281 -0.4182  0.4075
  521MOL0     N68690   1.884   2.846   1.043  0.6649  0.5193  0.4035
  521MOL0     N68691   1.992   2.804   0.995 -0.3565  1.3303  0.6951
  521MOL0     C68692   3.251   2.594   0.593  0.6964  1.0269  0.9296
  521MOL0     C68693   3.380   2.648   0.580  0.8551 -0.2273 -0.2344
  521MOL0     C68694   3.735   2.902   0.719  0.4878  0.8149  0.6791
  521MOL0     C68695   3.788   2.959   0.832  0.5452 -0.1076 -0.7119
  521MOL0     C68696   3.922   2.983   0.845 -0.1685 -0.8361 -0.2290
  521MOL0     C68697   4.011   2.952   0.734 -0.0294 -0.1208  1.5882
  521MOL0     O68698   4.139   2.988   0.730  0.3406  0.6675  0.2785
  521MOL0     C68699   4.200   3.033   0.851  0.4378  0.2773 -0.3006
  521MOL0     C68700   4.226   2.930   0.966  0.0667  0.0947 -0.3930
  521MOL0     C68701   4.285   2.803   0.904  1.2431 -1.2573  0.0185
  521MOL0     C68702   4.304   2.691   1.010  0.5946  0.3063  0.4016
  521MOL0     C68703   4.335   2.566   0.941  0.0757 -0.0118  0.3248
  521MOL0     C68704   4.369   2.461   0.892 -0.2625  0.1245 -0.7260
  521MOL0     C68705   3.957   2.891   0.619 -0.3620  0.1947 -0.1935
  521MOL0     C68706   3.824   2.864   0.609 -0.0703 -0.1571  0.5190
  521MOL0     H68707   3.314   2.975   0.630  0.2080  0.0030 -1.5280
  521MOL0     H68708   3.083   2.891   0.646 -0.7689  0.5091 -0.6139
  521MOL0     H68709   2.910   2.688   0.485  1.7787  1.2262  0.2487
  521MOL0     H68710   2.885   2.806   0.619 -0.2405  0.9029 -2.7118
  521MOL0     H68711   2.792   2.595   0.747 -3.3680 -0.0671  1.0454
  521MOL0     H68712   2.763   2.532   0.577 -0.3764  0.0455  0.7453
  521MOL0     H68713   2.626   2.742   0.527  0.4823  0.1789  0.5376
  521MOL0     H68714   2.642   2.791   0.693 -1.9652  0.0224  0.4566
  521MOL0     H68715   2.521   2.526   0.591  3.1483 -0.9563  1.0595
  521MOL0     H68716   2.515   2.574   0.754  2.6940 -0.8301 -1.0053
  521MOL0     H68717   2.298   2.630   0.621  0.7795 -0.8215 -2.4214
  521MOL0     H68718   2.377   2.749   0.522 -0.8167 -0.6198 -0.1668
  521MOL0     H68719   2.409   2.902   0.699 -0.6587 -1.0226 -4.0189
  521MOL0     H68720   2.437   2.773   0.817  0.7533 -0.7353 -0.5260
  521MOL0     H68721   2.170   2.867   0.683 -3.1263  3.5861  3.5381
  521MOL0     H68722   2.192   2.722   0.794 -1.7251  0.7218  0.2692
  521MOL0     H68723   2.247   2.998   0.885  1.9132 -0.9780 -1.2350
  521MOL0     H68724   2.258   2.840   0.972 -1.3165 -1.2557  0.0168
  521MOL0     H68725   2.032   3.124   0.938  1.1588  0.4981  0.6741
  521MOL0     H68726   1.703   3.108   1.021  0.6647  1.7708 -0.2833
  521MOL0     H68727   1.849   3.182   1.093 -1.5197  1.5045  5.6185
  521MOL0     H68728   1.689   2.969   1.208 -0.2614  1.3959 -0.4418
  521MOL0     H68729   1.676   3.142   1.250  0.9599  2.0495 -0.9605
  521MOL0     H68730   1.902   2.952   1.323 -1.0505 -0.6514  0.4854
  521MOL0     H68731   1.931   3.127   1.290 -0.8455  1.1882  1.5025
  521MOL0     H68732   1.730   3.176   1.447 -2.2471 -0.8939  3.7187
  521MOL0     H68733   1.881   3.110   1.528 -2.0291  0.5712  2.8074
  521MOL0     H68734   1.572   3.169   1.652  1.7398 -0.0329 -1.9262
  521MOL0     H68735   1.321   3.211   1.633 -0.7870 -0.0452  0.7260
  521MOL0     H68736   0.908   3.185   1.360  1.8806  1.0306 -3.6752
  521MOL0     H68737   0.654   3.133   1.339  1.0811  1.5217 -1.4218
  521MOL0     H68738   0.521   2.748   1.389 -1.7867  0.7573  0.4313
  521MOL0     H68739   0.507   2.718   1.214  0.8944  1.2959 -1.4279
  521MOL0     H68740   0.321   2.922   1.325 -1.0686  0.1188  0.7076
  521MOL0     H68741   0.326   2.775   1.419  2.7959  3.0102  1.6839
  521MOL0     H68742   0.237   2.627   1.240 -0.7669 -0.3269 -0.7690
  521MOL0     H68743   0.283   2.739   1.111 -1.8944 -1.4546 -0.1464
  521MOL0     H68744   0.052   2.769   1.298  0.6953 -0.2637  1.0527
  521MOL0     H68745   0.118   2.896   1.190  0.6126 -0.1335  3.0377
  521MOL0     H68746  -0.014   2.626   1.127  0.9841 -0.1272  0.0865
  521MOL0     H68747   0.062   2.732   1.006 -1.0615 -0.5601 -1.2888
  521MOL0     H68748  -0.091   2.919   1.080 -1.6967  0.5971  1.4793
  521MOL0     H68749  -0.166   2.802   1.189  2.3541  0.5489  2.2423
  521MOL0     H68750  -0.310   2.827   0.988  1.3675  2.8637  1.7336
  521MOL0     H68751  -0.165   2.814   0.879  2.6754 -0.6072  0.8839
  521MOL0     H68752  -0.201   2.595   1.064 -0.1913 -0.3730  0.8347
  521MOL0     H68753  -0.132   2.589   0.909 -3.3665 -2.7577 -2.4484
  521MOL0     H68754   0.730   2.741   1.224 -1.1407  1.3172 -3.0836
  521MOL0     H68755   0.977   2.775   1.283 -0.3789  0.1084 -1.8025
  521MOL0     H68756   1.331   2.847   1.369 -0.7281 -0.5344  1.5177
  521MOL0     H68757   1.562   2.826   1.408  0.9254 -0.2950  1.0313
  521MOL0     H68758   3.236   2.488   0.609 -1.4979  0.5182 -3.3038
  521MOL0     H68759   3.462   2.577   0.582  1.3181  0.3089  1.2637
  521MOL0     H68760   3.721   2.987   0.913 -0.3377  0.0899 -1.5069
  521MOL0     H68761   3.954   3.043   0.930 -0.0140  0.4427 -1.1597
  521MOL0     H68762   4.138   3.117   0.884  2.5642  2.2938 -1.1359
  521MOL0     H68763   4.302   3.068   0.834 -0.3187  2.6819 -0.2271
  521MOL0     H68764   4.299   2.972   1.037 -0.5883  0.1358  0.2668
  521MOL0     H68765   4.137   2.905   1.024  2.2206 -0.3151  3.0184
  521MOL0     H68766   4.380   2.823   0.853  0.7064  0.6878 -0.3057
  521MOL0     H68767   4.223   2.767   0.822  5.5589  1.6865 -5.2091
  521MOL0     H68768   4.391   2.724   1.067  1.4515  0.7425 -1.1103
  521MOL0     H68769   4.216   2.690   1.075  1.1648  0.7250  1.1939
  521MOL0     H68770   4.387   2.362   0.853  1.0258 -0.1017  0.3731
  521MOL0     H68771   4.021   2.864   0.536 -0.2923  1.1497 -0.4634
  521MOL0     H68772   3.795   2.797   0.529 -2.2618  1.8221 -0.4690
  522MOL0     O68773   8.189   9.184   0.980 -0.4830 -0.0313  0.0578
  522MOL0     C68774   8.137   9.297   0.973 -0.0939 -0.8337  0.0218
  522MOL0     O68775   8.205   9.418   0.957  0.9408 -0.1019  0.3109
  522MOL0     C68776   8.336   9.436   0.959 -0.7647  0.4548  0.5795
  522MOL0     C68777   8.393   9.548   0.906  0.4544  0.5430  0.2815
  522MOL0     C68778   8.528   9.573   0.891  0.5342 -0.3658 -0.1040
  522MOL0     C68779   8.620   9.485   0.939  0.1654  0.7994  0.1800
  522MOL0     O68780   8.747   9.520   0.915  0.2342  0.4115  1.1392
  522MOL0     C68781   8.846   9.465   1.001 -0.4466 -0.0029  0.7055
  522MOL0     C68782   8.969   9.483   0.909  0.4029  0.5622  0.4916
  522MOL0     C68783   9.092   9.411   0.964  0.8068 -0.0867  0.5766
  522MOL0     C68784   9.069   9.262   0.975  0.1826  0.1329  0.0052
  522MOL0     C68785   9.005   9.185   0.862 -0.0121 -0.2704 -0.9680
  522MOL0     C68786   8.990   9.036   0.882 -0.4296 -0.1739 -0.2694
  522MOL0     C68787   8.965   8.979   0.750  0.6815  0.7859  0.4236
  522MOL0     C68788   8.955   8.828   0.740 -0.3368  0.3189 -0.0907
  522MOL0     N68789   8.930   8.778   0.609 -0.4041 -0.4800  0.1825
  522MOL0     C68790   8.827   8.831   0.521 -0.5617  0.0580 -0.3225
  522MOL0     C68791   8.861   8.786   0.394 -0.5494  0.0879  0.3346
  522MOL0     C68792   8.788   8.822   0.265  0.2117 -0.1081  0.2173
  522MOL0     C68793   8.649   8.771   0.265  0.5508  0.4685  0.2059
  522MOL0     C68794   8.575   8.775   0.129  0.2696 -0.4169 -0.3142
  522MOL0     C68795   8.428   8.775   0.140 -0.4002  1.6182 -0.5263
  522MOL0     O68796   8.373   8.666   0.221 -0.5294  0.1312 -0.0701
  522MOL0     C68797   8.240   8.665   0.247 -0.3302  1.5154 -0.6884
  522MOL0     C68798   8.195   8.588   0.361  0.0087  0.3571 -0.0345
  522MOL0     C68799   8.060   8.594   0.400  0.0381 -0.7438  0.4836
  522MOL0     C68800   7.972   8.676   0.339 -1.2549 -0.2707 -0.6749
  522MOL0     C68801   7.831   8.688   0.392  0.6189  0.0818 -0.2011
  522MOL0     O68802   7.789   8.585   0.473 -0.1274  0.3125  0.2337
  522MOL0     C68803   7.661   8.592   0.513 -0.1607  0.4874 -0.2429
  522MOL0     C68804   7.635   8.629   0.639  0.1683  0.3192  0.3392
  522MOL0     C68805   7.504   8.643   0.685  0.0190  0.6632  0.1373
  522MOL0     C68806   7.392   8.603   0.609  0.7331  0.4603 -0.0446
  522MOL0     O68807   7.260   8.603   0.673 -0.1100  0.2696  0.3637
  522MOL0     C68808   7.249   8.549   0.805  0.1087 -0.3093 -0.1889
  522MOL0     C68809   7.105   8.509   0.844  0.0954 -0.0139 -0.8608
  522MOL0     C68810   7.001   8.599   0.783 -0.3631  0.7857  0.1568
  522MOL0     C68811   6.866   8.529   0.791  0.4949  0.3793 -0.3454
  522MOL0     C68812   6.752   8.614   0.719  0.0777  0.4118 -0.4604
  522MOL0     C68813   6.619   8.553   0.710  0.5836  0.3797  0.0050
  522MOL0     C68814   6.557   8.533   0.843  0.8004  0.3565  0.5597
  522MOL0     C68815   6.572   8.389   0.897 -0.3045 -0.3889 -0.5914
  522MOL0    Cl68816   6.514   8.249   0.792  0.2505  0.4694 -0.2979
  522MOL0     C68817   7.418   8.559   0.477  0.2386 -0.0257 -0.4354
  522MOL0     C68818   7.555   8.548   0.431  0.5341  0.3988 -0.6476
  522MOL0     O68819   7.758   8.777   0.352 -0.4456 -0.4181  0.0143
  522MOL0     C68820   8.016   8.745   0.230 -0.3777 -0.6060  0.5564
  522MOL0     C68821   8.147   8.734   0.175  0.6765  0.5409  0.1753
  522MOL0     N68822   8.978   8.712   0.401 -0.1224  0.4428 -0.1785
  522MOL0     N68823   9.017   8.706   0.529  0.1563 -0.2755  0.0509
  522MOL0     C68824   8.566   9.361   0.979 -0.0632 -0.1747 -0.5796
  522MOL0     C68825   8.429   9.345   1.005  0.8365 -0.8098  0.5469
  522MOL0     C68826   7.990   9.311   0.992  0.0294 -0.5706  0.0620
  522MOL0     C68827   7.919   9.213   1.059 -1.1107  0.1646 -0.5224
  522MOL0     C68828   7.792   9.226   1.107 -1.1439  0.3719  0.0482
  522MOL0     C68829   7.726   9.351   1.109  0.3281 -0.9131 -0.0835
  522MOL0     O68830   7.596   9.362   1.155  0.5401  0.3459  0.1015
  522MOL0     C68831   7.556   9.494   1.190 -0.7168 -1.1500 -1.3505
  522MOL0     C68832   7.476   9.571   1.083 -0.9163 -0.9773 -0.6590
  522MOL0     C68833   7.348   9.509   1.054  0.2288 -0.3917  0.1101
  522MOL0     C68834   7.350   9.431   0.925  0.7241  0.3610 -0.8450
  522MOL0     C68835   7.214   9.394   0.895  0.4079  0.8308  0.8943
  522MOL0     C68836   7.106   9.362   0.848  0.2446 -0.2534 -0.3394
  522MOL0     C68837   7.790   9.454   1.047 -0.3403 -0.7317  0.3843
  522MOL0     C68838   7.920   9.431   0.987  0.4091  0.0912 -0.5900
  522MOL0     H68839   8.332   9.626   0.864  2.2945  1.6991 -0.3554
  522MOL0     H68840   8.553   9.662   0.835  0.8597 -1.5591 -1.9636
  522MOL0     H68841   8.833   9.361   1.032  1.8886 -1.8269 -3.6237
  522MOL0     H68842   8.835   9.520   1.095  0.3028 -0.4622  1.0671
  522MOL0     H68843   9.007   9.584   0.891  2.2081 -0.3680 -1.2540
  522MOL0     H68844   8.937   9.447   0.811 -1.3328 -0.7890  1.4925
  522MOL0     H68845   9.120   9.452   1.061 -1.1954 -0.0518  1.1761
  522MOL0     H68846   9.171   9.422   0.889 -2.5073  0.6142 -3.1817
  522MOL0     H68847   9.170   9.220   0.974  0.7308  1.4028 -1.1259
  522MOL0     H68848   9.028   9.239   1.074 -0.5533 -0.6619 -0.4764
  522MOL0     H68849   9.057   9.207   0.768 -0.7911  0.1026 -1.3240
  522MOL0     H68850   8.906   9.227   0.841  0.2680  0.6498 -0.5045
  522MOL0     H68851   8.910   9.011   0.952  1.3602  1.5150  2.5585
  522MOL0     H68852   9.089   8.996   0.908 -0.5259 -0.2018  0.0469
  522MOL0     H68853   8.869   9.021   0.718  0.4201  1.0917  1.5831
  522MOL0     H68854   9.041   9.009   0.677  1.2045  1.0723  1.0753
  522MOL0     H68855   8.885   8.787   0.813  0.0689 -0.0117  0.1171
  522MOL0     H68856   9.054   8.798   0.776 -0.0286  1.0976 -0.2814
  522MOL0     H68857   8.747   8.900   0.546 -1.8332 -1.4133 -0.1905
  522MOL0     H68858   8.836   8.805   0.168 -1.0627  1.5160 -0.7567
  522MOL0     H68859   8.781   8.931   0.257  2.9773  0.1692  0.4045
  522MOL0     H68860   8.583   8.828   0.330 -0.3702 -2.1663  1.7217
  522MOL0     H68861   8.651   8.663   0.283  0.7284  0.1209 -1.6371
  522MOL0     H68862   8.598   8.873   0.086 -0.6020 -1.1477 -2.5984
  522MOL0     H68863   8.611   8.695   0.063  0.6015 -0.4599 -0.0858
  522MOL0     H68864   8.401   8.752   0.037 -0.5362 -0.4994 -0.0650
  522MOL0     H68865   8.387   8.872   0.170  0.4507  1.2307  2.1187
  522MOL0     H68866   8.272   8.531   0.412 -1.2818 -2.7786 -1.3238
  522MOL0     H68867   8.029   8.530   0.482 -0.1584  1.3326  2.1196
  522MOL0     H68868   7.719   8.653   0.703  0.1972 -1.4607  1.0162
  522MOL0     H68869   7.485   8.668   0.788 -6.2983 -1.3620 -0.0933
  522MOL0     H68870   7.295   8.617   0.878  0.3604 -2.0650  1.3582
  522MOL0     H68871   7.305   8.455   0.808  2.5013  0.9791 -1.5594
  522MOL0     H68872   7.087   8.513   0.952 -0.2370 -1.5315 -0.8304
  522MOL0     H68873   7.088   8.410   0.801 -2.6051  0.3882 -0.9089
  522MOL0     H68874   7.020   8.613   0.676  1.9429  1.2135  0.5714
  522MOL0     H68875   7.001   8.697   0.831  1.1694  0.2879  1.2208
  522MOL0     H68876   6.866   8.425   0.757  1.9885  0.8789 -2.0185
  522MOL0     H68877   6.842   8.527   0.898  1.7907  2.6385  0.0482
  522MOL0     H68878   6.781   8.628   0.614 -3.6489 -0.4819 -1.7804
  522MOL0     H68879   6.744   8.713   0.764 -1.2692  0.9963 -1.8763
  522MOL0     H68880   6.620   8.459   0.654  1.5792  0.9697 -1.0078
  522MOL0     H68881   6.559   8.620   0.647 -0.3124 -0.9875 -0.6634
  522MOL0     H68882   6.612   8.602   0.907 -2.2188  2.9853  0.5767
  522MOL0     H68883   6.451   8.561   0.842  1.2180  2.0656  0.7173
  522MOL0     H68884   6.526   8.383   0.996  0.3927 -0.2026 -0.2482
  522MOL0     H68885   6.678   8.379   0.920 -0.6280  0.1153  1.2465
  522MOL0     H68886   7.338   8.517   0.417 -0.9762  0.6501  0.6521
  522MOL0     H68887   7.584   8.518   0.331  1.5642 -2.0271  0.3096
  522MOL0     H68888   7.938   8.809   0.190  1.4663  1.2583 -0.2986
  522MOL0     H68889   8.176   8.786   0.084  2.2286 -2.4018 -1.1584
  522MOL0     H68890   8.633   9.280   1.004 -2.6912 -4.4240 -5.3336
  522MOL0     H68891   8.395   9.255   1.056 -3.4261  0.1510 -0.1912
  522MOL0     H68892   7.968   9.117   1.070 -2.9549 -0.7259  0.2974
  522MOL0     H68893   7.740   9.136   1.135 -0.2672 -0.6046 -1.3334
  522MOL0     H68894   7.634   9.553   1.240 -0.2596 -2.0814 -0.9407
  522MOL0     H68895   7.490   9.476   1.276  2.2712 -1.9264  0.9634
  522MOL0     H68896   7.448   9.668   1.126 -1.3805 -1.9556  1.3379
  522MOL0     H68897   7.534   9.579   0.990 -0.3541 -2.9671 -0.5330
  522MOL0     H68898   7.269   9.585   1.044 -1.7221 -2.5479 -2.0156
  522MOL0     H68899   7.323   9.436   1.131  0.4307 -0.2366  0.3211
  522MOL0     H68900   7.393   9.482   0.839 -0.0337  1.2182 -0.7368
  522MOL0     H68901   7.401   9.337   0.947 -1.1974 -0.2295  1.6511
  522MOL0     H68902   7.012   9.328   0.809 -0.7528  0.6488  1.1660
  522MOL0     H68903   7.760   9.558   1.035  1.7503  0.1633  2.3241
  522MOL0     H68904   7.964   9.523   0.950  3.6541  0.5006  3.5687
  523MOL0     O68905   7.052  10.408   4.799  0.1757 -0.1287 -0.5389
  523MOL0     C68906   7.096  10.294   4.778 -0.2545  0.2921 -0.1894
  523MOL0     O68907   7.024  10.179   4.771  1.1522 -0.5032  0.0764
  523MOL0     C68908   6.888  10.172   4.765  0.9608  0.5318 -0.5838
  523MOL0     C68909   6.806  10.252   4.678 -0.2991  0.2623  0.8254
  523MOL0     C68910   6.671  10.216   4.646  0.0811  0.0269  0.7781
  523MOL0     C68911   6.603  10.117   4.714  0.2751 -0.3801  0.0625
  523MOL0     O68912   6.475  10.101   4.686  0.2880  0.0060  0.4596
  523MOL0     C68913   6.391  10.037   4.788  1.5023 -0.2272  0.4241
  523MOL0     C68914   6.257  10.000   4.718 -0.1474 -0.8076  0.3409
  523MOL0     C68915   6.131  10.012   4.810 -0.8955 -0.5029  0.3234
  523MOL0     C68916   6.007   9.960   4.735  0.1165 -0.2848  0.2931
  523MOL0     C68917   5.897   9.926   4.829  0.4287 -0.7812 -0.0238
  523MOL0     C68918   5.793   9.845   4.761  0.1401 -0.0650  0.4634
  523MOL0     C68919   5.672   9.807   4.841 -0.3534  0.2483 -0.8221
  523MOL0     C68920   5.577   9.913   4.894  0.2929  0.1465 -1.3526
  523MOL0     N68921   5.492   9.855   4.995  0.0895 -0.9045  0.3948
  523MOL0     C68922   5.378   9.784   4.966  0.3410  0.0278 -0.0805
  523MOL0     C68923   5.343   9.717   5.076  0.0797 -0.5323  0.3035
  523MOL0     C68924   5.213   9.634   5.080 -0.3054  0.4064 -0.2006
  523MOL0     C68925   5.104   9.723   5.019 -0.5306  0.3667  0.3463
  523MOL0     C68926   5.082   9.860   5.080  0.1000 -0.0538 -0.5907
  523MOL0     C68927   5.049   9.843   5.234 -0.3679 -0.1707 -0.5160
  523MOL0     O68928   4.926   9.771   5.254  0.3143  0.4834 -0.6706
  523MOL0     C68929   4.805   9.830   5.241 -1.0728 -0.0195 -0.7691
  523MOL0     C68930   4.788   9.972   5.220  0.4703 -0.2540  0.2365
  523MOL0     C68931   4.666  10.028   5.223 -0.1281 -0.4049  0.5478
  523MOL0     C68932   4.551   9.955   5.251  0.4561 -0.2979 -0.2509
  523MOL0     C68933   4.416  10.020   5.246  0.2181  0.7495  0.2005
  523MOL0     O68934   4.403  10.131   5.185 -0.2750  0.7629 -0.5588
  523MOL0     C68935   4.285  10.196   5.195 -0.3653 -0.1129  0.5237
  523MOL0     C68936   4.173  10.157   5.109  0.0818  0.0911 -0.6801
  523MOL0     C68937   4.054  10.226   5.122 -1.0056  0.5672  0.0322
  523MOL0     C68938   4.037  10.334   5.208 -1.0837 -0.0592  0.3994
  523MOL0     O68939   3.934  10.416   5.196  0.1052 -0.5098  0.5560
  523MOL0     C68940   3.925  10.554   5.242 -1.1259  0.7400 -0.0625
  523MOL0     C68941   3.796  10.612   5.186 -0.3174 -0.6807 -0.6077
  523MOL0     C68942   3.666  10.563   5.246  0.3120 -0.0211 -0.2429
  523MOL0     C68943   3.532  10.623   5.183  0.4203 -0.4737  0.0315
  523MOL0     C68944   3.434  10.515   5.167  0.0914 -0.1876 -0.5605
  523MOL0     C68945   3.297  10.555   5.124 -0.0578 -0.6263 -0.4709
  523MOL0     C68946   3.262  10.550   4.972 -0.7642  0.0933 -0.5328
  523MOL0     C68947   3.113  10.592   4.948 -0.8566  0.5615  0.1309
  523MOL0    Cl68948   2.985  10.512   5.052 -0.0359  0.2467 -0.4530
  523MOL0     C68949   4.150  10.376   5.290 -0.2393  0.0802  0.5876
  523MOL0     C68950   4.268  10.308   5.271 -0.6035 -0.1811 -0.8529
  523MOL0     O68951   4.322   9.956   5.296  0.2061  0.2152  0.5027
  523MOL0     C68952   4.559   9.818   5.268  0.7957 -0.0182 -0.3767
  523MOL0     C68953   4.687   9.755   5.255  0.3105  0.1885 -1.0460
  523MOL0     N68954   5.437   9.743   5.177  0.8311 -0.4451  0.1145
  523MOL0     N68955   5.523   9.829   5.128 -0.1274 -0.1848  0.3123
  523MOL0     C68956   6.679  10.039   4.799  0.7176  0.4273 -0.2378
  523MOL0     C68957   6.811  10.074   4.831 -0.6416 -0.0831 -0.3087
  523MOL0     C68958   7.242  10.280   4.753 -0.7973  1.0444 -0.2295
  523MOL0     C68959   7.304  10.375   4.671 -0.2797  0.1112  0.2697
  523MOL0     C68960   7.440  10.363   4.643  0.6716 -0.2613 -0.2161
  523MOL0     C68961   7.518  10.265   4.707 -0.2230 -0.0361  0.0614
  523MOL0     O68962   7.657  10.258   4.691 -0.1604 -0.1133  0.4521
  523MOL0     C68963   7.724  10.366   4.629  0.6689 -0.2649  0.2963
  523MOL0     C68964   7.710  10.354   4.477 -0.2622  1.0467 -0.9315
  523MOL0     C68965   7.823  10.430   4.411  0.6905 -1.1884 -0.5444
  523MOL0     C68966   7.822  10.402   4.259  0.1533 -0.5465  0.0811
  523MOL0     C68967   7.923  10.479   4.187 -0.1624  0.0260  0.1721
  523MOL0     C68968   7.987  10.563   4.125  0.5331  0.2506 -0.4701
  523MOL0     C68969   7.463  10.170   4.804 -0.8260 -0.7299  0.0575
  523MOL0     C68970   7.320  10.170   4.810  1.1147  0.6652 -0.5631
  523MOL0     H68971   6.848  10.338   4.626 -0.5160  0.2894  0.6900
  523MOL0     H68972   6.633  10.272   4.561  0.4977 -1.8103 -0.7032
  523MOL0     H68973   6.385  10.106   4.872 -0.1050 -2.7379  2.5270
  523MOL0     H68974   6.436   9.947   4.832 -2.7413 -1.4369  2.7900
  523MOL0     H68975   6.258   9.899   4.678 -0.1334 -1.0446  0.9302
  523MOL0     H68976   6.244  10.065   4.631  3.2944 -1.2585 -0.6312
  523MOL0     H68977   6.115  10.116   4.841  3.2179 -0.2129  2.2499
  523MOL0     H68978   6.151   9.956   4.903  2.5849  0.3659  0.2647
  523MOL0     H68979   5.977  10.034   4.660 -0.3634 -0.3957  0.3737
  523MOL0     H68980   6.038   9.865   4.690  1.4269  0.7099 -1.0102
  523MOL0     H68981   5.839  10.007   4.874 -2.1483 -2.7226  0.3827
  523MOL0     H68982   5.939   9.879   4.918  4.0236  1.5123 -0.3125
  523MOL0     H68983   5.849   9.755   4.734 -0.7476 -0.7273  0.8007
  523MOL0     H68984   5.762   9.900   4.672 -0.2955 -0.9027  0.0818
  523MOL0     H68985   5.610   9.755   4.767  1.8695 -0.6926 -2.1099
  523MOL0     H68986   5.693   9.732   4.917 -0.3717  3.2787  2.4148
  523MOL0     H68987   5.508   9.948   4.816 -3.7283 -2.7175  0.5599
  523MOL0     H68988   5.633   9.997   4.936 -1.1348  0.2827  0.3923
  523MOL0     H68989   5.333   9.773   4.868 -1.0966  0.7224  0.4723
  523MOL0     H68990   5.197   9.600   5.182 -0.9210 -2.0767 -1.0728
  523MOL0     H68991   5.231   9.547   5.017  2.2313  1.2425 -0.7910
  523MOL0     H68992   5.009   9.670   5.007 -2.3641  3.9295 -3.3684
  523MOL0     H68993   5.135   9.742   4.916  3.6513 -2.8138  0.7598
  523MOL0     H68994   5.169   9.921   5.055  2.0584 -1.8682  1.4201
  523MOL0     H68995   4.994   9.891   5.022 -0.6351  0.3595  0.6909
  523MOL0     H68996   5.048   9.947   5.268 -1.3188 -1.2307  3.1779
  523MOL0     H68997   5.121   9.797   5.302 -2.8538 -0.4316  2.1156
  523MOL0     H68998   4.870  10.040   5.196 -2.4418  2.3113 -3.8303
  523MOL0     H68999   4.655  10.129   5.186  0.2646 -1.1994 -1.9096
  523MOL0     H69000   4.168  10.067   5.049 -4.8522 -0.5411  0.2924
  523MOL0     H69001   3.982  10.201   5.046 -0.7524  0.9463 -0.3399
  523MOL0     H69002   4.016  10.605   5.207 -1.1894  1.0250  0.1812
  523MOL0     H69003   3.914  10.563   5.351 -1.1442 -0.0894  0.0077
  523MOL0     H69004   3.796  10.606   5.077  1.6760 -1.3347 -0.6043
  523MOL0     H69005   3.804  10.719   5.207 -1.7223 -1.1610  3.0620
  523MOL0     H69006   3.654  10.584   5.352  1.2153  2.1996 -0.5359
  523MOL0     H69007   3.677  10.456   5.223  3.7438  0.0396  0.6167
  523MOL0     H69008   3.503  10.711   5.240 -0.3335  0.8948 -2.2942
  523MOL0     H69009   3.542  10.666   5.082 -2.8344 -0.9420 -0.6211
  523MOL0     H69010   3.423  10.465   5.265  0.1980  0.4566 -0.2171
  523MOL0     H69011   3.477  10.435   5.106  0.7118 -1.6492  1.6233
  523MOL0     H69012   3.279  10.653   5.171  0.2490 -0.7172 -0.1544
  523MOL0     H69013   3.223  10.485   5.165  2.2221 -2.9596 -0.0945
  523MOL0     H69014   3.332  10.611   4.913 -2.7546  2.0245 -1.0121
  523MOL0     H69015   3.279  10.450   4.932  2.4564 -0.4641  1.7682
  523MOL0     H69016   3.093  10.569   4.843 -2.4715 -0.1854  0.5712
  523MOL0     H69017   3.106  10.700   4.962  1.2227  0.7768 -0.1530
  523MOL0     H69018   4.151  10.470   5.344  1.0558  0.9463 -0.8667
  523MOL0     H69019   4.357  10.357   5.308 -1.8447  2.1362 -0.7544
  523MOL0     H69020   4.467   9.766   5.293  0.1090  1.4969  0.3823
  523MOL0     H69021   4.700   9.652   5.286 -1.5512  0.7952  2.2288
  523MOL0     H69022   6.642   9.956   4.857  2.1187 -0.4151 -0.4972
  523MOL0     H69023   6.864  10.019   4.908 -2.6102 -0.5071  0.7963
  523MOL0     H69024   7.248  10.460   4.636  2.8789  2.0947 -0.3363
  523MOL0     H69025   7.475  10.443   4.578  0.1490 -1.3188 -1.8803
  523MOL0     H69026   7.828  10.352   4.662  0.0580  2.1882  3.8629
  523MOL0     H69027   7.688  10.464   4.661  3.1674  0.5749  0.7595
  523MOL0     H69028   7.713  10.249   4.446 -0.1223  0.7868 -0.0584
  523MOL0     H69029   7.612  10.394   4.448 -0.5283 -0.0285 -1.5921
  523MOL0     H69030   7.924  10.404   4.444  0.5806  0.0292  0.8458
  523MOL0     H69031   7.814  10.535   4.441 -1.4750 -1.0910 -1.4121
  523MOL0     H69032   7.843  10.299   4.228 -0.3723 -0.7007  0.2348
  523MOL0     H69033   7.731  10.440   4.211  1.9012  1.1190 -2.1505
  523MOL0     H69034   8.058  10.635   4.089  0.6548  0.0604 -0.6145
  523MOL0     H69035   7.517  10.086   4.846 -1.5064 -0.5355  1.3773
  523MOL0     H69036   7.262  10.091   4.857 -0.3368  2.5203  0.9259
  524MOL0     O69037   4.145   5.375   5.378 -0.5143 -0.6132  0.7266
  524MOL0     C69038   4.107   5.340   5.485  0.3761  0.3814  0.2426
  524MOL0     O69039   4.003   5.399   5.552 -0.1606  0.1584  0.1906
  524MOL0     C69040   3.923   5.479   5.475 -0.0163 -0.0234  0.2038
  524MOL0     C69041   3.947   5.619   5.456 -1.0009  0.7506 -0.4888
  524MOL0     C69042   3.861   5.691   5.373 -0.2264 -0.0069  0.2021
  524MOL0     C69043   3.750   5.628   5.313  0.7326  0.0681 -0.0757
  524MOL0     O69044   3.651   5.693   5.236 -0.9891 -0.0300 -0.7960
  524MOL0     C69045   3.659   5.834   5.213 -0.5523  0.9331 -0.7575
  524MOL0     C69046   3.532   5.869   5.139  0.3323  0.9228  0.2772
  524MOL0     C69047   3.516   6.013   5.122 -0.1326  0.0372 -0.4844
  524MOL0     C69048   3.433   6.047   4.997 -1.1442  0.8940 -0.7154
  524MOL0     C69049   3.288   5.980   4.991  0.8251  0.0816  0.8179
  524MOL0     C69050   3.203   6.033   4.870 -0.4891  0.8957  0.3046
  524MOL0     C69051   3.116   6.156   4.891 -0.9496  0.1954  0.3478
  524MOL0     C69052   3.192   6.283   4.933 -0.7462  0.5095  0.5030
  524MOL0     N69053   3.094   6.389   4.950  0.3115 -0.1420 -0.7495
  524MOL0     C69054   3.078   6.505   4.882  0.2984 -0.0691  0.0255
  524MOL0     C69055   3.011   6.589   4.967  0.7752  0.2159  0.3042
  524MOL0     C69056   2.989   6.741   4.957 -1.3081  0.4979 -0.1342
  524MOL0     C69057   2.910   6.753   4.831  0.3170 -0.4971  0.7664
  524MOL0     C69058   2.904   6.897   4.785  0.4359  0.1156 -0.3366
  524MOL0     C69059   2.845   6.992   4.888 -0.0087  0.7187  0.1432
  524MOL0     O69060   2.802   7.120   4.829 -0.2646  0.5944  0.5716
  524MOL0     C69061   2.908   7.196   4.789  0.4066  0.4995 -0.2095
  524MOL0     C69062   2.972   7.285   4.885  0.0580 -0.2770  0.2268
  524MOL0     C69063   3.075   7.368   4.844 -0.0869  0.3328 -0.3576
  524MOL0     C69064   3.119   7.370   4.711  0.1965 -0.9055 -0.2515
  524MOL0     C69065   3.233   7.457   4.674  0.5088 -0.1642 -0.2017
  524MOL0     O69066   3.296   7.412   4.567  0.0108  0.1974 -0.1159
  524MOL0     C69067   3.411   7.478   4.528  0.2484  0.8208  0.1244
  524MOL0     C69068   3.522   7.515   4.614 -0.1987 -0.3862  0.6122
  524MOL0     C69069   3.629   7.597   4.563  0.1866  0.4836  0.1233
  524MOL0     C69070   3.619   7.646   4.435 -0.1793 -0.0798  0.4041
  524MOL0     O69071   3.719   7.728   4.381 -0.4248 -0.0531  0.0271
  524MOL0     C69072   3.682   7.841   4.303 -0.0893  0.9265  0.4595
  524MOL0     C69073   3.742   7.968   4.363  0.4596 -1.2202 -0.1022
  524MOL0     C69074   3.682   8.013   4.500  0.0209  0.3467 -0.3194
  524MOL0     C69075   3.526   8.018   4.502  0.4442  0.1592  1.3098
  524MOL0     C69076   3.484   8.031   4.646  0.2462 -0.2490  0.6868
  524MOL0     C69077   3.460   7.887   4.712  0.1974 -0.3969  0.9532
  524MOL0     C69078   3.436   7.917   4.863 -0.4403 -0.1124 -0.4099
  524MOL0     C69079   3.368   7.800   4.942 -0.6552 -0.0112 -0.6175
  524MOL0    Cl69080   3.304   7.880   5.099 -0.0458  0.4041 -0.1918
  524MOL0     C69081   3.520   7.597   4.355  0.6703  0.2820  0.7523
  524MOL0     C69082   3.409   7.522   4.398 -0.0189  0.2963  0.9893
  524MOL0     O69083   3.273   7.542   4.749  0.0790  0.0935  0.2349
  524MOL0     C69084   3.048   7.285   4.613  0.5187  0.2518  0.7101
  524MOL0     C69085   2.940   7.198   4.653 -0.2911 -1.0529 -0.3421
  524MOL0     N69086   2.967   6.510   5.082 -0.8954 -0.2093 -0.3589
  524MOL0     N69087   3.024   6.395   5.074  0.3709 -0.9285  0.1485
  524MOL0     C69088   3.721   5.496   5.334  0.4919  0.3313 -0.5523
  524MOL0     C69089   3.801   5.421   5.427 -0.6124 -0.7381 -0.2801
  524MOL0     C69090   4.187   5.246   5.554  0.1066 -0.0099 -0.1364
  524MOL0     C69091   4.186   5.219   5.696  0.5374 -0.8498 -0.6452
  524MOL0     C69092   4.266   5.124   5.760  0.6813 -0.4158  0.5164
  524MOL0     C69093   4.359   5.051   5.684 -0.3117 -0.1168  1.2225
  524MOL0     O69094   4.429   4.951   5.736  0.0957 -0.5590 -0.1555
  524MOL0     C69095   4.431   4.936   5.879  0.4613  0.9386 -0.2741
  524MOL0     C69096   4.528   4.823   5.909 -0.1612  0.3968  0.5186
  524MOL0     C69097   4.668   4.871   5.893 -0.7647  0.7588 -0.0248
  524MOL0     C69098   4.759   4.772   5.963  0.4073 -0.9075 -0.0503
  524MOL0     C69099   4.890   4.831   5.975  0.3699  0.1777 -0.2120
  524MOL0     C69100   4.999   4.889   5.989 -0.4013  0.3023  0.3703
  524MOL0     C69101   4.360   5.065   5.550 -0.3969  0.0751  0.0857
  524MOL0     C69102   4.280   5.163   5.483 -0.4422  0.5126 -0.7738
  524MOL0     H69103   4.042   5.660   5.488 -0.2104  2.3997 -4.3283
  524MOL0     H69104   3.899   5.789   5.349  0.5506 -0.6791 -1.4446
  524MOL0     H69105   3.755   5.848   5.163 -0.7070  1.1968 -0.9861
  524MOL0     H69106   3.661   5.891   5.306  0.7219  0.4612 -0.4765
  524MOL0     H69107   3.441   5.829   5.185 -0.8803  2.6512 -0.5234
  524MOL0     H69108   3.541   5.812   5.046  0.6606  2.1819 -0.4788
  524MOL0     H69109   3.614   6.063   5.119 -1.4193  3.8462  4.8369
  524MOL0     H69110   3.476   6.060   5.212  2.0629  0.1306  0.5289
  524MOL0     H69111   3.429   6.156   4.989 -2.5720  0.9109 -0.1630
  524MOL0     H69112   3.492   6.004   4.916  0.5286 -1.6083  1.6251
  524MOL0     H69113   3.240   6.012   5.084  0.1237  2.3350 -0.2471
  524MOL0     H69114   3.297   5.871   4.988  0.6662  0.0719  0.6369
  524MOL0     H69115   3.139   5.959   4.820 -2.1560  1.5714  1.3405
  524MOL0     H69116   3.279   6.058   4.796  0.5649 -1.1856  0.6039
  524MOL0     H69117   3.071   6.187   4.796  2.3309  2.6298 -0.5760
  524MOL0     H69118   3.045   6.140   4.973 -1.5896  0.1967 -0.1912
  524MOL0     H69119   3.268   6.302   4.856 -0.5182  0.0168  0.6034
  524MOL0     H69120   3.239   6.257   5.029 -1.1704  0.8168  0.7985
  524MOL0     H69121   3.131   6.541   4.794 -0.6478  1.5296  0.0662
  524MOL0     H69122   3.092   6.777   4.961  0.0441 -2.9095  3.4049
  524MOL0     H69123   2.936   6.778   5.045  0.7443 -0.1178  1.4453
  524MOL0     H69124   2.808   6.716   4.844 -0.0170  0.7914  2.0801
  524MOL0     H69125   2.960   6.693   4.754  1.4056  1.5001 -0.1567
  524MOL0     H69126   3.005   6.935   4.770 -1.1805  5.2995 -0.0298
  524MOL0     H69127   2.849   6.907   4.691 -2.3628 -0.3054  1.1380
  524MOL0     H69128   2.910   7.012   4.974 -2.6045 -0.1939  2.4922
  524MOL0     H69129   2.756   6.942   4.928 -1.2147  3.3335  1.0153
  524MOL0     H69130   2.914   7.297   4.975  0.2079 -3.6894  0.8840
  524MOL0     H69131   3.110   7.442   4.915  0.2265  1.2140 -1.4195
  524MOL0     H69132   3.534   7.477   4.715 -0.7617  0.0872  0.8638
  524MOL0     H69133   3.721   7.623   4.614  0.7223 -1.0024 -0.0385
  524MOL0     H69134   3.574   7.850   4.289 -0.6062 -2.4036  1.4226
  524MOL0     H69135   3.724   7.815   4.205 -1.9875  0.2848 -0.2297
  524MOL0     H69136   3.753   8.041   4.283  0.4203 -1.7919 -0.6403
  524MOL0     H69137   3.845   7.938   4.387  1.0199  1.1862  0.8200
  524MOL0     H69138   3.716   8.109   4.540 -2.1641  0.1338  2.3263
  524MOL0     H69139   3.720   7.934   4.565  0.2827  0.5275 -0.2502
  524MOL0     H69140   3.492   8.098   4.436  2.0481 -0.5777 -0.4988
  524MOL0     H69141   3.486   7.921   4.471 -4.5881  1.8016  1.7821
  524MOL0     H69142   3.385   8.076   4.646  0.5428  0.4423 -0.1837
  524MOL0     H69143   3.566   8.087   4.692  2.8878 -1.7891 -1.7669
  524MOL0     H69144   3.547   7.824   4.693 -0.2220 -0.8300  0.4250
  524MOL0     H69145   3.368   7.845   4.671 -1.3789  1.5328  2.2856
  524MOL0     H69146   3.523   7.968   4.904  1.7231 -2.3970 -1.8918
  524MOL0     H69147   3.352   7.988   4.865 -0.3723  0.0721 -2.3938
  524MOL0     H69148   3.445   7.727   4.968 -0.0691  1.7504  3.2473
  524MOL0     H69149   3.287   7.759   4.882 -0.6117  0.0840 -0.7429
  524MOL0     H69150   3.529   7.619   4.249 -0.1165 -0.8444  0.4344
  524MOL0     H69151   3.329   7.494   4.331 -0.0564  2.8413 -0.1366
  524MOL0     H69152   3.077   7.299   4.510 -0.2653 -1.5025  0.2053
  524MOL0     H69153   2.888   7.149   4.572 -1.2559  1.1696 -1.1451
  524MOL0     H69154   3.636   5.452   5.284 -0.9378  0.4353  1.6760
  524MOL0     H69155   3.791   5.315   5.448 -1.3759 -0.9964 -1.7897
  524MOL0     H69156   4.127   5.280   5.763 -1.1614 -1.7536 -1.2677
  524MOL0     H69157   4.257   5.113   5.868  1.3824 -0.8911  0.5305
  524MOL0     H69158   4.333   4.903   5.915 -0.2335  1.9571 -1.1728
  524MOL0     H69159   4.456   5.032   5.925  1.8209 -0.4501  2.0938
  524MOL0     H69160   4.510   4.812   6.016  3.3406 -1.6149  1.0532
  524MOL0     H69161   4.490   4.736   5.855 -1.2315 -0.4953  2.5910
  524MOL0     H69162   4.686   4.968   5.941  4.3338  0.3661 -0.5707
  524MOL0     H69163   4.695   4.880   5.787  1.4551  1.5593  0.5680
  524MOL0     H69164   4.721   4.738   6.060  0.1513  0.2936  0.2821
  524MOL0     H69165   4.756   4.678   5.907  0.8373 -1.7594  1.3134
  524MOL0     H69166   5.082   4.951   6.013  0.2398  0.8607 -2.8808
  524MOL0     H69167   4.429   5.001   5.494  0.3398  1.1552 -0.2689
  524MOL0     H69168   4.291   5.174   5.376  0.5120 -1.0736 -0.8729
  525MOL0     O69169  10.803   2.648  10.010  1.1302  0.1203 -0.2167
  525MOL0     C69170  10.862   2.557  10.059  0.3911  0.4698  0.2121
  525MOL0     O69171  10.804   2.444  10.092 -0.6112  0.1425 -0.1120
  525MOL0     C69172  10.666   2.438  10.070 -0.0111  0.8920  0.4090
  525MOL0     C69173  10.628   2.346   9.969 -0.0126 -0.3915  0.0395
  525MOL0     C69174  10.495   2.335   9.936  0.1976 -0.2740 -0.9862
  525MOL0     C69175  10.394   2.391  10.012 -1.1113 -0.1003  0.2225
  525MOL0     O69176  10.261   2.384   9.985  0.7597  0.8164  0.5432
  525MOL0     C69177  10.212   2.391   9.852 -0.2336 -0.5205 -0.4893
  525MOL0     C69178  10.080   2.473   9.846 -0.2759  0.4467 -0.1202
  525MOL0     C69179   9.960   2.413   9.934  0.5555 -0.3197 -0.1499
  525MOL0     C69180   9.826   2.438   9.879 -0.0180  0.1442  0.2413
  525MOL0     C69181   9.705   2.383   9.962  0.2844  0.1755  0.7775
  525MOL0     C69182   9.566   2.414   9.886 -0.6016  0.8662 -0.5023
  525MOL0     C69183   9.449   2.356   9.961 -0.4063  0.3917  0.1517
  525MOL0     C69184   9.323   2.361   9.882 -0.0643  0.2577  0.0363
  525MOL0     N69185   9.285   2.502   9.868 -0.4685  0.3223  0.2660
  525MOL0     C69186   9.242   2.571   9.978  0.1255 -0.8491 -0.5074
  525MOL0     C69187   9.189   2.683   9.920  0.5411 -0.5779  0.6692
  525MOL0     C69188   9.090   2.781   9.995 -0.3450 -0.7307 -0.3596
  525MOL0     C69189   9.113   2.931   9.971 -0.6104 -0.6807  0.0761
  525MOL0     C69190   9.036   3.022  10.075  0.6162  1.2488 -0.2300
  525MOL0     C69191   8.999   3.168  10.048  0.2336 -1.0928  0.0467
  525MOL0     O69192   9.041   3.254  10.159  0.1670 -0.6880 -0.5658
  525MOL0     C69193   9.170   3.283  10.174  0.1709  0.5479 -0.6417
  525MOL0     C69194   9.269   3.263  10.078 -0.7667 -0.7058  0.6245
  525MOL0     C69195   9.402   3.299  10.109  0.0424 -0.1572  0.2848
  525MOL0     C69196   9.448   3.340  10.232  0.5513 -0.5041  0.1854
  525MOL0     C69197   9.587   3.368  10.261 -0.6088 -0.1282 -0.1114
  525MOL0     O69198   9.680   3.333  10.169  0.0971 -0.1808  0.1258
  525MOL0     C69199   9.808   3.387  10.185  0.0300 -0.0689 -0.2256
  525MOL0     C69200   9.830   3.523  10.178 -0.1366  0.9028  0.3254
  525MOL0     C69201   9.957   3.571  10.223 -0.8386 -0.4710 -0.0970
  525MOL0     C69202  10.067   3.485  10.237 -0.1430  0.1284  0.3733
  525MOL0     O69203  10.195   3.516  10.265 -0.2177 -0.9699  0.2390
  525MOL0     C69204  10.257   3.626  10.195 -0.5498  0.4566  0.1594
  525MOL0     C69205  10.404   3.600  10.200  0.3186  0.5493 -0.1843
  525MOL0     C69206  10.494   3.709  10.143 -0.2295 -0.4533  0.3977
  525MOL0     C69207  10.644   3.659  10.130 -0.3502  0.2977 -0.0127
  525MOL0     C69208  10.722   3.705  10.006  0.6449  0.0708 -0.6320
  525MOL0     C69209  10.736   3.857  10.016  0.1993  0.4892 -0.1800
  525MOL0     C69210  10.777   3.922   9.879 -0.6251  0.0081 -0.1535
  525MOL0     C69211  10.855   4.056   9.894 -0.2380  0.2777 -0.1351
  525MOL0    Cl69212  10.752   4.205   9.907 -0.4643  0.3612  0.4582
  525MOL0     C69213  10.046   3.347  10.226 -0.1847 -0.1381  0.6599
  525MOL0     C69214   9.916   3.303  10.205 -0.1933  0.8359  0.6623
  525MOL0     O69215   9.616   3.426  10.372  1.0544 -0.6150 -0.5588
  525MOL0     C69216   9.342   3.350  10.336 -0.5311 -0.1460 -0.4182
  525MOL0     C69217   9.210   3.322  10.304  0.5429 -0.1612 -0.2813
  525MOL0     N69218   9.228   2.694   9.789  0.6163 -0.3600 -0.0265
  525MOL0     N69219   9.285   2.583   9.759 -0.2104 -0.0799  0.0799
  525MOL0     C69220  10.435   2.459  10.125  0.5051 -0.7977  0.5369
  525MOL0     C69221  10.569   2.496  10.151  0.3687  0.0806 -0.0404
  525MOL0     C69222  11.011   2.554  10.066 -0.0345  0.2595 -0.6747
  525MOL0     C69223  11.080   2.456  10.139  0.2023  0.5722 -0.2233
  525MOL0     C69224  11.219   2.466  10.147 -1.0343 -0.9231  0.4373
  525MOL0     C69225  11.294   2.564  10.085 -0.9277 -0.3971 -0.5909
  525MOL0     O69226  11.434   2.546  10.070 -0.7762 -0.5996 -0.4699
  525MOL0     C69227  11.461   2.511   9.937 -0.1942  0.5253 -0.7089
  525MOL0     C69228  11.610   2.461   9.922 -0.1450 -0.5474  0.4905
  525MOL0     C69229  11.712   2.560   9.987 -0.0039 -0.2044 -0.7075
  525MOL0     C69230  11.849   2.487   9.988 -0.6910  0.1426 -0.2472
  525MOL0     C69231  11.915   2.495   9.851  0.3055 -0.5231 -0.2153
  525MOL0     C69232  11.976   2.497   9.746  0.5918 -0.5194 -1.4352
  525MOL0     C69233  11.227   2.666  10.027 -0.1846  0.3640  0.4070
  525MOL0     C69234  11.084   2.663  10.003  0.1595  0.3454 -0.3840
  525MOL0     H69235  10.705   2.297   9.911  0.8017 -0.3060  1.0164
  525MOL0     H69236  10.476   2.265   9.855  1.5935  0.2179 -1.7761
  525MOL0     H69237  10.188   2.292   9.815  0.5002  0.1229 -2.8471
  525MOL0     H69238  10.278   2.434   9.777 -1.6778  0.0025 -1.5043
  525MOL0     H69239  10.051   2.458   9.742 -0.1289 -5.2222  0.3254
  525MOL0     H69240  10.092   2.579   9.871  1.7829  0.3558 -0.5807
  525MOL0     H69241   9.975   2.474  10.024  1.9240 -0.4064 -0.2957
  525MOL0     H69242   9.970   2.308   9.960 -2.8856 -0.1849  2.2438
  525MOL0     H69243   9.811   2.544   9.857  2.3971  0.4190 -0.4040
  525MOL0     H69244   9.828   2.389   9.781 -0.7054 -0.1507  0.3678
  525MOL0     H69245   9.705   2.429  10.061 -0.9046  1.3780  0.2522
  525MOL0     H69246   9.722   2.275   9.970  1.7813  0.2561 -0.7175
  525MOL0     H69247   9.575   2.366   9.788  2.7333  0.6411 -0.2093
  525MOL0     H69248   9.554   2.522   9.877  1.5775  1.2779  0.8493
  525MOL0     H69249   9.473   2.251   9.980  1.9790  0.5605 -1.4502
  525MOL0     H69250   9.448   2.407  10.058  1.7319 -1.5485  1.2828
  525MOL0     H69251   9.251   2.303   9.940  0.8558  1.4633  2.5079
  525MOL0     H69252   9.347   2.318   9.784 -0.9595  2.1010 -1.0643
  525MOL0     H69253   9.219   2.541  10.080  0.4148 -0.8007 -0.4249
  525MOL0     H69254   9.093   2.764  10.103 -2.2743  1.4102  0.1135
  525MOL0     H69255   8.986   2.761   9.966 -1.2896 -0.3593  2.4649
  525MOL0     H69256   9.075   2.949   9.870  0.0470 -0.8030 -0.1989
  525MOL0     H69257   9.213   2.973   9.971 -1.8153  2.4525  0.7103
  525MOL0     H69258   8.951   2.974  10.124  1.3207  2.7659  2.7240
  525MOL0     H69259   9.108   3.021  10.157  2.0110  0.1040 -1.3934
  525MOL0     H69260   8.890   3.177  10.041  0.1270 -0.9800  1.5103
  525MOL0     H69261   9.039   3.192   9.949 -1.0759 -0.0745 -0.2481
  525MOL0     H69262   9.245   3.252   9.972 -2.1805 -2.3500  1.0668
  525MOL0     H69263   9.456   3.315  10.016 -3.6381 -1.7841 -2.4109
  525MOL0     H69264   9.753   3.591  10.143  2.3423  2.6013 -2.2833
  525MOL0     H69265   9.971   3.678  10.226 -0.7104 -0.4183 -1.7106
  525MOL0     H69266  10.249   3.728  10.235  0.5959  1.1552 -1.2865
  525MOL0     H69267  10.206   3.633  10.098  0.3120  1.3214 -0.2484
  525MOL0     H69268  10.410   3.496  10.166 -0.8442 -0.6468  2.8615
  525MOL0     H69269  10.433   3.594  10.306  0.1459  0.8413 -0.1175
  525MOL0     H69270  10.477   3.792  10.212  1.9424  0.4768 -0.0979
  525MOL0     H69271  10.461   3.747  10.046  1.2305  1.7207  0.7005
  525MOL0     H69272  10.699   3.694  10.218 -1.4289  2.8743 -0.2559
  525MOL0     H69273  10.642   3.550  10.136  0.7010  0.3523  1.9459
  525MOL0     H69274  10.660   3.680   9.919 -1.5169 -3.5047  1.6690
  525MOL0     H69275  10.815   3.649  10.002  1.9571  2.1618 -3.7564
  525MOL0     H69276  10.815   3.866  10.091 -0.4197 -1.4744  0.7650
  525MOL0     H69277  10.647   3.908  10.051  1.3185  1.5044  1.2922
  525MOL0     H69278  10.845   3.849   9.836 -0.6506 -2.1854  3.1278
  525MOL0     H69279  10.687   3.929   9.817 -1.0224 -2.7925 -0.0180
  525MOL0     H69280  10.911   4.073   9.802 -1.1680  0.1093 -0.7524
  525MOL0     H69281  10.920   4.049   9.981 -0.7569  1.5907  0.3846
  525MOL0     H69282  10.134   3.284  10.225 -0.7260 -0.9513  1.6888
  525MOL0     H69283   9.904   3.196  10.197 -0.5212  0.7351  2.2157
  525MOL0     H69284   9.369   3.378  10.437  1.2427  0.1985 -0.9434
  525MOL0     H69285   9.139   3.326  10.386  0.8122  0.7030 -0.0737
  525MOL0     H69286  10.356   2.493  10.191 -0.6705  2.9711 -2.4634
  525MOL0     H69287  10.606   2.549  10.239  5.1804 -1.9591 -0.5198
  525MOL0     H69288  11.032   2.369  10.183 -1.1495  2.1342  1.6211
  525MOL0     H69289  11.277   2.402  10.213  0.2042  0.7319  1.0235
  525MOL0     H69290  11.450   2.600   9.874 -0.8238  0.3886 -0.7923
  525MOL0     H69291  11.405   2.424   9.903  3.1478 -2.8622  1.6905
  525MOL0     H69292  11.615   2.359   9.960 -2.9710 -0.7148  0.6449
  525MOL0     H69293  11.641   2.451   9.818  2.0050  3.0118  0.6340
  525MOL0     H69294  11.687   2.582  10.091  4.4240  0.6247  0.3932
  525MOL0     H69295  11.709   2.655   9.933 -0.3441  1.9061  2.6827
  525MOL0     H69296  11.916   2.527  10.064 -1.2572  0.7697 -0.0688
  525MOL0     H69297  11.832   2.381  10.008 -0.7860  0.5785  2.2524
  525MOL0     H69298  12.033   2.496   9.655  0.7096 -0.9996 -1.3562
  525MOL0     H69299  11.295   2.745   9.995  0.0744 -1.5675 -4.8810
  525MOL0     H69300  11.026   2.744   9.960 -0.7754  0.2332  0.6193
  526MOL0     O69301   9.082   2.394   7.278  0.3830 -0.6100 -0.1347
  526MOL0     C69302   9.166   2.445   7.201 -0.2927  0.1183  0.1154
  526MOL0     O69303   9.151   2.470   7.064  0.6950  0.1311 -0.0461
  526MOL0     C69304   9.033   2.463   7.000  0.9805  0.5260  0.4082
  526MOL0     C69305   9.037   2.403   6.876  0.5203  0.3029 -0.7944
  526MOL0     C69306   8.928   2.401   6.791  0.4233 -0.9771  0.5127
  526MOL0     C69307   8.804   2.433   6.850 -0.4533 -0.1279 -0.4583
  526MOL0     O69308   8.690   2.403   6.783 -0.4542 -0.0859  0.2419
  526MOL0     C69309   8.648   2.520   6.709  0.2939 -0.9310  0.3106
  526MOL0     C69310   8.623   2.484   6.566 -0.4091  1.0801  0.1463
  526MOL0     C69311   8.494   2.386   6.551 -0.0277 -0.2187 -1.4080
  526MOL0     C69312   8.469   2.335   6.404  0.0741  0.2562 -1.1527
  526MOL0     C69313   8.319   2.328   6.361 -0.5524  0.5263 -0.2090
  526MOL0     C69314   8.289   2.261   6.224 -0.5634  0.0323 -0.2769
  526MOL0     C69315   8.343   2.351   6.103 -0.6772  0.3784 -0.3264
  526MOL0     C69316   8.283   2.492   6.100  0.5134 -0.8637 -1.1196
  526MOL0     N69317   8.134   2.489   6.106 -0.4298 -0.3139  0.3792
  526MOL0     C69318   8.066   2.483   5.992 -0.3647  1.0355  0.3536
  526MOL0     C69319   7.935   2.507   6.037 -0.7196  0.9305 -0.0252
  526MOL0     C69320   7.812   2.508   5.946  0.8471 -0.0868  0.2947
  526MOL0     C69321   7.698   2.419   5.996 -0.5796  0.1417  0.2090
  526MOL0     C69322   7.580   2.408   5.894 -0.6551 -0.0044 -0.2609
  526MOL0     C69323   7.487   2.533   5.893 -0.8817 -0.0062 -0.4854
  526MOL0     O69324   7.361   2.497   5.823 -0.0251  0.8093  0.0896
  526MOL0     C69325   7.263   2.589   5.802  0.3686 -0.5659  0.4587
  526MOL0     C69326   7.147   2.546   5.737 -0.0203 -0.1554 -0.2590
  526MOL0     C69327   7.042   2.635   5.711  0.0486  0.5187  0.3366
  526MOL0     C69328   7.050   2.769   5.747  0.1121  0.3469 -0.1551
  526MOL0     C69329   6.938   2.868   5.711  0.5460  0.1104  0.5089
  526MOL0     O69330   6.962   2.991   5.744 -0.3069 -0.1905  0.0195
  526MOL0     C69331   6.896   3.103   5.692 -0.2865 -1.0351  0.1406
  526MOL0     C69332   6.907   3.221   5.772 -0.1953 -0.2818  0.0975
  526MOL0     C69333   6.843   3.341   5.731 -0.3562 -0.2037  0.2732
  526MOL0     C69334   6.760   3.351   5.619  0.1399 -0.0899  0.3754
  526MOL0     O69335   6.694   3.465   5.593 -0.3644  0.0152  0.1999
  526MOL0     C69336   6.696   3.575   5.681  0.1716 -0.6056  0.4003
  526MOL0     C69337   6.602   3.685   5.633  0.4481 -0.6730  0.0326
  526MOL0     C69338   6.455   3.640   5.634 -0.1655  0.3881  0.2289
  526MOL0     C69339   6.351   3.741   5.609 -0.2132 -0.2844  0.0255
  526MOL0     C69340   6.214   3.704   5.646 -0.1847  0.5295 -0.6025
  526MOL0     C69341   6.140   3.611   5.544 -0.0328  0.6093 -0.1025
  526MOL0     C69342   5.990   3.617   5.559  0.0097  0.1885  0.0035
  526MOL0     C69343   5.915   3.494   5.511 -0.2869 -0.4000 -0.3900
  526MOL0    Cl69344   5.742   3.521   5.536 -0.0438  0.2197  0.0148
  526MOL0     C69345   6.739   3.235   5.550 -0.6961 -0.4102  0.3502
  526MOL0     C69346   6.809   3.113   5.579 -1.0408 -0.1792 -0.4449
  526MOL0     O69347   6.847   2.827   5.631  0.7836 -0.1840  0.5602
  526MOL0     C69348   7.159   2.809   5.824  0.1400 -0.9839  0.0203
  526MOL0     C69349   7.266   2.727   5.836 -0.2946 -0.1403  0.4542
  526MOL0     N69350   7.926   2.512   6.170 -0.1063 -0.0706  0.5106
  526MOL0     N69351   8.053   2.515   6.209 -0.3243 -0.3017 -0.8208
  526MOL0     C69352   8.798   2.501   6.975 -0.8571 -0.0359 -0.6442
  526MOL0     C69353   8.913   2.517   7.055 -0.3114  0.1734  0.2499
  526MOL0     C69354   9.309   2.472   7.248  0.8781  0.1543  0.7929
  526MOL0     C69355   9.364   2.596   7.201 -0.5644 -0.1446 -0.1207
  526MOL0     C69356   9.496   2.624   7.238  0.0960 -1.2435  0.4139
  526MOL0     C69357   9.569   2.551   7.344  0.3300 -0.1487  0.6459
  526MOL0     O69358   9.699   2.588   7.376 -0.0458 -0.3895  0.7655
  526MOL0     C69359   9.789   2.490   7.405  0.5915 -0.9734 -0.1656
  526MOL0     C69360   9.802   2.466   7.559 -0.4854  1.0683  1.1674
  526MOL0     C69361   9.787   2.595   7.644  0.0362 -0.6160  0.1862
  526MOL0     C69362   9.783   2.567   7.793  0.2697 -0.1619 -1.0538
  526MOL0     C69363   9.637   2.528   7.812  1.6342 -0.0385  1.3927
  526MOL0     C69364   9.520   2.483   7.804 -0.1782  0.1630  0.2178
  526MOL0     C69365   9.495   2.438   7.407 -0.4081 -0.3790  0.4966
  526MOL0     C69366   9.370   2.404   7.355  0.0941 -0.6304  0.5637
  526MOL0     H69367   9.128   2.352   6.847  0.7623 -0.3661  1.0428
  526MOL0     H69368   8.921   2.347   6.697  0.1430 -0.0596 -0.0099
  526MOL0     H69369   8.727   2.596   6.704 -1.5330  1.0346 -0.5447
  526MOL0     H69370   8.565   2.562   6.765  3.5354 -0.0327  5.0377
  526MOL0     H69371   8.716   2.445   6.523  0.5065 -1.0272  3.6098
  526MOL0     H69372   8.590   2.576   6.516 -2.9605  0.8258  1.2059
  526MOL0     H69373   8.399   2.433   6.578 -0.2720 -0.4255 -1.8991
  526MOL0     H69374   8.504   2.310   6.630 -1.1383  1.9963  1.0204
  526MOL0     H69375   8.513   2.403   6.330 -3.1137 -0.1872 -3.6975
  526MOL0     H69376   8.519   2.240   6.386  3.5548  1.3243  1.6786
  526MOL0     H69377   8.291   2.433   6.362  0.2092  0.7896 -1.9827
  526MOL0     H69378   8.264   2.280   6.442  0.4909  1.2360  0.9573
  526MOL0     H69379   8.181   2.244   6.228 -0.3327 -1.3077  1.2816
  526MOL0     H69380   8.346   2.167   6.219 -2.5733 -1.3251  0.8641
  526MOL0     H69381   8.452   2.361   6.117 -0.8612  0.2671  1.3887
  526MOL0     H69382   8.320   2.299   6.010 -1.0988 -1.4956  0.7888
  526MOL0     H69383   8.321   2.549   6.015  0.7746 -1.1779 -1.2154
  526MOL0     H69384   8.314   2.546   6.190 -3.7020 -0.8554  0.5635
  526MOL0     H69385   8.107   2.460   5.894 -0.0129 -0.0506  0.7353
  526MOL0     H69386   7.840   2.470   5.847  0.8382 -0.7976  0.5667
  526MOL0     H69387   7.781   2.612   5.932 -0.7807 -0.5814 -0.0358
  526MOL0     H69388   7.665   2.451   6.095 -0.5448 -0.0235  0.2742
  526MOL0     H69389   7.738   2.318   6.010 -0.4853  0.2488  0.7562
  526MOL0     H69390   7.625   2.381   5.798 -0.3134 -3.0964  0.6307
  526MOL0     H69391   7.517   2.325   5.928  0.0374  0.1189  1.4365
  526MOL0     H69392   7.530   2.617   5.838  0.9471 -0.9334 -0.5372
  526MOL0     H69393   7.462   2.566   5.995  1.1707  0.8183 -0.2119
  526MOL0     H69394   7.126   2.442   5.713 -1.7674  0.8666 -3.8604
  526MOL0     H69395   6.964   2.605   5.642 -0.6694 -2.7164  2.3315
  526MOL0     H69396   6.974   3.220   5.857 -1.8449  3.0037  1.6206
  526MOL0     H69397   6.885   3.426   5.784  0.6407  0.4309 -1.4668
  526MOL0     H69398   6.795   3.608   5.715  0.4543 -0.0836 -0.8460
  526MOL0     H69399   6.647   3.531   5.767  0.1453  0.0661  0.7384
  526MOL0     H69400   6.637   3.716   5.534 -1.6051  1.8674  0.0046
  526MOL0     H69401   6.609   3.773   5.699 -0.7983 -1.4241  1.2302
  526MOL0     H69402   6.429   3.591   5.728 -2.7900  0.2757 -0.4726
  526MOL0     H69403   6.447   3.555   5.566 -2.9729  0.0449  0.8940
  526MOL0     H69404   6.374   3.827   5.671  0.5579 -1.4534  1.4066
  526MOL0     H69405   6.355   3.774   5.504 -0.4706  0.4809  0.2536
  526MOL0     H69406   6.154   3.794   5.662  0.3619  0.4613  2.4633
  526MOL0     H69407   6.218   3.654   5.743  0.3216 -0.7618 -1.2545
  526MOL0     H69408   6.178   3.510   5.556  2.7798  1.6772  0.8317
  526MOL0     H69409   6.162   3.646   5.443 -1.1784  1.1614 -0.1815
  526MOL0     H69410   5.977   3.623   5.667 -0.8129  4.3270 -0.1621
  526MOL0     H69411   5.940   3.709   5.528 -2.5808 -0.6736  1.3855
  526MOL0     H69412   5.944   3.405   5.567  0.5472 -2.0500 -3.2532
  526MOL0     H69413   5.927   3.470   5.405  1.5988 -0.3363 -0.2247
  526MOL0     H69414   6.681   3.235   5.459  0.4522  2.3860 -0.4902
  526MOL0     H69415   6.814   3.037   5.501 -1.5786  1.1511 -1.8243
  526MOL0     H69416   7.181   2.908   5.863 -2.9627 -0.6120  1.0542
  526MOL0     H69417   7.351   2.768   5.890  0.9504 -1.6722 -0.2393
  526MOL0     H69418   8.699   2.532   7.007  0.0783  2.2310  0.3238
  526MOL0     H69419   8.914   2.578   7.145 -2.6113  0.4641  0.1338
  526MOL0     H69420   9.320   2.648   7.117 -3.2208 -3.4467 -0.9568
  526MOL0     H69421   9.543   2.704   7.182  3.8550 -1.7053  2.5604
  526MOL0     H69422   9.881   2.542   7.375 -1.2627  2.3899 -0.4469
  526MOL0     H69423   9.782   2.393   7.356  1.8877 -0.2776 -1.8413
  526MOL0     H69424   9.732   2.387   7.587 -1.0792  1.4199  0.6785
  526MOL0     H69425   9.903   2.431   7.586 -1.7585 -0.4073  4.7248
  526MOL0     H69426   9.713   2.668   7.609  0.5848  0.7491  1.7548
  526MOL0     H69427   9.878   2.654   7.632 -3.1638  4.6047 -1.9893
  526MOL0     H69428   9.844   2.482   7.827 -1.3836 -0.9597  0.0563
  526MOL0     H69429   9.805   2.654   7.856  0.8923 -1.0925  0.0650
  526MOL0     H69430   9.420   2.444   7.799  0.3712 -1.1985 -1.4890
  526MOL0     H69431   9.527   2.384   7.495 -1.6282  0.3851  1.4541
  526MOL0     H69432   9.332   2.309   7.392 -0.8270 -1.5360 -2.4202
  527MOL0     O69433   4.662   1.287   8.953  0.8038  0.0388  0.0615
  527MOL0     C69434   4.701   1.397   8.908  0.6432  0.0282  0.2242
  527MOL0     O69435   4.618   1.502   8.872  1.0383 -0.3105 -0.5342
  527MOL0     C69436   4.484   1.484   8.872  1.2604  0.0267  0.9629
  527MOL0     C69437   4.429   1.381   8.789  0.4694 -0.5496  1.2509
  527MOL0     C69438   4.283   1.372   8.768 -0.7672  0.1943  0.2957
  527MOL0     C69439   4.199   1.471   8.825 -0.0742  0.2863  0.5038
  527MOL0     O69440   4.068   1.495   8.785  0.1431 -0.6917 -0.1694
  527MOL0     C69441   3.961   1.477   8.882  0.7759  0.8593  0.5314
  527MOL0     C69442   3.829   1.479   8.803  0.3804 -0.2748  0.7562
  527MOL0     C69443   3.697   1.476   8.890 -0.6073 -0.4485 -0.0478
  527MOL0     C69444   3.566   1.445   8.814 -1.1211  0.2157  0.1696
  527MOL0     C69445   3.459   1.384   8.909  0.4358 -0.1723  0.2054
  527MOL0     C69446   3.327   1.352   8.832 -0.0729 -0.6435  0.1208
  527MOL0     C69447   3.269   1.484   8.763 -0.0961  0.0662  0.2263
  527MOL0     C69448   3.124   1.451   8.707 -0.1157  0.2815 -0.3327
  527MOL0     N69449   3.041   1.398   8.810  0.4104 -0.1686  0.5734
  527MOL0     C69450   2.941   1.457   8.879  0.9442  0.6751  0.5713
  527MOL0     C69451   2.851   1.354   8.905 -0.8757  0.4225 -0.2764
  527MOL0     C69452   2.709   1.346   8.958 -0.0245  0.5113 -0.1672
  527MOL0     C69453   2.699   1.299   9.114  0.7030 -0.1077 -0.2959
  527MOL0     C69454   2.569   1.338   9.176 -0.3706 -0.0667 -0.5755
  527MOL0     C69455   2.455   1.237   9.132 -0.9672 -0.1169  0.0683
  527MOL0     O69456   2.331   1.294   9.177 -0.2213  0.3981  0.3664
  527MOL0     C69457   2.216   1.229   9.154 -0.5312  0.8865  0.3291
  527MOL0     C69458   2.194   1.163   9.036 -0.2819  0.0192  0.6255
  527MOL0     C69459   2.060   1.118   9.000 -0.4769 -0.8273  0.7284
  527MOL0     C69460   1.950   1.135   9.092 -1.0156  1.0005  1.1172
  527MOL0     C69461   1.817   1.071   9.062 -0.5131  0.3518  0.8323
  527MOL0     O69462   1.744   1.001   9.157 -0.2613  0.4044  0.1680
  527MOL0     C69463   1.611   0.987   9.132  0.8452 -0.7722  0.7701
  527MOL0     C69464   1.535   1.089   9.072  0.2441 -0.7348 -0.2625
  527MOL0     C69465   1.404   1.065   9.034 -0.0356  0.6421 -0.6206
  527MOL0     C69466   1.342   0.946   9.061 -0.3792 -0.2052  0.1392
  527MOL0     O69467   1.210   0.929   9.023 -0.0615 -0.1904 -0.6601
  527MOL0     C69468   1.140   0.802   9.034  0.0244  0.2437  0.0889
  527MOL0     C69469   1.069   0.787   9.173 -0.3807 -1.4331  0.6682
  527MOL0     C69470   0.966   0.685   9.173 -0.2719  0.6142  0.7096
  527MOL0     C69471   0.907   0.672   9.307  0.1378 -0.6583  0.2912
  527MOL0     C69472   0.826   0.541   9.309  0.1283  0.1368 -0.5339
  527MOL0     C69473   0.692   0.556   9.374 -0.1633 -0.0360  0.3012
  527MOL0     C69474   0.714   0.566   9.528  0.9545  0.3301  0.0574
  527MOL0     C69475   0.579   0.588   9.591  0.6857  0.2648 -0.1998
  527MOL0    Cl69476   0.520   0.433   9.647  0.2468  0.2893  0.1402
  527MOL0     C69477   1.415   0.845   9.134 -0.3522  0.4242  1.0972
  527MOL0     C69478   1.546   0.863   9.161 -0.2524 -0.9393 -0.3572
  527MOL0     O69479   1.785   1.086   8.941  0.4063 -0.4583  0.5435
  527MOL0     C69480   1.984   1.192   9.215 -0.7778  0.1194  0.2358
  527MOL0     C69481   2.110   1.242   9.245  0.2986 -0.0902 -0.5145
  527MOL0     N69482   2.906   1.238   8.862 -0.1003 -0.5848 -0.1674
  527MOL0     N69483   3.013   1.261   8.809  0.4962  0.0988 -0.0011
  527MOL0     C69484   4.260   1.567   8.911  0.3208 -0.1050 -0.7237
  527MOL0     C69485   4.397   1.571   8.936 -0.8002  0.0526  0.1933
  527MOL0     C69486   4.843   1.428   8.928 -0.1328  0.1037 -0.2508
  527MOL0     C69487   4.914   1.371   9.035 -0.5574  0.1995 -0.8249
  527MOL0     C69488   5.046   1.404   9.074 -0.1853  1.0770 -0.6020
  527MOL0     C69489   5.105   1.519   9.009 -0.3952 -0.7718  0.0479
  527MOL0     O69490   5.226   1.590   9.037 -0.6317 -0.1862 -0.3792
  527MOL0     C69491   5.325   1.527   9.110 -0.1387  0.0193 -0.5273
  527MOL0     C69492   5.405   1.430   9.029 -0.7048 -0.5039  0.2956
  527MOL0     C69493   5.511   1.364   9.117 -0.0955  0.3331  0.1498
  527MOL0     C69494   5.593   1.261   9.032  0.4630 -0.3687  0.5899
  527MOL0     C69495   5.687   1.194   9.124 -0.5209 -0.0083 -0.8300
  527MOL0     C69496   5.783   1.143   9.193  0.6537  0.1280 -0.5600
  527MOL0     C69497   5.040   1.580   8.901  0.4408  0.1830 -0.4652
  527MOL0     C69498   4.907   1.535   8.862 -0.4112  0.5181 -0.6454
  527MOL0     H69499   4.494   1.306   8.745  0.7608  0.7621 -0.6647
  527MOL0     H69500   4.230   1.314   8.693 -0.1394  0.0860 -0.0769
  527MOL0     H69501   3.954   1.547   8.965  0.8637 -0.0543  1.3195
  527MOL0     H69502   3.964   1.376   8.923 -0.8422 -0.0901 -1.4597
  527MOL0     H69503   3.824   1.406   8.722 -1.1155  0.1385  0.4630
  527MOL0     H69504   3.817   1.571   8.745 -0.1785 -0.1273  1.0975
  527MOL0     H69505   3.697   1.567   8.951 -4.0998 -1.6349  2.0246
  527MOL0     H69506   3.718   1.400   8.966 -2.1925 -0.0877  0.8127
  527MOL0     H69507   3.541   1.543   8.772  0.1877  0.6242  0.2924
  527MOL0     H69508   3.589   1.371   8.736  1.4308 -1.4852  2.3728
  527MOL0     H69509   3.427   1.459   8.981 -2.6206 -2.2790  1.2536
  527MOL0     H69510   3.497   1.293   8.958 -2.2470 -1.4542  0.1013
  527MOL0     H69511   3.259   1.312   8.907 -1.0052  0.0278 -0.3416
  527MOL0     H69512   3.332   1.280   8.749  1.2729  1.0959 -1.4017
  527MOL0     H69513   3.256   1.570   8.831 -2.6644  0.4563 -0.6492
  527MOL0     H69514   3.335   1.498   8.677 -1.4115 -2.2984 -1.2704
  527MOL0     H69515   3.138   1.388   8.619 -2.6238 -2.3542  0.9834
  527MOL0     H69516   3.081   1.546   8.672  1.0157  0.6417 -0.7687
  527MOL0     H69517   2.913   1.561   8.886 -1.4304 -0.0025  2.2000
  527MOL0     H69518   2.653   1.276   8.894  0.5353 -0.4354  0.3567
  527MOL0     H69519   2.660   1.444   8.953 -0.9547  0.0389 -0.6749
  527MOL0     H69520   2.775   1.363   9.161  1.8059 -0.0528 -2.0495
  527MOL0     H69521   2.733   1.196   9.127 -1.0386 -0.6038  0.5666
  527MOL0     H69522   2.587   1.326   9.283 -1.4580  1.4701 -0.1856
  527MOL0     H69523   2.557   1.445   9.158 -0.6301  0.1743  0.9464
  527MOL0     H69524   2.475   1.140   9.180  2.4037  0.8871  0.9390
  527MOL0     H69525   2.456   1.225   9.024  1.3879 -1.0774  0.1401
  527MOL0     H69526   2.271   1.149   8.961 -0.8151 -0.8680  0.2278
  527MOL0     H69527   2.040   1.052   8.915 -0.2669 -0.7649  0.6305
  527MOL0     H69528   1.568   1.192   9.057 -1.7940 -0.2375 -1.9124
  527MOL0     H69529   1.340   1.133   8.978 -2.5429 -0.6712  0.4954
  527MOL0     H69530   1.200   0.713   9.020  0.7584  0.8675 -0.8734
  527MOL0     H69531   1.066   0.818   8.955  0.2174  1.2128  0.0835
  527MOL0     H69532   1.015   0.880   9.191  1.2073  0.1448 -2.0492
  527MOL0     H69533   1.142   0.779   9.254 -0.2580  1.3003  0.9219
  527MOL0     H69534   1.005   0.590   9.135 -3.0306  0.8366 -3.2496
  527MOL0     H69535   0.891   0.699   9.095 -0.6796 -4.2452 -0.0982
  527MOL0     H69536   0.985   0.672   9.384 -0.7031  3.6057  1.3775
  527MOL0     H69537   0.838   0.753   9.330 -0.2952 -0.6476 -0.9575
  527MOL0     H69538   0.881   0.458   9.353 -0.0020  1.1304  1.6200
  527MOL0     H69539   0.812   0.504   9.207 -2.1844 -0.5682 -0.0318
  527MOL0     H69540   0.635   0.464   9.357  0.1359 -0.5053  1.6743
  527MOL0     H69541   0.649   0.648   9.334  1.3756  0.6283  0.1028
  527MOL0     H69542   0.768   0.476   9.557 -0.5754 -0.7782 -0.3967
  527MOL0     H69543   0.773   0.655   9.553  0.2889  1.2727 -1.5825
  527MOL0     H69544   0.503   0.623   9.520 -0.9675 -0.0643  1.3384
  527MOL0     H69545   0.579   0.661   9.672 -1.7793  2.2807 -1.8610
  527MOL0     H69546   1.368   0.752   9.164  0.3364  0.1204  1.2457
  527MOL0     H69547   1.600   0.786   9.215  0.6753 -2.6674 -3.4696
  527MOL0     H69548   1.900   1.200   9.284 -0.8324  4.3056 -0.0574
  527MOL0     H69549   2.133   1.289   9.341  1.8460  0.4684 -1.1275
  527MOL0     H69550   4.202   1.639   8.969  0.6473 -1.9575  2.1374
  527MOL0     H69551   4.451   1.650   8.987 -0.5759 -0.8786  1.4524
  527MOL0     H69552   4.869   1.293   9.096  1.6931 -0.2491  0.3830
  527MOL0     H69553   5.081   1.352   9.162 -2.3593 -1.0509 -0.8641
  527MOL0     H69554   5.279   1.484   9.199  0.2416  0.3971 -0.1468
  527MOL0     H69555   5.395   1.599   9.153 -0.1241 -1.4353  2.0972
  527MOL0     H69556   5.340   1.361   8.975 -0.5132 -1.8348  1.7086
  527MOL0     H69557   5.454   1.474   8.941  0.1796 -1.0912  0.4762
  527MOL0     H69558   5.483   1.306   9.205 -1.2213  0.2067 -0.2797
  527MOL0     H69559   5.589   1.440   9.132  0.3556  0.5710 -2.8483
  527MOL0     H69560   5.526   1.188   8.984 -1.4878  2.2906 -1.0083
  527MOL0     H69561   5.641   1.317   8.951 -0.1962 -1.8064 -0.8582
  527MOL0     H69562   5.851   1.083   9.249 -1.0613 -0.7420  0.6511
  527MOL0     H69563   5.074   1.664   8.841 -2.6341  0.9316 -1.3506
  527MOL0     H69564   4.847   1.597   8.796 -0.1669  0.3981 -0.9826
  528MOL0     O69565   0.794   5.976   0.487  0.6615 -0.3529 -0.0608
  528MOL0     C69566   0.834   5.901   0.577 -0.1179 -0.9408  0.5658
  528MOL0     O69567   0.917   5.937   0.677 -0.7830  0.2994  0.1906
  528MOL0     C69568   0.935   6.063   0.721  0.4147  1.4625 -0.2421
  528MOL0     C69569   0.960   6.166   0.633 -0.0741 -0.4506 -0.1721
  528MOL0     C69570   0.943   6.299   0.674  0.2191 -0.5440 -0.7457
  528MOL0     C69571   0.921   6.333   0.809  0.1412 -0.8412  0.0428
  528MOL0     O69572   0.899   6.457   0.859  0.3853  0.3317 -0.7263
  528MOL0     C69573   1.012   6.516   0.919 -0.0338 -0.0232  0.4507
  528MOL0     C69574   0.991   6.663   0.957 -0.7166  0.6528 -0.0571
  528MOL0     C69575   1.008   6.758   0.838 -0.2439  0.3875  0.1170
  528MOL0     C69576   1.051   6.894   0.879 -0.7433 -0.3611 -0.4474
  528MOL0     C69577   0.944   6.964   0.968 -0.2178  0.3593 -0.3131
  528MOL0     C69578   1.002   7.056   1.073 -0.0825  0.6655  0.3689
  528MOL0     C69579   0.918   7.144   1.157  0.1507  0.2622 -0.5376
  528MOL0     C69580   0.795   7.076   1.194 -0.0913  1.2214  0.8648
  528MOL0     N69581   0.725   7.174   1.290 -0.8251  0.1073  0.2831
  528MOL0     C69582   0.636   7.276   1.262  0.7904  0.0250 -0.1022
  528MOL0     C69583   0.584   7.311   1.385  0.8598  0.2542  1.0691
  528MOL0     C69584   0.471   7.412   1.401 -0.3718 -0.4934 -0.2886
  528MOL0     C69585   0.353   7.348   1.460  0.1978  0.4561 -1.2244
  528MOL0     C69586   0.280   7.244   1.375  0.2857  0.8722  0.5930
  528MOL0     C69587   0.162   7.189   1.448  0.6651 -0.8152 -0.6797
  528MOL0     O69588   0.100   7.087   1.370  0.0816  0.0818 -0.2155
  528MOL0     C69589   0.026   6.992   1.440  1.3321 -0.1395 -0.8017
  528MOL0     C69590  -0.012   7.011   1.579  0.0006 -0.5010 -0.6730
  528MOL0     C69591  -0.086   6.906   1.645 -0.4902 -0.5819  0.8820
  528MOL0     C69592  -0.126   6.788   1.585 -0.4066 -0.1300 -0.7447
  528MOL0     C69593  -0.190   6.684   1.666 -0.1500  0.1344 -1.3261
  528MOL0     O69594  -0.248   6.718   1.787  0.2026 -0.5379  0.1209
  528MOL0     C69595  -0.292   6.628   1.887  0.6185 -0.3114 -0.4337
  528MOL0     C69596  -0.243   6.493   1.903  0.8526  0.0545 -0.2025
  528MOL0     C69597  -0.297   6.418   2.004  0.1368 -1.1248  1.0054
  528MOL0     C69598  -0.391   6.461   2.098 -1.0519 -0.0196  1.1568
  528MOL0     O69599  -0.445   6.377   2.187  0.6788  0.2369  0.3981
  528MOL0     C69600  -0.493   6.419   2.318  0.2776  0.0081 -0.7432
  528MOL0     C69601  -0.494   6.282   2.409 -0.0328 -0.6644  0.5564
  528MOL0     C69602  -0.550   6.312   2.548 -1.0294 -1.1276  0.1887
  528MOL0     C69603  -0.700   6.326   2.561 -0.5332  0.1497 -0.9329
  528MOL0     C69604  -0.737   6.346   2.710  2.0898  0.4054  0.1141
  528MOL0     C69605  -0.883   6.374   2.745  0.9122  1.3013 -0.0721
  528MOL0     C69606  -0.986   6.260   2.753  0.0623  0.4300  0.0713
  528MOL0     C69607  -0.966   6.150   2.851 -0.6896 -0.0532  1.2069
  528MOL0    Cl69608  -1.103   6.060   2.917 -0.7173  0.3178  0.0475
  528MOL0     C69609  -0.430   6.597   2.079  0.5542 -0.2557 -0.1557
  528MOL0     C69610  -0.384   6.682   1.979 -1.3711 -0.0345 -0.5268
  528MOL0     O69611  -0.217   6.579   1.613  0.4302 -0.1458  0.0218
  528MOL0     C69612  -0.080   6.778   1.449 -0.7886  0.4368 -0.5209
  528MOL0     C69613  -0.014   6.879   1.379 -0.9536  0.1378 -0.7937
  528MOL0     N69614   0.657   7.256   1.486 -0.8742 -0.2456 -0.4150
  528MOL0     N69615   0.745   7.178   1.426  0.3987 -1.0266 -0.2208
  528MOL0     C69616   0.915   6.224   0.897  0.4849  0.0388  0.3572
  528MOL0     C69617   0.926   6.093   0.853  0.1751 -0.4296 -0.2091
  528MOL0     C69618   0.794   5.759   0.561  0.4840 -0.1140  0.5567
  528MOL0     C69619   0.711   5.714   0.459  0.1054 -0.7190  0.2112
  528MOL0     C69620   0.671   5.580   0.459 -0.5323  0.7880 -0.5805
  528MOL0     C69621   0.702   5.491   0.573 -0.0640 -0.3167 -0.1497
  528MOL0     O69622   0.674   5.360   0.578 -0.2660 -0.0701  0.3335
  528MOL0     C69623   0.536   5.343   0.612 -0.8426 -0.1159  0.2369
  528MOL0     C69624   0.484   5.216   0.548 -0.5978  0.1213  0.3538
  528MOL0     C69625   0.551   5.093   0.616 -0.2374  0.3524 -0.9984
  528MOL0     C69626   0.472   5.035   0.731 -0.6638  0.6036 -0.6838
  528MOL0     C69627   0.538   4.932   0.803  0.3785  0.3704 -0.7738
  528MOL0     C69628   0.617   4.864   0.871 -0.1867 -0.5207 -0.0676
  528MOL0     C69629   0.785   5.539   0.672 -0.6491 -0.5124 -0.2243
  528MOL0     C69630   0.820   5.674   0.672 -1.1018 -0.8725  0.6948
  528MOL0     H69631   0.962   6.132   0.530 -2.2272 -4.2049  0.8476
  528MOL0     H69632   0.964   6.376   0.601  2.3912 -0.6314 -0.3027
  528MOL0     H69633   1.092   6.511   0.845  0.1819 -2.2796  0.7645
  528MOL0     H69634   1.043   6.455   1.005  0.2215  0.9545  1.0772
  528MOL0     H69635   1.072   6.671   1.030  1.5443 -0.6145 -2.2437
  528MOL0     H69636   0.901   6.682   1.015  0.3615  1.8865  1.2999
  528MOL0     H69637   0.917   6.765   0.778 -0.6724 -1.3071  0.5309
  528MOL0     H69638   1.080   6.711   0.769 -0.3330  0.6429 -0.1552
  528MOL0     H69639   1.149   6.882   0.926  1.0092 -1.9645 -4.0404
  528MOL0     H69640   1.056   6.954   0.787  0.9801  1.8280  0.9712
  528MOL0     H69641   0.886   6.888   1.022 -2.8669  1.4553 -1.4345
  528MOL0     H69642   0.881   7.011   0.892 -2.5408 -2.7749 -0.5271
  528MOL0     H69643   1.071   7.116   1.013 -1.7747 -0.7177 -3.3101
  528MOL0     H69644   1.054   6.988   1.141 -2.8564 -1.2251  0.7635
  528MOL0     H69645   0.966   7.164   1.253 -1.9886  3.0290  0.1028
  528MOL0     H69646   0.896   7.239   1.109  0.6810 -0.0680 -1.4521
  528MOL0     H69647   0.818   6.981   1.242 -0.1093  0.2185 -0.9883
  528MOL0     H69648   0.740   7.057   1.101  2.9755  0.6987 -0.9662
  528MOL0     H69649   0.600   7.308   1.164  3.4963  0.5216 -1.0104
  528MOL0     H69650   0.443   7.465   1.309 -1.2979  3.3011  1.9540
  528MOL0     H69651   0.516   7.488   1.466  4.8310 -1.2365 -2.4658
  528MOL0     H69652   0.275   7.424   1.471  0.5009  0.3654  3.2002
  528MOL0     H69653   0.376   7.313   1.561  2.0985  4.3399 -0.1079
  528MOL0     H69654   0.240   7.292   1.286 -1.5921  0.8728  1.3789
  528MOL0     H69655   0.347   7.162   1.348 -1.8568 -1.7868  2.5921
  528MOL0     H69656   0.086   7.265   1.469 -0.2288 -2.1484  1.1784
  528MOL0     H69657   0.190   7.151   1.547  0.7565  2.7328  0.8020
  528MOL0     H69658   0.023   7.090   1.645  1.3982 -3.3508  2.2804
  528MOL0     H69659  -0.109   6.932   1.748  2.3676  0.1854  1.4160
  528MOL0     H69660  -0.164   6.461   1.836 -0.9055 -0.9101 -1.9209
  528MOL0     H69661  -0.241   6.325   2.003  2.0816  0.0015  0.1475
  528MOL0     H69662  -0.595   6.457   2.328 -0.6571 -2.7173  1.4625
  528MOL0     H69663  -0.434   6.502   2.357 -0.3813  0.3846 -0.5293
  528MOL0     H69664  -0.392   6.247   2.423  0.2327 -0.8743 -1.6919
  528MOL0     H69665  -0.556   6.216   2.348 -0.8951 -0.5376  1.2778
  528MOL0     H69666  -0.501   6.405   2.578 -0.7095 -0.1146 -3.1122
  528MOL0     H69667  -0.516   6.236   2.619 -2.1561 -2.0064 -0.1885
  528MOL0     H69668  -0.737   6.410   2.501 -1.4674  0.5250  0.1356
  528MOL0     H69669  -0.744   6.235   2.518  0.0536 -2.0659  2.7806
  528MOL0     H69670  -0.689   6.435   2.751  2.1088  2.1436 -3.2835
  528MOL0     H69671  -0.703   6.255   2.760  1.3795  0.0707  0.0055
  528MOL0     H69672  -0.924   6.452   2.681 -1.5881  0.3814  0.3024
  528MOL0     H69673  -0.890   6.401   2.851 -0.0099 -0.1553  0.2817
  528MOL0     H69674  -1.064   6.327   2.789 -0.6493 -0.5848  0.4700
  528MOL0     H69675  -1.016   6.221   2.655 -4.2475 -2.3652  2.2272
  528MOL0     H69676  -0.917   6.195   2.938  2.6318  1.6772 -1.3131
  528MOL0     H69677  -0.897   6.077   2.808 -3.5211 -2.2284  0.0147
  528MOL0     H69678  -0.503   6.622   2.155  2.2405  0.1633  1.4043
  528MOL0     H69679  -0.417   6.785   1.976  0.9845  0.8520  1.3749
  528MOL0     H69680  -0.110   6.685   1.404 -1.7252 -0.2800  1.4652
  528MOL0     H69681   0.012   6.856   1.276  0.1444 -0.0688 -0.4852
  528MOL0     H69682   0.915   6.248   1.003 -2.6919 -0.1888  0.4931
  528MOL0     H69683   0.923   6.010   0.923  1.2549 -2.0120 -1.9304
  528MOL0     H69684   0.687   5.780   0.376 -3.3116 -1.3603  0.5276
  528MOL0     H69685   0.639   5.548   0.361 -0.2419 -2.4389  0.2789
  528MOL0     H69686   0.473   5.424   0.576 -0.0876  1.5422  2.4303
  528MOL0     H69687   0.519   5.339   0.720 -0.2177 -0.0322  0.3408
  528MOL0     H69688   0.375   5.216   0.562 -0.7931 -1.4158 -0.9610
  528MOL0     H69689   0.490   5.215   0.439 -6.5243 -2.5273 -0.3421
  528MOL0     H69690   0.649   5.116   0.657 -0.9834 -1.3574  2.0914
  528MOL0     H69691   0.565   5.015   0.541  0.5164  2.7221 -3.4666
  528MOL0     H69692   0.467   5.125   0.792  1.0738 -0.3660  1.0349
  528MOL0     H69693   0.375   4.995   0.701 -0.5170 -0.5721  0.3279
  528MOL0     H69694   0.686   4.826   0.944 -0.7871  0.0804  0.8205
  528MOL0     H69695   0.805   5.479   0.760  0.4818  2.6681  1.8464
  528MOL0     H69696   0.873   5.704   0.762  0.5606 -2.4335  0.2998
  529MOL0     O69697   2.759   5.577   2.797 -0.7400  0.7421 -0.4429
  529MOL0     C69698   2.812   5.489   2.727  0.4262 -0.3710 -1.0151
  529MOL0     O69699   2.745   5.420   2.630 -0.5598  0.8829 -0.2081
  529MOL0     C69700   2.623   5.446   2.585 -0.2605  0.2317  0.9046
  529MOL0     C69701   2.516   5.510   2.638  0.7174  0.8548 -0.2411
  529MOL0     C69702   2.392   5.529   2.583 -0.5531 -0.2505 -0.4890
  529MOL0     C69703   2.368   5.468   2.459 -0.6210 -0.0218  0.0117
  529MOL0     O69704   2.245   5.480   2.395 -0.5632  0.5642 -0.4763
  529MOL0     C69705   2.136   5.528   2.475  0.8181 -0.5228 -0.1731
  529MOL0     C69706   1.998   5.506   2.404  0.3115 -1.0084 -0.7560
  529MOL0     C69707   1.881   5.503   2.506  0.4777  0.1048 -0.5023
  529MOL0     C69708   1.861   5.628   2.598  0.0751 -0.0109  1.3504
  529MOL0     C69709   1.758   5.600   2.712  0.1048 -0.6222 -0.2010
  529MOL0     C69710   1.698   5.722   2.785 -0.2315  0.1288 -0.2688
  529MOL0     C69711   1.604   5.800   2.707 -0.0359  0.0891  0.7046
  529MOL0     C69712   1.546   5.911   2.794  0.0086  0.8959  0.4991
  529MOL0     N69713   1.413   5.940   2.758 -0.6541  0.8021  0.4121
  529MOL0     C69714   1.311   5.843   2.742  0.8844 -0.0526  0.6888
  529MOL0     C69715   1.213   5.910   2.680 -0.1794  0.2592 -0.1972
  529MOL0     C69716   1.095   5.836   2.628  0.1135  0.4505  1.4612
  529MOL0     C69717   0.982   5.845   2.724 -0.2368  0.2766 -0.0185
  529MOL0     C69718   0.866   5.758   2.667  0.0198  0.0918  0.5698
  529MOL0     C69719   0.736   5.772   2.749  0.9658  0.6947  0.2700
  529MOL0     O69720   0.677   5.901   2.754 -0.5474  0.2282 -0.0033
  529MOL0     C69721   0.546   5.926   2.788 -0.3587 -0.0036  0.9883
  529MOL0     C69722   0.493   6.050   2.759  0.5711  0.1313  0.2499
  529MOL0     C69723   0.364   6.083   2.805  0.5925  0.9096  1.1448
  529MOL0     C69724   0.295   5.992   2.885  0.0297  0.7252 -0.5692
  529MOL0     C69725   0.161   6.026   2.926 -0.1796  0.6987 -1.0248
  529MOL0     O69726   0.095   5.933   3.000 -0.1392  0.6634  0.3532
  529MOL0     C69727  -0.041   5.947   2.997  0.6143 -0.7333 -0.2852
  529MOL0     C69728  -0.112   5.948   3.126  0.5438  0.5435 -0.1897
  529MOL0     C69729  -0.251   5.961   3.142 -0.5073  0.7190 -0.3208
  529MOL0     C69730  -0.327   5.976   3.019 -0.6024 -0.0375 -0.2716
  529MOL0     O69731  -0.458   5.999   3.008  0.0996 -0.2107 -0.7252
  529MOL0     C69732  -0.531   5.886   3.055 -0.1179  0.0267  0.1476
  529MOL0     C69733  -0.677   5.901   2.995  0.0923 -0.0811 -0.0396
  529MOL0     C69734  -0.772   5.790   3.039 -0.4172  0.2514  0.5200
  529MOL0     C69735  -0.816   5.825   3.182  0.5149 -0.1389 -0.2057
  529MOL0     C69736  -0.949   5.749   3.239 -0.4019  0.1042  0.1289
  529MOL0     C69737  -0.944   5.593   3.223 -0.2372  0.2471  0.1990
  529MOL0     C69738  -1.020   5.524   3.335 -0.1347 -0.5616  0.0702
  529MOL0     C69739  -1.166   5.573   3.341  0.3624  0.1873 -0.3925
  529MOL0    Cl69740  -1.198   5.664   3.486  0.3881  0.0134 -0.2669
  529MOL0     C69741  -0.257   5.990   2.898  0.2932 -0.5002  0.1450
  529MOL0     C69742  -0.119   5.965   2.879  0.0767  0.1021  0.6871
  529MOL0     O69743   0.112   6.140   2.900 -0.4077  0.2058  0.2015
  529MOL0     C69744   0.354   5.869   2.917 -0.3936  0.8830  0.2485
  529MOL0     C69745   0.481   5.837   2.871  0.3541 -0.2486  0.3455
  529MOL0     N69746   1.257   6.037   2.663 -0.5372  0.5254 -0.5659
  529MOL0     N69747   1.373   6.057   2.717  0.8728 -0.0747  0.3176
  529MOL0     C69748   2.475   5.390   2.397 -0.0704 -0.1395 -0.5278
  529MOL0     C69749   2.598   5.375   2.464 -0.1501 -0.9726  0.1724
  529MOL0     C69750   2.950   5.458   2.749 -0.5171  0.0532 -0.8649
  529MOL0     C69751   3.012   5.351   2.681  0.0956  0.0350 -0.6709
  529MOL0     C69752   3.150   5.328   2.695 -0.1974  0.5769 -0.6669
  529MOL0     C69753   3.232   5.425   2.766  0.0164  0.3068  0.3892
  529MOL0     O69754   3.367   5.406   2.777 -0.2221  0.7719  0.0094
  529MOL0     C69755   3.393   5.335   2.896  0.5420 -0.3176  0.2760
  529MOL0     C69756   3.534   5.292   2.891 -0.6615  0.3094 -0.3845
  529MOL0     C69757   3.575   5.183   2.787 -0.8281  0.2929 -0.1171
  529MOL0     C69758   3.730   5.177   2.766 -0.1622 -0.2477  0.0304
  529MOL0     C69759   3.801   5.094   2.861 -0.1590  0.3219  0.1241
  529MOL0     C69760   3.876   5.027   2.933  0.8367 -0.4255  0.8425
  529MOL0     C69761   3.161   5.517   2.839 -0.7275 -0.3052 -0.5169
  529MOL0     C69762   3.030   5.538   2.834 -0.0725 -0.1963 -0.0973
  529MOL0     H69763   2.533   5.566   2.730  2.9231 -1.8291  1.1561
  529MOL0     H69764   2.314   5.588   2.629 -3.2295 -0.4092 -4.3322
  529MOL0     H69765   2.145   5.637   2.482 -0.8942 -0.4270  1.1768
  529MOL0     H69766   2.133   5.481   2.574  0.8652  1.5856  0.8883
  529MOL0     H69767   2.002   5.411   2.349 -3.3260 -0.4725 -2.1991
  529MOL0     H69768   1.981   5.583   2.329  4.2359  1.2477  0.3809
  529MOL0     H69769   1.892   5.411   2.565 -2.5950  1.1134  1.8595
  529MOL0     H69770   1.785   5.493   2.455 -0.1835  2.8490  0.0955
  529MOL0     H69771   1.959   5.653   2.640  0.3800  0.5665  0.3402
  529MOL0     H69772   1.823   5.712   2.540  2.9913  0.7711  0.3627
  529MOL0     H69773   1.810   5.547   2.792 -0.4079 -2.3174 -0.9418
  529MOL0     H69774   1.674   5.535   2.685 -2.1574  0.6948  2.9619
  529MOL0     H69775   1.769   5.800   2.814 -1.0975  0.7261  0.3068
  529MOL0     H69776   1.651   5.692   2.879 -0.2289 -0.9749 -0.6099
  529MOL0     H69777   1.660   5.840   2.622 -1.0118  0.8836  0.4197
  529MOL0     H69778   1.529   5.729   2.672  1.2763 -0.5901 -0.8512
  529MOL0     H69779   1.603   6.005   2.792  2.3236 -0.4331 -0.8006
  529MOL0     H69780   1.558   5.873   2.895 -3.3917 -1.5414  0.1552
  529MOL0     H69781   1.312   5.738   2.767 -0.3379  0.2979  2.3863
  529MOL0     H69782   1.116   5.731   2.603 -2.2026  0.6042 -1.8741
  529MOL0     H69783   1.067   5.891   2.537  2.7363  2.0077  1.4838
  529MOL0     H69784   0.954   5.948   2.747 -0.1666  1.0435 -2.9413
  529MOL0     H69785   1.012   5.783   2.809  0.7814  0.0971 -0.4941
  529MOL0     H69786   0.823   5.772   2.567 -1.5312  0.8368  1.3117
  529MOL0     H69787   0.908   5.657   2.659  0.3564  0.3217 -0.8121
  529MOL0     H69788   0.757   5.729   2.848  0.6859 -1.2621 -0.4776
  529MOL0     H69789   0.670   5.697   2.706 -0.5124  1.1206  1.7076
  529MOL0     H69790   0.553   6.122   2.703 -1.7587  1.8559 -0.1907
  529MOL0     H69791   0.329   6.182   2.775 -2.1229  0.6783  3.1665
  529MOL0     H69792  -0.054   5.924   3.215 -1.2562  1.0065  1.1782
  529MOL0     H69793  -0.303   5.968   3.237 -0.1531  2.8440 -0.2456
  529MOL0     H69794  -0.527   5.884   3.164 -0.3423 -1.6152  0.1489
  529MOL0     H69795  -0.475   5.800   3.015 -2.8424 -2.3936  1.2169
  529MOL0     H69796  -0.683   5.903   2.886 -0.8964 -0.7233 -0.0097
  529MOL0     H69797  -0.725   5.991   3.036 -1.0137 -0.4948 -0.3804
  529MOL0     H69798  -0.731   5.689   3.033 -0.2461  0.3481  0.0518
  529MOL0     H69799  -0.852   5.801   2.966 -0.3344 -2.1710 -0.0034
  529MOL0     H69800  -0.742   5.806   3.260 -0.3684  0.7985  0.9005
  529MOL0     H69801  -0.845   5.930   3.186  1.3789  0.2707 -2.8192
  529MOL0     H69802  -1.032   5.775   3.172  0.4064  0.1543 -0.8723
  529MOL0     H69803  -0.968   5.783   3.341  1.7471  2.2704 -0.0996
  529MOL0     H69804  -0.838   5.568   3.223 -0.9201 -3.3856 -1.2307
  529MOL0     H69805  -0.983   5.558   3.127  0.1513  0.2504  0.0404
  529MOL0     H69806  -1.004   5.417   3.316 -1.4576 -0.8722  0.5616
  529MOL0     H69807  -0.983   5.543   3.436  0.6729  0.8017 -0.4629
  529MOL0     H69808  -1.226   5.482   3.338  2.0475 -0.9607 -3.2238
  529MOL0     H69809  -1.194   5.625   3.249 -2.9125 -1.4869 -0.4719
  529MOL0     H69810  -0.316   6.017   2.810  2.0528  0.9172 -0.6634
  529MOL0     H69811  -0.072   5.975   2.782 -2.4335 -1.5794 -0.8286
  529MOL0     H69812   0.306   5.795   2.980  1.3446 -1.5256 -1.0525
  529MOL0     H69813   0.532   5.746   2.901  0.4748  0.0032  0.9081
  529MOL0     H69814   2.467   5.322   2.312  3.8779 -2.2539  0.5117
  529MOL0     H69815   2.674   5.318   2.412 -0.7423 -0.0319 -1.8449
  529MOL0     H69816   2.960   5.283   2.614  0.2253  0.0057 -0.7423
  529MOL0     H69817   3.188   5.238   2.648 -1.9106 -0.1089 -0.8283
  529MOL0     H69818   3.348   5.235   2.905  2.8815 -1.2683  2.4652
  529MOL0     H69819   3.381   5.394   2.987 -0.5218  2.8096 -1.7439
  529MOL0     H69820   3.594   5.380   2.869 -1.1843  0.4246 -1.4267
  529MOL0     H69821   3.552   5.268   2.996 -1.3437  2.0450  0.1579
  529MOL0     H69822   3.525   5.183   2.689  0.8963 -3.2629 -1.1767
  529MOL0     H69823   3.530   5.090   2.824 -0.7384  0.2154 -0.2000
  529MOL0     H69824   3.755   5.137   2.667  0.7479 -0.1375  0.2011
  529MOL0     H69825   3.773   5.276   2.750 -1.5775  0.5549  0.9854
  529MOL0     H69826   3.933   4.959   2.993 -0.8412 -3.3247 -0.6175
  529MOL0     H69827   3.222   5.587   2.895  0.1895 -1.1025 -0.4818
  529MOL0     H69828   2.991   5.628   2.881  1.7240  0.9984 -0.8151
  530MOL0     O69829   8.650   6.970   1.201 -0.1498 -0.0691 -0.1329
  530MOL0     C69830   8.735   7.032   1.270 -0.0640  0.1069  0.8707
  530MOL0     O69831   8.723   7.113   1.374  0.0775  0.0940  0.2849
  530MOL0     C69832   8.607   7.086   1.448 -0.3309  0.0373  0.0092
  530MOL0     C69833   8.481   7.153   1.431 -0.3092 -0.5436  0.7856
  530MOL0     C69834   8.371   7.120   1.511  0.0204 -0.3879 -0.2557
  530MOL0     C69835   8.388   7.014   1.601  0.5043 -0.3179  0.1589
  530MOL0     O69836   8.282   6.984   1.692  0.3572 -0.1958 -0.2432
  530MOL0     C69837   8.301   7.026   1.822 -0.5619 -0.2880 -0.0079
  530MOL0     C69838   8.210   7.147   1.845  0.0612  0.8650  0.3713
  530MOL0     C69839   8.059   7.117   1.845 -0.1656 -0.7558 -0.5178
  530MOL0     C69840   7.995   7.141   1.703  0.0480  0.6435 -1.0727
  530MOL0     C69841   7.848   7.164   1.703  0.9690 -0.1936  0.6656
  530MOL0     C69842   7.804   7.262   1.816  0.0392  0.3354  0.6058
  530MOL0     C69843   7.673   7.337   1.791 -0.2811  0.3755  0.0383
  530MOL0     C69844   7.654   7.433   1.910  0.1999 -0.6093 -0.2257
  530MOL0     N69845   7.518   7.486   1.905 -0.0316 -0.2571 -1.2170
  530MOL0     C69846   7.435   7.491   2.014 -0.8721 -0.0092 -0.0064
  530MOL0     C69847   7.335   7.583   1.990 -0.1173  0.2259 -0.0463
  530MOL0     C69848   7.199   7.605   2.065  0.5461  0.4630  0.5239
  530MOL0     C69849   7.198   7.712   2.171 -0.1445 -0.1655  0.4999
  530MOL0     C69850   7.058   7.715   2.232 -0.4027 -0.1596 -0.9979
  530MOL0     C69851   7.042   7.853   2.300  0.3424  1.0534  0.1298
  530MOL0     O69852   6.926   7.863   2.387  0.8963  0.2985 -0.2973
  530MOL0     C69853   6.812   7.856   2.316  0.3618  0.3717  0.4142
  530MOL0     C69854   6.746   7.731   2.301  0.5381 -0.1769  0.6945
  530MOL0     C69855   6.621   7.730   2.231 -0.0270 -0.0180 -0.5625
  530MOL0     C69856   6.556   7.849   2.191  0.0466 -0.0242 -0.3139
  530MOL0     C69857   6.415   7.845   2.134 -0.1425  0.5020 -0.2185
  530MOL0     O69858   6.345   7.730   2.151  0.1331 -0.0711 -0.2584
  530MOL0     C69859   6.213   7.719   2.105 -0.5579 -0.3198 -0.1832
  530MOL0     C69860   6.136   7.629   2.175  0.7767  0.4984 -0.0844
  530MOL0     C69861   5.998   7.600   2.139 -0.0499  0.7260  0.6264
  530MOL0     C69862   5.944   7.673   2.031 -0.9573  0.7873  0.2939
  530MOL0     O69863   5.814   7.635   1.997 -0.1546  0.5722  0.0628
  530MOL0     C69864   5.733   7.747   1.960 -0.5750  0.5279  0.3643
  530MOL0     C69865   5.591   7.709   1.977  0.2632  0.3490 -0.1621
  530MOL0     C69866   5.509   7.847   1.965  0.1314 -0.7109 -0.1246
  530MOL0     C69867   5.374   7.857   2.031  0.0547  0.8486  0.5006
  530MOL0     C69868   5.294   7.961   1.961  1.2768  0.5548 -0.8105
  530MOL0     C69869   5.152   7.984   2.016  0.1585  0.1475 -0.7038
  530MOL0     C69870   5.052   7.869   1.977  0.3721 -0.4623  0.2828
  530MOL0     C69871   4.917   7.887   2.048  0.5213  0.2220 -1.0407
  530MOL0    Cl69872   4.790   7.834   1.932  0.4032  0.1780 -0.2817
  530MOL0     C69873   6.014   7.772   1.967  0.0983 -0.2184  0.2801
  530MOL0     C69874   6.150   7.792   1.998  0.2892 -0.8337  0.1475
  530MOL0     O69875   6.373   7.948   2.097  0.1470 -0.2503  1.2871
  530MOL0     C69876   6.627   7.959   2.216 -0.5991 -2.3377  0.3989
  530MOL0     C69877   6.754   7.973   2.270 -0.7382 -0.1480 -0.1458
  530MOL0     N69878   7.361   7.641   1.868 -0.3074  0.1784  1.1903
  530MOL0     N69879   7.470   7.587   1.826 -0.2454  1.2290  0.7835
  530MOL0     C69880   8.503   6.939   1.608 -0.9801 -0.0063 -0.6506
  530MOL0     C69881   8.613   6.978   1.535 -0.6056  0.3091  0.0946
  530MOL0     C69882   8.869   7.028   1.215 -0.4886 -0.1901  0.0987
  530MOL0     C69883   8.994   7.041   1.291  0.5427 -0.5067  0.3496
  530MOL0     C69884   9.122   7.021   1.225 -0.3387  0.0770 -0.6416
  530MOL0     C69885   9.133   7.001   1.086 -0.2169  0.0248  0.9969
  530MOL0     O69886   9.256   6.986   1.023 -0.5108 -0.6066 -1.0325
  530MOL0     C69887   9.333   6.889   1.096 -0.1113 -0.3444 -0.3439
  530MOL0     C69888   9.418   6.813   0.988 -0.1993  0.8470 -0.2518
  530MOL0     C69889   9.519   6.904   0.909  0.5162 -0.6693 -1.1036
  530MOL0     C69890   9.621   6.963   0.995  0.9657 -0.4220 -0.1066
  530MOL0     C69891   9.725   7.036   0.917  0.6534  0.5178 -1.3059
  530MOL0     C69892   9.816   7.078   0.849  0.5040 -0.1788  0.8261
  530MOL0     C69893   9.013   7.003   1.014 -0.1196  0.0373  0.2236
  530MOL0     C69894   8.884   7.007   1.074 -0.2392 -0.2094 -0.3201
  530MOL0     H69895   8.468   7.227   1.353  0.2368  0.9683  2.0614
  530MOL0     H69896   8.276   7.171   1.509  0.0600 -0.2602 -3.0192
  530MOL0     H69897   8.402   7.042   1.861  0.1463 -0.4584 -1.6925
  530MOL0     H69898   8.258   6.958   1.896  1.4835  0.8807  2.4069
  530MOL0     H69899   8.227   7.219   1.765 -0.8585  0.4307 -0.2286
  530MOL0     H69900   8.242   7.185   1.943  1.9356  0.9355 -0.2308
  530MOL0     H69901   8.014   7.191   1.912  0.0271 -1.2453  0.1662
  530MOL0     H69902   8.046   7.015   1.881  0.9910 -0.5465  0.5658
  530MOL0     H69903   8.045   7.225   1.654 -0.7235  0.1241 -2.8222
  530MOL0     H69904   8.033   7.053   1.650 -0.7819 -2.0095  2.3362
  530MOL0     H69905   7.794   7.071   1.717  0.8609 -0.5421 -1.7343
  530MOL0     H69906   7.816   7.191   1.602 -0.5018 -0.0407  1.1512
  530MOL0     H69907   7.885   7.336   1.825 -0.8476  1.4549 -0.3366
  530MOL0     H69908   7.792   7.206   1.909 -0.0752  0.1658  0.4882
  530MOL0     H69909   7.677   7.374   1.688 -1.0499 -1.1517 -0.5691
  530MOL0     H69910   7.581   7.278   1.796 -0.4322  0.6092  0.0174
  530MOL0     H69911   7.726   7.515   1.897  0.0311 -0.2376  1.0826
  530MOL0     H69912   7.680   7.394   2.009  2.7887  1.1951 -0.0789
  530MOL0     H69913   7.457   7.433   2.104 -4.4953 -0.8775  0.4568
  530MOL0     H69914   7.172   7.504   2.099  3.5374 -2.0135 -3.6057
  530MOL0     H69915   7.128   7.626   1.985  0.5272 -0.1398  0.3767
  530MOL0     H69916   7.223   7.807   2.122  2.2456  0.3225  2.4299
  530MOL0     H69917   7.269   7.687   2.251  0.9242  0.0551 -0.3578
  530MOL0     H69918   6.980   7.695   2.157  1.2202 -0.6252 -2.6420
  530MOL0     H69919   7.050   7.628   2.297 -0.2439  0.2849 -0.3756
  530MOL0     H69920   7.029   7.921   2.215 -0.0218 -1.3649 -1.8554
  530MOL0     H69921   7.139   7.876   2.345  1.9519 -0.8595 -2.1398
  530MOL0     H69922   6.798   7.644   2.341 -0.0791 -0.6412  0.4915
  530MOL0     H69923   6.576   7.632   2.219  0.9810 -0.6358  0.4941
  530MOL0     H69924   6.189   7.590   2.261 -0.5197 -0.4941  0.2755
  530MOL0     H69925   5.948   7.514   2.182  0.4564  0.7713  1.3352
  530MOL0     H69926   5.754   7.772   1.855  3.1094 -3.3996 -0.1036
  530MOL0     H69927   5.760   7.837   2.016  0.0833  0.4709  0.1491
  530MOL0     H69928   5.573   7.659   2.073  0.5000 -0.4739 -0.5334
  530MOL0     H69929   5.561   7.640   1.897  6.1884 -3.1921  0.0890
  530MOL0     H69930   5.508   7.881   1.861 -1.4038 -0.6094 -0.0916
  530MOL0     H69931   5.559   7.929   2.017 -0.6654 -1.6133  2.1521
  530MOL0     H69932   5.333   7.756   2.016 -1.1669  1.4337 -0.1948
  530MOL0     H69933   5.372   7.888   2.136  1.3301  0.8446  0.5409
  530MOL0     H69934   5.277   7.933   1.856 -2.6129 -1.4663  0.1815
  530MOL0     H69935   5.329   8.065   1.968 -3.4168  2.3086 -0.0539
  530MOL0     H69936   5.114   8.076   1.970  1.6293  1.6300  0.8850
  530MOL0     H69937   5.142   8.006   2.122  0.1747  0.1416 -0.7008
  530MOL0     H69938   5.037   7.847   1.871 -2.3939 -1.7585  0.8608
  530MOL0     H69939   5.090   7.777   2.024  2.0566  0.4326  0.7843
  530MOL0     H69940   4.900   7.992   2.074 -1.5320 -0.1155 -0.8602
  530MOL0     H69941   4.923   7.834   2.144  0.6520  3.7439  1.0532
  530MOL0     H69942   5.971   7.825   1.882  3.0739  1.5665 -0.2848
  530MOL0     H69943   6.195   7.872   1.941  0.3166 -1.2159 -0.3815
  530MOL0     H69944   6.588   8.051   2.173 -0.2189 -1.1459  2.4494
  530MOL0     H69945   6.806   8.069   2.275  0.7974 -0.9958  1.3802
  530MOL0     H69946   8.507   6.857   1.679  0.2561  1.1693  0.7353
  530MOL0     H69947   8.706   6.923   1.541 -0.9076 -0.3111 -0.6646
  530MOL0     H69948   9.004   7.061   1.397  1.0200 -0.4048  0.2862
  530MOL0     H69949   9.209   7.020   1.289 -0.1984  0.4616 -0.8259
  530MOL0     H69950   9.272   6.812   1.143  0.5326 -2.1619 -2.3526
  530MOL0     H69951   9.398   6.931   1.174 -1.7058 -0.5633  1.1777
  530MOL0     H69952   9.473   6.732   1.035 -2.7391  1.0772  3.5691
  530MOL0     H69953   9.347   6.770   0.917 -0.5472 -0.5158  0.8970
  530MOL0     H69954   9.463   6.982   0.857  1.6472 -0.1062 -1.5016
  530MOL0     H69955   9.568   6.848   0.830 -0.1568 -4.1022  0.7215
  530MOL0     H69956   9.576   7.031   1.068  0.7088  3.0787 -3.2189
  530MOL0     H69957   9.668   6.883   1.053 -1.9790 -0.5977  2.2291
  530MOL0     H69958   9.908   7.089   0.797  2.0466 -1.9065  2.9950
  530MOL0     H69959   9.035   6.983   0.910 -3.0080  0.7101 -0.5875
  530MOL0     H69960   8.797   6.992   1.011  2.5743  0.4070 -4.8273
  531MOL0     O69961   5.257   9.103   7.817  0.4190  0.4179 -0.7418
  531MOL0     C69962   5.244   9.020   7.909  1.0703  0.2722  0.5721
  531MOL0     O69963   5.117   8.967   7.953 -0.5462 -0.2553 -0.3901
  531MOL0     C69964   5.008   9.038   7.907 -0.0174 -0.9349  0.3888
  531MOL0     C69965   4.906   8.983   7.844 -0.2726 -0.2659 -0.7626
  531MOL0     C69966   4.791   9.061   7.809 -0.7563  0.1000 -0.2689
  531MOL0     C69967   4.775   9.186   7.845 -0.0896 -0.6427 -0.4396
  531MOL0     O69968   4.683   9.262   7.782  0.1412 -0.0930  0.4494
  531MOL0     C69969   4.644   9.388   7.855  0.3260  0.4476  0.3289
  531MOL0     C69970   4.577   9.373   7.993  0.7112 -0.8167  0.1617
  531MOL0     C69971   4.450   9.291   7.984  0.0335  0.3630 -0.0946
  531MOL0     C69972   4.339   9.350   7.904  0.0904 -1.2269 -0.4502
  531MOL0     C69973   4.198   9.335   7.969  0.1407 -0.0261  0.1082
  531MOL0     C69974   4.145   9.187   7.955 -0.1425  0.3093 -0.1245
  531MOL0     C69975   4.015   9.182   8.017  0.5587 -0.5755 -0.2739
  531MOL0     C69976   3.967   9.037   8.045  0.4518 -0.3728 -0.8396
  531MOL0     N69977   3.838   9.033   8.114 -0.0069 -0.8124 -0.6424
  531MOL0     C69978   3.833   9.002   8.246 -0.2998 -0.1815 -0.9104
  531MOL0     C69979   3.700   9.012   8.279  0.0516  0.3882  0.0860
  531MOL0     C69980   3.652   8.996   8.411 -0.0366  0.0018 -0.1037
  531MOL0     C69981   3.582   8.858   8.420 -0.3290 -0.3021  0.4926
  531MOL0     C69982   3.551   8.817   8.565  0.0072  0.9744  0.1762
  531MOL0     C69983   3.425   8.892   8.627 -0.0078  1.3372  0.4990
  531MOL0     O69984   3.318   8.818   8.572 -0.0465  0.4680 -0.6537
  531MOL0     C69985   3.193   8.868   8.601 -0.8653  0.4040 -1.0119
  531MOL0     C69986   3.154   8.989   8.658 -0.4248 -0.3291  0.2317
  531MOL0     C69987   3.027   9.016   8.692 -0.0331  0.2068 -0.0832
  531MOL0     C69988   2.931   8.918   8.678 -0.1227  0.0346 -0.2646
  531MOL0     C69989   2.781   8.948   8.690  0.4421 -0.2617 -0.2749
  531MOL0     O69990   2.691   8.841   8.686  0.9346  0.2542  0.6349
  531MOL0     C69991   2.554   8.858   8.697  1.1844 -0.0494  0.2958
  531MOL0     C69992   2.470   8.783   8.788  0.0773  0.3290 -0.2191
  531MOL0     C69993   2.333   8.805   8.806  0.4896 -0.2941  1.2413
  531MOL0     C69994   2.273   8.921   8.741  0.0070  1.1098  0.9025
  531MOL0     O69995   2.151   8.962   8.777  0.0430  0.2014 -1.2031
  531MOL0     C69996   2.068   9.023   8.677  0.0952 -0.8890  0.6378
  531MOL0     C69997   1.916   9.001   8.708 -0.4811 -1.0610  0.5298
  531MOL0     C69998   1.880   9.091   8.821  0.1117 -0.3019  0.7897
  531MOL0     C69999   1.731   9.117   8.830 -1.2631 -0.2271  0.0938
  531MOL0     C70000   1.689   9.163   8.970  1.3975 -0.1697 -1.2831
  531MOL0     C70001   1.727   9.311   8.992 -0.0056 -0.2951 -0.5393
  531MOL0     C70002   1.665   9.352   9.125 -0.0494  0.2310 -0.3508
  531MOL0     C70003   1.691   9.504   9.151 -0.6560 -0.1773 -0.1309
  531MOL0    Cl70004   1.603   9.594   9.037 -0.1009  0.5322 -0.5809
  531MOL0     C70005   2.356   8.987   8.650  0.0980 -0.2922 -0.2793
  531MOL0     C70006   2.489   8.961   8.628 -0.6149  0.2154  0.4965
  531MOL0     O70007   2.753   9.064   8.715  0.1999 -0.4653  0.0374
  531MOL0     C70008   2.967   8.789   8.640 -0.2813  0.5501  0.3714
  531MOL0     C70009   3.099   8.764   8.610 -0.0673  0.1100  0.5762
  531MOL0     N70010   3.626   9.045   8.169 -0.6092 -0.3269  0.5655
  531MOL0     N70011   3.711   9.063   8.065 -0.3055  0.0702  0.5815
  531MOL0     C70012   4.884   9.245   7.921  0.3661  0.3951  0.1955
  531MOL0     C70013   4.995   9.170   7.954  0.5646 -0.0560  0.7758
  531MOL0     C70014   5.358   8.950   7.962 -0.0659 -0.7121 -0.4597
  531MOL0     C70015   5.343   8.850   8.051 -0.3615  0.4233  0.3472
  531MOL0     C70016   5.463   8.794   8.114  0.3859 -0.5326 -0.1646
  531MOL0     C70017   5.593   8.836   8.077  0.3534  0.1078  0.1849
  531MOL0     O70018   5.700   8.771   8.139  0.1554 -0.8554  0.0293
  531MOL0     C70019   5.829   8.797   8.106  0.0890 -0.0316 -0.3638
  531MOL0     C70020   5.921   8.677   8.144 -0.1370 -1.0688  0.2530
  531MOL0     C70021   5.903   8.656   8.291  0.4509 -0.3900 -0.4611
  531MOL0     C70022   6.002   8.553   8.344 -0.1403  1.2947  1.3820
  531MOL0     C70023   6.142   8.597   8.318  0.4347 -0.0774  0.7464
  531MOL0     C70024   6.257   8.634   8.290  0.4685 -0.0666 -0.1479
  531MOL0     C70025   5.601   8.935   7.979 -0.0035  0.7728  0.1962
  531MOL0     C70026   5.486   8.988   7.928  0.0071  0.3471  0.0858
  531MOL0     H70027   4.922   8.877   7.831  4.2893 -0.4826  3.5910
  531MOL0     H70028   4.718   9.002   7.755  1.3748 -1.5471 -1.4990
  531MOL0     H70029   4.580   9.451   7.792  0.7661  3.7667  2.9530
  531MOL0     H70030   4.734   9.446   7.874  1.2569 -1.6646  3.0261
  531MOL0     H70031   4.548   9.472   8.030  2.2246  0.2129 -1.2620
  531MOL0     H70032   4.642   9.335   8.072  0.6913  0.1414  0.6517
  531MOL0     H70033   4.423   9.275   8.089  0.8628 -1.7077 -0.1460
  531MOL0     H70034   4.483   9.193   7.951  1.9305 -0.3640  3.4515
  531MOL0     H70035   4.357   9.457   7.892  1.8029 -1.6102 -1.8061
  531MOL0     H70036   4.334   9.311   7.802 -0.7252 -0.3659 -0.7488
  531MOL0     H70037   4.127   9.407   7.926  2.9497  0.8242 -3.6502
  531MOL0     H70038   4.212   9.360   8.074  1.4850 -0.6485  0.0934
  531MOL0     H70039   4.213   9.124   8.014 -0.1257  1.0618  0.6849
  531MOL0     H70040   4.138   9.156   7.850 -2.8256 -1.4188  0.4641
  531MOL0     H70041   4.021   9.234   8.114 -4.6886 -1.5540  0.9061
  531MOL0     H70042   3.936   9.228   7.957  0.2550 -0.8616 -0.0929
  531MOL0     H70043   4.046   8.997   8.109  1.3113  3.3297  0.6913
  531MOL0     H70044   3.962   8.981   7.951  3.4490 -0.4034 -1.0990
  531MOL0     H70045   3.916   8.972   8.309 -1.9347 -0.9897  0.9712
  531MOL0     H70046   3.569   9.065   8.430  0.9811  0.8281  1.5432
  531MOL0     H70047   3.726   9.003   8.491  0.0033  1.3990 -0.2415
  531MOL0     H70048   3.655   8.781   8.393  0.6573  0.2848  1.3856
  531MOL0     H70049   3.496   8.849   8.354 -0.4965  0.2997  0.6196
  531MOL0     H70050   3.528   8.711   8.582 -1.7155  1.8161  4.6014
  531MOL0     H70051   3.637   8.833   8.632 -1.2297  1.2629  1.7660
  531MOL0     H70052   3.423   8.994   8.588  0.7410  0.8832 -0.7934
  531MOL0     H70053   3.428   8.880   8.736 -0.7747  0.8544  0.4753
  531MOL0     H70054   3.226   9.069   8.673  1.9417 -2.6466  2.1559
  531MOL0     H70055   3.004   9.117   8.723 -1.4218  0.0803 -0.6682
  531MOL0     H70056   2.520   8.712   8.853  4.4935  3.4598  0.2860
  531MOL0     H70057   2.272   8.750   8.876 -1.6951 -1.9713 -1.7615
  531MOL0     H70058   2.094   8.985   8.577 -1.0258  1.3581 -0.5851
  531MOL0     H70059   2.073   9.132   8.671  0.8113 -0.6252  3.9558
  531MOL0     H70060   1.892   8.901   8.745 -0.4245 -1.7039 -1.0792
  531MOL0     H70061   1.851   9.016   8.621  2.4959 -0.0951 -1.7139
  531MOL0     H70062   1.927   9.189   8.807  0.9045 -0.9870 -1.9231
  531MOL0     H70063   1.920   9.054   8.916 -1.0920 -2.6082  0.4727
  531MOL0     H70064   1.708   9.198   8.760  0.9200  0.3638  0.0120
  531MOL0     H70065   1.670   9.033   8.793  2.3983 -1.6774 -3.3822
  531MOL0     H70066   1.732   9.101   9.049  0.7844  3.1036  1.8606
  531MOL0     H70067   1.581   9.154   8.986  1.5657 -2.7624 -1.1428
  531MOL0     H70068   1.688   9.384   8.920  0.6991  0.6651  0.0378
  531MOL0     H70069   1.836   9.321   8.995  0.1614 -1.9910  0.7595
  531MOL0     H70070   1.557   9.337   9.116 -0.0413 -1.3278  1.5578
  531MOL0     H70071   1.721   9.294   9.199 -2.1692 -1.3618  0.1110
  531MOL0     H70072   1.798   9.529   9.147 -0.5665 -0.7257 -1.9518
  531MOL0     H70073   1.647   9.529   9.248 -2.8755  1.7313 -1.5144
  531MOL0     H70074   2.318   9.084   8.618  1.3389  0.2307 -0.2296
  531MOL0     H70075   2.553   9.022   8.564 -1.1220  0.4493  0.2039
  531MOL0     H70076   2.903   8.704   8.662  2.1431 -0.6996  3.1634
  531MOL0     H70077   3.133   8.666   8.579  1.9434  1.1893 -0.8446
  531MOL0     H70078   4.887   9.348   7.957  3.2889  0.4953 -0.0526
  531MOL0     H70079   5.073   9.211   8.016 -2.1927  3.5669  2.2638
  531MOL0     H70080   5.245   8.825   8.089 -0.7597  1.6369  0.1637
  531MOL0     H70081   5.448   8.716   8.188 -2.0712  0.4871  0.5247
  531MOL0     H70082   5.864   8.893   8.145 -1.8316  0.1976  0.8881
  531MOL0     H70083   5.834   8.785   7.997 -0.7420 -5.1730 -0.0647
  531MOL0     H70084   5.892   8.594   8.080 -0.8545 -0.1932 -0.5758
  531MOL0     H70085   6.021   8.717   8.127  0.0698 -0.1880  3.0482
  531MOL0     H70086   5.804   8.614   8.311  0.1008  1.3482  1.8190
  531MOL0     H70087   5.900   8.749   8.348 -1.1608 -1.1590  0.8131
  531MOL0     H70088   5.980   8.560   8.451 -4.8953 -1.8183  0.8999
  531MOL0     H70089   5.985   8.456   8.296  1.9700  1.9628 -0.9524
  531MOL0     H70090   6.356   8.666   8.264 -0.0833  1.5726 -0.3053
  531MOL0     H70091   5.697   8.973   7.948 -0.2599  1.5780  0.3725
  531MOL0     H70092   5.483   9.069   7.856  0.2842 -1.1520 -1.6903
  532MOL0     O70093   1.337   8.676   7.637 -0.3494  0.0613 -0.2250
  532MOL0     C70094   1.293   8.687   7.751  0.5610 -0.2684 -0.3503
  532MOL0     O70095   1.352   8.642   7.867  0.0681 -0.5299  0.5618
  532MOL0     C70096   1.476   8.582   7.873  0.2413 -0.6522 -0.2313
  532MOL0     C70097   1.497   8.513   7.991 -0.6563  0.0645 -0.7381
  532MOL0     C70098   1.604   8.425   8.006 -0.4391 -0.0982 -0.3947
  532MOL0     C70099   1.697   8.405   7.903  0.0993  0.2640  0.0462
  532MOL0     O70100   1.806   8.316   7.904 -0.3702  0.1884 -0.1349
  532MOL0     C70101   1.849   8.259   8.025  0.9417 -1.1731 -0.7398
  532MOL0     C70102   1.952   8.354   8.108  0.9307  1.1860 -0.2152
  532MOL0     C70103   2.075   8.390   8.026  0.2508  0.7335  0.3296
  532MOL0     C70104   2.181   8.457   8.120 -1.1013 -0.0833  0.3866
  532MOL0     C70105   2.322   8.463   8.050 -0.3636  0.0412  0.2283
  532MOL0     C70106   2.424   8.522   8.149  0.9906 -0.4505 -0.5385
  532MOL0     C70107   2.572   8.538   8.093 -0.5243  0.7558  0.1878
  532MOL0     C70108   2.620   8.420   8.006 -0.3390  0.2019  0.1019
  532MOL0     N70109   2.753   8.444   7.956  0.0606  0.0626  0.6333
  532MOL0     C70110   2.864   8.392   8.001 -0.5412  0.4157  0.1199
  532MOL0     C70111   2.960   8.450   7.923  0.0698 -0.1903 -0.0153
  532MOL0     C70112   3.109   8.431   7.929  0.3467  0.2379  0.7601
  532MOL0     C70113   3.152   8.432   8.072  0.3490 -0.1762 -1.1796
  532MOL0     C70114   3.131   8.569   8.141 -0.4610 -0.5008 -0.2389
  532MOL0     C70115   3.184   8.585   8.287  1.3800  0.8805 -0.2745
  532MOL0     O70116   3.137   8.484   8.380 -0.4587  0.1706 -0.0509
  532MOL0     C70117   3.006   8.465   8.392  0.3370 -0.7463  0.3744
  532MOL0     C70118   2.910   8.567   8.391 -0.4662  0.1249 -0.0328
  532MOL0     C70119   2.771   8.553   8.419 -0.2987  0.7513  0.7699
  532MOL0     C70120   2.722   8.431   8.460  0.1203 -0.3608 -1.0977
  532MOL0     C70121   2.583   8.424   8.522  0.4581  0.1714 -0.0084
  532MOL0     O70122   2.497   8.531   8.515  0.1413 -0.2609  0.4356
  532MOL0     C70123   2.376   8.531   8.573  0.0598 -0.2421  0.2966
  532MOL0     C70124   2.289   8.630   8.523 -0.3483 -0.2315  0.3916
  532MOL0     C70125   2.163   8.646   8.581 -0.4145 -0.4325 -0.3811
  532MOL0     C70126   2.127   8.572   8.695 -0.7859  0.3290  0.0486
  532MOL0     O70127   1.994   8.561   8.733  0.0238 -0.1350  0.6015
  532MOL0     C70128   1.969   8.571   8.871 -0.0781 -0.3318 -0.9403
  532MOL0     C70129   1.828   8.613   8.891 -0.1370  0.3493  0.6845
  532MOL0     C70130   1.801   8.663   9.034  0.2961  0.0207 -0.0137
  532MOL0     C70131   1.670   8.738   9.042 -0.2758 -0.0406  0.3721
  532MOL0     C70132   1.654   8.818   9.178 -0.0742 -0.0586  0.3454
  532MOL0     C70133   1.525   8.887   9.211 -0.4436  1.4759  0.5189
  532MOL0     C70134   1.544   9.000   9.314 -0.3977 -0.6937  0.0724
  532MOL0     C70135   1.415   9.080   9.352 -0.0612 -0.0145 -0.4565
  532MOL0    Cl70136   1.304   8.975   9.431  0.0483 -0.1240  0.1477
  532MOL0     C70137   2.214   8.472   8.751 -1.4281 -0.0573  0.8926
  532MOL0     C70138   2.337   8.454   8.684  0.0503 -0.4273 -0.3401
  532MOL0     O70139   2.549   8.303   8.546  0.0014  0.6206  1.4875
  532MOL0     C70140   2.817   8.326   8.463  0.3158  0.0640 -0.9688
  532MOL0     C70141   2.954   8.341   8.434 -0.3536 -0.4364  0.8427
  532MOL0     N70142   2.902   8.556   7.842  0.2548  0.3279  0.1481
  532MOL0     N70143   2.774   8.533   7.847 -0.4068  0.7420 -0.2553
  532MOL0     C70144   1.691   8.485   7.792  0.1142 -1.0013 -0.0476
  532MOL0     C70145   1.581   8.568   7.774  0.7607 -0.8770  0.4152
  532MOL0     C70146   1.166   8.765   7.767  0.5028 -0.2730 -0.2189
  532MOL0     C70147   1.102   8.792   7.886 -0.0941  0.6130 -0.0567
  532MOL0     C70148   0.978   8.850   7.893 -0.0718  0.6378 -0.2211
  532MOL0     C70149   0.913   8.890   7.777 -0.2617 -0.1249  0.3298
  532MOL0     O70150   0.790   8.940   7.769  0.4236 -0.1650  0.4082
  532MOL0     C70151   0.709   8.927   7.889 -0.2172 -0.3554  0.0049
  532MOL0     C70152   0.581   9.009   7.864  0.1087  0.2187  0.2468
  532MOL0     C70153   0.502   9.021   7.994  0.3180  0.0688  0.6662
  532MOL0     C70154   0.369   9.088   7.965 -1.1340  0.2441  1.1761
  532MOL0     C70155   0.377   9.232   7.945 -0.4857 -0.2684  0.9379
  532MOL0     C70156   0.390   9.354   7.935  1.0920  0.4685 -0.5334
  532MOL0     C70157   0.972   8.876   7.655 -0.0338 -0.1996 -0.3716
  532MOL0     C70158   1.097   8.807   7.651  0.2696 -0.5317  0.0568
  532MOL0     H70159   1.430   8.530   8.075  1.4506 -0.5501  1.1744
  532MOL0     H70160   1.612   8.387   8.107 -2.3569 -0.5172 -0.3578
  532MOL0     H70161   1.890   8.159   8.006  1.0287 -1.7259  1.9509
  532MOL0     H70162   1.760   8.250   8.088  1.0462  2.0055  0.0557
  532MOL0     H70163   1.982   8.295   8.195  1.9271  0.5149 -0.9925
  532MOL0     H70164   1.901   8.444   8.146 -3.0253 -0.8373 -0.2180
  532MOL0     H70165   2.035   8.461   7.952  2.8448  1.4363 -0.5058
  532MOL0     H70166   2.112   8.300   7.977 -1.8856 -0.2035  0.3082
  532MOL0     H70167   2.153   8.562   8.137 -0.3510  0.5221 -1.8822
  532MOL0     H70168   2.185   8.402   8.215  1.3192  1.7638  1.4466
  532MOL0     H70169   2.324   8.506   7.950 -0.1712 -2.0826 -0.7459
  532MOL0     H70170   2.341   8.358   8.024 -2.1675 -0.4757  0.8397
  532MOL0     H70171   2.431   8.459   8.238  0.7511  0.2336 -0.0266
  532MOL0     H70172   2.393   8.624   8.174 -2.8236 -1.5408 -0.2361
  532MOL0     H70173   2.571   8.622   8.023  0.1449  2.3734  2.0256
  532MOL0     H70174   2.645   8.545   8.174  1.5423 -2.9175 -1.1056
  532MOL0     H70175   2.561   8.419   7.913  1.6339  3.4065 -1.3445
  532MOL0     H70176   2.611   8.321   8.052  1.1517 -0.6234 -1.2577
  532MOL0     H70177   2.877   8.325   8.086 -1.4706 -2.5260 -1.9084
  532MOL0     H70178   3.167   8.515   7.888  1.8574 -1.4205 -0.6808
  532MOL0     H70179   3.124   8.337   7.875  2.5859  1.0079 -0.0671
  532MOL0     H70180   3.257   8.401   8.074  0.5448  0.4781 -0.6792
  532MOL0     H70181   3.098   8.349   8.119 -0.6556  0.9400 -0.2917
  532MOL0     H70182   3.185   8.650   8.092 -0.7321 -0.2177 -0.0760
  532MOL0     H70183   3.023   8.584   8.132 -0.3252  0.5423 -0.2744
  532MOL0     H70184   3.165   8.689   8.315  3.2596  0.7412  1.9084
  532MOL0     H70185   3.292   8.585   8.268  1.3089  1.4116 -0.6751
  532MOL0     H70186   2.940   8.669   8.369 -0.4207  0.1505  0.1425
  532MOL0     H70187   2.713   8.645   8.418  0.4552  1.2597  2.0631
  532MOL0     H70188   2.313   8.687   8.434  1.6964  0.2939  1.2317
  532MOL0     H70189   2.101   8.724   8.538  1.5641 -0.6961 -4.1790
  532MOL0     H70190   2.032   8.643   8.924 -1.2595  0.3570 -0.4336
  532MOL0     H70191   1.978   8.472   8.917  1.0868  0.4196  0.5354
  532MOL0     H70192   1.769   8.529   8.851 -0.8027  2.5717 -3.5992
  532MOL0     H70193   1.819   8.698   8.823  1.0038  1.1325  1.4839
  532MOL0     H70194   1.878   8.731   9.072 -2.1465  0.3783  5.1521
  532MOL0     H70195   1.796   8.581   9.106  0.0681  0.2794  0.2679
  532MOL0     H70196   1.663   8.812   8.962 -4.7426  1.6617  2.0364
  532MOL0     H70197   1.581   8.677   9.024 -0.2856 -0.3494  1.3635
  532MOL0     H70198   1.742   8.882   9.196  0.2410 -0.8629  1.8022
  532MOL0     H70199   1.680   8.737   9.247 -0.9480 -2.7418 -2.2872
  532MOL0     H70200   1.451   8.813   9.242  1.7207 -1.8748 -1.5833
  532MOL0     H70201   1.476   8.928   9.122  3.3774 -1.6464 -3.4598
  532MOL0     H70202   1.579   8.959   9.409 -0.0062  1.3008  0.8395
  532MOL0     H70203   1.621   9.066   9.275  0.7268 -1.0639  1.5975
  532MOL0     H70204   1.371   9.120   9.260  0.1083  1.1630 -0.0468
  532MOL0     H70205   1.431   9.152   9.433 -1.2987 -0.7780  0.4959
  532MOL0     H70206   2.184   8.390   8.816 -1.8878  0.0283  0.7934
  532MOL0     H70207   2.410   8.385   8.725  1.8469  0.2337 -2.1898
  532MOL0     H70208   2.785   8.226   8.492 -1.3116  0.1780 -2.2095
  532MOL0     H70209   3.027   8.260   8.436  0.2525 -0.0575 -2.0215
  532MOL0     H70210   1.767   8.468   7.716 -2.2400 -0.3155 -2.7542
  532MOL0     H70211   1.572   8.612   7.675  3.0248 -2.1449 -0.4186
  532MOL0     H70212   1.145   8.759   7.980 -1.4737 -1.7652 -0.1748
  532MOL0     H70213   0.945   8.853   7.996  3.5419  0.5398  1.1002
  532MOL0     H70214   0.753   8.981   7.974  2.7668 -2.1987 -0.2275
  532MOL0     H70215   0.691   8.825   7.923  1.1137 -0.5003  0.3464
  532MOL0     H70216   0.604   9.106   7.819 -1.9768  0.4540 -0.4003
  532MOL0     H70217   0.522   8.948   7.795  1.7681  0.6989 -1.6754
  532MOL0     H70218   0.560   9.077   8.068  1.2150  0.8656 -0.5881
  532MOL0     H70219   0.478   8.924   8.037  1.6558 -0.9540 -0.7843
  532MOL0     H70220   0.316   9.037   7.884 -3.4894  1.0582  2.0985
  532MOL0     H70221   0.305   9.088   8.054 -2.2205 -3.4538  0.5437
  532MOL0     H70222   0.394   9.461   7.930  1.9205  0.5067  0.4543
  532MOL0     H70223   0.924   8.913   7.565  1.7119  1.3781 -0.7090
  532MOL0     H70224   1.138   8.779   7.555 -0.9586 -1.4346 -0.2273
  533MOL0     O70225   4.092   6.430   2.286  0.1897  0.6512 -0.1610
  533MOL0     C70226   4.184   6.508   2.253 -0.0239  0.2826  0.2820
  533MOL0     O70227   4.229   6.520   2.121  0.4866  0.7593  0.2209
  533MOL0     C70228   4.153   6.442   2.036 -0.9122 -0.2555 -0.3338
  533MOL0     C70229   4.211   6.336   1.964 -0.0072  0.2987  0.9691
  533MOL0     C70230   4.129   6.277   1.858 -0.7601 -0.1058 -0.3996
  533MOL0     C70231   3.995   6.305   1.848  0.3832 -0.5872  0.5272
  533MOL0     O70232   3.930   6.254   1.737  0.8933  0.2134  0.2190
  533MOL0     C70233   3.793   6.303   1.706  0.3119  0.5632 -0.5582
  533MOL0     C70234   3.760   6.261   1.561  0.0437  0.4257  0.0733
  533MOL0     C70235   3.646   6.341   1.506  0.1633  0.6581  0.3664
  533MOL0     C70236   3.533   6.370   1.603 -0.6232 -0.1706 -0.2140
  533MOL0     C70237   3.421   6.445   1.539  0.3325 -1.3714  0.8111
  533MOL0     C70238   3.456   6.581   1.473  0.7747 -0.2748 -0.4299
  533MOL0     C70239   3.333   6.678   1.459 -0.4155  0.1432 -0.0071
  533MOL0     C70240   3.221   6.626   1.363  1.1745 -0.0077  0.0255
  533MOL0     N70241   3.145   6.732   1.292  0.5464 -0.3408 -0.8436
  533MOL0     C70242   3.048   6.802   1.361 -0.0552  0.1185  0.9686
  533MOL0     C70243   3.015   6.900   1.273  0.3506  0.8690 -0.4936
  533MOL0     C70244   2.918   7.014   1.302  0.4272  0.6661  0.2746
  533MOL0     C70245   2.765   6.971   1.289  0.4236 -0.1218 -0.5612
  533MOL0     C70246   2.674   7.093   1.333 -0.8572  0.8533 -0.6615
  533MOL0     C70247   2.524   7.051   1.345  0.7989 -0.2263  0.2022
  533MOL0     O70248   2.492   7.012   1.485 -0.3099 -0.2002  0.2200
  533MOL0     C70249   2.359   7.026   1.528 -0.6963  0.4725 -1.1379
  533MOL0     C70250   2.338   7.046   1.664 -0.6556 -0.5526  0.0012
  533MOL0     C70251   2.205   7.068   1.714 -0.5554  1.0913  0.3436
  533MOL0     C70252   2.093   7.067   1.631 -0.6637 -0.0944 -0.5923
  533MOL0     C70253   1.951   7.080   1.687 -0.0364 -0.1349 -0.7020
  533MOL0     O70254   1.843   7.051   1.606  0.0019 -0.4022  0.5422
  533MOL0     C70255   1.720   7.036   1.673 -0.1063  0.5285 -0.0985
  533MOL0     C70256   1.630   7.138   1.682 -0.7031 -0.8284 -0.6438
  533MOL0     C70257   1.499   7.119   1.733 -0.0274  0.3553  0.8843
  533MOL0     C70258   1.464   6.993   1.779  1.0996  0.1515 -0.5505
  533MOL0     O70259   1.335   6.977   1.818 -0.0816  0.0398 -0.3074
  533MOL0     C70260   1.229   7.064   1.764  0.3568  1.2579 -1.1096
  533MOL0     C70261   1.102   6.984   1.776  0.3421 -0.1726  0.2442
  533MOL0     C70262   1.107   6.846   1.716  0.4569  0.0622 -0.3975
  533MOL0     C70263   0.974   6.770   1.714 -0.0468  0.3655 -0.4833
  533MOL0     C70264   0.990   6.616   1.659  0.9876 -0.3454  0.7778
  533MOL0     C70265   1.064   6.620   1.517 -0.0087  1.0295  0.0673
  533MOL0     C70266   1.039   6.481   1.454 -0.2318 -0.2185 -0.6315
  533MOL0     C70267   1.110   6.466   1.323 -0.1967 -0.4585  0.5914
  533MOL0    Cl70268   1.096   6.296   1.254 -0.0049 -0.0589  0.2298
  533MOL0     C70269   1.563   6.897   1.786  0.5247  0.8090 -0.8506
  533MOL0     C70270   1.685   6.916   1.720  0.0758 -0.6343 -0.1328
  533MOL0     O70271   1.943   7.090   1.804  0.6684  0.0070 -0.5692
  533MOL0     C70272   2.122   7.057   1.500 -1.1910  0.0022  0.5263
  533MOL0     C70273   2.248   7.034   1.447 -0.7999  0.3968  0.6334
  533MOL0     N70274   3.066   6.878   1.153 -0.8782 -0.6350 -0.0256
  533MOL0     N70275   3.136   6.768   1.160 -0.0068 -0.4406 -0.5851
  533MOL0     C70276   3.935   6.405   1.929 -1.0922 -1.2652 -0.4834
  533MOL0     C70277   4.015   6.471   2.019 -0.0265 -0.4486 -0.0372
  533MOL0     C70278   4.239   6.588   2.364 -0.1946 -0.5763  0.4403
  533MOL0     C70279   4.188   6.603   2.487 -0.8934 -0.0392 -0.4632
  533MOL0     C70280   4.245   6.696   2.574 -0.5713 -0.2918  0.5718
  533MOL0     C70281   4.348   6.789   2.538 -0.4972  1.2335 -0.1587
  533MOL0     O70282   4.402   6.888   2.616  0.1782  0.4862  0.1796
  533MOL0     C70283   4.334   6.941   2.727  0.4677  0.3288  0.5308
  533MOL0     C70284   4.415   7.031   2.815  0.1264 -0.2915 -1.1736
  533MOL0     C70285   4.514   7.134   2.745  0.6445 -0.7746  0.6666
  533MOL0     C70286   4.611   7.193   2.838  0.5347  0.7430 -1.6215
  533MOL0     C70287   4.538   7.265   2.949  0.3708  0.5576 -1.3440
  533MOL0     C70288   4.490   7.325   3.041 -0.0461  0.1706  0.6237
  533MOL0     C70289   4.410   6.756   2.419 -0.4464  0.0136 -0.7901
  533MOL0     C70290   4.357   6.658   2.336  1.2450  0.2908 -0.7416
  533MOL0     H70291   4.311   6.295   1.978 -0.7801 -1.4415  1.7123
  533MOL0     H70292   4.161   6.206   1.782  1.8462  0.0926  0.4367
  533MOL0     H70293   3.789   6.412   1.714 -1.5732  0.3782  3.1136
  533MOL0     H70294   3.730   6.253   1.780  0.7560  1.2634  0.3230
  533MOL0     H70295   3.744   6.152   1.563 -1.0793  0.5490 -1.3038
  533MOL0     H70296   3.848   6.287   1.502 -1.1548 -0.7335 -2.3597
  533MOL0     H70297   3.612   6.287   1.417  1.4824  0.1063  0.1862
  533MOL0     H70298   3.679   6.438   1.468 -1.5536 -0.3555 -4.5887
  533MOL0     H70299   3.507   6.275   1.650  1.9280 -0.9209 -0.1609
  533MOL0     H70300   3.576   6.430   1.684  4.7318 -3.2925 -0.2562
  533MOL0     H70301   3.344   6.452   1.617  0.1308 -1.7457  0.6458
  533MOL0     H70302   3.380   6.389   1.455 -0.2028 -2.2900  1.6591
  533MOL0     H70303   3.510   6.566   1.379  1.6065  1.0094 -0.1881
  533MOL0     H70304   3.528   6.641   1.531  1.2220 -0.4952 -0.7489
  533MOL0     H70305   3.295   6.703   1.558  2.0875 -2.3408  1.7198
  533MOL0     H70306   3.372   6.773   1.422 -0.6683  0.8999  1.5922
  533MOL0     H70307   3.149   6.569   1.422  0.1995  0.4238 -0.7219
  533MOL0     H70308   3.272   6.563   1.289  1.3657  1.1519 -0.8630
  533MOL0     H70309   3.011   6.786   1.462  0.4872  1.0811  1.3358
  533MOL0     H70310   2.936   7.090   1.226  0.6840 -0.7645 -1.1528
  533MOL0     H70311   2.935   7.039   1.407 -0.3434 -2.7110  1.3257
  533MOL0     H70312   2.741   6.885   1.352 -1.0460  0.6528 -0.0043
  533MOL0     H70313   2.725   6.954   1.188 -3.2360  1.2949  0.4882
  533MOL0     H70314   2.707   7.133   1.429 -0.6078 -2.4430  0.7580
  533MOL0     H70315   2.685   7.170   1.256  1.4713 -0.8558 -2.1882
  533MOL0     H70316   2.505   6.961   1.287  4.8769  0.1809 -2.1092
  533MOL0     H70317   2.451   7.129   1.320  0.9138 -0.5342 -1.1678
  533MOL0     H70318   2.426   7.060   1.727  1.2774 -2.8800 -1.9535
  533MOL0     H70319   2.186   7.082   1.820  0.0170 -3.6802  1.2880
  533MOL0     H70320   1.651   7.236   1.641 -1.9508 -0.3391 -0.1576
  533MOL0     H70321   1.423   7.196   1.732  1.5947  2.0476  1.2427
  533MOL0     H70322   1.249   7.098   1.662  1.8501 -0.5387 -1.4610
  533MOL0     H70323   1.225   7.146   1.836  0.2296 -2.4908  3.6390
  533MOL0     H70324   1.026   7.034   1.715 -0.8476 -0.3519  1.5308
  533MOL0     H70325   1.075   6.985   1.882 -0.5853  3.1117  0.0994
  533MOL0     H70326   1.179   6.784   1.771  1.0979  0.2021 -1.0580
  533MOL0     H70327   1.139   6.863   1.612  2.9058  2.6702  0.6494
  533MOL0     H70328   0.935   6.779   1.816 -0.4593  1.9361 -0.7599
  533MOL0     H70329   0.908   6.826   1.648 -1.0977 -1.6475 -1.2521
  533MOL0     H70330   0.892   6.569   1.661  0.4119  0.7688 -0.1595
  533MOL0     H70331   1.040   6.549   1.730 -1.5595 -3.5801 -0.2425
  533MOL0     H70332   1.171   6.638   1.532  0.0168  0.4911  0.5582
  533MOL0     H70333   1.026   6.709   1.466  0.3033  0.9941 -0.2277
  533MOL0     H70334   1.064   6.399   1.521 -0.6176  0.7202  0.7085
  533MOL0     H70335   0.932   6.470   1.434 -0.7978 -0.9789  2.3205
  533MOL0     H70336   1.213   6.490   1.349  0.0579  0.5206 -1.1556
  533MOL0     H70337   1.074   6.549   1.261 -0.0379 -0.3612  0.6285
  533MOL0     H70338   1.530   6.795   1.802 -0.9072  1.2269 -1.0315
  533MOL0     H70339   1.759   6.838   1.708 -0.7423 -1.3785 -0.5329
  533MOL0     H70340   2.035   7.055   1.435 -1.0909  0.2344  0.3815
  533MOL0     H70341   2.249   7.021   1.339 -2.4935 -0.6005  0.6885
  533MOL0     H70342   3.832   6.437   1.922 -0.5336  0.9691  0.5325
  533MOL0     H70343   3.970   6.552   2.076  2.9346  0.6470  0.9126
  533MOL0     H70344   4.118   6.534   2.532  2.2060 -1.0892  3.3034
  533MOL0     H70345   4.218   6.676   2.677 -1.2091 -2.1248  0.0792
  533MOL0     H70346   4.301   6.856   2.788  0.9209 -0.5325 -0.3811
  533MOL0     H70347   4.247   6.992   2.685  0.1056 -1.4311 -1.0190
  533MOL0     H70348   4.344   7.095   2.867  1.1921 -1.8218  2.4610
  533MOL0     H70349   4.472   6.963   2.880  0.1522  0.5154 -0.3341
  533MOL0     H70350   4.463   7.217   2.696  0.6280 -1.2938 -0.2183
  533MOL0     H70351   4.578   7.089   2.668  1.5138  1.9917 -0.3826
  533MOL0     H70352   4.659   7.105   2.881 -1.7114 -0.6951 -1.8785
  533MOL0     H70353   4.692   7.254   2.798  3.2224 -1.4081  0.1543
  533MOL0     H70354   4.458   7.381   3.127  1.0022 -0.0361  1.1619
  533MOL0     H70355   4.501   6.803   2.384  0.9727 -3.1347 -1.5950
  533MOL0     H70356   4.393   6.657   2.234 -1.3341  0.6669 -1.7098
  534MOL0     O70357   2.263  10.872   0.771 -0.1380  0.0637  0.0111
  534MOL0     C70358   2.323  10.973   0.795  0.0521 -0.6336  0.1682
  534MOL0     O70359   2.449  11.004   0.766 -0.0342  0.8485  0.4838
  534MOL0     C70360   2.517  10.901   0.707 -0.7806 -0.0832  0.0002
  534MOL0     C70361   2.517  10.884   0.569  0.5147 -0.2031 -0.1236
  534MOL0     C70362   2.596  10.778   0.514  1.7056  0.1883  0.0832
  534MOL0     C70363   2.684  10.708   0.598 -0.5479  0.1806  0.0878
  534MOL0     O70364   2.771  10.611   0.552 -0.5603  0.0865 -0.2140
  534MOL0     C70365   2.826  10.633   0.421  0.0141  0.5466  0.2874
  534MOL0     C70366   2.785  10.519   0.318  0.0375  0.3062  0.3060
  534MOL0     C70367   2.776  10.572   0.171 -0.7170 -0.2886  0.3046
  534MOL0     C70368   2.722  10.462   0.084 -0.7576 -0.0532 -0.5774
  534MOL0     C70369   2.740  10.491  -0.068  0.4260  0.6240 -0.3032
  534MOL0     C70370   2.686  10.626  -0.116 -0.1163  0.3234  0.5606
  534MOL0     C70371   2.683  10.633  -0.279 -0.1155 -0.3096 -0.8351
  534MOL0     C70372   2.654  10.766  -0.339 -0.6447 -0.7970  0.3269
  534MOL0     N70373   2.676  10.765  -0.488  0.3386 -0.1709  0.0115
  534MOL0     C70374   2.577  10.786  -0.581 -0.2651  0.4830 -0.0122
  534MOL0     C70375   2.640  10.784  -0.702 -0.1290 -0.1448  0.3590
  534MOL0     C70376   2.572  10.801  -0.831 -0.2781  0.0051  1.2941
  534MOL0     C70377   2.425  10.792  -0.836  0.4838  0.1393 -0.2078
  534MOL0     C70378   2.381  10.825  -0.977  0.7028 -0.3379 -0.3183
  534MOL0     C70379   2.234  10.791  -0.989  0.8198 -0.0347  0.5809
  534MOL0     O70380   2.199  10.779  -1.135 -0.4304 -0.5168 -0.9461
  534MOL0     C70381   2.097  10.698  -1.157 -0.2921  0.4145 -0.2656
  534MOL0     C70382   1.986  10.683  -1.069 -0.7122  0.5547 -0.5442
  534MOL0     C70383   1.886  10.587  -1.097  0.0784 -0.8995 -0.0606
  534MOL0     C70384   1.904  10.498  -1.207 -0.2717 -0.0668  0.3002
  534MOL0     C70385   1.801  10.399  -1.247  0.8237 -0.0831  0.0716
  534MOL0     O70386   1.724  10.366  -1.140  0.0484 -0.1043  0.1139
  534MOL0     C70387   1.633  10.267  -1.154  0.9753 -0.8159  0.3900
  534MOL0     C70388   1.650  10.137  -1.218 -0.4202 -0.5975  1.1322
  534MOL0     C70389   1.550  10.041  -1.226  0.7494  0.4708 -0.1277
  534MOL0     C70390   1.424  10.060  -1.173  0.6355  0.2451 -1.3647
  534MOL0     O70391   1.319   9.969  -1.160 -0.4940  0.2473 -0.2152
  534MOL0     C70392   1.337   9.834  -1.221  0.1658 -0.8784  0.3998
  534MOL0     C70393   1.244   9.746  -1.157  0.1417 -0.3751 -0.0379
  534MOL0     C70394   1.107   9.802  -1.151  0.2049  0.6184 -0.0178
  534MOL0     C70395   1.012   9.705  -1.075  0.0746 -0.0071 -0.0531
  534MOL0     C70396   0.875   9.748  -1.058 -0.0309 -0.7060  0.8268
  534MOL0     C70397   0.785   9.657  -0.973  0.5680 -0.2434  0.1495
  534MOL0     C70398   0.650   9.729  -0.954  1.2818  0.6216  0.6999
  534MOL0     C70399   0.548   9.629  -0.902  0.2108  0.6052 -0.4166
  534MOL0    Cl70400   0.395   9.719  -0.869 -0.2970  0.0577 -0.2093
  534MOL0     C70401   1.399  10.185  -1.116  0.8160  0.4094 -0.8617
  534MOL0     C70402   1.503  10.281  -1.095 -0.4177  0.0342  0.0289
  534MOL0     O70403   1.804  10.345  -1.358  0.5017 -0.0200 -0.6948
  534MOL0     C70404   2.009  10.514  -1.299 -0.2430 -1.6097 -1.4987
  534MOL0     C70405   2.106  10.610  -1.261 -0.1217 -0.6399 -0.4230
  534MOL0     N70406   2.776  10.764  -0.682  0.4126  0.2781  0.1145
  534MOL0     N70407   2.797  10.756  -0.558 -0.5707 -0.4461 -0.9476
  534MOL0     C70408   2.685  10.738   0.734 -0.5139  0.3583  0.5037
  534MOL0     C70409   2.605  10.833   0.788 -0.5895 -0.2119 -0.6869
  534MOL0     C70410   2.239  11.079   0.857 -0.3237 -0.8900 -0.1959
  534MOL0     C70411   2.284  11.208   0.897  0.0080  1.1877 -0.2058
  534MOL0     C70412   2.193  11.298   0.947 -0.2039 -0.2183 -0.0011
  534MOL0     C70413   2.067  11.268   0.976 -0.4389 -0.0945  0.4470
  534MOL0     O70414   1.999  11.366   1.047  0.0677  0.0012 -0.3893
  534MOL0     C70415   1.873  11.318   1.102 -0.1199 -0.6592 -0.7531
  534MOL0     C70416   1.820  11.410   1.203 -0.8055  0.0813 -0.0812
  534MOL0     C70417   1.682  11.367   1.253 -0.0498  1.2039  0.9914
  534MOL0     C70418   1.613  11.494   1.303 -1.0000  0.1818 -0.2548
  534MOL0     C70419   1.592  11.591   1.195 -0.1608  0.5545  1.2656
  534MOL0     C70420   1.580  11.675   1.110  0.6412 -0.3555 -0.9177
  534MOL0     C70421   2.019  11.141   0.944 -0.8642  0.2766 -0.6446
  534MOL0     C70422   2.099  11.049   0.884 -0.6127 -0.3115 -0.2869
  534MOL0     H70423   2.439  10.929   0.508  0.4018  2.0404  1.5451
  534MOL0     H70424   2.588  10.748   0.410  1.2361 -0.0268  0.1771
  534MOL0     H70425   2.935  10.632   0.430  0.3685  1.0532 -2.8496
  534MOL0     H70426   2.796  10.733   0.389  1.3804  0.9904  0.3291
  534MOL0     H70427   2.688  10.478   0.347 -0.4621  2.8241  2.6769
  534MOL0     H70428   2.855  10.435   0.320 -0.3260 -0.0479 -1.0822
  534MOL0     H70429   2.866  10.616   0.127 -0.9244 -2.0665 -2.0628
  534MOL0     H70430   2.703  10.654   0.177  0.0743  0.6099 -1.5355
  534MOL0     H70431   2.774  10.370   0.112  0.0929  0.3199 -0.9214
  534MOL0     H70432   2.619  10.451   0.120 -0.3118 -1.0552  0.4536
  534MOL0     H70433   2.690  10.411  -0.123  0.8280  1.2423 -1.5962
  534MOL0     H70434   2.846  10.483  -0.094  0.4250 -2.5306  0.1896
  534MOL0     H70435   2.740  10.712  -0.076 -0.9494  0.0762  2.2993
  534MOL0     H70436   2.586  10.613  -0.074  0.9316 -2.1002  2.5936
  534MOL0     H70437   2.784  10.604  -0.308 -1.1304 -3.2195 -1.7316
  534MOL0     H70438   2.618  10.557  -0.323 -1.3987  0.9486 -1.2138
  534MOL0     H70439   2.712  10.841  -0.285 -0.3140 -1.3021  0.6847
  534MOL0     H70440   2.549  10.782  -0.313 -0.1823  1.1936  1.1181
  534MOL0     H70441   2.472  10.800  -0.562 -0.4920 -2.6655  1.7614
  534MOL0     H70442   2.611  10.724  -0.899 -4.3641 -0.3112 -0.9575
  534MOL0     H70443   2.604  10.896  -0.875 -4.0827  1.4701  1.3671
  534MOL0     H70444   2.369  10.844  -0.758  1.4920 -0.1960  0.7679
  534MOL0     H70445   2.393  10.689  -0.818  1.5285 -0.0809  0.4734
  534MOL0     H70446   2.418  10.926  -0.999  3.4067 -1.7950 -3.3871
  534MOL0     H70447   2.432  10.765  -1.053  2.4129 -0.4421  0.8500
  534MOL0     H70448   2.184  10.881  -0.953  2.9583  1.6912 -0.4882
  534MOL0     H70449   2.202  10.703  -0.933  0.1581  0.0482  0.3429
  534MOL0     H70450   1.995  10.743  -0.979 -1.0195 -2.1944  1.4389
  534MOL0     H70451   1.797  10.586  -1.035  0.5129 -1.6627  0.5590
  534MOL0     H70452   1.748  10.128  -1.264 -1.8962 -2.4973 -1.9913
  534MOL0     H70453   1.566   9.945  -1.275  1.4388  0.1784  0.6437
  534MOL0     H70454   1.433   9.784  -1.204  0.7510  0.1376  0.2034
  534MOL0     H70455   1.319   9.847  -1.328  2.7432 -0.2570 -0.0200
  534MOL0     H70456   1.268   9.728  -1.052 -0.2687 -0.7622 -0.0028
  534MOL0     H70457   1.252   9.647  -1.204 -1.5333  0.0094 -1.2052
  534MOL0     H70458   1.077   9.804  -1.256 -0.1262  1.7764  0.0865
  534MOL0     H70459   1.101   9.905  -1.114 -0.3383  0.9551 -0.9992
  534MOL0     H70460   1.013   9.607  -1.124  0.9404 -0.0385  0.0089
  534MOL0     H70461   1.046   9.707  -0.971 -1.3195  0.9157  0.4077
  534MOL0     H70462   0.834   9.764  -1.159  0.4839  0.4323  0.7811
  534MOL0     H70463   0.883   9.849  -1.018  1.2602 -0.0489 -0.9374
  534MOL0     H70464   0.827   9.634  -0.874  2.6041 -0.3344 -0.7011
  534MOL0     H70465   0.774   9.558  -1.018 -2.5036  0.1085 -0.0876
  534MOL0     H70466   0.664   9.810  -0.882 -0.3022 -0.9407  2.9006
  534MOL0     H70467   0.615   9.770  -1.049  2.6411  1.9898  0.7563
  534MOL0     H70468   0.588   9.595  -0.806  0.5369  2.8131  0.2886
  534MOL0     H70469   0.528   9.542  -0.964 -2.0135 -0.3923  1.5485
  534MOL0     H70470   1.296  10.205  -1.089  0.0076 -4.1624  0.3407
  534MOL0     H70471   1.488  10.377  -1.046 -3.6019 -0.2036 -0.2316
  534MOL0     H70472   2.021  10.459  -1.391 -1.8526  0.4953 -3.0595
  534MOL0     H70473   2.196  10.628  -1.319 -1.0272  0.1469 -1.6471
  534MOL0     H70474   2.746  10.670   0.792 -0.3121 -0.7784 -0.9771
  534MOL0     H70475   2.601  10.866   0.891 -0.8607 -3.3462  0.4084
  534MOL0     H70476   2.387  11.238   0.878  0.7208 -1.2943 -0.5625
  534MOL0     H70477   2.225  11.398   0.972 -2.9124  0.9187 -0.7850
  534MOL0     H70478   1.883  11.224   1.157  2.1716  0.7570  1.4400
  534MOL0     H70479   1.800  11.309   1.020 -1.6866 -2.6218  0.7478
  534MOL0     H70480   1.884  11.418   1.291 -1.7267 -0.3310  0.6446
  534MOL0     H70481   1.829  11.507   1.154  1.1182 -1.1126 -2.3014
  534MOL0     H70482   1.701  11.285   1.323 -0.8579 -0.3627 -0.5496
  534MOL0     H70483   1.622  11.315   1.177  3.2195 -1.4980 -0.0192
  534MOL0     H70484   1.521  11.450   1.343 -1.8993 -0.0639 -2.4657
  534MOL0     H70485   1.663  11.551   1.382 -0.6771  3.0238 -2.3664
  534MOL0     H70486   1.559  11.740   1.028 -1.5090 -1.9709 -1.7585
  534MOL0     H70487   1.922  11.096   0.966  0.5131 -1.3671  3.0515
  534MOL0     H70488   2.055  10.951   0.870 -0.9352 -0.4853  1.6551
  535MOL0     O70489   3.574   2.174   6.675  0.1140  0.6780 -0.2250
  535MOL0     C70490   3.581   2.098   6.582 -0.3010 -0.1074 -0.4418
  535MOL0     O70491   3.483   2.027   6.530  0.2435  0.5818 -0.5353
  535MOL0     C70492   3.371   1.996   6.599  0.9883  0.0820  0.4030
  535MOL0     C70493   3.355   1.972   6.744 -0.1230  0.5259 -0.8576
  535MOL0     C70494   3.246   1.898   6.804 -0.8252  0.9081 -0.2282
  535MOL0     C70495   3.145   1.849   6.729 -0.4022  0.4609  0.5175
  535MOL0     O70496   3.034   1.792   6.785 -0.4757  0.4806 -0.1747
  535MOL0     C70497   3.004   1.813   6.919  0.3308 -0.0009  0.1555
  535MOL0     C70498   2.853   1.780   6.944 -0.3840  0.0083 -0.0609
  535MOL0     C70499   2.763   1.887   6.881 -0.3079 -0.1804 -0.9274
  535MOL0     C70500   2.673   1.827   6.773 -0.5472 -0.8640  0.1476
  535MOL0     C70501   2.741   1.781   6.640 -0.8279  0.1581 -0.0672
  535MOL0     C70502   2.635   1.755   6.541 -0.1496 -0.0761 -0.1062
  535MOL0     C70503   2.679   1.662   6.428  0.7107 -0.5798 -0.3257
  535MOL0     C70504   2.558   1.582   6.370  0.6680 -0.4911  0.0569
  535MOL0     N70505   2.586   1.506   6.250 -0.0248  0.0975  0.2580
  535MOL0     C70506   2.597   1.371   6.231  0.0301 -1.3554 -0.2699
  535MOL0     C70507   2.646   1.356   6.107  1.0973  0.0791  0.3685
  535MOL0     C70508   2.684   1.221   6.053  0.6501 -0.0140  1.2203
  535MOL0     C70509   2.565   1.150   5.982  0.0145  0.4125 -0.6791
  535MOL0     C70510   2.604   1.022   5.918 -0.6103 -0.0937  0.4374
  535MOL0     C70511   2.479   0.933   5.891 -0.0385  0.1308  0.4894
  535MOL0     O70512   2.381   1.019   5.831 -1.2607  0.3180  0.3044
  535MOL0     C70513   2.269   0.971   5.772  0.7402 -0.5732 -0.2780
  535MOL0     C70514   2.179   1.057   5.699 -0.2351 -0.0376 -0.8236
  535MOL0     C70515   2.072   1.006   5.619 -0.6365  0.2255 -0.6327
  535MOL0     C70516   2.055   0.871   5.608  0.2927 -0.8105  0.1005
  535MOL0     C70517   1.945   0.819   5.534  0.0586  0.4459  0.0889
  535MOL0     O70518   1.922   0.684   5.542  0.2067  0.7268  0.3169
  535MOL0     C70519   1.809   0.637   5.476 -0.2238 -0.6154 -0.9384
  535MOL0     C70520   1.816   0.545   5.370 -0.2467 -0.9534 -0.4471
  535MOL0     C70521   1.703   0.500   5.307 -0.3646  0.4139  0.1712
  535MOL0     C70522   1.574   0.544   5.361  0.5083 -0.8355  1.3880
  535MOL0     O70523   1.457   0.495   5.290 -0.6807 -0.5970 -0.1720
  535MOL0     C70524   1.337   0.575   5.291  0.8616  0.1298  0.1611
  535MOL0     C70525   1.223   0.513   5.203  0.2907 -0.1735  0.4413
  535MOL0     C70526   1.086   0.568   5.223  0.4469 -0.0548  0.3625
  535MOL0     C70527   0.983   0.546   5.106 -0.1025  0.0597 -0.6305
  535MOL0     C70528   0.868   0.639   5.133 -0.4825  0.4357  0.3370
  535MOL0     C70529   0.767   0.647   5.013  0.1161 -0.3419 -0.2024
  535MOL0     C70530   0.677   0.778   5.020 -0.8376  0.2979 -0.1354
  535MOL0     C70531   0.569   0.783   4.909 -0.0610  0.0140 -0.5255
  535MOL0    Cl70532   0.476   0.942   4.898 -0.7094  0.0037  0.2071
  535MOL0     C70533   1.562   0.634   5.468  0.9206  0.8818  1.5016
  535MOL0     C70534   1.681   0.684   5.513  0.1420 -0.1664 -0.3937
  535MOL0     O70535   1.888   0.898   5.457  0.1986  0.6260  0.3937
  535MOL0     C70536   2.137   0.781   5.679 -0.3841  0.2785 -0.3211
  535MOL0     C70537   2.240   0.832   5.762  0.1375 -0.2513 -0.1169
  535MOL0     N70538   2.663   1.480   6.048  0.0522  0.8984 -0.1996
  535MOL0     N70539   2.620   1.569   6.130  0.2342  0.6271 -0.4495
  535MOL0     C70540   3.152   1.865   6.590 -0.1767 -0.2434 -0.4430
  535MOL0     C70541   3.257   1.945   6.519 -0.6243  0.3947  0.4824
  535MOL0     C70542   3.710   2.073   6.520 -0.3608 -1.4459 -0.2603
  535MOL0     C70543   3.821   2.118   6.586 -0.9822 -0.2802 -0.4763
  535MOL0     C70544   3.951   2.115   6.533 -0.8405  1.0246 -0.7421
  535MOL0     C70545   3.972   2.061   6.407  0.6430  1.0261  0.1962
  535MOL0     O70546   4.101   2.041   6.373 -0.0276  0.2980  0.0903
  535MOL0     C70547   4.131   1.995   6.231  0.3835  0.0934 -0.5778
  535MOL0     C70548   4.279   2.024   6.203  0.2486 -0.2766  0.8943
  535MOL0     C70549   4.294   2.068   6.056 -0.9054  0.6467 -0.1968
  535MOL0     C70550   4.241   2.207   6.021 -0.7152 -1.3895 -0.7279
  535MOL0     C70551   4.102   2.202   5.983 -0.2100 -0.1200  0.3379
  535MOL0     C70552   3.984   2.192   5.949 -0.2575 -0.1100 -0.8627
  535MOL0     C70553   3.858   2.005   6.340  0.1730  0.1784  0.4788
  535MOL0     C70554   3.729   2.005   6.401 -1.2202  0.0556  0.0432
  535MOL0     H70555   3.421   2.016   6.818 -0.8587 -0.4713  0.4280
  535MOL0     H70556   3.238   1.900   6.912 -0.5156 -2.3191 -0.0742
  535MOL0     H70557   3.017   1.909   6.969  0.7011 -1.0090  2.0661
  535MOL0     H70558   3.066   1.747   6.980 -1.2293  0.3396  2.1912
  535MOL0     H70559   2.839   1.777   7.052  1.1414 -2.3586  0.1414
  535MOL0     H70560   2.818   1.686   6.901 -0.5912 -0.4294  1.0444
  535MOL0     H70561   2.826   1.970   6.848 -0.5488  0.4676  0.1790
  535MOL0     H70562   2.698   1.940   6.952  1.0607  5.6225 -3.4592
  535MOL0     H70563   2.610   1.743   6.803 -0.0563 -1.1261  0.4450
  535MOL0     H70564   2.602   1.909   6.755  1.1271  1.2370  2.4184
  535MOL0     H70565   2.806   1.694   6.648  0.3689  0.8296 -1.9594
  535MOL0     H70566   2.802   1.862   6.599  1.2597 -0.6138  1.3837
  535MOL0     H70567   2.599   1.847   6.495 -0.5887 -0.8503 -1.3398
  535MOL0     H70568   2.563   1.688   6.589 -1.5835 -0.1612 -2.2302
  535MOL0     H70569   2.724   1.726   6.352 -1.3980 -2.6200 -3.5218
  535MOL0     H70570   2.749   1.588   6.468 -1.6354 -3.3061 -0.8509
  535MOL0     H70571   2.473   1.645   6.345  0.9701 -0.6160 -1.3510
  535MOL0     H70572   2.545   1.502   6.444 -3.0885 -1.3185 -1.2767
  535MOL0     H70573   2.570   1.294   6.302 -1.5780  0.5971  1.3637
  535MOL0     H70574   2.716   1.148   6.128 -2.1700 -2.4168  0.2818
  535MOL0     H70575   2.753   1.236   5.969 -1.5244  0.7687 -0.5091
  535MOL0     H70576   2.514   1.220   5.915  1.1736  2.6283  0.6741
  535MOL0     H70577   2.490   1.137   6.060  2.3934  1.4010  1.9183
  535MOL0     H70578   2.653   1.039   5.822  2.0492 -0.3044  1.6493
  535MOL0     H70579   2.674   0.970   5.984 -0.5161  0.5101  0.8256
  535MOL0     H70580   2.444   0.889   5.985 -0.9026  1.6352  0.9030
  535MOL0     H70581   2.514   0.860   5.817  0.5897  2.2193 -1.3884
  535MOL0     H70582   2.191   1.164   5.705  1.5510 -0.2795  0.8669
  535MOL0     H70583   2.002   1.073   5.570 -0.8158 -0.7013 -1.6692
  535MOL0     H70584   1.913   0.514   5.332 -0.5011  0.3741 -2.3219
  535MOL0     H70585   1.717   0.440   5.218 -0.6010 -1.0402  1.0792
  535MOL0     H70586   1.359   0.678   5.263 -0.6697  0.4764  0.1233
  535MOL0     H70587   1.302   0.590   5.394  1.1047 -1.9108  0.5996
  535MOL0     H70588   1.216   0.404   5.214  1.9024 -0.3251  0.2846
  535MOL0     H70589   1.257   0.543   5.103 -1.4330  2.1514  0.4853
  535MOL0     H70590   1.109   0.675   5.219  1.9709 -0.3870 -1.5312
  535MOL0     H70591   1.033   0.544   5.315  0.4989  0.2996  0.4890
  535MOL0     H70592   1.033   0.574   5.012  0.4899 -2.1400 -1.0160
  535MOL0     H70593   0.955   0.443   5.083  1.9455 -0.3161 -1.6794
  535MOL0     H70594   0.918   0.735   5.150 -0.1597  0.7008 -1.8106
  535MOL0     H70595   0.810   0.606   5.219 -1.1668  1.6883  0.3802
  535MOL0     H70596   0.706   0.558   4.995  0.5251 -0.1329 -3.0136
  535MOL0     H70597   0.832   0.632   4.927  0.7703 -1.3849  0.4494
  535MOL0     H70598   0.628   0.774   5.117  0.1787 -1.4254  0.3647
  535MOL0     H70599   0.746   0.861   5.003 -0.5671  0.1305  0.1278
  535MOL0     H70600   0.499   0.703   4.934  0.5223  0.0381  1.2957
  535MOL0     H70601   0.609   0.767   4.808 -0.1400  1.6593 -0.8470
  535MOL0     H70602   1.469   0.660   5.516 -0.0646 -0.9047  0.6421
  535MOL0     H70603   1.674   0.747   5.601  2.3091 -3.4443  2.3601
  535MOL0     H70604   2.125   0.673   5.675 -1.3133  0.2310  2.0976
  535MOL0     H70605   2.304   0.762   5.815 -0.7646 -0.9648  0.0754
  535MOL0     H70606   3.080   1.809   6.531 -0.9619 -0.0986  0.3546
  535MOL0     H70607   3.268   1.959   6.412 -1.5619  1.3124  0.4949
  535MOL0     H70608   3.813   2.145   6.690 -1.0968  3.1274 -1.2592
  535MOL0     H70609   4.033   2.151   6.594 -0.7622  0.4278 -0.4891
  535MOL0     H70610   4.061   2.046   6.163 -0.6767 -1.6422 -0.8395
  535MOL0     H70611   4.103   1.891   6.212 -1.5875  0.1785  1.4090
  535MOL0     H70612   4.320   2.099   6.271 -1.1602  0.0405  1.4249
  535MOL0     H70613   4.334   1.932   6.225  1.5621  0.7247  1.9848
  535MOL0     H70614   4.252   1.991   5.991  0.6983 -0.3493 -0.0902
  535MOL0     H70615   4.401   2.060   6.039 -1.2337  0.5749 -2.5839
  535MOL0     H70616   4.264   2.283   6.096  0.2325 -1.8284 -0.5673
  535MOL0     H70617   4.292   2.245   5.932 -1.1223  0.3306 -0.2646
  535MOL0     H70618   3.888   2.186   5.901 -1.2252 -2.3184  1.1494
  535MOL0     H70619   3.872   1.965   6.240 -0.0366 -0.1598  0.5813
  535MOL0     H70620   3.646   1.953   6.356 -2.8303  1.2288  1.5288
  536MOL0     O70621   6.158   4.593   5.313  0.1111 -0.2116  0.0126
  536MOL0     C70622   6.059   4.529   5.358 -0.4671  0.7616  0.2401
  536MOL0     O70623   6.053   4.479   5.479 -0.2466 -0.1834  0.1252
  536MOL0     C70624   6.167   4.466   5.552 -0.5553  0.9990  0.9930
  536MOL0     C70625   6.179   4.532   5.675  0.4477 -0.3542 -0.1316
  536MOL0     C70626   6.303   4.533   5.743  0.9629  0.2099 -0.6326
  536MOL0     C70627   6.403   4.450   5.693 -0.9110 -0.8070  0.4215
  536MOL0     O70628   6.527   4.429   5.745  0.5899  0.3948 -0.0821
  536MOL0     C70629   6.571   4.533   5.841  1.1051  0.0221  0.4619
  536MOL0     C70630   6.713   4.523   5.873 -0.8185 -0.3407 -0.1463
  536MOL0     C70631   6.740   4.394   5.957  0.0585  0.2056 -0.2613
  536MOL0     C70632   6.891   4.380   5.996  0.7165 -0.7146  0.0454
  536MOL0     C70633   6.913   4.250   6.063 -1.6082  0.1926  0.2338
  536MOL0     C70634   7.065   4.234   6.107 -0.0885 -0.6526  0.4498
  536MOL0     C70635   7.110   4.095   6.118  0.1188  0.4350 -0.4325
  536MOL0     C70636   7.174   4.052   6.254 -0.0685 -0.2327 -0.0873
  536MOL0     N70637   7.317   4.095   6.269  0.2714 -0.0181  0.4340
  536MOL0     C70638   7.361   4.214   6.318 -0.5454  0.1751 -0.0699
  536MOL0     C70639   7.504   4.200   6.301  0.4265  0.2634  0.7162
  536MOL0     C70640   7.615   4.304   6.349  0.3802  0.3921 -0.3259
  536MOL0     C70641   7.558   4.443   6.327 -0.8129  0.5009  0.1966
  536MOL0     C70642   7.595   4.502   6.187 -0.2955 -0.3649  0.9034
  536MOL0     C70643   7.514   4.449   6.072  0.8442 -0.0006  0.0735
  536MOL0     O70644   7.376   4.446   6.105  0.4800  0.5017  0.3775
  536MOL0     C70645   7.301   4.562   6.090 -0.8041  0.3286 -0.3331
  536MOL0     C70646   7.179   4.576   6.153 -1.1180  0.6302  0.1367
  536MOL0     C70647   7.093   4.681   6.138  0.7649  0.2623 -0.3313
  536MOL0     C70648   7.124   4.790   6.063 -0.0579 -0.4372 -0.1686
  536MOL0     C70649   7.022   4.894   6.053  0.9535 -0.4162 -0.5138
  536MOL0     O70650   6.905   4.889   6.130 -0.2160  0.0361  0.1586
  536MOL0     C70651   6.820   4.990   6.118 -0.5082  0.3805  0.1417
  536MOL0     C70652   6.715   4.977   6.025  0.1288  1.0581  0.3075
  536MOL0     C70653   6.615   5.082   6.005 -0.1924 -0.5453  0.0618
  536MOL0     C70654   6.630   5.197   6.080 -0.1369  0.6312 -1.2047
  536MOL0     O70655   6.559   5.309   6.072  0.4441  0.1343 -0.0049
  536MOL0     C70656   6.436   5.289   6.006 -0.1881  0.3768 -0.7104
  536MOL0     C70657   6.353   5.411   6.035 -0.3227  0.2361 -0.1743
  536MOL0     C70658   6.225   5.416   5.940  0.4230 -0.4347 -0.6593
  536MOL0     C70659   6.160   5.559   5.987 -0.2472  0.0804 -0.1787
  536MOL0     C70660   6.016   5.581   5.930 -0.0852  0.0831  0.8873
  536MOL0     C70661   6.025   5.639   5.785  0.5407  0.3191  0.0062
  536MOL0     C70662   5.902   5.647   5.694  0.2333  0.2482  0.3754
  536MOL0     C70663   5.789   5.728   5.749  1.1440 -0.3956  0.7457
  536MOL0    Cl70664   5.680   5.774   5.610 -0.3500 -0.0334  0.5762
  536MOL0     C70665   6.715   5.191   6.189 -0.3755  0.2911 -0.4087
  536MOL0     C70666   6.810   5.094   6.207 -0.5230 -0.8321  0.0164
  536MOL0     O70667   7.053   4.986   5.980 -0.1876  0.3563  0.4811
  536MOL0     C70668   7.263   4.805   6.023  0.6164  1.1642  0.6418
  536MOL0     C70669   7.343   4.684   6.034 -0.1883  0.2554 -0.2625
  536MOL0     N70670   7.528   4.082   6.244  0.5830  1.2724 -0.4535
  536MOL0     N70671   7.417   4.023   6.222  0.7411  0.2298 -0.0345
  536MOL0     C70672   6.381   4.367   5.581 -0.3239  0.3883  0.7254
  536MOL0     C70673   6.262   4.375   5.520 -0.1156 -1.1098  1.2423
  536MOL0     C70674   5.941   4.519   5.271  0.1538  0.3297  0.3193
  536MOL0     C70675   5.829   4.461   5.318  0.3495 -0.3694  0.3941
  536MOL0     C70676   5.722   4.438   5.237  0.2679 -0.6538  0.4557
  536MOL0     C70677   5.724   4.475   5.101 -0.1426 -0.4604 -0.7001
  536MOL0     O70678   5.607   4.453   5.030  0.0726  0.0672  0.3382
  536MOL0     C70679   5.606   4.506   4.899 -0.1040 -0.1639 -0.2947
  536MOL0     C70680   5.461   4.505   4.862 -0.9911 -0.5707 -0.5562
  536MOL0     C70681   5.397   4.367   4.820  0.2789  0.2153  0.6048
  536MOL0     C70682   5.247   4.392   4.791  0.5359  0.5781  0.3418
  536MOL0     C70683   5.153   4.421   4.901 -0.3807 -0.5068  0.5451
  536MOL0     C70684   5.069   4.441   4.984 -0.6752  0.5111  0.5242
  536MOL0     C70685   5.840   4.535   5.055  0.1984 -1.2042 -0.5528
  536MOL0     C70686   5.942   4.562   5.138 -0.0107  0.3690 -0.4612
  536MOL0     H70687   6.100   4.587   5.725 -0.8628 -2.8407  0.7032
  536MOL0     H70688   6.308   4.595   5.832 -0.2848  1.3418 -1.3106
  536MOL0     H70689   6.505   4.511   5.925 -0.0653 -2.1690 -0.9397
  536MOL0     H70690   6.547   4.634   5.806 -0.5593 -0.4835  0.0190
  536MOL0     H70691   6.741   4.615   5.927  0.7246 -1.8756  1.8524
  536MOL0     H70692   6.779   4.515   5.786  1.6062 -2.8003  1.6972
  536MOL0     H70693   6.708   4.303   5.904 -0.4120  1.0523 -1.4786
  536MOL0     H70694   6.683   4.400   6.050  0.4036 -1.2019  0.0760
  536MOL0     H70695   6.955   4.378   5.907  1.6046 -1.8249  0.6777
  536MOL0     H70696   6.920   4.463   6.061 -0.7762 -1.0141  1.1329
  536MOL0     H70697   6.885   4.173   5.990 -1.7331  0.8062 -0.3658
  536MOL0     H70698   6.846   4.233   6.149  0.6601 -1.3171  1.8283
  536MOL0     H70699   7.091   4.286   6.200  2.1826  0.0594 -0.5154
  536MOL0     H70700   7.132   4.281   6.034  0.4237 -0.4313  1.0493
  536MOL0     H70701   7.034   4.019   6.094 -2.5827  3.3298 -1.7138
  536MOL0     H70702   7.178   4.076   6.034 -1.7334  1.2485 -2.1956
  536MOL0     H70703   7.164   3.944   6.268 -3.1442  0.2241  2.3980
  536MOL0     H70704   7.117   4.104   6.332 -0.4881  0.7607 -1.0301
  536MOL0     H70705   7.293   4.282   6.369 -2.1379 -1.1228 -0.3732
  536MOL0     H70706   7.707   4.290   6.291  0.3826 -1.4042  0.0538
  536MOL0     H70707   7.633   4.284   6.455 -0.6348 -1.7190 -0.5171
  536MOL0     H70708   7.616   4.502   6.399 -1.9333 -0.4511  1.9641
  536MOL0     H70709   7.449   4.451   6.332 -0.9218  6.2337 -2.6350
  536MOL0     H70710   7.597   4.611   6.197  1.7844 -0.1307 -1.4119
  536MOL0     H70711   7.697   4.475   6.160 -0.3652  0.7741 -0.6036
  536MOL0     H70712   7.546   4.345   6.072 -0.6764 -0.5090 -0.4571
  536MOL0     H70713   7.531   4.499   5.976 -0.7815  3.0973  1.2305
  536MOL0     H70714   7.147   4.493   6.215  0.2196  1.4519  2.0196
  536MOL0     H70715   6.998   4.669   6.189  0.0268 -0.3479 -1.8213
  536MOL0     H70716   6.714   4.886   5.965 -0.3976  0.2628  1.4918
  536MOL0     H70717   6.549   5.064   5.921  0.1768 -1.7304 -0.0078
  536MOL0     H70718   6.380   5.206   6.051  2.3717 -2.1560 -1.9063
  536MOL0     H70719   6.449   5.272   5.899  3.7018  2.0860 -0.6949
  536MOL0     H70720   6.412   5.500   6.015 -1.5447  0.9363 -0.7994
  536MOL0     H70721   6.327   5.415   6.142 -2.7581  3.7909 -0.7053
  536MOL0     H70722   6.157   5.332   5.954  2.4465 -2.4980 -2.4450
  536MOL0     H70723   6.247   5.409   5.833  1.6093 -0.7861 -0.4117
  536MOL0     H70724   6.149   5.554   6.096 -3.8683 -0.1166 -0.4323
  536MOL0     H70725   6.213   5.653   5.968 -1.0944  0.8805  1.1952
  536MOL0     H70726   5.950   5.642   5.992 -1.1201 -0.0720 -0.0298
  536MOL0     H70727   5.966   5.484   5.935  1.2467 -1.1920 -4.0217
  536MOL0     H70728   6.104   5.583   5.735  1.6152  2.3590 -0.6939
  536MOL0     H70729   6.059   5.743   5.794  0.3877  0.5064 -1.3598
  536MOL0     H70730   5.924   5.702   5.602 -0.2935 -1.5565 -0.8863
  536MOL0     H70731   5.877   5.547   5.656  1.2619  1.3031 -3.5469
  536MOL0     H70732   5.830   5.817   5.796 -0.9833  0.8456  0.3556
  536MOL0     H70733   5.726   5.668   5.816  0.2952 -1.5860 -1.0307
  536MOL0     H70734   6.699   5.279   6.250 -2.6244  0.1058 -0.6620
  536MOL0     H70735   6.875   5.100   6.294  0.0832 -1.4400 -0.3837
  536MOL0     H70736   7.302   4.887   5.964 -1.1955 -0.5522 -3.3109
  536MOL0     H70737   7.443   4.702   5.997 -0.9240  1.5978 -1.7357
  536MOL0     H70738   6.453   4.291   5.554  0.8257  2.0579 -1.1571
  536MOL0     H70739   6.222   4.313   5.441 -0.3682 -1.9537  2.0136
  536MOL0     H70740   5.819   4.447   5.425  1.5853  2.4443  0.9731
  536MOL0     H70741   5.630   4.394   5.273 -2.3393  3.9442  0.2176
  536MOL0     H70742   5.670   4.448   4.833  2.6214 -2.0807  3.6197
  536MOL0     H70743   5.639   4.611   4.895 -2.5543  0.6391 -3.4062
  536MOL0     H70744   5.407   4.539   4.951  0.3703  0.8599 -0.2334
  536MOL0     H70745   5.456   4.580   4.782 -0.2700  1.0235  0.8428
  536MOL0     H70746   5.400   4.292   4.900 -5.1618  0.0355  1.0262
  536MOL0     H70747   5.453   4.319   4.739  0.0567 -3.1419  2.2494
  536MOL0     H70748   5.237   4.472   4.716 -1.9427  3.0216  3.0213
  536MOL0     H70749   5.213   4.305   4.734 -2.4718  2.5698 -1.2017
  536MOL0     H70750   4.992   4.455   5.057 -2.1420  0.4132 -0.9431
  536MOL0     H70751   5.835   4.564   4.951 -3.4800 -1.0618 -0.4635
  536MOL0     H70752   6.035   4.611   5.113  0.2667  0.8693  1.3845
  537MOL0     O70753   5.826   0.718   5.050 -0.3965  0.5071 -0.1909
  537MOL0     C70754   5.839   0.775   4.936 -0.3092  0.7276 -0.6496
  537MOL0     O70755   5.953   0.765   4.866 -0.5035 -0.1717  0.3357
  537MOL0     C70756   6.065   0.703   4.920  0.0654 -1.0287  0.5142
  537MOL0     C70757   6.063   0.565   4.930  0.1335  0.2030  0.3171
  537MOL0     C70758   6.174   0.494   4.973  0.0391 -0.1654  0.1499
  537MOL0     C70759   6.294   0.571   5.016 -0.4776  0.2254 -0.3364
  537MOL0     O70760   6.411   0.515   5.056 -0.4473  0.7413  0.1506
  537MOL0     C70761   6.421   0.373   5.035 -0.2123 -0.4469  0.4132
  537MOL0     C70762   6.558   0.319   5.072 -0.5403 -0.3702 -0.8517
  537MOL0     C70763   6.674   0.427   5.077  0.9682  0.2869 -0.5008
  537MOL0     C70764   6.742   0.423   4.938 -0.4754  0.2489 -0.4907
  537MOL0     C70765   6.817   0.549   4.886 -0.4559 -0.1892  0.1052
  537MOL0     C70766   6.741   0.686   4.881 -1.0126  0.2280 -0.4066
  537MOL0     C70767   6.618   0.670   4.785  0.0549 -0.3498 -0.0442
  537MOL0     C70768   6.542   0.805   4.781 -0.4059  0.5851  0.0516
  537MOL0     N70769   6.416   0.809   4.707  1.5172 -0.3590  0.1910
  537MOL0     C70770   6.333   0.710   4.676  0.2055 -0.0730 -0.5249
  537MOL0     C70771   6.235   0.761   4.597  0.3190  0.9419  0.2533
  537MOL0     C70772   6.132   0.670   4.534 -0.7469 -0.3288 -0.6942
  537MOL0     C70773   6.021   0.751   4.464  0.0417 -0.7689 -0.2779
  537MOL0     C70774   5.879   0.691   4.457 -0.0546 -0.2699 -0.9095
  537MOL0     C70775   5.776   0.776   4.376  0.6451  0.9387 -0.1998
  537MOL0     O70776   5.643   0.760   4.445  0.1103  0.0987 -1.0890
  537MOL0     C70777   5.532   0.752   4.370  0.0231 -0.5258 -0.4302
  537MOL0     C70778   5.519   0.834   4.260  0.7928 -0.5178  0.5356
  537MOL0     C70779   5.392   0.821   4.191  0.3581 -0.1677  0.6653
  537MOL0     C70780   5.288   0.732   4.223  1.4647  0.6694  0.3369
  537MOL0     C70781   5.163   0.713   4.145 -1.2168  0.5585 -0.1405
  537MOL0     O70782   5.060   0.650   4.198 -0.2075 -0.3579 -1.1365
  537MOL0     C70783   4.957   0.594   4.121 -0.7114  0.2846 -0.8759
  537MOL0     C70784   4.884   0.668   4.029 -0.6835 -0.3928 -1.5754
  537MOL0     C70785   4.806   0.609   3.932  0.0149 -0.2766 -0.2922
  537MOL0     C70786   4.775   0.470   3.932 -0.0650  0.1833 -1.0258
  537MOL0     O70787   4.700   0.400   3.842 -0.3262 -0.2419  0.2832
  537MOL0     C70788   4.630   0.476   3.748 -0.1400 -0.4219 -0.1758
  537MOL0     C70789   4.719   0.528   3.635 -0.4718  0.0863 -0.1992
  537MOL0     C70790   4.688   0.490   3.494  0.3276 -0.4304  1.1366
  537MOL0     C70791   4.577   0.583   3.427  0.1393 -0.3367 -0.3511
  537MOL0     C70792   4.439   0.547   3.461  0.0888 -0.6134  0.4147
  537MOL0     C70793   4.331   0.648   3.405 -0.7677 -0.1716  0.1534
  537MOL0     C70794   4.192   0.594   3.423  0.0351  0.3040 -0.3815
  537MOL0     C70795   4.148   0.614   3.562  0.2496  0.8822 -0.3615
  537MOL0    Cl70796   4.113   0.790   3.604 -0.3887  0.1659 -0.4838
  537MOL0     C70797   4.844   0.389   4.031 -1.1279 -0.5608  0.8206
  537MOL0     C70798   4.933   0.455   4.131  0.8699 -0.1267  0.7558
  537MOL0     O70799   5.175   0.746   4.030  0.0483  0.6019 -0.2510
  537MOL0     C70800   5.303   0.664   4.340 -0.5134 -0.3346 -0.3163
  537MOL0     C70801   5.420   0.675   4.410  0.6023 -0.4002  0.0921
  537MOL0     N70802   6.266   0.891   4.571  0.3846 -0.9457 -0.2461
  537MOL0     N70803   6.368   0.920   4.636 -0.6157  0.8470  0.7017
  537MOL0     C70804   6.294   0.714   5.006 -0.7995  0.5677 -0.7194
  537MOL0     C70805   6.180   0.773   4.961  0.1953  0.0838 -0.9840
  537MOL0     C70806   5.737   0.867   4.876 -0.5954  0.6095 -0.0004
  537MOL0     C70807   5.765   0.944   4.761 -0.1743  0.3544 -0.2306
  537MOL0     C70808   5.670   1.028   4.704  0.4413 -0.5414  0.0563
  537MOL0     C70809   5.538   1.015   4.748  0.1688 -1.0699 -0.0210
  537MOL0     O70810   5.443   1.100   4.684  0.1871  0.3724 -0.6994
  537MOL0     C70811   5.323   1.031   4.638  0.3658  0.4379 -0.0396
  537MOL0     C70812   5.206   1.086   4.724 -0.4931  0.5958  0.0332
  537MOL0     C70813   5.086   1.002   4.706 -0.3667  0.5719 -0.0132
  537MOL0     C70814   5.014   1.018   4.571 -0.0925  0.1087 -0.3919
  537MOL0     C70815   4.914   0.910   4.564 -0.3965 -0.3350  0.6277
  537MOL0     C70816   4.837   0.815   4.551 -0.4707 -0.0929  0.9899
  537MOL0     C70817   5.515   0.950   4.867 -0.0977 -0.1046  0.2390
  537MOL0     C70818   5.608   0.876   4.929 -0.8877  0.1910 -1.0275
  537MOL0     H70819   5.970   0.512   4.914  1.6798 -2.1387 -1.5171
  537MOL0     H70820   6.171   0.387   4.991  1.0038 -0.0739  0.9106
  537MOL0     H70821   6.395   0.349   4.931 -1.1112  2.3032 -0.0987
  537MOL0     H70822   6.350   0.317   5.095  0.6060  0.5098  2.3650
  537MOL0     H70823   6.586   0.226   5.023  0.9400 -0.5496  0.2812
  537MOL0     H70824   6.549   0.297   5.179 -0.6693  6.5066  1.0534
  537MOL0     H70825   6.744   0.398   5.156  0.3872  2.0103  0.6896
  537MOL0     H70826   6.637   0.528   5.094  1.4956  0.4214 -0.1152
  537MOL0     H70827   6.809   0.337   4.935  1.2263  1.5302 -2.4530
  537MOL0     H70828   6.659   0.401   4.871 -1.7525 -1.0451  1.4199
  537MOL0     H70829   6.854   0.531   4.784  0.2264  2.7704 -0.2624
  537MOL0     H70830   6.909   0.560   4.943 -0.7595 -1.1475  0.8098
  537MOL0     H70831   6.805   0.760   4.832 -0.9253  0.4570  0.0450
  537MOL0     H70832   6.728   0.722   4.984 -1.3971 -3.2278  0.8986
  537MOL0     H70833   6.646   0.638   4.685  3.8688  1.8068  0.1604
  537MOL0     H70834   6.550   0.592   4.820  0.4221 -0.7052 -0.1214
  537MOL0     H70835   6.600   0.893   4.753 -0.2034 -0.0654 -1.6830
  537MOL0     H70836   6.515   0.818   4.886 -1.8121  2.0739 -0.4611
  537MOL0     H70837   6.350   0.609   4.712  2.4420 -0.5312 -2.6332
  537MOL0     H70838   6.086   0.606   4.610  3.1370 -0.0672  2.1211
  537MOL0     H70839   6.178   0.614   4.452  2.4862  3.4554 -1.7751
  537MOL0     H70840   6.062   0.774   4.366  4.4791  0.2121  1.5764
  537MOL0     H70841   6.008   0.843   4.521  0.0561 -0.9705  0.0561
  537MOL0     H70842   5.892   0.595   4.407 -1.2538 -1.6070  1.1921
  537MOL0     H70843   5.858   0.691   4.565  0.0786 -0.5260 -0.8820
  537MOL0     H70844   5.787   0.755   4.269  2.2004  0.1459  0.0896
  537MOL0     H70845   5.790   0.884   4.366 -0.0473  0.9607 -1.0765
  537MOL0     H70846   5.600   0.897   4.225  1.7106 -1.8002  0.2568
  537MOL0     H70847   5.376   0.880   4.101  1.4933 -0.4728  0.2505
  537MOL0     H70848   4.895   0.776   4.028 -0.4317 -0.3811 -0.1302
  537MOL0     H70849   4.762   0.674   3.859  2.5923  1.8711 -0.0966
  537MOL0     H70850   4.570   0.550   3.801  2.0311  0.8178  0.7080
  537MOL0     H70851   4.554   0.415   3.700 -2.9502  3.2473 -0.8150
  537MOL0     H70852   4.816   0.511   3.682 -2.0418  1.5674  3.9864
  537MOL0     H70853   4.704   0.636   3.623  0.1529  0.1150 -0.7640
  537MOL0     H70854   4.651   0.387   3.493 -2.4570  0.4952 -0.1758
  537MOL0     H70855   4.776   0.500   3.430  1.4577 -0.3292  2.6484
  537MOL0     H70856   4.595   0.689   3.445 -2.6096  0.2823 -0.7260
  537MOL0     H70857   4.579   0.560   3.321  0.9634  1.3446 -0.7360
  537MOL0     H70858   4.440   0.556   3.570 -0.1949  1.1407  0.3045
  537MOL0     H70859   4.423   0.441   3.437  1.4852 -0.7554  0.0647
  537MOL0     H70860   4.340   0.658   3.296 -1.0191 -1.1982  0.0204
  537MOL0     H70861   4.338   0.743   3.457 -0.3882 -1.1606  1.9983
  537MOL0     H70862   4.113   0.645   3.367 -0.6783  0.1344  0.4568
  537MOL0     H70863   4.183   0.491   3.386  0.9894  0.0275  0.1173
  537MOL0     H70864   4.218   0.573   3.636  0.0013  0.2467 -0.4730
  537MOL0     H70865   4.058   0.553   3.570 -0.5549  1.6917 -2.4701
  537MOL0     H70866   4.838   0.282   4.048 -2.4611 -0.3101  2.1337
  537MOL0     H70867   4.965   0.402   4.220  0.4769  0.5829  1.3234
  537MOL0     H70868   5.218   0.607   4.376 -0.6406 -0.0267 -0.1245
  537MOL0     H70869   5.412   0.619   4.503 -0.4643 -0.8050 -0.2294
  537MOL0     H70870   6.375   0.764   5.058 -3.0422  3.7529 -0.0508
  537MOL0     H70871   6.178   0.882   4.957 -2.5186  0.0789 -1.7073
  537MOL0     H70872   5.860   0.943   4.709 -1.5374  3.1373 -3.1227
  537MOL0     H70873   5.670   1.093   4.617 -2.1999 -0.7125 -0.1697
  537MOL0     H70874   5.323   0.922   4.630  0.1636  0.0346  3.8088
  537MOL0     H70875   5.304   1.054   4.532 -0.0340 -0.8097 -0.2617
  537MOL0     H70876   5.235   1.091   4.830  2.5078  1.7351 -0.7198
  537MOL0     H70877   5.174   1.183   4.685 -1.0402 -0.4134 -2.1666
  537MOL0     H70878   5.013   1.024   4.784 -1.6287 -0.5355 -0.8395
  537MOL0     H70879   5.114   0.898   4.728  2.3549  1.6269  2.0742
  537MOL0     H70880   4.970   1.118   4.557  3.0343  1.2382 -3.6933
  537MOL0     H70881   5.083   0.998   4.488 -0.5011 -1.2362 -0.4249
  537MOL0     H70882   4.782   0.726   4.526 -0.5970  0.7840 -2.2262
  537MOL0     H70883   5.411   0.941   4.897 -1.3937 -2.5159 -4.1643
  537MOL0     H70884   5.584   0.842   5.029  0.0317  4.5278  0.8960
  538MOL0     O70885   0.439   2.124   2.108  0.0809 -0.3458 -0.5437
  538MOL0     C70886   0.464   2.194   2.203  0.0405 -0.8661 -0.4124
  538MOL0     O70887   0.370   2.250   2.276  0.2789  0.3513  1.0544
  538MOL0     C70888   0.241   2.197   2.278 -1.8354 -1.3661 -0.3808
  538MOL0     C70889   0.190   2.152   2.400  0.6105 -0.4285 -0.5376
  538MOL0     C70890   0.056   2.117   2.410  0.1614 -0.3478  0.2517
  538MOL0     C70891  -0.027   2.131   2.296  0.8519  0.1179 -0.1524
  538MOL0     O70892  -0.154   2.069   2.296 -0.0843  0.2422 -0.0905
  538MOL0     C70893  -0.261   2.168   2.292  0.3474  0.4348 -0.8046
  538MOL0     C70894  -0.387   2.099   2.250  0.2607  0.6914 -0.0317
  538MOL0     C70895  -0.397   2.090   2.097 -0.1456 -0.0721 -0.4684
  538MOL0     C70896  -0.527   2.032   2.043 -0.1819 -0.2106 -0.1546
  538MOL0     C70897  -0.664   2.096   2.091  0.0373 -0.6406 -0.3103
  538MOL0     C70898  -0.688   2.247   2.057 -0.9759 -0.1015 -0.4116
  538MOL0     C70899  -0.828   2.285   2.099 -0.5999 -0.3326  0.6251
  538MOL0     C70900  -0.866   2.426   2.039 -1.4584 -0.1217 -0.0546
  538MOL0     N70901  -1.009   2.439   2.044 -0.5172 -0.3125 -0.7340
  538MOL0     C70902  -1.085   2.445   2.154 -0.8255  0.3390  1.0033
  538MOL0     C70903  -1.204   2.479   2.103  0.0016  1.0594 -0.2255
  538MOL0     C70904  -1.317   2.481   2.194 -0.5793  0.4040 -0.6849
  538MOL0     C70905  -1.455   2.431   2.132 -0.1653  0.0393  0.3628
  538MOL0     C70906  -1.560   2.392   2.238  0.2395 -0.0698  0.1019
  538MOL0     C70907  -1.597   2.502   2.332  0.2537 -0.0896 -0.8029
  538MOL0     O70908  -1.636   2.624   2.278  0.4143  0.5369  0.1009
  538MOL0     C70909  -1.573   2.740   2.313  0.6532  0.6790  0.7874
  538MOL0     C70910  -1.582   2.790   2.443  0.5682  0.7313  0.1656
  538MOL0     C70911  -1.514   2.910   2.472  0.4345 -0.1023 -0.1977
  538MOL0     C70912  -1.431   2.978   2.385 -0.8458 -1.9201 -0.2558
  538MOL0     C70913  -1.337   3.091   2.425  0.0807 -0.3811 -0.1238
  538MOL0     O70914  -1.205   3.088   2.396  0.1909  0.0674 -0.4486
  538MOL0     C70915  -1.125   3.203   2.400 -0.0321 -0.0280  0.1330
  538MOL0     C70916  -1.163   3.341   2.370 -0.5962  0.5035  0.5059
  538MOL0     C70917  -1.062   3.438   2.380 -0.4460  0.8194 -0.4244
  538MOL0     C70918  -0.920   3.397   2.395  1.0539 -0.6594 -1.2124
  538MOL0     O70919  -0.814   3.486   2.410  0.6806  0.0428 -0.4465
  538MOL0     C70920  -0.849   3.621   2.380 -0.6440  0.7074 -0.4948
  538MOL0     C70921  -0.728   3.708   2.349 -0.0491 -0.0411 -0.4486
  538MOL0     C70922  -0.774   3.829   2.266  0.0789 -1.0300  0.1624
  538MOL0     C70923  -0.653   3.926   2.221  0.0054 -0.3803 -0.2249
  538MOL0     C70924  -0.715   4.063   2.188  0.0953  0.0664  0.8882
  538MOL0     C70925  -0.753   4.148   2.311  0.6432 -0.3313 -0.5728
  538MOL0     C70926  -0.765   4.292   2.263 -0.7593 -0.6749  0.7405
  538MOL0     C70927  -0.909   4.346   2.302 -0.0875  0.0641 -0.0010
  538MOL0    Cl70928  -0.941   4.519   2.292  0.6949 -0.1213  0.3619
  538MOL0     C70929  -0.891   3.259   2.417  0.0347 -0.1724 -0.2348
  538MOL0     C70930  -0.983   3.168   2.419  0.7185 -0.7178 -0.1959
  538MOL0     O70931  -1.404   3.174   2.492  0.6703  0.1483  1.0383
  538MOL0     C70932  -1.415   2.919   2.259 -0.6578 -0.7141 -0.5848
  538MOL0     C70933  -1.490   2.808   2.218 -0.0811  0.2673  0.1582
  538MOL0     N70934  -1.199   2.510   1.968 -0.9915  0.8901 -0.2082
  538MOL0     N70935  -1.076   2.476   1.930 -0.4502  0.4082 -0.4118
  538MOL0     C70936   0.028   2.176   2.171 -0.8839 -0.9288 -0.4518
  538MOL0     C70937   0.162   2.210   2.162  0.2806 -0.1689  0.2528
  538MOL0     C70938   0.593   2.254   2.207 -0.0316  0.2039  0.6093
  538MOL0     C70939   0.641   2.325   2.318  0.5704  0.3955 -0.8485
  538MOL0     C70940   0.766   2.401   2.321  1.0172 -0.9629  0.7419
  538MOL0     C70941   0.847   2.410   2.207 -0.1980  0.0118 -0.2930
  538MOL0     O70942   0.954   2.484   2.179  0.8247 -0.3493 -0.1838
  538MOL0     C70943   1.032   2.548   2.281  0.4018  0.2344  0.0883
  538MOL0     C70944   1.113   2.435   2.352  0.7367 -0.8260  0.3270
  538MOL0     C70945   1.239   2.502   2.412 -0.1818  0.6357  0.2774
  538MOL0     C70946   1.302   2.406   2.506  0.1866 -0.4116 -1.2741
  538MOL0     C70947   1.377   2.306   2.432  0.4029  0.8892  0.1482
  538MOL0     C70948   1.439   2.234   2.362  0.3793  0.2823  0.0849
  538MOL0     C70949   0.803   2.327   2.098  0.9188  0.1067  0.0314
  538MOL0     C70950   0.680   2.255   2.098  1.0831  0.4828 -0.4068
  538MOL0     H70951   0.258   2.118   2.477 -0.5946 -0.2391  0.6568
  538MOL0     H70952   0.025   2.076   2.506 -0.1388 -0.7019  0.0077
  538MOL0     H70953  -0.242   2.260   2.237  0.0826  2.4697  2.2674
  538MOL0     H70954  -0.290   2.205   2.391 -0.0010 -1.2001 -0.2582
  538MOL0     H70955  -0.469   2.158   2.292 -1.8181 -1.4177 -0.8968
  538MOL0     H70956  -0.397   1.997   2.289 -1.4846  1.4190  1.5786
  538MOL0     H70957  -0.328   2.017   2.053  0.6743  0.8266 -0.7006
  538MOL0     H70958  -0.377   2.195   2.076 -2.3133  0.5154  0.0751
  538MOL0     H70959  -0.518   2.037   1.934  0.1996  1.5653 -0.0739
  538MOL0     H70960  -0.532   1.925   2.064 -0.3813 -0.1894 -0.0856
  538MOL0     H70961  -0.676   2.083   2.199 -2.1662  1.8154 -0.1483
  538MOL0     H70962  -0.738   2.031   2.044  0.1906  0.4531 -2.1635
  538MOL0     H70963  -0.675   2.257   1.949 -2.3879 -1.0250 -0.7097
  538MOL0     H70964  -0.612   2.312   2.101 -1.7976  0.1670  0.6778
  538MOL0     H70965  -0.903   2.209   2.071 -1.1501  0.3856  0.1032
  538MOL0     H70966  -0.826   2.303   2.206 -0.6639  0.8411  0.4366
  538MOL0     H70967  -0.845   2.416   1.933 -1.5055  0.0963 -0.0836
  538MOL0     H70968  -0.810   2.502   2.094 -1.0669  0.4604 -1.2456
  538MOL0     H70969  -1.044   2.421   2.251  0.7234 -1.3165  0.0044
  538MOL0     H70970  -1.323   2.582   2.236  0.7604  0.6490 -1.0556
  538MOL0     H70971  -1.290   2.418   2.278 -1.3291  1.4313  0.3603
  538MOL0     H70972  -1.447   2.331   2.090  1.5136 -0.1079  0.9562
  538MOL0     H70973  -1.500   2.508   2.068  0.7153  0.7399  0.5632
  538MOL0     H70974  -1.653   2.364   2.187  0.3250 -0.7569  0.3206
  538MOL0     H70975  -1.518   2.309   2.294 -2.3485 -1.8568 -0.3982
  538MOL0     H70976  -1.508   2.526   2.391  0.0148  2.7131 -1.4485
  538MOL0     H70977  -1.685   2.462   2.383  1.6536 -0.6436  1.3134
  538MOL0     H70978  -1.638   2.732   2.515  0.9229  0.2211  0.0367
  538MOL0     H70979  -1.517   2.939   2.577  3.0357 -0.0783 -0.0577
  538MOL0     H70980  -1.263   3.354   2.329 -0.8308 -0.1760  0.8333
  538MOL0     H70981  -1.089   3.542   2.365 -2.7946  0.2681 -0.4148
  538MOL0     H70982  -0.905   3.662   2.465 -0.0103 -3.0581  1.9893
  538MOL0     H70983  -0.912   3.621   2.291  1.5218  0.1328 -2.1070
  538MOL0     H70984  -0.654   3.652   2.291  2.0058  2.6457 -0.6018
  538MOL0     H70985  -0.680   3.744   2.440  0.6327  0.9603 -1.1868
  538MOL0     H70986  -0.842   3.866   2.344  2.6251 -1.6517  2.8842
  538MOL0     H70987  -0.833   3.807   2.177  1.3263  0.7989 -1.1987
  538MOL0     H70988  -0.582   3.929   2.304  0.0903  0.3370 -0.3175
  538MOL0     H70989  -0.607   3.873   2.137 -0.3813 -0.9296 -0.0979
  538MOL0     H70990  -0.803   4.054   2.124 -0.1231  2.7895  0.6920
  538MOL0     H70991  -0.647   4.119   2.124  0.5473 -0.2668  1.0772
  538MOL0     H70992  -0.679   4.136   2.391 -0.5343 -1.0207  0.4607
  538MOL0     H70993  -0.845   4.112   2.358  1.0056 -2.0433 -1.0845
  538MOL0     H70994  -0.689   4.354   2.311 -0.2145 -0.7734  0.0089
  538MOL0     H70995  -0.763   4.298   2.154  0.3579 -2.1189  0.6552
  538MOL0     H70996  -0.934   4.301   2.398 -0.6356 -0.4866 -0.3988
  538MOL0     H70997  -0.961   4.290   2.223  0.3962 -0.5022  0.0667
  538MOL0     H70998  -0.791   3.237   2.452 -0.6848 -0.5961  1.7189
  538MOL0     H70999  -0.949   3.067   2.442  3.1433 -0.0274 -0.5235
  538MOL0     H71000  -1.341   2.963   2.193  1.4593 -2.6362  0.3878
  538MOL0     H71001  -1.471   2.767   2.119  1.9811  0.0202  0.6197
  538MOL0     H71002  -0.050   2.173   2.096 -3.0709  0.5673  1.5878
  538MOL0     H71003   0.194   2.247   2.066  2.1046  0.7847  1.1780
  538MOL0     H71004   0.581   2.310   2.407 -2.1026  1.6430 -2.3350
  538MOL0     H71005   0.802   2.445   2.413  1.7601 -1.8893  0.9165
  538MOL0     H71006   0.978   2.602   2.359 -0.5424 -0.4361 -0.0842
  538MOL0     H71007   1.088   2.625   2.228 -2.5096  2.5140  0.0178
  538MOL0     H71008   1.053   2.370   2.415 -0.3987 -0.1581 -0.0390
  538MOL0     H71009   1.143   2.362   2.276  0.9888 -1.2653  0.8411
  538MOL0     H71010   1.213   2.598   2.458  1.4193  1.9226 -1.3257
  538MOL0     H71011   1.306   2.539   2.334 -1.1787  0.7562 -0.5369
  538MOL0     H71012   1.373   2.465   2.564 -2.2294  2.1727 -0.7144
  538MOL0     H71013   1.227   2.363   2.573 -0.7103  0.6722 -1.5374
  538MOL0     H71014   1.515   2.187   2.303  0.9123  0.0470  0.9264
  538MOL0     H71015   0.846   2.327   1.999 -1.3457 -0.8871 -1.0185
  538MOL0     H71016   0.655   2.212   2.001  2.2975 -0.8026 -0.1911
  539MOL0     O71017   4.965   8.651   1.381  0.3983 -0.9438 -0.4456
  539MOL0     C71018   5.033   8.732   1.310  0.5813  0.3156  0.1698
  539MOL0     O71019   4.992   8.806   1.204  0.3856  0.2184  0.3205
  539MOL0     C71020   4.863   8.787   1.165 -0.1564 -0.6382  0.2475
  539MOL0     C71021   4.772   8.894   1.187 -0.1019 -0.0719  0.2765
  539MOL0     C71022   4.633   8.878   1.157 -1.0246  0.1105  0.0667
  539MOL0     C71023   4.585   8.764   1.092 -0.1297  0.1564  0.1411
  539MOL0     O71024   4.461   8.734   1.057  1.0938 -0.0025  0.2710
  539MOL0     C71025   4.347   8.821   1.080  0.8796  0.7137 -1.2179
  539MOL0     C71026   4.212   8.746   1.113  0.4462 -0.5256  0.7824
  539MOL0     C71027   4.197   8.619   1.018  0.0836  0.5922  0.3529
  539MOL0     C71028   4.055   8.554   1.017 -0.5226 -0.1604  0.2188
  539MOL0     C71029   3.997   8.517   1.150  0.2932 -0.4108 -0.1765
  539MOL0     C71030   3.853   8.454   1.138  0.0101 -0.0548 -0.1505
  539MOL0     C71031   3.782   8.402   1.264 -0.5322  0.0575  0.4733
  539MOL0     C71032   3.631   8.375   1.240 -0.3612  0.1652 -0.5456
  539MOL0     N71033   3.558   8.329   1.355  0.6689 -0.8686  0.2203
  539MOL0     C71034   3.471   8.222   1.359  0.0879  0.0065  0.1059
  539MOL0     C71035   3.433   8.212   1.489  0.3134  0.6690  0.8742
  539MOL0     C71036   3.348   8.101   1.525 -0.1930 -0.4679  1.1944
  539MOL0     C71037   3.203   8.146   1.524  0.6217  0.1721  0.3221
  539MOL0     C71038   3.153   8.198   1.389 -0.0264 -0.6026  0.0335
  539MOL0     C71039   3.001   8.163   1.386  0.0015  0.0585  0.3855
  539MOL0     O71040   2.938   8.246   1.482  0.0625  0.7887 -0.3916
  539MOL0     C71041   2.799   8.225   1.490 -0.0625  0.5386  0.1821
  539MOL0     C71042   2.737   8.285   1.605  0.3112  0.7910  0.7452
  539MOL0     C71043   2.608   8.247   1.639  0.0521  0.6203 -0.6060
  539MOL0     C71044   2.535   8.154   1.568 -0.2927 -0.3428  0.3552
  539MOL0     C71045   2.409   8.099   1.629 -0.0921 -0.0614 -0.7783
  539MOL0     O71046   2.351   8.174   1.729 -0.3193  0.7727  0.4230
  539MOL0     C71047   2.221   8.131   1.774  0.0556  0.1448 -0.3067
  539MOL0     C71048   2.116   8.111   1.684  0.1320 -0.6306  0.1656
  539MOL0     C71049   1.993   8.079   1.728 -0.0105 -0.0611 -0.0225
  539MOL0     C71050   1.969   8.063   1.868 -0.3162  0.7743 -0.6834
  539MOL0     O71051   1.842   8.027   1.904  0.6739 -0.4489 -0.1605
  539MOL0     C71052   1.808   8.054   2.041  0.2162 -0.5071 -0.4811
  539MOL0     C71053   1.656   8.062   2.050 -0.4910 -0.1217 -0.1466
  539MOL0     C71054   1.617   8.082   2.198  0.5167  0.3482 -0.1652
  539MOL0     C71055   1.463   8.064   2.204  0.2011  0.0424  0.5831
  539MOL0     C71056   1.409   8.088   2.346  0.1642  0.3612 -0.1650
  539MOL0     C71057   1.484   8.010   2.456 -0.1154  0.3050 -0.5230
  539MOL0     C71058   1.570   8.106   2.550 -0.5279  0.5178 -0.8538
  539MOL0     C71059   1.649   8.037   2.657 -0.8000  0.0960  0.1999
  539MOL0    Cl71060   1.785   7.936   2.592 -0.0091  0.2372  0.5872
  539MOL0     C71061   2.074   8.080   1.955 -0.3793  0.0813 -0.3998
  539MOL0     C71062   2.198   8.112   1.909 -0.9535 -0.5787  0.3501
  539MOL0     O71063   2.378   7.989   1.576  0.3882 -0.5596 -0.6836
  539MOL0     C71064   2.597   8.110   1.446 -0.0898  0.7016  0.1198
  539MOL0     C71065   2.724   8.140   1.412  0.6889 -0.6081  0.5528
  539MOL0     N71066   3.483   8.308   1.564  0.3813  0.2373  0.2061
  539MOL0     N71067   3.558   8.376   1.483  0.5185 -0.4708  0.6017
  539MOL0     C71068   4.683   8.659   1.067 -0.8286 -0.3969  0.0795
  539MOL0     C71069   4.823   8.668   1.100  0.2864  0.1821 -0.2804
  539MOL0     C71070   5.186   8.717   1.315  0.1156 -0.1662  0.2457
  539MOL0     C71071   5.265   8.647   1.407  0.5698 -0.2021  0.7841
  539MOL0     C71072   5.402   8.637   1.378 -0.5312  0.1631 -0.9004
  539MOL0     C71073   5.468   8.700   1.276  0.6220  0.1263  0.3121
  539MOL0     O71074   5.604   8.702   1.264  0.1817  1.1030 -0.2106
  539MOL0     C71075   5.677   8.821   1.266 -0.6612 -1.3525 -0.2662
  539MOL0     C71076   5.659   8.883   1.410  0.4251 -0.1782  0.9071
  539MOL0     C71077   5.682   8.790   1.531  0.1727 -0.3763  0.4939
  539MOL0     C71078   5.716   8.859   1.661 -0.0058 -0.8107 -0.0058
  539MOL0     C71079   5.621   8.955   1.718 -0.4580  0.4915 -0.0624
  539MOL0     C71080   5.529   9.005   1.773  0.0221  0.5921 -0.0236
  539MOL0     C71081   5.386   8.778   1.201  0.4138 -1.0801  0.0240
  539MOL0     C71082   5.256   8.785   1.213  0.8557  0.0687 -0.6228
  539MOL0     H71083   4.806   8.980   1.244 -0.4727  1.5595 -1.8386
  539MOL0     H71084   4.567   8.959   1.186 -0.4976  0.2152  0.9898
  539MOL0     H71085   4.319   8.872   0.987 -2.4997  2.9868  0.8585
  539MOL0     H71086   4.363   8.887   1.166 -0.5062 -2.0169  1.3044
  539MOL0     H71087   4.126   8.813   1.104 -0.3638 -1.2326  2.8176
  539MOL0     H71088   4.195   8.720   1.218 -2.9231 -2.1206 -0.0486
  539MOL0     H71089   4.274   8.542   1.026  1.4007  1.6413 -1.4585
  539MOL0     H71090   4.223   8.651   0.917  1.5074 -0.1561  0.4598
  539MOL0     H71091   3.986   8.620   0.963 -1.3235 -0.0512  1.3538
  539MOL0     H71092   4.059   8.464   0.955 -2.3522  1.3081 -2.2860
  539MOL0     H71093   3.979   8.613   1.200 -0.5663  0.1957 -1.6049
  539MOL0     H71094   4.067   8.452   1.203 -0.7398 -1.5917 -0.2097
  539MOL0     H71095   3.857   8.374   1.064  2.7519 -0.6871  0.5782
  539MOL0     H71096   3.802   8.541   1.095  0.1884 -1.1172 -2.6688
  539MOL0     H71097   3.846   8.319   1.297  1.1309  0.8609 -0.5783
  539MOL0     H71098   3.799   8.471   1.348 -0.4344 -1.3670  1.6687
  539MOL0     H71099   3.607   8.314   1.152 -1.1469  3.1465 -2.5679
  539MOL0     H71100   3.583   8.467   1.206 -0.0301  0.5680  0.0663
  539MOL0     H71101   3.443   8.157   1.276  1.4836  0.7704 -1.0168
  539MOL0     H71102   3.381   8.080   1.627 -2.7756  0.4902  2.3399
  539MOL0     H71103   3.352   8.013   1.462  2.0374  0.2517  0.2416
  539MOL0     H71104   3.199   8.232   1.592  2.6039  0.0240  0.6676
  539MOL0     H71105   3.135   8.070   1.565 -0.5424  2.0381  2.0653
  539MOL0     H71106   3.170   8.305   1.371 -3.0523 -0.2473 -1.1965
  539MOL0     H71107   3.206   8.153   1.304  0.4393 -0.1692  0.0889
  539MOL0     H71108   2.985   8.057   1.408  0.6698  0.5148  3.6018
  539MOL0     H71109   2.959   8.185   1.288  0.5291 -4.7094 -1.1771
  539MOL0     H71110   2.796   8.356   1.662  0.6383  3.1089 -2.2732
  539MOL0     H71111   2.562   8.288   1.728 -2.3457 -1.2293 -0.9001
  539MOL0     H71112   2.118   8.130   1.578 -1.6911  1.1265  0.3962
  539MOL0     H71113   1.909   8.076   1.658  0.7062 -2.4475 -0.8974
  539MOL0     H71114   1.859   8.146   2.071  2.5596  0.6684 -6.6194
  539MOL0     H71115   1.840   7.960   2.088  0.6710 -1.3789 -2.4348
  539MOL0     H71116   1.617   7.971   2.004  2.9856 -0.7405 -2.3038
  539MOL0     H71117   1.643   8.156   1.997  3.6799  1.2826  0.9301
  539MOL0     H71118   1.633   8.183   2.235 -1.9341  0.4721  0.7410
  539MOL0     H71119   1.679   8.017   2.260  1.8278  2.8815  1.3398
  539MOL0     H71120   1.401   8.132   2.144 -1.5712  0.1345  2.4261
  539MOL0     H71121   1.440   7.965   2.162 -1.9257  0.5767  0.3373
  539MOL0     H71122   1.303   8.062   2.342  0.0872  0.7552 -0.9704
  539MOL0     H71123   1.410   8.197   2.359 -4.3322  0.6494 -0.6181
  539MOL0     H71124   1.538   7.923   2.415  1.3438 -1.2619  4.0227
  539MOL0     H71125   1.403   7.966   2.516 -2.1864  1.0725 -2.6360
  539MOL0     H71126   1.658   8.146   2.500  1.4158  0.3858  2.1726
  539MOL0     H71127   1.517   8.190   2.595  3.6116  1.8050  2.2417
  539MOL0     H71128   1.585   7.961   2.703  0.2949 -2.2427 -1.8941
  539MOL0     H71129   1.685   8.110   2.730  0.0821  2.2573 -2.2375
  539MOL0     H71130   2.066   8.078   2.063 -0.9450  1.1945 -0.4060
  539MOL0     H71131   2.281   8.105   1.978 -4.5328 -4.4653  4.9583
  539MOL0     H71132   2.537   8.032   1.401 -1.2039  1.7373 -0.2535
  539MOL0     H71133   2.765   8.083   1.329  2.3183  2.0668 -0.6147
  539MOL0     H71134   4.655   8.564   1.024  2.5040 -1.8211  0.7630
  539MOL0     H71135   4.892   8.586   1.080 -0.7574 -0.6189 -0.6740
  539MOL0     H71136   5.218   8.592   1.488  2.4114  1.3650  3.0824
  539MOL0     H71137   5.471   8.573   1.434 -2.3073 -1.3734 -0.3540
  539MOL0     H71138   5.626   8.892   1.200 -1.1743 -2.6846 -1.3554
  539MOL0     H71139   5.778   8.789   1.242  0.3284 -0.6660  2.6122
  539MOL0     H71140   5.728   8.968   1.416 -3.1483  2.9079  1.8491
  539MOL0     H71141   5.558   8.924   1.419  1.6542  3.7363 -1.2064
  539MOL0     H71142   5.768   8.725   1.511  2.4447  3.0816 -2.2639
  539MOL0     H71143   5.596   8.732   1.567 -0.3169  1.3154  2.1837
  539MOL0     H71144   5.727   8.781   1.737 -0.2405  0.9017  1.8667
  539MOL0     H71145   5.812   8.909   1.646  0.9685 -2.3257  0.8491
  539MOL0     H71146   5.445   9.047   1.825 -0.9344  1.0344 -1.8158
  539MOL0     H71147   5.436   8.846   1.133 -0.6217  0.0517  0.3628
  539MOL0     H71148   5.202   8.849   1.143 -0.1923 -1.1155 -0.9269
  540MOL0     O71149   9.927  10.114   8.379 -0.6748 -0.0632  0.4156
  540MOL0     C71150   9.989  10.058   8.467 -0.3204  0.4925 -0.6098
  540MOL0     O71151   9.926  10.026   8.586 -0.2714 -0.8698 -0.3653
  540MOL0     C71152   9.798  10.055   8.604  0.0272 -1.3931  0.0079
  540MOL0     C71153   9.700   9.960   8.578 -0.3068  0.7061 -0.6659
  540MOL0     C71154   9.566   9.999   8.605 -0.8606  0.7019  0.2905
  540MOL0     C71155   9.533  10.134   8.628 -0.5273  0.0726  0.2549
  540MOL0     O71156   9.396  10.163   8.643 -0.1060  0.2886 -0.2121
  540MOL0     C71157   9.361  10.297   8.608 -0.7653  0.9832 -1.1087
  540MOL0     C71158   9.214  10.301   8.589 -0.3360 -0.0098  0.0713
  540MOL0     C71159   9.170  10.264   8.451 -0.5181 -0.1415  0.5377
  540MOL0     C71160   9.022  10.293   8.424 -0.3017  0.4163  0.0777
  540MOL0     C71161   8.987  10.261   8.281  0.2747  0.0088 -0.1205
  540MOL0     C71162   8.845  10.215   8.240  0.2338  0.7533  0.6246
  540MOL0     C71163   8.742  10.307   8.292 -0.5775  0.0535 -0.1215
  540MOL0     C71164   8.746  10.442   8.223 -0.3902  0.0566  0.5022
  540MOL0     N71165   8.689  10.546   8.313 -0.5642 -0.2823  0.7512
  540MOL0     C71166   8.563  10.581   8.322  0.4159 -0.1479 -0.0338
  540MOL0     C71167   8.566  10.683   8.405 -0.5524 -0.0690 -0.7267
  540MOL0     C71168   8.452  10.747   8.476 -0.6176  0.1383 -0.1130
  540MOL0     C71169   8.316  10.728   8.393 -0.5666 -0.5476  0.6847
  540MOL0     C71170   8.227  10.850   8.402  0.4303  0.2557 -0.2008
  540MOL0     C71171   8.113  10.827   8.505 -0.0290 -0.4071  0.4776
  540MOL0     O71172   8.019  10.744   8.435  0.4144 -0.0152 -0.1012
  540MOL0     C71173   7.904  10.710   8.501  0.2363  0.1256  0.6648
  540MOL0     C71174   7.885  10.703   8.636 -0.5625  0.3805 -0.1688
  540MOL0     C71175   7.765  10.661   8.698  0.7861  0.3774 -0.0698
  540MOL0     C71176   7.654  10.651   8.613 -0.3560  0.6012  0.3989
  540MOL0     C71177   7.514  10.628   8.669 -0.0420  0.5825  0.8388
  540MOL0     O71178   7.415  10.625   8.572  0.9106 -0.5974  0.1458
  540MOL0     C71179   7.288  10.594   8.603 -0.4973  0.8750 -0.4730
  540MOL0     C71180   7.208  10.505   8.519 -0.2876  0.0922  0.3542
  540MOL0     C71181   7.073  10.481   8.549 -1.1103  0.2939  0.2567
  540MOL0     C71182   7.017  10.554   8.654 -0.2091  0.2718 -0.7595
  540MOL0     O71183   6.886  10.523   8.670 -0.3737  0.2112  0.0672
  540MOL0     C71184   6.825  10.546   8.797 -0.0114 -0.4151 -0.4803
  540MOL0     C71185   6.665  10.509   8.786 -0.1663 -0.3937  0.1494
  540MOL0     C71186   6.644  10.382   8.720  0.2538  0.6911 -1.0373
  540MOL0     C71187   6.506  10.325   8.737  0.1644  0.2817  0.2465
  540MOL0     C71188   6.459  10.294   8.881  0.6472 -0.0359  0.0020
  540MOL0     C71189   6.339  10.208   8.882 -0.3558 -0.4878  0.2637
  540MOL0     C71190   6.295  10.174   9.023 -1.2294  0.0139 -0.1528
  540MOL0     C71191   6.151  10.142   9.024 -0.3693  0.9776 -0.2130
  540MOL0    Cl71192   6.057  10.281   9.000  0.0103 -0.0058  0.1364
  540MOL0     C71193   7.098  10.637   8.733  1.2737 -0.6782  0.0179
  540MOL0     C71194   7.222  10.670   8.703  0.2844  0.1038 -0.2287
  540MOL0     O71195   7.498  10.594   8.780 -0.1766 -0.3142 -0.3866
  540MOL0     C71196   7.670  10.658   8.477 -1.1392 -0.5961  0.1691
  540MOL0     C71197   7.796  10.680   8.423 -0.1911 -0.1676  0.3063
  540MOL0     N71198   8.695  10.702   8.454  0.2831  0.1557  0.2107
  540MOL0     N71199   8.765  10.608   8.405 -0.0591  0.4962  0.1797
  540MOL0     C71200   9.639  10.231   8.636  0.8042 -0.6680 -0.2278
  540MOL0     C71201   9.763  10.190   8.628 -0.6683  0.3457 -0.6709
  540MOL0     C71202  10.136  10.038   8.465 -0.4414  0.1629  0.4503
  540MOL0     C71203  10.216   9.979   8.567  0.3218 -0.6972  0.6085
  540MOL0     C71204  10.361   9.972   8.558 -0.1984  0.9513  0.0434
  540MOL0     C71205  10.427  10.026   8.446  0.1527  1.2003  0.4111
  540MOL0     O71206  10.565  10.035   8.442 -0.1144  0.3704 -0.5606
  540MOL0     C71207  10.629  10.073   8.319 -0.4267 -0.8095 -0.2308
  540MOL0     C71208  10.781  10.028   8.310  0.3000  0.5822 -0.6771
  540MOL0     C71209  10.789   9.874   8.316 -0.2624 -0.4711  0.4458
  540MOL0     C71210  10.935   9.829   8.338 -0.2077 -0.1447 -0.3237
  540MOL0     C71211  10.956   9.682   8.336 -0.3473 -0.5030 -0.8239
  540MOL0     C71212  10.978   9.562   8.335  0.0174 -1.3148 -0.1229
  540MOL0     C71213  10.339  10.083   8.349 -0.2037 -0.1441 -1.4830
  540MOL0     C71214  10.201  10.100   8.360 -0.5892  0.8941  0.6717
  540MOL0     H71215   9.731   9.859   8.552 -1.3925  0.3509 -0.6193
  540MOL0     H71216   9.484   9.928   8.607  0.9935 -1.5449  1.7456
  540MOL0     H71217   9.413  10.327   8.517 -1.3857 -1.7677 -2.4806
  540MOL0     H71218   9.384  10.352   8.700 -0.1597 -0.3971 -0.4109
  540MOL0     H71219   9.172  10.400   8.610 -2.1108 -0.3775 -1.4663
  540MOL0     H71220   9.164  10.241   8.665  0.6490  1.1130  1.6814
  540MOL0     H71221   9.200  10.162   8.424  0.3997  0.3984 -0.5841
  540MOL0     H71222   9.228  10.318   8.376  0.8788 -2.4929 -0.2062
  540MOL0     H71223   8.969  10.227   8.493 -1.4173 -2.3974 -3.2374
  540MOL0     H71224   9.002  10.399   8.441  2.8814  1.1919 -0.3882
  540MOL0     H71225   9.058  10.181   8.258  1.3286  0.5009  1.2458
  540MOL0     H71226   9.020  10.349   8.225 -0.6509  0.6339  0.3044
  540MOL0     H71227   8.836  10.113   8.278  2.4816  0.8326  1.5344
  540MOL0     H71228   8.834  10.207   8.132 -0.9662  0.6736  0.7303
  540MOL0     H71229   8.640  10.278   8.265 -0.6890  1.3670 -1.2505
  540MOL0     H71230   8.756  10.303   8.400  2.5570 -1.4845 -0.4924
  540MOL0     H71231   8.696  10.432   8.127  1.3069 -3.7203 -0.1548
  540MOL0     H71232   8.848  10.467   8.193 -1.0960 -2.0072 -4.4422
  540MOL0     H71233   8.468  10.535   8.293  1.0318  0.1597 -2.8883
  540MOL0     H71234   8.475  10.853   8.492  0.1097  0.0694 -0.6445
  540MOL0     H71235   8.448  10.705   8.577 -0.1072 -0.6811 -0.4238
  540MOL0     H71236   8.272  10.632   8.421 -1.0736  0.1819  2.5179
  540MOL0     H71237   8.333  10.722   8.285  0.6565 -0.9083  0.8760
  540MOL0     H71238   8.279  10.936   8.446 -0.8048  1.6914 -1.3927
  540MOL0     H71239   8.186  10.877   8.304 -1.5410 -0.7137  0.2974
  540MOL0     H71240   8.071  10.921   8.540  0.7728  0.7188 -1.4041
  540MOL0     H71241   8.149  10.767   8.589 -0.5631 -0.8070  0.4249
  540MOL0     H71242   7.964  10.714   8.710 -2.0975  2.2888  1.2769
  540MOL0     H71243   7.743  10.635   8.801  1.3351  0.4214  0.0584
  540MOL0     H71244   7.256  10.449   8.439 -0.3933  0.0588  0.3152
  540MOL0     H71245   7.013  10.420   8.483 -1.0282  0.5303 -0.0422
  540MOL0     H71246   6.834  10.651   8.827 -0.2659 -0.1513 -1.2856
  540MOL0     H71247   6.865  10.482   8.875 -0.7430 -0.9124 -0.5017
  540MOL0     H71248   6.620  10.592   8.732  1.4404  2.3358  2.7403
  540MOL0     H71249   6.621  10.518   8.886  1.3817 -1.8890  1.0491
  540MOL0     H71250   6.722  10.324   8.771  0.3844  1.1606 -0.6893
  540MOL0     H71251   6.663  10.389   8.613  0.5926  1.1272 -0.9531
  540MOL0     H71252   6.438  10.400   8.695  0.1194  0.3310  0.4065
  540MOL0     H71253   6.501  10.232   8.679 -1.3387 -0.9905  2.2718
  540MOL0     H71254   6.442  10.391   8.929 -2.4392 -0.7548  0.5729
  540MOL0     H71255   6.531  10.233   8.936 -0.8711 -1.2846  0.6697
  540MOL0     H71256   6.362  10.111   8.836  1.0699 -1.6454  3.1628
  540MOL0     H71257   6.264  10.268   8.828 -0.4124  0.3198  1.2188
  540MOL0     H71258   6.360  10.094   9.058 -1.4767 -0.7791 -1.4359
  540MOL0     H71259   6.312  10.262   9.086 -0.0299  1.3627 -2.2198
  540MOL0     H71260   6.120  10.102   9.121  2.6718  2.0958  1.3349
  540MOL0     H71261   6.128  10.081   8.936  1.5403  1.2222 -0.9291
  540MOL0     H71262   7.049  10.686   8.816  0.7332 -0.5466 -0.3713
  540MOL0     H71263   7.274  10.737   8.770  0.1328 -0.7966  0.8181
  540MOL0     H71264   7.585  10.639   8.413 -1.4058  0.4883  0.1844
  540MOL0     H71265   7.803  10.682   8.314  3.5623  0.2928  0.4236
  540MOL0     H71266   9.613  10.336   8.649 -0.2050 -1.0800  1.2926
  540MOL0     H71267   9.854  10.249   8.640 -1.0312  0.4587  2.4275
  540MOL0     H71268  10.158   9.946   8.652  0.7750  0.7894  1.5268
  540MOL0     H71269  10.424   9.939   8.640 -1.4424  0.6881  0.9438
  540MOL0     H71270  10.629  10.182   8.323  2.4901 -0.7554  0.6528
  540MOL0     H71271  10.579  10.032   8.231 -0.1349  0.8057 -1.1971
  540MOL0     H71272  10.831  10.062   8.219  1.5586  0.8757  0.0951
  540MOL0     H71273  10.834  10.063   8.399  0.6355 -2.0836  0.2831
  540MOL0     H71274  10.741   9.815   8.238  2.0384 -2.1839  0.2210
  540MOL0     H71275  10.733   9.849   8.406 -2.8241  0.3494 -0.8015
  540MOL0     H71276  10.995   9.882   8.263  0.6749  0.9705  1.1090
  540MOL0     H71277  10.969   9.856   8.439  0.7389  1.3484 -1.0014
  540MOL0     H71278  10.998   9.457   8.342 -3.3733 -1.9842  1.4989
  540MOL0     H71279  10.386  10.114   8.256 -0.5196 -2.3547 -2.4222
  540MOL0     H71280  10.152  10.158   8.283 -0.3904 -0.6926 -0.7273
  541MOL0     O71281   2.988   6.541   4.271 -0.0991  0.3232 -0.4729
  541MOL0     C71282   2.948   6.446   4.342  0.5052 -0.1902 -0.7417
  541MOL0     O71283   2.818   6.430   4.388 -0.1440 -0.9792  0.3629
  541MOL0     C71284   2.729   6.525   4.368  0.1594  0.7441 -0.3522
  541MOL0     C71285   2.734   6.645   4.446  0.5593 -0.3810 -0.3884
  541MOL0     C71286   2.627   6.738   4.449 -1.0668  0.0827  0.4041
  541MOL0     C71287   2.522   6.721   4.355  0.1256 -0.1138 -0.1310
  541MOL0     O71288   2.413   6.802   4.345  0.7712  0.4430 -0.0261
  541MOL0     C71289   2.369   6.862   4.466 -0.4082 -0.3522  1.2980
  541MOL0     C71290   2.334   6.772   4.587  0.3595  0.4257  0.1363
  541MOL0     C71291   2.221   6.818   4.679 -1.2269  0.2667 -0.3061
  541MOL0     C71292   2.266   6.918   4.788 -0.0506  0.6724  0.4844
  541MOL0     C71293   2.165   6.944   4.899  0.2449  0.4047  0.3264
  541MOL0     C71294   2.140   6.818   4.982 -0.0540  0.3918  0.0046
  541MOL0     C71295   2.027   6.857   5.085 -0.0860  0.7095 -0.2891
  541MOL0     C71296   1.893   6.841   5.023 -0.7425 -0.4981  0.2035
  541MOL0     N71297   1.787   6.838   5.126  0.0600 -0.3569  0.1822
  541MOL0     C71298   1.700   6.941   5.137 -0.6591  0.0051 -0.2700
  541MOL0     C71299   1.620   6.897   5.237 -0.0524 -0.4470  0.0350
  541MOL0     C71300   1.483   6.953   5.263  0.2357  0.9037  0.5973
  541MOL0     C71301   1.376   6.879   5.179 -0.7273  0.3668 -0.1228
  541MOL0     C71302   1.234   6.936   5.220 -0.9329  0.2112  0.7886
  541MOL0     C71303   1.147   6.865   5.125  0.1058  1.1245 -0.1582
  541MOL0     O71304   1.146   6.723   5.142  0.6197  0.6798 -0.2137
  541MOL0     C71305   1.029   6.666   5.173 -0.7029 -0.5996 -0.0865
  541MOL0     C71306   0.907   6.707   5.111  0.2096 -0.6786 -0.4196
  541MOL0     C71307   0.792   6.637   5.134  0.5665 -0.5030 -0.0279
  541MOL0     C71308   0.786   6.532   5.232  0.4447  0.3237  0.3683
  541MOL0     C71309   0.665   6.456   5.271 -0.4316  1.1258  1.1836
  541MOL0     O71310   0.556   6.499   5.208 -0.0605 -0.1926 -0.1626
  541MOL0     C71311   0.442   6.448   5.267  0.2205  0.3201 -0.7155
  541MOL0     C71312   0.367   6.334   5.232 -0.4377  0.3293  0.2504
  541MOL0     C71313   0.261   6.294   5.312  0.5438  0.5710  0.4500
  541MOL0     C71314   0.205   6.376   5.411 -0.4859  0.0691 -0.6695
  541MOL0     O71315   0.079   6.362   5.474 -0.3076 -0.3859 -0.4226
  541MOL0     C71316   0.015   6.230   5.473  0.0646 -1.1140  0.4158
  541MOL0     C71317   0.112   6.145   5.562  0.6638  0.6228 -0.6053
  541MOL0     C71318   0.054   6.010   5.609  0.1094  0.1622  0.1385
  541MOL0     C71319   0.159   5.925   5.691  0.0318 -0.1999 -0.0721
  541MOL0     C71320   0.113   5.794   5.755 -0.2071 -0.5267 -0.3092
  541MOL0     C71321   0.235   5.726   5.806  0.5016 -0.7379  0.3888
  541MOL0     C71322   0.280   5.789   5.942  0.7654 -0.3770 -1.0079
  541MOL0     C71323   0.399   5.704   5.998 -0.0782  0.2916 -0.1056
  541MOL0    Cl71324   0.547   5.760   5.940 -0.4294 -0.1784 -0.0608
  541MOL0     C71325   0.270   6.497   5.440 -0.2868 -0.0946  0.9855
  541MOL0     C71326   0.392   6.522   5.373  0.2807  0.8170  0.2380
  541MOL0     O71327   0.671   6.364   5.347  0.6314  0.0745 -0.2208
  541MOL0     C71328   0.912   6.501   5.294 -0.3390  0.4099  0.6272
  541MOL0     C71329   1.031   6.563   5.265 -0.7758  0.5045  0.7998
  541MOL0     N71330   1.670   6.778   5.292 -0.1632  0.1043 -0.0416
  541MOL0     N71331   1.765   6.738   5.209 -0.4782  0.1863 -0.3322
  541MOL0     C71332   2.519   6.609   4.267  0.5154  0.1198  0.0561
  541MOL0     C71333   2.626   6.507   4.270  0.2096  0.1493  0.6700
  541MOL0     C71334   3.029   6.334   4.377  0.3061  0.5778  0.9412
  541MOL0     C71335   3.170   6.346   4.374 -0.1165  0.2043  0.5662
  541MOL0     C71336   3.242   6.235   4.406  0.7360  1.1469 -0.1688
  541MOL0     C71337   3.191   6.113   4.444 -0.3556  1.1611 -0.9109
  541MOL0     O71338   3.277   6.011   4.486  0.5012 -0.4071  0.0291
  541MOL0     C71339   3.235   5.881   4.529 -0.1198  0.2301 -0.0797
  541MOL0     C71340   3.363   5.796   4.541 -0.1777 -0.6626 -0.4321
  541MOL0     C71341   3.465   5.849   4.643 -0.1408 -0.0843  0.5643
  541MOL0     C71342   3.591   5.756   4.652  0.8640  0.1329  0.3474
  541MOL0     C71343   3.666   5.782   4.773 -0.2850 -0.1588 -0.3976
  541MOL0     C71344   3.737   5.788   4.874  0.5978  0.0392 -0.0673
  541MOL0     C71345   3.051   6.109   4.456  0.8289 -0.5577 -0.1392
  541MOL0     C71346   2.970   6.216   4.425 -1.0852  0.8762  0.5565
  541MOL0     H71347   2.819   6.661   4.511  0.6519 -0.1047 -0.5781
  541MOL0     H71348   2.620   6.820   4.520  0.1677  1.0032 -0.5042
  541MOL0     H71349   2.276   6.909   4.434  0.8417  0.0498 -2.1184
  541MOL0     H71350   2.441   6.939   4.495 -0.0799 -0.2398  0.2239
  541MOL0     H71351   2.414   6.755   4.659 -1.1550 -2.0925  1.3475
  541MOL0     H71352   2.300   6.679   4.541 -3.0763  1.0741  1.0688
  541MOL0     H71353   2.174   6.734   4.732 -0.4793 -1.0692 -1.6818
  541MOL0     H71354   2.151   6.869   4.613  1.5727  0.3869 -3.4125
  541MOL0     H71355   2.349   6.865   4.835  0.1385 -0.0440 -0.6408
  541MOL0     H71356   2.303   7.013   4.747  0.3879 -0.0262 -0.8182
  541MOL0     H71357   2.071   6.971   4.850  0.3264 -2.5543 -1.7206
  541MOL0     H71358   2.202   7.024   4.963  0.5662 -0.9852  1.9354
  541MOL0     H71359   2.226   6.780   5.037  0.5523  1.2341 -0.3548
  541MOL0     H71360   2.111   6.735   4.917  0.4695 -0.2828  0.6164
  541MOL0     H71361   2.040   6.781   5.162  0.2241  0.5039 -0.5395
  541MOL0     H71362   2.041   6.960   5.119  0.4044  0.5189  0.0930
  541MOL0     H71363   1.883   6.744   4.974  0.1012 -0.6093  0.2379
  541MOL0     H71364   1.868   6.906   4.939 -1.1499 -1.1737 -0.2081
  541MOL0     H71365   1.684   7.023   5.069 -1.9095 -0.3743 -0.4614
  541MOL0     H71366   1.486   7.061   5.243  0.7167  1.0019  1.1958
  541MOL0     H71367   1.454   6.943   5.368  2.0646  0.6769  1.1146
  541MOL0     H71368   1.380   6.775   5.213 -4.1287 -0.2573 -1.3079
  541MOL0     H71369   1.416   6.884   5.077  1.2198  1.0157  0.6271
  541MOL0     H71370   1.216   6.915   5.326 -1.0835 -5.1968 -0.0297
  541MOL0     H71371   1.229   7.043   5.199 -0.3887 -0.1783 -1.5648
  541MOL0     H71372   1.181   6.901   5.027  2.0579  0.0812  0.0908
  541MOL0     H71373   1.048   6.898   5.157 -1.0126 -1.5254 -0.5703
  541MOL0     H71374   0.905   6.780   5.031 -0.2955  1.0357  1.0767
  541MOL0     H71375   0.710   6.656   5.066  0.5130 -0.0940  0.1478
  541MOL0     H71376   0.391   6.278   5.143 -2.4734 -0.3903  0.0866
  541MOL0     H71377   0.223   6.193   5.293  2.1763 -0.2238  1.2624
  541MOL0     H71378  -0.007   6.187   5.375 -0.0296  0.2318 -0.1666
  541MOL0     H71379  -0.078   6.235   5.530 -0.3628 -1.4475 -0.2408
  541MOL0     H71380   0.134   6.205   5.651 -1.1243  0.1826  0.1832
  541MOL0     H71381   0.203   6.124   5.507 -0.1792  2.5820 -2.9520
  541MOL0     H71382   0.018   5.951   5.525 -3.0655 -0.3297  1.6887
  541MOL0     H71383  -0.024   6.032   5.683  0.1352 -0.6886  0.4236
  541MOL0     H71384   0.235   5.906   5.615  0.2479 -2.1892  0.5887
  541MOL0     H71385   0.206   5.991   5.765  0.2151 -1.6124  1.1124
  541MOL0     H71386   0.057   5.746   5.675 -2.5639  3.2104 -1.1394
  541MOL0     H71387   0.035   5.822   5.827 -1.4324  2.8590 -2.7107
  541MOL0     H71388   0.316   5.726   5.733 -0.6462  3.6035 -1.1833
  541MOL0     H71389   0.215   5.619   5.813  2.4919 -1.0668  2.1589
  541MOL0     H71390   0.307   5.894   5.929 -1.6404  0.5910  1.1586
  541MOL0     H71391   0.199   5.777   6.014  2.5221 -2.7921  0.7472
  541MOL0     H71392   0.377   5.599   5.978 -2.8219  0.8623 -0.3993
  541MOL0     H71393   0.399   5.719   6.107  5.5739  1.6186  0.0200
  541MOL0     H71394   0.232   6.565   5.516 -0.0939  0.6210  0.4568
  541MOL0     H71395   0.441   6.617   5.392  0.6126  0.5285  0.8522
  541MOL0     H71396   0.920   6.413   5.357 -0.1649 -0.5595 -0.6887
  541MOL0     H71397   1.127   6.535   5.307  0.5550  0.1308 -2.2121
  541MOL0     H71398   2.435   6.588   4.201 -0.9550 -1.2212  2.2127
  541MOL0     H71399   2.616   6.421   4.204  2.6022  2.9708 -3.8953
  541MOL0     H71400   3.219   6.437   4.339 -1.9612  1.1057  0.2153
  541MOL0     H71401   3.349   6.242   4.391  0.9976 -1.6883 -0.1686
  541MOL0     H71402   3.176   5.834   4.449 -3.2503  1.4193  1.3728
  541MOL0     H71403   3.180   5.888   4.623  1.5293 -0.1002  0.9442
  541MOL0     H71404   3.334   5.698   4.580 -1.5835  1.1925  3.6357
  541MOL0     H71405   3.403   5.788   4.439 -2.6945 -1.2648 -1.4318
  541MOL0     H71406   3.424   5.832   4.743 -1.5994  4.3921  0.9558
  541MOL0     H71407   3.495   5.954   4.640  2.7031 -0.8316 -1.5351
  541MOL0     H71408   3.570   5.649   4.640 -0.8042  0.5446 -0.8251
  541MOL0     H71409   3.662   5.783   4.574  1.0957 -1.6509 -0.1102
  541MOL0     H71410   3.785   5.785   4.970 -0.5206 -2.8686  0.5230
  541MOL0     H71411   3.003   6.017   4.488 -1.4536  0.9554  0.9610
  541MOL0     H71412   2.863   6.205   4.441 -1.1536 -2.2016 -1.0893
  542MOL0     O71413   9.341   6.462   9.149 -0.9736  0.5925  0.6846
  542MOL0     C71414   9.377   6.355   9.193  0.6633 -0.3166  0.3626
  542MOL0     O71415   9.304   6.243   9.197 -0.3100  0.8443 -0.3679
  542MOL0     C71416   9.163   6.237   9.189  0.1738 -0.2398  0.7666
  542MOL0     C71417   9.077   6.329   9.128 -0.7405 -0.5062  0.7485
  542MOL0     C71418   8.937   6.298   9.130 -0.1289  0.7978 -0.0921
  542MOL0     C71419   8.885   6.172   9.178 -0.4703 -0.2414  0.9482
  542MOL0     O71420   8.753   6.152   9.168  0.3727 -0.4789  0.5065
  542MOL0     C71421   8.691   6.109   9.289  0.4720 -0.1617  0.5454
  542MOL0     C71422   8.587   5.996   9.252  0.2574 -0.1159  0.7590
  542MOL0     C71423   8.658   5.876   9.187  0.4788 -0.6877 -0.1651
  542MOL0     C71424   8.569   5.760   9.141 -0.5188  0.4667  1.0256
  542MOL0     C71425   8.657   5.636   9.106  0.3903  0.2133 -0.3524
  542MOL0     C71426   8.786   5.684   9.031  0.1571 -0.2976  0.3522
  542MOL0     C71427   8.874   5.558   9.027 -0.2062 -0.6303  0.7491
  542MOL0     C71428   8.986   5.571   8.930  0.4206  0.3614 -0.6139
  542MOL0     N71429   9.097   5.663   8.957 -0.2979 -1.1085 -0.3543
  542MOL0     C71430   9.109   5.794   8.906 -0.2266  0.3456  0.4290
  542MOL0     C71431   9.235   5.837   8.944 -0.6131 -0.5948 -0.7268
  542MOL0     C71432   9.293   5.964   8.900  0.1316  0.6740  0.0212
  542MOL0     C71433   9.431   5.940   8.843  0.1237  0.6353 -0.4974
  542MOL0     C71434   9.435   5.844   8.716  0.0558 -0.6063 -0.0042
  542MOL0     C71435   9.589   5.809   8.674  1.1336 -0.3436 -0.0917
  542MOL0     O71436   9.587   5.747   8.546  0.7863  0.7605  0.4155
  542MOL0     C71437   9.688   5.662   8.508 -1.7755  0.2620  0.2251
  542MOL0     C71438   9.813   5.653   8.578  0.0151 -0.3237  0.6617
  542MOL0     C71439   9.910   5.555   8.554  0.0112 -0.0233 -0.9718
  542MOL0     C71440   9.878   5.460   8.454  0.5269  1.1030  0.6135
  542MOL0     C71441   9.968   5.348   8.410 -0.8441  0.2779 -0.1280
  542MOL0     O71442  10.086   5.342   8.476  0.4373  0.1222  0.9876
  542MOL0     C71443  10.196   5.271   8.442 -0.1275  0.0309  0.3598
  542MOL0     C71444  10.294   5.252   8.538 -0.4448 -0.5124  0.8445
  542MOL0     C71445  10.407   5.185   8.497 -0.1421 -0.0875 -0.0594
  542MOL0     C71446  10.433   5.159   8.364  0.7485  0.2639  0.2148
  542MOL0     O71447  10.538   5.077   8.316 -0.3263 -0.6553 -0.7676
  542MOL0     C71448  10.603   4.988   8.408 -0.5304 -0.9628 -0.2992
  542MOL0     C71449  10.719   4.906   8.335  0.1935 -0.1551 -0.3019
  542MOL0     C71450  10.838   4.996   8.305 -0.6904 -0.7834  0.3827
  542MOL0     C71451  10.962   4.909   8.276  0.7306  0.0260  0.2238
  542MOL0     C71452  10.941   4.806   8.157 -0.5964 -0.5719  0.1249
  542MOL0     C71453  11.070   4.730   8.140 -0.1720 -0.7205  0.2397
  542MOL0     C71454  11.068   4.649   8.010  0.5429 -0.1205  0.0020
  542MOL0     C71455  11.178   4.548   8.015 -0.0557  0.7516  0.1302
  542MOL0    Cl71456  11.154   4.422   8.131  0.6145  0.3053  0.1680
  542MOL0     C71457  10.333   5.196   8.259 -0.6996  0.3160  0.2309
  542MOL0     C71458  10.212   5.234   8.305 -0.3682 -0.5641 -0.1773
  542MOL0     O71459   9.933   5.283   8.308 -0.1427  0.1852 -0.2435
  542MOL0     C71460   9.763   5.475   8.375 -0.1483  0.0060 -0.1371
  542MOL0     C71461   9.671   5.575   8.404 -0.2438  0.4604  0.0303
  542MOL0     N71462   9.295   5.742   9.025  1.4636  0.2852  0.1182
  542MOL0     N71463   9.210   5.642   9.033  0.0107 -0.3642 -0.4857
  542MOL0     C71464   8.975   6.084   9.219 -0.2331 -0.2323  0.2386
  542MOL0     C71465   9.111   6.107   9.218  0.1666  0.4799 -0.9230
  542MOL0     C71466   9.516   6.335   9.221  0.1276  0.6637 -0.6980
  542MOL0     C71467   9.611   6.434   9.196  0.0312 -0.5018  0.5064
  542MOL0     C71468   9.749   6.413   9.208  0.3442  0.6570  0.6754
  542MOL0     C71469   9.791   6.294   9.269  0.1278  0.3404  0.2845
  542MOL0     O71470   9.926   6.283   9.287 -0.0531  0.2155 -0.8029
  542MOL0     C71471   9.976   6.156   9.328  0.3541  0.3516  0.6039
  542MOL0     C71472  10.127   6.154   9.292  0.1881 -0.8113 -0.6353
  542MOL0     C71473  10.201   6.231   9.406 -0.0413  1.0796 -0.0237
  542MOL0     C71474  10.170   6.387   9.392 -0.4498 -0.4950 -0.3860
  542MOL0     C71475  10.210   6.452   9.269 -0.4495  0.9126  0.5149
  542MOL0     C71476  10.254   6.508   9.167 -0.8092  0.2359 -0.4993
  542MOL0     C71477   9.694   6.198   9.310 -0.5439 -0.5384  0.6474
  542MOL0     C71478   9.561   6.215   9.284 -0.2286 -0.0527  0.0746
  542MOL0     H71479   9.116   6.424   9.092 -1.8489 -0.4728 -0.4400
  542MOL0     H71480   8.863   6.376   9.111 -2.8937 -1.3962  0.9961
  542MOL0     H71481   8.651   6.194   9.345  2.1089  1.1300 -0.1551
  542MOL0     H71482   8.760   6.079   9.368  0.9157 -0.7987 -0.0678
  542MOL0     H71483   8.515   6.032   9.178 -0.0199 -1.3364  0.4152
  542MOL0     H71484   8.530   5.963   9.340 -0.6903 -1.5757 -0.3524
  542MOL0     H71485   8.738   5.853   9.259 -0.0404 -2.2478 -0.0500
  542MOL0     H71486   8.706   5.916   9.097  4.0807 -2.4266  0.7525
  542MOL0     H71487   8.500   5.725   9.217 -2.4710 -0.7537 -1.1943
  542MOL0     H71488   8.506   5.796   9.059 -2.0044  1.6719  2.6308
  542MOL0     H71489   8.598   5.564   9.048 -0.1948 -0.4043  0.9852
  542MOL0     H71490   8.682   5.608   9.208  2.4973  2.4936 -0.1374
  542MOL0     H71491   8.841   5.748   9.099 -2.3925 -1.1818  3.5267
  542MOL0     H71492   8.759   5.719   8.931 -0.7007  1.0664  1.0327
  542MOL0     H71493   8.902   5.545   9.132  0.5465  3.2361  1.1776
  542MOL0     H71494   8.827   5.466   8.993  0.3224  0.5353 -3.8167
  542MOL0     H71495   8.933   5.604   8.840 -1.0606 -2.7409 -1.0398
  542MOL0     H71496   9.024   5.470   8.912 -1.3075 -0.4066 -0.1931
  542MOL0     H71497   9.033   5.838   8.843  0.6665  0.7473 -0.3929
  542MOL0     H71498   9.293   6.037   8.981 -1.0450  1.6113 -0.7845
  542MOL0     H71499   9.222   6.014   8.833 -1.1750 -0.5845  0.4229
  542MOL0     H71500   9.495   5.894   8.918  0.2182  0.5604 -0.6228
  542MOL0     H71501   9.482   6.032   8.816  0.6742  0.2151 -0.9109
  542MOL0     H71502   9.391   5.745   8.728 -0.5153 -0.2144  1.2490
  542MOL0     H71503   9.382   5.900   8.639 -0.0329  2.4253  2.1105
  542MOL0     H71504   9.620   5.744   8.756  1.9005 -1.3858 -1.1922
  542MOL0     H71505   9.657   5.894   8.683  5.8110 -3.8116  0.5121
  542MOL0     H71506   9.831   5.725   8.657  2.7515 -2.6913  2.4239
  542MOL0     H71507   9.992   5.543   8.623 -0.6489 -0.3948 -0.2389
  542MOL0     H71508  10.260   5.275   8.639 -5.1389 -3.4414  0.2849
  542MOL0     H71509  10.481   5.161   8.572 -0.3813 -0.9412 -0.0877
  542MOL0     H71510  10.538   4.915   8.458 -1.5280  0.7479  0.9894
  542MOL0     H71511  10.638   5.046   8.494  0.1799 -2.6482  0.6122
  542MOL0     H71512  10.695   4.855   8.242 -0.7232  1.8484 -1.2050
  542MOL0     H71513  10.753   4.829   8.406  0.7053 -0.1351 -0.5189
  542MOL0     H71514  10.851   5.058   8.395  0.3157 -4.7695  3.2386
  542MOL0     H71515  10.815   5.065   8.223  0.7849 -0.3258  0.3254
  542MOL0     H71516  11.046   4.977   8.263  0.4598  0.3040 -0.0701
  542MOL0     H71517  10.988   4.843   8.360  3.2165  3.2073  2.1778
  542MOL0     H71518  10.922   4.856   8.062  1.1148 -1.5002 -0.7587
  542MOL0     H71519  10.862   4.736   8.186 -0.9249 -1.3628 -2.4407
  542MOL0     H71520  11.082   4.669   8.230  1.2709  1.6609  1.7765
  542MOL0     H71521  11.159   4.792   8.143  1.2244 -2.5810  3.8579
  542MOL0     H71522  10.970   4.600   8.013  0.5012 -0.0761 -0.4739
  542MOL0     H71523  11.082   4.701   7.915  2.4202 -3.9061 -2.0378
  542MOL0     H71524  11.273   4.601   8.027  1.2034 -1.3701  0.0794
  542MOL0     H71525  11.177   4.510   7.912  0.2229  2.2649 -0.4546
  542MOL0     H71526  10.346   5.176   8.153  0.8053 -0.6515  0.5690
  542MOL0     H71527  10.138   5.244   8.227 -0.0815 -0.7725 -0.4788
  542MOL0     H71528   9.745   5.415   8.285 -2.7002  3.0366 -1.8485
  542MOL0     H71529   9.580   5.567   8.345 -1.5268 -1.9309  2.1270
  542MOL0     H71530   8.936   5.988   9.251 -0.9541 -0.1993 -0.5189
  542MOL0     H71531   9.173   6.033   9.268  0.8023  0.4302 -1.7536
  542MOL0     H71532   9.573   6.526   9.151 -1.0767 -1.9905 -1.8128
  542MOL0     H71533   9.822   6.486   9.175  2.6441 -1.8487 -0.1389
  542MOL0     H71534   9.925   6.083   9.265 -4.5404  2.8825  1.1370
  542MOL0     H71535   9.945   6.130   9.429 -0.1376  1.6741  0.8168
  542MOL0     H71536  10.172   6.056   9.278  0.1208 -1.0242  0.5682
  542MOL0     H71537  10.145   6.209   9.198 -1.5864 -0.1496 -0.6346
  542MOL0     H71538  10.308   6.223   9.387  0.2104 -0.5340  1.8070
  542MOL0     H71539  10.173   6.198   9.506 -1.1855 -1.0652 -0.9971
  542MOL0     H71540  10.066   6.402   9.419  0.2084  0.5389  1.7911
  542MOL0     H71541  10.218   6.438   9.476 -0.6645  0.6187 -0.9230
  542MOL0     H71542  10.310   6.535   9.080 -2.8339  1.1063 -1.6012
  542MOL0     H71543   9.728   6.120   9.378  0.9558 -0.0990  0.4211
  542MOL0     H71544   9.489   6.136   9.307 -0.3165 -0.6789 -2.0983
  543MOL0     O71545   7.206   3.153   5.128  0.8149  0.1964 -0.0917
  543MOL0     C71546   7.309   3.122   5.191 -0.4581 -0.4048 -0.7514
  543MOL0     O71547   7.329   3.004   5.264  0.7548 -0.7787 -0.1113
  543MOL0     C71548   7.230   2.905   5.272  0.0502 -0.8732  0.5829
  543MOL0     C71549   7.096   2.930   5.296  0.0466  0.5967  0.5525
  543MOL0     C71550   7.013   2.831   5.337 -0.7780 -0.1266 -0.3941
  543MOL0     C71551   7.050   2.695   5.339 -0.5454 -0.0194 -0.4440
  543MOL0     O71552   6.955   2.603   5.386  0.9417  0.3747  0.3779
  543MOL0     C71553   6.966   2.467   5.338  0.0274  0.1662  0.8866
  543MOL0     C71554   6.851   2.369   5.366 -0.0649 -0.2130  0.0425
  543MOL0     C71555   6.741   2.385   5.260 -0.5702  0.5549  0.0231
  543MOL0     C71556   6.625   2.290   5.278  1.0295 -0.0507 -0.0339
  543MOL0     C71557   6.505   2.341   5.188  0.8082  0.0882 -0.4370
  543MOL0     C71558   6.436   2.473   5.230  0.1478 -0.6264 -0.6189
  543MOL0     C71559   6.314   2.507   5.140 -0.5023 -0.1151  0.7358
  543MOL0     C71560   6.231   2.645   5.174  0.2509 -0.6217 -0.2517
  543MOL0     N71561   6.143   2.653   5.062 -0.7554  0.0238 -0.1524
  543MOL0     C71562   6.171   2.702   4.928  0.0180  0.6612 -0.0816
  543MOL0     C71563   6.048   2.694   4.875 -0.0889 -0.2359  0.4857
  543MOL0     C71564   6.024   2.707   4.732  0.6085 -0.9563  0.2559
  543MOL0     C71565   5.971   2.847   4.711  0.1427 -0.5526  0.9262
  543MOL0     C71566   5.953   2.865   4.560 -0.4366 -0.5765  0.3424
  543MOL0     C71567   5.873   2.772   4.477  0.3680  0.1662 -0.9010
  543MOL0     O71568   5.738   2.784   4.537  0.5464  0.2473  0.0458
  543MOL0     C71569   5.643   2.843   4.459 -0.9874  0.8465 -0.7203
  543MOL0     C71570   5.586   2.968   4.495  0.8819  0.9425  0.5843
  543MOL0     C71571   5.490   3.031   4.409  0.1451 -0.0423 -0.0792
  543MOL0     C71572   5.444   2.972   4.292  0.5626 -0.1218 -0.6087
  543MOL0     C71573   5.352   3.037   4.195  0.9006  0.7027 -1.0948
  543MOL0     O71574   5.298   3.151   4.242 -0.3577  0.0901  0.0327
  543MOL0     C71575   5.186   3.214   4.179 -0.1416 -0.1457  0.7328
  543MOL0     C71576   5.086   3.146   4.120  1.1782  0.0316 -0.0842
  543MOL0     C71577   4.971   3.211   4.074  0.0245  0.2292  0.3923
  543MOL0     C71578   4.979   3.350   4.053  0.6215 -0.4396 -0.3501
  543MOL0     O71579   4.886   3.423   3.981  0.0121  0.7681  0.3651
  543MOL0     C71580   4.795   3.359   3.898  0.8830  0.5401 -0.0202
  543MOL0     C71581   4.677   3.452   3.856  0.3175  0.4153 -0.3248
  543MOL0     C71582   4.713   3.513   3.731  0.0576  0.4958 -0.4338
  543MOL0     C71583   4.613   3.621   3.688  0.0899  0.9080 -0.0409
  543MOL0     C71584   4.643   3.757   3.739  0.1773 -0.7996 -0.5463
  543MOL0     C71585   4.536   3.853   3.732 -0.5549  0.1208 -0.2571
  543MOL0     C71586   4.589   3.996   3.748 -0.1350 -0.0530 -0.3774
  543MOL0     C71587   4.602   4.038   3.895 -0.0151  0.9766  0.2425
  543MOL0    Cl71588   4.438   4.050   3.967  0.1340  0.2354  0.0591
  543MOL0     C71589   5.079   3.416   4.115 -0.9659  0.6257 -0.6101
  543MOL0     C71590   5.185   3.354   4.176  0.6384  0.2763 -0.4776
  543MOL0     O71591   5.321   2.974   4.097 -0.1441 -0.4810  0.1985
  543MOL0     C71592   5.507   2.845   4.261 -0.5063  0.6915  0.3991
  543MOL0     C71593   5.604   2.785   4.342 -0.2059 -0.6054  0.4016
  543MOL0     N71594   5.950   2.651   4.967  0.8218 -0.3241 -0.3742
  543MOL0     N71595   6.011   2.627   5.076 -0.7015  0.1671  0.7419
  543MOL0     C71596   7.182   2.667   5.313  0.1006  0.4083 -0.1506
  543MOL0     C71597   7.269   2.771   5.279 -0.2935 -0.8188  0.9421
  543MOL0     C71598   7.422   3.209   5.180  0.3620  0.2475  0.4727
  543MOL0     C71599   7.555   3.156   5.214  0.0880 -0.2788  0.3299
  543MOL0     C71600   7.667   3.225   5.176 -0.4420  0.7225 -0.1637
  543MOL0     C71601   7.654   3.353   5.137 -0.5353 -0.5809  0.4562
  543MOL0     O71602   7.757   3.444   5.113  0.1523 -0.5229  0.1759
  543MOL0     C71603   7.895   3.412   5.151 -0.3382 -0.3262 -0.2842
  543MOL0     C71604   7.984   3.538   5.145 -0.0082  0.3283 -1.2081
  543MOL0     C71605   8.125   3.507   5.200  1.2932  0.2589  0.5777
  543MOL0     C71606   8.135   3.481   5.353 -0.1562 -0.2143  0.8487
  543MOL0     C71607   8.266   3.426   5.395 -0.4707 -0.1827 -0.9811
  543MOL0     C71608   8.378   3.398   5.435 -0.0372 -0.1221 -1.3074
  543MOL0     C71609   7.534   3.412   5.114 -0.2371 -0.6407 -1.4360
  543MOL0     C71610   7.414   3.341   5.138  0.0274  0.7135  0.5911
  543MOL0     H71611   7.069   3.035   5.289 -1.5869  0.1052 -1.7193
  543MOL0     H71612   6.918   2.857   5.384 -0.7286 -0.1212 -0.2966
  543MOL0     H71613   7.053   2.427   5.391 -0.6268 -4.0418 -0.8310
  543MOL0     H71614   6.993   2.470   5.232  2.0916 -0.3146  1.3464
  543MOL0     H71615   6.813   2.388   5.467  2.0098  1.1318  0.6171
  543MOL0     H71616   6.885   2.265   5.366  1.3592  0.2290 -0.8508
  543MOL0     H71617   6.791   2.369   5.164  2.3215 -1.0751  1.6614
  543MOL0     H71618   6.703   2.487   5.272 -2.2630  0.0361 -0.5937
  543MOL0     H71619   6.650   2.186   5.258 -2.0610 -0.2002 -4.7242
  543MOL0     H71620   6.589   2.297   5.381  1.6602  2.0866  0.0914
  543MOL0     H71621   6.429   2.264   5.204  0.9309  0.1246  0.3634
  543MOL0     H71622   6.530   2.335   5.082 -1.6603  2.4375 -1.2754
  543MOL0     H71623   6.505   2.556   5.214 -3.7659  3.1238  0.1721
  543MOL0     H71624   6.406   2.465   5.335 -2.4133  1.4469 -1.0833
  543MOL0     H71625   6.366   2.519   5.045  1.2103  0.3813  1.6810
  543MOL0     H71626   6.248   2.420   5.145 -0.6112 -0.1834 -1.3260
  543MOL0     H71627   6.295   2.733   5.190 -0.1460 -0.4761  0.6008
  543MOL0     H71628   6.175   2.627   5.266  0.6737 -4.1243 -0.5503
  543MOL0     H71629   6.268   2.724   4.885  0.3985  1.9758  1.3592
  543MOL0     H71630   5.954   2.630   4.700  0.2213  0.6222 -3.2468
  543MOL0     H71631   6.119   2.697   4.678  1.1196 -2.1537  1.3504
  543MOL0     H71632   6.047   2.924   4.729 -1.6460  1.0916  1.8719
  543MOL0     H71633   5.879   2.875   4.763 -2.6034  0.1095 -3.6815
  543MOL0     H71634   5.918   2.965   4.536  1.2423 -0.3931 -1.6038
  543MOL0     H71635   6.051   2.857   4.511 -0.9905  0.3361 -0.9637
  543MOL0     H71636   5.909   2.668   4.487 -1.3092 -0.3876 -0.3659
  543MOL0     H71637   5.872   2.801   4.371 -1.3471  1.8487 -0.4699
  543MOL0     H71638   5.619   3.028   4.579 -1.2449  0.6253  1.7127
  543MOL0     H71639   5.456   3.132   4.430 -0.8248 -0.2614 -0.5645
  543MOL0     H71640   5.075   3.038   4.114 -2.2439  0.1332  1.8392
  543MOL0     H71641   4.888   3.150   4.039  0.6120 -0.2335 -0.2360
  543MOL0     H71642   4.747   3.271   3.940  0.2071  0.5137 -0.8072
  543MOL0     H71643   4.846   3.322   3.809  2.0117 -0.1907  0.9154
  543MOL0     H71644   4.662   3.537   3.923  3.2093  0.7965 -0.0314
  543MOL0     H71645   4.582   3.401   3.836 -0.2819  1.5854 -0.5247
  543MOL0     H71646   4.711   3.435   3.654 -3.8724 -0.9391  0.8672
  543MOL0     H71647   4.815   3.553   3.733 -0.6094  2.6411 -3.3745
  543MOL0     H71648   4.628   3.618   3.580  0.2928 -0.9256  0.0195
  543MOL0     H71649   4.509   3.599   3.715  0.1942  1.4184  0.8250
  543MOL0     H71650   4.719   3.786   3.666 -0.2193 -1.4163 -1.2198
  543MOL0     H71651   4.688   3.741   3.837  3.3467  0.6990 -1.6183
  543MOL0     H71652   4.463   3.837   3.811  0.9626 -0.9863  0.9938
  543MOL0     H71653   4.495   3.842   3.631 -1.4895  0.4128  0.0840
  543MOL0     H71654   4.688   4.003   3.704  0.2246 -0.7366  0.3027
  543MOL0     H71655   4.530   4.074   3.699  0.1046  1.2661  1.3459
  543MOL0     H71656   4.657   4.132   3.900 -0.9557  1.4914  1.5551
  543MOL0     H71657   4.650   3.964   3.959 -0.1161 -0.3046 -1.1037
  543MOL0     H71658   5.075   3.525   4.115  0.9556  0.7348  0.3069
  543MOL0     H71659   5.267   3.397   4.232  1.1453 -0.8930 -0.2838
  543MOL0     H71660   5.468   2.785   4.179 -0.9352 -1.6768  2.1919
  543MOL0     H71661   5.649   2.694   4.304 -0.0425  0.6002 -2.5221
  543MOL0     H71662   7.224   2.571   5.338 -0.9631 -0.6457 -2.1399
  543MOL0     H71663   7.375   2.755   5.261 -0.1246  1.0863 -0.1281
  543MOL0     H71664   7.579   3.058   5.255  0.8361 -0.3123 -0.1523
  543MOL0     H71665   7.765   3.182   5.192 -1.3207 -1.7613 -0.9992
  543MOL0     H71666   7.938   3.349   5.073 -1.1401  1.0574 -1.9091
  543MOL0     H71667   7.897   3.365   5.249 -0.1634 -0.9939 -0.6047
  543MOL0     H71668   7.996   3.563   5.040  0.3655 -2.1032 -1.8141
  543MOL0     H71669   7.938   3.621   5.199 -5.0301 -2.3885 -0.7245
  543MOL0     H71670   8.197   3.585   5.171  2.2041 -0.3577  1.1278
  543MOL0     H71671   8.158   3.415   5.152 -0.6250  0.8727 -2.1524
  543MOL0     H71672   8.116   3.574   5.407  0.6603  0.5891 -0.1975
  543MOL0     H71673   8.054   3.410   5.373  0.7014 -1.1136  1.1820
  543MOL0     H71674   8.470   3.366   5.480 -0.9920 -0.4739  0.5069
  543MOL0     H71675   7.507   3.511   5.080 -3.0396 -1.5166 -2.0607
  543MOL0     H71676   7.312   3.375   5.125 -0.6221 -1.0044  0.9036
  544MOL0     O71677   7.021   2.434   6.264  0.6681 -0.6446 -0.5445
  544MOL0     C71678   7.118   2.413   6.192 -0.7934 -0.4511 -0.7493
  544MOL0     O71679   7.121   2.412   6.059  0.2246 -0.1384  0.0444
  544MOL0     C71680   7.000   2.410   6.000 -0.2504  0.0081 -0.5238
  544MOL0     C71681   6.963   2.306   5.910  0.2282  0.1516  0.0955
  544MOL0     C71682   6.849   2.311   5.831  0.1853  0.4879  0.1972
  544MOL0     C71683   6.764   2.423   5.840 -0.5992  0.4121 -0.3137
  544MOL0     O71684   6.638   2.425   5.778 -0.3112  0.6175  0.0115
  544MOL0     C71685   6.627   2.541   5.690 -0.6922  1.1373 -0.2113
  544MOL0     C71686   6.515   2.535   5.587  0.2347  0.1157 -0.3574
  544MOL0     C71687   6.435   2.667   5.567 -0.1690  0.3559  0.6609
  544MOL0     C71688   6.526   2.786   5.550 -0.4679  0.2649  0.2813
  544MOL0     C71689   6.463   2.915   5.514 -0.2571 -0.3281 -0.5351
  544MOL0     C71690   6.465   2.923   5.358  0.8992  0.3193  0.2543
  544MOL0     C71691   6.370   3.033   5.301 -1.0575  0.5501  0.3124
  544MOL0     C71692   6.410   3.174   5.312  0.0915 -0.5235 -0.9133
  544MOL0     N71693   6.302   3.265   5.265  0.0129 -0.3566 -0.0404
  544MOL0     C71694   6.326   3.353   5.158 -0.1338 -0.1817  0.8660
  544MOL0     C71695   6.230   3.438   5.161  1.0233  0.6966 -0.6328
  544MOL0     C71696   6.203   3.557   5.083  0.3179 -0.1913  1.1270
  544MOL0     C71697   6.117   3.539   4.963  0.7362  0.1110  0.9153
  544MOL0     C71698   5.982   3.472   4.979 -0.2013 -0.1403  0.0027
  544MOL0     C71699   5.891   3.559   5.067  0.1205 -0.1846  0.3393
  544MOL0     O71700   5.772   3.482   5.080  0.1668 -0.1343 -0.7646
  544MOL0     C71701   5.654   3.508   5.012  0.0552 -1.4304 -0.5240
  544MOL0     C71702   5.556   3.579   5.079 -1.0781  0.1868  0.1708
  544MOL0     C71703   5.439   3.636   5.024 -0.1618  0.6177  0.5598
  544MOL0     C71704   5.413   3.610   4.879 -0.0994 -0.4942  0.7230
  544MOL0     C71705   5.290   3.648   4.806 -0.4412  0.4651 -0.0987
  544MOL0     O71706   5.287   3.625   4.671  0.1007 -0.3065  0.2756
  544MOL0     C71707   5.170   3.642   4.598 -0.1443 -0.0697 -0.7164
  544MOL0     C71708   5.136   3.529   4.521 -0.5320 -0.1651 -0.5652
  544MOL0     C71709   5.015   3.536   4.445 -0.1016  0.5219  0.5172
  544MOL0     C71710   4.926   3.645   4.464  0.5827  0.5303 -0.0829
  544MOL0     O71711   4.804   3.638   4.398 -0.1731 -0.1977 -0.6132
  544MOL0     C71712   4.771   3.768   4.348 -0.0431  0.3734 -0.0049
  544MOL0     C71713   4.688   3.745   4.222  0.6883  0.4242 -0.1110
  544MOL0     C71714   4.554   3.672   4.259 -0.1834 -0.5556  0.1597
  544MOL0     C71715   4.457   3.705   4.151 -0.2559  0.9994  0.3789
  544MOL0     C71716   4.323   3.623   4.150  0.7869  0.2031 -0.5447
  544MOL0     C71717   4.320   3.494   4.066  0.9212 -0.4063  0.1105
  544MOL0     C71718   4.197   3.410   4.090  0.6793  0.6606 -0.1717
  544MOL0     C71719   4.205   3.299   3.996 -0.9662  0.2783 -0.3600
  544MOL0    Cl71720   4.054   3.214   4.032 -0.1128 -0.2389 -0.4320
  544MOL0     C71721   4.953   3.745   4.554  0.5715  0.3467 -0.4085
  544MOL0     C71722   5.074   3.744   4.612 -0.4885 -0.7829  0.2053
  544MOL0     O71723   5.187   3.692   4.869 -0.6563  0.3127 -0.0206
  544MOL0     C71724   5.511   3.539   4.813 -0.3215 -0.3348  0.2699
  544MOL0     C71725   5.629   3.492   4.875 -0.3554 -0.1481 -0.0200
  544MOL0     N71726   6.142   3.393   5.261 -0.0513 -0.2312 -0.1260
  544MOL0     N71727   6.186   3.295   5.334  0.7114  0.6011  1.0840
  544MOL0     C71728   6.800   2.530   5.924 -0.1383 -0.3953 -0.6966
  544MOL0     C71729   6.916   2.520   6.004  0.1620  0.0489 -0.5154
  544MOL0     C71730   7.239   2.367   6.262  0.0355 -0.1306 -0.1088
  544MOL0     C71731   7.350   2.302   6.199  0.2325 -0.3391 -0.3528
  544MOL0     C71732   7.466   2.265   6.282 -0.7079 -0.0597  0.2598
  544MOL0     C71733   7.464   2.292   6.422 -0.1039  1.0932  0.7313
  544MOL0     O71734   7.567   2.268   6.514  0.2130  0.2784 -0.0507
  544MOL0     C71735   7.700   2.223   6.481 -0.6235  0.2682  1.0766
  544MOL0     C71736   7.798   2.338   6.443  0.1818  0.3144  0.8599
  544MOL0     C71737   7.769   2.466   6.522  0.3316 -0.3463  1.0679
  544MOL0     C71738   7.904   2.532   6.558 -0.3539  0.5087  0.4450
  544MOL0     C71739   7.891   2.670   6.606  0.4165  0.1305 -0.4180
  544MOL0     C71740   7.895   2.785   6.638  0.7180 -0.6902  0.3719
  544MOL0     C71741   7.348   2.342   6.481  0.3024 -0.2644 -0.3305
  544MOL0     C71742   7.238   2.375   6.399 -0.6501  0.4642  0.2789
  544MOL0     H71743   7.036   2.226   5.914  2.1699  1.8921  1.7218
  544MOL0     H71744   6.810   2.225   5.776 -2.4575  1.8469 -0.2253
  544MOL0     H71745   6.721   2.564   5.641  0.1928 -1.2554  0.2355
  544MOL0     H71746   6.614   2.613   5.772  2.5098 -0.3044  1.7582
  544MOL0     H71747   6.442   2.458   5.616  0.6221 -0.7330 -1.5466
  544MOL0     H71748   6.552   2.507   5.488 -1.0108 -0.3872 -0.7016
  544MOL0     H71749   6.372   2.681   5.655 -0.7524  1.0255  0.1402
  544MOL0     H71750   6.356   2.659   5.492 -3.2544  0.2135  3.7074
  544MOL0     H71751   6.578   2.797   5.646  1.9123 -2.4288 -0.5841
  544MOL0     H71752   6.599   2.752   5.476  0.2210  1.4147  0.3967
  544MOL0     H71753   6.513   3.002   5.557 -1.4619  0.3147 -0.4028
  544MOL0     H71754   6.365   2.923   5.561  0.9226  3.0834  1.7599
  544MOL0     H71755   6.435   2.826   5.316 -1.2008  0.4292  1.3559
  544MOL0     H71756   6.564   2.945   5.317  0.5745 -1.3073 -1.5657
  544MOL0     H71757   6.355   3.007   5.196 -3.2542 -1.2669  1.0123
  544MOL0     H71758   6.272   3.032   5.349 -0.7191 -0.2089  1.0189
  544MOL0     H71759   6.501   3.195   5.255  0.7166 -1.6307 -0.3637
  544MOL0     H71760   6.422   3.197   5.418  0.5158 -1.7132 -0.6891
  544MOL0     H71761   6.414   3.361   5.095 -1.0790  1.3315 -0.3325
  544MOL0     H71762   6.300   3.598   5.052  0.9592 -0.9663  2.0509
  544MOL0     H71763   6.154   3.630   5.148  0.1064  0.3572  0.3693
  544MOL0     H71764   6.172   3.489   4.882  1.5269  0.0480  1.4776
  544MOL0     H71765   6.086   3.636   4.925  0.6019 -1.1171 -2.4951
  544MOL0     H71766   5.938   3.464   4.880  0.3011 -0.8051 -0.1728
  544MOL0     H71767   5.990   3.373   5.026  3.3246  0.4518  0.9453
  544MOL0     H71768   5.860   3.651   5.016 -2.1970 -0.5066  1.0783
  544MOL0     H71769   5.935   3.576   5.166  0.8027 -0.0807  0.0246
  544MOL0     H71770   5.578   3.575   5.186  2.7011 -1.4063 -0.5021
  544MOL0     H71771   5.353   3.681   5.072 -0.1238  1.2204  0.0759
  544MOL0     H71772   5.199   3.441   4.518 -2.4923 -1.7270  1.4975
  544MOL0     H71773   4.983   3.460   4.375 -3.0302  1.4464  0.7149
  544MOL0     H71774   4.858   3.829   4.323 -0.3359  1.7818  2.1362
  544MOL0     H71775   4.717   3.828   4.422  0.2149  1.2489 -0.5160
  544MOL0     H71776   4.746   3.693   4.145  0.6700 -2.9947  1.9670
  544MOL0     H71777   4.671   3.846   4.185 -2.2767  0.5251  1.2625
  544MOL0     H71778   4.517   3.725   4.348  3.7914 -0.3821  1.9145
  544MOL0     H71779   4.564   3.567   4.286 -0.0283  0.3203  4.2571
  544MOL0     H71780   4.421   3.808   4.154 -0.2542  0.9859  0.9371
  544MOL0     H71781   4.507   3.691   4.054 -3.1759 -2.9185 -0.7937
  544MOL0     H71782   4.242   3.676   4.098  1.6643 -1.0891 -3.4399
  544MOL0     H71783   4.299   3.613   4.256  1.0419 -0.4551 -0.5477
  544MOL0     H71784   4.410   3.435   4.085  0.6019 -0.2132  2.5107
  544MOL0     H71785   4.329   3.519   3.960 -1.0625  2.6484  0.5420
  544MOL0     H71786   4.200   3.375   4.194  3.0943  0.6945 -0.1739
  544MOL0     H71787   4.102   3.459   4.070  1.3365  1.1623 -2.2246
  544MOL0     H71788   4.288   3.228   4.004 -0.4898  0.9620  1.1839
  544MOL0     H71789   4.208   3.338   3.894 -0.5375 -2.9510 -1.7033
  544MOL0     H71790   4.889   3.828   4.581  0.5835  1.6661 -3.8636
  544MOL0     H71791   5.120   3.829   4.663  0.2802 -0.5502 -0.8395
  544MOL0     H71792   5.495   3.506   4.710 -2.9445 -0.9377  0.7818
  544MOL0     H71793   5.707   3.436   4.824  0.1879  1.6484 -1.2422
  544MOL0     H71794   6.731   2.613   5.930  0.3517  0.2120 -2.6416
  544MOL0     H71795   6.942   2.603   6.069  0.1460  1.1449 -1.8692
  544MOL0     H71796   7.348   2.284   6.092 -0.4215  1.1344 -0.6097
  544MOL0     H71797   7.554   2.225   6.233 -0.9278  0.5205 -0.6351
  544MOL0     H71798   7.690   2.159   6.394 -1.1421  0.2274  1.1622
  544MOL0     H71799   7.733   2.160   6.565  0.2215  2.5947  2.6068
  544MOL0     H71800   7.902   2.306   6.450  0.7869  2.1862  1.2516
  544MOL0     H71801   7.793   2.352   6.334  0.8272 -2.4020  0.4161
  544MOL0     H71802   7.720   2.441   6.616  0.2005 -0.9756  0.8307
  544MOL0     H71803   7.697   2.522   6.461 -3.4578 -5.5840  0.0714
  544MOL0     H71804   7.958   2.475   6.634 -0.9858  0.2024  0.6655
  544MOL0     H71805   7.976   2.521   6.476 -0.4429 -2.0016  0.6190
  544MOL0     H71806   7.901   2.889   6.665  1.1563 -0.8393  0.8622
  544MOL0     H71807   7.348   2.375   6.584 -0.0793  0.1481 -0.4572
  544MOL0     H71808   7.160   2.425   6.456 -0.6478 -1.1104  1.7502
  545MOL0     O71809   6.188  10.001   7.178 -0.1453 -0.4279  0.3168
  545MOL0     C71810   6.279  10.069   7.125 -0.0858 -0.6589  0.0579
  545MOL0     O71811   6.249  10.191   7.047  0.3847  0.5194 -0.7448
  545MOL0     C71812   6.119  10.233   7.021  0.3036 -1.1849 -0.2876
  545MOL0     C71813   6.019  10.140   6.972 -0.1249  0.1165 -0.1356
  545MOL0     C71814   5.897  10.188   6.932  0.8922 -0.4071 -1.5163
  545MOL0     C71815   5.861  10.322   6.953 -0.7441  0.5196  0.0495
  545MOL0     O71816   5.734  10.346   6.909 -0.4111 -0.2846 -0.0858
  545MOL0     C71817   5.676  10.469   6.953  0.4543  1.1612 -0.0124
  545MOL0     C71818   5.539  10.460   6.907  0.5941  0.9011 -0.2567
  545MOL0     C71819   5.469  10.596   6.940 -0.1360  0.5087  0.2013
  545MOL0     C71820   5.333  10.588   6.892  0.0010 -0.3536 -0.6519
  545MOL0     C71821   5.256  10.717   6.917 -0.9067 -0.0906  0.7638
  545MOL0     C71822   5.111  10.725   6.873 -0.4922 -0.2538 -0.3152
  545MOL0     C71823   5.095  10.746   6.718  0.0034 -0.4812  0.3072
  545MOL0     C71824   4.955  10.785   6.661  0.3331  0.1338  0.2187
  545MOL0     N71825   4.938  10.728   6.531 -0.0928 -0.5959  0.2995
  545MOL0     C71826   4.934  10.802   6.415 -0.1013 -0.6303 -0.3329
  545MOL0     C71827   4.934  10.719   6.308  0.7265 -0.3204  0.2733
  545MOL0     C71828   4.938  10.765   6.168  0.3936 -0.2851 -0.2498
  545MOL0     C71829   4.830  10.693   6.082 -0.5232  0.3967  0.2762
  545MOL0     C71830   4.821  10.778   5.949  1.0915  0.2821  0.4967
  545MOL0     C71831   4.741  10.701   5.844 -0.6155 -0.6298  1.4919
  545MOL0     O71832   4.646  10.610   5.891  0.9528 -0.0815  0.0774
  545MOL0     C71833   4.518  10.650   5.914 -0.6695  0.6062 -0.0313
  545MOL0     C71834   4.475  10.776   5.897 -0.5294  0.2138  0.3807
  545MOL0     C71835   4.336  10.810   5.904 -0.8419  0.0522 -0.3546
  545MOL0     C71836   4.246  10.723   5.964 -0.1797 -0.2090  0.5688
  545MOL0     C71837   4.110  10.769   5.990  0.1728 -0.1107  0.1926
  545MOL0     O71838   4.088  10.904   5.984  0.5457 -0.0140 -0.1502
  545MOL0     C71839   3.968  10.956   6.025 -1.0456 -0.8632  0.3588
  545MOL0     C71840   3.969  11.060   6.117 -0.0243 -1.2200  0.9355
  545MOL0     C71841   3.861  11.138   6.144 -0.1796 -0.6530 -0.0686
  545MOL0     C71842   3.742  11.110   6.077  0.2920 -0.6517 -0.5640
  545MOL0     O71843   3.622  11.181   6.088  0.5704  0.4975 -0.7703
  545MOL0     C71844   3.588  11.255   6.209  0.3228 -0.3168 -0.7539
  545MOL0     C71845   3.437  11.300   6.216  0.7608  0.1762  0.2785
  545MOL0     C71846   3.334  11.197   6.160 -0.7252  0.8472  0.1142
  545MOL0     C71847   3.256  11.254   6.041 -0.3457 -0.6160  0.4647
  545MOL0     C71848   3.148  11.357   6.085 -0.4966 -0.5743 -0.5272
  545MOL0     C71849   3.085  11.422   5.966  0.4466 -0.1919 -0.0615
  545MOL0     C71850   2.958  11.496   6.012  0.2185  0.4496 -0.5277
  545MOL0     C71851   2.919  11.583   5.892  0.1272  0.6754 -0.0353
  545MOL0    Cl71852   2.838  11.470   5.776  0.1255  0.3351 -0.4551
  545MOL0     C71853   3.739  11.004   5.986 -0.0362 -0.0402  0.1544
  545MOL0     C71854   3.851  10.922   5.957  0.0019  0.3401 -0.0349
  545MOL0     O71855   4.030  10.684   6.030 -0.1359  0.1523 -0.0870
  545MOL0     C71856   4.299  10.596   5.990  0.0615 -0.6582  0.0364
  545MOL0     C71857   4.434  10.552   5.969 -0.1984 -0.1392  0.2993
  545MOL0     N71858   4.916  10.593   6.363 -0.4735  0.4127  0.2821
  545MOL0     N71859   4.923  10.594   6.494 -0.5565 -0.8905 -0.7018
  545MOL0     C71860   5.953  10.412   7.000  0.0112 -0.3439 -1.1350
  545MOL0     C71861   6.083  10.373   7.034 -0.6000 -0.3169  0.2702
  545MOL0     C71862   6.420  10.031   7.154 -0.4674 -0.7963 -0.3690
  545MOL0     C71863   6.520  10.110   7.097  0.4965  0.5038 -0.8482
  545MOL0     C71864   6.661  10.083   7.125 -0.4300  0.1614  0.2830
  545MOL0     C71865   6.697   9.981   7.215 -0.1083  0.3817 -0.2346
  545MOL0     O71866   6.820   9.935   7.234 -0.2390  0.3880  0.1758
  545MOL0     C71867   6.910  10.033   7.287 -0.4896 -0.1665 -0.7673
  545MOL0     C71868   7.045  10.026   7.223 -0.3387  1.2557 -0.6435
  545MOL0     C71869   7.149  10.131   7.258  0.7340 -0.0777 -0.2225
  545MOL0     C71870   7.174  10.127   7.403 -0.6511  0.5263  0.0176
  545MOL0     C71871   7.253  10.012   7.443  0.0069  0.8092 -0.3454
  545MOL0     C71872   7.321   9.923   7.493 -0.2651 -0.0065 -0.6824
  545MOL0     C71873   6.590   9.896   7.260 -0.0584  0.6787  0.6297
  545MOL0     C71874   6.455   9.924   7.238  0.4112  0.1336  0.3898
  545MOL0     H71875   6.047  10.035   6.967 -1.2761 -0.1686 -3.1899
  545MOL0     H71876   5.830  10.126   6.873 -3.8235 -0.9095  3.5346
  545MOL0     H71877   5.719  10.558   6.907  1.3191 -0.4727 -2.5994
  545MOL0     H71878   5.686  10.481   7.061 -1.4868  3.0575  0.0337
  545MOL0     H71879   5.487  10.378   6.959  1.5247  0.7973  0.5405
  545MOL0     H71880   5.540  10.440   6.799 -2.0376  1.2803 -0.4285
  545MOL0     H71881   5.532  10.674   6.897 -1.0319  0.6599 -0.8669
  545MOL0     H71882   5.471  10.586   7.049  1.0410 -1.0527  0.0772
  545MOL0     H71883   5.332  10.568   6.784 -0.8645 -1.6839 -0.4153
  545MOL0     H71884   5.277  10.503   6.932 -0.0024 -1.6712 -3.2448
  545MOL0     H71885   5.317  10.783   6.855 -1.1090 -0.4098  0.2205
  545MOL0     H71886   5.265  10.750   7.021  1.2510 -0.2651  0.6757
  545MOL0     H71887   5.056  10.808   6.919 -3.8901 -1.8173 -1.2554
  545MOL0     H71888   5.052  10.635   6.891 -0.3806  0.2551  3.2879
  545MOL0     H71889   5.159  10.829   6.686 -0.8673  1.1057  2.4332
  545MOL0     H71890   5.124  10.656   6.663  3.7768  0.6327  0.2096
  545MOL0     H71891   4.922  10.890   6.653 -3.3915 -1.0585 -3.7940
  545MOL0     H71892   4.879  10.752   6.732  2.7295  1.8858  3.9206
  545MOL0     H71893   4.928  10.910   6.415 -0.5574 -0.6470 -1.0108
  545MOL0     H71894   5.038  10.752   6.124  0.2115 -2.7455 -0.0699
  545MOL0     H71895   4.905  10.869   6.166 -1.5151 -0.8121  1.0219
  545MOL0     H71896   4.735  10.694   6.135 -1.1052 -3.9087 -0.3792
  545MOL0     H71897   4.858  10.590   6.061 -2.0476 -0.2834  1.3835
  545MOL0     H71898   4.754  10.859   5.978 -0.8520 -1.5767  1.5560
  545MOL0     H71899   4.917  10.820   5.921  1.5242  0.0521  1.5913
  545MOL0     H71900   4.821  10.646   5.793  0.4986  1.2261  1.1631
  545MOL0     H71901   4.691  10.762   5.768 -1.0655 -3.8949 -1.0925
  545MOL0     H71902   4.524  10.859   5.847 -2.9266  1.9109  0.7123
  545MOL0     H71903   4.309  10.906   5.861 -1.2917  0.6415  1.1904
  545MOL0     H71904   4.066  11.092   6.153 -0.2426 -1.2502  1.5596
  545MOL0     H71905   3.875  11.226   6.205 -2.1605 -0.1995 -0.1875
  545MOL0     H71906   3.643  11.350   6.207 -0.4571  0.1469 -0.9208
  545MOL0     H71907   3.609  11.202   6.302 -1.3375 -0.5152 -0.4539
  545MOL0     H71908   3.419  11.394   6.164  0.1739  0.0046  0.1669
  545MOL0     H71909   3.409  11.317   6.321  3.1363  0.3858  0.9300
  545MOL0     H71910   3.262  11.164   6.235  1.8096 -1.1890  1.8253
  545MOL0     H71911   3.378  11.101   6.130 -0.6467  1.3209 -1.4063
  545MOL0     H71912   3.322  11.287   5.960  1.3458 -1.3310  1.4829
  545MOL0     H71913   3.207  11.162   6.007  1.6757 -1.7106  0.3718
  545MOL0     H71914   3.196  11.441   6.136 -2.3259  1.5042 -2.0539
  545MOL0     H71915   3.071  11.299   6.137 -0.1678 -2.2206 -1.8245
  545MOL0     H71916   3.061  11.349   5.888  1.8001 -0.0383 -0.6515
  545MOL0     H71917   3.156  11.492   5.920 -1.4812  1.8108 -0.1631
  545MOL0     H71918   2.879  11.425   6.037 -0.9129  0.6767 -3.1741
  545MOL0     H71919   2.970  11.549   6.107  2.9654  0.0837 -0.5855
  545MOL0     H71920   3.007  11.622   5.840 -0.9628  0.8149 -1.8418
  545MOL0     H71921   2.844  11.652   5.930  0.4860  2.0282 -1.6981
  545MOL0     H71922   3.645  10.995   5.933 -0.3846  0.9069  0.5870
  545MOL0     H71923   3.854  10.842   5.884  0.4864  0.7945 -0.5156
  545MOL0     H71924   4.242  10.538   6.062 -0.4376  2.9094  2.7759
  545MOL0     H71925   4.460  10.456   6.013 -0.1981  0.0883  0.8022
  545MOL0     H71926   5.925  10.516   7.011  1.3327 -0.2062  2.3002
  545MOL0     H71927   6.151  10.444   7.079 -2.1177  1.3969 -0.0269
  545MOL0     H71928   6.494  10.207   7.055 -0.7389  0.8279  0.5584
  545MOL0     H71929   6.724  10.165   7.091 -0.6842  0.2797  0.0925
  545MOL0     H71930   6.911  10.014   7.395 -3.9863 -2.1863 -0.9355
  545MOL0     H71931   6.877  10.136   7.269  2.3899  0.9091 -0.4943
  545MOL0     H71932   7.089   9.930   7.249  1.4201  1.4508 -2.6235
  545MOL0     H71933   7.026  10.026   7.115 -1.6968  2.4756 -0.4432
  545MOL0     H71934   7.109  10.231   7.236 -1.8659 -0.2449  2.9511
  545MOL0     H71935   7.244  10.120   7.205  0.7200  1.8318 -0.7407
  545MOL0     H71936   7.231  10.219   7.419  0.1969 -0.2150  1.4741
  545MOL0     H71937   7.086  10.143   7.465 -2.1892  0.8220 -2.1524
  545MOL0     H71938   7.374   9.840   7.535  1.2348  2.2095  2.2000
  545MOL0     H71939   6.611   9.813   7.326 -3.9653  1.4633  3.1859
  545MOL0     H71940   6.391   9.857   7.295  2.2638 -2.0704  0.0173
  546MOL0     O71941   6.504   7.820   0.189 -0.2474  0.1058  0.3462
  546MOL0     C71942   6.421   7.736   0.223 -0.4352  0.4936 -0.4673
  546MOL0     O71943   6.293   7.755   0.271  0.6224 -0.3890  0.1773
  546MOL0     C71944   6.220   7.648   0.320 -0.4506  0.3808 -0.0666
  546MOL0     C71945   6.282   7.552   0.412  0.3354 -0.0435  0.2663
  546MOL0     C71946   6.206   7.444   0.452  0.0183  0.9724 -0.1983
  546MOL0     C71947   6.084   7.421   0.390 -0.5195  0.0024 -0.3565
  546MOL0     O71948   6.024   7.298   0.400 -0.3329  0.1011 -0.8162
  546MOL0     C71949   6.101   7.177   0.385 -0.4832 -0.2197  0.2653
  546MOL0     C71950   6.023   7.051   0.392  0.8953  0.6346  0.3058
  546MOL0     C71951   5.905   7.058   0.292  0.0941  0.7754 -0.4071
  546MOL0     C71952   5.809   6.941   0.301 -0.0258  0.0609  0.0055
  546MOL0     C71953   5.696   6.937   0.188  0.7497 -0.5532  0.1005
  546MOL0     C71954   5.562   6.868   0.235 -0.8733 -0.0223  0.3702
  546MOL0     C71955   5.449   6.877   0.131 -0.1439 -0.7379 -0.4997
  546MOL0     C71956   5.334   6.785   0.164  0.4610  0.0184  0.0930
  546MOL0     N71957   5.215   6.775   0.070 -0.4747 -0.3062  0.2636
  546MOL0     C71958   5.138   6.874   0.016 -0.1632 -0.6750 -0.1053
  546MOL0     C71959   5.049   6.811  -0.067 -0.3338  0.2166 -0.0953
  546MOL0     C71960   4.951   6.876  -0.159 -0.5886  0.3762  0.1566
  546MOL0     C71961   4.818   6.891  -0.101  1.0262 -0.1618 -0.5194
  546MOL0     C71962   4.749   6.756  -0.135 -0.0273 -1.0157  0.5589
  546MOL0     C71963   4.594   6.754  -0.100 -0.4347  0.6499  0.2764
  546MOL0     O71964   4.515   6.865  -0.154  0.2118 -0.5809 -0.1668
  546MOL0     C71965   4.385   6.876  -0.111  0.4382  0.7352  0.8871
  546MOL0     C71966   4.312   6.976  -0.176  0.4894 -0.2819 -0.3254
  546MOL0     C71967   4.172   6.992  -0.161 -0.4186 -0.7819  0.2868
  546MOL0     C71968   4.098   6.909  -0.078  0.6772  0.0741  1.1641
  546MOL0     C71969   3.956   6.917  -0.060  0.2730 -0.1389  0.6367
  546MOL0     O71970   3.897   7.001  -0.138 -0.1223 -0.3598 -0.2211
  546MOL0     C71971   3.757   6.996  -0.161 -0.6968  0.5967  0.1449
  546MOL0     C71972   3.686   6.876  -0.200  0.0614 -0.8034  0.2406
  546MOL0     C71973   3.547   6.863  -0.186  0.3029  0.0342  1.4557
  546MOL0     C71974   3.466   6.975  -0.153  0.3810  0.4883  0.7805
  546MOL0     O71975   3.330   6.970  -0.148  0.7158  0.1009 -0.2999
  546MOL0     C71976   3.263   6.857  -0.076 -0.3420 -0.1752  0.3621
  546MOL0     C71977   3.266   6.877   0.072  0.3913 -0.0380 -0.5366
  546MOL0     C71978   3.184   6.760   0.133 -0.3996 -0.0087 -0.8642
  546MOL0     C71979   3.030   6.781   0.118 -0.5476 -0.6368  0.0140
  546MOL0     C71980   2.960   6.669   0.185  0.0075  0.1507 -0.4436
  546MOL0     C71981   2.984   6.668   0.336  0.2977 -0.4254 -0.6860
  546MOL0     C71982   2.955   6.801   0.408 -0.1002 -0.2856 -0.2636
  546MOL0     C71983   2.912   6.775   0.553 -0.0249  0.0961  0.2369
  546MOL0    Cl71984   3.048   6.707   0.659  0.0821  0.1396  0.2000
  546MOL0     C71985   3.527   7.095  -0.132  0.5469 -0.2080 -0.1379
  546MOL0     C71986   3.670   7.104  -0.133 -0.1605 -0.9920 -0.7846
  546MOL0     O71987   3.907   6.848   0.022 -0.1660  0.5036  0.0939
  546MOL0     C71988   4.172   6.798  -0.023  0.1270 -0.1469 -0.6532
  546MOL0     C71989   4.307   6.788  -0.036 -0.4289  0.4704  0.4653
  546MOL0     N71990   5.074   6.677  -0.060  0.1847  0.4966  0.5707
  546MOL0     N71991   5.175   6.657   0.010 -0.6361  0.3301 -0.6481
  546MOL0     C71992   6.022   7.519   0.310 -0.7419  0.1725 -0.4137
  546MOL0     C71993   6.088   7.637   0.285  0.1237 -0.1677 -0.7468
  546MOL0     C71994   6.469   7.592   0.185  0.0537 -0.8109 -0.8417
  546MOL0     C71995   6.404   7.526   0.086 -0.5255 -0.5174  0.9492
  546MOL0     C71996   6.462   7.400   0.050  0.5171  0.0296  0.0320
  546MOL0     C71997   6.567   7.338   0.115  0.3941 -0.6025 -0.8297
  546MOL0     O71998   6.613   7.214   0.098  0.1549  0.4664  0.7725
  546MOL0     C71999   6.541   7.123   0.011 -0.3933  0.1642  0.4914
  546MOL0     C72000   6.598   7.157  -0.129 -0.5497  0.6375 -0.2884
  546MOL0     C72001   6.557   7.048  -0.231  0.6777 -0.3299 -0.0044
  546MOL0     C72002   6.635   6.917  -0.232 -0.1027 -0.4199 -0.4419
  546MOL0     C72003   6.767   6.941  -0.288 -0.5885 -0.3175 -0.7272
  546MOL0     C72004   6.880   6.938  -0.333  0.2389 -0.1363  0.0911
  546MOL0     C72005   6.614   7.402   0.227 -0.6506 -0.4842 -0.3943
  546MOL0     C72006   6.567   7.531   0.254  0.0099 -0.4400 -0.6758
  546MOL0     H72007   6.383   7.565   0.448  0.6194  1.8040 -1.0324
  546MOL0     H72008   6.260   7.377   0.519 -1.4788  0.3195  0.3916
  546MOL0     H72009   6.173   7.165   0.467 -1.4583  1.8990  1.5053
  546MOL0     H72010   6.147   7.181   0.286 -1.6024  2.1811 -0.2320
  546MOL0     H72011   5.987   7.042   0.494 -0.9301 -1.3007 -0.4336
  546MOL0     H72012   6.085   6.965   0.368 -0.2556 -1.0881  3.0721
  546MOL0     H72013   5.941   7.058   0.189 -0.0087 -3.3117 -0.6274
  546MOL0     H72014   5.858   7.156   0.303  1.3298  1.4124 -0.6048
  546MOL0     H72015   5.867   6.853   0.272 -1.3735 -0.8792  0.0370
  546MOL0     H72016   5.782   6.921   0.405  0.4768 -0.6035  0.0158
  546MOL0     H72017   5.729   6.887   0.097 -0.5435  0.0872 -0.7488
  546MOL0     H72018   5.674   7.040   0.156  1.4948 -0.3812  0.1176
  546MOL0     H72019   5.527   6.922   0.323 -0.0148  2.1968 -0.5833
  546MOL0     H72020   5.569   6.762   0.264 -4.3519 -0.0547  1.5943
  546MOL0     H72021   5.427   6.984   0.127  1.7961 -0.3059 -0.5625
  546MOL0     H72022   5.475   6.857   0.027 -3.2063  1.0195 -1.7431
  546MOL0     H72023   5.305   6.817   0.264  0.5707 -0.4868  0.2907
  546MOL0     H72024   5.355   6.679   0.182  0.3120 -0.1214 -0.5364
  546MOL0     H72025   5.137   6.980   0.038 -0.1649 -0.6785 -0.0885
  546MOL0     H72026   4.954   6.820  -0.253  1.2225  1.4576 -0.4616
  546MOL0     H72027   4.979   6.980  -0.175  4.6234 -0.4163  2.1563
  546MOL0     H72028   4.750   6.969  -0.137  1.5895  0.4362 -0.2936
  546MOL0     H72029   4.827   6.900   0.008 -0.5344 -0.3428 -0.3473
  546MOL0     H72030   4.756   6.728  -0.241 -0.3996  0.4082  0.1431
  546MOL0     H72031   4.796   6.673  -0.080  1.3182 -1.5399 -1.2498
  546MOL0     H72032   4.606   6.767   0.008  3.0992  1.0238 -0.0434
  546MOL0     H72033   4.551   6.658  -0.132 -0.7663  0.7981  0.2771
  546MOL0     H72034   4.379   7.032  -0.241  1.7742  0.4006  1.5107
  546MOL0     H72035   4.109   7.065  -0.211 -0.6533 -0.8381  0.4955
  546MOL0     H72036   3.748   6.795  -0.236 -2.7991 -2.1891 -1.9984
  546MOL0     H72037   3.499   6.767  -0.205  0.2963  0.0313  1.4873
  546MOL0     H72038   3.308   6.760  -0.100 -1.5021 -0.1752 -2.0622
  546MOL0     H72039   3.160   6.860  -0.112 -0.7202  2.6527  1.4342
  546MOL0     H72040   3.215   6.969   0.100 -0.1009 -0.8198  1.3429
  546MOL0     H72041   3.361   6.887   0.125 -1.5614  0.2361  3.3170
  546MOL0     H72042   3.221   6.751   0.235 -0.3490 -1.8594 -1.0224
  546MOL0     H72043   3.222   6.669   0.086  1.5452  0.6662 -0.7052
  546MOL0     H72044   2.993   6.875   0.161 -0.4736 -1.3232  1.6747
  546MOL0     H72045   3.007   6.794   0.012  0.2915 -0.7564 -0.1871
  546MOL0     H72046   2.992   6.580   0.130  1.3424 -0.2158  0.8733
  546MOL0     H72047   2.851   6.674   0.177  0.0543 -0.5857 -2.1162
  546MOL0     H72048   3.085   6.635   0.363  1.1682  1.9630 -0.7293
  546MOL0     H72049   2.926   6.584   0.374 -0.8592  0.2769 -0.8393
  546MOL0     H72050   3.043   6.867   0.406  0.6667 -1.2156  1.2043
  546MOL0     H72051   2.872   6.856   0.362  1.2253  1.4785 -0.6483
  546MOL0     H72052   2.824   6.709   0.549 -0.9431  1.3166 -2.8005
  546MOL0     H72053   2.877   6.865   0.605 -0.3705 -0.5542  1.1572
  546MOL0     H72054   3.469   7.180  -0.097 -0.7630 -0.0559 -2.5010
  546MOL0     H72055   3.706   7.199  -0.094 -2.2259 -1.5296  2.8551
  546MOL0     H72056   4.124   6.724   0.041  1.6385 -2.2041 -1.7635
  546MOL0     H72057   4.348   6.699   0.012 -4.3694 -2.1641 -0.6379
  546MOL0     H72058   5.919   7.496   0.285 -0.3995  1.0511 -2.8649
  546MOL0     H72059   6.043   7.712   0.221  0.5880  0.7301 -0.0427
  546MOL0     H72060   6.315   7.569   0.041  0.6435  1.3364  0.2794
  546MOL0     H72061   6.416   7.359  -0.040 -0.4002  1.7185 -0.3101
  546MOL0     H72062   6.433   7.123   0.027 -0.3070  0.2541  1.1003
  546MOL0     H72063   6.581   7.026   0.043  1.4304  1.1286  1.2539
  546MOL0     H72064   6.548   7.246  -0.168  0.6123  1.5580  0.2342
  546MOL0     H72065   6.706   7.177  -0.125 -0.4956  0.2552  3.3581
  546MOL0     H72066   6.561   7.090  -0.332 -0.0956  0.4742  0.2825
  546MOL0     H72067   6.448   7.037  -0.218  0.6260 -0.4985 -0.5586
  546MOL0     H72068   6.649   6.865  -0.137  2.5733  2.0038  0.6257
  546MOL0     H72069   6.582   6.857  -0.307  0.4811  1.6785 -2.6742
  546MOL0     H72070   6.972   6.946  -0.387 -0.0989 -2.1826 -0.8966
  546MOL0     H72071   6.685   7.354   0.294 -0.5904  0.0035 -0.1067
  546MOL0     H72072   6.613   7.582   0.338 -0.8202  0.4104 -0.7294
  547MOL0     O72073  10.948   0.575  10.232  0.8198 -0.7188 -0.3770
  547MOL0     C72074  10.964   0.474  10.170 -0.1255  0.0886  0.2184
  547MOL0     O72075  10.858   0.390  10.140 -0.5377  0.6408  0.1875
  547MOL0     C72076  10.729   0.412  10.196  0.3928 -1.0591 -0.8937
  547MOL0     C72077  10.691   0.364  10.314 -0.2015  0.1992  0.1191
  547MOL0     C72078  10.563   0.380  10.362  1.4333  0.1081 -0.5509
  547MOL0     C72079  10.469   0.455  10.290 -0.5328 -0.3338  0.2603
  547MOL0     O72080  10.347   0.483  10.340  0.1556  0.6438  0.2246
  547MOL0     C72081  10.231   0.491  10.248 -0.0923  0.2956  0.8880
  547MOL0     C72082  10.109   0.470  10.329 -0.8383 -0.6960 -0.0661
  547MOL0     C72083   9.978   0.480  10.241 -0.4855 -0.1897 -0.4481
  547MOL0     C72084   9.844   0.479  10.324 -0.6471 -0.2938 -0.4665
  547MOL0     C72085   9.745   0.562  10.242 -0.0932  0.5224 -0.7695
  547MOL0     C72086   9.601   0.518  10.271 -0.3949  0.1991  0.0408
  547MOL0     C72087   9.498   0.617  10.202  1.1603 -0.0369  0.2626
  547MOL0     C72088   9.398   0.550  10.120 -0.2093  0.1749 -0.2430
  547MOL0     N72089   9.304   0.464  10.198  0.3225 -0.0602  0.1635
  547MOL0     C72090   9.331   0.334  10.233  0.6565  1.2462  0.8452
  547MOL0     C72091   9.231   0.302  10.323 -0.4800 -0.1918 -0.1806
  547MOL0     C72092   9.210   0.164  10.373 -0.6020 -0.3764  0.1720
  547MOL0     C72093   9.200   0.052  10.267  0.5112  0.5982 -0.3197
  547MOL0     C72094   9.166  -0.085  10.326  0.5339 -0.4529 -0.0441
  547MOL0     C72095   9.164  -0.204  10.225 -0.0149  0.4902 -0.0362
  547MOL0     O72096   9.293  -0.260  10.182  0.1442 -0.6839 -0.4683
  547MOL0     C72097   9.398  -0.291  10.271 -0.1468  0.7349  1.1413
  547MOL0     C72098   9.379  -0.341  10.405  0.3391 -0.0795  0.7504
  547MOL0     C72099   9.499  -0.345  10.488  0.5672  0.4219 -1.0512
  547MOL0     C72100   9.626  -0.321  10.438  0.7835  0.0643  0.0491
  547MOL0     C72101   9.739  -0.335  10.531  0.1775 -0.1914 -0.3949
  547MOL0     O72102   9.865  -0.361  10.478 -0.2042 -0.5056 -0.4462
  547MOL0     C72103   9.962  -0.371  10.574  1.1857  0.4226  0.2645
  547MOL0     C72104  10.038  -0.261  10.628 -0.2811 -0.0208  0.2956
  547MOL0     C72105  10.154  -0.272  10.712 -0.6763  0.4685  0.1445
  547MOL0     C72106  10.207  -0.406  10.734 -0.4022 -0.0531  0.0846
  547MOL0     O72107  10.326  -0.413  10.819 -0.2753  0.2350 -0.8139
  547MOL0     C72108  10.376  -0.549  10.844 -1.0478 -0.5157 -0.7160
  547MOL0     C72109  10.498  -0.544  10.944 -0.7260 -0.3187 -0.3829
  547MOL0     C72110  10.632  -0.506  10.882 -0.6852  0.2735 -0.4183
  547MOL0     C72111  10.724  -0.423  10.965  0.4939 -0.3805 -0.0998
  547MOL0     C72112  10.855  -0.397  10.889  0.0458  1.1498  0.0136
  547MOL0     C72113  10.935  -0.315  10.980  0.3409 -0.5596  0.7137
  547MOL0     C72114  11.060  -0.278  10.903  0.0176 -0.8649 -0.0516
  547MOL0     C72115  11.148  -0.389  10.883 -0.1385  0.0151  0.0291
  547MOL0    Cl72116  11.327  -0.334  10.872 -0.2847 -0.0653  0.2215
  547MOL0     C72117  10.138  -0.521  10.673 -0.1922  0.2302  0.5446
  547MOL0     C72118  10.021  -0.498  10.601 -0.2801  1.2876 -0.9935
  547MOL0     O72119   9.717  -0.314  10.648 -0.4181  0.1181  0.2034
  547MOL0     C72120   9.638  -0.271  10.306 -0.8558  0.0526 -0.0110
  547MOL0     C72121   9.529  -0.258  10.223  0.1124 -0.6998  0.3395
  547MOL0     N72122   9.153   0.410  10.340 -0.1856 -0.1851 -0.3674
  547MOL0     N72123   9.197   0.507  10.266  0.0799 -0.7314 -0.1988
  547MOL0     C72124  10.498   0.480  10.155 -0.2608 -0.8450  0.5333
  547MOL0     C72125  10.625   0.455  10.108 -0.9248  0.7012 -0.4740
  547MOL0     C72126  11.096   0.461  10.098  0.5905  0.4972 -0.2405
  547MOL0     C72127  11.207   0.475  10.182 -0.4893 -0.4568 -0.3830
  547MOL0     C72128  11.335   0.451  10.122 -0.5200  0.2646  1.0499
  547MOL0     C72129  11.344   0.409   9.988 -0.6335  1.1853 -0.9234
  547MOL0     O72130  11.474   0.378   9.942  0.0953  0.4636  0.2500
  547MOL0     C72131  11.478   0.326   9.809 -0.8063 -0.3625 -0.6162
  547MOL0     C72132  11.498   0.435   9.709 -0.2811 -0.1192  1.1922
  547MOL0     C72133  11.540   0.379   9.571  0.1534 -0.1794 -0.1803
  547MOL0     C72134  11.560   0.497   9.467 -0.6112  0.1743  0.0542
  547MOL0     C72135  11.608   0.446   9.338  0.4134  0.4024  0.3295
  547MOL0     C72136  11.647   0.401   9.231  1.1582 -0.1229 -0.2621
  547MOL0     C72137  11.229   0.404   9.910  0.0663  1.1729 -0.3508
  547MOL0     C72138  11.106   0.419   9.967  0.1098 -0.9553  0.1080
  547MOL0     H72139  10.763   0.309  10.374  0.8982 -1.0224 -2.1797
  547MOL0     H72140  10.547   0.346  10.464 -1.7095 -0.5826 -1.1676
  547MOL0     H72141  10.236   0.413  10.172  1.0404  0.2768  0.9582
  547MOL0     H72142  10.228   0.584  10.191 -1.6417  1.2025  2.3585
  547MOL0     H72143  10.111   0.540  10.414 -1.2594 -1.5569  0.6774
  547MOL0     H72144  10.113   0.376  10.384 -1.1707  0.2141  1.6039
  547MOL0     H72145   9.966   0.404  10.162 -0.1344  0.1862 -0.8666
  547MOL0     H72146   9.994   0.573  10.187 -1.5371  0.2648  0.0008
  547MOL0     H72147   9.819   0.378  10.357  3.0383 -1.6650 -1.3963
  547MOL0     H72148   9.867   0.533  10.417 -2.1641  1.0263 -0.8132
  547MOL0     H72149   9.759   0.532  10.138  0.6751 -0.8467 -0.2925
  547MOL0     H72150   9.765   0.670  10.239 -0.0396  0.5682  0.7250
  547MOL0     H72151   9.594   0.521  10.380  2.2806  0.7749  0.2736
  547MOL0     H72152   9.599   0.416  10.230  1.7141 -0.4475  1.3419
  547MOL0     H72153   9.435   0.657  10.282  0.6724 -1.5818  0.6964
  547MOL0     H72154   9.550   0.699  10.151 -1.2510  1.4934  0.1005
  547MOL0     H72155   9.446   0.489  10.043  0.2623  1.7137 -1.2125
  547MOL0     H72156   9.335   0.619  10.063  0.3372  0.2661 -0.7407
  547MOL0     H72157   9.405   0.260  10.202 -0.7112  0.0698  0.2700
  547MOL0     H72158   9.113   0.170  10.423  0.4653  0.6413  2.2336
  547MOL0     H72159   9.284   0.140  10.451  1.6874  1.8658 -1.1502
  547MOL0     H72160   9.289   0.043  10.204 -1.5026  2.7762 -3.8018
  547MOL0     H72161   9.116   0.079  10.202 -2.7747  0.4276  3.4825
  547MOL0     H72162   9.249  -0.120  10.389 -0.3952  0.2795  1.6741
  547MOL0     H72163   9.070  -0.080  10.379  0.4849  0.7869 -0.2179
  547MOL0     H72164   9.100  -0.181  10.139  1.0139  3.7621 -0.0799
  547MOL0     H72165   9.119  -0.285  10.282 -1.1036  1.9719  1.2751
  547MOL0     H72166   9.279  -0.360  10.442  0.3938 -1.1958  0.3607
  547MOL0     H72167   9.482  -0.364  10.593  0.9000 -1.0721 -1.2373
  547MOL0     H72168  10.006  -0.165  10.589  1.9596 -0.1999 -2.3614
  547MOL0     H72169  10.192  -0.185  10.763 -1.5784  1.2621 -0.5066
  547MOL0     H72170  10.405  -0.598  10.750 -0.0883  2.2407 -1.9517
  547MOL0     H72171  10.299  -0.609  10.894 -1.2890 -1.4931 -2.1975
  547MOL0     H72172  10.505  -0.635  11.004 -1.6702 -0.0878  0.0926
  547MOL0     H72173  10.474  -0.476  11.026  1.2417  2.2085 -1.7333
  547MOL0     H72174  10.614  -0.456  10.787 -2.5785 -0.5606 -0.5317
  547MOL0     H72175  10.683  -0.601  10.861  1.6121  1.6824 -1.6782
  547MOL0     H72176  10.679  -0.326  10.987 -2.5800 -1.6070 -0.5777
  547MOL0     H72177  10.756  -0.467  11.060 -0.8693  1.2592  1.1990
  547MOL0     H72178  10.824  -0.350  10.795 -0.1221  3.6149  1.2292
  547MOL0     H72179  10.896  -0.497  10.869  0.1168  1.1143  0.3311
  547MOL0     H72180  10.962  -0.367  11.072  1.0088 -1.5285 -0.0076
  547MOL0     H72181  10.872  -0.229  11.006 -0.2238 -0.6855 -0.1750
  547MOL0     H72182  11.024  -0.223  10.816 -0.0277  0.6390  0.8892
  547MOL0     H72183  11.111  -0.212  10.972  2.3253 -3.7362  1.1953
  547MOL0     H72184  11.115  -0.425  10.786  0.5510 -1.8294  0.4188
  547MOL0     H72185  11.131  -0.468  10.957 -1.7271  1.0744  0.8642
  547MOL0     H72186  10.186  -0.619  10.683  3.4476  1.7498 -0.2597
  547MOL0     H72187   9.968  -0.583  10.557 -1.0457  0.7944  0.7837
  547MOL0     H72188   9.741  -0.271  10.273 -0.3822 -4.0291  0.8746
  547MOL0     H72189   9.540  -0.225  10.120 -2.8427 -0.7108 -0.0550
  547MOL0     H72190  10.426   0.535  10.094 -0.5691  1.9318  3.1230
  547MOL0     H72191  10.665   0.488  10.012  4.1023  2.2008  1.8141
  547MOL0     H72192  11.212   0.498  10.288  3.3991  0.9536 -0.6831
  547MOL0     H72193  11.426   0.456  10.181  0.3607  0.1400 -0.2486
  547MOL0     H72194  11.396   0.259   9.779 -2.6944  1.7989 -0.5810
  547MOL0     H72195  11.563   0.258   9.807 -1.6765 -1.6544  1.8119
  547MOL0     H72196  11.405   0.489   9.690 -0.8019 -0.8787  1.5367
  547MOL0     H72197  11.581   0.499   9.740  2.8334 -3.1389 -0.1956
  547MOL0     H72198  11.455   0.315   9.545 -0.6450  0.1659  1.3765
  547MOL0     H72199  11.636   0.330   9.586  0.9318  1.6722  1.3326
  547MOL0     H72200  11.461   0.541   9.456  0.0475  1.5800 -0.4180
  547MOL0     H72201  11.636   0.568   9.498 -0.3367  0.4091 -1.0890
  547MOL0     H72202  11.679   0.360   9.137 -2.5263 -2.5597 -0.6384
  547MOL0     H72203  11.230   0.386   9.803  0.4499  1.4742 -0.3985
  547MOL0     H72204  11.026   0.396   9.897  2.6674  2.0839 -4.2713
  548MOL0     O72205   2.585  10.014   1.724 -0.3331 -0.2743  0.1594
  548MOL0     C72206   2.631  10.022   1.842  0.4034 -0.3709  0.2443
  548MOL0     O72207   2.655   9.917   1.927  0.0843  1.4251 -0.3854
  548MOL0     C72208   2.590   9.802   1.879 -0.8212  0.3582  0.4465
  548MOL0     C72209   2.454   9.788   1.856  0.2829  0.1577 -0.1717
  548MOL0     C72210   2.396   9.662   1.831 -0.0238 -0.2105 -0.1703
  548MOL0     C72211   2.476   9.557   1.795  0.3926  1.0447  0.0945
  548MOL0     O72212   2.406   9.450   1.747  0.6135  0.3937 -0.2258
  548MOL0     C72213   2.470   9.354   1.663 -1.2306  0.1000  0.3708
  548MOL0     C72214   2.377   9.248   1.622  0.0379 -0.6582 -0.6937
  548MOL0     C72215   2.307   9.181   1.744 -0.2133  0.4867 -0.9920
  548MOL0     C72216   2.228   9.062   1.706  0.2314  0.5547  0.6074
  548MOL0     C72217   2.152   9.008   1.828  1.1840 -0.5095 -0.6506
  548MOL0     C72218   2.126   8.858   1.839 -0.3341 -0.0934 -1.3596
  548MOL0     C72219   2.041   8.822   1.712 -0.9112 -0.7705  0.5031
  548MOL0     C72220   2.009   8.677   1.714 -0.4000 -0.8514  0.1939
  548MOL0     N72221   2.129   8.596   1.697 -0.1108 -0.8282  0.3994
  548MOL0     C72222   2.168   8.566   1.573 -0.6669 -0.5017 -0.6100
  548MOL0     C72223   2.292   8.517   1.585 -0.5660 -0.6368  0.1940
  548MOL0     C72224   2.378   8.457   1.474  0.0271 -0.9079  0.2095
  548MOL0     C72225   2.494   8.552   1.429 -0.2684 -0.3828 -0.3918
  548MOL0     C72226   2.544   8.511   1.293 -0.1899 -0.5336  0.2814
  548MOL0     C72227   2.659   8.598   1.243  0.2696  0.6200 -0.5619
  548MOL0     O72228   2.691   8.556   1.106  0.1810 -0.0244 -0.8333
  548MOL0     C72229   2.823   8.530   1.087 -0.1077 -0.0311 -0.3485
  548MOL0     C72230   2.860   8.400   1.063  0.3626  0.2884  0.3070
  548MOL0     C72231   2.995   8.367   1.040 -0.5538 -0.1624  0.1817
  548MOL0     C72232   3.098   8.462   1.036 -0.3990 -0.6518 -0.1771
  548MOL0     C72233   3.251   8.419   1.018 -0.0113  0.4504 -0.3814
  548MOL0     O72234   3.291   8.314   0.943 -0.2522  1.0093 -0.0957
  548MOL0     C72235   3.427   8.290   0.928  0.7258 -0.0401  0.2357
  548MOL0     C72236   3.471   8.167   0.948 -0.0415  0.6541 -0.1268
  548MOL0     C72237   3.593   8.117   0.910 -0.2909  0.3783  0.8949
  548MOL0     C72238   3.691   8.202   0.859 -0.1516 -0.1432 -0.3599
  548MOL0     O72239   3.823   8.160   0.844  0.2814  0.1539 -0.4544
  548MOL0     C72240   3.863   8.026   0.882  0.7887  0.5701 -0.4282
  548MOL0     C72241   4.009   8.006   0.838 -0.0552 -0.5531 -0.1420
  548MOL0     C72242   4.108   8.122   0.899 -0.4562 -0.5159  0.3796
  548MOL0     C72243   4.247   8.071   0.883  0.9150 -0.5561 -1.1123
  548MOL0     C72244   4.354   8.169   0.933 -0.2317 -1.5962  0.1815
  548MOL0     C72245   4.454   8.188   0.820  0.7547  0.4594 -0.4049
  548MOL0     C72246   4.560   8.285   0.869 -0.7625  0.1095  0.2780
  548MOL0     C72247   4.663   8.309   0.752 -0.4699 -0.6144 -0.2082
  548MOL0    Cl72248   4.593   8.388   0.610 -0.0777 -0.3004  0.0157
  548MOL0     C72249   3.643   8.333   0.831 -1.0488 -0.6625  0.5382
  548MOL0     C72250   3.516   8.377   0.863  0.0470 -0.2738 -0.6387
  548MOL0     O72251   3.321   8.492   1.078  0.8010 -0.0731  0.3314
  548MOL0     C72252   3.053   8.593   1.064 -0.9785  0.5445 -0.1031
  548MOL0     C72253   2.923   8.627   1.091 -0.0196 -0.0969 -0.3063
  548MOL0     N72254   2.328   8.521   1.716  0.0229  0.1039 -0.4386
  548MOL0     N72255   2.232   8.564   1.786  0.0737  0.0993 -0.4912
  548MOL0     C72256   2.614   9.571   1.804 -0.8166  0.6049 -0.1693
  548MOL0     C72257   2.670   9.693   1.844 -0.6571  0.5443  0.0110
  548MOL0     C72258   2.669  10.161   1.892 -0.2196 -0.5016  0.3524
  548MOL0     C72259   2.629  10.284   1.834  0.0218 -0.2330  0.2381
  548MOL0     C72260   2.676  10.407   1.889  0.5547  1.0253 -0.0138
  548MOL0     C72261   2.735  10.408   2.015 -0.0316 -0.3479  0.2656
  548MOL0     O72262   2.779  10.528   2.064 -0.2651 -0.4875 -0.4054
  548MOL0     C72263   2.830  10.535   2.196 -1.0696 -0.2997  0.1801
  548MOL0     C72264   2.841  10.680   2.242 -0.1645 -0.0420 -0.4732
  548MOL0     C72265   2.966  10.756   2.168  0.2794  0.4723 -0.4496
  548MOL0     C72266   3.021  10.874   2.258  0.1306  0.1902  0.7885
  548MOL0     C72267   2.913  10.973   2.274 -0.1007 -0.3032  1.1512
  548MOL0     C72268   2.826  11.056   2.286 -0.6653 -0.4445  0.3130
  548MOL0     C72269   2.762  10.292   2.082  0.7370  0.4061  0.7604
  548MOL0     C72270   2.731  10.171   2.023  1.2775  0.5472  0.4317
  548MOL0     H72271   2.384   9.870   1.872 -1.4546 -0.5772 -3.1923
  548MOL0     H72272   2.288   9.655   1.828 -0.0878 -0.0359  1.3629
  548MOL0     H72273   2.559   9.312   1.710  0.5255  0.9579 -1.9965
  548MOL0     H72274   2.505   9.408   1.575  0.8986 -0.2467  0.9556
  548MOL0     H72275   2.423   9.168   1.562 -1.1555 -1.9991  0.0982
  548MOL0     H72276   2.301   9.287   1.554 -0.0308 -2.8603 -1.9695
  548MOL0     H72277   2.228   9.252   1.772 -0.9793 -0.3716 -0.9522
  548MOL0     H72278   2.378   9.165   1.825 -0.3295  1.4957 -0.6746
  548MOL0     H72279   2.157   9.081   1.625 -0.7785  1.0272  1.5727
  548MOL0     H72280   2.297   8.983   1.677 -0.3883  0.2583 -0.0824
  548MOL0     H72281   2.058   9.064   1.831  2.0155  0.8922  2.3240
  548MOL0     H72282   2.211   9.042   1.913 -1.5973  2.3731  0.3001
  548MOL0     H72283   2.087   8.830   1.938  1.2300  0.9931 -0.3881
  548MOL0     H72284   2.229   8.820   1.848  0.2946  1.9363  2.1072
  548MOL0     H72285   1.948   8.880   1.717 -0.6145 -0.2979  0.6729
  548MOL0     H72286   2.091   8.849   1.619 -0.4759  1.3872  1.2872
  548MOL0     H72287   1.941   8.656   1.631  1.5165  0.3390 -1.7623
  548MOL0     H72288   1.964   8.649   1.810 -0.3099 -1.2559  0.1230
  548MOL0     H72289   2.111   8.563   1.480 -1.9649  0.1997  0.1367
  548MOL0     H72290   2.295   8.442   1.404 -0.6364 -1.4936  1.0956
  548MOL0     H72291   2.406   8.359   1.512 -2.1990 -0.6206  2.8689
  548MOL0     H72292   2.581   8.550   1.495 -0.1034  0.8817 -0.5474
  548MOL0     H72293   2.466   8.657   1.445  2.6140  0.0478  3.4226
  548MOL0     H72294   2.571   8.405   1.287 -1.9591 -1.0759  1.2109
  548MOL0     H72295   2.457   8.511   1.227 -0.3120  0.4920  0.4301
  548MOL0     H72296   2.747   8.590   1.307  1.3358  1.4126 -1.8560
  548MOL0     H72297   2.614   8.697   1.240 -2.7597 -0.3331  3.9946
  548MOL0     H72298   2.785   8.322   1.061  1.6044 -0.9574  0.8146
  548MOL0     H72299   2.999   8.260   1.024 -0.2106 -1.0431  4.7338
  548MOL0     H72300   3.406   8.086   0.980 -1.3081  0.5430 -2.7362
  548MOL0     H72301   3.618   8.014   0.931 -0.2619 -0.6387 -3.3462
  548MOL0     H72302   3.819   7.942   0.829  1.5167 -1.0628  1.4154
  548MOL0     H72303   3.851   8.016   0.991  1.8566 -0.5609 -0.3942
  548MOL0     H72304   4.010   8.012   0.728 -2.2851  2.4134 -0.1329
  548MOL0     H72305   4.045   7.910   0.876  1.7970 -0.3276 -1.2120
  548MOL0     H72306   4.076   8.136   1.002 -3.0066 -0.9777 -0.2711
  548MOL0     H72307   4.088   8.213   0.841 -2.0280 -1.4608 -0.6431
  548MOL0     H72308   4.260   7.986   0.951  1.0772  0.7604  0.5559
  548MOL0     H72309   4.259   8.041   0.778 -0.0968  0.0073 -1.3970
  548MOL0     H72310   4.403   8.128   1.021  1.9802  1.7191  0.6733
  548MOL0     H72311   4.309   8.267   0.952  1.6706 -0.2707 -1.6674
  548MOL0     H72312   4.398   8.238   0.740  1.6357  0.5515 -0.9783
  548MOL0     H72313   4.493   8.089   0.795  2.8149  0.5121  2.2861
  548MOL0     H72314   4.523   8.384   0.898  2.6566  2.3237 -2.1680
  548MOL0     H72315   4.625   8.245   0.947 -1.9369  1.3209  1.9760
  548MOL0     H72316   4.698   8.212   0.716  2.8899  0.6119 -0.5686
  548MOL0     H72317   4.750   8.355   0.799 -1.6068 -0.9838  2.4274
  548MOL0     H72318   3.723   8.395   0.790  0.5519 -2.2719  1.0858
  548MOL0     H72319   3.490   8.480   0.843  2.0358  0.7835  1.6928
  548MOL0     H72320   3.126   8.672   1.073 -2.5266  2.2452 -1.6264
  548MOL0     H72321   2.889   8.728   1.112  0.8235  0.7439 -2.5729
  548MOL0     H72322   2.689   9.501   1.766 -1.1689  0.0308  0.1718
  548MOL0     H72323   2.778   9.690   1.857 -0.9761  0.6435  4.0412
  548MOL0     H72324   2.566  10.288   1.746 -0.6034  0.0684  0.6904
  548MOL0     H72325   2.653  10.503   1.844  0.3121  2.4315  2.8438
  548MOL0     H72326   2.924  10.482   2.206 -2.8792 -3.3535  3.3589
  548MOL0     H72327   2.766  10.493   2.274 -1.6531  0.2563  0.0167
  548MOL0     H72328   2.743  10.728   2.228 -1.5836 -2.7964 -0.7917
  548MOL0     H72329   2.860  10.663   2.349 -1.0564  3.8967  0.4674
  548MOL0     H72330   2.925  10.796   2.075  0.5667  2.2712  0.1627
  548MOL0     H72331   3.044  10.685   2.140 -0.0284  0.8464 -2.4211
  548MOL0     H72332   3.064  10.834   2.351  2.8013 -1.0117 -0.8506
  548MOL0     H72333   3.107  10.914   2.205 -0.1970 -0.1859 -0.0341
  548MOL0     H72334   2.767  11.144   2.300 -0.1478  0.6353 -3.2519
  548MOL0     H72335   2.806  10.287   2.182  0.1727 -0.6669  0.9661
  548MOL0     H72336   2.766  10.076   2.063  1.7857 -0.7279 -2.7483
  549MOL0     O72337   3.004   4.357   8.345 -0.1717  0.1185 -0.0535
  549MOL0     C72338   2.980   4.388   8.463 -0.6018  0.0001 -0.4152
  549MOL0     O72339   2.857   4.414   8.525 -0.6638 -1.4225  0.1943
  549MOL0     C72340   2.732   4.417   8.458 -0.7319  0.3339 -0.2319
  549MOL0     C72341   2.625   4.423   8.546 -0.1115  1.0587  0.5989
  549MOL0     C72342   2.500   4.444   8.491 -0.9950  0.0660  0.4225
  549MOL0     C72343   2.474   4.446   8.351 -0.8224  0.0632 -0.5238
  549MOL0     O72344   2.351   4.462   8.296 -0.6090  0.8890  0.9083
  549MOL0     C72345   2.226   4.441   8.359  0.4378 -0.4833 -0.4843
  549MOL0     C72346   2.214   4.287   8.407  0.3330  0.1524  0.0210
  549MOL0     C72347   2.076   4.248   8.469  0.2713  0.3271 -0.7744
  549MOL0     C72348   2.071   4.100   8.513 -0.3932 -0.9923 -0.4936
  549MOL0     C72349   1.927   4.038   8.510  0.1777 -0.1703  0.0075
  549MOL0     C72350   1.851   4.084   8.635 -1.3279  0.2299 -1.1447
  549MOL0     C72351   1.738   4.176   8.601 -0.2632  0.1041 -0.0174
  549MOL0     C72352   1.618   4.104   8.527  1.1035 -0.1436 -0.5115
  549MOL0     N72353   1.535   4.020   8.614  1.0811 -0.6536  0.4848
  549MOL0     C72354   1.455   4.072   8.715  0.2473  0.3267 -0.0689
  549MOL0     C72355   1.360   3.977   8.727 -0.7842 -1.0894 -0.4386
  549MOL0     C72356   1.248   3.985   8.825 -0.9066  0.0119  0.1612
  549MOL0     C72357   1.111   4.008   8.767  0.2020  0.4218 -0.3711
  549MOL0     C72358   0.998   4.018   8.866  0.7392 -0.2955 -0.1390
  549MOL0     C72359   0.948   3.896   8.948 -0.4222 -0.0387 -0.6143
  549MOL0     O72360   0.832   3.899   9.031 -0.3429  0.1533  0.2775
  549MOL0     C72361   0.712   3.878   8.974 -0.7548 -0.3743  0.7392
  549MOL0     C72362   0.683   3.851   8.842 -0.3504  0.8556  0.5730
  549MOL0     C72363   0.552   3.865   8.792  0.1457 -0.3484  0.5613
  549MOL0     C72364   0.446   3.887   8.882  0.2269  0.2438 -0.3819
  549MOL0     C72365   0.303   3.903   8.830 -0.5004  0.2746  0.5120
  549MOL0     O72366   0.272   3.843   8.705  0.2063  0.1608 -0.3253
  549MOL0     C72367   0.144   3.858   8.658 -0.0503  0.3936  0.0971
  549MOL0     C72368   0.072   3.741   8.656  0.3049 -0.1081  0.0447
  549MOL0     C72369  -0.061   3.739   8.607 -0.6881  0.4993 -0.6226
  549MOL0     C72370  -0.125   3.854   8.564 -1.0024  0.2807 -0.3855
  549MOL0     O72371  -0.251   3.843   8.507  0.0253 -0.3759  0.1078
  549MOL0     C72372  -0.341   3.947   8.542 -0.0253 -0.0476 -0.7290
  549MOL0     C72373  -0.482   3.883   8.527  0.8822 -0.3604  0.1571
  549MOL0     C72374  -0.606   3.977   8.539 -0.4450 -0.8208 -0.1492
  549MOL0     C72375  -0.718   3.904   8.465 -0.7066  0.5065 -0.0053
  549MOL0     C72376  -0.848   3.971   8.513 -1.0863 -0.3374  0.3741
  549MOL0     C72377  -0.966   3.923   8.425 -0.0570 -0.2109 -0.6959
  549MOL0     C72378  -1.100   3.995   8.452  0.0870  0.0914  0.7264
  549MOL0     C72379  -1.171   3.950   8.573 -0.3205  0.6443  0.1762
  549MOL0    Cl72380  -1.271   3.807   8.518  0.0826  0.2924  0.3634
  549MOL0     C72381  -0.049   3.971   8.568  0.2788 -0.1784 -0.1525
  549MOL0     C72382   0.082   3.979   8.623  0.6855 -0.0994  0.1253
  549MOL0     O72383   0.220   3.977   8.886 -0.3477  0.2576  0.4487
  549MOL0     C72384   0.472   3.910   9.021 -0.1825  0.3973  0.8829
  549MOL0     C72385   0.610   3.906   9.057 -0.3553  0.5231 -0.8952
  549MOL0     N72386   1.368   3.887   8.623 -0.3971 -0.2473 -0.2096
  549MOL0     N72387   1.478   3.907   8.566  0.7842 -0.0684  0.1138
  549MOL0     C72388   2.580   4.434   8.267  1.5421 -0.8816  0.3860
  549MOL0     C72389   2.708   4.410   8.319 -0.5385 -0.8046  0.1855
  549MOL0     C72390   3.112   4.408   8.535  0.6580 -0.4251  1.1499
  549MOL0     C72391   3.102   4.438   8.673  0.8633  0.6044  0.2532
  549MOL0     C72392   3.217   4.429   8.753 -0.8933 -0.4341  0.3615
  549MOL0     C72393   3.336   4.392   8.697  0.2602 -0.1254 -0.2748
  549MOL0     O72394   3.453   4.362   8.758 -0.3921  0.6016 -0.0531
  549MOL0     C72395   3.471   4.428   8.881  0.1431  0.1087 -0.2740
  549MOL0     C72396   3.616   4.418   8.915  0.0814  0.1362  1.3180
  549MOL0     C72397   3.656   4.482   9.045 -0.4150  0.0445  1.0967
  549MOL0     C72398   3.809   4.460   9.075 -0.1124  1.3016  0.8049
  549MOL0     C72399   3.905   4.502   8.977  0.1081 -0.0126  0.4614
  549MOL0     C72400   3.990   4.551   8.902  0.3120  0.1267  0.0902
  549MOL0     C72401   3.344   4.374   8.562 -0.1549  0.2873 -0.7872
  549MOL0     C72402   3.235   4.387   8.479 -0.5941  0.0781 -0.0651
  549MOL0     H72403   2.644   4.421   8.653  0.1788 -0.3466  0.5504
  549MOL0     H72404   2.422   4.469   8.563 -0.6614  0.9033  0.4983
  549MOL0     H72405   2.135   4.459   8.301 -0.3097  1.9480  1.2557
  549MOL0     H72406   2.223   4.520   8.435 -1.5710 -2.0808  1.2169
  549MOL0     H72407   2.292   4.269   8.481 -0.3775 -1.1454  0.4854
  549MOL0     H72408   2.235   4.231   8.316 -2.3189  0.5748 -0.9587
  549MOL0     H72409   1.995   4.276   8.400 -1.4244  1.4708  1.5546
  549MOL0     H72410   2.062   4.321   8.550 -0.5672 -0.8494  0.1713
  549MOL0     H72411   2.130   4.030   8.453 -0.7828 -2.5110  0.8128
  549MOL0     H72412   2.116   4.094   8.612  1.4310  0.4321 -1.1758
  549MOL0     H72413   1.926   3.929   8.526 -2.2639  0.0466  2.0463
  549MOL0     H72414   1.888   4.054   8.410  1.3741  1.2572 -0.2612
  549MOL0     H72415   1.910   4.126   8.717 -1.2013 -0.2305 -0.9914
  549MOL0     H72416   1.809   3.995   8.683 -1.4598  0.3021 -1.1248
  549MOL0     H72417   1.697   4.209   8.697  2.3917 -1.6756  1.8724
  549MOL0     H72418   1.788   4.256   8.546  0.6949  0.1708  0.9276
  549MOL0     H72419   1.657   4.041   8.446 -0.8508 -0.9021 -0.9130
  549MOL0     H72420   1.554   4.177   8.478  2.3667  1.5680  0.2737
  549MOL0     H72421   1.458   4.166   8.768 -2.0686 -1.4275  3.5875
  549MOL0     H72422   1.263   4.065   8.898  1.6352  1.7867 -2.1101
  549MOL0     H72423   1.256   3.886   8.870  0.2624 -1.6384 -3.2889
  549MOL0     H72424   1.070   3.930   8.703 -4.1839  0.7753  1.6417
  549MOL0     H72425   1.123   4.097   8.706  0.8148 -0.6453 -1.8638
  549MOL0     H72426   1.048   4.084   8.937  3.2050 -1.7771 -0.3739
  549MOL0     H72427   0.907   4.066   8.827  1.1680  0.6068 -0.0580
  549MOL0     H72428   1.034   3.872   9.012  0.5322  1.3657 -1.3200
  549MOL0     H72429   0.941   3.809   8.881  1.9188 -0.9813  0.2641
  549MOL0     H72430   0.756   3.817   8.769 -1.3914 -2.7673  1.0309
  549MOL0     H72431   0.528   3.867   8.686  1.3367  5.2450  0.0905
  549MOL0     H72432   0.120   3.651   8.690 -0.0934 -0.4122 -0.1883
  549MOL0     H72433  -0.116   3.645   8.611  0.9809 -0.6270 -2.3003
  549MOL0     H72434  -0.333   4.025   8.465  1.7281  0.9811  0.4362
  549MOL0     H72435  -0.325   3.985   8.643 -2.9454 -0.6962  0.0880
  549MOL0     H72436  -0.485   3.802   8.601  3.0625  0.0689  0.7868
  549MOL0     H72437  -0.477   3.846   8.424  0.7082  0.5992 -0.2033
  549MOL0     H72438  -0.581   4.072   8.490 -0.7044  1.3356  3.5256
  549MOL0     H72439  -0.630   4.006   8.642  0.4972  0.9594 -0.3945
  549MOL0     H72440  -0.694   3.917   8.359  1.9030  2.7349  0.7671
  549MOL0     H72441  -0.709   3.799   8.495  2.2766  1.4945  3.0513
  549MOL0     H72442  -0.838   4.079   8.505  0.9037 -0.5803 -1.5857
  549MOL0     H72443  -0.865   3.953   8.619 -1.1357 -1.2274  0.2226
  549MOL0     H72444  -0.982   3.818   8.448 -0.9150  0.0377 -0.0900
  549MOL0     H72445  -0.928   3.948   8.325 -1.3582 -1.9293 -1.6748
  549MOL0     H72446  -1.084   4.103   8.456 -1.0183  0.3770 -1.1748
  549MOL0     H72447  -1.157   3.981   8.360 -0.1528 -2.1699  1.1719
  549MOL0     H72448  -1.235   4.035   8.597  0.2349  1.4164 -0.9582
  549MOL0     H72449  -1.112   3.910   8.657 -1.9541 -0.2759  0.9335
  549MOL0     H72450  -0.093   4.065   8.536  0.7912  0.7813  1.7999
  549MOL0     H72451   0.150   4.062   8.629  1.3989 -0.4946 -1.7356
  549MOL0     H72452   0.388   3.926   9.088  0.4134  0.0825  1.7191
  549MOL0     H72453   0.634   3.931   9.160 -0.6211 -1.0957 -0.4134
  549MOL0     H72454   2.557   4.438   8.161 -0.4286 -0.9506  0.7704
  549MOL0     H72455   2.786   4.413   8.244 -1.7274 -1.2698 -1.1320
  549MOL0     H72456   3.005   4.457   8.719  0.2044 -0.0399 -0.8365
  549MOL0     H72457   3.201   4.437   8.860  2.2206 -0.9586  0.9416
  549MOL0     H72458   3.426   4.358   8.952  0.0589  0.9662  0.5345
  549MOL0     H72459   3.426   4.527   8.893 -2.5607 -0.8859 -1.5151
  549MOL0     H72460   3.643   4.312   8.915  1.3601  0.3876 -1.4639
  549MOL0     H72461   3.673   4.463   8.833  1.0016 -0.0881  1.8159
  549MOL0     H72462   3.590   4.458   9.129  0.7952  0.0640  2.0731
  549MOL0     H72463   3.645   4.591   9.039 -0.4211  0.1097  2.0947
  549MOL0     H72464   3.844   4.504   9.168  2.7159 -0.1396  0.5097
  549MOL0     H72465   3.832   4.353   9.083  0.1451  1.2256 -0.6003
  549MOL0     H72466   4.057   4.605   8.839 -2.5241  2.8266 -0.8814
  549MOL0     H72467   3.436   4.359   8.507 -1.4969 -3.9406 -2.3028
  549MOL0     H72468   3.246   4.374   8.371 -2.3596 -3.7609  0.0324
  550MOL0     O72469  10.801   0.105   1.076 -0.1708 -0.5652 -0.0859
  550MOL0     C72470  10.833   0.157   1.186 -0.9320  0.5557  1.0720
  550MOL0     O72471  10.754   0.214   1.272  0.3913  0.2340  1.0832
  550MOL0     C72472  10.617   0.237   1.242  0.0513  1.0129 -0.1305
  550MOL0     C72473  10.521   0.150   1.193  1.4833  0.4113 -0.7638
  550MOL0     C72474  10.384   0.187   1.192 -0.1011  0.7065  0.0641
  550MOL0     C72475  10.343   0.311   1.229 -0.1495 -0.0170  0.2999
  550MOL0     O72476  10.208   0.344   1.223 -0.2552  0.2887  0.3516
  550MOL0     C72477  10.193   0.434   1.111 -0.3750 -0.6606  0.5948
  550MOL0     C72478  10.077   0.529   1.127  0.4761  0.4271  0.2056
  550MOL0     C72479   9.947   0.465   1.106 -0.3195  0.3949 -0.0502
  550MOL0     C72480   9.823   0.572   1.097 -0.5267  0.1067  0.4319
  550MOL0     C72481   9.686   0.501   1.087 -0.5273 -0.0949  0.7695
  550MOL0     C72482   9.591   0.526   1.202 -0.2216 -0.4050 -0.5481
  550MOL0     C72483   9.451   0.470   1.168 -0.6060  0.8371 -0.2741
  550MOL0     C72484   9.355   0.461   1.284 -0.3854 -0.7424  1.0027
  550MOL0     N72485   9.225   0.395   1.248 -1.0749 -0.0053 -0.2766
  550MOL0     C72486   9.195   0.264   1.220  0.2382  0.1160 -0.0860
  550MOL0     C72487   9.061   0.259   1.205 -0.4048  0.6077 -0.6529
  550MOL0     C72488   8.979   0.136   1.172 -0.2473 -0.7618  0.3195
  550MOL0     C72489   8.867   0.157   1.073  0.1216 -0.5677 -0.0368
  550MOL0     C72490   8.831   0.024   1.008  0.4991  0.5917  0.0048
  550MOL0     C72491   8.716   0.040   0.906 -0.3106 -0.5915  0.3397
  550MOL0     O72492   8.602   0.111   0.950  0.3422 -0.5278  1.0699
  550MOL0     C72493   8.499   0.035   0.993  0.3512 -0.0257 -0.7429
  550MOL0     C72494   8.402  -0.030   0.912  0.5245  0.3041  0.3201
  550MOL0     C72495   8.295  -0.099   0.983 -0.6530 -1.2835  0.5063
  550MOL0     C72496   8.299  -0.124   1.121 -1.0893 -0.1062  0.4466
  550MOL0     C72497   8.192  -0.207   1.186 -0.0282  0.6681  0.8337
  550MOL0     O72498   8.220  -0.242   1.316 -0.2082  0.4844  0.3549
  550MOL0     C72499   8.147  -0.325   1.395  0.3401  0.3329 -0.3744
  550MOL0     C72500   8.188  -0.341   1.530  0.3490  0.3541 -0.5812
  550MOL0     C72501   8.132  -0.428   1.622  0.1820  0.3761  0.5066
  550MOL0     C72502   8.016  -0.487   1.584  0.3967 -0.1742 -0.0954
  550MOL0     O72503   7.965  -0.577   1.674 -0.1613 -1.1501  0.7849
  550MOL0     C72504   7.824  -0.619   1.660 -0.9255  0.3186  0.8136
  550MOL0     C72505   7.782  -0.683   1.803  0.8344  0.4186  0.3621
  550MOL0     C72506   7.801  -0.597   1.918 -0.9087  0.2643 -0.1730
  550MOL0     C72507   7.687  -0.491   1.927  0.2899  0.1671  0.2302
  550MOL0     C72508   7.568  -0.548   2.017  0.6079 -0.0991  0.5246
  550MOL0     C72509   7.486  -0.430   2.081 -0.2458 -0.3695  0.9194
  550MOL0     C72510   7.370  -0.485   2.156 -0.3067 -0.0578  0.0541
  550MOL0     C72511   7.404  -0.529   2.301  0.7576  0.2089 -0.0246
  550MOL0    Cl72512   7.263  -0.593   2.376  0.0811  0.7593  0.0031
  550MOL0     C72513   7.973  -0.471   1.462  0.7715  0.0134  0.8389
  550MOL0     C72514   8.031  -0.390   1.364 -0.5678  0.8929 -0.4439
  550MOL0     O72515   8.106  -0.262   1.113 -0.1791  0.1672 -0.2183
  550MOL0     C72516   8.408  -0.074   1.195 -0.4703  1.5114  0.7493
  550MOL0     C72517   8.495   0.014   1.132 -0.2895  0.1271  0.7837
  550MOL0     N72518   9.013   0.380   1.253  0.0752 -0.6191  0.0765
  550MOL0     N72519   9.114   0.457   1.270  0.0016 -0.5232 -0.6792
  550MOL0     C72520  10.435   0.397   1.279 -0.1692  0.2304 -0.2636
  550MOL0     C72521  10.572   0.361   1.286  0.2137  0.1096  0.7719
  550MOL0     C72522  10.983   0.175   1.208 -0.0805  0.6053 -0.8422
  550MOL0     C72523  11.075   0.156   1.098  0.1292 -0.4046  0.5327
  550MOL0     C72524  11.211   0.180   1.114 -0.4394 -0.4774  0.0259
  550MOL0     C72525  11.265   0.211   1.235  0.5902  0.4279 -0.7465
  550MOL0     O72526  11.395   0.237   1.241 -0.0378 -0.3143 -0.1497
  550MOL0     C72527  11.464   0.185   1.355  0.3451  0.0763  0.1563
  550MOL0     C72528  11.548   0.074   1.298 -0.1393  0.2385 -0.3121
  550MOL0     C72529  11.656   0.107   1.196  0.7434 -0.6109 -0.1400
  550MOL0     C72530  11.718  -0.016   1.137  0.0448 -0.8899 -1.0488
  550MOL0     C72531  11.810  -0.060   1.241 -0.2204 -0.9918  0.0522
  550MOL0     C72532  11.891  -0.093   1.330 -0.1533 -1.0601 -0.4611
  550MOL0     C72533  11.179   0.228   1.339  0.0851  0.2321  1.1269
  550MOL0     C72534  11.038   0.202   1.336  0.2886 -0.0159 -0.0876
  550MOL0     H72535  10.545   0.053   1.152 -2.1392 -0.5613 -0.9598
  550MOL0     H72536  10.301   0.123   1.164  2.6636 -5.1900  3.4007
  550MOL0     H72537  10.175   0.384   1.015 -1.8053 -0.3326  0.6599
  550MOL0     H72538  10.276   0.504   1.101 -0.9210  0.0943  1.2837
  550MOL0     H72539  10.083   0.596   1.041 -0.9918 -1.7478 -1.7332
  550MOL0     H72540  10.079   0.586   1.220 -1.4712 -0.9161  1.1568
  550MOL0     H72541   9.926   0.400   1.191 -0.9572  3.0364  1.9340
  550MOL0     H72542   9.940   0.416   1.009  0.4496 -0.0938  0.1381
  550MOL0     H72543   9.815   0.646   1.177 -1.9458  0.4257  0.0382
  550MOL0     H72544   9.826   0.632   1.005 -0.6952 -0.5569 -0.0095
  550MOL0     H72545   9.714   0.395   1.084 -0.1103  0.0319 -0.2165
  550MOL0     H72546   9.638   0.544   0.998  1.5017  0.1575 -0.2677
  550MOL0     H72547   9.576   0.634   1.206 -4.0116 -0.7591 -0.9799
  550MOL0     H72548   9.631   0.485   1.295 -2.0242 -0.8409  0.0753
  550MOL0     H72549   9.406   0.539   1.096 -2.3741  1.1356  1.0778
  550MOL0     H72550   9.452   0.368   1.130 -0.8387  0.9760 -0.6561
  550MOL0     H72551   9.334   0.558   1.331 -1.7361 -0.3968 -0.2297
  550MOL0     H72552   9.410   0.393   1.350  3.6239 -1.4497 -2.6522
  550MOL0     H72553   9.264   0.181   1.205 -0.7838 -0.9417  0.8823
  550MOL0     H72554   8.946   0.097   1.269  2.6503  0.1837  1.8024
  550MOL0     H72555   9.044   0.053   1.143  1.9653  0.6121  1.0820
  550MOL0     H72556   8.901   0.220   0.990  0.1798 -1.1181 -0.4421
  550MOL0     H72557   8.783   0.210   1.118 -1.0124 -1.3116 -1.1725
  550MOL0     H72558   8.913  -0.035   0.967  1.1257 -1.5837  3.9023
  550MOL0     H72559   8.795  -0.045   1.085 -1.0710 -0.6518 -1.7667
  550MOL0     H72560   8.669  -0.051   0.866  0.1351 -0.7823  0.2511
  550MOL0     H72561   8.764   0.090   0.822 -0.6466 -1.1642 -0.2047
  550MOL0     H72562   8.390  -0.006   0.807 -0.2235  0.1489  0.3630
  550MOL0     H72563   8.207  -0.131   0.928  0.0881 -0.6089 -1.1286
  550MOL0     H72564   8.272  -0.283   1.566 -1.0006 -0.1623  4.1149
  550MOL0     H72565   8.168  -0.437   1.724 -0.0136  4.9550  1.2297
  550MOL0     H72566   7.830  -0.696   1.582  1.0090  2.0750 -0.8676
  550MOL0     H72567   7.757  -0.537   1.632 -1.6573  0.4480  2.7538
  550MOL0     H72568   7.845  -0.773   1.808 -0.7665 -1.0937 -3.1235
  550MOL0     H72569   7.680  -0.722   1.798  0.6601  0.9967 -0.8515
  550MOL0     H72570   7.900  -0.552   1.918 -1.8985  2.9104  3.3936
  550MOL0     H72571   7.793  -0.671   1.998 -4.8931  0.9162  0.2278
  550MOL0     H72572   7.728  -0.408   1.985 -2.4652  0.8366  1.3705
  550MOL0     H72573   7.663  -0.462   1.825 -1.6141  0.0183  0.5962
  550MOL0     H72574   7.609  -0.606   2.101  1.4166  0.5173  0.5723
  550MOL0     H72575   7.500  -0.611   1.960  1.0048 -2.5797  2.5820
  550MOL0     H72576   7.448  -0.359   2.007 -1.2628 -0.1043  1.6665
  550MOL0     H72577   7.550  -0.367   2.144  1.7905 -1.0984 -0.3334
  550MOL0     H72578   7.301  -0.401   2.152 -0.6098 -0.3347 -0.6598
  550MOL0     H72579   7.338  -0.571   2.097 -0.7374  0.0786  0.0867
  550MOL0     H72580   7.426  -0.437   2.356  0.2655 -0.9174  2.1731
  550MOL0     H72581   7.494  -0.591   2.307  1.3935  0.9149 -1.5874
  550MOL0     H72582   7.887  -0.523   1.420 -2.2704  2.4909  3.5024
  550MOL0     H72583   7.984  -0.353   1.273  1.1598  2.1969 -0.8613
  550MOL0     H72584   8.413  -0.089   1.302  0.4049 -1.4165  0.3940
  550MOL0     H72585   8.563   0.059   1.204  0.6907 -0.4636  0.2291
  550MOL0     H72586  10.399   0.494   1.309 -0.7100 -0.1597  0.3649
  550MOL0     H72587  10.645   0.432   1.324  1.8192 -1.6702  1.1671
  550MOL0     H72588  11.045   0.127   0.997  0.2881 -2.6133  1.0584
  550MOL0     H72589  11.271   0.181   1.024 -0.2826  1.8483  0.0753
  550MOL0     H72590  11.388   0.140   1.420  0.7007 -2.0523 -0.8060
  550MOL0     H72591  11.504   0.270   1.410 -1.3587  1.2804 -0.3948
  550MOL0     H72592  11.594   0.025   1.385  3.4597  1.2845 -1.4439
  550MOL0     H72593  11.479  -0.000   1.258 -2.7298 -0.8060  5.1104
  550MOL0     H72594  11.738   0.172   1.229  1.6623 -1.6011 -0.3932
  550MOL0     H72595  11.604   0.155   1.113 -2.0834 -0.9042  1.3491
  550MOL0     H72596  11.640  -0.081   1.096  0.1305 -1.1139 -0.8617
  550MOL0     H72597  11.776   0.009   1.048 -1.6094  1.5102 -1.5367
  550MOL0     H72598  11.966  -0.119   1.402  0.0588 -3.4869 -1.4802
  550MOL0     H72599  11.214   0.269   1.433 -0.8352 -0.0977  1.6261
  550MOL0     H72600  10.989   0.222   1.430 -1.3510 -2.8136 -0.2276
  551MOL0     O72601   8.098   0.731   1.930 -0.2207 -0.3218  0.8425
  551MOL0     C72602   8.106   0.765   2.048 -0.3270 -0.2118  1.1921
  551MOL0     O72603   7.997   0.795   2.128 -1.0555  1.0318  0.4220
  551MOL0     C72604   7.870   0.755   2.093  0.3904 -0.3502  0.2286
  551MOL0     C72605   7.797   0.658   2.169  0.4410  0.9356  0.3286
  551MOL0     C72606   7.672   0.613   2.132 -0.6703 -0.9195 -0.3614
  551MOL0     C72607   7.619   0.662   2.017 -0.4895  0.3102  0.7440
  551MOL0     O72608   7.496   0.606   1.971 -0.2021 -0.5420 -1.0862
  551MOL0     C72609   7.482   0.581   1.835  0.2348  0.0892  0.0643
  551MOL0     C72610   7.341   0.547   1.790 -0.1162  0.4640  0.5839
  551MOL0     C72611   7.286   0.411   1.852  0.3525 -0.5771 -0.4444
  551MOL0     C72612   7.143   0.373   1.795 -0.3423 -0.2234 -0.3691
  551MOL0     C72613   7.161   0.319   1.656  0.1203 -0.4945  0.1566
  551MOL0     C72614   7.037   0.251   1.589  1.2166 -0.2115 -0.9854
  551MOL0     C72615   7.053   0.201   1.450  0.0210  0.5480  0.1720
  551MOL0     C72616   6.973   0.070   1.445  0.0093  0.2146  0.0412
  551MOL0     N72617   6.998  -0.008   1.321 -0.1641  0.5648  0.2517
  551MOL0     C72618   6.977   0.037   1.192  0.5494 -0.0838  0.4455
  551MOL0     C72619   6.986  -0.071   1.118 -0.4838  0.0087 -0.1451
  551MOL0     C72620   6.989  -0.085   0.964  0.3691 -0.2750 -0.0724
  551MOL0     C72621   7.100  -0.171   0.908 -0.0924  0.1370 -0.2042
  551MOL0     C72622   7.233  -0.142   0.974  1.1577 -0.4314  0.4948
  551MOL0     C72623   7.347  -0.147   0.867 -0.3544 -0.1942  0.4466
  551MOL0     O72624   7.472  -0.164   0.932  0.3814 -0.5263  0.3666
  551MOL0     C72625   7.586  -0.193   0.857  0.6010 -0.5840  0.5891
  551MOL0     C72626   7.590  -0.216   0.717  0.2675  0.0224  1.4209
  551MOL0     C72627   7.709  -0.232   0.648 -1.1111 -0.9918 -0.0782
  551MOL0     C72628   7.835  -0.206   0.720 -0.6871  0.8590 -0.6846
  551MOL0     C72629   7.974  -0.201   0.646  0.0407 -0.4104  0.6862
  551MOL0     O72630   7.963  -0.188   0.506  0.5055 -0.9766 -0.1902
  551MOL0     C72631   8.080  -0.165   0.433  0.1056 -0.2790 -0.9753
  551MOL0     C72632   8.089  -0.230   0.308 -0.2148 -0.0353 -0.6261
  551MOL0     C72633   8.197  -0.199   0.219 -1.4115  0.5515  0.6929
  551MOL0     C72634   8.298  -0.112   0.263 -0.2101 -0.0548  0.1664
  551MOL0     O72635   8.415  -0.079   0.194 -0.1726  0.4951 -0.2615
  551MOL0     C72636   8.486  -0.177   0.130 -0.1713 -1.0031  0.1579
  551MOL0     C72637   8.614  -0.125   0.074  0.2657  0.1776 -0.0099
  551MOL0     C72638   8.589  -0.025  -0.036  0.1748  0.5856 -0.3816
  551MOL0     C72639   8.546  -0.082  -0.177 -0.3171  0.5169  0.0300
  551MOL0     C72640   8.581  -0.000  -0.301 -0.8502  0.2425  0.0882
  551MOL0     C72641   8.524  -0.065  -0.436  0.5530  0.6418  0.6718
  551MOL0     C72642   8.608  -0.193  -0.457 -0.9030  0.0748  0.5957
  551MOL0     C72643   8.544  -0.280  -0.571 -0.6284 -0.1460  0.0885
  551MOL0    Cl72644   8.588  -0.456  -0.550  0.1623  0.1499 -0.2815
  551MOL0     C72645   8.297  -0.068   0.396  0.2728 -0.3249 -0.0018
  551MOL0     C72646   8.186  -0.084   0.479  0.1224 -0.1833  0.5850
  551MOL0     O72647   8.083  -0.206   0.711  0.9794  0.4937 -0.1911
  551MOL0     C72648   7.833  -0.187   0.860  0.4831  0.1229  0.0949
  551MOL0     C72649   7.716  -0.190   0.923  0.4016 -0.1084 -0.0458
  551MOL0     N72650   7.038  -0.179   1.199  0.3473 -0.1452 -0.6483
  551MOL0     N72651   7.047  -0.136   1.318  0.6940 -1.0352 -0.5139
  551MOL0     C72652   7.686   0.763   1.941  0.4571 -0.5814  0.2491
  551MOL0     C72653   7.802   0.810   1.978  0.2258  0.2011  0.2405
  551MOL0     C72654   8.239   0.791   2.097 -0.1734 -0.1132 -0.6720
  551MOL0     C72655   8.350   0.814   2.019  0.4863  0.2421  1.2565
  551MOL0     C72656   8.471   0.859   2.062 -0.1511  1.1251  0.5000
  551MOL0     C72657   8.502   0.861   2.194  0.0857  0.7121 -0.2273
  551MOL0     O72658   8.624   0.909   2.247  0.2477  0.7275  0.1660
  551MOL0     C72659   8.750   0.867   2.174 -0.9384 -0.0896  0.1082
  551MOL0     C72660   8.843   0.800   2.277 -0.4693  0.0495  0.1620
  551MOL0     C72661   8.788   0.675   2.337 -0.5754  0.4844 -0.0940
  551MOL0     C72662   8.869   0.597   2.443  0.6046 -0.9914 -0.1953
  551MOL0     C72663   8.889   0.686   2.557 -0.2960  0.7337  0.0442
  551MOL0     C72664   8.906   0.737   2.668  0.2314  0.2665  0.6752
  551MOL0     C72665   8.400   0.836   2.286  0.2909  0.8189 -0.7067
  551MOL0     C72666   8.270   0.809   2.235  0.2212 -0.0581  0.0998
  551MOL0     H72667   7.840   0.614   2.259 -0.7428  1.6711  1.2919
  551MOL0     H72668   7.636   0.527   2.188  2.6086 -2.6618 -0.6581
  551MOL0     H72669   7.542   0.498   1.795 -1.4049 -1.1731  0.1212
  551MOL0     H72670   7.501   0.672   1.778 -1.6552  0.9524  0.7376
  551MOL0     H72671   7.355   0.535   1.682 -3.8563  1.5972 -0.1647
  551MOL0     H72672   7.266   0.623   1.813 -1.8979 -1.3266  1.0374
  551MOL0     H72673   7.276   0.438   1.958 -2.6034  1.9577 -1.2215
  551MOL0     H72674   7.358   0.332   1.829 -0.0334 -0.5511 -1.8046
  551MOL0     H72675   7.092   0.296   1.855 -0.3929 -0.9581 -1.3338
  551MOL0     H72676   7.076   0.459   1.799 -0.8524 -0.4008 -3.0982
  551MOL0     H72677   7.232   0.237   1.647 -2.2441 -2.4672 -2.0769
  551MOL0     H72678   7.194   0.395   1.584  2.2320 -1.2858  0.2112
  551MOL0     H72679   6.961   0.329   1.585  0.1766 -1.1385  0.1316
  551MOL0     H72680   6.996   0.178   1.659  2.7510  0.6521  0.9033
  551MOL0     H72681   7.005   0.259   1.371  1.2372  0.8421 -0.3698
  551MOL0     H72682   7.159   0.187   1.425  0.7624 -1.8540  3.8546
  551MOL0     H72683   6.867   0.086   1.466  0.0436  3.8219 -1.7390
  551MOL0     H72684   6.996   0.004   1.529 -0.3442 -0.6744 -0.5394
  551MOL0     H72685   6.952   0.138   1.164 -0.6773 -0.5954 -0.4083
  551MOL0     H72686   6.999   0.016   0.925  0.1273  0.0183  0.6118
  551MOL0     H72687   6.890  -0.117   0.930  1.5640 -1.4705 -2.6522
  551MOL0     H72688   7.092  -0.140   0.804 -3.0495  0.3367  0.0099
  551MOL0     H72689   7.072  -0.277   0.912 -0.1296  0.1799  2.4069
  551MOL0     H72690   7.235  -0.049   1.031 -1.2097 -0.5914  0.9547
  551MOL0     H72691   7.244  -0.228   1.041  2.3514 -0.9452 -0.3316
  551MOL0     H72692   7.338  -0.059   0.803  2.0584  1.4755  2.1902
  551MOL0     H72693   7.342  -0.233   0.801  3.2441 -0.0427 -0.1915
  551MOL0     H72694   7.500  -0.234   0.659  0.4355 -0.1838  1.2197
  551MOL0     H72695   7.714  -0.261   0.544  0.8631 -0.9964 -0.0073
  551MOL0     H72696   8.010  -0.299   0.281 -1.1375  0.0618  1.6378
  551MOL0     H72697   8.207  -0.247   0.122 -3.6763  2.0669 -0.3723
  551MOL0     H72698   8.416  -0.222   0.058 -1.3701  1.0395 -0.0279
  551MOL0     H72699   8.524  -0.252   0.200 -0.4667 -1.0636  0.2582
  551MOL0     H72700   8.675  -0.204   0.030  0.9889  0.4608  0.4765
  551MOL0     H72701   8.679  -0.087   0.153  1.8678 -0.3425 -1.0399
  551MOL0     H72702   8.678   0.038  -0.042 -1.1006  2.3993 -0.8555
  551MOL0     H72703   8.508   0.042  -0.009  0.0104  0.1701  0.1810
  551MOL0     H72704   8.607  -0.172  -0.190 -3.1486 -1.2724 -1.8693
  551MOL0     H72705   8.441  -0.109  -0.162 -0.3215  1.4738  2.0792
  551MOL0     H72706   8.688   0.023  -0.308 -1.4291  2.9171 -1.7047
  551MOL0     H72707   8.535   0.097  -0.285  0.0993  0.7208  0.0170
  551MOL0     H72708   8.544  -0.012  -0.529  0.7853 -3.4665 -1.8555
  551MOL0     H72709   8.417  -0.087  -0.439  0.0422  2.7844 -2.8532
  551MOL0     H72710   8.713  -0.168  -0.475 -1.1156  0.4175 -0.2251
  551MOL0     H72711   8.589  -0.257  -0.370  1.3992 -0.0180  1.1023
  551MOL0     H72712   8.571  -0.249  -0.672  0.5783  1.0132  0.7338
  551MOL0     H72713   8.437  -0.255  -0.565  0.0458  2.8064  2.2295
  551MOL0     H72714   8.381  -0.006   0.424  0.6660  0.1246 -2.0145
  551MOL0     H72715   8.182  -0.034   0.575  0.5733  0.0075  0.5043
  551MOL0     H72716   7.928  -0.200   0.911  1.8816 -1.1043 -2.6037
  551MOL0     H72717   7.718  -0.164   1.029  2.4908  0.3432 -0.1350
  551MOL0     H72718   7.644   0.820   1.859  0.9969 -1.3047 -0.5543
  551MOL0     H72719   7.856   0.891   1.929  3.3108 -1.0731  1.2450
  551MOL0     H72720   8.344   0.810   1.911  3.8518 -4.4929  0.9280
  551MOL0     H72721   8.553   0.877   1.994  1.5048 -0.0876  2.0745
  551MOL0     H72722   8.801   0.952   2.128  1.0210 -0.4987  1.4148
  551MOL0     H72723   8.724   0.795   2.096 -0.7169 -0.6341  0.5294
  551MOL0     H72724   8.941   0.786   2.232 -0.2486  4.3868 -1.1596
  551MOL0     H72725   8.864   0.870   2.358  4.2726 -3.0931  2.0557
  551MOL0     H72726   8.762   0.597   2.265 -1.5462  0.3642  0.3743
  551MOL0     H72727   8.694   0.704   2.385 -0.9310  0.9789 -1.0719
  551MOL0     H72728   8.819   0.505   2.473  1.0877 -1.4416 -0.7516
  551MOL0     H72729   8.970   0.587   2.402  1.0414  2.2189 -0.1538
  551MOL0     H72730   8.915   0.787   2.763  3.3278 -0.7540  1.0156
  551MOL0     H72731   8.415   0.840   2.394  1.3735  0.5024 -0.8344
  551MOL0     H72732   8.190   0.796   2.307  0.2583 -0.1898  0.1172
  552MOL0     O72733   6.740   3.268   4.938 -0.3696  0.4129  0.1225
  552MOL0     C72734   6.729   3.385   4.964  0.1200 -1.0544  0.5723
  552MOL0     O72735   6.671   3.473   4.883  0.0580  0.0752 -0.0776
  552MOL0     C72736   6.627   3.444   4.760 -0.0919 -0.0498  0.1485
  552MOL0     C72737   6.699   3.368   4.670  0.1313  0.7186 -0.1936
  552MOL0     C72738   6.656   3.349   4.534  0.9000  0.0456  0.0698
  552MOL0     C72739   6.536   3.410   4.490  0.5997  0.4351  1.0830
  552MOL0     O72740   6.486   3.403   4.356  0.4634 -0.4622  0.2776
  552MOL0     C72741   6.494   3.276   4.297  0.5612 -0.2963  0.0322
  552MOL0     C72742   6.364   3.243   4.217 -0.8009 -0.0040  0.5842
  552MOL0     C72743   6.240   3.257   4.300  0.4104 -0.1375  0.1872
  552MOL0     C72744   6.115   3.207   4.219 -0.0035 -0.0821 -0.6064
  552MOL0     C72745   5.980   3.228   4.289 -0.1753 -0.6928 -0.2187
  552MOL0     C72746   5.879   3.120   4.245 -0.5198 -0.0638  0.2787
  552MOL0     C72747   5.815   3.137   4.104  0.3044 -0.1109  0.5110
  552MOL0     C72748   5.738   3.267   4.094  0.2582 -0.2037  0.0891
  552MOL0     N72749   5.671   3.285   3.963  1.2026 -0.1733  0.9898
  552MOL0     C72750   5.569   3.200   3.921 -0.2498  0.4940 -0.1100
  552MOL0     C72751   5.538   3.237   3.798 -0.2847  0.0645  0.6365
  552MOL0     C72752   5.455   3.160   3.691 -0.1152 -0.7457 -0.7566
  552MOL0     C72753   5.307   3.179   3.699 -0.0830  0.2143  0.2341
  552MOL0     C72754   5.275   3.328   3.689  0.0724 -0.0608  0.1774
  552MOL0     C72755   5.294   3.406   3.552  0.6881  0.5392 -0.3764
  552MOL0     O72756   5.211   3.529   3.559  0.5998 -0.0967 -0.1561
  552MOL0     C72757   5.080   3.531   3.505  0.2537 -0.2851 -0.0766
  552MOL0     C72758   5.007   3.650   3.481 -0.2306  0.6286  0.3481
  552MOL0     C72759   4.885   3.651   3.417 -0.3883 -1.8115  0.2237
  552MOL0     C72760   4.816   3.532   3.384  0.1758 -1.0134  0.0964
  552MOL0     C72761   4.682   3.536   3.316 -0.0914  0.5298 -0.1910
  552MOL0     O72762   4.632   3.653   3.305  0.0696 -0.5989 -0.1976
  552MOL0     C72763   4.526   3.679   3.226 -0.6198 -0.5498  0.3835
  552MOL0     C72764   4.546   3.703   3.094 -1.1700 -0.1544  0.8785
  552MOL0     C72765   4.446   3.715   2.998 -0.6653 -0.3677 -0.2899
  552MOL0     C72766   4.313   3.717   3.041 -0.8975 -1.4845 -0.4714
  552MOL0     O72767   4.206   3.720   2.952 -0.2633  0.0270  0.2760
  552MOL0     C72768   4.234   3.772   2.820  0.2407  0.7682  0.8803
  552MOL0     C72769   4.109   3.756   2.737  0.7151  0.9521  0.4620
  552MOL0     C72770   3.987   3.841   2.785  0.9999  0.7393  0.0026
  552MOL0     C72771   3.851   3.820   2.712  0.1809 -0.0992  0.2537
  552MOL0     C72772   3.744   3.914   2.767  1.0062  0.4172 -0.4078
  552MOL0     C72773   3.694   3.890   2.913  0.1141 -0.5849 -0.2649
  552MOL0     C72774   3.660   3.741   2.935 -0.1564  0.0887 -0.3508
  552MOL0     C72775   3.629   3.721   3.078  0.6269  1.0230 -0.0051
  552MOL0    Cl72776   3.637   3.545   3.105 -0.0121  0.1319  0.1079
  552MOL0     C72777   4.287   3.711   3.181 -0.2966 -0.4550 -0.0830
  552MOL0     C72778   4.397   3.683   3.270 -0.8302 -0.0294  0.3287
  552MOL0     O72779   4.625   3.426   3.286 -0.2108  0.2876 -0.0525
  552MOL0     C72780   4.888   3.414   3.406 -0.4306 -0.2389 -0.6767
  552MOL0     C72781   5.014   3.419   3.459 -0.4332  0.1142  0.6436
  552MOL0     N72782   5.603   3.356   3.770 -0.7760 -0.6805 -0.2644
  552MOL0     N72783   5.692   3.382   3.865  0.5583 -0.6667 -0.0500
  552MOL0     C72784   6.465   3.486   4.580 -0.4291 -0.2346 -0.6731
  552MOL0     C72785   6.514   3.508   4.710 -0.2486 -0.0444  0.2225
  552MOL0     C72786   6.782   3.432   5.091  0.1532 -0.4496 -0.3840
  552MOL0     C72787   6.859   3.342   5.169  0.6081 -0.5321 -0.4806
  552MOL0     C72788   6.933   3.394   5.279 -0.6683  0.3278  0.0909
  552MOL0     C72789   6.921   3.527   5.319  0.8448  1.1160  0.7308
  552MOL0     O72790   6.999   3.561   5.429 -0.8519 -0.2507  0.0055
  552MOL0     C72791   7.036   3.697   5.445 -0.5748  1.2024  0.3001
  552MOL0     C72792   7.138   3.736   5.336  0.7072  0.4050 -0.3337
  552MOL0     C72793   7.237   3.845   5.381  0.1467 -0.2878  0.1057
  552MOL0     C72794   7.327   3.898   5.272 -0.0015 -0.2949  0.8793
  552MOL0     C72795   7.448   3.818   5.253  0.4692 -0.8050 -1.1906
  552MOL0     C72796   7.544   3.752   5.253  0.3501 -0.2892 -1.2641
  552MOL0     C72797   6.824   3.610   5.247  1.3081  0.4806 -0.4556
  552MOL0     C72798   6.757   3.566   5.141  0.7201 -0.5601  0.9695
  552MOL0     H72799   6.797   3.327   4.692 -0.5116 -0.7886  0.0212
  552MOL0     H72800   6.719   3.293   4.465 -0.5277 -0.4176 -0.9136
  552MOL0     H72801   6.512   3.193   4.366  1.2110 -2.7413 -2.8430
  552MOL0     H72802   6.579   3.282   4.228 -1.0695 -1.5646 -2.2348
  552MOL0     H72803   6.388   3.144   4.177  1.8043  1.1876 -1.0732
  552MOL0     H72804   6.350   3.313   4.135 -1.9377  0.2192  0.9593
  552MOL0     H72805   6.217   3.360   4.328  0.2569 -0.2770  0.5824
  552MOL0     H72806   6.252   3.198   4.391 -0.0924  2.6278  2.1714
  552MOL0     H72807   6.111   3.246   4.117  2.3957  1.2186 -0.2891
  552MOL0     H72808   6.130   3.099   4.205  1.7486  0.3173 -2.2279
  552MOL0     H72809   5.954   3.332   4.267  1.2597  0.4388  2.8172
  552MOL0     H72810   5.986   3.229   4.399  2.1446 -2.3292 -0.2545
  552MOL0     H72811   5.793   3.128   4.313  0.5102  0.6751  1.5451
  552MOL0     H72812   5.926   3.023   4.266  0.4050 -0.3942 -2.8458
  552MOL0     H72813   5.897   3.142   4.032  0.0678  0.2854  0.2649
  552MOL0     H72814   5.743   3.055   4.094 -0.8033  0.7126  1.4884
  552MOL0     H72815   5.797   3.359   4.099 -0.5666  0.4497 -1.5822
  552MOL0     H72816   5.651   3.272   4.160 -0.8436 -0.5233 -1.3116
  552MOL0     H72817   5.543   3.112   3.978  0.9569 -0.0172 -0.3126
  552MOL0     H72818   5.479   3.054   3.704  4.3488  0.4355  3.0747
  552MOL0     H72819   5.492   3.189   3.592  0.0300  0.2963 -0.4036
  552MOL0     H72820   5.286   3.148   3.802  1.6005 -1.1525  0.2120
  552MOL0     H72821   5.249   3.124   3.625 -0.0523 -2.4021  2.0266
  552MOL0     H72822   5.168   3.333   3.712 -0.1256 -0.0528 -0.7158
  552MOL0     H72823   5.316   3.396   3.763 -0.9615 -1.3192  1.9907
  552MOL0     H72824   5.269   3.330   3.477  1.6912 -1.7873  1.5183
  552MOL0     H72825   5.400   3.433   3.557 -0.0711  3.6198  1.3929
  552MOL0     H72826   5.044   3.744   3.520  0.2473  0.9597 -0.8438
  552MOL0     H72827   4.839   3.748   3.403 -0.5144 -1.7975  0.7046
  552MOL0     H72828   4.647   3.707   3.056 -0.6793 -1.5494  1.9694
  552MOL0     H72829   4.474   3.722   2.893  3.5499  1.5176  0.7248
  552MOL0     H72830   4.299   3.694   2.779 -0.9566 -1.2443  2.5717
  552MOL0     H72831   4.274   3.874   2.819 -0.2841  0.9778  0.8731
  552MOL0     H72832   4.070   3.654   2.733 -0.6723  1.4562 -4.0348
  552MOL0     H72833   4.135   3.781   2.634  0.0097 -0.6157 -0.1357
  552MOL0     H72834   4.012   3.946   2.770 -3.2622  2.1498  1.4005
  552MOL0     H72835   3.975   3.818   2.891  1.1198  3.6749  0.7432
  552MOL0     H72836   3.861   3.838   2.604  2.1948  2.7644  0.7890
  552MOL0     H72837   3.826   3.714   2.721 -0.5051  0.0746  0.4306
  552MOL0     H72838   3.670   3.912   2.687 -0.6776  0.3515  1.0808
  552MOL0     H72839   3.793   4.012   2.773  0.3525  0.6757  2.0341
  552MOL0     H72840   3.602   3.946   2.931  0.1523 -1.1558  1.9386
  552MOL0     H72841   3.771   3.928   2.980 -1.9272 -0.9026  2.4266
  552MOL0     H72842   3.594   3.693   2.862 -0.3151  1.2040 -0.9687
  552MOL0     H72843   3.750   3.681   2.922 -0.9006 -0.9624 -0.7921
  552MOL0     H72844   3.529   3.761   3.095  0.5240  1.6465 -1.9034
  552MOL0     H72845   3.698   3.773   3.146  0.3009  1.3718  0.0616
  552MOL0     H72846   4.195   3.717   3.238  1.2983 -0.6159  2.7319
  552MOL0     H72847   4.382   3.666   3.376  0.5339  0.7922  0.6717
  552MOL0     H72848   4.845   3.326   3.359  2.5880 -0.8476 -2.5840
  552MOL0     H72849   5.065   3.325   3.473 -3.0600 -1.1587  2.3551
  552MOL0     H72850   6.382   3.543   4.540 -0.6816  0.0071  0.1831
  552MOL0     H72851   6.446   3.562   4.775 -0.4840 -0.2923  0.1838
  552MOL0     H72852   6.890   3.242   5.139  2.3551 -0.2266  0.1567
  552MOL0     H72853   7.005   3.329   5.328 -0.2123 -0.1011 -1.1230
  552MOL0     H72854   7.082   3.723   5.541 -0.7777  2.3050  0.1132
  552MOL0     H72855   6.948   3.762   5.447 -1.3711  0.1471  1.1849
  552MOL0     H72856   7.199   3.651   5.303  1.4748  0.3319  1.2005
  552MOL0     H72857   7.086   3.774   5.247  0.9663  0.0487 -0.6388
  552MOL0     H72858   7.298   3.812   5.465 -0.2387 -1.2517  0.0251
  552MOL0     H72859   7.171   3.927   5.411  0.3188  1.3619 -3.5125
  552MOL0     H72860   7.265   3.898   5.181 -0.5607  1.3652  1.2249
  552MOL0     H72861   7.359   4.002   5.283 -1.1918  0.0901  0.8447
  552MOL0     H72862   7.626   3.683   5.259  2.8119  2.5607  1.7223
  552MOL0     H72863   6.797   3.708   5.286 -0.6416  0.0621 -0.6416
  552MOL0     H72864   6.695   3.634   5.085  3.4600  1.4560  0.1352
  553MOL0     O72865   1.291   0.436   4.562 -0.2758  0.5330 -0.4165
  553MOL0     C72866   1.298   0.384   4.676  0.5724  0.2713  0.9657
  553MOL0     O72867   1.191   0.334   4.746  0.2519  0.3785  0.6265
  553MOL0     C72868   1.062   0.354   4.710  0.2450  0.0747 -0.0647
  553MOL0     C72869   1.005   0.379   4.586  0.1102  0.8222  0.6896
  553MOL0     C72870   0.863   0.404   4.582  0.0133 -0.0094  0.3039
  553MOL0     C72871   0.786   0.355   4.694 -0.5557  0.6911  0.7047
  553MOL0     O72872   0.650   0.360   4.710 -0.2794  0.5849  0.8021
  553MOL0     C72873   0.574   0.462   4.640 -0.0680 -0.8168  0.7494
  553MOL0     C72874   0.435   0.484   4.714 -0.8300 -1.0692 -0.0880
  553MOL0     C72875   0.356   0.615   4.678 -0.0060  0.6890  1.2064
  553MOL0     C72876   0.245   0.634   4.779 -0.5540 -0.0911  0.2607
  553MOL0     C72877   0.161   0.756   4.742  0.3754  0.0367 -0.6132
  553MOL0     C72878   0.109   0.749   4.598 -0.3808 -0.1022 -0.1050
  553MOL0     C72879  -0.012   0.850   4.584 -0.4736  0.1154  0.4900
  553MOL0     C72880   0.031   0.996   4.610  0.4210 -1.0191  0.0238
  553MOL0     N72881  -0.092   1.082   4.596 -0.1018  0.4395  0.5139
  553MOL0     C72882  -0.131   1.170   4.690 -0.5923 -0.3234  0.1937
  553MOL0     C72883  -0.233   1.245   4.632  0.6171  0.7762 -0.0740
  553MOL0     C72884  -0.286   1.379   4.672  0.1639 -0.9269 -0.3525
  553MOL0     C72885  -0.440   1.372   4.682 -0.4851 -0.1400  0.6207
  553MOL0     C72886  -0.504   1.511   4.704 -0.1093 -0.7640 -0.1786
  553MOL0     C72887  -0.657   1.507   4.689  0.0889  0.1268  0.2870
  553MOL0     O72888  -0.717   1.496   4.818 -0.2267 -0.0900  0.0092
  553MOL0     C72889  -0.852   1.514   4.817 -0.2701  0.0812 -0.1026
  553MOL0     C72890  -0.942   1.420   4.872 -1.4181  0.5410  0.0679
  553MOL0     C72891  -1.078   1.440   4.878 -0.0452  0.1073  0.4803
  553MOL0     C72892  -1.131   1.547   4.807  0.1081 -0.3395 -0.3191
  553MOL0     C72893  -1.281   1.584   4.809 -0.6519 -0.1975  0.5405
  553MOL0     O72894  -1.327   1.662   4.703  0.7644 -0.8300 -0.2875
  553MOL0     C72895  -1.465   1.687   4.717 -0.6097 -0.4502 -0.2904
  553MOL0     C72896  -1.559   1.628   4.626 -0.1559 -0.5004 -0.2300
  553MOL0     C72897  -1.701   1.654   4.620 -0.7124 -0.5658 -0.1429
  553MOL0     C72898  -1.752   1.733   4.728  0.3440  0.3297  0.3305
  553MOL0     O72899  -1.888   1.747   4.756  0.2319  0.1666 -0.2120
  553MOL0     C72900  -1.978   1.727   4.642 -0.4453  0.1115 -0.2840
  553MOL0     C72901  -2.124   1.742   4.698  0.3513 -0.3931 -0.1984
  553MOL0     C72902  -2.158   1.637   4.810  0.1722 -0.3429  0.4111
  553MOL0     C72903  -2.315   1.624   4.821 -0.9024 -0.6452 -0.1833
  553MOL0     C72904  -2.349   1.505   4.910 -0.6060 -0.6635  0.1075
  553MOL0     C72905  -2.496   1.491   4.929  0.8135  0.4216  0.5876
  553MOL0     C72906  -2.568   1.457   4.793 -0.5729 -0.8698 -0.5093
  553MOL0     C72907  -2.703   1.404   4.847 -0.0420  0.0111  0.1636
  553MOL0    Cl72908  -2.798   1.346   4.704  0.0843  0.1286 -0.0829
  553MOL0     C72909  -1.661   1.796   4.814  0.0717  0.0502  0.3577
  553MOL0     C72910  -1.520   1.776   4.817  0.2537  0.5161 -0.9570
  553MOL0     O72911  -1.343   1.537   4.902  0.0901  0.4385 -0.5484
  553MOL0     C72912  -1.043   1.645   4.746  0.7911  1.1312  0.1007
  553MOL0     C72913  -0.902   1.623   4.749 -0.3547 -0.8175 -0.1947
  553MOL0     N72914  -0.241   1.191   4.500  0.3603 -0.6016  0.2421
  553MOL0     N72915  -0.160   1.091   4.480 -0.0875 -0.4096 -0.3315
  553MOL0     C72916   0.841   0.320   4.809 -0.5652  0.9984 -0.5503
  553MOL0     C72917   0.978   0.318   4.824  0.1185  0.0727 -0.0538
  553MOL0     C72918   1.438   0.351   4.733 -0.2909 -0.5016  0.5798
  553MOL0     C72919   1.546   0.405   4.666  0.6274 -0.3516 -0.0977
  553MOL0     C72920   1.667   0.399   4.725 -0.3341 -0.9902 -0.4782
  553MOL0     C72921   1.692   0.354   4.851  0.2555  0.9554  0.5885
  553MOL0     O72922   1.817   0.353   4.901 -0.1885  0.6688 -0.2381
  553MOL0     C72923   1.865   0.220   4.935 -0.4988 -0.7217  1.2792
  553MOL0     C72924   1.910   0.131   4.811  0.1517 -0.1671  0.0622
  553MOL0     C72925   1.807   0.020   4.808 -0.2596  0.6600 -0.2906
  553MOL0     C72926   1.829  -0.071   4.688  0.7660  0.0059 -0.1016
  553MOL0     C72927   1.954  -0.142   4.693  0.3381  0.1957 -0.6890
  553MOL0     C72928   2.061  -0.205   4.684  0.3269  0.4421  0.0831
  553MOL0     C72929   1.584   0.307   4.924  0.3042  0.3529 -0.4997
  553MOL0     C72930   1.461   0.301   4.862  0.8866 -0.8850  0.2778
  553MOL0     H72931   1.067   0.378   4.496 -0.6658 -3.0043  0.0147
  553MOL0     H72932   0.801   0.435   4.499 -0.4927 -1.6695  0.0346
  553MOL0     H72933   0.565   0.425   4.537  1.9980  0.4623  0.0490
  553MOL0     H72934   0.620   0.561   4.629  0.8512 -1.3078  0.0365
  553MOL0     H72935   0.453   0.495   4.822  0.3319  0.4886 -0.4029
  553MOL0     H72936   0.380   0.390   4.708  0.8883 -2.1641  0.6850
  553MOL0     H72937   0.308   0.604   4.580 -1.1461  0.7816  1.7321
  553MOL0     H72938   0.427   0.698   4.672  1.2913 -0.3871  1.2122
  553MOL0     H72939   0.177   0.548   4.784 -0.1449 -0.4405 -0.0480
  553MOL0     H72940   0.288   0.653   4.878 -1.9683  1.0323  0.6901
  553MOL0     H72941   0.208   0.853   4.758 -1.2081  0.7601 -0.2094
  553MOL0     H72942   0.079   0.749   4.814  1.7804 -0.0728  1.0400
  553MOL0     H72943   0.067   0.651   4.576 -1.3875  0.7125 -2.1415
  553MOL0     H72944   0.189   0.768   4.526 -0.4891  2.3756  0.3237
  553MOL0     H72945  -0.048   0.843   4.481  0.2163  1.3797  0.1428
  553MOL0     H72946  -0.092   0.820   4.652  0.7590  0.0817  1.9679
  553MOL0     H72947   0.107   1.018   4.534  0.2955 -3.0383 -0.7325
  553MOL0     H72948   0.062   1.021   4.712 -2.0369  0.4246  0.5071
  553MOL0     H72949  -0.072   1.201   4.776 -0.4432 -0.5303  0.1662
  553MOL0     H72950  -0.261   1.460   4.603  1.6154  0.3595  1.5924
  553MOL0     H72951  -0.237   1.396   4.768 -1.2726  2.5790 -0.1017
  553MOL0     H72952  -0.468   1.310   4.768  2.0360 -1.1235  0.8327
  553MOL0     H72953  -0.485   1.326   4.594 -1.6036  1.0330  0.5549
  553MOL0     H72954  -0.461   1.555   4.794  0.9794 -0.8872 -0.6166
  553MOL0     H72955  -0.463   1.579   4.628  0.1837  0.5859  1.1317
  553MOL0     H72956  -0.692   1.430   4.619  1.0551 -1.5354  1.5703
  553MOL0     H72957  -0.677   1.600   4.635 -0.8377 -1.0084 -1.4194
  553MOL0     H72958  -0.909   1.329   4.919  4.1801  1.7707 -0.7289
  553MOL0     H72959  -1.142   1.381   4.942  1.0628 -2.0836 -0.3487
  553MOL0     H72960  -1.523   1.569   4.542  0.4825 -1.4135  0.6547
  553MOL0     H72961  -1.754   1.598   4.544  3.6323 -3.8869 -1.1327
  553MOL0     H72962  -1.963   1.622   4.616 -1.4838 -0.3140  0.7633
  553MOL0     H72963  -1.960   1.780   4.548 -3.0238  1.6201 -0.0354
  553MOL0     H72964  -2.196   1.733   4.615  0.7474  3.3921 -1.1465
  553MOL0     H72965  -2.144   1.845   4.729 -1.7250 -1.2600  1.6345
  553MOL0     H72966  -2.125   1.659   4.912 -3.0511  0.8278  1.3405
  553MOL0     H72967  -2.125   1.539   4.776 -0.1211 -0.0993 -0.6081
  553MOL0     H72968  -2.357   1.714   4.866  2.4370  0.7058  0.5149
  553MOL0     H72969  -2.356   1.606   4.721  0.7249 -2.1804 -0.6251
  553MOL0     H72970  -2.309   1.529   5.009 -0.4013  2.0818 -0.5770
  553MOL0     H72971  -2.310   1.412   4.866 -2.4461 -0.6642 -1.6657
  553MOL0     H72972  -2.535   1.588   4.961  1.9135  0.9172  0.4697
  553MOL0     H72973  -2.513   1.420   5.010  0.1173 -0.4294 -0.2902
  553MOL0     H72974  -2.584   1.551   4.739 -0.1575 -0.8577 -0.6133
  553MOL0     H72975  -2.515   1.379   4.738 -2.5567 -3.2853  0.8032
  553MOL0     H72976  -2.744   1.487   4.906  0.4333 -1.8594  3.3591
  553MOL0     H72977  -2.684   1.328   4.923 -0.8584  1.9304  2.4242
  553MOL0     H72978  -1.700   1.838   4.906 -0.6263 -4.1037  2.1646
  553MOL0     H72979  -1.453   1.832   4.881  2.0148  1.3118 -3.3174
  553MOL0     H72980  -1.071   1.742   4.706  1.4235  1.6282  0.8261
  553MOL0     H72981  -0.839   1.698   4.700  2.2174 -1.2026  2.2736
  553MOL0     H72982   0.775   0.299   4.892 -2.1872  1.6710 -1.6175
  553MOL0     H72983   1.017   0.301   4.924 -2.3545  2.4816  1.4345
  553MOL0     H72984   1.538   0.475   4.583 -0.3548  1.1192  1.1792
  553MOL0     H72985   1.750   0.458   4.688 -0.5703 -0.1809  0.2585
  553MOL0     H72986   1.786   0.173   4.994 -3.0109  0.9998 -0.4291
  553MOL0     H72987   1.951   0.234   5.000 -1.1378 -0.9110  2.1819
  553MOL0     H72988   1.912   0.189   4.718 -1.8112 -2.2729 -1.4073
  553MOL0     H72989   2.011   0.090   4.822  0.2028  0.3864  2.1256
  553MOL0     H72990   1.704   0.057   4.815  0.0487  1.6515 -0.7098
  553MOL0     H72991   1.816  -0.037   4.900 -1.3552  2.3973  0.9539
  553MOL0     H72992   1.744  -0.141   4.682  0.1700  0.8218 -2.2923
  553MOL0     H72993   1.829  -0.014   4.595  1.5822 -1.9355 -1.3529
  553MOL0     H72994   2.143  -0.272   4.670 -2.6858 -3.7674  0.6465
  553MOL0     H72995   1.600   0.266   5.023  2.9190 -0.0113 -1.0013
  553MOL0     H72996   1.379   0.245   4.905  1.2247 -0.3358  1.6988
  554MOL0     O72997   6.187   9.693   3.814  0.0305 -0.2656 -0.3562
  554MOL0     C72998   6.220   9.714   3.695  0.0989 -0.2426 -0.0564
  554MOL0     O72999   6.138   9.714   3.585 -0.6332 -0.4693  0.3256
  554MOL0     C73000   6.006   9.695   3.613 -0.6385  0.3575  0.4251
  554MOL0     C73001   5.928   9.805   3.636 -0.4820 -0.1994 -0.5060
  554MOL0     C73002   5.797   9.781   3.678 -0.6335 -0.1075  0.8512
  554MOL0     C73003   5.730   9.657   3.667 -0.3133  0.5707  0.2591
  554MOL0     O73004   5.587   9.644   3.688  0.2360  0.4173 -0.1252
  554MOL0     C73005   5.523   9.738   3.780 -0.1783 -0.6011  0.1627
  554MOL0     C73006   5.373   9.682   3.803  0.3851 -0.6735 -1.1583
  554MOL0     C73007   5.302   9.719   3.943 -0.6024 -0.8688  0.3768
  554MOL0     C73008   5.255   9.859   3.963 -0.1212 -0.2967  0.6552
  554MOL0     C73009   5.165   9.909   3.849  0.2076 -0.0908 -0.4427
  554MOL0     C73010   5.127  10.057   3.867  0.2233 -0.1330  0.1546
  554MOL0     C73011   5.024  10.089   3.763  0.3649  0.1504  0.2358
  554MOL0     C73012   4.978  10.236   3.793 -0.8384 -0.2652  0.8507
  554MOL0     N73013   4.861  10.278   3.719 -0.2548 -0.1267 -0.3045
  554MOL0     C73014   4.745  10.202   3.703  0.8439 -0.4565  0.2704
  554MOL0     C73015   4.660  10.288   3.648 -0.1704 -1.1262  0.0269
  554MOL0     C73016   4.520  10.254   3.633 -0.8919 -0.2603  0.5451
  554MOL0     C73017   4.430  10.368   3.698 -0.3176 -0.4321  0.2806
  554MOL0     C73018   4.275  10.335   3.699 -0.3601  0.4878  0.1998
  554MOL0     C73019   4.194  10.437   3.779 -0.0525  0.4505 -0.0550
  554MOL0     O73020   4.049  10.418   3.769  0.0470 -0.2179 -0.6943
  554MOL0     C73021   3.970  10.414   3.660  0.9564 -0.4419 -0.4892
  554MOL0     C73022   3.987  10.466   3.540 -0.3301 -0.4722  0.1929
  554MOL0     C73023   3.883  10.456   3.439 -0.3227  1.4134  0.2466
  554MOL0     C73024   3.760  10.395   3.468 -0.1766  0.4068 -0.3136
  554MOL0     C73025   3.647  10.391   3.372  0.4455 -0.5248 -0.5141
  554MOL0     O73026   3.519  10.409   3.424 -0.0714 -0.1539 -0.6436
  554MOL0     C73027   3.414  10.435   3.345  0.1177 -1.3177 -0.3695
  554MOL0     C73028   3.429  10.516   3.229  0.7453  0.8103  0.3578
  554MOL0     C73029   3.321  10.518   3.142  0.2743  0.0821  0.1727
  554MOL0     C73030   3.197  10.450   3.166 -0.2121  0.2270  0.6551
  554MOL0     O73031   3.102  10.460   3.062 -0.4390  0.6440 -0.1159
  554MOL0     C73032   2.974  10.408   3.091  0.1008  0.1165  0.7443
  554MOL0     C73033   2.914  10.400   2.956 -1.3135  0.3165  0.3668
  554MOL0     C73034   2.772  10.347   2.957 -0.0847  0.7954  0.6789
  554MOL0     C73035   2.664  10.428   3.034  0.0267 -0.4812  0.8187
  554MOL0     C73036   2.670  10.571   2.984 -0.9609  0.7576 -0.3139
  554MOL0     C73037   2.657  10.588   2.827  0.5734  0.1670  0.3932
  554MOL0     C73038   2.624  10.730   2.784  0.6534 -0.2505 -0.6696
  554MOL0     C73039   2.643  10.756   2.634 -0.0097 -0.2741 -0.2631
  554MOL0    Cl73040   2.525  10.627   2.571  0.4922 -0.4421 -0.3899
  554MOL0     C73041   3.185  10.378   3.286 -0.6352 -0.8328  1.0039
  554MOL0     C73042   3.302  10.361   3.377 -0.2587 -0.0212  0.5835
  554MOL0     O73043   3.680  10.392   3.257  0.3547  0.2632  0.1664
  554MOL0     C73044   3.742  10.338   3.594  0.0478  0.0101  0.2801
  554MOL0     C73045   3.844  10.344   3.689  0.0495  0.8188  0.4042
  554MOL0     N73046   4.721  10.405   3.622  0.5982  0.5403  0.3597
  554MOL0     N73047   4.837  10.408   3.677  0.2944 -0.8112  0.4488
  554MOL0     C73048   5.817   9.547   3.632 -0.1307  0.0584  0.3492
  554MOL0     C73049   5.956   9.562   3.605  0.6142 -0.3602  0.8328
  554MOL0     C73050   6.361   9.712   3.667  0.1069  1.0334 -0.0823
  554MOL0     C73051   6.456   9.644   3.750  0.8195 -0.4366 -0.0927
  554MOL0     C73052   6.592   9.638   3.711  0.3395 -0.7214  0.3209
  554MOL0     C73053   6.631   9.685   3.588 -0.4227 -0.7232 -0.6162
  554MOL0     O73054   6.760   9.672   3.555 -0.2290  0.2658  0.4220
  554MOL0     C73055   6.788   9.656   3.410  0.3986 -0.5671 -0.2304
  554MOL0     C73056   6.932   9.618   3.404 -0.2350  0.5816  0.4756
  554MOL0     C73057   6.968   9.477   3.454 -0.9146  0.5255  0.2590
  554MOL0     C73058   7.111   9.450   3.492 -1.5090  0.5703  0.5072
  554MOL0     C73059   7.196   9.480   3.374 -0.3425 -0.1900 -0.2908
  554MOL0     C73060   7.255   9.518   3.280  0.7341 -0.4613 -0.0458
  554MOL0     C73061   6.540   9.753   3.505  0.2960 -0.8683  0.2490
  554MOL0     C73062   6.407   9.762   3.547 -0.1323 -1.3372  0.3989
  554MOL0     H73063   5.967   9.906   3.621 -2.2638  0.1999 -3.2794
  554MOL0     H73064   5.747   9.871   3.713  2.5610  1.4580  1.8059
  554MOL0     H73065   5.521   9.839   3.738 -0.1912 -0.8733 -0.4912
  554MOL0     H73066   5.578   9.731   3.875 -0.0959 -0.1574  0.1482
  554MOL0     H73067   5.375   9.573   3.814 -1.3038 -0.5875  0.6307
  554MOL0     H73068   5.304   9.706   3.721 -2.1177 -2.6804  0.2213
  554MOL0     H73069   5.373   9.709   4.025  0.5718  2.4611 -0.0881
  554MOL0     H73070   5.219   9.650   3.956 -1.3378  0.2587  1.8692
  554MOL0     H73071   5.203   9.865   4.059  0.5887 -0.7928  1.0844
  554MOL0     H73072   5.339   9.929   3.963 -0.2264 -0.1595  1.1587
  554MOL0     H73073   5.079   9.844   3.831  0.5773 -0.2276 -1.8620
  554MOL0     H73074   5.209   9.912   3.748 -1.7475  1.5989 -1.3124
  554MOL0     H73075   5.216  10.121   3.868 -0.1937  0.6234  3.6519
  554MOL0     H73076   5.073  10.067   3.962 -0.3939  0.3344 -0.2353
  554MOL0     H73077   5.066  10.081   3.662 -0.9300  0.6004 -0.3583
  554MOL0     H73078   4.947  10.012   3.769  1.5328 -1.1364 -0.6767
  554MOL0     H73079   5.063  10.300   3.769  2.2708 -4.5535 -0.7880
  554MOL0     H73080   4.960  10.230   3.901  0.6912 -0.4248  1.1151
  554MOL0     H73081   4.722  10.103   3.743  2.1448 -1.7958 -2.1054
  554MOL0     H73082   4.510  10.162   3.690  2.1427 -1.6846 -0.9739
  554MOL0     H73083   4.502  10.239   3.526 -2.2243  0.7077  0.6118
  554MOL0     H73084   4.461  10.456   3.641  2.7681 -2.0091 -0.7057
  554MOL0     H73085   4.459  10.383   3.802 -0.1980  0.2609  0.1478
  554MOL0     H73086   4.252  10.325   3.592 -0.1997 -2.7582  0.3769
  554MOL0     H73087   4.264  10.235   3.742  4.3109 -1.8487 -3.1279
  554MOL0     H73088   4.235  10.537   3.763  2.0719 -0.1037  1.3447
  554MOL0     H73089   4.201  10.404   3.883 -0.2591 -0.3370 -0.2861
  554MOL0     H73090   4.071  10.527   3.507 -1.0492 -0.8058 -2.5670
  554MOL0     H73091   3.906  10.506   3.345  0.5991  0.9966  0.2406
  554MOL0     H73092   3.513  10.572   3.189  1.0498 -0.3905 -0.7038
  554MOL0     H73093   3.337  10.570   3.048  3.3614  0.4813  0.8024
  554MOL0     H73094   2.923  10.479   3.157 -1.6887 -1.6414  1.3524
  554MOL0     H73095   2.987  10.308   3.135  3.4888 -0.3647 -1.0416
  554MOL0     H73096   2.990  10.341   2.904  1.5375 -0.8072  5.0820
  554MOL0     H73097   2.922  10.493   2.899  2.2058  0.2221  0.4529
  554MOL0     H73098   2.781  10.245   2.994 -4.3108 -0.3987 -1.0174
  554MOL0     H73099   2.729  10.334   2.857 -2.8929 -1.6080  2.0522
  554MOL0     H73100   2.571  10.373   3.019 -0.0955  0.4692 -2.8169
  554MOL0     H73101   2.689  10.422   3.141  1.0650  0.8460  0.6759
  554MOL0     H73102   2.765  10.618   3.006 -0.6819 -0.0288  0.2036
  554MOL0     H73103   2.585  10.620   3.033 -1.1483 -0.1466  0.2907
  554MOL0     H73104   2.567  10.532   2.799  0.0145  1.1299  0.2068
  554MOL0     H73105   2.737  10.538   2.773 -0.2416  0.0397 -0.7352
  554MOL0     H73106   2.521  10.757   2.809  0.9947 -0.4091  1.0777
  554MOL0     H73107   2.693  10.796   2.838  2.9153 -1.6117 -1.7376
  554MOL0     H73108   2.747  10.745   2.601  0.7045  1.3168  1.3590
  554MOL0     H73109   2.614  10.856   2.602 -3.1338 -1.0088 -0.0696
  554MOL0     H73110   3.097  10.320   3.311 -0.2531 -3.0240 -2.1644
  554MOL0     H73111   3.294  10.294   3.462 -2.8049 -2.6301 -1.4916
  554MOL0     H73112   3.644  10.299   3.619 -1.3232  2.7934 -0.4112
  554MOL0     H73113   3.837  10.302   3.788  1.7521  0.9773  0.6242
  554MOL0     H73114   5.780   9.445   3.629  1.2239 -0.4557 -2.1437
  554MOL0     H73115   6.026   9.485   3.573  2.2067  0.9921  0.9483
  554MOL0     H73116   6.418   9.592   3.836 -1.6176  2.5167  0.7776
  554MOL0     H73117   6.676   9.590   3.759  1.1129 -0.8465 -1.1220
  554MOL0     H73118   6.768   9.753   3.364  0.8575 -1.4879 -2.5074
  554MOL0     H73119   6.722   9.587   3.355 -0.7858  0.2573  0.1077
  554MOL0     H73120   6.964   9.637   3.301 -1.2694  1.0984  0.2334
  554MOL0     H73121   6.994   9.685   3.464 -2.4883  0.2737  3.3786
  554MOL0     H73122   6.944   9.419   3.365 -4.2354  1.8526  0.1592
  554MOL0     H73123   6.902   9.441   3.533 -0.9305  2.5098  1.2223
  554MOL0     H73124   7.140   9.524   3.567  0.3360  2.0735 -1.5554
  554MOL0     H73125   7.136   9.349   3.525  0.0013  0.6975 -0.2037
  554MOL0     H73126   7.295   9.550   3.186 -0.1788 -1.6421 -0.8729
  554MOL0     H73127   6.577   9.799   3.414  2.9953 -1.9427  0.7021
  554MOL0     H73128   6.333   9.815   3.487 -2.2760 -3.3844  1.0423
  555MOL0     O73129   4.283   1.406   5.711 -0.0253  0.6874  0.7050
  555MOL0     C73130   4.225   1.508   5.682 -0.0846 -1.1357 -0.5975
  555MOL0     O73131   4.272   1.643   5.693  0.3615  0.3683  0.1389
  555MOL0     C73132   4.374   1.680   5.786 -0.1472  0.5519  1.0188
  555MOL0     C73133   4.413   1.818   5.778 -0.6220  0.0781  0.1794
  555MOL0     C73134   4.510   1.868   5.865  0.0543  0.1377 -0.4320
  555MOL0     C73135   4.573   1.784   5.950 -0.7248 -0.9638 -0.1447
  555MOL0     O73136   4.672   1.844   6.023 -0.1089 -0.1881  0.0596
  555MOL0     C73137   4.786   1.770   6.076 -0.2663 -0.0287  0.2216
  555MOL0     C73138   4.877   1.889   6.123 -0.5586 -0.7575 -0.4454
  555MOL0     C73139   5.008   1.831   6.177 -0.9221  0.1246  0.5328
  555MOL0     C73140   5.112   1.944   6.214  1.5692 -0.4567  0.7448
  555MOL0     C73141   5.234   1.903   6.288 -0.1748 -0.4877  0.7569
  555MOL0     C73142   5.342   2.007   6.302 -0.3673 -0.2653 -0.5398
  555MOL0     C73143   5.457   1.972   6.405  0.3797 -0.5176 -0.4211
  555MOL0     C73144   5.528   1.838   6.381 -0.4385  0.6735 -0.4129
  555MOL0     N73145   5.616   1.801   6.492 -0.8161 -0.8671  0.6146
  555MOL0     C73146   5.582   1.816   6.624 -1.0302  1.3072 -0.4590
  555MOL0     C73147   5.706   1.816   6.689 -0.3847 -0.8038  0.3808
  555MOL0     C73148   5.735   1.842   6.835 -1.1211 -0.2515  0.4706
  555MOL0     C73149   5.834   1.953   6.859 -0.0526 -0.7772  0.6604
  555MOL0     C73150   5.844   1.986   7.008 -0.2333  0.4475 -0.5794
  555MOL0     C73151   5.836   1.875   7.111 -0.0791 -0.5674  0.3975
  555MOL0     O73152   5.793   1.926   7.239  0.0262 -0.1925 -0.0830
  555MOL0     C73153   5.660   1.966   7.255  0.2711 -0.4104  0.0913
  555MOL0     C73154   5.545   1.901   7.201  0.8180 -0.8658 -0.2338
  555MOL0     C73155   5.409   1.947   7.231 -0.4963 -0.0635  1.0812
  555MOL0     C73156   5.386   2.048   7.323  0.0245  0.4354  0.8432
  555MOL0     C73157   5.256   2.073   7.385  0.6603  0.2103  0.0601
  555MOL0     O73158   5.151   2.017   7.320 -0.0800  0.8744 -0.0599
  555MOL0     C73159   5.022   2.020   7.378 -0.3143 -0.6513  0.8242
  555MOL0     C73160   4.993   1.946   7.489  0.2996  0.4232  0.3366
  555MOL0     C73161   4.859   1.946   7.542  0.0432  0.1024  0.3712
  555MOL0     C73162   4.767   2.034   7.484 -0.2821  0.4920  0.2376
  555MOL0     O73163   4.643   2.038   7.532 -0.1624 -0.0622 -0.1742
  555MOL0     C73164   4.535   2.067   7.435  0.4450  0.3322 -0.2610
  555MOL0     C73165   4.400   1.994   7.494 -1.0291 -1.0731  0.8345
  555MOL0     C73166   4.306   1.954   7.378  0.4518  0.4022 -0.6200
  555MOL0     C73167   4.179   1.882   7.423  0.5193  0.0313 -0.0544
  555MOL0     C73168   4.119   1.803   7.303 -0.2395 -0.3187 -0.5472
  555MOL0     C73169   3.980   1.749   7.348 -0.1947 -0.1722  0.1240
  555MOL0     C73170   3.869   1.855   7.309  0.0630  0.8624 -0.2062
  555MOL0     C73171   3.732   1.778   7.320  0.7757 -0.0049  0.4783
  555MOL0    Cl73172   3.673   1.824   7.481  0.0913  0.0079 -0.3497
  555MOL0     C73173   4.805   2.122   7.381 -0.7045 -0.1342 -0.9758
  555MOL0     C73174   4.932   2.113   7.328  0.3061  0.4259  0.0768
  555MOL0     O73175   5.249   2.122   7.495 -0.0314  0.4380 -0.3165
  555MOL0     C73176   5.500   2.111   7.378 -0.3547 -1.0259 -0.5423
  555MOL0     C73177   5.635   2.067   7.344  0.1054 -0.2774 -1.4120
  555MOL0     N73178   5.808   1.793   6.594 -0.1070  0.0450  0.3488
  555MOL0     N73179   5.752   1.766   6.480  0.4997  0.5448 -0.0395
  555MOL0     C73180   4.539   1.650   5.963  0.1405  0.0749  0.4664
  555MOL0     C73181   4.438   1.595   5.881  0.3960 -0.3834  0.0165
  555MOL0     C73182   4.091   1.485   5.638  0.2042 -0.0990  0.6810
  555MOL0     C73183   4.001   1.594   5.635  0.2411 -0.0130  0.0086
  555MOL0     C73184   3.869   1.566   5.603  1.0123  0.9609 -0.4068
  555MOL0     C73185   3.828   1.434   5.561  0.2593 -0.2822  0.6317
  555MOL0     O73186   3.692   1.421   5.541 -0.1376 -0.1391  0.4122
  555MOL0     C73187   3.627   1.327   5.443 -0.3950 -0.1224 -0.8931
  555MOL0     C73188   3.544   1.207   5.507 -0.5952  0.6144  1.0468
  555MOL0     C73189   3.496   1.132   5.375 -0.1986  0.4355 -0.1583
  555MOL0     C73190   3.363   1.054   5.402 -0.1913  0.0264 -0.7689
  555MOL0     C73191   3.385   0.955   5.504 -1.0139  0.0569 -0.3144
  555MOL0     C73192   3.417   0.881   5.590 -0.7166  0.3776 -0.1676
  555MOL0     C73193   3.920   1.330   5.561 -0.1560  0.9985  0.5640
  555MOL0     C73194   4.052   1.356   5.594  0.1157 -0.1597 -0.5743
  555MOL0     H73195   4.370   1.894   5.713  0.6749 -0.3212 -1.2202
  555MOL0     H73196   4.544   1.971   5.863  2.4050 -0.5545 -0.1397
  555MOL0     H73197   4.839   1.722   5.994 -0.6149 -1.0223  0.5637
  555MOL0     H73198   4.763   1.707   6.162  1.9167  0.3591  1.1394
  555MOL0     H73199   4.843   1.945   6.210 -1.0745 -2.0074  0.1755
  555MOL0     H73200   4.905   1.957   6.042  0.6862  0.9330  1.3328
  555MOL0     H73201   5.053   1.770   6.097  0.5103  1.8054 -0.0137
  555MOL0     H73202   4.988   1.768   6.264  2.0606  0.6201  1.7264
  555MOL0     H73203   5.146   1.999   6.126  1.9244 -1.4923  0.2163
  555MOL0     H73204   5.053   2.019   6.268  1.7173  0.8203 -0.8043
  555MOL0     H73205   5.290   1.820   6.243  0.8845 -0.6238  2.2523
  555MOL0     H73206   5.219   1.872   6.391  3.2333 -0.4528  1.4016
  555MOL0     H73207   5.288   2.098   6.330 -2.0608 -1.3728 -0.1115
  555MOL0     H73208   5.395   2.021   6.207  1.4789 -2.0810  0.1378
  555MOL0     H73209   5.537   2.046   6.414 -0.0639 -0.2770  3.6739
  555MOL0     H73210   5.411   1.971   6.505  1.1050 -1.7613 -0.0711
  555MOL0     H73211   5.593   1.841   6.293  1.5426  0.0979  0.9574
  555MOL0     H73212   5.463   1.751   6.370  1.5315 -0.8508 -0.4356
  555MOL0     H73213   5.481   1.829   6.664 -2.9623 -2.2178 -3.5633
  555MOL0     H73214   5.766   1.741   6.863  2.4103  0.6039  0.1274
  555MOL0     H73215   5.643   1.862   6.891 -0.8816  2.1300  0.1345
  555MOL0     H73216   5.807   2.042   6.802  1.0333  0.3133  1.7962
  555MOL0     H73217   5.933   1.928   6.821 -0.4134  1.3141 -1.9631
  555MOL0     H73218   5.933   2.035   7.047  0.8990 -1.9126 -0.0710
  555MOL0     H73219   5.759   2.052   7.032 -0.1528  0.5855 -0.6697
  555MOL0     H73220   5.935   1.830   7.122  1.1831  1.2633 -2.3340
  555MOL0     H73221   5.764   1.797   7.082 -1.0769  1.1500 -2.1807
  555MOL0     H73222   5.550   1.818   7.131 -1.8360  1.2674 -3.2261
  555MOL0     H73223   5.325   1.893   7.190  1.5170 -2.8941  0.3617
  555MOL0     H73224   5.063   1.873   7.527 -0.6535 -2.2123 -2.5050
  555MOL0     H73225   4.819   1.882   7.620 -2.2447  1.2332  0.2238
  555MOL0     H73226   4.566   2.029   7.337  0.6248  2.2533 -0.9796
  555MOL0     H73227   4.520   2.175   7.423  1.7280  0.6809  1.0389
  555MOL0     H73228   4.363   2.046   7.583  1.6693  2.7433 -0.0567
  555MOL0     H73229   4.441   1.904   7.542 -1.1178 -1.6616 -0.1633
  555MOL0     H73230   4.354   1.885   7.307 -0.6383 -2.5685  1.3367
  555MOL0     H73231   4.264   2.043   7.330 -0.4635 -0.8346 -2.2187
  555MOL0     H73232   4.206   1.829   7.514 -2.0766  0.4323  1.0399
  555MOL0     H73233   4.106   1.960   7.447 -1.4941 -1.2727 -1.6741
  555MOL0     H73234   4.193   1.726   7.280  3.5896  2.2905  1.9535
  555MOL0     H73235   4.113   1.864   7.213  1.7234  0.7925  0.0165
  555MOL0     H73236   3.976   1.729   7.455 -0.2578  1.7795  0.5185
  555MOL0     H73237   3.965   1.652   7.299  2.9173 -0.7131  0.0473
  555MOL0     H73238   3.868   1.946   7.370 -0.4270  3.4070 -3.6827
  555MOL0     H73239   3.879   1.899   7.209 -1.6525  2.3207  0.2179
  555MOL0     H73240   3.737   1.669   7.314 -1.5161 -0.2287  1.5613
  555MOL0     H73241   3.656   1.832   7.263 -2.3060 -2.4584  1.9902
  555MOL0     H73242   4.731   2.185   7.332 -1.0274 -0.5165 -0.9865
  555MOL0     H73243   4.955   2.185   7.250  1.0332  0.6893  0.5144
  555MOL0     H73244   5.493   2.194   7.448 -0.9116 -1.2318 -0.3438
  555MOL0     H73245   5.725   2.113   7.384  0.0744 -0.5062 -1.0751
  555MOL0     H73246   4.580   1.579   6.034 -1.5910 -1.0691  0.3773
  555MOL0     H73247   4.411   1.490   5.887 -1.7289 -0.1076 -2.6167
  555MOL0     H73248   4.033   1.696   5.657  3.3071 -1.5025  3.6229
  555MOL0     H73249   3.788   1.639   5.605 -0.4971 -0.5334 -2.2607
  555MOL0     H73250   3.706   1.292   5.375  0.7172 -0.7033  0.6418
  555MOL0     H73251   3.553   1.384   5.387 -3.6104 -1.2061  1.9423
  555MOL0     H73252   3.598   1.138   5.573  0.3580 -0.1145 -0.4388
  555MOL0     H73253   3.460   1.249   5.564 -0.8650  0.8449  0.4837
  555MOL0     H73254   3.573   1.059   5.347 -2.0566 -2.5855  1.9727
  555MOL0     H73255   3.478   1.201   5.292  1.3737  1.5352  0.3668
  555MOL0     H73256   3.286   1.129   5.425  0.7519  0.7136  0.3115
  555MOL0     H73257   3.325   1.005   5.312  2.4662 -1.6825 -1.0736
  555MOL0     H73258   3.432   0.812   5.671  0.2376 -1.1033 -1.5367
  555MOL0     H73259   3.896   1.227   5.539 -4.3928  1.1324  3.3671
  555MOL0     H73260   4.116   1.271   5.577  0.5557  0.3217 -1.4133
  556MOL0     O73261   2.532   3.055   6.947  0.0455 -0.3683 -0.0995
  556MOL0     C73262   2.544   3.140   7.041  0.1995  0.3506  1.5469
  556MOL0     O73263   2.450   3.204   7.100  0.2835 -0.4658 -0.2763
  556MOL0     C73264   2.317   3.176   7.069 -0.2933  0.3937  0.1967
  556MOL0     C73265   2.272   3.049   7.045  0.1652 -0.3267  0.3374
  556MOL0     C73266   2.141   3.032   6.996 -0.4377 -0.0001 -0.0272
  556MOL0     C73267   2.066   3.148   6.946 -0.3828  0.1252 -0.4923
  556MOL0     O73268   1.951   3.151   6.872  0.0838  0.5559 -0.6423
  556MOL0     C73269   1.861   3.044   6.899 -0.1402  0.3111 -0.5034
  556MOL0     C73270   1.736   3.112   6.950 -0.1705  0.5970 -0.0776
  556MOL0     C73271   1.628   3.001   6.989  0.6113 -0.0639  0.5364
  556MOL0     C73272   1.511   3.066   7.069 -0.0452 -0.4772  0.3083
  556MOL0     C73273   1.389   2.973   7.089 -0.0977  0.0519 -0.1779
  556MOL0     C73274   1.304   3.018   7.217 -0.6469  0.0468  0.3509
  556MOL0     C73275   1.191   2.924   7.239  0.1085  0.5150 -0.1225
  556MOL0     C73276   1.108   2.969   7.369 -0.0191  0.2848  0.8826
  556MOL0     N73277   0.971   2.897   7.367  0.0633  0.2498  0.5994
  556MOL0     C73278   0.948   2.760   7.382  0.1161  0.2996 -0.6797
  556MOL0     C73279   0.817   2.739   7.386  0.8566  0.0847  0.2412
  556MOL0     C73280   0.741   2.611   7.401 -0.9532  0.6535  0.0239
  556MOL0     C73281   0.632   2.610   7.508 -0.0029 -0.0645 -0.8720
  556MOL0     C73282   0.585   2.468   7.544  0.2213  0.0649 -0.7381
  556MOL0     C73283   0.540   2.471   7.689 -0.7196 -0.7095 -0.3893
  556MOL0     O73284   0.521   2.335   7.735  0.3899  0.3799 -0.4467
  556MOL0     C73285   0.392   2.289   7.736 -0.2125  0.8004 -0.2242
  556MOL0     C73286   0.288   2.359   7.681 -0.0596  0.2982 -0.3261
  556MOL0     C73287   0.160   2.305   7.689  0.1359  0.2190 -0.7578
  556MOL0     C73288   0.135   2.179   7.747  0.6778  0.4122 -0.3571
  556MOL0     C73289   0.013   2.111   7.740  0.5244 -0.3948 -0.0879
  556MOL0     O73290  -0.088   2.182   7.700 -0.5803 -0.3426  0.9142
  556MOL0     C73291  -0.214   2.131   7.690 -1.4789 -0.1864  0.2314
  556MOL0     C73292  -0.305   2.213   7.743 -0.3877 -0.6820  0.1143
  556MOL0     C73293  -0.444   2.171   7.753 -0.5803 -0.7975  0.3045
  556MOL0     C73294  -0.479   2.049   7.697  0.1752  0.6635  0.0603
  556MOL0     O73295  -0.606   1.998   7.703 -0.6808  0.1733 -0.8487
  556MOL0     C73296  -0.639   1.968   7.841 -0.4786 -0.1337 -0.1788
  556MOL0     C73297  -0.767   1.889   7.853  0.5688  0.3174 -0.7058
  556MOL0     C73298  -0.767   1.803   7.989  0.3841 -0.0496 -0.9401
  556MOL0     C73299  -0.778   1.887   8.117  0.1989  0.0519 -0.0003
  556MOL0     C73300  -0.922   1.940   8.143 -0.4640 -0.0594 -0.3071
  556MOL0     C73301  -1.034   1.844   8.166 -0.9005  0.3444  0.0750
  556MOL0     C73302  -1.168   1.918   8.204  0.5769 -0.3440  0.1847
  556MOL0     C73303  -1.302   1.835   8.194  0.1856 -0.5941 -0.0460
  556MOL0    Cl73304  -1.335   1.831   8.028 -0.3617 -0.5119 -0.0810
  556MOL0     C73305  -0.387   1.971   7.647 -0.5451 -0.1678 -0.2331
  556MOL0     C73306  -0.247   2.010   7.641 -0.1600 -0.3095 -0.2163
  556MOL0     O73307   0.008   1.993   7.774  0.2639  0.0533 -0.2086
  556MOL0     C73308   0.246   2.112   7.808 -0.8011  0.6003  0.4730
  556MOL0     C73309   0.364   2.177   7.812 -0.5592  0.1743  0.0839
  556MOL0     N73310   0.759   2.867   7.379  0.0796  0.4367 -0.0189
  556MOL0     N73311   0.849   2.958   7.369  0.2195 -0.7635 -0.7070
  556MOL0     C73312   2.120   3.275   6.967  0.0463 -0.4572  0.9016
  556MOL0     C73313   2.239   3.280   7.043 -0.2577 -0.3914 -0.1484
  556MOL0     C73314   2.678   3.173   7.090 -0.4961  0.4946  0.5992
  556MOL0     C73315   2.709   3.263   7.191 -0.1180 -0.5327 -0.1078
  556MOL0     C73316   2.834   3.282   7.241  1.0603  1.3598 -1.2931
  556MOL0     C73317   2.944   3.204   7.187 -0.0083 -0.1634 -0.3202
  556MOL0     O73318   3.066   3.218   7.254 -0.3459  0.0794 -0.5004
  556MOL0     C73319   3.092   3.126   7.360 -0.3085 -0.1574  0.7270
  556MOL0     C73320   3.243   3.083   7.380  0.3653 -0.2863 -0.4452
  556MOL0     C73321   3.323   3.198   7.450 -0.3455 -0.2578  0.3256
  556MOL0     C73322   3.290   3.204   7.602 -0.1131 -0.8364  0.0793
  556MOL0     C73323   3.364   3.313   7.676 -0.1156 -0.0209  0.0581
  556MOL0     C73324   3.418   3.417   7.709  0.6849 -0.3318 -0.1354
  556MOL0     C73325   2.917   3.115   7.080  0.2034  0.0419 -0.8213
  556MOL0     C73326   2.788   3.104   7.029  0.7666  0.1994 -0.9988
  556MOL0     H73327   2.338   2.963   7.051  1.6242  0.2530 -3.7939
  556MOL0     H73328   2.094   2.940   6.964 -2.5655  1.5492 -1.6479
  556MOL0     H73329   1.904   2.972   6.969 -0.6919 -2.2560 -2.6407
  556MOL0     H73330   1.827   2.985   6.813 -1.0521  1.7140 -1.1391
  556MOL0     H73331   1.686   3.168   6.871 -0.9694 -2.1688 -1.6905
  556MOL0     H73332   1.753   3.174   7.038  0.1673 -0.9721  1.0179
  556MOL0     H73333   1.676   2.924   7.050 -1.9889 -1.5967  0.7874
  556MOL0     H73334   1.589   2.959   6.896 -0.2340  2.8732 -0.5507
  556MOL0     H73335   1.550   3.092   7.168  1.7931  0.0381 -0.5116
  556MOL0     H73336   1.483   3.158   7.018 -0.7701 -1.8000 -1.7992
  556MOL0     H73337   1.433   2.878   7.122  0.3966 -0.1053 -1.2464
  556MOL0     H73338   1.325   2.960   7.001  0.9253 -0.8020 -0.8300
  556MOL0     H73339   1.270   3.122   7.204 -2.8023 -0.4367  1.5712
  556MOL0     H73340   1.372   3.015   7.303  0.2835 -1.3251 -0.3933
  556MOL0     H73341   1.125   2.928   7.152 -0.7835  0.6478  0.5403
  556MOL0     H73342   1.229   2.823   7.252 -0.7253  0.0409 -1.1758
  556MOL0     H73343   1.093   3.077   7.367  2.1378  0.6064  0.0132
  556MOL0     H73344   1.168   2.949   7.459 -2.3937  1.8775  2.9756
  556MOL0     H73345   1.027   2.689   7.408  2.2885  0.9688 -4.6152
  556MOL0     H73346   0.819   2.534   7.414  0.8349  2.3251 -0.2908
  556MOL0     H73347   0.698   2.593   7.302  2.4460 -0.4367 -1.4274
  556MOL0     H73348   0.544   2.662   7.471  1.0802  1.2942 -1.6671
  556MOL0     H73349   0.683   2.664   7.589  1.9211 -0.3975 -1.7909
  556MOL0     H73350   0.507   2.433   7.476  1.0580  0.8662 -2.1603
  556MOL0     H73351   0.664   2.394   7.531 -0.9081 -1.3412  0.1194
  556MOL0     H73352   0.457   2.541   7.703  0.5383  0.4992  1.4625
  556MOL0     H73353   0.627   2.512   7.741 -0.9806 -0.7674  0.0964
  556MOL0     H73354   0.302   2.451   7.625 -0.1135 -1.1071 -2.8082
  556MOL0     H73355   0.082   2.358   7.635 -1.7807  0.2116  1.8202
  556MOL0     H73356  -0.258   2.302   7.785 -1.1262  1.5905 -3.3593
  556MOL0     H73357  -0.517   2.230   7.807 -1.6226 -2.4737  0.7722
  556MOL0     H73358  -0.659   2.060   7.898  2.1004 -2.4216  5.1757
  556MOL0     H73359  -0.555   1.915   7.887 -1.5218  0.5267  2.7282
  556MOL0     H73360  -0.775   1.827   7.764 -2.0701  0.9986 -1.0137
  556MOL0     H73361  -0.855   1.954   7.853  0.6913  0.5095 -2.1316
  556MOL0     H73362  -0.672   1.749   7.985  0.5596  0.2511 -0.8274
  556MOL0     H73363  -0.845   1.727   7.992 -0.1059  0.4395  2.5184
  556MOL0     H73364  -0.750   1.831   8.207 -0.7722 -1.0210 -0.3279
  556MOL0     H73365  -0.703   1.966   8.109  3.1830 -2.5432  0.3650
  556MOL0     H73366  -0.966   1.994   8.059 -1.0924 -0.6480 -0.3623
  556MOL0     H73367  -0.923   2.009   8.228  3.8214 -0.9921  0.7429
  556MOL0     H73368  -0.994   1.774   8.240  0.0113 -1.2515 -1.8492
  556MOL0     H73369  -1.050   1.782   8.078 -0.2552 -3.1780  2.2550
  556MOL0     H73370  -1.161   1.943   8.310 -1.5799  0.3037  0.2303
  556MOL0     H73371  -1.177   2.018   8.159 -1.5011 -0.7039 -0.3172
  556MOL0     H73372  -1.380   1.893   8.243  0.3302 -0.0703 -0.4335
  556MOL0     H73373  -1.289   1.734   8.235 -2.7885 -0.6480  1.0232
  556MOL0     H73374  -0.406   1.870   7.611  0.7041 -1.2700  1.9848
  556MOL0     H73375  -0.159   1.960   7.600  1.1011  0.1551  1.7542
  556MOL0     H73376   0.247   2.017   7.861  3.1940  1.1168  1.6241
  556MOL0     H73377   0.449   2.127   7.857 -0.1831 -0.1170 -0.9187
  556MOL0     H73378   2.058   3.361   6.943 -0.9630 -1.4491 -0.1810
  556MOL0     H73379   2.249   3.376   7.092 -3.0068 -1.6474  3.2725
  556MOL0     H73380   2.624   3.315   7.233 -0.2720 -0.4708 -0.4922
  556MOL0     H73381   2.850   3.336   7.333  0.8739 -1.2276  0.3427
  556MOL0     H73382   3.028   3.041   7.337 -2.8775  1.2843  2.0856
  556MOL0     H73383   3.043   3.163   7.450 -2.7394  0.3016 -0.6910
  556MOL0     H73384   3.239   2.997   7.446  0.4085 -0.4520 -0.6562
  556MOL0     H73385   3.289   3.052   7.285  2.7430 -1.8312  1.0944
  556MOL0     H73386   3.304   3.298   7.408 -3.3653 -0.2586  1.4184
  556MOL0     H73387   3.431   3.184   7.452 -0.1868  0.9332  1.7989
  556MOL0     H73388   3.184   3.222   7.624  0.2040 -1.7054  2.7096
  556MOL0     H73389   3.314   3.116   7.663  0.9399  1.6909  3.6542
  556MOL0     H73390   3.486   3.499   7.719 -0.6065  0.8088 -0.3509
  556MOL0     H73391   3.001   3.061   7.039  3.2833  2.3295  1.9245
  556MOL0     H73392   2.769   3.039   6.944  1.0238 -2.3635  0.7740
  557MOL0     O73393   9.789  10.694   5.802 -0.0922  0.6222  0.0382
  557MOL0     C73394   9.765  10.576   5.791  0.7640  0.4542  0.5717
  557MOL0     O73395   9.654  10.517   5.839 -0.3417  0.9035  0.5675
  557MOL0     C73396   9.543  10.581   5.878  0.5213 -0.4215  0.2063
  557MOL0     C73397   9.439  10.492   5.881 -0.6479  0.2225 -0.5830
  557MOL0     C73398   9.313  10.539   5.913 -0.4120 -0.5354  0.0191
  557MOL0     C73399   9.285  10.670   5.962 -0.3323 -0.3610  0.8749
  557MOL0     O73400   9.162  10.704   6.006  0.0544 -0.5929  0.0404
  557MOL0     C73401   9.121  10.836   5.982 -0.2308 -0.0194 -0.1681
  557MOL0     C73402   8.995  10.864   6.064  0.6371 -0.3430 -0.4527
  557MOL0     C73403   8.956  11.015   6.055  0.1075 -0.3729  0.2264
  557MOL0     C73404   8.950  11.079   5.911  0.1706 -0.3407 -0.4284
  557MOL0     C73405   8.884  11.218   5.923 -0.2672 -0.1970 -0.3939
  557MOL0     C73406   8.881  11.302   5.788  0.1733 -0.1185  0.5071
  557MOL0     C73407   8.836  11.447   5.806 -0.1430 -0.1675 -1.2186
  557MOL0     C73408   8.851  11.514   5.669  0.1770 -0.3889  0.6546
  557MOL0     N73409   8.824  11.655   5.687 -0.1679 -0.7208 -0.6882
  557MOL0     C73410   8.708  11.712   5.736  1.0001 -0.0027 -0.3232
  557MOL0     C73411   8.736  11.849   5.727  0.0580  0.5885  0.6114
  557MOL0     C73412   8.647  11.962   5.752 -0.1346  0.0034 -0.4385
  557MOL0     C73413   8.553  11.994   5.624  1.3740  0.0591 -0.6739
  557MOL0     C73414   8.454  11.877   5.616 -0.2543  0.0661 -0.1173
  557MOL0     C73415   8.344  11.907   5.516  0.0239 -0.2622 -0.3692
  557MOL0     O73416   8.296  11.788   5.465  0.0258  0.0356  0.2719
  557MOL0     C73417   8.191  11.795   5.382 -0.7967 -0.2938  0.7121
  557MOL0     C73418   8.088  11.884   5.380  0.5760 -0.6053 -0.2290
  557MOL0     C73419   7.969  11.865   5.309 -0.3155 -0.0806 -0.6399
  557MOL0     C73420   7.965  11.762   5.212 -0.4583  1.0471  0.5363
  557MOL0     C73421   7.843  11.749   5.117  0.5675 -0.8321  0.1992
  557MOL0     O73422   7.754  11.856   5.131  0.5640 -0.6993  0.0905
  557MOL0     C73423   7.621  11.852   5.091 -0.5676  0.3714  0.0105
  557MOL0     C73424   7.539  11.737   5.100  0.0337 -0.2667 -0.0847
  557MOL0     C73425   7.413  11.730   5.039  0.3134  0.5175 -0.0286
  557MOL0     C73426   7.365  11.847   4.980  0.5547 -0.7888  0.0010
  557MOL0     O73427   7.233  11.852   4.937 -0.2523  1.1383  0.5931
  557MOL0     C73428   7.172  11.746   4.860 -0.4251 -0.9498 -0.5206
  557MOL0     C73429   7.155  11.784   4.717 -0.4148  0.3173  0.1248
  557MOL0     C73430   7.284  11.778   4.640 -0.1185  0.0039  0.5142
  557MOL0     C73431   7.253  11.789   4.491 -0.3410  0.2653 -0.3564
  557MOL0     C73432   7.339  11.705   4.409 -0.3834 -0.0458 -0.2441
  557MOL0     C73433   7.283  11.687   4.267 -0.5765 -0.1473  0.0826
  557MOL0     C73434   7.378  11.622   4.168 -0.5026  0.0846  0.4941
  557MOL0     C73435   7.488  11.711   4.109  0.2948 -0.2220  0.4178
  557MOL0    Cl73436   7.569  11.635   3.969 -0.0838  0.0411  0.4494
  557MOL0     C73437   7.441  11.964   4.976 -0.4743 -0.4124  0.4145
  557MOL0     C73438   7.567  11.966   5.034  0.6349 -0.2996 -0.3193
  557MOL0     O73439   7.818  11.641   5.071  0.1468  0.8863  0.0697
  557MOL0     C73440   8.079  11.688   5.195  0.0909 -0.1371  0.2266
  557MOL0     C73441   8.191  11.703   5.279  0.7353 -0.6343 -0.4344
  557MOL0     N73442   8.865  11.865   5.684 -0.7461 -0.1178  0.0547
  557MOL0     N73443   8.920  11.754   5.688  0.6872 -0.5698 -0.1374
  557MOL0     C73444   9.397  10.752   5.974 -0.4378  0.1864  0.0376
  557MOL0     C73445   9.531  10.708   5.934  0.3665 -0.2501  0.2951
  557MOL0     C73446   9.862  10.487   5.717 -0.5474  0.4128 -1.3816
  557MOL0     C73447   9.820  10.366   5.660 -0.5123 -0.5566  0.2421
  557MOL0     C73448   9.921  10.277   5.616  0.3799  0.2250  0.2032
  557MOL0     C73449  10.059  10.308   5.610 -0.2437  1.0113  0.4676
  557MOL0     O73450  10.147  10.227   5.543  0.0051 -0.5845 -0.1713
  557MOL0     C73451  10.287  10.263   5.529  0.0501  0.8093 -0.8818
  557MOL0     C73452  10.341  10.171   5.419 -0.1151  0.1372 -0.4651
  557MOL0     C73453  10.496  10.179   5.420 -0.4191  1.1762 -0.2171
  557MOL0     C73454  10.551  10.042   5.352 -0.6764  0.6083 -0.1354
  557MOL0     C73455  10.695  10.034   5.384  0.1475 -0.1155 -0.0632
  557MOL0     C73456  10.807  10.020   5.409 -1.1405 -0.5060 -0.3104
  557MOL0     C73457  10.095  10.441   5.654  0.7957  0.0834 -0.0407
  557MOL0     C73458   9.996  10.519   5.713 -0.8328  0.4300  0.6054
  557MOL0     H73459   9.450  10.391   5.843  0.5029  0.1281 -0.0324
  557MOL0     H73460   9.228  10.472   5.908 -0.8088 -0.0173 -0.2346
  557MOL0     H73461   9.095  10.861   5.879  0.7827  0.9645 -0.2035
  557MOL0     H73462   9.191  10.908   6.025 -1.9329  1.9219 -0.5217
  557MOL0     H73463   9.006  10.826   6.166  0.0722 -0.7115 -0.5228
  557MOL0     H73464   8.911  10.805   6.026  1.9998 -1.8935 -1.1738
  557MOL0     H73465   9.020  11.079   6.116 -2.7307  3.1760 -0.1663
  557MOL0     H73466   8.855  11.040   6.091 -0.3844  1.7473 -2.3006
  557MOL0     H73467   9.055  11.093   5.886  0.5612 -1.0697  0.7364
  557MOL0     H73468   8.896  11.014   5.841 -1.3051  1.2004 -0.7797
  557MOL0     H73469   8.937  11.275   6.000 -0.0383 -0.3847 -0.4101
  557MOL0     H73470   8.780  11.193   5.947 -1.4275  3.0737 -1.5179
  557MOL0     H73471   8.819  11.241   5.722  0.8319 -0.8641  0.5641
  557MOL0     H73472   8.981  11.310   5.746 -0.0031  3.2751  0.4289
  557MOL0     H73473   8.731  11.459   5.832 -0.5454 -1.8571 -1.9149
  557MOL0     H73474   8.900  11.495   5.881  0.8438 -1.6422 -1.0625
  557MOL0     H73475   8.781  11.481   5.592  0.9584  3.5640 -2.0355
  557MOL0     H73476   8.953  11.503   5.631  1.0111  2.2064  1.8838
  557MOL0     H73477   8.610  11.670   5.759  2.1213 -1.8701  1.3180
  557MOL0     H73478   8.704  12.054   5.767  0.8497 -0.8827  1.6745
  557MOL0     H73479   8.598  11.926   5.844 -1.3419  0.0125 -1.0611
  557MOL0     H73480   8.614  11.996   5.534  1.5263 -0.3666 -0.5831
  557MOL0     H73481   8.489  12.083   5.630 -2.6539 -2.5187 -1.4523
  557MOL0     H73482   8.502  11.780   5.599  0.3255 -0.3327  3.1233
  557MOL0     H73483   8.408  11.866   5.715  0.8973  1.6973  0.6536
  557MOL0     H73484   8.390  11.973   5.442  1.4767 -3.2067 -2.2895
  557MOL0     H73485   8.267  11.965   5.568  0.6533 -0.6859  1.0723
  557MOL0     H73486   8.090  11.969   5.448 -1.1768 -0.2606 -0.5488
  557MOL0     H73487   7.878  11.919   5.332  0.1160 -0.4418  2.3838
  557MOL0     H73488   7.574  11.652   5.158 -0.4646 -0.3222  0.1368
  557MOL0     H73489   7.341  11.650   5.047 -0.1827  0.9109 -0.4891
  557MOL0     H73490   7.073  11.737   4.906 -0.7381  1.4355 -0.6061
  557MOL0     H73491   7.240  11.661   4.866  3.9340  2.1364 -1.4405
  557MOL0     H73492   7.107  11.882   4.713 -0.7736  0.1133 -0.8793
  557MOL0     H73493   7.095  11.703   4.675  0.3499  0.6521 -1.7107
  557MOL0     H73494   7.345  11.690   4.662 -0.2350 -0.0025  0.8122
  557MOL0     H73495   7.349  11.860   4.674  0.4346 -0.5051  0.7140
  557MOL0     H73496   7.152  11.764   4.458 -0.2956  1.4906 -1.4884
  557MOL0     H73497   7.266  11.890   4.452 -0.2355  0.5046  0.2871
  557MOL0     H73498   7.351  11.611   4.464 -0.5321  0.2937  0.3789
  557MOL0     H73499   7.432  11.761   4.406 -1.0291  1.0456 -0.4840
  557MOL0     H73500   7.252  11.785   4.230 -1.2734  0.5611  2.4354
  557MOL0     H73501   7.195  11.622   4.274  0.6822 -1.9864 -0.2341
  557MOL0     H73502   7.436  11.537   4.205  0.3320 -0.8022 -2.5599
  557MOL0     H73503   7.324  11.591   4.078  1.5933  0.0810 -0.8410
  557MOL0     H73504   7.570  11.721   4.181 -1.2840  1.6975  2.1078
  557MOL0     H73505   7.447  11.809   4.083 -0.3523  0.0881  2.4142
  557MOL0     H73506   7.413  12.041   4.905  2.5916  1.8008  1.3651
  557MOL0     H73507   7.642  12.044   5.035  0.3253 -0.0023  0.4691
  557MOL0     H73508   8.079  11.610   5.120 -1.9891 -1.5229  1.5510
  557MOL0     H73509   8.273  11.631   5.279 -1.2485 -3.0242 -0.0127
  557MOL0     H73510   9.395  10.852   6.016 -0.7648  0.2621 -0.1562
  557MOL0     H73511   9.615  10.774   5.953  0.6542 -0.0534 -1.4535
  557MOL0     H73512   9.717  10.332   5.660 -0.8386  0.3678  1.3759
  557MOL0     H73513   9.887  10.184   5.572 -0.6678  0.8792 -0.4102
  557MOL0     H73514  10.338  10.246   5.625 -2.7002  1.9098  0.9190
  557MOL0     H73515  10.306  10.368   5.505 -0.4263  1.4410  1.2202
  557MOL0     H73516  10.302  10.070   5.432 -0.3116  0.2040 -0.5356
  557MOL0     H73517  10.303  10.204   5.321  1.6983 -2.7225 -2.2867
  557MOL0     H73518  10.539  10.181   5.520  0.9781 -0.3669 -0.7503
  557MOL0     H73519  10.529  10.268   5.365  4.1480  1.1559  2.0841
  557MOL0     H73520  10.508   9.951   5.395 -2.0225  0.2609 -2.0653
  557MOL0     H73521  10.537  10.045   5.243 -1.6118  0.8956 -0.0125
  557MOL0     H73522  10.908   9.993   5.430 -1.1692 -2.7451 -2.6614
  557MOL0     H73523  10.200  10.469   5.664  1.1779 -0.9307 -1.0122
  557MOL0     H73524  10.038  10.609   5.756  0.6942 -1.1522  2.6478
  558MOL0     O73525   7.792   9.418   2.087  0.1714  0.2474  0.9158
  558MOL0     C73526   7.735   9.350   2.001  0.7288  0.5906 -0.0952
  558MOL0     O73527   7.788   9.261   1.918 -0.2053 -0.2866 -0.5063
  558MOL0     C73528   7.923   9.268   1.915  0.0876 -0.3579  0.0855
  558MOL0     C73529   8.003   9.239   2.027  0.9514 -0.0877  0.1863
  558MOL0     C73530   8.142   9.235   2.022  0.3050  0.1817 -0.5763
  558MOL0     C73531   8.204   9.289   1.904  0.1146 -0.2241  0.7816
  558MOL0     O73532   8.340   9.308   1.883 -0.2883  0.0795  0.1481
  558MOL0     C73533   8.429   9.249   1.983 -0.1837  0.6200 -1.1031
  558MOL0     C73534   8.566   9.228   1.914 -0.4742 -0.0020 -0.4411
  558MOL0     C73535   8.559   9.099   1.820 -0.6698 -0.4300 -0.4295
  558MOL0     C73536   8.690   9.061   1.768  0.0444 -0.8985  0.7092
  558MOL0     C73537   8.683   8.997   1.627 -1.0333  0.1847 -0.0081
  558MOL0     C73538   8.661   9.094   1.512 -0.5949  1.0508  0.9016
  558MOL0     C73539   8.653   9.035   1.368 -0.1912  0.8248 -0.4860
  558MOL0     C73540   8.562   9.117   1.284  0.4566  0.1834  0.3186
  558MOL0     N73541   8.546   9.065   1.150 -0.4136  0.9097  0.2564
  558MOL0     C73542   8.435   9.012   1.092 -0.8979  0.5247 -0.5888
  558MOL0     C73543   8.476   8.983   0.964 -0.7322  0.5935 -0.3474
  558MOL0     C73544   8.387   8.916   0.865  0.4333 -0.8919 -0.6647
  558MOL0     C73545   8.442   8.921   0.725  0.4315 -0.0082 -0.8612
  558MOL0     C73546   8.372   8.825   0.638 -0.1884 -0.7885 -0.7115
  558MOL0     C73547   8.225   8.857   0.614 -0.3327 -0.8705  0.1098
  558MOL0     O73548   8.130   8.776   0.692  0.1629  0.0340 -0.4000
  558MOL0     C73549   8.013   8.814   0.746  0.2803 -0.2014 -0.1075
  558MOL0     C73550   7.912   8.878   0.684  0.0969 -0.0976 -0.5516
  558MOL0     C73551   7.790   8.915   0.750 -0.9730 -0.0420  0.9738
  558MOL0     C73552   7.758   8.863   0.873 -0.3081  0.7643  0.3627
  558MOL0     C73553   7.635   8.888   0.935  0.2400  0.1060  0.3520
  558MOL0     O73554   7.549   8.981   0.873  0.2910  0.0843 -0.7115
  558MOL0     C73555   7.414   8.977   0.917 -0.3630  0.1800 -0.7208
  558MOL0     C73556   7.374   9.055   1.024  0.5355  0.4298 -0.5200
  558MOL0     C73557   7.233   9.071   1.045  0.5303  0.4897  0.8492
  558MOL0     C73558   7.141   9.006   0.951  0.3908 -0.3480  1.0635
  558MOL0     O73559   6.999   9.015   0.971 -0.1853  0.1194  0.1298
  558MOL0     C73560   6.906   8.946   0.892 -0.0043 -0.3218 -0.6828
  558MOL0     C73561   6.766   9.007   0.915 -0.4862 -0.2603 -0.4708
  558MOL0     C73562   6.645   8.935   0.850 -0.2282  0.5513  0.4147
  558MOL0     C73563   6.516   9.020   0.873 -0.3570 -0.2803  0.4480
  558MOL0     C73564   6.410   8.995   0.761 -0.7241 -0.0288 -0.7204
  558MOL0     C73565   6.346   8.852   0.738 -0.6178  0.5601 -0.9624
  558MOL0     C73566   6.251   8.846   0.622 -0.5123  0.1062  0.0103
  558MOL0     C73567   6.153   8.731   0.608  0.1563  0.2134 -0.1307
  558MOL0    Cl73568   6.049   8.782   0.471 -0.2532  0.2408  0.1533
  558MOL0     C73569   7.196   8.922   0.846  0.7917  0.5171 -0.2175
  558MOL0     C73570   7.332   8.910   0.824  0.1579 -0.0075 -0.4318
  558MOL0     O73571   7.607   8.821   1.026  0.4082  0.6277  0.2364
  558MOL0     C73572   7.860   8.789   0.936 -0.3236 -0.3582 -0.7396
  558MOL0     C73573   7.988   8.771   0.873  0.5103 -1.1813 -1.2024
  558MOL0     N73574   8.612   9.012   0.952  0.3738 -0.2302  0.0394
  558MOL0     N73575   8.658   9.051   1.069 -0.0085 -0.0515  0.4765
  558MOL0     C73576   8.115   9.329   1.797  0.0660  0.2336  0.0827
  558MOL0     C73577   7.977   9.316   1.796  0.0723 -0.4983 -0.1476
  558MOL0     C73578   7.597   9.385   1.968  0.0342  0.2131  0.9689
  558MOL0     C73579   7.538   9.342   1.851 -0.9523 -0.4891  0.0991
  558MOL0     C73580   7.411   9.371   1.829  0.0191  0.9145 -0.5223
  558MOL0     C73581   7.326   9.444   1.920  0.2172  0.8672  0.0846
  558MOL0     O73582   7.195   9.470   1.891 -0.0697  0.0262  0.1071
  558MOL0     C73583   7.098   9.381   1.930 -0.8686  0.2324  0.6705
  558MOL0     C73584   7.088   9.263   1.839 -0.5777 -0.7142 -0.4170
  558MOL0     C73585   6.997   9.149   1.903 -0.5631 -0.0210 -0.1885
  558MOL0     C73586   6.976   9.040   1.803 -0.1785 -0.1266 -0.2865
  558MOL0     C73587   6.883   9.078   1.691  0.3676  0.4091 -0.0459
  558MOL0     C73588   6.810   9.108   1.603  0.7153  0.2250 -0.4641
  558MOL0     C73589   7.383   9.486   2.034  0.7808  0.4579  0.0144
  558MOL0     C73590   7.513   9.457   2.057 -0.6778 -0.0322  0.2893
  558MOL0     H73591   7.950   9.185   2.104 -1.2336 -2.3626 -2.6833
  558MOL0     H73592   8.194   9.188   2.105 -0.5924 -1.8700 -1.1168
  558MOL0     H73593   8.397   9.150   2.014 -2.7685  1.2370 -1.5539
  558MOL0     H73594   8.450   9.310   2.071  0.5197 -2.1425  0.7635
  558MOL0     H73595   8.643   9.208   1.990  0.9872 -1.0264 -2.1308
  558MOL0     H73596   8.589   9.323   1.864  1.5032 -0.7445 -1.0149
  558MOL0     H73597   8.490   9.110   1.736 -2.5561 -1.7249  0.8597
  558MOL0     H73598   8.502   9.024   1.875 -2.8797  0.0633 -1.9223
  558MOL0     H73599   8.749   9.151   1.749  2.1064 -2.2361  0.5004
  558MOL0     H73600   8.739   9.004   1.847  0.6993  1.0660  1.7926
  558MOL0     H73601   8.615   8.912   1.631  0.9778 -1.5784 -1.1120
  558MOL0     H73602   8.779   8.948   1.608 -0.8139 -0.7822  3.0454
  558MOL0     H73603   8.734   9.175   1.510 -1.8109  2.1962 -2.1324
  558MOL0     H73604   8.566   9.143   1.533  0.4072  2.6951  1.7657
  558MOL0     H73605   8.746   9.036   1.310 -0.6073 -2.5938 -1.4895
  558MOL0     H73606   8.616   8.932   1.360 -0.3271  0.9409 -1.4059
  558MOL0     H73607   8.597   9.221   1.278 -1.2891  0.7022 -3.5708
  558MOL0     H73608   8.466   9.122   1.337  1.0245  0.4435  1.3719
  558MOL0     H73609   8.340   8.994   1.140 -0.7162  1.4732  0.1676
  558MOL0     H73610   8.296   8.976   0.867  1.4731  0.7103  0.6639
  558MOL0     H73611   8.373   8.813   0.900 -1.5797 -0.2207  0.6330
  558MOL0     H73612   8.545   8.884   0.716  0.6950  0.8447 -1.4574
  558MOL0     H73613   8.439   9.018   0.675  2.2732 -0.1251 -1.2885
  558MOL0     H73614   8.421   8.822   0.541  1.0082  1.0771 -0.2239
  558MOL0     H73615   8.374   8.728   0.688 -0.7091  0.2975  1.5515
  558MOL0     H73616   8.199   8.840   0.509 -1.2163  1.6036 -0.1213
  558MOL0     H73617   8.210   8.964   0.627 -0.5330 -0.3436 -3.4818
  558MOL0     H73618   7.925   8.900   0.579  0.2280 -1.2279 -0.7858
  558MOL0     H73619   7.714   8.973   0.698 -1.5979  1.3860  3.3205
  558MOL0     H73620   7.435   9.112   1.093  0.2878  1.2810 -0.9885
  558MOL0     H73621   7.198   9.127   1.131 -0.9994  0.4760  0.2778
  558MOL0     H73622   6.903   8.844   0.931 -0.3291 -0.2030 -0.3899
  558MOL0     H73623   6.939   8.949   0.788  1.7521 -1.6934 -0.2102
  558MOL0     H73624   6.781   9.101   0.860 -1.0355 -1.9488 -3.7158
  558MOL0     H73625   6.747   9.028   1.021 -3.6685 -3.0727 -0.3349
  558MOL0     H73626   6.632   8.833   0.887 -0.5178  0.6545  0.5980
  558MOL0     H73627   6.662   8.913   0.744  0.4098  2.3048  0.1108
  558MOL0     H73628   6.479   8.981   0.968 -0.7398 -0.6936  0.1319
  558MOL0     H73629   6.537   9.127   0.884 -1.4540  0.2274 -1.8423
  558MOL0     H73630   6.457   9.018   0.665 -3.1727  1.3672 -1.6427
  558MOL0     H73631   6.329   9.063   0.785  1.0303  0.8537  3.7680
  558MOL0     H73632   6.291   8.823   0.828 -2.5613 -1.3301 -2.6790
  558MOL0     H73633   6.419   8.771   0.732 -3.7074 -2.3971 -1.3336
  558MOL0     H73634   6.186   8.933   0.635 -0.5566  0.3519 -1.6396
  558MOL0     H73635   6.298   8.852   0.523 -1.5446 -0.4315 -0.5326
  558MOL0     H73636   6.108   8.731   0.708  2.2663 -0.6934  0.8833
  558MOL0     H73637   6.199   8.634   0.588  0.2213  0.2765 -0.2909
  558MOL0     H73638   7.133   8.889   0.764 -0.0184  3.5964 -0.9682
  558MOL0     H73639   7.371   8.867   0.732 -2.8612  0.2361 -1.9361
  558MOL0     H73640   7.843   8.760   1.039 -2.9863  0.2079 -0.9542
  558MOL0     H73641   8.068   8.719   0.924 -0.1803 -2.0036 -0.9327
  558MOL0     H73642   8.153   9.373   1.705 -2.1042  3.2454  0.5028
  558MOL0     H73643   7.917   9.346   1.711  0.3575 -1.7178 -0.8042
  558MOL0     H73644   7.596   9.311   1.765  0.3443 -1.5428  1.2975
  558MOL0     H73645   7.371   9.327   1.739  1.4357  0.3059 -0.8740
  558MOL0     H73646   7.002   9.433   1.934 -0.4988  1.1985 -1.4718
  558MOL0     H73647   7.117   9.344   2.031  1.5368 -3.2199 -0.8362
  558MOL0     H73648   7.052   9.299   1.743  0.4526  5.6364  1.1202
  558MOL0     H73649   7.184   9.216   1.815  0.8569  1.4122  0.8171
  558MOL0     H73650   6.904   9.193   1.940  0.3965  0.6690  1.5180
  558MOL0     H73651   7.051   9.117   1.993  0.3613  2.1715  0.1219
  558MOL0     H73652   7.072   9.028   1.752  0.5619 -1.3378  1.2939
  558MOL0     H73653   6.943   8.954   1.862 -0.0527  0.3369  0.4780
  558MOL0     H73654   6.755   9.138   1.516  1.4173  2.7181 -0.1118
  558MOL0     H73655   7.327   9.551   2.101  2.8291  3.0059 -0.5957
  558MOL0     H73656   7.551   9.492   2.152 -2.4432 -1.0966  1.4482
  559MOL0     O73657   1.930   2.390   9.133 -0.1143 -0.1177  0.0075
  559MOL0     C73658   1.893   2.454   9.231  0.2827 -0.8012  0.1408
  559MOL0     O73659   1.971   2.519   9.323 -0.3806 -0.6899 -0.6604
  559MOL0     C73660   2.114   2.515   9.300 -0.1157 -0.2964  0.4059
  559MOL0     C73661   2.167   2.578   9.187 -0.2764 -1.0260  0.7943
  559MOL0     C73662   2.310   2.589   9.169  0.6311 -0.1157 -0.2749
  559MOL0     C73663   2.397   2.544   9.274  0.5223 -1.1399  0.2163
  559MOL0     O73664   2.539   2.549   9.257 -0.0186 -0.2749 -0.7688
  559MOL0     C73665   2.626   2.543   9.370 -0.8351 -0.9341  0.0467
  559MOL0     C73666   2.767   2.562   9.323  0.9227 -0.1502  0.0751
  559MOL0     C73667   2.809   2.442   9.242  0.1406  0.3948 -0.3792
  559MOL0     C73668   2.830   2.312   9.318  0.2563 -0.1709 -0.3246
  559MOL0     C73669   2.824   2.179   9.247  1.1732 -0.0652  0.9077
  559MOL0     C73670   2.916   2.165   9.125  0.7844  0.4473 -0.2094
  559MOL0     C73671   2.985   2.026   9.126  0.8928 -1.2157 -0.7847
  559MOL0     C73672   2.891   1.920   9.068 -0.2074  0.2615 -0.6480
  559MOL0     N73673   2.921   1.913   8.925 -0.0690  0.1534 -0.2424
  559MOL0     C73674   2.838   1.953   8.818  0.2688 -0.4057 -0.2188
  559MOL0     C73675   2.880   1.886   8.711 -0.2093  0.6192 -0.7035
  559MOL0     C73676   2.822   1.892   8.569  0.2019 -0.1414 -0.9120
  559MOL0     C73677   2.670   1.890   8.570  1.0161  0.4524 -0.4366
  559MOL0     C73678   2.632   1.745   8.564  0.0149 -0.5177 -0.2692
  559MOL0     C73679   2.476   1.720   8.534  0.1998 -0.0614  0.3360
  559MOL0     O73680   2.438   1.779   8.400 -0.3133 -0.0037 -0.4467
  559MOL0     C73681   2.334   1.717   8.340  0.1030 -0.2573  0.1562
  559MOL0     C73682   2.223   1.659   8.415 -0.0746  0.2646 -0.0642
  559MOL0     C73683   2.120   1.583   8.352  0.1481 -0.8634 -0.1978
  559MOL0     C73684   2.114   1.592   8.210  0.6601 -0.5645 -0.3143
  559MOL0     C73685   2.004   1.535   8.128 -0.6829 -0.2432 -0.6855
  559MOL0     O73686   1.892   1.511   8.200 -0.8794  0.5424  0.1124
  559MOL0     C73687   1.780   1.454   8.154  0.9955  1.2956  0.3069
  559MOL0     C73688   1.706   1.389   8.251 -1.1216 -0.0144  0.8151
  559MOL0     C73689   1.586   1.328   8.215  0.3971 -0.5396  0.7889
  559MOL0     C73690   1.534   1.336   8.082 -0.6347 -1.2279  0.1221
  559MOL0     O73691   1.425   1.264   8.047 -0.1348 -0.4312  0.4189
  559MOL0     C73692   1.363   1.178   8.149 -0.2307 -0.5479  0.0516
  559MOL0     C73693   1.231   1.122   8.084 -0.6381  0.2004 -0.3495
  559MOL0     C73694   1.129   1.232   8.064  0.5149 -0.0542  0.0447
  559MOL0     C73695   0.991   1.198   8.124  0.3606  0.7560 -0.0729
  559MOL0     C73696   0.885   1.305   8.096 -0.4220 -1.0238  0.5838
  559MOL0     C73697   0.755   1.307   8.182 -0.4411  0.6650  0.2106
  559MOL0     C73698   0.700   1.168   8.233  1.2842  0.1220 -0.1202
  559MOL0     C73699   0.638   1.081   8.120  0.3222  0.1623 -0.1988
  559MOL0    Cl73700   0.523   1.181   8.010 -0.1059 -0.4224  0.4780
  559MOL0     C73701   1.596   1.425   7.997  0.8739 -0.1813  0.2145
  559MOL0     C73702   1.718   1.476   8.033  0.5254 -0.4023  0.5344
  559MOL0     O73703   2.028   1.495   8.015  0.3372  0.1090 -0.5065
  559MOL0     C73704   2.221   1.659   8.144  0.1046  0.7194  0.2809
  559MOL0     C73705   2.324   1.721   8.209  0.2832 -1.4774 -0.9774
  559MOL0     N73706   2.992   1.814   8.751  0.1075  0.8891  0.0933
  559MOL0     N73707   3.017   1.838   8.871  0.0081  0.4909  0.0147
  559MOL0     C73708   2.338   2.488   9.389  0.0100  0.8995 -0.1349
  559MOL0     C73709   2.196   2.457   9.398  0.7722 -0.6296 -0.3321
  559MOL0     C73710   1.738   2.457   9.252 -0.5378  0.0948 -0.0869
  559MOL0     C73711   1.660   2.338   9.235  1.0603 -0.0505 -0.2158
  559MOL0     C73712   1.521   2.344   9.268 -0.4594 -0.1164 -0.1933
  559MOL0     C73713   1.468   2.457   9.326  0.9088 -1.1628  0.4928
  559MOL0     O73714   1.334   2.484   9.343 -0.6074  0.7931  0.5498
  559MOL0     C73715   1.282   2.428   9.461  0.1730  0.4160 -0.4604
  559MOL0     C73716   1.141   2.376   9.421 -0.3101 -0.0999 -0.1792
  559MOL0     C73717   1.044   2.485   9.377 -1.2439 -0.2946  0.2889
  559MOL0     C73718   0.905   2.435   9.405  0.3584  0.5894  0.2053
  559MOL0     C73719   0.806   2.501   9.315  0.5094  0.9255  0.1271
  559MOL0     C73720   0.713   2.565   9.269  0.4655 -0.5152  0.1017
  559MOL0     C73721   1.551   2.569   9.356 -1.1730  0.0118 -0.7585
  559MOL0     C73722   1.687   2.568   9.317  0.0975 -0.3933 -0.0883
  559MOL0     H73723   2.097   2.613   9.111 -1.8928 -0.6965  2.3666
  559MOL0     H73724   2.347   2.636   9.078  0.2685 -2.4602 -1.7115
  559MOL0     H73725   2.619   2.449   9.425  3.2788 -1.1875  0.4850
  559MOL0     H73726   2.606   2.638   9.419  1.0460  0.8546 -2.3903
  559MOL0     H73727   2.831   2.580   9.410  1.1582  0.6316 -0.2481
  559MOL0     H73728   2.766   2.655   9.264 -2.1712  0.4975  0.9897
  559MOL0     H73729   2.907   2.473   9.205  2.3045 -3.3853  1.4868
  559MOL0     H73730   2.744   2.427   9.156 -1.6599  1.2965  0.7597
  559MOL0     H73731   2.932   2.313   9.358 -1.1009 -1.2504  3.6643
  559MOL0     H73732   2.760   2.300   9.402  0.0633 -1.7970 -0.6911
  559MOL0     H73733   2.724   2.166   9.204  1.7892  2.5405 -1.5984
  559MOL0     H73734   2.845   2.102   9.322 -0.0805 -4.3265 -2.6317
  559MOL0     H73735   2.987   2.249   9.121  0.5668  0.7016  1.0895
  559MOL0     H73736   2.864   2.186   9.031  1.9110  1.5177 -0.6271
  559MOL0     H73737   3.084   2.028   9.080  2.7713 -0.3523  2.9101
  559MOL0     H73738   2.996   1.998   9.231  0.8198  1.3845 -0.0127
  559MOL0     H73739   2.786   1.946   9.082  0.0845  1.6223 -0.8265
  559MOL0     H73740   2.899   1.824   9.119  0.7285  2.2467  3.3997
  559MOL0     H73741   2.751   2.019   8.816 -0.2331 -1.0506 -0.0655
  559MOL0     H73742   2.863   1.804   8.519  2.2414  0.2445  0.0058
  559MOL0     H73743   2.861   1.979   8.515  2.1941  1.0753  2.2183
  559MOL0     H73744   2.634   1.934   8.476  1.4305  1.7544 -0.0181
  559MOL0     H73745   2.615   1.937   8.652 -1.2566 -1.2243 -0.9022
  559MOL0     H73746   2.680   1.694   8.479 -0.0578  0.7336 -1.0822
  559MOL0     H73747   2.659   1.711   8.664 -2.0881 -0.3782  0.3999
  559MOL0     H73748   2.414   1.779   8.601 -1.7897  0.3157 -1.7064
  559MOL0     H73749   2.455   1.612   8.543 -1.6445  0.0637 -1.5831
  559MOL0     H73750   2.218   1.661   8.523  1.5325 -1.4259  0.0904
  559MOL0     H73751   2.040   1.546   8.414 -1.8674  0.9306 -1.5912
  559MOL0     H73752   1.750   1.391   8.350  0.2688  0.9198  0.2152
  559MOL0     H73753   1.533   1.270   8.290  0.9888  0.5486  2.0852
  559MOL0     H73754   1.334   1.231   8.240 -1.3009  1.2270 -1.2541
  559MOL0     H73755   1.419   1.091   8.183 -1.4277 -0.2529  3.1024
  559MOL0     H73756   1.202   1.045   8.156  2.5806  1.6237  2.7141
  559MOL0     H73757   1.260   1.071   7.991  3.2694 -1.6211  1.6397
  559MOL0     H73758   1.113   1.260   7.959 -0.8643  0.6348  0.4161
  559MOL0     H73759   1.160   1.327   8.109  0.6220  1.7596 -3.4702
  559MOL0     H73760   0.958   1.097   8.097 -2.0295  1.5287 -0.3025
  559MOL0     H73761   1.002   1.206   8.233  0.1452  4.2061 -0.2048
  559MOL0     H73762   0.847   1.286   7.995 -2.3546 -0.2873  1.1311
  559MOL0     H73763   0.929   1.405   8.103 -0.5983 -0.8448 -0.5890
  559MOL0     H73764   0.674   1.366   8.140  0.1538  0.9305 -0.5874
  559MOL0     H73765   0.783   1.360   8.274  1.3055  1.8806 -0.9511
  559MOL0     H73766   0.774   1.112   8.290  3.4698  1.0307 -1.8738
  559MOL0     H73767   0.623   1.187   8.308 -1.6924 -0.4937 -2.7663
  559MOL0     H73768   0.579   1.009   8.178  0.4343  0.2444  0.0187
  559MOL0     H73769   0.720   1.026   8.074  0.9464  1.5698 -0.8133
  559MOL0     H73770   1.555   1.451   7.900  2.9617  1.9331 -0.1847
  559MOL0     H73771   1.773   1.548   7.974 -2.5238  1.5802 -0.1013
  559MOL0     H73772   2.216   1.680   8.037  1.8430 -1.7526 -0.3680
  559MOL0     H73773   2.381   1.795   8.155 -0.5623 -0.6454 -0.7605
  559MOL0     H73774   2.399   2.447   9.468 -0.3424 -0.1395 -0.3858
  559MOL0     H73775   2.158   2.401   9.483  2.2480 -1.1640  0.0070
  559MOL0     H73776   1.715   2.249   9.204 -0.8309 -2.0679  1.8010
  559MOL0     H73777   1.458   2.257   9.252 -2.5013  1.1359  0.5820
  559MOL0     H73778   1.274   2.499   9.544 -2.9599  1.1589 -1.2458
  559MOL0     H73779   1.335   2.342   9.502 -1.2737 -0.8613 -1.1703
  559MOL0     H73780   1.162   2.305   9.340  3.0002  1.0677 -0.5105
  559MOL0     H73781   1.113   2.314   9.506  1.1222 -3.4237 -1.9489
  559MOL0     H73782   1.053   2.505   9.270  1.0198 -1.8586  0.1430
  559MOL0     H73783   1.057   2.585   9.421 -1.2730 -0.5189  0.8189
  559MOL0     H73784   0.900   2.327   9.392  3.2474  0.4897 -0.5623
  559MOL0     H73785   0.868   2.467   9.503 -2.9085  0.4964 -0.8762
  559MOL0     H73786   0.632   2.606   9.212 -0.6953  0.8801  2.6011
  559MOL0     H73787   1.498   2.660   9.386 -2.2492  0.8345 -4.6098
  559MOL0     H73788   1.754   2.653   9.320  0.3996 -0.6464  0.4685
  560MOL0     O73789   2.655   1.065  10.473 -0.0707 -0.3843 -0.9443
  560MOL0     C73790   2.633   1.148  10.556 -0.8190  0.4362  0.3067
  560MOL0     O73791   2.516   1.199  10.592 -0.1651  0.3310 -0.7319
  560MOL0     C73792   2.395   1.174  10.534 -0.4137 -0.0642 -0.5496
  560MOL0     C73793   2.348   1.062  10.464  0.1249  0.4232  0.4158
  560MOL0     C73794   2.218   1.041  10.416 -0.6145 -0.1463 -0.6732
  560MOL0     C73795   2.130   1.151  10.436  0.4370  0.0904 -0.4603
  560MOL0     O73796   1.993   1.137  10.417 -0.1907  0.7348 -0.2193
  560MOL0     C73797   1.935   1.008  10.424 -0.4951  0.3937  0.3093
  560MOL0     C73798   1.786   1.025  10.449 -0.7134 -0.8423 -0.4532
  560MOL0     C73799   1.711   0.900  10.391  0.0749 -0.4167 -0.0327
  560MOL0     C73800   1.566   0.926  10.401 -0.6311  0.6013  0.2312
  560MOL0     C73801   1.456   0.820  10.377 -0.0105  0.4321  0.8957
  560MOL0     C73802   1.322   0.881  10.399 -0.7137  0.7157 -0.0925
  560MOL0     C73803   1.209   0.794  10.346  0.7162  0.2138  0.0448
  560MOL0     C73804   1.183   0.667  10.436 -0.2556 -0.9737 -0.3670
  560MOL0     N73805   1.124   0.707  10.561  0.9125  0.1347 -0.8434
  560MOL0     C73806   1.177   0.691  10.692  0.2613  0.3516  0.9985
  560MOL0     C73807   1.077   0.731  10.777  0.3288 -0.0180  0.4502
  560MOL0     C73808   1.094   0.725  10.924  0.4755  0.0599  0.4246
  560MOL0     C73809   1.196   0.846  10.962  0.0026  0.7325 -0.4237
  560MOL0     C73810   1.209   0.857  11.115  0.3170  0.6633  0.0520
  560MOL0     C73811   1.281   0.738  11.181  0.2528 -0.3984  0.1926
  560MOL0     O73812   1.413   0.720  11.113  0.0054  0.2635 -0.7383
  560MOL0     C73813   1.498   0.627  11.163 -0.6232 -0.5563  0.0221
  560MOL0     C73814   1.470   0.546  11.277 -0.5871  1.2006  0.6402
  560MOL0     C73815   1.568   0.467  11.336  0.4463  0.0694  0.5770
  560MOL0     C73816   1.702   0.465  11.287 -0.7314  0.3673 -0.5257
  560MOL0     C73817   1.809   0.384  11.357  0.1514  0.2190 -0.5455
  560MOL0     O73818   1.927   0.370  11.290  0.2238 -0.3614  0.5404
  560MOL0     C73819   2.042   0.359  11.355 -0.1408 -0.4233 -0.2947
  560MOL0     C73820   2.062   0.402  11.489  0.0778  0.3235 -0.2947
  560MOL0     C73821   2.182   0.376  11.546  0.2578  0.2726 -0.3758
  560MOL0     C73822   2.295   0.338  11.467 -0.0900 -0.3710  0.2292
  560MOL0     O73823   2.410   0.338  11.536 -0.6608 -0.6961 -0.3484
  560MOL0     C73824   2.527   0.332  11.459 -0.4673  1.2568  0.9973
  560MOL0     C73825   2.633   0.283  11.554 -0.0615  0.8519  0.8298
  560MOL0     C73826   2.763   0.239  11.500 -0.3177 -0.0173 -0.3077
  560MOL0     C73827   2.850   0.180  11.617 -0.2794 -0.0581  0.4332
  560MOL0     C73828   2.996   0.152  11.567 -0.9198  0.2642 -0.0595
  560MOL0     C73829   3.085   0.079  11.676  0.3950  0.1301  0.2724
  560MOL0     C73830   3.206   0.013  11.617  0.0435  0.9799  0.5647
  560MOL0     C73831   3.324   0.087  11.668  0.0493  0.9988  1.0525
  560MOL0    Cl73832   3.355   0.224  11.550 -0.0645 -0.1614 -0.3116
  560MOL0     C73833   2.267   0.299  11.331 -0.4390  0.6055  0.0711
  560MOL0     C73834   2.145   0.311  11.279 -0.6244 -0.4371  0.7181
  560MOL0     O73835   1.781   0.343  11.474  0.2013  0.3322 -0.1989
  560MOL0     C73836   1.731   0.556  11.180 -0.9052  0.1082 -0.1544
  560MOL0     C73837   1.633   0.621  11.111 -0.1627 -0.1536 -0.8391
  560MOL0     N73838   0.965   0.763  10.700  0.2899 -0.5868 -0.9643
  560MOL0     N73839   0.999   0.755  10.575 -0.2895  0.5655  0.0368
  560MOL0     C73840   2.176   1.271  10.492 -0.6275 -0.0684 -0.3539
  560MOL0     C73841   2.311   1.282  10.532  0.1898  0.8158 -0.0544
  560MOL0     C73842   2.747   1.190  10.638 -0.0098  0.2341 -0.0072
  560MOL0     C73843   2.731   1.299  10.725  0.4197 -0.8157  0.4753
  560MOL0     C73844   2.833   1.324  10.824  0.5852 -0.6008 -0.0194
  560MOL0     C73845   2.938   1.232  10.847  0.7281  0.1165  0.2265
  560MOL0     O73846   3.042   1.251  10.932  0.1886 -0.2194  0.0514
  560MOL0     C73847   3.044   1.353  11.026 -0.5507  0.2131 -0.1236
  560MOL0     C73848   3.181   1.361  11.101 -0.3217  0.3283  0.0202
  560MOL0     C73849   3.190   1.487  11.179 -0.1235 -0.7115  0.6388
  560MOL0     C73850   3.298   1.465  11.291 -0.3281  1.5912  0.1188
  560MOL0     C73851   3.437   1.418  11.244  0.2260 -0.0263 -1.4187
  560MOL0     C73852   3.539   1.399  11.179 -0.7777  0.4476  0.2175
  560MOL0     C73853   2.946   1.123  10.764 -1.1434 -0.5221  0.1996
  560MOL0     C73854   2.857   1.104  10.659 -0.2468 -0.1568  0.3308
  560MOL0     H73855   2.420   0.981  10.469 -1.0240 -0.9651 -2.6358
  560MOL0     H73856   2.192   0.939  10.387  1.4213 -1.0100  0.3110
  560MOL0     H73857   1.968   0.957  10.515 -1.1785  0.4846  0.6158
  560MOL0     H73858   1.956   0.948  10.335  0.9163  2.5092 -0.8681
  560MOL0     H73859   1.752   1.120  10.406 -0.4725  1.2994  3.5894
  560MOL0     H73860   1.776   1.039  10.558  0.6321  1.6428 -0.5695
  560MOL0     H73861   1.748   0.812  10.445 -0.6201 -0.1417  0.9243
  560MOL0     H73862   1.723   0.888  10.283 -3.4279  1.7039 -0.8374
  560MOL0     H73863   1.552   0.962  10.503  2.7456  1.8784  0.3785
  560MOL0     H73864   1.550   1.009  10.331  0.5059  0.1173 -0.6495
  560MOL0     H73865   1.480   0.731  10.434 -0.7299 -0.0092  0.5163
  560MOL0     H73866   1.475   0.780  10.277 -0.5527 -1.7880  1.6434
  560MOL0     H73867   1.314   0.983  10.361  2.0052  1.7588  1.8214
  560MOL0     H73868   1.303   0.883  10.507 -0.8306  1.5215 -0.1225
  560MOL0     H73869   1.112   0.843  10.333  0.2958 -0.3550  0.9082
  560MOL0     H73870   1.240   0.755  10.249  0.9330  0.1251  0.1474
  560MOL0     H73871   1.275   0.609  10.449 -2.1835 -4.2246  0.0233
  560MOL0     H73872   1.113   0.597  10.389  1.1787 -1.8148 -1.3356
  560MOL0     H73873   1.278   0.658  10.709  0.5921 -0.1357 -1.4582
  560MOL0     H73874   1.141   0.633  10.957  0.6794  0.8739  2.5591
  560MOL0     H73875   0.998   0.745  10.972  0.4887 -1.0899  0.9521
  560MOL0     H73876   1.159   0.941  10.923 -1.8165  0.7491  1.1967
  560MOL0     H73877   1.297   0.826  10.925 -0.4282 -2.8571 -0.0003
  560MOL0     H73878   1.265   0.945  11.147 -1.2261  1.1026  1.7097
  560MOL0     H73879   1.107   0.861  11.154  0.7633  2.5540  1.1567
  560MOL0     H73880   1.218   0.650  11.167  0.2641 -0.7111  1.9191
  560MOL0     H73881   1.284   0.743  11.290 -0.6291 -0.7076  0.2390
  560MOL0     H73882   1.373   0.544  11.325  0.3449 -3.7769  2.9477
  560MOL0     H73883   1.548   0.396  11.416 -2.3629  4.0633  3.8756
  560MOL0     H73884   1.980   0.439  11.550 -1.5185  0.9390 -2.6672
  560MOL0     H73885   2.186   0.399  11.652  1.4929  0.9999 -0.5597
  560MOL0     H73886   2.560   0.427  11.416 -0.1055  1.1005  0.9244
  560MOL0     H73887   2.521   0.259  11.377  2.3562  1.2856  0.6621
  560MOL0     H73888   2.585   0.200  11.609  0.3176 -0.5388 -0.8442
  560MOL0     H73889   2.656   0.370  11.616 -0.3733  1.5076  0.0392
  560MOL0     H73890   2.815   0.328  11.463  1.6499 -0.7094  0.6268
  560MOL0     H73891   2.759   0.162  11.422  0.4613 -0.9188  0.5079
  560MOL0     H73892   2.862   0.253  11.698  0.0688  1.6047 -1.0327
  560MOL0     H73893   2.807   0.086  11.652 -3.6707  0.4450 -1.9051
  560MOL0     H73894   3.050   0.245  11.548  0.0658  0.0790  1.6094
  560MOL0     H73895   2.994   0.086  11.479  0.4143 -1.3315  1.0493
  560MOL0     H73896   3.022  -0.000  11.717 -2.5646  0.9311 -2.3490
  560MOL0     H73897   3.112   0.153  11.751  0.2641 -0.3549  0.8048
  560MOL0     H73898   3.210  -0.092  11.649  2.1215  0.6691 -0.5168
  560MOL0     H73899   3.216  -0.005  11.510  0.8031 -1.0825  0.9269
  560MOL0     H73900   3.406   0.016  11.652  0.6250  2.1155 -1.5722
  560MOL0     H73901   3.310   0.108  11.774  1.3659 -0.0869  1.4610
  560MOL0     H73902   2.334   0.244  11.265 -1.7466  0.4984 -1.2167
  560MOL0     H73903   2.129   0.274  11.179 -0.1396  0.4751  0.2938
  560MOL0     H73904   1.831   0.571  11.141 -1.3611  1.8311 -0.7534
  560MOL0     H73905   1.661   0.676  11.023  0.8352  0.6919 -0.0225
  560MOL0     H73906   2.117   1.359  10.514 -1.9596 -0.5606 -1.7611
  560MOL0     H73907   2.337   1.378  10.574 -0.6351  0.7788  0.5663
  560MOL0     H73908   2.642   1.361  10.722  2.5093  2.6007  2.7193
  560MOL0     H73909   2.818   1.414  10.883  1.8595 -0.0493 -0.5019
  560MOL0     H73910   2.970   1.328  11.103 -0.8204  0.2588 -0.3633
  560MOL0     H73911   3.005   1.450  10.994 -1.3011  0.6620  1.9581
  560MOL0     H73912   3.177   1.274  11.168 -5.5738  0.2050  0.0019
  560MOL0     H73913   3.261   1.345  11.028 -0.6420 -1.4654  0.0115
  560MOL0     H73914   3.090   1.506  11.219  0.3634  1.6348  0.8708
  560MOL0     H73915   3.224   1.567  11.112  1.3516  0.0901  2.2693
  560MOL0     H73916   3.315   1.557  11.349 -0.0370  0.5630  1.7480
  560MOL0     H73917   3.266   1.388  11.362 -0.5248  0.4521 -1.1693
  560MOL0     H73918   3.627   1.377  11.122 -1.6416 -0.5743 -0.7560
  560MOL0     H73919   3.038   1.066  10.772 -0.5609  0.4634  0.7335
  560MOL0     H73920   2.864   1.018  10.594  0.6577 -1.8689  2.5866
  561MOL0     O73921   5.807   7.496   7.884 -0.7642 -0.8078  0.4825
  561MOL0     C73922   5.727   7.587   7.857 -0.6581  0.2410  0.8539
  561MOL0     O73923   5.740   7.678   7.754 -0.1687  0.0772  0.9872
  561MOL0     C73924   5.861   7.693   7.695  0.2986  0.7758 -0.0961
  561MOL0     C73925   5.987   7.699   7.751 -0.9626 -1.2104  0.3519
  561MOL0     C73926   6.100   7.707   7.666  0.5842 -0.4166 -0.1299
  561MOL0     C73927   6.088   7.715   7.518  1.7731 -0.4315  0.1518
  561MOL0     O73928   6.187   7.707   7.424 -0.2485 -0.0935 -0.4476
  561MOL0     C73929   6.317   7.702   7.493 -0.0109  0.2678  0.8158
  561MOL0     C73930   6.399   7.652   7.368  0.3236  0.9096 -0.0898
  561MOL0     C73931   6.550   7.648   7.398 -0.2348  0.4828 -0.5646
  561MOL0     C73932   6.628   7.617   7.266  0.6471 -0.3694 -1.0160
  561MOL0     C73933   6.776   7.601   7.288 -0.6996  1.1944 -0.2001
  561MOL0     C73934   6.854   7.599   7.159  0.5323  0.5448  0.6067
  561MOL0     C73935   7.006   7.540   7.167  0.8962 -0.4093 -1.0052
  561MOL0     C73936   7.074   7.510   7.032  0.3635 -0.0569 -0.4416
  561MOL0     N73937   7.155   7.393   7.026  0.1014 -0.2684  0.0974
  561MOL0     C73938   7.270   7.356   7.091 -0.0402  0.0637 -0.3430
  561MOL0     C73939   7.313   7.239   7.045  0.8386  0.2390 -0.5565
  561MOL0     C73940   7.433   7.167   7.115  0.1720 -0.3935 -0.5181
  561MOL0     C73941   7.555   7.203   7.027 -0.1115  0.4218  0.7737
  561MOL0     C73942   7.665   7.100   7.056 -0.0487 -1.2792  0.1711
  561MOL0     C73943   7.799   7.154   7.015  0.0102  0.2985 -0.3805
  561MOL0     O73944   7.910   7.068   7.055  0.0720  0.6346  0.6997
  561MOL0     C73945   8.037   7.116   7.040  0.7748  0.1479 -1.1329
  561MOL0     C73946   8.072   7.211   6.942 -0.4001  0.6191 -0.6077
  561MOL0     C73947   8.202   7.263   6.953 -0.6237 -0.0086 -0.7137
  561MOL0     C73948   8.303   7.207   7.039  0.8632  0.8379  0.1801
  561MOL0     C73949   8.438   7.259   7.051  0.2477  0.4911  0.0774
  561MOL0     O73950   8.451   7.390   7.001  0.4432  0.6121 -0.1208
  561MOL0     C73951   8.566   7.464   7.016 -0.3743  0.5939 -0.0364
  561MOL0     C73952   8.666   7.452   7.114 -1.0472 -1.3136 -0.6416
  561MOL0     C73953   8.764   7.543   7.132 -0.1217  0.2130 -0.1790
  561MOL0     C73954   8.763   7.664   7.052 -0.2012 -0.8167  0.0582
  561MOL0     O73955   8.857   7.763   7.072  0.2395  0.6651 -0.1382
  561MOL0     C73956   8.934   7.812   6.963 -0.3393 -0.0046 -0.1464
  561MOL0     C73957   9.035   7.917   7.014  0.0197  0.2264  0.4001
  561MOL0     C73958   9.163   7.922   6.933 -0.7353  0.7608 -0.6832
  561MOL0     C73959   9.262   7.797   6.951  0.5830 -1.0528 -0.5126
  561MOL0     C73960   9.400   7.826   6.887 -0.2999 -0.7219 -1.0675
  561MOL0     C73961   9.373   7.877   6.745 -0.4693 -0.1994  0.5884
  561MOL0     C73962   9.503   7.903   6.658 -0.7581  0.1405  0.2563
  561MOL0     C73963   9.597   7.787   6.623 -0.4278  0.4067 -2.3324
  561MOL0    Cl73964   9.725   7.835   6.518 -0.0286 -0.4532 -0.5192
  561MOL0     C73965   8.667   7.673   6.946 -0.2746 -0.6258 -0.9525
  561MOL0     C73966   8.571   7.576   6.938  0.0356  0.9862  0.6312
  561MOL0     O73967   8.528   7.186   7.092 -0.0508  0.5724 -0.0625
  561MOL0     C73968   8.262   7.098   7.121 -0.1977  0.2708  0.1946
  561MOL0     C73969   8.132   7.054   7.120  0.2285 -0.5576  1.0091
  561MOL0     N73970   7.230   7.193   6.947  0.1618  0.1839  0.1936
  561MOL0     N73971   7.134   7.281   6.946  0.2178 -0.8751  0.8181
  561MOL0     C73972   5.960   7.737   7.474  0.8363 -0.0231  0.4894
  561MOL0     C73973   5.851   7.722   7.561  0.2839  0.3313 -0.7271
  561MOL0     C73974   5.591   7.569   7.913 -0.2337  0.3428 -0.7453
  561MOL0     C73975   5.476   7.647   7.874  0.1502  0.0477 -0.1351
  561MOL0     C73976   5.353   7.631   7.926  0.1210  0.1515 -0.1817
  561MOL0     C73977   5.330   7.536   8.029  0.7345  0.4428 -0.2389
  561MOL0     O73978   5.211   7.528   8.101 -0.7428 -0.5157  0.3482
  561MOL0     C73979   5.103   7.628   8.090  0.3317  0.4399  0.8141
  561MOL0     C73980   5.127   7.751   8.179 -0.3491 -0.8029 -0.3931
  561MOL0     C73981   4.994   7.808   8.230 -0.0575 -0.4742 -0.7177
  561MOL0     C73982   5.020   7.934   8.320  0.6434 -0.4022 -0.7239
  561MOL0     C73983   4.903   8.027   8.324 -0.0008  0.0076 -0.2518
  561MOL0     C73984   4.795   8.092   8.317 -0.2939 -0.0464  0.1626
  561MOL0     C73985   5.439   7.456   8.080  0.0106  0.3588  0.1583
  561MOL0     C73986   5.568   7.469   8.015 -0.1704 -0.0645  0.7262
  561MOL0     H73987   6.009   7.697   7.858 -1.3393 -0.0931  0.4598
  561MOL0     H73988   6.197   7.702   7.714  0.2348 -3.5562  0.4570
  561MOL0     H73989   6.315   7.638   7.581  3.8011  0.4832  1.2209
  561MOL0     H73990   6.350   7.800   7.530  0.7343 -1.1003  4.1174
  561MOL0     H73991   6.387   7.709   7.276 -4.2562 -0.4590 -0.6082
  561MOL0     H73992   6.356   7.553   7.347  0.0809  1.1495 -0.7427
  561MOL0     H73993   6.560   7.569   7.474  2.6416  1.3119  0.0479
  561MOL0     H73994   6.573   7.743   7.446 -1.0137 -0.3712  1.6542
  561MOL0     H73995   6.586   7.530   7.215 -0.9430 -1.8967  2.5843
  561MOL0     H73996   6.615   7.712   7.214 -0.4403  0.9337  1.4885
  561MOL0     H73997   6.783   7.505   7.341 -2.0389  0.4872 -1.2256
  561MOL0     H73998   6.803   7.686   7.351 -1.4642 -0.2777  2.2741
  561MOL0     H73999   6.858   7.700   7.116 -0.6545  0.0218 -0.8332
  561MOL0     H74000   6.794   7.547   7.083 -1.1174  1.7431  1.0269
  561MOL0     H74001   7.070   7.605   7.227 -1.0325  0.0867  0.6055
  561MOL0     H74002   7.004   7.443   7.218  1.7681  0.6895  1.2403
  561MOL0     H74003   7.141   7.593   7.006  0.0138  0.6035  0.6928
  561MOL0     H74004   7.011   7.494   6.944  1.4068  1.9296 -1.6221
  561MOL0     H74005   7.314   7.410   7.174 -1.8122  0.5376  0.3358
  561MOL0     H74006   7.405   7.062   7.124 -3.2601  0.4492  0.0267
  561MOL0     H74007   7.457   7.209   7.213  0.1545 -3.4068  0.9005
  561MOL0     H74008   7.599   7.298   7.060  2.4164 -0.9495  1.6816
  561MOL0     H74009   7.541   7.200   6.919 -3.4787  1.9163  1.0722
  561MOL0     H74010   7.681   7.084   7.163  1.3039 -1.3093 -0.0096
  561MOL0     H74011   7.639   7.004   7.012 -3.1102 -0.8661  0.8687
  561MOL0     H74012   7.814   7.253   7.057 -2.8213  0.3506  0.7174
  561MOL0     H74013   7.812   7.172   6.908  3.2873  2.8358  0.2701
  561MOL0     H74014   8.003   7.251   6.867 -2.5516 -1.9962 -0.1843
  561MOL0     H74015   8.226   7.339   6.880  0.1150  1.4772  0.9937
  561MOL0     H74016   8.675   7.355   7.162 -0.1124 -2.5912 -3.2075
  561MOL0     H74017   8.840   7.529   7.207 -1.5362  0.5410  1.3643
  561MOL0     H74018   8.874   7.856   6.883  1.2070 -0.3805 -1.5644
  561MOL0     H74019   8.987   7.732   6.910  1.3533 -0.1711  1.6940
  561MOL0     H74020   9.068   7.877   7.110  3.7666 -2.3390 -1.6919
  561MOL0     H74021   8.988   8.016   7.013 -0.3045  0.0927 -1.4490
  561MOL0     H74022   9.212   8.010   6.975 -1.4483  0.1861  1.4400
  561MOL0     H74023   9.140   7.938   6.827  0.7229  0.6009 -1.0510
  561MOL0     H74024   9.273   7.778   7.058  2.3628 -0.4097 -0.5453
  561MOL0     H74025   9.219   7.711   6.899  0.4656 -0.2847 -1.7322
  561MOL0     H74026   9.471   7.742   6.886  2.0167  0.8442  3.0949
  561MOL0     H74027   9.471   7.889   6.942  1.6708 -4.3531  0.9826
  561MOL0     H74028   9.319   7.971   6.752  0.0524  0.3433 -1.7138
  561MOL0     H74029   9.308   7.805   6.694  0.8731 -2.4235  1.8559
  561MOL0     H74030   9.484   7.942   6.558  1.5546 -1.5385 -0.9489
  561MOL0     H74031   9.556   7.978   6.718 -1.7731 -0.3853  1.9050
  561MOL0     H74032   9.547   7.702   6.576 -3.6764 -0.0373  1.4065
  561MOL0     H74033   9.632   7.752   6.720 -2.9668  1.3082 -0.9922
  561MOL0     H74034   8.655   7.754   6.875 -4.4591 -0.7758 -0.6656
  561MOL0     H74035   8.490   7.593   6.867  0.3854 -1.2699 -0.3731
  561MOL0     H74036   8.329   7.051   7.193 -0.9587  0.9783  1.4127
  561MOL0     H74037   8.113   6.980   7.198 -0.0150  0.3278  1.8119
  561MOL0     H74038   5.943   7.757   7.369 -0.3069  0.5378  0.7601
  561MOL0     H74039   5.750   7.724   7.521  0.1353  0.7580 -0.3366
  561MOL0     H74040   5.494   7.728   7.805  1.0603 -0.8196 -0.9496
  561MOL0     H74041   5.284   7.704   7.884  1.1203  1.3047  0.1243
  561MOL0     H74042   5.020   7.564   8.123  0.5371  0.5503  1.5630
  561MOL0     H74043   5.080   7.659   7.988  0.1983  2.2299  1.3676
  561MOL0     H74044   5.196   7.726   8.259 -1.6882 -2.2162  0.3583
  561MOL0     H74045   5.176   7.829   8.119  0.4535 -0.7981  0.2665
  561MOL0     H74046   4.940   7.737   8.293  1.3017 -0.8767  0.0548
  561MOL0     H74047   4.932   7.839   8.146  0.9571  1.1782 -0.9076
  561MOL0     H74048   5.053   7.905   8.420 -1.0776  0.5047  0.1628
  561MOL0     H74049   5.112   7.982   8.286  0.9193  1.4222  2.2706
  561MOL0     H74050   4.716   8.162   8.295  0.3867  0.5672 -0.3815
  561MOL0     H74051   5.420   7.385   8.159 -1.1332  0.3035 -0.1562
  561MOL0     H74052   5.647   7.402   8.046 -1.2927 -0.3840  3.1628
  562MOL0     O74053  11.215   5.880   0.714 -0.2801  0.4599 -0.4891
  562MOL0     C74054  11.234   5.845   0.834  0.4836 -0.4251  0.8764
  562MOL0     O74055  11.175   5.743   0.892  0.3704 -0.0839  0.0812
  562MOL0     C74056  11.092   5.653   0.823  0.1516 -0.4526 -0.7339
  562MOL0     C74057  11.098   5.517   0.867 -0.0142 -0.4600  0.2360
  562MOL0     C74058  11.003   5.422   0.815 -0.4991  0.6120  0.0388
  562MOL0     C74059  10.900   5.457   0.730 -0.2391 -0.1591 -1.0267
  562MOL0     O74060  10.815   5.358   0.681 -0.3552  0.5758 -0.6421
  562MOL0     C74061  10.699   5.384   0.594 -0.1293 -0.9914 -0.1504
  562MOL0     C74062  10.641   5.261   0.525 -0.4085  0.4972  0.1588
  562MOL0     C74063  10.734   5.210   0.420  0.2930  0.7978  0.1922
  562MOL0     C74064  10.674   5.101   0.321 -0.5870 -0.2955 -0.1064
  562MOL0     C74065  10.783   4.996   0.282  1.1287  0.0974 -0.1280
  562MOL0     C74066  10.747   4.930   0.152  0.3309 -0.4668  0.1048
  562MOL0     C74067  10.849   4.836   0.099  0.0289  0.4750  0.0843
  562MOL0     C74068  10.823   4.691   0.141 -0.4592  0.1181  0.0001
  562MOL0     N74069  10.909   4.597   0.069 -0.2023 -0.5994 -0.1476
  562MOL0     C74070  10.869   4.469   0.026  0.4852  1.0816 -0.2886
  562MOL0     C74071  10.983   4.391   0.008 -0.4149 -0.5737  0.8808
  562MOL0     C74072  10.996   4.240  -0.026  1.1319  0.4374 -0.2831
  562MOL0     C74073  11.053   4.215  -0.167  0.3815  0.2692 -0.5418
  562MOL0     C74074  11.084   4.064  -0.203  0.2525 -0.5478  0.6453
  562MOL0     C74075  11.210   4.005  -0.127 -0.7216  0.3566  0.9486
  562MOL0     O74076  11.236   3.872  -0.162 -0.4047  0.1534 -0.2869
  562MOL0     C74077  11.349   3.805  -0.119  0.4823 -0.7611  1.5669
  562MOL0     C74078  11.359   3.671  -0.146  0.8966 -0.4211  1.7401
  562MOL0     C74079  11.467   3.593  -0.129 -0.7125 -0.3126 -0.7899
  562MOL0     C74080  11.577   3.655  -0.065 -0.1787  0.0504  0.4049
  562MOL0     C74081  11.697   3.581  -0.019  0.6757 -0.2117 -0.1695
  562MOL0     O74082  11.803   3.650   0.033 -0.4316 -0.3981 -0.5652
  562MOL0     C74083  11.905   3.573   0.078 -0.3818 -0.4840  0.9061
  562MOL0     C74084  11.931   3.578   0.208 -0.0858  0.2416  0.0126
  562MOL0     C74085  12.038   3.491   0.248 -0.0162 -0.7122  0.0337
  562MOL0     C74086  12.115   3.412   0.160  0.8471 -0.1974  0.1585
  562MOL0     O74087  12.215   3.329   0.208  0.4391 -0.7785  0.4496
  562MOL0     C74088  12.336   3.356   0.141 -0.0077  0.1894 -0.7366
  562MOL0     C74089  12.448   3.308   0.234  0.0899 -0.0594  0.1055
  562MOL0     C74090  12.590   3.311   0.185 -1.1523  0.3232 -0.2291
  562MOL0     C74091  12.676   3.223   0.273 -0.0374 -0.2220 -0.4423
  562MOL0     C74092  12.819   3.237   0.236  0.2068 -0.8040  0.0899
  562MOL0     C74093  12.849   3.145   0.111 -0.5767 -0.5684  0.1161
  562MOL0     C74094  12.999   3.178   0.071 -0.7469 -0.8451  1.1012
  562MOL0     C74095  13.041   3.069  -0.031 -0.4912 -0.3619 -0.7531
  562MOL0    Cl74096  12.925   3.095  -0.164 -0.2788  0.5096 -0.4129
  562MOL0     C74097  12.087   3.422   0.023 -0.3497  0.1065 -1.4385
  562MOL0     C74098  11.986   3.502  -0.021  0.6170  0.1466  0.2527
  562MOL0     O74099  11.685   3.464  -0.030 -0.0593  0.6447  0.5493
  562MOL0     C74100  11.564   3.787  -0.022  0.1289 -0.0114 -0.3240
  562MOL0     C74101  11.456   3.861  -0.051  0.1816  0.5013  0.1775
  562MOL0     N74102  11.086   4.480   0.029 -0.0565 -0.3351  0.8241
  562MOL0     N74103  11.049   4.604   0.059  0.0454 -0.2473  0.7416
  562MOL0     C74104  10.887   5.596   0.699  0.3415 -1.3547 -0.6653
  562MOL0     C74105  10.983   5.693   0.738 -0.1504  1.0424 -0.0613
  562MOL0     C74106  11.319   5.938   0.917 -0.4757  0.0298  0.7175
  562MOL0     C74107  11.305   5.930   1.054 -0.5658  0.1678  0.0230
  562MOL0     C74108  11.385   6.008   1.135  0.0150  0.3332  0.0689
  562MOL0     C74109  11.472   6.095   1.079  0.1211 -0.2616 -0.4547
  562MOL0     O74110  11.552   6.185   1.152 -0.3216  0.0441 -0.2160
  562MOL0     C74111  11.514   6.214   1.286  0.6199  0.4833 -1.1743
  562MOL0     C74112  11.579   6.341   1.326  0.6332 -0.3344  0.0811
  562MOL0     C74113  11.518   6.392   1.458 -0.2519  0.1327 -0.3903
  562MOL0     C74114  11.617   6.468   1.547 -0.3605  0.0552  0.1416
  562MOL0     C74115  11.545   6.542   1.652 -0.4696 -0.6674 -0.1475
  562MOL0     C74116  11.472   6.592   1.741  0.4415 -0.2600  0.7071
  562MOL0     C74117  11.503   6.087   0.946  0.5191  0.3825  0.4567
  562MOL0     C74118  11.421   6.017   0.857 -0.4117  0.0168  0.3377
  562MOL0     H74119  11.172   5.486   0.940 -2.5196  0.7096  3.5019
  562MOL0     H74120  11.022   5.321   0.850  2.8998  0.4641 -1.7932
  562MOL0     H74121  10.718   5.460   0.517  3.0109 -4.8866 -3.6661
  562MOL0     H74122  10.615   5.419   0.656  0.1326 -1.2078  0.3317
  562MOL0     H74123  10.551   5.298   0.474 -0.5875  0.0031  0.1105
  562MOL0     H74124  10.615   5.182   0.596 -0.9391 -0.2571 -0.8544
  562MOL0     H74125  10.820   5.163   0.468 -0.2370 -2.0184 -1.4154
  562MOL0     H74126  10.778   5.289   0.358 -1.5898  1.5452 -0.2592
  562MOL0     H74127  10.595   5.049   0.375 -0.8500  1.1099  0.9187
  562MOL0     H74128  10.627   5.156   0.238  0.4089  1.3722  0.3900
  562MOL0     H74129  10.796   4.930   0.369 -1.8725  1.4306  1.4961
  562MOL0     H74130  10.878   5.046   0.261  1.9309 -1.7869 -1.1833
  562MOL0     H74131  10.729   5.012   0.081  3.5309  1.5936  1.4510
  562MOL0     H74132  10.649   4.884   0.165 -0.9617  2.3134  1.1463
  562MOL0     H74133  10.859   4.843  -0.010  2.5357  1.0895  0.3012
  562MOL0     H74134  10.947   4.858   0.141 -0.1597 -1.9540  1.9733
  562MOL0     H74135  10.718   4.675   0.113 -0.9786  2.2715  0.5613
  562MOL0     H74136  10.828   4.681   0.250 -3.2886  2.0606  0.4294
  562MOL0     H74137  10.764   4.441   0.016  1.1196 -1.2389 -1.1439
  562MOL0     H74138  10.903   4.184  -0.011  1.7462 -0.5067  0.1677
  562MOL0     H74139  11.057   4.200   0.056 -1.2649 -0.1659  1.3177
  562MOL0     H74140  11.151   4.264  -0.164  1.3603 -1.5710  2.4588
  562MOL0     H74141  10.996   4.261  -0.248 -0.8710 -1.5709 -0.7580
  562MOL0     H74142  10.999   3.996  -0.190 -0.1977 -1.2824 -4.1905
  562MOL0     H74143  11.111   4.056  -0.309  0.1716  1.8134  0.3927
  562MOL0     H74144  11.182   4.006  -0.021 -1.5162  1.9361  0.7533
  562MOL0     H74145  11.303   4.060  -0.142 -2.3358  3.2388  0.9261
  562MOL0     H74146  11.264   3.630  -0.181 -0.9614  4.1935  0.6628
  562MOL0     H74147  11.466   3.485  -0.143  1.8513 -0.5092  0.0054
  562MOL0     H74148  11.867   3.628   0.279  0.0596 -0.8989  0.9931
  562MOL0     H74149  12.053   3.464   0.352  1.1187 -1.8666 -0.3977
  562MOL0     H74150  12.347   3.463   0.120  0.2181 -0.1473 -2.4121
  562MOL0     H74151  12.334   3.295   0.051 -0.4809 -1.1919  0.1789
  562MOL0     H74152  12.435   3.199   0.236  1.8973 -0.3806  3.8415
  562MOL0     H74153  12.451   3.361   0.329  1.4000 -0.9764  0.6141
  562MOL0     H74154  12.629   3.413   0.187  0.6618 -0.3519  1.4148
  562MOL0     H74155  12.596   3.278   0.081 -1.6752 -4.2806  0.9875
  562MOL0     H74156  12.661   3.265   0.373 -0.5289 -0.3406 -0.4654
  562MOL0     H74157  12.653   3.117   0.266 -1.2475 -0.3011  3.0941
  562MOL0     H74158  12.886   3.217   0.320 -0.5544 -0.9178  0.6830
  562MOL0     H74159  12.846   3.339   0.210  0.3128 -0.9478 -0.3873
  562MOL0     H74160  12.789   3.176   0.025 -1.3093 -2.1884  0.0207
  562MOL0     H74161  12.831   3.043   0.146 -0.9674 -0.4366  0.2988
  562MOL0     H74162  13.032   3.273   0.027 -1.7892 -1.8021 -2.0861
  562MOL0     H74163  13.048   3.166   0.167 -0.1961  1.8937  1.2499
  562MOL0     H74164  13.027   2.968   0.009  2.0492 -0.4259  0.1558
  562MOL0     H74165  13.149   3.075  -0.047  0.0808 -3.7902  0.8869
  562MOL0     H74166  12.133   3.363  -0.056 -0.4636 -0.9939 -0.7105
  562MOL0     H74167  11.960   3.510  -0.126  1.3318  0.8879  0.1171
  562MOL0     H74168  11.644   3.838   0.030 -0.3030  1.9136 -1.4496
  562MOL0     H74169  11.449   3.961  -0.010  0.6975 -0.0933  1.8273
  562MOL0     H74170  10.805   5.631   0.637  0.1145  1.0629  0.8695
  562MOL0     H74171  10.970   5.797   0.709 -1.5886  1.4357  1.8495
  562MOL0     H74172  11.232   5.864   1.098  3.3649 -3.9353  1.0868
  562MOL0     H74173  11.375   6.003   1.243  2.1049  2.3276  0.4412
  562MOL0     H74174  11.538   6.139   1.362  0.6500  2.3389  0.7476
  562MOL0     H74175  11.407   6.238   1.284  1.0673  2.6459 -1.2859
  562MOL0     H74176  11.685   6.318   1.343  0.5290 -1.4268 -0.6457
  562MOL0     H74177  11.586   6.417   1.247 -2.1244 -0.0465  0.0233
  562MOL0     H74178  11.484   6.305   1.514 -0.2085 -0.6473 -1.5425
  562MOL0     H74179  11.424   6.446   1.445 -0.4621  0.2895  1.5374
  562MOL0     H74180  11.690   6.403   1.596  0.5504  2.7581  2.7509
  562MOL0     H74181  11.681   6.538   1.492  1.7935  1.3321  3.8777
  562MOL0     H74182  11.406   6.631   1.815 -1.6764 -2.2108 -0.0152
  562MOL0     H74183  11.587   6.144   0.909 -0.4123  0.5374 -1.5328
  562MOL0     H74184  11.450   6.009   0.753 -1.0994  1.7227 -0.0265
  563MOL0     O74185   3.417   7.086   9.939  0.3083  0.3676 -1.0467
  563MOL0     C74186   3.487   7.140  10.025  0.0215 -0.3597  0.0124
  563MOL0     O74187   3.449   7.192  10.144 -0.5549  0.1293  0.3512
  563MOL0     C74188   3.325   7.142  10.181  0.1354 -0.2501  0.5000
  563MOL0     C74189   3.316   7.045  10.282 -0.4148  0.1179 -0.6698
  563MOL0     C74190   3.188   7.031  10.335  0.0397 -0.5832 -0.1750
  563MOL0     C74191   3.069   7.092  10.288  0.0695 -0.3203  0.1946
  563MOL0     O74192   2.945   7.073  10.341  1.4249 -0.1870 -0.0210
  563MOL0     C74193   2.940   6.980  10.454  0.0720  0.5087  0.2401
  563MOL0     C74194   2.805   6.977  10.527  0.4214  0.2762 -0.3333
  563MOL0     C74195   2.781   7.111  10.592 -0.0181 -0.1203 -0.5682
  563MOL0     C74196   2.646   7.120  10.660 -1.4229  0.6523 -0.0659
  563MOL0     C74197   2.621   7.264  10.710 -0.4484 -0.1052  0.8251
  563MOL0     C74198   2.583   7.358  10.588  0.0553  0.2427 -0.4209
  563MOL0     C74199   2.523   7.494  10.633 -0.3796  0.1658 -0.7605
  563MOL0     C74200   2.628   7.578  10.712 -0.1960 -1.1432 -0.0158
  563MOL0     N74201   2.747   7.631  10.633 -0.7792 -0.3075  0.1895
  563MOL0     C74202   2.754   7.717  10.530 -0.3262 -0.2269  0.2319
  563MOL0     C74203   2.878   7.747  10.520 -0.2803 -0.3575  0.8162
  563MOL0     C74204   2.935   7.848  10.425 -0.0401  0.0984  0.0617
  563MOL0     C74205   2.959   7.982  10.485 -0.7981 -0.7729 -0.3034
  563MOL0     C74206   3.081   7.977  10.570  0.4832 -0.4084  0.0231
  563MOL0     C74207   3.110   8.114  10.639  1.0692 -0.1811 -1.2694
  563MOL0     O74208   3.224   8.122  10.716 -0.1753  0.3549 -0.1547
  563MOL0     C74209   3.336   8.155  10.657 -1.3670 -0.5385  0.8455
  563MOL0     C74210   3.357   8.178  10.519 -0.1406  0.0870 -0.3833
  563MOL0     C74211   3.481   8.226  10.475  0.3359 -0.9314  0.0300
  563MOL0     C74212   3.586   8.259  10.567 -0.5485 -0.3579 -0.0991
  563MOL0     C74213   3.722   8.304  10.520 -0.2116  0.0779  0.3931
  563MOL0     O74214   3.813   8.346  10.619  0.2433 -0.7340 -0.2149
  563MOL0     C74215   3.931   8.402  10.566  0.2370 -0.1812 -0.0374
  563MOL0     C74216   3.955   8.486  10.452 -0.2901 -0.1009 -0.8945
  563MOL0     C74217   4.083   8.528  10.408  0.5892  0.1631 -0.6920
  563MOL0     C74218   4.200   8.484  10.472  0.1702  1.1026 -1.1017
  563MOL0     O74219   4.327   8.520  10.441 -0.2206  0.5496 -0.2036
  563MOL0     C74220   4.409   8.560  10.555  0.1970 -0.1888  0.9496
  563MOL0     C74221   4.513   8.449  10.596 -0.0258  0.7105  0.1494
  563MOL0     C74222   4.580   8.493  10.728 -0.4704  0.3954 -0.3720
  563MOL0     C74223   4.681   8.601  10.698  0.0403  0.4044  0.3792
  563MOL0     C74224   4.780   8.601  10.817  0.4770 -0.9349 -0.6056
  563MOL0     C74225   4.880   8.712  10.792 -0.6252 -0.5433 -0.1320
  563MOL0     C74226   4.997   8.715  10.891 -0.1143  0.0197 -0.7818
  563MOL0     C74227   4.965   8.782  11.027  0.4693  0.5183 -0.0887
  563MOL0    Cl74228   5.126   8.779  11.120  0.1536  0.2240  0.1506
  563MOL0     C74229   4.177   8.398  10.578  0.5276 -0.2201  0.1185
  563MOL0     C74230   4.051   8.351  10.611 -0.3505 -0.0973 -0.2043
  563MOL0     O74231   3.743   8.292  10.402  0.1038  0.2803  0.6190
  563MOL0     C74232   3.569   8.229  10.701 -0.9151 -0.3344 -0.0150
  563MOL0     C74233   3.448   8.174  10.749 -0.1464 -1.0856  0.8520
  563MOL0     N74234   2.963   7.663  10.589  0.1196 -0.5624  0.5719
  563MOL0     N74235   2.878   7.599  10.671 -0.1009 -0.0346 -0.4112
  563MOL0     C74236   3.077   7.184  10.181  0.2901 -0.0281 -0.2365
  563MOL0     C74237   3.210   7.208  10.127 -0.0516  0.2905 -0.7324
  563MOL0     C74238   3.632   7.144  10.000 -0.9917 -1.0556 -0.5678
  563MOL0     C74239   3.686   7.063   9.905 -0.0395  0.5841  0.2414
  563MOL0     C74240   3.823   7.077   9.878 -0.2241 -0.2450  0.2245
  563MOL0     C74241   3.907   7.164   9.940  0.4460  0.0849 -0.2903
  563MOL0     O74242   4.045   7.174   9.910 -0.2450  0.3253 -0.1059
  563MOL0     C74243   4.092   7.134   9.784  0.3254  0.9006  1.0801
  563MOL0     C74244   4.227   7.200   9.745 -0.2064  0.6700  0.7088
  563MOL0     C74245   4.359   7.147   9.807  0.3178  0.3607 -0.1765
  563MOL0     C74246   4.405   7.251   9.910  0.0853 -0.0072 -0.1279
  563MOL0     C74247   4.469   7.359   9.834 -0.3572 -0.0587  0.3123
  563MOL0     C74248   4.499   7.460   9.787 -0.9272 -0.0442  0.2154
  563MOL0     C74249   3.856   7.236  10.055  0.5549  0.3029  0.0893
  563MOL0     C74250   3.717   7.230  10.077 -1.2341 -0.6030 -0.7270
  563MOL0     H74251   3.409   7.001  10.317 -0.7179  1.0500  1.4754
  563MOL0     H74252   3.181   6.960  10.417 -1.9527 -0.9083 -0.5775
  563MOL0     H74253   3.013   7.006  10.531  2.6762  1.6117 -2.4097
  563MOL0     H74254   2.968   6.879  10.423 -1.5499 -0.5079  1.8917
  563MOL0     H74255   2.806   6.891  10.595 -2.8023 -1.0523 -1.7275
  563MOL0     H74256   2.727   6.960  10.451 -1.9768 -0.2991  2.1087
  563MOL0     H74257   2.790   7.190  10.517 -0.6405  1.5599  1.0516
  563MOL0     H74258   2.865   7.129  10.659 -0.4640  0.7541 -0.2357
  563MOL0     H74259   2.566   7.073  10.602  0.8339  0.9642 -3.7160
  563MOL0     H74260   2.655   7.064  10.754  0.8348 -0.7329 -1.0201
  563MOL0     H74261   2.719   7.293  10.748  1.1514  1.9525 -4.0747
  563MOL0     H74262   2.536   7.256  10.778 -3.0270  0.9473 -2.0096
  563MOL0     H74263   2.517   7.302  10.521  0.7342  0.4710 -1.2958
  563MOL0     H74264   2.674   7.377  10.531  1.2089 -1.3772  0.7705
  563MOL0     H74265   2.482   7.567  10.563  0.0681 -0.6357 -1.8879
  563MOL0     H74266   2.453   7.470  10.713  0.4120 -0.6101 -0.2824
  563MOL0     H74267   2.658   7.523  10.801  1.3200 -1.3676 -0.6304
  563MOL0     H74268   2.589   7.675  10.745  0.4005 -0.0018 -2.3991
  563MOL0     H74269   2.677   7.774  10.479 -2.1953 -1.5586  1.4293
  563MOL0     H74270   2.873   7.860  10.337  1.0604 -2.1704 -1.1044
  563MOL0     H74271   3.027   7.814  10.376  0.0130  1.0039 -0.4957
  563MOL0     H74272   2.868   8.016  10.536  0.5041  2.2896  0.2299
  563MOL0     H74273   2.980   8.054  10.405 -1.3813  0.5242  0.6696
  563MOL0     H74274   3.068   7.913  10.658 -1.8310 -2.3757 -1.6183
  563MOL0     H74275   3.168   7.939  10.515  2.0349 -0.3405  2.2966
  563MOL0     H74276   3.029   8.131  10.711  0.6354  0.8243 -1.9880
  563MOL0     H74277   3.099   8.199  10.572 -2.4672  1.5868  1.2320
  563MOL0     H74278   3.280   8.173  10.443  0.9458 -1.0418 -1.4669
  563MOL0     H74279   3.490   8.226  10.366  1.5565 -2.9290  0.0856
  563MOL0     H74280   3.868   8.532  10.407 -0.5456 -0.9084 -1.2285
  563MOL0     H74281   4.089   8.606  10.333  2.9120  3.6180  2.6906
  563MOL0     H74282   4.339   8.580  10.636 -1.5886 -0.8334 -0.3621
  563MOL0     H74283   4.461   8.652  10.529  1.7551 -1.0755  0.8275
  563MOL0     H74284   4.579   8.423  10.513 -1.0439 -1.1894 -0.1142
  563MOL0     H74285   4.462   8.353  10.606  2.6320 -0.6552  1.6548
  563MOL0     H74286   4.624   8.410  10.783 -1.8267  0.7006  1.2456
  563MOL0     H74287   4.501   8.534  10.791  0.0402  1.6543 -0.5134
  563MOL0     H74288   4.736   8.592  10.604 -1.1558 -1.5013 -0.1835
  563MOL0     H74289   4.633   8.698  10.683  0.4254  0.6972  0.9697
  563MOL0     H74290   4.840   8.509  10.827  1.1973 -0.4954 -0.8129
  563MOL0     H74291   4.720   8.609  10.908 -2.0399  2.8271 -2.3525
  563MOL0     H74292   4.813   8.798  10.800  1.0594  0.9597 -1.3527
  563MOL0     H74293   4.919   8.710  10.690  2.1097 -0.3634  0.8270
  563MOL0     H74294   5.041   8.617  10.909  1.4439  0.2760 -2.7773
  563MOL0     H74295   5.082   8.766  10.844 -0.1626  0.9846  0.1401
  563MOL0     H74296   4.883   8.735  11.083 -0.6501  1.8131 -0.5783
  563MOL0     H74297   4.945   8.889  11.013 -2.7000  0.3093  1.8345
  563MOL0     H74298   4.265   8.362  10.631  1.3048  2.2021  0.5953
  563MOL0     H74299   4.052   8.266  10.678 -1.3349 -0.4167 -0.5727
  563MOL0     H74300   3.653   8.231  10.769  0.1340 -2.8326 -1.0784
  563MOL0     H74301   3.443   8.149  10.855  5.2427 -1.7961  1.1922
  563MOL0     H74302   3.011   7.255  10.132  0.8826  2.6386  2.5191
  563MOL0     H74303   3.202   7.283  10.049 -0.0168 -1.3301 -2.3447
  563MOL0     H74304   3.620   6.999   9.846  1.4965 -1.8110  1.0084
  563MOL0     H74305   3.864   7.020   9.796 -3.8520 -0.7046 -1.4644
  563MOL0     H74306   4.031   7.170   9.701  0.4945  1.2080  1.0896
  563MOL0     H74307   4.111   7.026   9.781  0.9603  0.9547  2.5466
  563MOL0     H74308   4.241   7.185   9.637  3.3084  1.1264  0.9702
  563MOL0     H74309   4.218   7.308   9.749 -0.9209  0.6155  0.7560
  563MOL0     H74310   4.421   7.130   9.719 -0.8504  0.5512 -1.0688
  563MOL0     H74311   4.341   7.051   9.856  1.2213 -0.1515 -0.8327
  563MOL0     H74312   4.323   7.287   9.973  0.7090  0.6872  0.3017
  563MOL0     H74313   4.478   7.205   9.977  0.6059  1.2018  0.1505
  563MOL0     H74314   4.509   7.560   9.749  1.0199 -0.2368  0.1646
  563MOL0     H74315   3.926   7.299  10.109 -0.5442  2.4289 -0.8612
  563MOL0     H74316   3.686   7.295  10.159  0.2116 -0.2011 -0.4569
  564MOL0     O74317   0.341   4.824   0.462  0.1230 -0.0201 -0.3735
  564MOL0     C74318   0.308   4.778   0.356  0.3808 -0.1767 -0.1451
  564MOL0     O74319   0.174   4.760   0.311 -0.8472  0.7701 -0.2107
  564MOL0     C74320   0.062   4.799   0.380  0.0342 -0.3809  0.3188
  564MOL0     C74321  -0.056   4.741   0.336  0.2172 -0.3118  0.2362
  564MOL0     C74322  -0.176   4.786   0.391  0.8237  0.9108 -0.2230
  564MOL0     C74323  -0.178   4.900   0.470  0.1863 -0.6913  0.1630
  564MOL0     O74324  -0.309   4.941   0.501  0.1327 -0.9339 -0.2130
  564MOL0     C74325  -0.335   4.942   0.636 -0.2917  0.6710 -0.1055
  564MOL0     C74326  -0.371   4.805   0.700 -0.7450  0.0948  0.8731
  564MOL0     C74327  -0.508   4.741   0.638  0.2104 -0.3811  0.5053
  564MOL0     C74328  -0.626   4.823   0.682  0.0223 -0.2984  0.1198
  564MOL0     C74329  -0.756   4.737   0.666  0.2843  0.1458  0.0900
  564MOL0     C74330  -0.770   4.696   0.515  0.1496 -0.6551  0.0841
  564MOL0     C74331  -0.917   4.666   0.476  0.4702 -0.0972 -0.4694
  564MOL0     C74332  -0.941   4.582   0.347 -0.1787  0.9209  0.2599
  564MOL0     N74333  -0.866   4.456   0.339  0.4537 -0.2279 -0.1704
  564MOL0     C74334  -0.876   4.358   0.435 -0.1285 -0.5425 -0.0767
  564MOL0     C74335  -0.779   4.272   0.407 -0.6393  0.8898 -0.3320
  564MOL0     C74336  -0.741   4.147   0.486  0.4488  0.8393  0.7941
  564MOL0     C74337  -0.841   4.104   0.587 -0.3863  1.0563  0.0977
  564MOL0     C74338  -0.978   4.044   0.524  0.9088  0.0467 -0.2745
  564MOL0     C74339  -1.057   3.965   0.620 -0.2158 -0.0311 -0.0695
  564MOL0     O74340  -1.130   4.052   0.701  0.1242  0.7079 -0.4262
  564MOL0     C74341  -1.264   4.050   0.705 -0.3670  0.4594 -0.1700
  564MOL0     C74342  -1.329   3.992   0.820  1.2274 -0.1550  1.1266
  564MOL0     C74343  -1.474   3.974   0.812 -0.5113 -0.2963 -0.4967
  564MOL0     C74344  -1.548   4.009   0.697 -0.3162 -0.5082 -0.7540
  564MOL0     C74345  -1.691   3.972   0.703 -0.6391  0.5011 -0.7395
  564MOL0     O74346  -1.744   3.952   0.585  0.1672  0.4198  0.4557
  564MOL0     C74347  -1.866   3.901   0.559  0.8470 -0.4304  0.3770
  564MOL0     C74348  -1.901   3.880   0.424  0.4206  0.4885  0.4068
  564MOL0     C74349  -2.025   3.835   0.380 -0.0837  0.2854  0.3229
  564MOL0     C74350  -2.126   3.829   0.465  0.3379  0.0439 -0.3174
  564MOL0     O74351  -2.249   3.795   0.412  0.1437 -0.1680  1.0140
  564MOL0     C74352  -2.363   3.754   0.500  0.1875 -0.2070  0.6708
  564MOL0     C74353  -2.482   3.728   0.414 -0.4568 -0.7619  0.4320
  564MOL0     C74354  -2.460   3.599   0.338 -0.4880  0.1523 -0.6750
  564MOL0     C74355  -2.586   3.548   0.269 -0.6137 -0.3409 -0.1433
  564MOL0     C74356  -2.559   3.448   0.157  0.2599  0.2533  0.9405
  564MOL0     C74357  -2.464   3.335   0.185 -0.1644  0.3970 -0.5191
  564MOL0     C74358  -2.448   3.233   0.067  0.4694 -0.6458  0.2994
  564MOL0     C74359  -2.330   3.137   0.059 -0.2753 -0.1054 -0.0977
  564MOL0    Cl74360  -2.318   3.030   0.189 -0.4460  0.3287 -0.0148
  564MOL0     C74361  -2.104   3.858   0.598  0.1107  0.5409  0.4349
  564MOL0     C74362  -1.983   3.893   0.641 -0.4724 -0.4421 -0.4673
  564MOL0     O74363  -1.743   3.947   0.809  0.0045 -0.2984 -0.3044
  564MOL0     C74364  -1.480   4.058   0.586 -0.6792  0.5993 -0.9190
  564MOL0     C74365  -1.341   4.069   0.587  0.6603  0.2460 -0.4700
  564MOL0     N74366  -0.714   4.308   0.294  1.2208 -0.5946  0.0326
  564MOL0     N74367  -0.773   4.417   0.246 -0.0882 -0.0642 -0.5640
  564MOL0     C74368  -0.068   4.962   0.510  0.1698 -0.4891 -0.7096
  564MOL0     C74369   0.055   4.909   0.462 -0.2197 -0.7506  0.3895
  564MOL0     C74370   0.422   4.744   0.266  0.1997  0.3266  0.5090
  564MOL0     C74371   0.552   4.738   0.307 -0.2728 -0.5530 -0.0120
  564MOL0     C74372   0.646   4.682   0.226  0.7133  0.4666  0.4126
  564MOL0     C74373   0.621   4.648   0.097  0.2510  0.4865  0.2617
  564MOL0     O74374   0.730   4.599   0.030 -0.6542 -0.3471  0.3163
  564MOL0     C74375   0.686   4.531  -0.087  0.8324 -0.4367 -0.3953
  564MOL0     C74376   0.811   4.475  -0.148 -1.3181 -0.5351 -0.1974
  564MOL0     C74377   0.762   4.365  -0.231 -1.0878  0.3659 -1.1949
  564MOL0     C74378   0.854   4.340  -0.347  0.9087  0.3050  0.1031
  564MOL0     C74379   0.986   4.279  -0.316 -0.1271 -0.6336  0.3519
  564MOL0     C74380   1.104   4.259  -0.296  0.0161 -0.5638  0.0485
  564MOL0     C74381   0.490   4.653   0.053  0.7187 -0.4908 -0.6741
  564MOL0     C74382   0.390   4.697   0.139 -0.7604 -1.2151  0.4089
  564MOL0     H74383  -0.066   4.669   0.257 -1.9696 -0.1147  0.2670
  564MOL0     H74384  -0.268   4.746   0.350  0.7440  1.1612 -0.2903
  564MOL0     H74385  -0.415   5.012   0.664 -1.2300 -1.5027  3.2155
  564MOL0     H74386  -0.253   4.982   0.696 -2.1621  0.4903  2.7858
  564MOL0     H74387  -0.388   4.801   0.807  0.0125  5.3772  1.4547
  564MOL0     H74388  -0.293   4.732   0.678  0.2428  2.0586 -3.0827
  564MOL0     H74389  -0.517   4.635   0.661 -0.8851 -0.2836  0.5921
  564MOL0     H74390  -0.508   4.756   0.529  2.5334  1.9235  0.7417
  564MOL0     H74391  -0.606   4.866   0.780 -2.0725  1.6674 -0.2377
  564MOL0     H74392  -0.623   4.904   0.607  0.2527 -1.8624 -1.6336
  564MOL0     H74393  -0.847   4.786   0.702 -1.5934 -0.5860 -3.2288
  564MOL0     H74394  -0.776   4.647   0.726  1.3755  0.6621  1.2794
  564MOL0     H74395  -0.718   4.600   0.505 -0.0992 -0.9714  1.6396
  564MOL0     H74396  -0.727   4.773   0.451 -1.7528 -0.5886 -1.2074
  564MOL0     H74397  -0.969   4.613   0.556  2.5001 -2.2834 -0.4727
  564MOL0     H74398  -0.971   4.760   0.458 -0.6535 -0.2323  1.9296
  564MOL0     H74399  -0.908   4.642   0.262 -1.3068 -1.3410 -1.8855
  564MOL0     H74400  -1.047   4.560   0.333  0.0598 -0.4914  0.5086
  564MOL0     H74401  -0.953   4.357   0.511  0.3777  2.1538  0.5602
  564MOL0     H74402  -0.643   4.156   0.534  0.1818  1.9987  1.1470
  564MOL0     H74403  -0.736   4.071   0.408 -0.6407  1.1061  0.4487
  564MOL0     H74404  -0.863   4.185   0.657 -0.3890  0.1938  1.1263
  564MOL0     H74405  -0.791   4.028   0.647 -0.1356 -1.4535 -3.0052
  564MOL0     H74406  -1.034   4.121   0.470  2.4725  1.5325  0.1112
  564MOL0     H74407  -0.957   3.978   0.439  0.5426  0.2563 -0.5314
  564MOL0     H74408  -1.001   3.891   0.678  0.0947  1.5695  1.7661
  564MOL0     H74409  -1.122   3.902   0.558  0.3371  0.3594 -1.0769
  564MOL0     H74410  -1.265   3.962   0.901  2.9397  2.4469  0.8590
  564MOL0     H74411  -1.527   3.937   0.900 -0.4870  0.4644 -0.1584
  564MOL0     H74412  -1.826   3.889   0.347 -1.0675 -3.2445 -1.7507
  564MOL0     H74413  -2.050   3.804   0.279  0.5184 -1.0471  0.5646
  564MOL0     H74414  -2.396   3.835   0.565 -1.7013 -1.6541  1.6187
  564MOL0     H74415  -2.346   3.672   0.570 -3.2064 -1.7502 -0.0647
  564MOL0     H74416  -2.494   3.809   0.343 -0.8787 -0.1159  1.2216
  564MOL0     H74417  -2.579   3.717   0.465 -0.4653 -2.6534  0.0974
  564MOL0     H74418  -2.425   3.514   0.398  1.8510 -0.0243 -2.1362
  564MOL0     H74419  -2.387   3.618   0.258 -1.9581  1.9363 -1.6740
  564MOL0     H74420  -2.658   3.497   0.333 -1.5882  1.9240  0.6666
  564MOL0     H74421  -2.632   3.632   0.214  3.1404  1.1460 -1.3271
  564MOL0     H74422  -2.533   3.498   0.063 -2.0176  1.6296  0.9738
  564MOL0     H74423  -2.658   3.406   0.137  1.2672 -2.8173  1.9158
  564MOL0     H74424  -2.501   3.289   0.277 -1.9086  1.0333 -0.8555
  564MOL0     H74425  -2.364   3.377   0.198 -0.5102  1.9520 -2.3681
  564MOL0     H74426  -2.543   3.180   0.060 -0.6543  1.4162 -1.7955
  564MOL0     H74427  -2.442   3.298  -0.021 -0.7786 -1.3723 -0.3519
  564MOL0     H74428  -2.240   3.199   0.064  0.9039 -1.6980 -0.8154
  564MOL0     H74429  -2.323   3.098  -0.043  0.7900  0.9354 -0.4520
  564MOL0     H74430  -2.176   3.851   0.679  0.5976  1.6750  0.9908
  564MOL0     H74431  -1.972   3.913   0.747 -0.3884 -3.8100  0.2727
  564MOL0     H74432  -1.538   4.079   0.497 -0.0279  1.6860 -1.0997
  564MOL0     H74433  -1.290   4.097   0.495  1.8523 -1.7546 -0.4844
  564MOL0     H74434  -0.077   5.049   0.575 -3.2185 -0.7448 -0.6701
  564MOL0     H74435   0.129   4.987   0.483 -1.1799 -0.4545  2.9709
  564MOL0     H74436   0.581   4.784   0.401 -2.6757  0.9663  0.0773
  564MOL0     H74437   0.746   4.680   0.268 -0.0763  2.6986  2.7318
  564MOL0     H74438   0.642   4.599  -0.161  0.0156 -0.4193  0.0955
  564MOL0     H74439   0.617   4.454  -0.053 -0.4878 -0.5532 -3.0759
  564MOL0     H74440   0.863   4.539  -0.219  0.4942 -4.6129 -2.9653
  564MOL0     H74441   0.879   4.428  -0.076 -3.3144  0.2284  2.3646
  564MOL0     H74442   0.662   4.392  -0.268 -2.9096 -2.2278  1.4411
  564MOL0     H74443   0.754   4.272  -0.174  1.5878  0.6709 -0.1767
  564MOL0     H74444   0.790   4.294  -0.423  2.0079  1.6053 -1.6599
  564MOL0     H74445   0.878   4.427  -0.408  1.3162 -1.2566 -2.0417
  564MOL0     H74446   1.204   4.232  -0.265  1.1845  2.2829 -0.8535
  564MOL0     H74447   0.462   4.638  -0.051 -1.1725 -0.0549 -0.2695
  564MOL0     H74448   0.295   4.700   0.087 -1.3482 -0.5125  1.4922
  565MOL0     O74449   1.106   5.342   8.037  0.1481  0.2345 -0.1571
  565MOL0     C74450   1.103   5.467   8.042 -0.1543  1.0955  0.1419
  565MOL0     O74451   0.998   5.543   8.064  0.7007  0.0790 -0.4463
  565MOL0     C74452   0.876   5.482   8.077 -0.2854 -0.1630  0.1342
  565MOL0     C74453   0.833   5.363   8.024  0.3071 -0.0779  0.2880
  565MOL0     C74454   0.699   5.323   8.035 -0.5900 -0.0723 -0.4767
  565MOL0     C74455   0.618   5.399   8.115  0.7423  0.9473 -0.6641
  565MOL0     O74456   0.503   5.337   8.151 -0.6979  0.0366 -0.6360
  565MOL0     C74457   0.410   5.411   8.235 -0.0526 -0.4780  0.3461
  565MOL0     C74458   0.446   5.390   8.383 -0.0061 -0.4052 -0.0564
  565MOL0     C74459   0.470   5.248   8.429 -0.2931 -0.3359  0.5562
  565MOL0     C74460   0.347   5.161   8.406  0.5674  0.5288  0.0564
  565MOL0     C74461   0.375   5.025   8.461  0.5638 -0.1023 -0.7567
  565MOL0     C74462   0.259   4.931   8.432  0.5601 -0.1446 -0.2675
  565MOL0     C74463   0.300   4.786   8.454 -0.4861 -0.0550 -0.2594
  565MOL0     C74464   0.221   4.684   8.370  0.0903  1.0048 -0.2750
  565MOL0     N74465   0.109   4.632   8.453  0.7444 -0.6615 -0.2337
  565MOL0     C74466  -0.022   4.658   8.455  0.1996  0.4791  0.4165
  565MOL0     C74467  -0.076   4.585   8.559  0.0681 -0.1674  1.1352
  565MOL0     C74468  -0.212   4.587   8.620 -0.6820  0.1547 -0.6782
  565MOL0     C74469  -0.337   4.548   8.526  0.2414  0.3996  0.1830
  565MOL0     C74470  -0.347   4.393   8.521  0.4457  0.3450 -0.2886
  565MOL0     C74471  -0.470   4.363   8.417  0.8046  1.3048  0.0223
  565MOL0     O74472  -0.586   4.402   8.495 -0.6984 -0.0146  0.7357
  565MOL0     C74473  -0.710   4.383   8.442 -0.6000  0.0940  0.8309
  565MOL0     C74474  -0.817   4.413   8.509 -1.2272 -0.2653 -0.1096
  565MOL0     C74475  -0.948   4.399   8.455 -0.8511 -0.8096 -0.5179
  565MOL0     C74476  -0.966   4.349   8.329  0.1445 -0.6072  1.4894
  565MOL0     C74477  -1.104   4.343   8.276 -1.0111 -0.2282  0.5233
  565MOL0     O74478  -1.210   4.341   8.373  0.8601  0.6729  0.1168
  565MOL0     C74479  -1.340   4.317   8.331  0.9684 -0.2628  0.1189
  565MOL0     C74480  -1.436   4.426   8.299 -0.5687 -0.0732  0.1302
  565MOL0     C74481  -1.566   4.401   8.268 -0.6718  0.0037  0.7715
  565MOL0     C74482  -1.614   4.269   8.244 -1.2051 -0.6119  0.0278
  565MOL0     O74483  -1.740   4.243   8.202  0.6774  0.0189 -0.9781
  565MOL0     C74484  -1.779   4.304   8.074 -0.5898  0.8717  0.6944
  565MOL0     C74485  -1.726   4.242   7.945  0.0851  0.0920 -0.2000
  565MOL0     C74486  -1.763   4.315   7.810 -0.3866  0.0837 -1.0463
  565MOL0     C74487  -1.734   4.228   7.693 -0.3010 -0.3035  0.6952
  565MOL0     C74488  -1.752   4.299   7.558  0.8488  0.4971 -0.0166
  565MOL0     C74489  -1.661   4.423   7.535  0.8829 -1.1150 -0.0827
  565MOL0     C74490  -1.516   4.400   7.527  0.2774  0.5600  1.2545
  565MOL0     C74491  -1.438   4.513   7.461 -0.1085 -0.1535 -0.5797
  565MOL0    Cl74492  -1.478   4.510   7.293  0.5137  0.2505  0.4270
  565MOL0     C74493  -1.533   4.158   8.274  0.5640 -0.2908  0.4009
  565MOL0     C74494  -1.396   4.186   8.310  0.8437 -0.0445  0.0990
  565MOL0     O74495  -1.119   4.355   8.156 -0.7478 -0.4111  0.8659
  565MOL0     C74496  -0.852   4.323   8.249  0.2250 -0.5248 -0.1126
  565MOL0     C74497  -0.729   4.338   8.306 -0.4566 -0.2095  0.2850
  565MOL0     N74498   0.022   4.509   8.617  0.1907  0.4315  0.2491
  565MOL0     N74499   0.129   4.540   8.547 -0.5604 -0.1896  0.3715
  565MOL0     C74500   0.659   5.523   8.166  0.4457  0.2093  0.0590
  565MOL0     C74501   0.786   5.569   8.139  0.4244 -0.2046  0.5190
  565MOL0     C74502   1.245   5.533   8.037  0.3893  0.5226  0.3200
  565MOL0     C74503   1.266   5.671   8.056  0.3481 -0.8002  0.7168
  565MOL0     C74504   1.387   5.738   8.052 -0.0672  0.1291 -0.4005
  565MOL0     C74505   1.506   5.656   8.045  0.2271 -0.8174 -0.1397
  565MOL0     O74506   1.617   5.727   8.074 -0.1261  0.5115 -0.0163
  565MOL0     C74507   1.741   5.654   8.058 -0.2024 -0.7205 -0.2833
  565MOL0     C74508   1.848   5.734   8.126  0.0617 -0.7075  0.4156
  565MOL0     C74509   1.878   5.853   8.050  0.0262 -0.2710  0.7407
  565MOL0     C74510   2.011   5.917   8.094 -0.2881  0.2941  0.3195
  565MOL0     C74511   1.997   6.060   8.054 -0.7659  0.3439  0.4948
  565MOL0     C74512   1.978   6.178   8.023 -0.0674  0.8601  0.0790
  565MOL0     C74513   1.493   5.517   8.022 -0.1131  0.1213 -0.3757
  565MOL0     C74514   1.366   5.459   8.016 -0.6753 -0.8830 -0.1384
  565MOL0     H74515   0.894   5.303   7.957  0.4501  0.1884  0.1789
  565MOL0     H74516   0.671   5.228   7.990  2.7224 -1.3385 -0.1858
  565MOL0     H74517   0.308   5.374   8.225  0.1763 -0.9461 -0.3030
  565MOL0     H74518   0.399   5.515   8.204 -2.2628 -0.8591 -0.3639
  565MOL0     H74519   0.367   5.448   8.432  0.3880 -0.5483  0.7757
  565MOL0     H74520   0.544   5.439   8.387 -0.7242  1.1655 -0.7092
  565MOL0     H74521   0.503   5.251   8.534  0.7484 -2.5610  0.3414
  565MOL0     H74522   0.552   5.207   8.371 -1.3191 -0.7144 -0.6809
  565MOL0     H74523   0.258   5.199   8.457 -1.1237  0.3336 -2.5300
  565MOL0     H74524   0.318   5.168   8.300 -0.1839 -0.7694  0.1614
  565MOL0     H74525   0.389   5.020   8.569 -0.5740  0.6780 -0.5465
  565MOL0     H74526   0.462   4.986   8.407 -0.9879 -3.6199 -0.9423
  565MOL0     H74527   0.225   4.963   8.334  0.7365  1.1789  0.0897
  565MOL0     H74528   0.174   4.946   8.499  1.4253 -0.1895  0.8777
  565MOL0     H74529   0.407   4.782   8.431  0.2042 -1.7853  2.7241
  565MOL0     H74530   0.283   4.771   8.561 -0.2639 -2.6615 -0.5118
  565MOL0     H74531   0.279   4.595   8.343 -1.5850  0.4504 -2.3207
  565MOL0     H74532   0.195   4.733   8.276 -0.8364 -2.0570 -1.7692
  565MOL0     H74533  -0.071   4.727   8.387  1.5411  1.8407  0.7877
  565MOL0     H74534  -0.223   4.691   8.653  1.4137 -0.4819  2.5666
  565MOL0     H74535  -0.204   4.528   8.712  1.7626  3.0206  1.1352
  565MOL0     H74536  -0.328   4.590   8.426  1.1980 -0.2377 -0.0171
  565MOL0     H74537  -0.426   4.587   8.576  1.7156  3.9398  0.3014
  565MOL0     H74538  -0.249   4.351   8.497  1.8145  3.2737 -0.2460
  565MOL0     H74539  -0.381   4.358   8.619 -0.6089  1.7319 -0.1379
  565MOL0     H74540  -0.467   4.255   8.401  0.5950  0.7834  2.8893
  565MOL0     H74541  -0.466   4.418   8.322 -0.2819 -0.0130 -0.8233
  565MOL0     H74542  -0.803   4.448   8.611  0.8891 -1.8099  0.1983
  565MOL0     H74543  -1.023   4.426   8.528 -0.5154 -1.1473 -0.0459
  565MOL0     H74544  -1.418   4.533   8.299 -2.0843  0.3106 -2.9913
  565MOL0     H74545  -1.630   4.487   8.252  1.0574  1.0560 -0.7988
  565MOL0     H74546  -1.762   4.412   8.077 -2.5226  1.7481 -5.2340
  565MOL0     H74547  -1.888   4.295   8.067 -0.5424 -0.1368  1.0858
  565MOL0     H74548  -1.767   4.141   7.948  0.6522 -0.1236  0.8444
  565MOL0     H74549  -1.618   4.229   7.958 -0.1682 -2.7733 -0.3914
  565MOL0     H74550  -1.720   4.415   7.806  1.4184 -0.5782  0.4452
  565MOL0     H74551  -1.872   4.325   7.817 -0.4314 -0.7862 -0.2505
  565MOL0     H74552  -1.630   4.193   7.694 -0.2512 -0.4760 -2.3256
  565MOL0     H74553  -1.797   4.139   7.685  0.6477 -1.1201  1.9567
  565MOL0     H74554  -1.858   4.319   7.541  0.1108 -0.6186  2.6997
  565MOL0     H74555  -1.726   4.225   7.481 -1.1155 -1.9303  1.4925
  565MOL0     H74556  -1.693   4.498   7.608 -1.0880 -0.7683 -1.2255
  565MOL0     H74557  -1.700   4.457   7.439  1.3442 -1.4337 -0.3866
  565MOL0     H74558  -1.475   4.389   7.628  0.4428  0.0643  1.1355
  565MOL0     H74559  -1.507   4.303   7.479 -4.2112 -0.0906  1.2845
  565MOL0     H74560  -1.334   4.489   7.485 -0.2027 -1.4014 -1.2940
  565MOL0     H74561  -1.467   4.611   7.498  1.2483  0.3077 -0.6805
  565MOL0     H74562  -1.563   4.054   8.271 -0.6743  0.0761 -0.3782
  565MOL0     H74563  -1.342   4.094   8.327 -0.1635 -1.6687 -4.2503
  565MOL0     H74564  -0.849   4.294   8.144 -1.2449 -2.0308  0.2213
  565MOL0     H74565  -0.644   4.320   8.241 -1.2136  3.1112 -1.8885
  565MOL0     H74566   0.591   5.582   8.227 -0.4101 -1.7923  1.1437
  565MOL0     H74567   0.822   5.661   8.184 -1.2115  1.4600 -1.3653
  565MOL0     H74568   1.180   5.737   8.065  0.0242 -1.2358  0.8004
  565MOL0     H74569   1.395   5.845   8.069  2.7793 -0.3548  2.2450
  565MOL0     H74570   1.755   5.623   7.954  1.8235  0.2943 -0.3734
  565MOL0     H74571   1.741   5.557   8.108 -0.7106 -0.2907  0.5723
  565MOL0     H74572   1.823   5.754   8.230  0.7231  0.6608  0.3281
  565MOL0     H74573   1.938   5.672   8.123  0.7721  0.2936 -2.1369
  565MOL0     H74574   1.794   5.922   8.060  0.1118  0.0505 -0.5598
  565MOL0     H74575   1.901   5.821   7.948  2.1279  1.8594  0.4545
  565MOL0     H74576   2.043   5.894   8.196  0.8104 -3.6258 -0.7446
  565MOL0     H74577   2.091   5.866   8.040 -1.2895 -0.8925 -0.0946
  565MOL0     H74578   1.961   6.273   7.978 -0.6241  0.0945 -1.3838
  565MOL0     H74579   1.575   5.446   8.016  0.1877  0.2731  1.4506
  565MOL0     H74580   1.348   5.352   8.017 -2.0025 -0.6828 -0.1062
  566MOL0     O74581   4.057   3.672   8.732 -0.2125  0.4018 -0.7620
  566MOL0     C74582   4.076   3.683   8.619  0.9148 -0.1220 -0.7656
  566MOL0     O74583   3.980   3.649   8.523  0.2579 -0.3970 -0.0190
  566MOL0     C74584   3.866   3.583   8.554 -0.3699  0.3894 -0.6573
  566MOL0     C74585   3.751   3.637   8.518  0.7260  0.3983  0.2856
  566MOL0     C74586   3.627   3.572   8.551  0.0635 -0.4692 -0.3296
  566MOL0     C74587   3.636   3.456   8.625 -0.0294 -0.7245  0.3447
  566MOL0     O74588   3.514   3.396   8.654 -0.2485  1.0628 -0.3408
  566MOL0     C74589   3.469   3.385   8.792 -0.4787  0.3683 -0.1005
  566MOL0     C74590   3.315   3.373   8.812  1.0478 -0.2851  0.9482
  566MOL0     C74591   3.253   3.496   8.737 -1.0578  0.2545 -0.3011
  566MOL0     C74592   3.104   3.504   8.755  0.4609  0.7437 -0.5576
  566MOL0     C74593   3.036   3.595   8.652  0.8559  0.2530 -0.4023
  566MOL0     C74594   2.882   3.584   8.676  0.5650  0.1918  0.2417
  566MOL0     C74595   2.807   3.670   8.587  0.8483 -0.0450  0.9901
  566MOL0     C74596   2.748   3.610   8.453 -0.9221  0.4717 -0.3160
  566MOL0     N74597   2.856   3.551   8.369 -0.0169  0.6865 -0.1200
  566MOL0     C74598   2.937   3.614   8.278  0.6323  0.0621 -0.7668
  566MOL0     C74599   3.006   3.514   8.209  0.5145 -0.1501  0.0344
  566MOL0     C74600   3.114   3.552   8.117 -0.4401  0.5152  0.6486
  566MOL0     C74601   3.097   3.678   8.034 -0.2884 -0.3895 -0.1621
  566MOL0     C74602   3.223   3.700   7.941 -0.0328  0.0400 -0.5544
  566MOL0     C74603   3.227   3.850   7.895 -0.8400 -0.1525  0.0875
  566MOL0     O74604   3.232   3.950   7.995  0.1430  0.1381 -0.2849
  566MOL0     C74605   3.359   3.958   8.061 -0.9080 -0.7291 -0.1320
  566MOL0     C74606   3.477   3.893   8.026 -0.1837  0.0652 -0.2977
  566MOL0     C74607   3.580   3.905   8.112 -0.4935 -0.3833 -0.3400
  566MOL0     C74608   3.576   3.995   8.224 -0.1459 -0.8058  0.1157
  566MOL0     C74609   3.700   4.021   8.303  0.2333  0.1107 -0.0673
  566MOL0     O74610   3.690   4.106   8.409  0.1913 -0.8183  0.3947
  566MOL0     C74611   3.810   4.155   8.469 -0.2221 -0.0895 -0.0494
  566MOL0     C74612   3.793   4.208   8.594  0.8164 -0.7522  0.5684
  566MOL0     C74613   3.891   4.268   8.667 -0.0557  0.6962  0.9260
  566MOL0     C74614   4.011   4.282   8.604 -0.1741 -0.6669 -0.1240
  566MOL0     O74615   4.115   4.331   8.679 -0.4173 -0.1159 -0.1296
  566MOL0     C74616   4.239   4.360   8.618 -1.6754 -0.3892 -0.0542
  566MOL0     C74617   4.302   4.454   8.723 -0.3717  0.1708  0.0700
  566MOL0     C74618   4.429   4.523   8.666  0.7252  0.3938  0.2528
  566MOL0     C74619   4.525   4.589   8.764 -0.4498  0.5058  0.9225
  566MOL0     C74620   4.455   4.669   8.874 -0.4509  0.3808 -1.0084
  566MOL0     C74621   4.434   4.599   9.000 -0.2297 -0.0028 -0.5288
  566MOL0     C74622   4.414   4.699   9.126  0.1526 -0.2251  0.2961
  566MOL0     C74623   4.531   4.787   9.171  0.3058 -0.3973 -0.0926
  566MOL0    Cl74624   4.480   4.863   9.318  0.3097  0.4048 -0.0647
  566MOL0     C74625   4.034   4.239   8.471  0.1557  0.8192  0.3341
  566MOL0     C74626   3.934   4.173   8.403 -0.0057 -0.6965 -0.8860
  566MOL0     O74627   3.805   3.952   8.278 -0.3536  0.1984  0.3977
  566MOL0     C74628   3.453   4.066   8.254 -0.3218  0.1679  0.9665
  566MOL0     C74629   3.347   4.052   8.170 -0.8083  0.8760  0.4089
  566MOL0     N74630   2.960   3.390   8.246  0.2847 -0.5836 -0.0583
  566MOL0     N74631   2.872   3.422   8.343 -1.1744  0.9101 -0.3228
  566MOL0     C74632   3.759   3.397   8.662  0.1780 -0.1030 -0.2268
  566MOL0     C74633   3.872   3.463   8.628 -0.0993  0.4102  1.0641
  566MOL0     C74634   4.186   3.774   8.587 -1.6106 -0.3484  0.4071
  566MOL0     C74635   4.180   3.876   8.494  0.7859  0.3792 -0.4168
  566MOL0     C74636   4.285   3.970   8.466  0.7092 -0.1361  0.1507
  566MOL0     C74637   4.398   3.959   8.545  0.1697 -0.2817  0.5127
  566MOL0     O74638   4.488   4.058   8.516 -0.6069 -0.1417  0.3585
  566MOL0     C74639   4.588   4.092   8.614 -0.0809 -0.4373 -0.2203
  566MOL0     C74640   4.678   4.205   8.562 -0.2573 -0.5673  0.5625
  566MOL0     C74641   4.822   4.156   8.527 -1.0690 -0.0760 -0.3096
  566MOL0     C74642   4.913   4.165   8.651 -0.6422  1.0165 -0.7430
  566MOL0     C74643   4.945   4.303   8.683 -0.0770  0.0851  0.4330
  566MOL0     C74644   4.984   4.413   8.704  0.2866  0.1833 -0.5604
  566MOL0     C74645   4.413   3.866   8.643 -0.7654 -0.5470 -0.0659
  566MOL0     C74646   4.305   3.773   8.663 -0.0375  0.5431  0.2600
  566MOL0     H74647   3.746   3.722   8.450 -1.2923  0.2671  0.2149
  566MOL0     H74648   3.531   3.612   8.520 -0.1547  0.9225  1.8666
  566MOL0     H74649   3.509   3.464   8.856 -0.2334 -0.4787  0.8230
  566MOL0     H74650   3.524   3.295   8.820  2.9593  1.3365 -3.0182
  566MOL0     H74651   3.300   3.374   8.921  1.7119  1.2507  1.0496
  566MOL0     H74652   3.282   3.282   8.762  2.0664  0.2615 -0.7612
  566MOL0     H74653   3.279   3.484   8.632  1.1170  0.0626  0.2023
  566MOL0     H74654   3.298   3.586   8.780  0.8672 -1.9349  2.7767
  566MOL0     H74655   3.061   3.403   8.751  0.8672  0.5031  0.8106
  566MOL0     H74656   3.084   3.538   8.857 -1.8696 -1.6018 -0.0920
  566MOL0     H74657   3.069   3.568   8.552  3.1579  0.4579  0.2231
  566MOL0     H74658   3.063   3.698   8.678  0.8896 -0.8477  5.0960
  566MOL0     H74659   2.866   3.606   8.782  0.2042 -0.1965  0.2706
  566MOL0     H74660   2.853   3.481   8.655  1.1262  0.2037 -0.6245
  566MOL0     H74661   2.720   3.711   8.637 -0.4200 -0.4894 -0.7506
  566MOL0     H74662   2.857   3.765   8.568 -0.2644  0.6955  1.6926
  566MOL0     H74663   2.701   3.696   8.404  2.4320  3.5935  1.4702
  566MOL0     H74664   2.670   3.538   8.481 -0.1159 -0.6787 -0.9295
  566MOL0     H74665   2.931   3.721   8.263 -1.1110  0.1653  0.3246
  566MOL0     H74666   3.127   3.463   8.055 -2.8763  2.5568 -3.1792
  566MOL0     H74667   3.206   3.568   8.174  1.2104  0.5304 -1.8697
  566MOL0     H74668   3.083   3.772   8.089 -0.3662 -1.0588  0.9984
  566MOL0     H74669   3.009   3.662   7.971 -0.0525 -1.0678 -0.3246
  566MOL0     H74670   3.312   3.674   7.998 -1.1803  0.7152  1.6772
  566MOL0     H74671   3.212   3.634   7.854  1.4843 -0.9222 -0.0615
  566MOL0     H74672   3.138   3.869   7.834  0.2324  1.6910 -0.9819
  566MOL0     H74673   3.319   3.859   7.836 -1.0756 -0.6968 -0.3725
  566MOL0     H74674   3.495   3.811   7.957 -0.4279 -0.0356 -0.2415
  566MOL0     H74675   3.667   3.850   8.076 -0.4958 -1.0025  0.5725
  566MOL0     H74676   3.697   4.183   8.639 -1.2165  1.1938 -2.2894
  566MOL0     H74677   3.885   4.298   8.771  1.7381  0.9785  0.9837
  566MOL0     H74678   4.232   4.413   8.523  0.9081  0.2647  0.0260
  566MOL0     H74679   4.306   4.275   8.601  0.8451  1.5501 -0.5318
  566MOL0     H74680   4.327   4.380   8.799  0.9807  1.7134  1.1902
  566MOL0     H74681   4.228   4.527   8.758 -4.0514 -1.6106 -3.1663
  566MOL0     H74682   4.379   4.574   8.584  0.1761  0.2806  0.5123
  566MOL0     H74683   4.497   4.452   8.618  2.7211  1.3776  1.4870
  566MOL0     H74684   4.582   4.510   8.814 -1.9453 -0.1283  1.7063
  566MOL0     H74685   4.593   4.650   8.704 -1.8532 -0.3458 -1.6870
  566MOL0     H74686   4.357   4.704   8.842 -1.7751 -1.8745  0.3543
  566MOL0     H74687   4.520   4.756   8.889  0.3779 -0.5560  1.4212
  566MOL0     H74688   4.525   4.542   9.024 -0.3064 -0.2421 -0.8020
  566MOL0     H74689   4.353   4.527   8.983 -1.2680  0.5172  1.7857
  566MOL0     H74690   4.326   4.761   9.104  0.2697  0.0362  0.5548
  566MOL0     H74691   4.390   4.647   9.218  1.7533  0.3801  1.0986
  566MOL0     H74692   4.555   4.871   9.106  1.2953 -0.0284  0.7341
  566MOL0     H74693   4.623   4.728   9.175  0.4466 -0.2428 -0.9177
  566MOL0     H74694   4.132   4.230   8.425 -0.2587 -2.3447 -0.1884
  566MOL0     H74695   3.945   4.132   8.303 -2.9754 -3.5368 -0.2039
  566MOL0     H74696   3.452   4.133   8.340 -2.5089  2.9659 -1.0515
  566MOL0     H74697   3.251   4.103   8.170 -0.4517  1.5857  1.2435
  566MOL0     H74698   3.770   3.303   8.716 -0.0523 -0.4320 -0.7505
  566MOL0     H74699   3.964   3.407   8.639 -0.2749  0.0954  0.9511
  566MOL0     H74700   4.091   3.885   8.432 -0.3049 -0.1151  1.0443
  566MOL0     H74701   4.280   4.044   8.386  0.6116  2.1931  2.1863
  566MOL0     H74702   4.648   4.004   8.640  1.8716  0.9569  0.2044
  566MOL0     H74703   4.536   4.134   8.701  0.5296  0.3974 -0.2494
  566MOL0     H74704   4.637   4.256   8.474 -1.6828 -3.2784 -0.4490
  566MOL0     H74705   4.681   4.285   8.637  0.3417 -0.5158  0.4853
  566MOL0     H74706   4.860   4.226   8.452 -0.9356 -0.3524 -0.5032
  566MOL0     H74707   4.828   4.050   8.498  0.0462 -0.5548  1.5116
  566MOL0     H74708   4.868   4.120   8.740  0.4406  0.7422 -0.3163
  566MOL0     H74709   5.005   4.109   8.632 -1.8047 -0.7767 -1.3123
  566MOL0     H74710   5.027   4.509   8.724 -0.1500  0.3991 -0.6615
  566MOL0     H74711   4.499   3.871   8.708 -0.9388  0.0154  0.1293
  566MOL0     H74712   4.315   3.697   8.740 -2.8405 -0.4370 -0.2302
  567MOL0     O74713   1.930   4.550   8.467  0.2280  0.2739 -0.6562
  567MOL0     C74714   1.926   4.622   8.372  0.7610  0.1900 -0.5720
  567MOL0     O74715   1.901   4.580   8.243 -0.2242  0.4350  0.2181
  567MOL0     C74716   1.835   4.461   8.208 -0.4050 -0.9900  0.7376
  567MOL0     C74717   1.700   4.445   8.233 -0.5121  0.1928  0.4192
  567MOL0     C74718   1.641   4.324   8.188 -0.2191 -0.1450 -0.4845
  567MOL0     C74719   1.719   4.222   8.132  1.1861 -0.5970 -0.5404
  567MOL0     O74720   1.663   4.102   8.102  0.1862  0.3350 -0.3501
  567MOL0     C74721   1.747   3.993   8.077  0.0495 -1.0147  0.3409
  567MOL0     C74722   1.677   3.860   8.086 -0.6709  0.1496 -1.0055
  567MOL0     C74723   1.770   3.746   8.047  0.0563  0.4822 -0.0039
  567MOL0     C74724   1.835   3.749   7.905  0.5086 -0.5823  0.2259
  567MOL0     C74725   1.739   3.749   7.784 -0.7729  0.1987  0.4129
  567MOL0     C74726   1.829   3.786   7.666 -0.4699 -0.5009 -0.9380
  567MOL0     C74727   1.749   3.795   7.542  0.0903 -0.6506 -0.1528
  567MOL0     C74728   1.832   3.873   7.438  0.7835  0.2370 -1.5160
  567MOL0     N74729   1.744   3.926   7.332 -0.6178  0.0425 -0.0038
  567MOL0     C74730   1.670   4.031   7.333 -0.0545 -0.4104 -0.8246
  567MOL0     C74731   1.607   4.032   7.218 -0.2907 -0.9914 -0.3981
  567MOL0     C74732   1.503   4.139   7.191 -0.7116  0.7646 -0.3261
  567MOL0     C74733   1.555   4.249   7.101  0.2054  0.2036  0.5678
  567MOL0     C74734   1.566   4.220   6.955 -0.0525  0.3552  0.1584
  567MOL0     C74735   1.429   4.173   6.900  0.2525  0.5572  0.7668
  567MOL0     O74736   1.452   4.135   6.759  0.0443 -0.4762 -0.7413
  567MOL0     C74737   1.330   4.119   6.693 -0.0907  0.0569 -0.4823
  567MOL0     C74738   1.335   4.084   6.562  0.4047  0.1104  0.2762
  567MOL0     C74739   1.215   4.066   6.490 -0.1761 -0.3273 -0.2268
  567MOL0     C74740   1.088   4.088   6.542 -0.2352 -0.0391 -0.1979
  567MOL0     C74741   0.968   4.048   6.467  0.3536 -0.2570 -0.2803
  567MOL0     O74742   0.989   4.013   6.329  0.9383 -1.3601 -1.0084
  567MOL0     C74743   0.881   3.960   6.264  0.0395 -0.2368 -0.0276
  567MOL0     C74744   0.865   4.013   6.134  0.9441  0.3004 -0.4945
  567MOL0     C74745   0.767   3.963   6.052  1.0993  0.8756  0.2094
  567MOL0     C74746   0.671   3.869   6.095 -0.3897  0.3385 -0.4655
  567MOL0     O74747   0.575   3.830   6.000  1.0871  0.6684  0.4910
  567MOL0     C74748   0.458   3.749   6.041  0.4941 -0.3456  0.5026
  567MOL0     C74749   0.492   3.600   6.053 -0.6324 -0.6257  0.0676
  567MOL0     C74750   0.363   3.511   6.069 -1.0261 -0.2059  0.1556
  567MOL0     C74751   0.386   3.357   6.033 -0.0425 -0.0650  0.3887
  567MOL0     C74752   0.258   3.272   6.033  0.4840  0.9396 -0.5939
  567MOL0     C74753   0.184   3.294   6.156 -0.1212 -0.0004  0.2853
  567MOL0     C74754   0.067   3.196   6.171  0.7362  0.1068 -0.5910
  567MOL0     C74755   0.114   3.063   6.225  0.1857  0.3096  0.7040
  567MOL0    Cl74756  -0.013   2.941   6.233  0.1215 -0.1353  0.6999
  567MOL0     C74757   0.685   3.820   6.230 -1.0190 -0.7651  0.1346
  567MOL0     C74758   0.790   3.870   6.307  0.3530 -0.3683 -1.2942
  567MOL0     O74759   0.859   4.055   6.517 -0.2913  0.0232 -0.1641
  567MOL0     C74760   1.093   4.130   6.667 -0.0386  0.3335  0.2353
  567MOL0     C74761   1.204   4.135   6.753  0.0648  0.5009  0.1847
  567MOL0     N74762   1.649   3.934   7.140 -0.1447  0.4269 -0.0753
  567MOL0     N74763   1.735   3.866   7.212 -0.4253 -0.4805 -0.5100
  567MOL0     C74764   1.855   4.242   8.104  0.6562  0.3295 -0.1689
  567MOL0     C74765   1.911   4.362   8.144 -0.5700 -0.0898 -0.0321
  567MOL0     C74766   1.971   4.756   8.395 -0.2788 -1.4634 -0.1596
  567MOL0     C74767   1.961   4.853   8.282  0.1638 -1.1990 -0.2949
  567MOL0     C74768   2.013   4.982   8.289  0.5552  0.0689  0.3609
  567MOL0     C74769   2.062   5.027   8.412  0.7363 -0.2223 -0.7084
  567MOL0     O74770   2.098   5.159   8.419  0.3880  0.1167 -0.9184
  567MOL0     C74771   2.197   5.194   8.518 -0.1027 -0.3239  0.6553
  567MOL0     C74772   2.245   5.343   8.491 -0.6791  0.2967  0.3962
  567MOL0     C74773   2.301   5.368   8.352 -0.2061 -0.1591 -0.1201
  567MOL0     C74774   2.357   5.516   8.336  0.1602  0.1418 -0.3160
  567MOL0     C74775   2.252   5.619   8.346 -0.8270  0.5934 -1.1869
  567MOL0     C74776   2.170   5.712   8.377 -0.1837  0.8123  0.2809
  567MOL0     C74777   2.085   4.933   8.519 -0.0782 -0.3487  0.3422
  567MOL0     C74778   2.038   4.798   8.505 -0.0127 -1.1451 -0.0144
  567MOL0     H74779   1.642   4.527   8.275  0.4670  1.8731 -1.3195
  567MOL0     H74780   1.536   4.304   8.201 -0.1904 -1.0563 -1.4853
  567MOL0     H74781   1.828   3.995   8.150  1.7381 -1.3937 -1.4261
  567MOL0     H74782   1.792   4.001   7.978  1.9953  0.3042  1.2670
  567MOL0     H74783   1.582   3.850   8.032 -1.0190 -3.4355 -0.0051
  567MOL0     H74784   1.641   3.858   8.189 -0.6313  0.6445 -0.9794
  567MOL0     H74785   1.722   3.650   8.069  1.6786  0.3492  3.6094
  567MOL0     H74786   1.846   3.758   8.125 -2.3723  2.1802  2.2949
  567MOL0     H74787   1.906   3.831   7.894  0.3152 -0.5672 -1.1335
  567MOL0     H74788   1.902   3.663   7.894 -1.8543 -2.4517 -0.4856
  567MOL0     H74789   1.651   3.812   7.800 -0.8790 -0.1782  1.4214
  567MOL0     H74790   1.697   3.648   7.774  0.3356 -0.4176  1.6407
  567MOL0     H74791   1.915   3.718   7.663  1.0911  1.3676 -0.9042
  567MOL0     H74792   1.878   3.882   7.685 -2.3624  0.1074  1.3990
  567MOL0     H74793   1.730   3.697   7.498  1.1241 -0.8489 -0.1974
  567MOL0     H74794   1.657   3.852   7.556  0.1476  1.0112 -4.8260
  567MOL0     H74795   1.905   3.805   7.393  2.9019  2.0536 -0.9884
  567MOL0     H74796   1.892   3.956   7.477 -0.0066 -0.2950  1.0057
  567MOL0     H74797   1.653   4.095   7.419 -3.1100 -0.7389 -1.0659
  567MOL0     H74798   1.481   4.174   7.292 -1.0351  1.7343 -0.7120
  567MOL0     H74799   1.409   4.095   7.158 -1.5694  1.0580  1.5982
  567MOL0     H74800   1.655   4.281   7.134 -0.1377  0.0823  1.7499
  567MOL0     H74801   1.491   4.337   7.099 -1.6291 -1.0889  0.0306
  567MOL0     H74802   1.612   4.305   6.903  2.9186 -0.7047  0.8459
  567MOL0     H74803   1.642   4.141   6.942  1.3353  1.6531  0.1237
  567MOL0     H74804   1.353   4.249   6.919  0.4089  0.4653  1.8556
  567MOL0     H74805   1.395   4.079   6.946 -0.0199  0.3427  0.1344
  567MOL0     H74806   1.424   4.050   6.511 -0.0956 -2.7581  1.1579
  567MOL0     H74807   1.216   4.022   6.390  0.0514 -1.7071  0.3544
  567MOL0     H74808   0.938   4.084   6.097 -0.6960  1.1097 -2.4014
  567MOL0     H74809   0.763   3.991   5.947 -1.7355  0.6720  0.1740
  567MOL0     H74810   0.381   3.770   5.967  2.2179 -0.1552 -1.3312
  567MOL0     H74811   0.417   3.779   6.137 -1.7480 -3.1941  0.5779
  567MOL0     H74812   0.555   3.581   6.140 -2.2015  0.7746  1.6061
  567MOL0     H74813   0.545   3.571   5.962 -1.8256 -1.9831 -0.2362
  567MOL0     H74814   0.285   3.541   5.998 -2.9006 -2.0180  1.3335
  567MOL0     H74815   0.323   3.527   6.169 -0.1583  0.1087  0.4579
  567MOL0     H74816   0.412   3.343   5.927  2.3917 -2.3660  1.1738
  567MOL0     H74817   0.472   3.312   6.084 -0.1740 -0.9722 -0.1765
  567MOL0     H74818   0.293   3.168   6.026  4.0690  2.0196 -1.1114
  567MOL0     H74819   0.192   3.295   5.949 -0.8663 -0.1885  0.1267
  567MOL0     H74820   0.133   3.391   6.151  0.5347  0.3603  0.4856
  567MOL0     H74821   0.262   3.297   6.232  0.6641  2.7415 -0.5065
  567MOL0     H74822  -0.011   3.228   6.240  0.2844 -1.1465 -0.4901
  567MOL0     H74823   0.022   3.197   6.071  1.0292  0.5875 -0.7227
  567MOL0     H74824   0.166   3.073   6.321  0.2826  0.6089  0.6247
  567MOL0     H74825   0.193   3.030   6.157 -0.4689  1.5651 -0.7086
  567MOL0     H74826   0.615   3.748   6.271  1.6993 -1.8933  3.2674
  567MOL0     H74827   0.824   3.829   6.402 -0.2480 -0.3846 -1.0838
  567MOL0     H74828   1.000   4.174   6.704  0.1200 -0.3783  1.5388
  567MOL0     H74829   1.179   4.171   6.853 -3.1643  2.8885 -1.2819
  567MOL0     H74830   1.920   4.163   8.069  0.9328  0.8893 -0.9401
  567MOL0     H74831   2.018   4.361   8.126 -0.9034 -2.2386 -2.5107
  567MOL0     H74832   1.914   4.812   8.193 -0.1313 -2.2266  0.3183
  567MOL0     H74833   2.019   5.040   8.197  0.7510 -1.1091 -0.3866
  567MOL0     H74834   2.275   5.119   8.503 -0.4557 -0.8747  1.4621
  567MOL0     H74835   2.153   5.196   8.618 -0.8127 -1.1681  0.3697
  567MOL0     H74836   2.157   5.403   8.515 -3.1281 -2.4236 -1.0936
  567MOL0     H74837   2.322   5.376   8.561  0.2699  0.8170 -0.8540
  567MOL0     H74838   2.229   5.341   8.274  0.9251  0.1022 -1.3007
  567MOL0     H74839   2.380   5.293   8.336  2.1016  1.8793  0.9727
  567MOL0     H74840   2.429   5.522   8.417 -0.8277  0.9828  0.5225
  567MOL0     H74841   2.414   5.526   8.243 -2.6654 -1.6318 -2.4283
  567MOL0     H74842   2.099   5.782   8.416 -2.8814 -0.0804 -2.5868
  567MOL0     H74843   2.128   4.952   8.617  0.6242 -1.6060  0.3037
  567MOL0     H74844   2.045   4.730   8.589 -0.2682  0.0642  1.0270
  568MOL0     O74845   1.231   4.702   4.602  0.8209  0.1207  0.0469
  568MOL0     C74846   1.294   4.695   4.713 -0.4006 -0.6882  0.2999
  568MOL0     O74847   1.255   4.741   4.832 -0.2851  0.1549 -0.3315
  568MOL0     C74848   1.120   4.766   4.849 -0.9755  0.4254  0.1577
  568MOL0     C74849   1.068   4.894   4.819 -1.1386  0.5508  0.7584
  568MOL0     C74850   0.931   4.918   4.826 -0.0725  0.2231  0.1633
  568MOL0     C74851   0.837   4.819   4.842  0.8663  0.7300  0.3530
  568MOL0     O74852   0.707   4.855   4.830  0.1415  0.3441  0.5517
  568MOL0     C74853   0.611   4.771   4.898 -0.1283 -0.0928 -0.0235
  568MOL0     C74854   0.476   4.832   4.854  0.4712 -0.6127 -0.5348
  568MOL0     C74855   0.347   4.751   4.899 -0.5908 -0.0288  0.1185
  568MOL0     C74856   0.346   4.618   4.814 -1.2966  0.3314 -0.2916
  568MOL0     C74857   0.223   4.529   4.841 -0.2964 -0.0496  0.0920
  568MOL0     C74858   0.094   4.597   4.790 -0.8163  0.6890 -0.3305
  568MOL0     C74859  -0.038   4.509   4.793  0.4482  1.2001  0.6377
  568MOL0     C74860  -0.032   4.377   4.713 -0.2741  0.8184  0.4432
  568MOL0     N74861  -0.142   4.277   4.742  0.6763 -0.9785  0.9540
  568MOL0     C74862  -0.265   4.296   4.692  0.5630  0.8512  0.5715
  568MOL0     C74863  -0.323   4.171   4.693  0.5412  0.0870  0.6427
  568MOL0     C74864  -0.457   4.141   4.635 -0.6169 -0.8477 -0.1469
  568MOL0     C74865  -0.552   4.061   4.727  0.1149  0.4409  0.3683
  568MOL0     C74866  -0.640   3.972   4.628  0.1910 -0.0297 -0.4880
  568MOL0     C74867  -0.751   3.907   4.705 -0.5609 -0.4693  0.2568
  568MOL0     O74868  -0.832   3.848   4.602  0.6306 -0.5421 -0.5646
  568MOL0     C74869  -0.951   3.808   4.636  0.0763  0.2299  0.0059
  568MOL0     C74870  -0.998   3.781   4.771 -0.8256  0.0369  1.4039
  568MOL0     C74871  -1.120   3.720   4.787  0.1337  0.3334 -0.4686
  568MOL0     C74872  -1.207   3.701   4.682  1.4467  0.2137  0.4832
  568MOL0     C74873  -1.343   3.646   4.689 -0.2307 -0.5099 -1.0606
  568MOL0     O74874  -1.428   3.646   4.588 -0.0294 -0.0809  0.0443
  568MOL0     C74875  -1.529   3.559   4.592 -0.4229 -0.5038 -0.1907
  568MOL0     C74876  -1.543   3.463   4.490  0.7249  0.6755  0.1113
  568MOL0     C74877  -1.649   3.374   4.488  0.3783 -0.9690  0.7202
  568MOL0     C74878  -1.751   3.376   4.583 -0.6548  0.8136 -0.3979
  568MOL0     O74879  -1.870   3.299   4.576 -0.4994  0.1058 -0.2527
  568MOL0     C74880  -1.980   3.386   4.536 -0.2753  0.0334  0.2505
  568MOL0     C74881  -2.102   3.298   4.525 -0.3091 -0.1977  0.7811
  568MOL0     C74882  -2.233   3.381   4.536  0.0321 -0.3494 -0.4929
  568MOL0     C74883  -2.247   3.483   4.660  0.2478  0.5261  1.1861
  568MOL0     C74884  -2.246   3.418   4.797 -0.0747  0.2695  0.4052
  568MOL0     C74885  -2.283   3.517   4.907 -1.2947 -0.5354 -0.3041
  568MOL0     C74886  -2.173   3.625   4.909 -0.4386  0.0941  0.1377
  568MOL0     C74887  -2.190   3.710   5.036  0.1768 -0.4726 -0.2987
  568MOL0    Cl74888  -2.347   3.805   5.022 -0.2386  0.5846 -0.0007
  568MOL0     C74889  -1.738   3.466   4.690 -0.6949 -0.3225 -0.6360
  568MOL0     C74890  -1.628   3.555   4.690  0.1348 -1.1632  0.7432
  568MOL0     O74891  -1.372   3.613   4.804 -0.5042  0.3409  0.2113
  568MOL0     C74892  -1.153   3.725   4.553 -0.2536  0.3100 -0.5293
  568MOL0     C74893  -1.028   3.781   4.535 -0.4461  0.1347  0.0759
  568MOL0     N74894  -0.226   4.077   4.740 -0.5334  0.3451  0.3047
  568MOL0     N74895  -0.124   4.148   4.766  0.2683 -0.3543  1.1120
  568MOL0     C74896   0.893   4.696   4.861 -0.0739 -0.3159 -0.7699
  568MOL0     C74897   1.033   4.671   4.870  0.6185 -0.1362  0.2167
  568MOL0     C74898   1.430   4.638   4.721 -0.0932 -0.2258  0.4335
  568MOL0     C74899   1.473   4.547   4.622  0.0483  0.5786 -0.1450
  568MOL0     C74900   1.601   4.498   4.617 -0.2025  0.0464 -0.6471
  568MOL0     C74901   1.696   4.537   4.716 -0.0632  0.3428  0.4713
  568MOL0     O74902   1.817   4.464   4.697 -0.4733 -1.1557 -0.7510
  568MOL0     C74903   1.920   4.451   4.797 -0.1322  0.0742 -0.7836
  568MOL0     C74904   1.964   4.314   4.763  0.8117  1.0396 -0.6198
  568MOL0     C74905   2.076   4.270   4.849  0.1189  0.7102  0.4252
  568MOL0     C74906   2.139   4.147   4.778  0.4532 -0.2291 -1.2528
  568MOL0     C74907   2.279   4.132   4.830 -1.1101 -1.1202  0.5478
  568MOL0     C74908   2.388   4.109   4.888  1.0606  0.1519 -0.7375
  568MOL0     C74909   1.654   4.623   4.814  0.5021  0.5271 -0.0731
  568MOL0     C74910   1.523   4.674   4.815 -0.5945 -1.4000  1.0474
  568MOL0     H74911   1.137   4.974   4.797  0.9493 -0.6848  2.4612
  568MOL0     H74912   0.895   5.019   4.811  0.1281  1.2985  5.2229
  568MOL0     H74913   0.631   4.781   5.005 -1.5571  0.6346  0.1942
  568MOL0     H74914   0.624   4.668   4.865  0.7058 -0.3278  0.9761
  568MOL0     H74915   0.469   4.848   4.746 -2.5647  0.6752 -0.2317
  568MOL0     H74916   0.479   4.930   4.903 -0.7839 -0.9975  0.3534
  568MOL0     H74917   0.264   4.812   4.864 -0.2550  0.1394 -0.3934
  568MOL0     H74918   0.338   4.735   5.007  0.9707 -2.0088  0.0189
  568MOL0     H74919   0.378   4.631   4.710  1.5225 -1.3533  0.2511
  568MOL0     H74920   0.429   4.554   4.847 -0.0615  2.2563  0.4733
  568MOL0     H74921   0.214   4.521   4.950  0.2784 -0.1744  0.1320
  568MOL0     H74922   0.229   4.427   4.804 -1.0046  0.2047 -0.7553
  568MOL0     H74923   0.102   4.636   4.688 -0.6082 -3.4070 -2.0785
  568MOL0     H74924   0.067   4.684   4.852  1.7068  0.5899  1.0006
  568MOL0     H74925  -0.054   4.491   4.899 -2.5640 -1.5560 -0.1277
  568MOL0     H74926  -0.122   4.563   4.748  2.0071  1.8360 -1.7123
  568MOL0     H74927   0.055   4.321   4.751  0.9472  0.7310 -2.2577
  568MOL0     H74928  -0.012   4.397   4.607 -0.7407 -1.1838 -0.0670
  568MOL0     H74929  -0.310   4.386   4.650  2.8772  1.7057 -0.2332
  568MOL0     H74930  -0.447   4.084   4.542 -0.6755 -2.9721  1.0956
  568MOL0     H74931  -0.499   4.238   4.607  2.5365  1.1099  1.2804
  568MOL0     H74932  -0.620   4.130   4.777  1.2962 -0.4790  3.5345
  568MOL0     H74933  -0.489   4.006   4.798  1.5031  0.0735 -1.0987
  568MOL0     H74934  -0.677   4.036   4.548  1.7407  0.3802 -0.9094
  568MOL0     H74935  -0.586   3.889   4.580 -1.2915 -0.8870 -0.7291
  568MOL0     H74936  -0.810   3.987   4.751 -1.8303 -1.2548  0.0376
  568MOL0     H74937  -0.720   3.824   4.769  1.0677 -0.9619 -1.0647
  568MOL0     H74938  -0.934   3.795   4.858  0.6965  0.0277  0.3339
  568MOL0     H74939  -1.147   3.688   4.888 -1.0961  1.3035 -0.4676
  568MOL0     H74940  -1.465   3.445   4.416  0.5147 -0.4108  0.1422
  568MOL0     H74941  -1.672   3.303   4.409  1.1767 -0.4287 -0.0163
  568MOL0     H74942  -1.949   3.417   4.436 -0.8971 -2.1265 -0.6748
  568MOL0     H74943  -1.986   3.461   4.615 -0.4124  0.7524 -0.4253
  568MOL0     H74944  -2.099   3.243   4.619  0.0771 -0.4316  0.6342
  568MOL0     H74945  -2.102   3.230   4.440 -0.6504  0.0827  0.5548
  568MOL0     H74946  -2.315   3.309   4.542 -1.9849  1.8824  0.1623
  568MOL0     H74947  -2.252   3.435   4.443  1.2062 -2.5740 -2.1327
  568MOL0     H74948  -2.168   3.558   4.651  1.8687 -1.1027  1.2907
  568MOL0     H74949  -2.347   3.524   4.643 -0.5539 -1.7558 -0.0317
  568MOL0     H74950  -2.158   3.361   4.827  0.1726 -0.1135 -0.9843
  568MOL0     H74951  -2.324   3.342   4.788  1.2498 -1.6315  3.4493
  568MOL0     H74952  -2.288   3.465   5.003 -0.2338  4.8080  3.1102
  568MOL0     H74953  -2.378   3.568   4.889  0.0324  1.8127 -1.0760
  568MOL0     H74954  -2.076   3.579   4.927 -0.3153  0.9320  1.8538
  568MOL0     H74955  -2.169   3.687   4.819  0.9742  3.4755  2.3253
  568MOL0     H74956  -2.119   3.793   5.047 -2.7407  2.2229 -0.5693
  568MOL0     H74957  -2.176   3.654   5.129 -1.9216  2.1402  1.7578
  568MOL0     H74958  -1.809   3.478   4.771 -1.0271  3.1237 -1.3091
  568MOL0     H74959  -1.613   3.628   4.769  0.2260 -0.0415 -0.2613
  568MOL0     H74960  -1.208   3.696   4.464 -2.2428  0.9966  0.4279
  568MOL0     H74961  -0.990   3.799   4.435 -0.7679 -0.3409 -0.1343
  568MOL0     H74962   0.822   4.616   4.876  1.6409 -2.1780 -1.9742
  568MOL0     H74963   1.064   4.570   4.893  1.9984  0.3256  0.4744
  568MOL0     H74964   1.409   4.502   4.547  1.8620 -0.3104 -1.2344
  568MOL0     H74965   1.628   4.426   4.540 -1.4592 -0.9460 -0.2042
  568MOL0     H74966   1.885   4.456   4.901 -0.7702  0.2540 -1.0038
  568MOL0     H74967   2.000   4.524   4.782 -0.4550  0.3439 -1.1714
  568MOL0     H74968   1.877   4.247   4.765  1.2784  0.4472  0.3263
  568MOL0     H74969   1.988   4.329   4.658 -1.1640 -2.0983 -1.6653
  568MOL0     H74970   2.030   4.240   4.943 -1.4990 -2.4023 -1.2001
  568MOL0     H74971   2.147   4.354   4.857 -0.2727  0.9996  0.9108
  568MOL0     H74972   2.077   4.058   4.793  0.7004 -0.0976  0.7265
  568MOL0     H74973   2.137   4.170   4.671 -2.5867 -2.2496 -1.7815
  568MOL0     H74974   2.479   4.097   4.942  1.3659  0.9783 -1.0534
  568MOL0     H74975   1.720   4.649   4.896  0.8692  0.0293 -0.2047
  568MOL0     H74976   1.502   4.757   4.881  0.8635  2.4553 -2.8463
  569MOL0     O74977   3.151   1.943   9.680 -0.2378 -0.1243  0.0567
  569MOL0     C74978   3.163   1.831   9.731  0.4044  0.1037 -0.6723
  569MOL0     O74979   3.284   1.766   9.749  0.5007 -0.4524 -0.2949
  569MOL0     C74980   3.410   1.808   9.706 -0.1615  0.5493 -0.1775
  569MOL0     C74981   3.441   1.916   9.613 -0.2243  0.1895 -0.5594
  569MOL0     C74982   3.569   1.944   9.565 -0.4952 -0.5968  0.2208
  569MOL0     C74983   3.674   1.875   9.610  0.9566  0.4254 -0.1209
  569MOL0     O74984   3.795   1.899   9.551 -0.0691 -0.1620 -0.1163
  569MOL0     C74985   3.860   2.017   9.597 -0.5132  0.1381  0.1291
  569MOL0     C74986   3.981   2.027   9.507  0.5243  0.1752  0.0516
  569MOL0     C74987   4.063   2.159   9.535 -0.5957  0.5423  0.6285
  569MOL0     C74988   4.202   2.152   9.466 -0.3668  0.8238  0.7396
  569MOL0     C74989   4.309   2.229   9.542 -0.4400 -0.5182  0.5281
  569MOL0     C74990   4.451   2.166   9.522 -0.1747 -0.1798 -0.0225
  569MOL0     C74991   4.546   2.220   9.636  0.1627 -0.1108  0.3373
  569MOL0     C74992   4.622   2.364   9.626  0.9141  0.1731 -0.3152
  569MOL0     N74993   4.708   2.373   9.516 -1.2305  0.0378  1.1637
  569MOL0     C74994   4.838   2.323   9.512  0.4379  0.2964 -0.2451
  569MOL0     C74995   4.884   2.378   9.397 -0.0374  0.8185  0.7591
  569MOL0     C74996   5.031   2.364   9.334  0.6906  0.5367 -0.4067
  569MOL0     C74997   5.041   2.342   9.180  0.4120  0.7880  0.0579
  569MOL0     C74998   5.186   2.319   9.137  0.5723  0.4664  0.8703
  569MOL0     C74999   5.265   2.446   9.137 -0.6291  0.2324 -0.5794
  569MOL0     O75000   5.402   2.425   9.091 -1.1529 -0.4311 -0.4150
  569MOL0     C75001   5.486   2.531   9.094 -0.5357  0.1108 -0.3863
  569MOL0     C75002   5.614   2.511   9.050  0.5234 -1.0882  0.6173
  569MOL0     C75003   5.707   2.611   9.042 -0.1599 -0.4659 -0.1531
  569MOL0     C75004   5.688   2.744   9.084  0.0162  0.1746 -0.1219
  569MOL0     C75005   5.795   2.847   9.063 -0.3833 -0.3658  1.1161
  569MOL0     O75006   5.920   2.807   9.027  0.0628  0.1894  0.1073
  569MOL0     C75007   6.013   2.906   9.008  1.2353  0.4685  0.0065
  569MOL0     C75008   6.127   2.900   9.090  0.2588  0.7150 -0.6094
  569MOL0     C75009   6.242   2.967   9.055  0.3523 -0.3994  0.6382
  569MOL0     C75010   6.242   3.057   8.945 -0.2834  0.2619 -0.7056
  569MOL0     O75011   6.340   3.134   8.899  0.2829  0.2362  0.2481
  569MOL0     C75012   6.472   3.094   8.922 -0.5058 -0.2129 -0.0366
  569MOL0     C75013   6.563   3.214   8.926  0.0731  0.2112  0.4354
  569MOL0     C75014   6.705   3.162   8.915 -0.0392  0.1525  0.3187
  569MOL0     C75015   6.794   3.281   8.866 -0.6162 -0.3927 -0.5353
  569MOL0     C75016   6.934   3.243   8.906  0.0944  0.3272 -0.0177
  569MOL0     C75017   7.050   3.333   8.854  0.6825  0.5076  0.0344
  569MOL0     C75018   7.075   3.360   8.706  0.3511  0.0783 -0.4062
  569MOL0     C75019   7.149   3.247   8.625  0.6996 -0.5886  0.1692
  569MOL0    Cl75020   7.291   3.177   8.696 -0.0293  0.2210  0.2810
  569MOL0     C75021   6.127   3.078   8.871  0.3670  0.5079 -0.1273
  569MOL0     C75022   6.018   2.987   8.894 -0.0705 -0.4704 -0.0665
  569MOL0     O75023   5.764   2.966   9.071  0.3456 -0.3686  0.7515
  569MOL0     C75024   5.545   2.769   9.124 -0.8344  0.5970  0.9660
  569MOL0     C75025   5.452   2.662   9.135 -0.0142 -0.3056  0.3574
  569MOL0     N75026   4.784   2.435   9.327 -0.3503 -1.0705 -0.0056
  569MOL0     N75027   4.686   2.461   9.409 -0.1782  1.1871 -0.1111
  569MOL0     C75028   3.650   1.772   9.702 -0.0088  0.9973 -0.5271
  569MOL0     C75029   3.522   1.736   9.749 -1.2639  0.6046 -0.0383
  569MOL0     C75030   3.036   1.768   9.778  1.4913  0.0555  0.4060
  569MOL0     C75031   3.028   1.648   9.845 -0.1714  0.4542 -0.0766
  569MOL0     C75032   2.908   1.589   9.878 -0.3273  0.1520  0.6001
  569MOL0     C75033   2.788   1.643   9.843  1.2319 -0.3435  0.6882
  569MOL0     O75034   2.678   1.584   9.893 -0.6223 -0.0418 -0.2923
  569MOL0     C75035   2.544   1.622   9.866 -0.1644 -1.1859  0.8486
  569MOL0     C75036   2.491   1.567   9.736 -0.3718 -0.3521  0.6262
  569MOL0     C75037   2.432   1.420   9.752  0.4605 -0.4743 -0.0534
  569MOL0     C75038   2.381   1.390   9.618 -0.3051  0.2393 -1.0700
  569MOL0     C75039   2.319   1.251   9.626 -0.4483  0.1778 -0.1343
  569MOL0     C75040   2.282   1.133   9.644 -0.0421  0.3429  0.6382
  569MOL0     C75041   2.784   1.769   9.788 -0.2548 -0.3781  0.5857
  569MOL0     C75042   2.908   1.835   9.757 -0.1206  1.0819  0.1438
  569MOL0     H75043   3.357   1.974   9.577 -0.1630  0.8987  0.3832
  569MOL0     H75044   3.589   2.004   9.478 -0.5095  2.0210  1.9281
  569MOL0     H75045   3.899   2.004   9.698  2.8633 -1.2881 -1.2269
  569MOL0     H75046   3.804   2.110   9.581 -0.5659 -0.2855 -2.7687
  569MOL0     H75047   3.947   2.034   9.403  2.4861  0.2504 -0.6201
  569MOL0     H75048   4.051   1.946   9.525  0.8332 -0.2606 -2.6829
  569MOL0     H75049   4.085   2.152   9.642 -0.5309 -0.4886  0.5498
  569MOL0     H75050   4.004   2.249   9.518 -0.3213  0.4079 -1.3567
  569MOL0     H75051   4.231   2.048   9.457  0.5417  1.2033 -1.3654
  569MOL0     H75052   4.184   2.172   9.360 -3.4591 -2.3884  0.4636
  569MOL0     H75053   4.283   2.244   9.647 -0.7965  1.1439  0.2317
  569MOL0     H75054   4.301   2.331   9.505 -1.5516 -0.4289  0.9613
  569MOL0     H75055   4.488   2.181   9.420 -0.9362 -0.2835 -0.3230
  569MOL0     H75056   4.452   2.057   9.535 -0.8228 -0.4464 -1.8969
  569MOL0     H75057   4.493   2.221   9.732  0.2757 -2.3468  0.4612
  569MOL0     H75058   4.627   2.149   9.654 -0.3293 -0.3897  1.5796
  569MOL0     H75059   4.663   2.382   9.726  1.0543 -2.7844  0.2333
  569MOL0     H75060   4.548   2.444   9.613  2.7555  1.8157 -1.2089
  569MOL0     H75061   4.891   2.268   9.589 -0.0625  1.0984  0.6953
  569MOL0     H75062   5.088   2.286   9.384 -1.4882 -0.8253  0.0650
  569MOL0     H75063   5.086   2.456   9.358 -1.3117  1.4840  0.8559
  569MOL0     H75064   5.006   2.421   9.114 -0.2367 -1.1456 -2.0474
  569MOL0     H75065   4.977   2.254   9.162  0.0777  0.6873  1.5788
  569MOL0     H75066   5.239   2.251   9.204  1.6395  1.5391  1.1652
  569MOL0     H75067   5.186   2.270   9.039  0.2610  0.3291  0.9375
  569MOL0     H75068   5.260   2.481   9.241 -0.8057 -2.2168  0.2934
  569MOL0     H75069   5.201   2.516   9.082 -2.0054 -0.5950 -0.0727
  569MOL0     H75070   5.633   2.421   8.992 -0.2874  0.0681 -1.5818
  569MOL0     H75071   5.807   2.580   9.015 -0.8111 -3.6478  0.7352
  569MOL0     H75072   6.138   2.830   9.172  0.3082  1.8878  0.4083
  569MOL0     H75073   6.331   2.942   9.112  0.4584  1.4698  1.3699
  569MOL0     H75074   6.497   3.027   8.840 -2.6608 -1.0091 -0.1220
  569MOL0     H75075   6.482   3.035   9.013 -0.0104 -1.3758 -0.8217
  569MOL0     H75076   6.554   3.244   9.030 -1.8483  0.9244  0.1043
  569MOL0     H75077   6.537   3.298   8.861  2.1844  1.1554  0.7301
  569MOL0     H75078   6.715   3.088   8.834  2.6461  3.1197 -2.4000
  569MOL0     H75079   6.730   3.120   9.012 -0.6306 -2.3847 -0.5397
  569MOL0     H75080   6.774   3.295   8.760  3.6290  0.6960 -1.3923
  569MOL0     H75081   6.768   3.371   8.922 -0.6646 -1.3313  1.0190
  569MOL0     H75082   6.971   3.141   8.889  2.3416  1.4310 -2.5051
  569MOL0     H75083   6.945   3.249   9.014 -0.8019 -0.1840  0.1174
  569MOL0     H75084   7.145   3.293   8.890  2.3002  3.4074 -0.6906
  569MOL0     H75085   7.035   3.431   8.901 -1.6287 -0.1694  0.8816
  569MOL0     H75086   6.978   3.380   8.659  0.0852 -0.1064  0.0579
  569MOL0     H75087   7.138   3.448   8.693  0.7553 -0.1179  0.1848
  569MOL0     H75088   7.160   3.281   8.522 -0.5498  2.3591  0.8911
  569MOL0     H75089   7.080   3.163   8.621  0.1029 -0.3442  3.0823
  569MOL0     H75090   6.124   3.145   8.786 -1.2267  0.9755  0.2551
  569MOL0     H75091   5.938   2.987   8.822 -1.3374 -0.0294  1.3013
  569MOL0     H75092   5.524   2.875   9.131  3.5571  1.8080 -0.9015
  569MOL0     H75093   5.353   2.699   9.158  0.6782  0.5581  2.0975
  569MOL0     H75094   3.738   1.711   9.721 -0.9107 -0.4265 -0.7910
  569MOL0     H75095   3.518   1.653   9.818  0.2662 -0.3027 -0.9669
  569MOL0     H75096   3.118   1.598   9.879  0.8540  3.0789  1.3391
  569MOL0     H75097   2.919   1.496   9.932 -1.5181  0.6699  1.8077
  569MOL0     H75098   2.519   1.728   9.859 -1.0928 -1.4933 -2.4645
  569MOL0     H75099   2.485   1.598   9.955 -0.4928  0.8307  1.2087
  569MOL0     H75100   2.416   1.639   9.702 -0.0372 -1.8314 -3.8205
  569MOL0     H75101   2.569   1.565   9.660  0.6311  0.7240  1.5878
  569MOL0     H75102   2.350   1.432   9.823 -0.3039 -5.3212  0.1648
  569MOL0     H75103   2.503   1.346   9.790  4.2427  2.8377  0.0591
  569MOL0     H75104   2.301   1.457   9.584 -1.7793 -0.4250  0.9085
  569MOL0     H75105   2.469   1.385   9.553 -0.9169  0.1054 -1.9142
  569MOL0     H75106   2.248   1.032   9.656  0.3879 -0.4524 -3.4371
  569MOL0     H75107   2.685   1.808   9.765 -0.3905 -0.7991  0.4411
  569MOL0     H75108   2.896   1.921   9.692 -3.1205  1.4105  0.9733
  570MOL0     O75109  10.369   9.731   6.996 -0.7515 -0.5786 -0.3741
  570MOL0     C75110  10.483   9.761   7.036  0.0878  0.0963 -1.0282
  570MOL0     O75111  10.535   9.740   7.169  0.0888  0.7126 -0.3580
  570MOL0     C75112  10.446   9.709   7.276  0.1474  0.7134  0.7092
  570MOL0     C75113  10.314   9.758   7.298  0.5949  0.5663  0.3509
  570MOL0     C75114  10.235   9.719   7.412  0.3243  1.0511 -0.2405
  570MOL0     C75115  10.293   9.650   7.515 -0.3268 -0.4026  1.0413
  570MOL0     O75116  10.235   9.625   7.636 -0.2637 -1.0304  0.1763
  570MOL0     C75117  10.093   9.590   7.621 -0.2017  0.0318 -0.8922
  570MOL0     C75118  10.051   9.530   7.761  0.4308  0.0151 -0.6880
  570MOL0     C75119  10.098   9.378   7.756  0.1558 -0.2215  0.0163
  570MOL0     C75120  10.099   9.335   7.902 -1.7671  0.9369  0.0885
  570MOL0     C75121  10.120   9.190   7.930  0.4676 -0.9438  0.5250
  570MOL0     C75122  10.261   9.135   7.906 -0.1796  0.3877  0.6957
  570MOL0     C75123  10.379   9.167   7.998 -0.1883  0.5670 -0.6406
  570MOL0     C75124  10.383   9.075   8.122  0.1446  0.0225  0.2760
  570MOL0     N75125  10.276   9.105   8.209  0.4542 -0.5314 -0.5404
  570MOL0     C75126  10.202   8.998   8.251 -0.6531 -0.2819 -1.1071
  570MOL0     C75127  10.139   9.043   8.368  0.0442 -0.7449  0.9818
  570MOL0     C75128  10.059   8.946   8.455 -0.0423 -0.2528 -0.0223
  570MOL0     C75129   9.915   8.934   8.410  0.3279 -0.0349  0.5859
  570MOL0     C75130   9.846   9.073   8.407  1.2014  0.1564  0.2375
  570MOL0     C75131   9.819   9.142   8.539 -0.3293 -0.2421  0.8905
  570MOL0     O75132   9.772   9.053   8.638  0.3175 -0.1400 -0.0999
  570MOL0     C75133   9.641   9.027   8.630  0.6388  0.2249  0.0506
  570MOL0     C75134   9.537   9.079   8.547 -0.2554  0.0282 -0.3494
  570MOL0     C75135   9.407   9.047   8.566  0.0859  0.8730 -0.2355
  570MOL0     C75136   9.363   8.947   8.657 -0.1902  0.8212 -0.2002
  570MOL0     C75137   9.212   8.916   8.686  0.3071 -0.5314  0.0432
  570MOL0     O75138   9.119   8.957   8.597  0.5137  0.3259 -0.4948
  570MOL0     C75139   8.990   8.959   8.640  1.0243 -0.4727  0.1231
  570MOL0     C75140   8.893   8.893   8.566  0.8829 -0.7962 -0.0056
  570MOL0     C75141   8.756   8.907   8.595 -0.4462  0.9059 -0.8883
  570MOL0     C75142   8.720   8.991   8.701  0.1578  0.9119 -0.3142
  570MOL0     O75143   8.584   8.997   8.712  0.0537 -0.3005 -0.7648
  570MOL0     C75144   8.526   9.025   8.848 -0.4860 -0.4723  0.3268
  570MOL0     C75145   8.378   8.988   8.856  0.4259 -0.4243  0.1551
  570MOL0     C75146   8.283   9.058   8.765 -0.2815 -0.7934 -0.1713
  570MOL0     C75147   8.149   8.982   8.771  0.0062  0.8470  0.9194
  570MOL0     C75148   8.053   9.067   8.694  0.7196  0.3269 -0.0583
  570MOL0     C75149   7.908   9.003   8.699 -0.3381 -0.2314  0.2640
  570MOL0     C75150   7.831   9.039   8.830  0.5860 -0.5552  0.3414
  570MOL0     C75151   7.808   9.188   8.857 -0.4669  0.7274  0.6655
  570MOL0    Cl75152   7.641   9.204   8.924 -0.1124  0.1040  0.1633
  570MOL0     C75153   8.817   9.053   8.785  0.3739 -0.0293  0.3375
  570MOL0     C75154   8.953   9.043   8.744  0.8897  0.5670  0.1393
  570MOL0     O75155   9.188   8.875   8.800 -0.2694 -0.9961  0.1791
  570MOL0     C75156   9.460   8.885   8.729  0.6910  0.9411 -0.7200
  570MOL0     C75157   9.595   8.918   8.707  0.3173 -0.2066 -0.2494
  570MOL0     N75158  10.173   9.181   8.387 -0.2115  0.2393 -0.1036
  570MOL0     N75159  10.244   9.210   8.276 -0.0725  0.5221 -0.6656
  570MOL0     C75160  10.428   9.611   7.501 -0.8650 -0.5490  0.8336
  570MOL0     C75161  10.502   9.638   7.387  0.6967 -1.1794 -0.2237
  570MOL0     C75162  10.578   9.809   6.938  0.1119  0.5629 -0.9866
  570MOL0     C75163  10.715   9.766   6.948  0.0076 -0.6336  0.0656
  570MOL0     C75164  10.806   9.820   6.857 -0.4370 -0.0214 -0.0549
  570MOL0     C75165  10.772   9.912   6.756  0.4755  0.1025 -0.2472
  570MOL0     O75166  10.867   9.948   6.663 -0.0678 -0.4613 -0.0281
  570MOL0     C75167  10.853  10.042   6.562 -0.7667  0.1574  0.8367
  570MOL0     C75168  10.853  10.186   6.608 -1.0337  0.2818  0.2047
  570MOL0     C75169  10.991  10.227   6.663  0.4873  0.4900  0.1665
  570MOL0     C75170  11.036  10.165   6.794  0.2577  0.0837 -0.1542
  570MOL0     C75171  11.174  10.205   6.812  0.4321 -0.0742  0.8711
  570MOL0     C75172  11.284  10.239   6.842  0.0655  0.3899  0.2105
  570MOL0     C75173  10.638   9.953   6.752 -0.2396 -0.4570  0.9372
  570MOL0     C75174  10.539   9.907   6.843 -1.1338  0.0500  0.1465
  570MOL0     H75175  10.265   9.812   7.218  1.8718  2.4216  0.7640
  570MOL0     H75176  10.136   9.760   7.394  0.8024  1.4496 -2.2865
  570MOL0     H75177  10.078   9.518   7.539  2.2217 -1.6991  0.0417
  570MOL0     H75178  10.038   9.683   7.607  0.1031  0.2219 -0.8312
  570MOL0     H75179   9.943   9.534   7.775  0.5106  3.9541 -0.0138
  570MOL0     H75180  10.092   9.590   7.843  0.1475 -0.2479 -0.3527
  570MOL0     H75181  10.205   9.380   7.733  0.3277  1.5450  0.7624
  570MOL0     H75182  10.037   9.323   7.684 -0.0188  0.0030 -0.0092
  570MOL0     H75183  10.177   9.389   7.955 -1.2595  0.7593 -0.4709
  570MOL0     H75184  10.003   9.367   7.944 -0.9775  2.1932  1.0028
  570MOL0     H75185  10.060   9.128   7.863 -0.3194 -0.3217  0.6306
  570MOL0     H75186  10.092   9.178   8.035  2.3462 -1.5733  0.9852
  570MOL0     H75187  10.299   9.165   7.809 -0.2722  0.8849  0.8102
  570MOL0     H75188  10.254   9.026   7.897  0.7515  0.3384  0.4886
  570MOL0     H75189  10.471   9.145   7.942 -0.0514 -2.2104  0.5351
  570MOL0     H75190  10.380   9.270   8.036  2.0666  0.6624 -0.7991
  570MOL0     H75191  10.478   9.108   8.165  1.8650 -1.7672 -1.8940
  570MOL0     H75192  10.391   8.967   8.105  0.3397 -0.5755  3.5627
  570MOL0     H75193  10.214   8.896   8.216  1.3416 -0.6825  0.5464
  570MOL0     H75194  10.068   8.963   8.563  3.6762 -2.1241  0.1231
  570MOL0     H75195  10.114   8.852   8.443  3.7629  2.0765 -3.7602
  570MOL0     H75196   9.867   8.866   8.481  1.9645  0.7684  2.5642
  570MOL0     H75197   9.906   8.902   8.306 -1.1534  1.2797  0.2632
  570MOL0     H75198   9.894   9.132   8.328  1.1899 -0.5238 -0.2867
  570MOL0     H75199   9.742   9.059   8.376  0.6432  1.3613  1.4507
  570MOL0     H75200   9.757   9.232   8.532  0.4202  0.3781  2.0225
  570MOL0     H75201   9.914   9.183   8.572 -0.6051  2.7249 -1.5871
  570MOL0     H75202   9.569   9.152   8.473 -0.3072 -2.0808 -2.5796
  570MOL0     H75203   9.343   9.108   8.502  3.9298  2.5722 -2.8180
  570MOL0     H75204   8.920   8.832   8.480  0.9215  1.5015 -1.7086
  570MOL0     H75205   8.685   8.842   8.543 -2.4148  2.3570 -0.1514
  570MOL0     H75206   8.543   9.129   8.875  0.6526  0.0111 -2.0096
  570MOL0     H75207   8.582   8.968   8.922 -1.3336  0.1486  1.4722
  570MOL0     H75208   8.348   9.016   8.957  0.9662 -3.3458  1.2256
  570MOL0     H75209   8.369   8.880   8.838 -1.0697 -0.5843  1.6492
  570MOL0     H75210   8.315   9.051   8.661 -2.6296 -2.0055 -0.9023
  570MOL0     H75211   8.270   9.161   8.799 -0.2002 -1.2488  1.3198
  570MOL0     H75212   8.146   8.887   8.718 -3.5889  1.8303 -0.9664
  570MOL0     H75213   8.112   8.950   8.869  0.3111 -1.1195  0.4422
  570MOL0     H75214   8.087   9.065   8.590  1.5587 -1.4883  0.2128
  570MOL0     H75215   8.049   9.168   8.735 -0.2019 -0.9726  3.4051
  570MOL0     H75216   7.908   8.895   8.683  1.8553 -0.5407  1.8442
  570MOL0     H75217   7.850   9.054   8.622 -2.1916 -0.5351  1.3779
  570MOL0     H75218   7.734   8.988   8.822 -0.2904  0.9046  1.0648
  570MOL0     H75219   7.890   9.001   8.914  1.0602  0.9717  0.7362
  570MOL0     H75220   7.807   9.246   8.764 -2.0511 -1.7605 -0.9967
  570MOL0     H75221   7.887   9.236   8.915  0.2104  2.0224 -1.2354
  570MOL0     H75222   8.796   9.135   8.852 -1.7147  0.9735 -1.4440
  570MOL0     H75223   9.021   9.108   8.798 -2.8444  3.2775  2.0094
  570MOL0     H75224   9.422   8.811   8.799 -3.3391  1.6643 -1.9034
  570MOL0     H75225   9.678   8.863   8.750 -1.2655 -0.7492  2.3232
  570MOL0     H75226  10.477   9.568   7.587 -1.4422 -2.3506  0.2944
  570MOL0     H75227  10.610   9.626   7.383  1.0625  1.0698  1.1251
  570MOL0     H75228  10.750   9.694   7.021  1.2937 -1.1566 -1.0237
  570MOL0     H75229  10.909   9.786   6.861 -1.2410 -2.7618 -0.6843
  570MOL0     H75230  10.763  10.029   6.502 -1.2973  1.3955  1.3344
  570MOL0     H75231  10.935  10.027   6.491  1.3341  1.9321  2.7198
  570MOL0     H75232  10.823  10.251   6.525 -0.9102  0.5665  0.3805
  570MOL0     H75233  10.787  10.206   6.693 -0.9154  1.5005  0.0298
  570MOL0     H75234  10.999  10.335   6.679  2.2090  0.3326  0.5911
  570MOL0     H75235  11.066  10.201   6.588  1.0340 -2.6555  1.6334
  570MOL0     H75236  10.973  10.185   6.882  0.8127  1.7933 -0.1120
  570MOL0     H75237  11.036  10.055   6.787 -0.6754  0.0164  0.6962
  570MOL0     H75238  11.384  10.270   6.868 -0.6150  0.0354  3.7916
  570MOL0     H75239  10.611  10.026   6.676 -0.6096 -1.1635  0.3858
  570MOL0     H75240  10.435   9.936   6.832 -2.0988 -2.6053  1.3112
  571MOL0     O75241   5.370   9.428   5.877 -0.6246  0.5685  1.0271
  571MOL0     C75242   5.340   9.334   5.947  0.0504  0.1371 -0.4280
  571MOL0     O75243   5.214   9.297   5.986 -0.0289 -0.8289 -0.4628
  571MOL0     C75244   5.102   9.371   5.937  0.1022  0.1568 -0.0766
  571MOL0     C75245   4.997   9.298   5.891 -0.1312  0.3119  0.6799
  571MOL0     C75246   4.879   9.359   5.856  0.4483 -0.4520  1.6085
  571MOL0     C75247   4.861   9.500   5.866  0.4731  0.5764  0.3023
  571MOL0     O75248   4.744   9.563   5.826 -0.4527  0.8252  0.3193
  571MOL0     C75249   4.671   9.647   5.924 -1.1333 -0.9144  1.0884
  571MOL0     C75250   4.519   9.640   5.911 -0.7371 -0.1197  0.0832
  571MOL0     C75251   4.462   9.653   5.762  0.6975 -0.6822  0.3370
  571MOL0     C75252   4.306   9.644   5.770 -0.6383  0.2837 -0.4116
  571MOL0     C75253   4.226   9.671   5.636  0.7978 -0.8861  0.7161
  571MOL0     C75254   4.074   9.686   5.648 -0.3330  0.2296 -0.7692
  571MOL0     C75255   4.000   9.698   5.514  0.4004 -0.6010 -0.4683
  571MOL0     C75256   4.023   9.831   5.451 -0.4276  0.3042  0.9331
  571MOL0     N75257   3.950   9.829   5.315 -0.8081 -0.9574 -0.9201
  571MOL0     C75258   3.820   9.862   5.297  0.2822 -1.1996  0.4699
  571MOL0     C75259   3.800   9.839   5.163  0.7675 -0.0513  0.4276
  571MOL0     C75260   3.656   9.867   5.112 -0.4166  0.1002  0.5290
  571MOL0     C75261   3.642  10.010   5.058  0.8066 -0.6710 -0.4283
  571MOL0     C75262   3.582  10.112   5.164 -0.4011  0.8121  0.1981
  571MOL0     C75263   3.436  10.149   5.133 -0.0525 -0.3587 -0.0605
  571MOL0     O75264   3.353  10.036   5.160  0.2000  0.8825  0.1838
  571MOL0     C75265   3.220  10.057   5.159 -0.5923 -0.8434 -1.2119
  571MOL0     C75266   3.141   9.947   5.215 -0.4661  0.1985  0.3059
  571MOL0     C75267   3.002   9.948   5.220 -0.8282 -0.3107  0.7972
  571MOL0     C75268   2.934  10.060   5.169 -0.4139  0.6892  0.0549
  571MOL0     C75269   2.787  10.057   5.162 -0.4094 -0.4557 -0.3653
  571MOL0     O75270   2.742  10.182   5.161  0.9860 -0.4202 -0.5359
  571MOL0     C75271   2.607  10.221   5.171  0.0760 -0.3390 -0.1348
  571MOL0     C75272   2.502  10.135   5.224  0.3066 -0.6646 -0.0342
  571MOL0     C75273   2.379  10.193   5.256  0.1764  0.1231 -0.2518
  571MOL0     C75274   2.339  10.321   5.207 -0.1093 -0.9604 -0.2667
  571MOL0     O75275   2.213  10.372   5.225  0.2028 -0.0327 -0.3859
  571MOL0     C75276   2.140  10.424   5.112  0.3626  0.4816 -0.6438
  571MOL0     C75277   1.979  10.416   5.115 -0.7476  1.1662  0.5694
  571MOL0     C75278   1.925  10.500   5.222 -0.2504 -0.3986  0.5442
  571MOL0     C75279   1.769  10.497   5.219 -0.0184  0.3332 -0.1655
  571MOL0     C75280   1.730  10.602   5.326 -0.1850 -0.6877  0.0359
  571MOL0     C75281   1.576  10.614   5.341 -0.8909  0.3725  0.1291
  571MOL0     C75282   1.517  10.694   5.224  0.5103  0.5882  0.4435
  571MOL0     C75283   1.364  10.706   5.229  0.3052 -0.1665  0.7630
  571MOL0    Cl75284   1.315  10.814   5.357  0.1573  0.1110 -0.5205
  571MOL0     C75285   2.431  10.392   5.133  0.3891 -0.6339 -0.8088
  571MOL0     C75286   2.563  10.344   5.115 -0.4187 -0.1815  0.3379
  571MOL0     O75287   2.731   9.948   5.173  0.9923 -0.2809  0.3647
  571MOL0     C75288   3.012  10.167   5.120  0.5723 -0.3560  0.7611
  571MOL0     C75289   3.151  10.174   5.119 -0.0924  1.0497  0.2769
  571MOL0     N75290   3.911   9.799   5.099 -0.3184  0.1584 -0.2876
  571MOL0     N75291   4.003   9.803   5.192 -0.3682 -1.0181  0.3417
  571MOL0     C75292   4.964   9.569   5.924 -0.0899 -1.0958 -0.9941
  571MOL0     C75293   5.081   9.507   5.960  0.2093 -0.0274 -0.1638
  571MOL0     C75294   5.449   9.232   5.976  1.5794 -0.7783 -0.2119
  571MOL0     C75295   5.415   9.107   6.025 -0.2252 -0.6157 -1.2203
  571MOL0     C75296   5.512   9.010   6.043  0.5669 -0.1398 -0.0507
  571MOL0     C75297   5.648   9.041   6.027  0.6137  0.2157 -0.9822
  571MOL0     O75298   5.744   8.947   6.042 -1.2304 -0.4468  0.0376
  571MOL0     C75299   5.823   8.952   6.157  0.2116  0.3545  0.5291
  571MOL0     C75300   5.876   8.811   6.182 -0.6734 -0.6913 -0.2568
  571MOL0     C75301   5.943   8.745   6.055 -0.3499  0.1325  0.5920
  571MOL0     C75302   6.065   8.826   5.999  0.2558  0.1313 -0.3998
  571MOL0     C75303   6.033   8.948   5.924 -0.6288  0.7174  0.1110
  571MOL0     C75304   6.011   9.052   5.865  0.3708  0.3370 -0.0446
  571MOL0     C75305   5.685   9.162   5.973  0.7253  0.2754 -0.2370
  571MOL0     C75306   5.583   9.260   5.948 -0.0178  0.5824 -0.2546
  571MOL0     H75307   5.010   9.191   5.877 -0.2032  0.3125  0.6048
  571MOL0     H75308   4.803   9.299   5.807  2.6185 -0.3554 -2.2292
  571MOL0     H75309   4.690   9.754   5.913 -1.4277 -0.6003  3.1875
  571MOL0     H75310   4.697   9.617   6.026  0.2214 -4.0201 -0.0434
  571MOL0     H75311   4.482   9.723   5.973  1.5355  1.5597 -0.6471
  571MOL0     H75312   4.497   9.539   5.945 -3.5018  0.5900  0.6283
  571MOL0     H75313   4.502   9.592   5.681  0.0324 -0.4239 -0.1934
  571MOL0     H75314   4.492   9.753   5.728 -2.2421  0.9595  2.0980
  571MOL0     H75315   4.279   9.544   5.805  0.8198 -0.6280 -1.7654
  571MOL0     H75316   4.276   9.706   5.855  1.1931  0.6805 -0.0171
  571MOL0     H75317   4.253   9.593   5.563  0.9005 -3.4160  3.2724
  571MOL0     H75318   4.261   9.769   5.603  1.1501  0.4101  4.4929
  571MOL0     H75319   4.055   9.782   5.696 -2.8688 -0.2619 -0.6700
  571MOL0     H75320   4.039   9.608   5.716 -1.0120  1.3014  0.1568
  571MOL0     H75321   4.050   9.632   5.443 -0.6672  0.5398 -2.3652
  571MOL0     H75322   3.897   9.661   5.515  0.3086 -0.3542 -0.4702
  571MOL0     H75323   4.129   9.850   5.439 -0.7098  0.5119 -1.6285
  571MOL0     H75324   3.979   9.909   5.515 -1.6671 -0.8060  1.5070
  571MOL0     H75325   3.752   9.897   5.373 -0.8161  0.7557 -1.3136
  571MOL0     H75326   3.578   9.848   5.186  0.4314  3.0238  2.3448
  571MOL0     H75327   3.656   9.795   5.029 -0.1400 -0.4179  0.9727
  571MOL0     H75328   3.578  10.014   4.970  0.7201 -2.1248 -0.4616
  571MOL0     H75329   3.741  10.051   5.037 -0.6843  4.4679  1.1562
  571MOL0     H75330   3.592  10.050   5.253 -0.9065 -1.6433 -1.3582
  571MOL0     H75331   3.655  10.192   5.176  1.5329 -1.0970  2.0910
  571MOL0     H75332   3.427  10.168   5.026 -0.2139  0.0722  0.0298
  571MOL0     H75333   3.401  10.227   5.201 -0.3181 -2.1901  2.0103
  571MOL0     H75334   3.200   9.863   5.249  2.9043  0.8526 -3.2119
  571MOL0     H75335   2.950   9.865   5.267  1.5633 -1.9759  0.6726
  571MOL0     H75336   2.522  10.038   5.269  0.9014  0.8389  3.2889
  571MOL0     H75337   2.313  10.132   5.317 -2.3331  1.3194 -1.6046
  571MOL0     H75338   2.167  10.357   5.030  1.4985 -1.1502  1.0066
  571MOL0     H75339   2.174  10.525   5.086  0.9370  0.2407 -0.8463
  571MOL0     H75340   1.949  10.313   5.137 -3.7077  1.5086 -1.2755
  571MOL0     H75341   1.946  10.446   5.015 -0.5636  0.9942  0.4551
  571MOL0     H75342   1.966  10.600   5.210  1.9098 -1.4093 -1.3149
  571MOL0     H75343   1.964  10.477   5.322  0.9202 -0.2801  0.1287
  571MOL0     H75344   1.726  10.524   5.122  1.3897  5.2245  0.3387
  571MOL0     H75345   1.734  10.395   5.241  0.7688 -0.8896 -3.8953
  571MOL0     H75346   1.772  10.700   5.302 -3.5341  1.5619  2.4135
  571MOL0     H75347   1.769  10.574   5.424 -1.5081  0.6931  1.0154
  571MOL0     H75348   1.546  10.674   5.427  0.2292  0.6539  0.3401
  571MOL0     H75349   1.538  10.511   5.337 -0.6186  0.2755  0.0072
  571MOL0     H75350   1.561  10.793   5.237  1.8939 -0.1398  1.6001
  571MOL0     H75351   1.552  10.654   5.128  2.1363  2.3995  0.2168
  571MOL0     H75352   1.327  10.603   5.238  2.6103 -1.8200 -4.5865
  571MOL0     H75353   1.317  10.748   5.140 -0.4847 -2.5815 -0.0506
  571MOL0     H75354   2.383  10.472   5.078 -2.1940 -2.2695 -1.0883
  571MOL0     H75355   2.628  10.406   5.054  1.5287  0.4835  2.9423
  571MOL0     H75356   2.971  10.261   5.084  0.8811 -1.1606 -1.9155
  571MOL0     H75357   3.203  10.262   5.081  1.5642  0.7225  1.6659
  571MOL0     H75358   4.949   9.677   5.925  1.3904 -0.8648  0.5539
  571MOL0     H75359   5.166   9.563   5.997  0.9854 -1.8104  0.8947
  571MOL0     H75360   5.316   9.088   6.066  0.7985 -1.0582  1.2137
  571MOL0     H75361   5.479   8.915   6.085  1.5340 -0.3130  0.3518
  571MOL0     H75362   5.758   8.984   6.239 -3.4414  2.1998 -2.7603
  571MOL0     H75363   5.902   9.026   6.143 -0.8022  1.1790 -1.2021
  571MOL0     H75364   5.941   8.799   6.269 -0.2996  1.1887 -0.2406
  571MOL0     H75365   5.790   8.746   6.200  0.5158 -2.2177  0.1677
  571MOL0     H75366   5.863   8.726   5.983 -0.0797  0.7574  0.1182
  571MOL0     H75367   5.984   8.647   6.080  0.3521  0.0873 -0.7011
  571MOL0     H75368   6.138   8.848   6.078  0.3338  0.5865 -0.5983
  571MOL0     H75369   6.106   8.756   5.926 -0.4059  1.4929 -2.1404
  571MOL0     H75370   5.977   9.134   5.805 -0.3129  0.1090  0.0178
  571MOL0     H75371   5.785   9.192   5.944  0.6566  0.4652 -0.2764
  571MOL0     H75372   5.617   9.357   5.912 -0.7017 -0.1505 -3.1713
  572MOL0     O75373   2.402   8.664   3.652  0.1919 -0.2124  0.0165
  572MOL0     C75374   2.504   8.728   3.633  0.0021 -1.0881 -0.3641
  572MOL0     O75375   2.607   8.738   3.725  0.6881 -0.3516 -0.4906
  572MOL0     C75376   2.591   8.682   3.841 -0.1417 -0.0930 -0.8635
  572MOL0     C75377   2.710   8.623   3.887  0.7624  0.3160  0.7931
  572MOL0     C75378   2.725   8.576   4.011  0.1146 -0.8186  0.2488
  572MOL0     C75379   2.619   8.570   4.096  0.3897  0.7316  0.1805
  572MOL0     O75380   2.631   8.502   4.214 -0.8287 -0.5377  0.9945
  572MOL0     C75381   2.608   8.361   4.209  1.1708 -0.0605 -0.6079
  572MOL0     C75382   2.462   8.324   4.246 -0.4544 -0.4158 -0.5898
  572MOL0     C75383   2.439   8.339   4.404  0.7469 -0.1067  1.6644
  572MOL0     C75384   2.285   8.320   4.443  0.2241 -0.6501 -1.0957
  572MOL0     C75385   2.288   8.330   4.598  0.2299  0.0966 -0.9819
  572MOL0     C75386   2.148   8.369   4.659  0.3518 -0.3492  0.9526
  572MOL0     C75387   2.078   8.259   4.750 -0.2679  0.2440 -0.1864
  572MOL0     C75388   1.942   8.285   4.812  0.3866  0.5641 -0.0242
  572MOL0     N75389   1.948   8.405   4.893 -0.0234 -0.4340 -0.5147
  572MOL0     C75390   1.950   8.536   4.846  1.3072  0.8511 -0.4361
  572MOL0     C75391   1.960   8.613   4.956  0.3248 -0.1416  0.3936
  572MOL0     C75392   1.948   8.767   4.968 -0.1939  0.0997 -0.0387
  572MOL0     C75393   1.797   8.803   4.941 -0.4461 -1.3049 -0.7694
  572MOL0     C75394   1.734   8.806   5.075 -0.0150 -0.2900 -0.6494
  572MOL0     C75395   1.579   8.828   5.079  0.2234  0.8510 -0.2394
  572MOL0     O75396   1.546   8.790   5.215  0.1620 -0.1934  0.6203
  572MOL0     C75397   1.425   8.813   5.265  0.8173 -0.0370 -0.3587
  572MOL0     C75398   1.413   8.890   5.386  0.7580  0.3817  1.0462
  572MOL0     C75399   1.286   8.926   5.441  0.0752 -0.0579 -0.3077
  572MOL0     C75400   1.176   8.851   5.386  1.6715 -0.0580  0.5056
  572MOL0     C75401   1.031   8.876   5.441  1.2598 -0.3004 -0.3862
  572MOL0     O75402   1.030   8.975   5.535 -0.2501 -0.3246  0.2436
  572MOL0     C75403   0.918   9.046   5.570  0.4472  0.1101  0.2358
  572MOL0     C75404   0.950   9.161   5.645  0.1910  0.2652  0.0223
  572MOL0     C75405   0.851   9.251   5.674  0.3329 -1.0069  0.4861
  572MOL0     C75406   0.714   9.230   5.644  0.3546  0.1588  0.4093
  572MOL0     O75407   0.618   9.325   5.667 -0.7395  0.6962  0.6108
  572MOL0     C75408   0.643   9.430   5.760 -0.4640  0.4750 -0.4739
  572MOL0     C75409   0.520   9.519   5.786 -0.4096  0.5516 -1.0697
  572MOL0     C75410   0.468   9.591   5.656 -0.1626  0.7893  0.9392
  572MOL0     C75411   0.333   9.659   5.687 -0.5917  0.3061 -0.1288
  572MOL0     C75412   0.275   9.714   5.561  0.7363 -0.4194  0.2990
  572MOL0     C75413   0.123   9.747   5.580  0.0902  0.0415  0.7739
  572MOL0     C75414   0.087   9.885   5.527 -0.5581  0.6938  0.0787
  572MOL0     C75415   0.086   9.900   5.378  0.3259  0.5418 -0.6655
  572MOL0    Cl75416  -0.023   9.781   5.296  0.0021  0.1575 -0.0602
  572MOL0     C75417   0.677   9.108   5.581 -0.5922 -0.0842  0.7896
  572MOL0     C75418   0.779   9.027   5.539  0.6386 -0.2915  0.6263
  572MOL0     O75419   0.943   8.794   5.425  0.0264 -0.1162 -0.0043
  572MOL0     C75420   1.195   8.767   5.276  0.7029 -0.9186  0.6557
  572MOL0     C75421   1.316   8.750   5.215 -0.6160  0.8338 -0.1223
  572MOL0     N75422   1.971   8.530   5.064 -1.5026 -0.3822 -0.3141
  572MOL0     N75423   1.969   8.408   5.030 -0.0497  0.2890  0.1202
  572MOL0     C75424   2.499   8.623   4.059  0.4430 -0.4559 -0.1147
  572MOL0     C75425   2.484   8.682   3.936 -0.6601  0.1768 -0.0430
  572MOL0     C75426   2.527   8.797   3.509 -0.1098 -0.0418 -0.3609
  572MOL0     C75427   2.656   8.842   3.472 -0.0464 -0.1090  0.2256
  572MOL0     C75428   2.687   8.890   3.347 -0.5911 -0.8814 -0.5882
  572MOL0     C75429   2.590   8.898   3.244  0.2945  0.0213  0.4528
  572MOL0     O75430   2.630   8.943   3.119  1.1017 -0.2946  0.1545
  572MOL0     C75431   2.644   9.085   3.127 -0.0006  1.5110  0.3802
  572MOL0     C75432   2.539   9.162   3.051 -0.2944  0.3274  0.5280
  572MOL0     C75433   2.592   9.195   2.912  0.0334  0.0977  0.7259
  572MOL0     C75434   2.484   9.259   2.820  0.4404 -0.0141  0.1467
  572MOL0     C75435   2.382   9.161   2.773 -0.0008  0.0069  0.1930
  572MOL0     C75436   2.286   9.085   2.746  0.0159 -0.8528  0.1807
  572MOL0     C75437   2.457   8.875   3.287 -1.0105  0.7958  0.3209
  572MOL0     C75438   2.429   8.814   3.413 -0.2498 -0.6444 -0.3132
  572MOL0     H75439   2.794   8.622   3.819  1.9270  0.6675  2.1833
  572MOL0     H75440   2.820   8.532   4.039  1.0182 -0.2318 -1.7382
  572MOL0     H75441   2.663   8.310   4.288 -0.3316 -0.1047  0.4505
  572MOL0     H75442   2.638   8.331   4.108  1.5485 -0.0068 -0.5129
  572MOL0     H75443   2.451   8.222   4.209 -1.2982 -0.1287 -1.1539
  572MOL0     H75444   2.390   8.378   4.184 -0.2641 -1.1373 -1.4602
  572MOL0     H75445   2.461   8.444   4.422 -1.2343  0.7360 -0.4344
  572MOL0     H75446   2.508   8.265   4.447  2.1159  0.6286  0.8217
  572MOL0     H75447   2.225   8.396   4.394 -1.8615 -1.9689 -0.7351
  572MOL0     H75448   2.249   8.221   4.412 -1.9444 -0.1930 -0.1864
  572MOL0     H75449   2.351   8.414   4.628 -0.8692 -0.6333  4.2551
  572MOL0     H75450   2.329   8.238   4.639 -0.9696  0.9303  2.3437
  572MOL0     H75451   2.078   8.411   4.586  2.4441 -0.4942 -1.2911
  572MOL0     H75452   2.169   8.461   4.714 -0.2333  1.9841 -2.4002
  572MOL0     H75453   2.085   8.168   4.690  0.9780 -0.0382  0.3385
  572MOL0     H75454   2.146   8.273   4.835 -1.5069  0.9276  0.7370
  572MOL0     H75455   1.918   8.195   4.869  1.7596  0.8674  1.0746
  572MOL0     H75456   1.863   8.301   4.738  0.5797 -0.4049 -0.4560
  572MOL0     H75457   1.932   8.558   4.742 -1.1283  0.2140 -0.2149
  572MOL0     H75458   2.005   8.804   4.883 -1.6700  2.1141 -0.2265
  572MOL0     H75459   1.985   8.809   5.061 -2.8178  0.2907  1.0146
  572MOL0     H75460   1.755   8.734   4.868 -3.3671 -0.3939 -0.0826
  572MOL0     H75461   1.802   8.906   4.904 -0.5139 -1.8540 -2.3495
  572MOL0     H75462   1.750   8.710   5.124  0.1347  1.2439  2.5833
  572MOL0     H75463   1.787   8.880   5.136 -0.6593 -1.1535  1.0126
  572MOL0     H75464   1.534   8.756   5.010  0.2149 -0.5904  1.1927
  572MOL0     H75465   1.550   8.929   5.050  1.1994  0.8685 -1.2208
  572MOL0     H75466   1.503   8.934   5.427  3.3758 -2.5072 -1.0812
  572MOL0     H75467   1.282   9.000   5.521  2.1915 -0.9406  0.6830
  572MOL0     H75468   1.051   9.184   5.675  0.0849  0.0581  0.5598
  572MOL0     H75469   0.884   9.345   5.716 -0.2429 -0.7432  0.3454
  572MOL0     H75470   0.729   9.493   5.735  0.0970  0.0348  0.2885
  572MOL0     H75471   0.671   9.379   5.853  3.0787  3.6270  0.4620
  572MOL0     H75472   0.555   9.591   5.860  0.3106 -0.3502 -0.5057
  572MOL0     H75473   0.443   9.465   5.841 -0.0258  3.7552  3.0940
  572MOL0     H75474   0.453   9.513   5.581 -2.6443  0.6176  1.5578
  572MOL0     H75475   0.546   9.658   5.619 -0.4510  1.0988  0.8910
  572MOL0     H75476   0.265   9.581   5.725  0.6509  0.3892  2.4578
  572MOL0     H75477   0.341   9.740   5.759 -3.8044  2.3372 -1.8092
  572MOL0     H75478   0.271   9.648   5.474  1.5810 -1.1217  0.7740
  572MOL0     H75479   0.324   9.808   5.533 -7.7247  4.9422  0.1816
  572MOL0     H75480   0.085   9.739   5.682  0.0212  1.5521  0.8952
  572MOL0     H75481   0.075   9.679   5.509  0.5701  1.6206 -1.1673
  572MOL0     H75482  -0.014   9.917   5.551 -1.8077 -1.8926 -1.3167
  572MOL0     H75483   0.167   9.942   5.576  0.5070 -1.5962  1.1686
  572MOL0     H75484   0.190   9.885   5.347  1.3746  2.2686  1.7047
  572MOL0     H75485   0.063  10.004   5.355  2.0189  1.1397  0.1847
  572MOL0     H75486   0.574   9.081   5.563 -0.5602  1.1157 -1.5304
  572MOL0     H75487   0.749   8.942   5.477 -0.2792  0.2304  0.3337
  572MOL0     H75488   1.113   8.705   5.241  2.8072 -4.5260  1.5934
  572MOL0     H75489   1.327   8.692   5.123 -1.8883 -0.5094  0.5235
  572MOL0     H75490   2.417   8.628   4.131  0.2832  0.0874 -0.3260
  572MOL0     H75491   2.386   8.725   3.918 -1.0271 -0.8325 -0.5489
  572MOL0     H75492   2.732   8.840   3.550  1.1029  3.7016 -0.6036
  572MOL0     H75493   2.786   8.929   3.326 -0.3200  0.0523  2.0077
  572MOL0     H75494   2.745   9.099   3.085 -0.1159 -1.3615 -1.1686
  572MOL0     H75495   2.643   9.118   3.231 -3.8732 -0.4351  1.1499
  572MOL0     H75496   2.446   9.104   3.047  1.2408 -2.1785 -0.7931
  572MOL0     H75497   2.514   9.253   3.108  0.3093  1.0633 -0.3637
  572MOL0     H75498   2.627   9.101   2.868  4.7148  1.0808  1.7905
  572MOL0     H75499   2.680   9.259   2.916 -0.8748  1.3529  2.2548
  572MOL0     H75500   2.437   9.345   2.867 -2.3684  0.8273 -3.6468
  572MOL0     H75501   2.530   9.299   2.729  0.2901 -1.8182 -0.7733
  572MOL0     H75502   2.194   9.036   2.723  0.3434 -0.1945 -3.0406
  572MOL0     H75503   2.366   8.889   3.230  0.1511 -0.2171 -1.9370
  572MOL0     H75504   2.326   8.792   3.440  0.6400 -2.7336  1.6977
  573MOL0     O75505  11.171   3.012   3.561 -0.7204  0.8701  0.3846
  573MOL0     C75506  11.135   2.898   3.528  1.3034 -0.1166 -0.0435
  573MOL0     O75507  11.194   2.782   3.555 -0.9247 -0.4881 -0.5699
  573MOL0     C75508  11.291   2.793   3.654  0.3935 -0.0216 -0.0608
  573MOL0     C75509  11.259   2.797   3.790 -0.1049  0.3143  0.4115
  573MOL0     C75510  11.360   2.800   3.886  0.1526 -0.4553  0.0227
  573MOL0     C75511  11.493   2.783   3.852  0.2341  0.0494 -0.1714
  573MOL0     O75512  11.583   2.769   3.947 -0.1703  0.1063  0.0917
  573MOL0     C75513  11.553   2.659   4.035  0.5026  0.3593 -0.4677
  573MOL0     C75514  11.684   2.588   4.086 -0.6237 -0.1439  0.2281
  573MOL0     C75515  11.760   2.515   3.971  0.6372 -0.3660 -0.2860
  573MOL0     C75516  11.874   2.427   4.022 -0.8850 -0.6278 -0.0189
  573MOL0     C75517  11.983   2.394   3.920  0.5589  0.1782  0.6049
  573MOL0     C75518  12.073   2.282   3.954  1.0994 -0.9049 -0.1916
  573MOL0     C75519  12.147   2.323   4.085  0.1243  0.0615 -0.3259
  573MOL0     C75520  12.289   2.265   4.079 -0.3058 -0.1138  0.4247
  573MOL0     N75521  12.301   2.121   4.108 -0.0353  0.7895  0.4826
  573MOL0     C75522  12.366   2.061   4.211 -0.0786 -0.3094  0.1565
  573MOL0     C75523  12.370   1.929   4.176  0.3521  0.8155 -0.1682
  573MOL0     C75524  12.428   1.804   4.242  0.2309  0.7978  0.0363
  573MOL0     C75525  12.577   1.827   4.277 -0.2336  0.3172 -0.3473
  573MOL0     C75526  12.645   1.712   4.347  0.4008  0.2354  0.6248
  573MOL0     C75527  12.794   1.733   4.381  0.1138 -0.2307  0.7687
  573MOL0     O75528  12.877   1.798   4.278  0.0031  0.6298  0.5563
  573MOL0     C75529  13.010   1.808   4.309 -0.1769  0.0805 -0.9417
  573MOL0     C75530  13.070   1.741   4.418 -0.0256  0.1934 -0.1666
  573MOL0     C75531  13.208   1.752   4.434  0.5867  0.2540 -0.7876
  573MOL0     C75532  13.276   1.828   4.347 -0.3224 -0.6022  0.5710
  573MOL0     C75533  13.426   1.835   4.357 -0.2899 -0.8970 -0.2167
  573MOL0     O75534  13.491   1.796   4.472 -0.6842  0.1285 -0.6912
  573MOL0     C75535  13.634   1.804   4.473  0.2867 -0.1282 -0.0550
  573MOL0     C75536  13.715   1.701   4.414  0.3623  0.0980  0.1022
  573MOL0     C75537  13.854   1.707   4.416 -0.4112 -0.3297  0.3044
  573MOL0     C75538  13.907   1.821   4.472 -0.7478  0.7808 -0.6396
  573MOL0     O75539  14.043   1.832   4.491 -0.8970 -0.2351  0.2840
  573MOL0     C75540  14.121   1.710   4.507  0.0716 -0.5892 -0.3673
  573MOL0     C75541  14.222   1.736   4.626  0.4322 -0.1289 -0.2624
  573MOL0     C75542  14.349   1.811   4.575  0.2123  0.2904  0.4391
  573MOL0     C75543  14.433   1.870   4.687  0.6368  0.1314  0.3047
  573MOL0     C75544  14.545   1.950   4.614  0.9011 -0.2314 -0.4746
  573MOL0     C75545  14.649   2.012   4.710 -0.1471  0.5236  0.3567
  573MOL0     C75546  14.779   2.044   4.638  0.3624 -1.2913 -0.0104
  573MOL0     C75547  14.899   2.037   4.736 -0.9671  0.9038  0.3731
  573MOL0    Cl75548  14.849   2.133   4.867  0.2739  0.0957 -0.5336
  573MOL0     C75549  13.831   1.923   4.533  0.9392  0.1055  0.3919
  573MOL0     C75550  13.697   1.909   4.534 -0.1413  0.6258  0.5052
  573MOL0     O75551  13.478   1.902   4.263  1.0891  0.4096 -0.0369
  573MOL0     C75552  13.211   1.905   4.247  0.3792 -0.2811  0.0806
  573MOL0     C75553  13.076   1.894   4.223 -0.0539 -0.2003 -0.1023
  573MOL0     N75554  12.312   1.907   4.054  0.3756 -0.0444 -0.2678
  573MOL0     N75555  12.279   2.021   4.007  0.3692 -0.8579  0.2203
  573MOL0     C75556  11.521   2.774   3.719  0.3186 -0.3341  1.0083
  573MOL0     C75557  11.422   2.782   3.618  1.0224  0.8331 -0.4689
  573MOL0     C75558  11.005   2.877   3.453 -0.1066  0.2889  0.3798
  573MOL0     C75559  10.958   2.979   3.367 -0.7833 -0.2054  0.5174
  573MOL0     C75560  10.833   2.971   3.304 -0.1203  0.2008  0.9041
  573MOL0     C75561  10.754   2.861   3.313 -0.1866 -0.2062  0.1108
  573MOL0     O75562  10.633   2.833   3.251 -0.2416 -0.2229  0.5298
  573MOL0     C75563  10.658   2.812   3.109 -0.1977 -0.2535  0.1937
  573MOL0     C75564  10.582   2.921   3.027  0.0349  0.3499 -0.6074
  573MOL0     C75565  10.608   2.931   2.879 -0.1397  0.2499  0.1469
  573MOL0     C75566  10.549   3.058   2.815 -1.3195 -0.2464 -0.7111
  573MOL0     C75567  10.403   3.051   2.786  1.2610 -0.1381  0.3458
  573MOL0     C75568  10.290   3.046   2.745 -0.9090  0.0751  0.1482
  573MOL0     C75569  10.807   2.754   3.396  0.6662  0.9623 -0.3663
  573MOL0     C75570  10.930   2.757   3.456 -0.3967  0.5095 -0.3226
  573MOL0     H75571  11.157   2.817   3.823 -0.4690 -0.5444 -0.1631
  573MOL0     H75572  11.338   2.818   3.990  1.2200  1.7934 -0.0762
  573MOL0     H75573  11.497   2.579   3.986  2.1990 -0.4614 -1.1466
  573MOL0     H75574  11.492   2.703   4.114  0.6901 -0.4978  0.1669
  573MOL0     H75575  11.663   2.523   4.171 -1.6637 -0.5013 -0.2787
  573MOL0     H75576  11.755   2.656   4.134  0.4422 -2.8330  2.6969
  573MOL0     H75577  11.810   2.587   3.905  3.3849 -1.4706  0.4362
  573MOL0     H75578  11.696   2.451   3.910  1.2599  0.7225 -2.1770
  573MOL0     H75579  11.930   2.476   4.102 -0.4717  0.7350 -1.0872
  573MOL0     H75580  11.831   2.331   4.048 -3.7492 -0.1131 -2.2673
  573MOL0     H75581  12.037   2.483   3.886  2.0617 -0.7254  0.5268
  573MOL0     H75582  11.921   2.373   3.832 -2.8685 -0.8038  3.0668
  573MOL0     H75583  12.140   2.259   3.870 -0.6644 -0.4485 -1.8063
  573MOL0     H75584  12.019   2.189   3.973  1.5995 -1.4549 -1.3551
  573MOL0     H75585  12.156   2.432   4.088 -1.2749  0.2796 -2.1718
  573MOL0     H75586  12.101   2.272   4.171  2.9403 -3.3467 -0.5970
  573MOL0     H75587  12.350   2.333   4.140 -1.9131  2.4437 -0.6254
  573MOL0     H75588  12.325   2.279   3.977  2.8876 -0.9560  1.3191
  573MOL0     H75589  12.409   2.118   4.293  0.2156 -0.6372  0.2344
  573MOL0     H75590  12.428   1.716   4.177 -0.6385  0.3408  0.6439
  573MOL0     H75591  12.364   1.771   4.324 -1.8038 -0.3435 -1.9297
  573MOL0     H75592  12.584   1.913   4.344 -1.0689  0.6290 -0.6443
  573MOL0     H75593  12.639   1.849   4.190  1.6320  0.8972  1.0598
  573MOL0     H75594  12.581   1.695   4.435 -1.7280  0.2894 -0.8382
  573MOL0     H75595  12.634   1.619   4.290 -1.0114  1.2771 -0.8924
  573MOL0     H75596  12.832   1.632   4.401 -1.2357 -0.5324  1.9706
  573MOL0     H75597  12.794   1.792   4.473 -3.7329 -1.3324  1.6460
  573MOL0     H75598  13.023   1.676   4.491 -0.2656 -1.7542 -1.9529
  573MOL0     H75599  13.263   1.694   4.508 -1.9082 -0.2603  0.7735
  573MOL0     H75600  13.658   1.621   4.368 -2.5396  2.4827 -0.8456
  573MOL0     H75601  13.917   1.634   4.366 -2.0200  0.2094 -2.7232
  573MOL0     H75602  14.188   1.688   4.424  0.8532 -0.7551  0.2922
  573MOL0     H75603  14.057   1.626   4.535  1.3612 -0.6250  3.0165
  573MOL0     H75604  14.263   1.642   4.662  1.6828 -0.8367 -3.1957
  573MOL0     H75605  14.185   1.800   4.706  2.9510  1.4726 -0.2682
  573MOL0     H75606  14.329   1.892   4.504 -0.4325  3.0793  3.5519
  573MOL0     H75607  14.407   1.740   4.516 -0.8304 -0.2403  0.0151
  573MOL0     H75608  14.374   1.923   4.762 -0.5974 -2.3538  1.2062
  573MOL0     H75609  14.473   1.791   4.751  1.8768 -0.2614 -0.9028
  573MOL0     H75610  14.507   2.021   4.540  1.4530  2.8774  2.0420
  573MOL0     H75611  14.597   1.874   4.556 -1.6414 -1.0259 -1.8795
  573MOL0     H75612  14.674   1.935   4.783  0.6889 -0.5671 -1.0296
  573MOL0     H75613  14.604   2.101   4.756 -3.0558  0.2156 -1.6192
  573MOL0     H75614  14.797   1.988   4.546  0.2689  2.1552 -2.2949
  573MOL0     H75615  14.771   2.147   4.604  1.4526 -0.8452  1.0151
  573MOL0     H75616  14.995   2.074   4.698 -0.9528  1.5960  1.0444
  573MOL0     H75617  14.922   1.937   4.773  2.7096  1.0976 -0.9903
  573MOL0     H75618  13.860   2.014   4.585 -5.2301  2.0623  1.3314
  573MOL0     H75619  13.638   1.987   4.581 -1.2237 -0.7545  1.5325
  573MOL0     H75620  13.267   1.960   4.173  0.2148  0.2729  0.3585
  573MOL0     H75621  13.019   1.947   4.146 -0.9430 -0.2222  0.5223
  573MOL0     H75622  11.623   2.783   3.682 -1.8817  2.2947 -6.2581
  573MOL0     H75623  11.437   2.784   3.511 -0.3303  0.0981 -0.7034
  573MOL0     H75624  11.018   3.070   3.365  0.0046 -0.4849  4.1235
  573MOL0     H75625  10.810   3.052   3.236  1.5786 -0.0633 -0.0272
  573MOL0     H75626  10.619   2.710   3.097  1.8531 -1.0425 -0.2325
  573MOL0     H75627  10.763   2.811   3.079 -0.9983  1.4152 -3.0156
  573MOL0     H75628  10.479   2.889   3.045  0.3619 -0.5075 -0.2330
  573MOL0     H75629  10.616   3.015   3.071  0.1741  0.1320 -0.2419
  573MOL0     H75630  10.581   2.840   2.826  1.5312 -1.4832  2.0590
  573MOL0     H75631  10.717   2.939   2.871  0.0717 -2.3116 -0.4919
  573MOL0     H75632  10.558   3.135   2.892  0.0136 -1.1131  0.0558
  573MOL0     H75633  10.616   3.088   2.734  3.3004 -0.2401  2.6873
  573MOL0     H75634  10.193   3.029   2.703  0.2929 -1.1855 -2.3100
  573MOL0     H75635  10.746   2.664   3.400  2.1704 -0.2818 -2.7613
  573MOL0     H75636  10.964   2.666   3.506  0.9067  1.4201  0.5278
  574MOL0     O75637  10.674   1.474   0.909  0.0730 -0.3492  0.7837
  574MOL0     C75638  10.719   1.577   0.952  0.8910 -0.7006  0.3220
  574MOL0     O75639  10.674   1.645   1.066 -0.0750  0.4513  0.2871
  574MOL0     C75640  10.583   1.585   1.155  0.3988  0.8318  0.2991
  574MOL0     C75641  10.460   1.542   1.105 -0.7186  0.2745  0.3977
  574MOL0     C75642  10.365   1.475   1.181  0.2778 -0.4303  0.2399
  574MOL0     C75643  10.391   1.457   1.323 -0.0542 -0.0645 -0.1307
  574MOL0     O75644  10.285   1.405   1.395  0.4858  0.0895  0.0935
  574MOL0     C75645  10.318   1.348   1.528  0.0330 -0.4037  0.1592
  574MOL0     C75646  10.222   1.247   1.579  0.7120  1.1370 -0.2993
  574MOL0     C75647  10.076   1.257   1.521  0.3977  0.0755 -0.4850
  574MOL0     C75648   9.969   1.157   1.572 -0.2008 -0.2148  0.1165
  574MOL0     C75649   9.832   1.198   1.519 -0.5899  0.4794  0.5277
  574MOL0     C75650   9.773   1.317   1.593 -1.2235 -1.0880  0.4158
  574MOL0     C75651   9.624   1.348   1.538  0.2996  0.6289  0.1665
  574MOL0     C75652   9.587   1.334   1.391 -0.1872 -0.5196  0.6868
  574MOL0     N75653   9.440   1.362   1.376 -0.0535 -0.0519 -0.5083
  574MOL0     C75654   9.383   1.479   1.327  0.3690 -0.4521 -0.8303
  574MOL0     C75655   9.244   1.465   1.347 -0.2837 -0.0485 -0.0717
  574MOL0     C75656   9.118   1.543   1.302 -0.1105 -0.1986  0.1212
  574MOL0     C75657   9.051   1.457   1.191  1.2544  0.9908 -0.0822
  574MOL0     C75658   8.983   1.542   1.096  1.1892 -0.5740 -0.2792
  574MOL0     C75659   8.872   1.471   1.028  0.5166 -0.0008  0.2274
  574MOL0     O75660   8.757   1.458   1.115  0.4964 -0.6943 -0.1586
  574MOL0     C75661   8.637   1.413   1.061 -0.5506 -0.6776 -0.0200
  574MOL0     C75662   8.534   1.389   1.157 -0.1008  0.2140 -0.4910
  574MOL0     C75663   8.407   1.343   1.117 -0.9393 -0.4850  0.3530
  574MOL0     C75664   8.369   1.349   0.986 -0.4567 -0.2310  0.4500
  574MOL0     C75665   8.233   1.316   0.933 -0.0003 -0.9185 -0.3462
  574MOL0     O75666   8.207   1.360   0.806  0.5488 -0.1629  0.1354
  574MOL0     C75667   8.077   1.354   0.766 -0.3722 -0.1704 -0.0635
  574MOL0     C75668   7.979   1.423   0.836 -1.0027  0.0950  1.1040
  574MOL0     C75669   7.847   1.425   0.787 -0.5662 -0.2488 -0.3309
  574MOL0     C75670   7.820   1.362   0.669  0.1316 -0.0665  1.0697
  574MOL0     O75671   7.693   1.354   0.615 -0.3572  0.8562  0.0310
  574MOL0     C75672   7.594   1.445   0.657  1.0339 -0.0204  0.1095
  574MOL0     C75673   7.481   1.413   0.564  0.7000  0.6639 -0.3495
  574MOL0     C75674   7.373   1.521   0.579 -1.0376 -0.1340 -0.5030
  574MOL0     C75675   7.239   1.500   0.496  0.8283  0.2843 -0.2223
  574MOL0     C75676   7.137   1.598   0.552  0.7257  0.7201  0.1413
  574MOL0     C75677   7.023   1.614   0.451 -0.3240  0.7467 -0.3761
  574MOL0     C75678   6.978   1.754   0.418 -1.0311  0.2117 -0.4759
  574MOL0     C75679   7.083   1.836   0.342 -0.1298  0.5253  0.5627
  574MOL0    Cl75680   7.104   1.763   0.170 -0.1184  0.2167  0.1766
  574MOL0     C75681   7.915   1.293   0.597  0.0450  0.2762  0.7622
  574MOL0     C75682   8.044   1.296   0.648 -0.5364  0.3768 -0.2309
  574MOL0     O75683   8.153   1.263   1.007 -0.2857 -0.0880  0.4914
  574MOL0     C75684   8.470   1.380   0.892 -1.0916 -0.8420  0.1185
  574MOL0     C75685   8.606   1.411   0.931 -0.6657  0.3592  1.0784
  574MOL0     N75686   9.232   1.349   1.427  0.2949  0.1011  0.1381
  574MOL0     N75687   9.343   1.293   1.439 -0.3654 -0.3217  0.1866
  574MOL0     C75688  10.517   1.492   1.371 -0.0703 -0.6730  0.6919
  574MOL0     C75689  10.615   1.549   1.287 -0.4263  0.2274 -0.1542
  574MOL0     C75690  10.846   1.631   0.888  0.5086 -0.0443 -0.8077
  574MOL0     C75691  10.876   1.602   0.756 -0.2830  0.1446  0.1025
  574MOL0     C75692  11.005   1.633   0.709 -0.0865 -1.0707  0.2100
  574MOL0     C75693  11.102   1.688   0.790 -0.6377  1.2000  1.0110
  574MOL0     O75694  11.227   1.692   0.727  0.1926 -0.5669  0.2162
  574MOL0     C75695  11.331   1.768   0.796  0.0126  0.0108  0.0334
  574MOL0     C75696  11.438   1.824   0.707 -0.7204 -0.1217 -0.6760
  574MOL0     C75697  11.501   1.707   0.631  0.2997  0.1470 -0.2866
  574MOL0     C75698  11.641   1.742   0.577 -0.3688  0.0724  0.1214
  574MOL0     C75699  11.738   1.744   0.685 -0.4845 -0.6171 -0.4432
  574MOL0     C75700  11.825   1.734   0.774  1.4153  1.0489  0.4557
  574MOL0     C75701  11.065   1.726   0.917 -0.1995 -0.7122 -0.1705
  574MOL0     C75702  10.944   1.692   0.966 -0.5961 -0.2839  0.2159
  574MOL0     H75703  10.454   1.559   0.998  2.1378  3.4115  0.5594
  574MOL0     H75704  10.274   1.439   1.135  1.0757  1.8881 -3.5555
  574MOL0     H75705  10.305   1.436   1.592  2.1111 -0.6537  1.0146
  574MOL0     H75706  10.421   1.319   1.550  1.0808  1.8401 -1.3357
  574MOL0     H75707  10.206   1.251   1.688 -0.0321  0.6467 -0.3782
  574MOL0     H75708  10.259   1.144   1.569 -4.8010 -1.8478  4.0665
  574MOL0     H75709  10.068   1.258   1.412  0.1974 -0.9958 -0.4826
  574MOL0     H75710  10.041   1.355   1.555 -0.4733 -1.1977  2.6288
  574MOL0     H75711   9.999   1.054   1.549  0.4421 -0.7862  3.1134
  574MOL0     H75712   9.970   1.167   1.681 -0.5439  1.4111 -0.0137
  574MOL0     H75713   9.762   1.113   1.523  1.0088 -0.9317 -0.2176
  574MOL0     H75714   9.839   1.216   1.411 -1.8820 -2.4126 -0.1529
  574MOL0     H75715   9.833   1.407   1.578 -3.6265  0.9594  2.2400
  574MOL0     H75716   9.765   1.306   1.701 -3.1924  1.4763  0.6158
  574MOL0     H75717   9.558   1.277   1.590  3.0292 -2.7110 -0.5588
  574MOL0     H75718   9.605   1.449   1.576  1.0476  1.3987 -1.4448
  574MOL0     H75719   9.607   1.235   1.350 -0.8885 -0.7693  0.9224
  574MOL0     H75720   9.632   1.406   1.322 -0.2170 -0.8540  0.3118
  574MOL0     H75721   9.420   1.567   1.276 -0.2529 -0.3445 -1.1027
  574MOL0     H75722   9.152   1.641   1.268  1.6633 -0.3833  1.2355
  574MOL0     H75723   9.051   1.573   1.382 -1.1790 -0.3211 -0.7061
  574MOL0     H75724   8.981   1.393   1.245  0.3765  2.4804  0.5997
  574MOL0     H75725   9.123   1.408   1.125 -0.7817 -0.3097 -1.4478
  574MOL0     H75726   8.943   1.621   1.160 -0.1428 -3.3580  2.5933
  574MOL0     H75727   9.058   1.590   1.032 -1.3221  2.2557 -1.3404
  574MOL0     H75728   8.905   1.376   0.987  0.3944  0.5308 -1.1561
  574MOL0     H75729   8.844   1.545   0.953 -1.2227  0.5641  1.3619
  574MOL0     H75730   8.560   1.397   1.262 -1.3146  1.4543 -0.2461
  574MOL0     H75731   8.329   1.330   1.190 -0.7279 -1.3921  0.4272
  574MOL0     H75732   7.997   1.455   0.938 -1.0362 -1.1801  1.5237
  574MOL0     H75733   7.773   1.484   0.840 -1.0958 -0.7677 -0.4740
  574MOL0     H75734   7.631   1.547   0.640  1.2700 -0.3427 -1.4226
  574MOL0     H75735   7.564   1.439   0.762  4.0100 -0.8008  1.0107
  574MOL0     H75736   7.435   1.316   0.583  0.9663  0.3534 -1.2253
  574MOL0     H75737   7.530   1.423   0.467  0.6161  0.3182 -0.4291
  574MOL0     H75738   7.417   1.613   0.538 -2.4048  1.5814  1.6553
  574MOL0     H75739   7.341   1.549   0.680 -2.1538  0.2304 -0.9486
  574MOL0     H75740   7.248   1.520   0.389 -7.8445  1.1069 -1.5291
  574MOL0     H75741   7.204   1.400   0.521 -0.1286  0.6271 -0.1474
  574MOL0     H75742   7.190   1.690   0.583 -0.1313  0.5240  2.3952
  574MOL0     H75743   7.099   1.563   0.649  1.3866 -4.6087 -1.2208
  574MOL0     H75744   6.943   1.559   0.501  1.5012 -1.4860  0.2334
  574MOL0     H75745   7.035   1.551   0.363  0.2623  0.1878  0.1020
  574MOL0     H75746   6.891   1.756   0.351 -0.1262 -0.9684 -1.7566
  574MOL0     H75747   6.960   1.816   0.506  3.5282  0.1499  0.7488
  574MOL0     H75748   7.177   1.837   0.397  0.2350 -1.3107  0.0519
  574MOL0     H75749   7.052   1.940   0.334 -0.6535  0.2599 -4.1730
  574MOL0     H75750   7.887   1.234   0.510 -0.8446  0.5805  0.8349
  574MOL0     H75751   8.122   1.245   0.592 -1.7599  1.0686 -2.7188
  574MOL0     H75752   8.442   1.370   0.788  1.0727 -3.0308 -0.3426
  574MOL0     H75753   8.674   1.439   0.851 -1.8416 -0.7325 -0.3557
  574MOL0     H75754  10.540   1.467   1.474 -1.7667  2.2684  1.9128
  574MOL0     H75755  10.717   1.559   1.321 -1.0878 -2.7950  3.4507
  574MOL0     H75756  10.804   1.545   0.698 -1.6063  1.1895  0.6628
  574MOL0     H75757  11.028   1.596   0.609 -0.1624  1.3954 -0.7964
  574MOL0     H75758  11.387   1.713   0.872 -2.0488  0.9220  2.3545
  574MOL0     H75759  11.289   1.849   0.856  1.0105 -1.8470  3.5285
  574MOL0     H75760  11.402   1.901   0.638 -3.7308  0.0126  0.8781
  574MOL0     H75761  11.519   1.866   0.768  2.1841 -2.5983 -2.5323
  574MOL0     H75762  11.430   1.666   0.558 -0.2560 -0.5666  0.6321
  574MOL0     H75763  11.524   1.626   0.701  0.8267  0.9676  0.5103
  574MOL0     H75764  11.680   1.668   0.506 -3.6250  1.2881 -3.2846
  574MOL0     H75765  11.635   1.838   0.524 -0.1910  1.5875  2.6597
  574MOL0     H75766  11.904   1.739   0.847  1.4952  0.2103  0.4347
  574MOL0     H75767  11.135   1.770   0.988  0.8225  0.6445 -1.9350
  574MOL0     H75768  10.926   1.711   1.072 -3.4096  2.6404 -0.6109
  575MOL0     O75769   6.784  11.209   7.206  0.6053 -0.1760  0.6579
  575MOL0     C75770   6.857  11.298   7.247 -0.2742  0.1883 -0.2481
  575MOL0     O75771   6.821  11.401   7.326 -0.1485  0.3335 -0.0218
  575MOL0     C75772   6.688  11.424   7.340 -0.7037  0.0800  1.0979
  575MOL0     C75773   6.641  11.441   7.469  1.5512  0.2567  0.2319
  575MOL0     C75774   6.502  11.453   7.497  0.3795 -0.1708  0.3440
  575MOL0     C75775   6.408  11.447   7.392 -0.2617 -0.2312  0.9784
  575MOL0     O75776   6.279  11.452   7.438  0.1837  0.2355  0.2697
  575MOL0     C75777   6.173  11.485   7.355  0.3824  0.6908 -0.5131
  575MOL0     C75778   6.049  11.464   7.440  0.0915 -0.0251 -0.1607
  575MOL0     C75779   5.921  11.528   7.388 -0.2417  0.3614 -1.4383
  575MOL0     C75780   5.910  11.677   7.403  0.3016  0.2395  0.3112
  575MOL0     C75781   5.791  11.749   7.342  0.3578  0.9204 -0.1444
  575MOL0     C75782   5.655  11.691   7.402 -0.4295  0.2325  0.2816
  575MOL0     C75783   5.533  11.690   7.303 -0.6941  0.8568 -0.7689
  575MOL0     C75784   5.501  11.832   7.260  0.4033  0.3502  0.1419
  575MOL0     N75785   5.440  11.836   7.129  0.2014 -0.1660  0.3168
  575MOL0     C75786   5.314  11.785   7.095  0.3200  0.1030  0.9463
  575MOL0     C75787   5.299  11.843   6.970  1.0053 -0.6405  1.1737
  575MOL0     C75788   5.171  11.831   6.892 -0.7845 -0.7569  0.0745
  575MOL0     C75789   5.035  11.873   6.975  0.1472 -0.8547  0.5535
  575MOL0     C75790   4.991  12.015   6.942 -0.1204 -0.7692 -0.4917
  575MOL0     C75791   4.933  12.032   6.804 -0.0117 -0.2809  0.4323
  575MOL0     O75792   4.804  11.966   6.808  0.1435 -0.4012 -0.5970
  575MOL0     C75793   4.725  12.018   6.711  0.5611 -0.0238  0.6359
  575MOL0     C75794   4.744  11.987   6.575 -0.0861 -0.9581  0.5577
  575MOL0     C75795   4.661  12.045   6.482  0.0266 -0.6510 -0.3698
  575MOL0     C75796   4.559  12.127   6.519 -0.1450 -0.3285  0.1551
  575MOL0     C75797   4.472  12.189   6.414 -0.4443  0.0885 -0.6851
  575MOL0     O75798   4.347  12.216   6.449 -0.0329 -0.2585  0.8815
  575MOL0     C75799   4.251  12.282   6.373 -0.5529 -0.3306  0.0857
  575MOL0     C75800   4.135  12.328   6.428 -0.0121 -0.5868  0.7743
  575MOL0     C75801   4.031  12.389   6.355  0.9437 -0.3317  0.7405
  575MOL0     C75802   4.040  12.408   6.216 -0.0904 -0.5240 -0.2114
  575MOL0     O75803   3.940  12.485   6.165  0.1174 -0.3640 -0.4944
  575MOL0     C75804   3.935  12.507   6.023 -0.0891 -0.5543 -0.6860
  575MOL0     C75805   3.814  12.600   6.000 -0.1172 -0.0162 -0.1920
  575MOL0     C75806   3.683  12.518   5.983  0.2876 -0.1413  0.8057
  575MOL0     C75807   3.561  12.612   5.970 -0.3741  0.6124  0.0558
  575MOL0     C75808   3.438  12.518   5.978 -0.0984 -0.4504 -0.3599
  575MOL0     C75809   3.301  12.585   5.951 -0.3517 -0.4459 -0.0572
  575MOL0     C75810   3.238  12.542   5.817 -0.4616  0.4774 -0.3165
  575MOL0     C75811   3.115  12.632   5.789  0.5843  1.0533 -0.7349
  575MOL0    Cl75812   2.999  12.588   5.922  0.0479 -0.2928  0.3454
  575MOL0     C75813   4.158  12.364   6.157  0.6624  0.2909  0.0385
  575MOL0     C75814   4.247  12.281   6.230  0.7720  0.3206  0.5803
  575MOL0     O75815   4.525  12.210   6.309 -0.6414 -0.5053 -0.1179
  575MOL0     C75816   4.530  12.150   6.657  0.5173  0.8027 -0.0203
  575MOL0     C75817   4.621  12.101   6.750  0.6198  0.9322 -0.3368
  575MOL0     N75818   5.409  11.912   6.926 -0.3591 -0.2441  0.1961
  575MOL0     N75819   5.495  11.890   7.023 -0.5340 -0.4931 -0.2490
  575MOL0     C75820   6.457  11.436   7.259 -1.0192  0.4810  1.2424
  575MOL0     C75821   6.597  11.411   7.237 -0.1575  0.5866  0.0250
  575MOL0     C75822   7.002  11.280   7.217  0.1043  0.7364 -1.1521
  575MOL0     C75823   7.060  11.172   7.139 -0.8416 -1.0025  0.2803
  575MOL0     C75824   7.203  11.152   7.122  1.0488 -0.0994  0.5410
  575MOL0     C75825   7.288  11.243   7.171 -1.5230  0.0648  0.8400
  575MOL0     O75826   7.429  11.221   7.138 -0.6133  0.1548 -0.1956
  575MOL0     C75827   7.521  11.316   7.185 -0.5413  0.1877 -0.4042
  575MOL0     C75828   7.645  11.301   7.105  0.1557  0.2608 -0.2069
  575MOL0     C75829   7.766  11.365   7.166 -0.0041 -0.8010 -0.7155
  575MOL0     C75830   7.899  11.360   7.084  0.6863  0.1790 -0.6502
  575MOL0     C75831   7.900  11.425   6.953  1.1238  0.1593 -0.1934
  575MOL0     C75832   7.892  11.485   6.846  0.1179  0.4429 -0.3968
  575MOL0     C75833   7.236  11.349   7.249  0.0134 -0.6611 -0.0362
  575MOL0     C75834   7.102  11.359   7.269  0.8774 -0.4147 -0.2153
  575MOL0     H75835   6.717  11.451   7.545 -0.0621  1.5862  1.7566
  575MOL0     H75836   6.475  11.481   7.599 -0.4758  1.9099 -0.4196
  575MOL0     H75837   6.163  11.434   7.258 -2.8543  1.6698 -0.8198
  575MOL0     H75838   6.183  11.592   7.335 -0.0343  0.7441 -0.4341
  575MOL0     H75839   6.070  11.503   7.539  1.5399 -0.2328 -0.3558
  575MOL0     H75840   6.030  11.357   7.453 -1.2353  0.4328  2.0205
  575MOL0     H75841   5.835  11.487   7.441 -1.5772  3.4049 -1.0182
  575MOL0     H75842   5.900  11.512   7.282  1.3803  0.5376 -1.8202
  575MOL0     H75843   5.910  11.716   7.505  0.1424  1.2683 -0.0655
  575MOL0     H75844   6.006  11.709   7.360  0.9207 -2.9131 -0.9341
  575MOL0     H75845   5.792  11.734   7.233  0.6037  1.4882 -0.2195
  575MOL0     H75846   5.789  11.858   7.344 -1.2377  1.0509 -2.8601
  575MOL0     H75847   5.636  11.758   7.486  3.5684  2.5035 -0.4224
  575MOL0     H75848   5.652  11.587   7.436  0.7232  0.2299  0.4093
  575MOL0     H75849   5.559  11.621   7.222 -2.9133 -1.5051  0.3599
  575MOL0     H75850   5.445  11.656   7.358  1.1086 -1.4693  0.8924
  575MOL0     H75851   5.595  11.887   7.257 -0.0636  1.2122  0.8153
  575MOL0     H75852   5.435  11.874   7.336 -0.1872 -3.6879  2.1628
  575MOL0     H75853   5.246  11.723   7.152  1.2067  0.9791  3.0362
  575MOL0     H75854   5.164  11.729   6.855  1.6823 -0.8991 -0.2171
  575MOL0     H75855   5.173  11.899   6.806 -1.5535  0.6066  1.0873
  575MOL0     H75856   5.058  11.862   7.082  0.8438  0.8248  0.6143
  575MOL0     H75857   4.949  11.812   6.949  0.6787 -1.1246 -0.6061
  575MOL0     H75858   4.926  12.059   7.018 -0.0392 -0.3309 -0.6701
  575MOL0     H75859   5.081  12.077   6.942 -0.1006 -0.7971 -0.8064
  575MOL0     H75860   4.990  11.973   6.731  2.8818  1.0592  1.4470
  575MOL0     H75861   4.915  12.135   6.771 -1.0720 -1.3777 -2.8139
  575MOL0     H75862   4.828  11.935   6.530 -0.8761  0.6601 -3.2400
  575MOL0     H75863   4.680  12.040   6.375  2.5088  2.9735 -0.3143
  575MOL0     H75864   4.131  12.321   6.537 -0.9546  1.3301  0.9134
  575MOL0     H75865   3.940  12.408   6.411 -1.2229  0.2790 -2.7219
  575MOL0     H75866   3.935  12.412   5.969  0.6163  0.3026 -2.2895
  575MOL0     H75867   4.030  12.558   6.004 -0.2075  0.5519  1.4272
  575MOL0     H75868   3.822  12.653   5.905  0.8641  1.8495  0.8776
  575MOL0     H75869   3.789  12.675   6.075  0.2516  0.9534 -1.0169
  575MOL0     H75870   3.664  12.460   6.075  1.6453  0.0182  1.2025
  575MOL0     H75871   3.690  12.453   5.896 -0.4675 -0.3381  0.8783
  575MOL0     H75872   3.554  12.680   6.056 -1.2605  0.0608  0.4298
  575MOL0     H75873   3.577  12.675   5.883 -0.9323 -2.6312 -2.5909
  575MOL0     H75874   3.433  12.486   6.082 -0.4406  3.5763  1.0500
  575MOL0     H75875   3.447  12.426   5.919  1.7037 -0.0047 -0.8405
  575MOL0     H75876   3.307  12.694   5.950  1.2218 -0.5169 -0.7753
  575MOL0     H75877   3.236  12.553   6.034  0.1086 -2.3937 -0.3946
  575MOL0     H75878   3.314  12.536   5.739 -1.5809 -1.7255 -1.3231
  575MOL0     H75879   3.196  12.440   5.811  0.4458  0.0376  0.5403
  575MOL0     H75880   3.072  12.599   5.694 -0.3868 -0.2147  0.1132
  575MOL0     H75881   3.138  12.739   5.794 -1.3194  1.4334  0.9362
  575MOL0     H75882   4.181  12.392   6.055  0.1315 -2.3729 -0.9082
  575MOL0     H75883   4.319  12.245   6.157 -1.4594  3.1264 -3.3619
  575MOL0     H75884   4.436  12.197   6.684 -1.3254 -2.4422 -0.2309
  575MOL0     H75885   4.603  12.122   6.856 -3.4483  0.0340 -0.6754
  575MOL0     H75886   6.388  11.444   7.175  0.6246  1.7418 -0.0619
  575MOL0     H75887   6.644  11.416   7.139  1.7920  0.6642  0.9227
  575MOL0     H75888   6.993  11.113   7.077 -0.1104 -0.1899 -1.3507
  575MOL0     H75889   7.246  11.082   7.050  2.2246  0.3664  0.7690
  575MOL0     H75890   7.539  11.296   7.291 -2.6759 -2.6087 -0.4397
  575MOL0     H75891   7.480  11.416   7.173  1.6069  0.8802 -2.8709
  575MOL0     H75892   7.664  11.193   7.095 -1.1779  0.0989 -1.2279
  575MOL0     H75893   7.630  11.334   7.002  1.5464 -0.0907 -0.5461
  575MOL0     H75894   7.770  11.316   7.264  0.5420 -1.1658 -0.9116
  575MOL0     H75895   7.734  11.468   7.179  2.0507 -0.3785  1.9636
  575MOL0     H75896   7.979  11.397   7.149  0.1555 -1.7880  1.2723
  575MOL0     H75897   7.929  11.255   7.071  1.2748  0.1921  0.3918
  575MOL0     H75898   7.892  11.546   6.758  0.1825 -1.5828 -1.8870
  575MOL0     H75899   7.297  11.412   7.313 -2.3399  2.4146 -0.5945
  575MOL0     H75900   7.067  11.428   7.345 -0.5369  1.9425 -2.8390
  576MOL0     O75901   4.596   5.910   0.745 -0.4875 -0.1042  0.7080
  576MOL0     C75902   4.521   5.816   0.787  0.4244  1.4016 -0.1950
  576MOL0     O75903   4.556   5.712   0.870 -0.8248  0.0463  0.8709
  576MOL0     C75904   4.683   5.684   0.919  0.5956 -0.7575 -0.6942
  576MOL0     C75905   4.699   5.634   1.052  0.9397  1.2456  0.0158
  576MOL0     C75906   4.820   5.601   1.098  0.2402  0.1452 -0.3386
  576MOL0     C75907   4.937   5.620   1.023  0.0933 -0.0279  1.0973
  576MOL0     O75908   5.061   5.592   1.075 -1.2875  0.5730 -0.1471
  576MOL0     C75909   5.178   5.620   1.006  0.3266 -0.2258  0.1904
  576MOL0     C75910   5.284   5.583   1.104  0.0766  0.1377  0.0542
  576MOL0     C75911   5.415   5.627   1.066  0.2501  0.6884 -0.4333
  576MOL0     C75912   5.510   5.623   1.194 -0.1538 -0.3415  0.2927
  576MOL0     C75913   5.649   5.660   1.152  0.9363  0.4081 -0.1319
  576MOL0     C75914   5.747   5.656   1.267 -0.0709 -0.4313  0.3655
  576MOL0     C75915   5.878   5.732   1.243 -0.2343 -1.0561 -0.2306
  576MOL0     C75916   5.955   5.687   1.113 -0.4028 -0.2907  0.5261
  576MOL0     N75917   6.030   5.563   1.140 -0.6511  0.4584 -0.0831
  576MOL0     C75918   6.157   5.538   1.183  0.3450  0.4173 -0.5533
  576MOL0     C75919   6.162   5.409   1.210 -0.1753  0.0635 -0.4693
  576MOL0     C75920   6.290   5.347   1.250 -0.8769 -0.3559  0.0617
  576MOL0     C75921   6.388   5.342   1.128 -0.1218  0.5575 -0.1774
  576MOL0     C75922   6.336   5.225   1.044  0.7720  0.3906  0.5204
  576MOL0     C75923   6.410   5.152   0.936 -0.1340 -0.1091 -0.0519
  576MOL0     O75924   6.462   5.254   0.846  0.6956 -0.2209 -0.2794
  576MOL0     C75925   6.488   5.216   0.712 -0.2216 -0.6589 -0.5256
  576MOL0     C75926   6.550   5.326   0.642  0.1242 -0.0074  0.3395
  576MOL0     C75927   6.583   5.299   0.510 -0.8908 -0.4647  0.0632
  576MOL0     C75928   6.560   5.177   0.450 -0.5117 -0.0121 -0.1581
  576MOL0     C75929   6.584   5.157   0.311 -1.0643  0.2790 -0.1849
  576MOL0     O75930   6.554   5.034   0.254  0.3416 -0.0261 -0.2935
  576MOL0     C75931   6.573   5.028   0.119 -0.3419  0.0810  0.3561
  576MOL0     C75932   6.707   5.031   0.058 -0.3382  0.5796 -0.0693
  576MOL0     C75933   6.720   5.015  -0.083  0.0655  0.3170 -0.2289
  576MOL0     C75934   6.604   5.021  -0.155 -0.0801  0.0084 -0.2075
  576MOL0     O75935   6.607   5.023  -0.292  0.6351 -0.1282  0.2529
  576MOL0     C75936   6.725   5.090  -0.347  0.3554 -0.4408  0.3927
  576MOL0     C75937   6.683   5.137  -0.493  0.0637 -0.5138  0.6555
  576MOL0     C75938   6.801   5.198  -0.566 -0.0856 -0.4878 -0.2517
  576MOL0     C75939   6.765   5.286  -0.692 -0.7708 -0.7646  0.6850
  576MOL0     C75940   6.702   5.426  -0.651  0.1919 -0.1454 -0.6250
  576MOL0     C75941   6.550   5.428  -0.631  0.2802  0.1245  0.2677
  576MOL0     C75942   6.490   5.565  -0.657  0.4057 -0.5248 -0.1873
  576MOL0     C75943   6.429   5.573  -0.793 -0.2969  0.5584  0.4435
  576MOL0    Cl75944   6.288   5.464  -0.793  0.1021  0.0477  0.2167
  576MOL0     C75945   6.479   5.032  -0.094 -0.0161  0.3331  0.7642
  576MOL0     C75946   6.458   5.029   0.040 -0.2856 -0.3471  0.1810
  576MOL0     O75947   6.635   5.252   0.257 -0.4357  0.8501 -0.1718
  576MOL0     C75948   6.486   5.080   0.512  0.6877  1.2114 -0.7596
  576MOL0     C75949   6.452   5.099   0.648  0.1837 -0.0939 -0.2493
  576MOL0     N75950   6.047   5.349   1.165  0.0275  0.6629  0.3639
  576MOL0     N75951   5.967   5.444   1.129  0.4460  0.9919  0.3667
  576MOL0     C75952   4.921   5.660   0.887  0.2745 -0.1191  0.5221
  576MOL0     C75953   4.796   5.693   0.840 -0.5274 -0.1268  0.6651
  576MOL0     C75954   4.385   5.813   0.758 -0.0360 -0.0366 -0.9491
  576MOL0     C75955   4.291   5.764   0.849  0.8869 -0.0244 -0.7913
  576MOL0     C75956   4.150   5.762   0.823 -0.1528 -0.4566  0.2433
  576MOL0     C75957   4.110   5.828   0.704  0.7776  0.9100  0.8758
  576MOL0     O75958   3.986   5.823   0.641 -0.4268 -0.5638  0.1779
  576MOL0     C75959   3.880   5.740   0.704  1.3030  0.5030  0.2587
  576MOL0     C75960   3.810   5.668   0.591  0.5351  0.2376 -0.4144
  576MOL0     C75961   3.678   5.615   0.632  0.0005  0.3789  0.6120
  576MOL0     C75962   3.601   5.560   0.517 -0.0016  0.3128 -0.2740
  576MOL0     C75963   3.547   5.428   0.559 -0.2536  0.2745 -0.5141
  576MOL0     C75964   3.516   5.319   0.593  0.2408  0.1499  0.7051
  576MOL0     C75965   4.201   5.895   0.621 -0.1769  0.3642  0.2748
  576MOL0     C75966   4.341   5.889   0.652  0.3119  0.0379  0.9002
  576MOL0     H75967   4.612   5.621   1.116 -1.3191 -2.1232 -3.3033
  576MOL0     H75968   4.829   5.565   1.200  4.2142  2.6365  0.4109
  576MOL0     H75969   5.185   5.726   0.980  3.8195 -0.1024  1.2292
  576MOL0     H75970   5.193   5.553   0.921  0.1749 -2.6374  1.9584
  576MOL0     H75971   5.291   5.476   1.125  1.8630  0.4055  1.0521
  576MOL0     H75972   5.253   5.630   1.197  1.2489 -1.0375  1.0778
  576MOL0     H75973   5.416   5.726   1.020  1.2382  1.5297  1.2804
  576MOL0     H75974   5.450   5.549   0.997 -1.6967 -1.4032  0.7914
  576MOL0     H75975   5.471   5.694   1.268  1.9008  1.0236  0.1630
  576MOL0     H75976   5.523   5.525   1.241  2.2322  0.9440  2.6132
  576MOL0     H75977   5.639   5.760   1.107  2.5780  0.0970 -1.2851
  576MOL0     H75978   5.684   5.596   1.071  1.2503 -1.4662  1.4203
  576MOL0     H75979   5.771   5.551   1.287  3.3450  0.2111  0.2619
  576MOL0     H75980   5.697   5.708   1.349  0.4683 -1.7119  1.5297
  576MOL0     H75981   5.869   5.839   1.225  1.3529 -1.3607 -3.7443
  576MOL0     H75982   5.945   5.717   1.328 -1.6501  0.8214  1.2976
  576MOL0     H75983   6.022   5.766   1.079 -2.5385  0.4305 -2.3198
  576MOL0     H75984   5.890   5.670   1.027  0.7133  3.7749 -1.3579
  576MOL0     H75985   6.234   5.614   1.198  1.4714 -0.6116 -0.9129
  576MOL0     H75986   6.261   5.251   1.295  2.9281 -1.0998  1.2740
  576MOL0     H75987   6.338   5.398   1.334 -1.0623 -0.0342 -0.0249
  576MOL0     H75988   6.493   5.334   1.157 -0.3338 -1.3618  0.1983
  576MOL0     H75989   6.373   5.436   1.074 -2.3776 -0.1081 -0.8231
  576MOL0     H75990   6.287   5.150   1.107 -0.3311  0.8175  0.2001
  576MOL0     H75991   6.253   5.267   0.986  1.6257 -1.3045 -2.0948
  576MOL0     H75992   6.347   5.081   0.882  1.2336 -0.6228 -1.0176
  576MOL0     H75993   6.488   5.088   0.978 -0.5334  0.0072  0.9037
  576MOL0     H75994   6.567   5.423   0.687 -1.0078  1.0546 -1.3828
  576MOL0     H75995   6.633   5.375   0.450 -3.0327  1.0742  0.0956
  576MOL0     H75996   6.797   5.023   0.118 -1.2267 -2.0383  1.0688
  576MOL0     H75997   6.820   5.002  -0.124  0.8219  2.2118  0.8710
  576MOL0     H75998   6.817   5.032  -0.360  1.6440  1.6405 -0.3033
  576MOL0     H75999   6.739   5.179  -0.286  1.8711 -0.5896  0.2905
  576MOL0     H76000   6.603   5.206  -0.466  1.2700  0.2998  2.3272
  576MOL0     H76001   6.641   5.060  -0.559 -0.5760  1.6805 -1.6409
  576MOL0     H76002   6.861   5.111  -0.596 -0.0854  0.2054 -2.4631
  576MOL0     H76003   6.872   5.245  -0.498  0.3647  0.8114 -1.5609
  576MOL0     H76004   6.854   5.307  -0.752 -0.9604 -1.0235  0.3129
  576MOL0     H76005   6.706   5.234  -0.767  0.2764  1.1094 -1.5821
  576MOL0     H76006   6.726   5.503  -0.725  0.5582  2.1615  1.7225
  576MOL0     H76007   6.753   5.456  -0.559 -1.4489 -0.4896  0.4260
  576MOL0     H76008   6.522   5.400  -0.529 -2.2100 -1.2928 -0.7179
  576MOL0     H76009   6.504   5.357  -0.700  0.4970  1.6605 -1.5201
  576MOL0     H76010   6.414   5.583  -0.581  0.5253 -4.7712  1.1802
  576MOL0     H76011   6.572   5.638  -0.651  2.0354 -2.3742  1.5237
  576MOL0     H76012   6.507   5.540  -0.862  1.6508  0.2951  2.6546
  576MOL0     H76013   6.400   5.675  -0.818 -0.8433  1.0420  2.8147
  576MOL0     H76014   6.399   5.039  -0.167 -0.4185  1.7941  1.3187
  576MOL0     H76015   6.364   5.031   0.093  0.4715  1.4874  1.5594
  576MOL0     H76016   6.457   4.985   0.468  0.7462  0.8615 -0.0690
  576MOL0     H76017   6.421   5.008   0.699  1.3989 -0.7579 -0.6631
  576MOL0     H76018   4.994   5.670   0.807 -2.7769 -0.6135 -2.5370
  576MOL0     H76019   4.793   5.731   0.738  0.4694  2.2139  1.4409
  576MOL0     H76020   4.319   5.729   0.948  1.1093  1.1721 -0.4110
  576MOL0     H76021   4.082   5.716   0.894  1.4091 -0.1620  2.0038
  576MOL0     H76022   3.810   5.797   0.766  0.8161 -1.1384  1.2918
  576MOL0     H76023   3.915   5.661   0.771  1.1047 -1.3344 -1.6764
  576MOL0     H76024   3.794   5.727   0.500  2.3336  0.2328 -0.7555
  576MOL0     H76025   3.870   5.582   0.563 -0.6986 -0.6961 -0.2939
  576MOL0     H76026   3.624   5.699   0.677  1.3704  1.3440  0.5329
  576MOL0     H76027   3.700   5.533   0.702  0.6198 -2.9561 -3.1443
  576MOL0     H76028   3.524   5.632   0.489  0.1029  0.2646 -0.6836
  576MOL0     H76029   3.661   5.541   0.428 -0.2173 -4.6844  0.3545
  576MOL0     H76030   3.474   5.226   0.628 -0.3784  0.8101  1.7930
  576MOL0     H76031   4.170   5.949   0.532  3.7713  1.9822 -0.3090
  576MOL0     H76032   4.405   5.932   0.575 -2.6512  1.1735 -1.1086
  577MOL0     O76033   2.492   0.983   7.674  0.8565  0.3909 -0.6271
  577MOL0     C76034   2.463   0.874   7.731 -0.5573  0.1019  0.9223
  577MOL0     O76035   2.350   0.792   7.707 -0.6371  0.6445 -0.3126
  577MOL0     C76036   2.274   0.819   7.592  0.2135  0.2537 -0.3124
  577MOL0     C76037   2.139   0.825   7.604 -0.5163  0.5469 -0.0910
  577MOL0     C76038   2.062   0.855   7.493 -0.4378  0.1716  0.0668
  577MOL0     C76039   2.128   0.878   7.366  0.4367 -0.0289 -0.0413
  577MOL0     O76040   2.058   0.889   7.250  0.3606  0.6842  0.6859
  577MOL0     C76041   1.938   0.965   7.244  0.2341 -0.3312  0.7633
  577MOL0     C76042   1.948   1.112   7.299 -0.4748  0.0021  0.1455
  577MOL0     C76043   1.848   1.199   7.226 -0.1335 -0.7831  0.9697
  577MOL0     C76044   1.839   1.347   7.256 -0.3136 -0.3242  0.5541
  577MOL0     C76045   1.822   1.375   7.414 -0.1588 -1.0885 -0.3423
  577MOL0     C76046   1.677   1.365   7.455 -0.0236 -0.1158  0.4824
  577MOL0     C76047   1.642   1.442   7.589 -0.1664  0.4569 -0.5368
  577MOL0     C76048   1.610   1.593   7.559 -0.4217 -0.1944  0.6324
  577MOL0     N76049   1.549   1.661   7.672  0.4205 -1.0911  0.2393
  577MOL0     C76050   1.419   1.652   7.693 -0.1667 -0.2958 -0.8604
  577MOL0     C76051   1.393   1.711   7.815  0.0525  0.4964 -0.3078
  577MOL0     C76052   1.263   1.714   7.894 -0.1651  0.8037  0.5145
  577MOL0     C76053   1.161   1.626   7.826 -0.2821  1.1424  0.8843
  577MOL0     C76054   1.032   1.589   7.893  0.2734  0.0313 -0.5708
  577MOL0     C76055   0.945   1.486   7.810 -0.6226 -0.8995 -0.2865
  577MOL0     O76056   0.801   1.526   7.808  0.6813  0.0825  0.0682
  577MOL0     C76057   0.713   1.454   7.731  0.2297 -0.4455 -0.1517
  577MOL0     C76058   0.579   1.446   7.759 -0.0683 -0.5884  0.6979
  577MOL0     C76059   0.486   1.374   7.685 -0.1960 -0.8459  0.6297
  577MOL0     C76060   0.524   1.312   7.562 -0.1694  0.0856 -0.8836
  577MOL0     C76061   0.420   1.246   7.471  0.8677 -0.2396  0.1161
  577MOL0     O76062   0.301   1.206   7.532 -0.7634 -0.5869 -0.2317
  577MOL0     C76063   0.198   1.156   7.462  0.8061 -0.4883 -0.5027
  577MOL0     C76064   0.175   1.020   7.476 -0.2613  0.2970 -0.1263
  577MOL0     C76065   0.065   0.958   7.407 -0.8552  0.0547 -0.5066
  577MOL0     C76066  -0.010   1.028   7.317 -0.6840  0.6542  0.0331
  577MOL0     O76067  -0.110   0.966   7.256 -0.0514 -0.2537  0.6201
  577MOL0     C76068  -0.231   0.955   7.334 -0.7700 -0.4136 -0.5338
  577MOL0     C76069  -0.324   0.846   7.282  0.5219  0.0159  0.3455
  577MOL0     C76070  -0.397   0.884   7.150  0.5296  0.4923 -0.0342
  577MOL0     C76071  -0.452   0.769   7.065  0.1287 -0.6731 -0.5758
  577MOL0     C76072  -0.604   0.771   7.035 -0.6396  0.2726  0.4448
  577MOL0     C76073  -0.682   0.722   7.160  0.0610  0.8025 -0.1254
  577MOL0     C76074  -0.834   0.709   7.126 -0.1931 -0.6590 -0.4866
  577MOL0     C76075  -0.929   0.659   7.235 -0.9922  0.3072  0.3618
  577MOL0    Cl76076  -0.929   0.482   7.247  0.2387 -0.2463  0.5578
  577MOL0     C76077   0.016   1.159   7.292 -0.9565  0.4465 -0.4317
  577MOL0     C76078   0.124   1.225   7.358  1.2313 -0.3141  0.5446
  577MOL0     O76079   0.460   1.223   7.355  0.0783  0.6892  0.0296
  577MOL0     C76080   0.663   1.322   7.535 -0.7003 -0.0330  1.3377
  577MOL0     C76081   0.755   1.395   7.612  0.4016  0.4923 -1.0961
  577MOL0     N76082   1.519   1.755   7.868 -0.3762 -0.1106 -0.2826
  577MOL0     N76083   1.611   1.723   7.774  0.9183  0.1189 -0.1151
  577MOL0     C76084   2.264   0.878   7.357  0.2541  0.4878 -0.2283
  577MOL0     C76085   2.335   0.843   7.471 -0.4363 -0.7335 -0.3839
  577MOL0     C76086   2.564   0.828   7.830 -0.1374 -0.4030  0.1109
  577MOL0     C76087   2.536   0.711   7.903 -0.2932  0.3354  1.0936
  577MOL0     C76088   2.631   0.652   7.984 -0.2952 -0.4644  0.3238
  577MOL0     C76089   2.756   0.716   8.002 -0.7071  1.0432 -0.0871
  577MOL0     O76090   2.846   0.642   8.072  0.5452  0.9426 -0.2462
  577MOL0     C76091   2.991   0.662   8.055  0.0304 -0.4738 -0.1177
  577MOL0     C76092   3.045   0.613   7.924  0.1473 -0.6735 -0.5061
  577MOL0     C76093   3.166   0.699   7.869  0.4555 -0.9362 -0.1148
  577MOL0     C76094   3.301   0.657   7.931  0.5542  0.0553  0.2260
  577MOL0     C76095   3.322   0.707   8.073 -0.6504  0.1049  0.7685
  577MOL0     C76096   3.340   0.755   8.181  0.1770  0.9505  0.1926
  577MOL0     C76097   2.780   0.837   7.942 -0.2100  0.4405 -0.5692
  577MOL0     C76098   2.690   0.895   7.853  0.2201 -0.7755  0.8795
  577MOL0     H76099   2.086   0.799   7.695  1.0899 -0.9685  0.4694
  577MOL0     H76100   1.954   0.849   7.508 -0.4432 -0.9519 -0.4012
  577MOL0     H76101   1.865   0.900   7.293  0.6672 -1.9227 -0.6258
  577MOL0     H76102   1.902   0.963   7.140  1.5604  1.6056  0.2056
  577MOL0     H76103   2.043   1.165   7.289  0.9490 -1.9807  2.0214
  577MOL0     H76104   1.932   1.124   7.407  1.0308  2.0223  0.2065
  577MOL0     H76105   1.760   1.135   7.238 -0.9678  0.5273  2.2491
  577MOL0     H76106   1.867   1.201   7.118  2.9703 -1.6339  1.4071
  577MOL0     H76107   1.924   1.404   7.217 -1.0700 -0.8957 -2.1210
  577MOL0     H76108   1.755   1.391   7.201  2.4783  2.4075 -1.9616
  577MOL0     H76109   1.856   1.477   7.432  2.4546 -2.1460  1.5051
  577MOL0     H76110   1.892   1.309   7.468  2.0521  1.2512 -0.1888
  577MOL0     H76111   1.676   1.262   7.493  2.5775  0.4035  2.2466
  577MOL0     H76112   1.612   1.377   7.368  1.6454 -1.0001 -0.9740
  577MOL0     H76113   1.549   1.402   7.633 -0.6385 -1.5141 -3.0814
  577MOL0     H76114   1.721   1.426   7.663  0.3537  1.5026 -0.8584
  577MOL0     H76115   1.543   1.590   7.473  0.3781 -2.3990  0.0332
  577MOL0     H76116   1.707   1.632   7.526 -0.5073  1.8034  2.4890
  577MOL0     H76117   1.344   1.610   7.627 -1.1955  1.8683 -1.1566
  577MOL0     H76118   1.230   1.816   7.912  0.5079  0.6528  2.8175
  577MOL0     H76119   1.278   1.663   7.989 -1.2899 -0.0625  0.2498
  577MOL0     H76120   1.213   1.533   7.804  2.6728  2.2382  2.6512
  577MOL0     H76121   1.132   1.661   7.726 -1.9364 -1.2381  0.4419
  577MOL0     H76122   1.064   1.555   7.992  1.5414 -0.8544 -1.2528
  577MOL0     H76123   0.986   1.686   7.909 -0.7450 -0.7325  1.5719
  577MOL0     H76124   0.965   1.387   7.851 -2.1120 -0.2084  2.3223
  577MOL0     H76125   0.991   1.493   7.711 -0.7778  0.3978 -0.2861
  577MOL0     H76126   0.550   1.508   7.843 -1.8517  1.3921 -1.2628
  577MOL0     H76127   0.381   1.371   7.711 -0.5148 -1.4013 -0.6619
  577MOL0     H76128   0.232   0.947   7.534  0.9512 -0.5479 -2.2728
  577MOL0     H76129   0.038   0.853   7.422  0.9763 -0.0481  3.3241
  577MOL0     H76130  -0.290   1.047   7.328 -0.8040 -0.1778  2.3120
  577MOL0     H76131  -0.198   0.937   7.437  1.6124 -2.7691 -1.5867
  577MOL0     H76132  -0.406   0.832   7.353  0.3627  2.2625  0.7008
  577MOL0     H76133  -0.274   0.750   7.274 -1.8053 -1.2719  0.4027
  577MOL0     H76134  -0.332   0.959   7.102  0.1233  2.7473  2.6567
  577MOL0     H76135  -0.490   0.929   7.186 -1.0603 -1.9088 -0.9444
  577MOL0     H76136  -0.408   0.779   6.966 -2.4699  2.3284 -1.5952
  577MOL0     H76137  -0.424   0.681   7.124  0.7647 -1.0441 -1.4265
  577MOL0     H76138  -0.611   0.691   6.961  3.1379  0.6093 -0.4570
  577MOL0     H76139  -0.657   0.862   7.005 -1.1469  0.0603  0.6780
  577MOL0     H76140  -0.678   0.790   7.246 -2.3984  0.2285  0.5011
  577MOL0     H76141  -0.654   0.620   7.189 -2.3143  0.5629  1.6114
  577MOL0     H76142  -0.865   0.810   7.098  1.5118  0.0683  0.1323
  577MOL0     H76143  -0.845   0.644   7.038  2.3276  0.1753 -1.5055
  577MOL0     H76144  -1.033   0.691   7.226 -1.6986 -1.8991  0.1819
  577MOL0     H76145  -0.903   0.700   7.333  0.2985  2.1811 -0.7044
  577MOL0     H76146  -0.036   1.212   7.212 -1.2491 -0.3185 -0.7627
  577MOL0     H76147   0.146   1.324   7.320  0.3045  1.0863  3.3821
  577MOL0     H76148   0.712   1.282   7.447 -1.6125  0.9742  0.3429
  577MOL0     H76149   0.859   1.398   7.582  0.9506  0.0965  0.6231
  577MOL0     H76150   2.321   0.895   7.266 -1.2557  3.8995 -0.6846
  577MOL0     H76151   2.443   0.855   7.466 -0.4528  1.8891  2.5563
  577MOL0     H76152   2.440   0.660   7.899 -1.2163  2.0779 -0.3513
  577MOL0     H76153   2.616   0.558   8.036 -0.7755 -1.2731 -1.2258
  577MOL0     H76154   3.042   0.607   8.135 -0.8295 -2.9373 -1.1708
  577MOL0     H76155   3.021   0.768   8.059 -2.2000  0.2524 -1.0564
  577MOL0     H76156   3.050   0.505   7.911 -3.0142 -1.0775  0.6085
  577MOL0     H76157   2.965   0.646   7.857 -1.8819  0.1310  2.1162
  577MOL0     H76158   3.154   0.807   7.874 -3.0545 -1.0902 -2.1115
  577MOL0     H76159   3.164   0.681   7.761 -2.5405 -0.0972 -0.2718
  577MOL0     H76160   3.304   0.548   7.931 -0.4969  0.0043 -0.8521
  577MOL0     H76161   3.381   0.695   7.867  1.3568  0.8353  1.6320
  577MOL0     H76162   3.364   0.777   8.283 -0.8624 -2.2980  1.2816
  577MOL0     H76163   2.862   0.903   7.967 -1.0972  1.3185  0.1244
  577MOL0     H76164   2.697   0.993   7.808 -3.4068 -0.1521  1.3528
  578MOL0     O76165   3.437   0.307  10.458  0.4768  0.3982 -0.3533
  578MOL0     C76166   3.373   0.392  10.517  0.1693 -0.1004 -0.6008
  578MOL0     O76167   3.257   0.449  10.477  0.8376 -0.5611  0.4152
  578MOL0     C76168   3.203   0.397  10.355  0.5836 -0.1448 -0.6012
  578MOL0     C76169   3.211   0.464  10.232 -0.8765 -1.3790  0.0699
  578MOL0     C76170   3.169   0.403  10.112 -0.1407  0.3761  0.0192
  578MOL0     C76171   3.114   0.273  10.118  0.2809  0.6455 -0.6941
  578MOL0     O76172   3.074   0.213  10.002 -0.5440 -0.3506  0.5986
  578MOL0     C76173   3.096   0.076   9.982 -0.2348 -0.3682 -0.1849
  578MOL0     C76174   3.153   0.053   9.845  0.6017 -0.2091 -0.5859
  578MOL0     C76175   3.191  -0.092   9.813  0.4494 -0.3685  0.3372
  578MOL0     C76176   3.255  -0.101   9.668 -0.8087  0.4158 -0.2171
  578MOL0     C76177   3.271  -0.253   9.637 -0.2031  0.0107 -0.0308
  578MOL0     C76178   3.340  -0.287   9.507  0.5363 -0.2196  1.0420
  578MOL0     C76179   3.327  -0.440   9.482  0.5654 -0.6142 -0.1156
  578MOL0     C76180   3.360  -0.482   9.331 -0.3745  0.5694 -0.7309
  578MOL0     N76181   3.505  -0.476   9.306  1.0571 -0.4672  0.4710
  578MOL0     C76182   3.603  -0.561   9.342 -0.8770  0.0699  0.1302
  578MOL0     C76183   3.705  -0.519   9.271  0.8664 -0.4389 -0.4832
  578MOL0     C76184   3.838  -0.583   9.274 -0.5751  0.2010  0.0887
  578MOL0     C76185   3.893  -0.630   9.140 -0.2312 -0.3378 -0.4619
  578MOL0     C76186   3.961  -0.516   9.063  0.2281 -0.1613 -0.8424
  578MOL0     C76187   4.037  -0.559   8.944 -0.3336 -0.3073  1.2624
  578MOL0     O76188   4.142  -0.646   8.982 -0.6303  0.0887 -0.1235
  578MOL0     C76189   4.258  -0.605   9.047  1.0036 -0.6915  0.1029
  578MOL0     C76190   4.303  -0.470   9.057 -0.3470 -0.0931 -0.0430
  578MOL0     C76191   4.419  -0.436   9.130 -0.0136  0.1614  0.3375
  578MOL0     C76192   4.489  -0.541   9.193  0.4527  0.1817  0.0567
  578MOL0     C76193   4.606  -0.521   9.274 -0.2217 -0.8768  0.3312
  578MOL0     O76194   4.687  -0.617   9.303 -0.3329  0.0365  0.4119
  578MOL0     C76195   4.813  -0.590   9.352  0.0178 -0.1000 -0.8477
  578MOL0     C76196   4.844  -0.563   9.490  0.4927 -0.2167 -0.4682
  578MOL0     C76197   4.976  -0.554   9.526 -0.1989  0.1866  0.9379
  578MOL0     C76198   5.076  -0.556   9.418 -0.1467 -0.0174 -0.5666
  578MOL0     O76199   5.205  -0.551   9.458 -0.2378 -0.3399  0.0675
  578MOL0     C76200   5.289  -0.673   9.438  0.3529  0.0359 -0.1614
  578MOL0     C76201   5.417  -0.643   9.511  0.0527 -0.0654 -0.3045
  578MOL0     C76202   5.528  -0.746   9.479 -0.0896 -0.4976 -0.5227
  578MOL0     C76203   5.501  -0.894   9.515 -0.3209  0.3596  1.0813
  578MOL0     C76204   5.639  -0.966   9.510 -0.1879  0.5484 -0.5423
  578MOL0     C76205   5.690  -0.985   9.371 -1.2461  0.6466  0.1607
  578MOL0     C76206   5.827  -1.048   9.384  0.2416  0.2537  0.5476
  578MOL0     C76207   5.939  -0.951   9.385  0.2353 -0.1522  0.3135
  578MOL0    Cl76208   6.098  -1.038   9.404 -0.2607 -0.3235 -0.3989
  578MOL0     C76209   5.039  -0.585   9.280 -0.3876  0.8951 -0.4017
  578MOL0     C76210   4.911  -0.606   9.252 -0.2674 -0.8670  0.2577
  578MOL0     O76211   4.631  -0.405   9.304  0.9774  0.7201 -0.2560
  578MOL0     C76212   4.442  -0.673   9.188  0.6486  0.4282  0.1238
  578MOL0     C76213   4.327  -0.700   9.113  0.1833  0.1586 -0.0934
  578MOL0     N76214   3.673  -0.410   9.198 -0.5402  0.5041  0.0683
  578MOL0     N76215   3.548  -0.394   9.207 -0.4564 -0.0067  0.6771
  578MOL0     C76216   3.087   0.214  10.244 -0.2134 -0.3496 -0.6521
  578MOL0     C76217   3.123   0.278  10.360  1.2845  0.6810  0.1833
  578MOL0     C76218   3.424   0.446  10.644 -0.1301 -0.3962 -0.0312
  578MOL0     C76219   3.560   0.463  10.674  0.2401  0.0993  0.2250
  578MOL0     C76220   3.606   0.515  10.790  0.0608  0.0129  1.2933
  578MOL0     C76221   3.513   0.577  10.879 -0.6808  0.6435 -0.1126
  578MOL0     O76222   3.561   0.648  10.988  0.2947  0.1475 -0.3809
  578MOL0     C76223   3.505   0.777  11.011  1.0194 -0.0114  0.5319
  578MOL0     C76224   3.569   0.846  11.131 -0.1156  0.6642 -0.0914
  578MOL0     C76225   3.497   0.973  11.166  0.9901  0.1315 -0.1442
  578MOL0     C76226   3.560   1.040  11.293  0.2208  0.3905  0.6271
  578MOL0     C76227   3.703   1.090  11.261  0.1787 -0.0670  0.5965
  578MOL0     C76228   3.822   1.130  11.243  0.6392  0.6492  0.7279
  578MOL0     C76229   3.377   0.550  10.862 -0.4488 -0.4849 -0.0333
  578MOL0     C76230   3.325   0.484  10.744 -0.0870 -0.3175 -0.5813
  578MOL0     H76231   3.271   0.554  10.235 -0.5639 -1.2327 -4.6081
  578MOL0     H76232   3.197   0.454  10.021 -2.1205  3.2229  0.8656
  578MOL0     H76233   2.997   0.031   9.986  0.0378 -1.5178 -3.2806
  578MOL0     H76234   3.167   0.029  10.051  1.0748  2.2949  0.4207
  578MOL0     H76235   3.246   0.110   9.847 -1.4399  3.4826 -1.4510
  578MOL0     H76236   3.089   0.110   9.777 -0.9496 -0.8451  0.2904
  578MOL0     H76237   3.113  -0.167   9.825  0.2750  0.0158  1.7721
  578MOL0     H76238   3.268  -0.120   9.885  0.9315  0.7245  0.2789
  578MOL0     H76239   3.193  -0.053   9.591 -0.4961  0.5142 -0.4110
  578MOL0     H76240   3.348  -0.043   9.668 -0.8239  0.4399 -0.2034
  578MOL0     H76241   3.174  -0.303   9.642 -0.4405  0.5579  2.2758
  578MOL0     H76242   3.321  -0.290   9.727  0.1942 -1.6071 -0.8841
  578MOL0     H76243   3.442  -0.248   9.501  1.2314 -1.5467  3.2430
  578MOL0     H76244   3.281  -0.242   9.426  0.7763 -0.2701  0.8385
  578MOL0     H76245   3.395  -0.491   9.550  0.2881 -1.3055 -0.3466
  578MOL0     H76246   3.226  -0.480   9.498  0.5698 -0.6303 -0.1299
  578MOL0     H76247   3.298  -0.422   9.265 -1.5617 -0.0627 -0.2224
  578MOL0     H76248   3.321  -0.584   9.328 -3.9049  1.6666  1.9169
  578MOL0     H76249   3.601  -0.643   9.414  1.5534  0.0436  0.2240
  578MOL0     H76250   3.840  -0.680   9.325  2.4438 -0.0781 -0.3425
  578MOL0     H76251   3.911  -0.516   9.321  0.4977 -1.4854  0.9138
  578MOL0     H76252   3.813  -0.673   9.078  1.5875 -0.2128 -3.0569
  578MOL0     H76253   3.973  -0.704   9.149  0.0631 -0.1720 -1.6099
  578MOL0     H76254   3.889  -0.443   9.023 -1.8046 -1.0998  0.8787
  578MOL0     H76255   4.033  -0.465   9.127 -2.2290  1.1901  1.0219
  578MOL0     H76256   4.068  -0.470   8.888 -0.5656 -1.5347 -0.9599
  578MOL0     H76257   3.970  -0.607   8.871 -0.9370  1.0029  0.9288
  578MOL0     H76258   4.251  -0.389   9.007  0.7556 -1.4702 -3.7935
  578MOL0     H76259   4.456  -0.335   9.139  0.4357  0.0320  0.0054
  578MOL0     H76260   4.766  -0.550   9.564 -0.9719  1.1757 -2.1618
  578MOL0     H76261   5.012  -0.526   9.625 -0.5975  0.4823  1.0023
  578MOL0     H76262   5.309  -0.704   9.335  1.4722 -0.5962  0.2273
  578MOL0     H76263   5.238  -0.751   9.495 -0.7562 -1.0598 -2.5265
  578MOL0     H76264   5.390  -0.637   9.617 -2.4950 -0.1488 -0.8909
  578MOL0     H76265   5.451  -0.541   9.489 -2.0287  0.3243 -2.0976
  578MOL0     H76266   5.621  -0.708   9.522 -0.9423  1.0883 -0.0177
  578MOL0     H76267   5.539  -0.744   9.371 -1.0894  1.1238 -0.6217
  578MOL0     H76268   5.460  -0.915   9.614  0.2845 -1.9654  0.9120
  578MOL0     H76269   5.431  -0.949   9.451  1.0054 -0.6062  0.3982
  578MOL0     H76270   5.619  -1.063   9.556 -3.5906  2.2611  2.1743
  578MOL0     H76271   5.708  -0.911   9.575  1.3384 -1.6917 -0.1947
  578MOL0     H76272   5.713  -0.895   9.313  2.1568 -1.2855 -1.7599
  578MOL0     H76273   5.620  -1.045   9.313  0.5432  0.4765 -1.9508
  578MOL0     H76274   5.832  -1.117   9.470 -0.0283 -3.5637 -2.2279
  578MOL0     H76275   5.840  -1.104   9.291  0.3843 -2.1565  1.9146
  578MOL0     H76276   5.953  -0.877   9.464  1.9506 -1.5378  1.3739
  578MOL0     H76277   5.944  -0.893   9.292  2.1232  2.5547  1.9542
  578MOL0     H76278   5.111  -0.604   9.201 -0.7025 -1.9434 -0.1212
  578MOL0     H76279   4.883  -0.619   9.148  3.2699 -1.9457 -0.6781
  578MOL0     H76280   4.496  -0.760   9.224 -2.2401 -2.1413 -1.2745
  578MOL0     H76281   4.294  -0.804   9.107 -1.6298  0.6830  0.2219
  578MOL0     H76282   3.025   0.125  10.244  0.4382 -0.8164 -0.1844
  578MOL0     H76283   3.106   0.221  10.451  0.4761 -2.2490 -1.6831
  578MOL0     H76284   3.637   0.433  10.603 -1.2558  1.8992 -2.3338
  578MOL0     H76285   3.713   0.521  10.804  0.3112 -1.1314  0.0926
  578MOL0     H76286   3.397   0.772  11.028  1.2032 -0.6886  1.6278
  578MOL0     H76287   3.525   0.838  10.923 -0.2251 -1.3114 -0.7177
  578MOL0     H76288   3.563   0.779  11.218 -3.3163 -1.0159 -1.4350
  578MOL0     H76289   3.674   0.872  11.114 -1.1419  4.1777 -2.0994
  578MOL0     H76290   3.393   0.949  11.193  1.5321  1.0881  3.2823
  578MOL0     H76291   3.498   1.038  11.078 -2.1672 -3.2898 -3.0683
  578MOL0     H76292   3.488   1.117  11.326  0.7873 -0.3068  3.8907
  578MOL0     H76293   3.561   0.964  11.372 -0.4173  1.9533  2.2054
  578MOL0     H76294   3.921   1.157  11.211  0.1172 -1.7461 -3.5920
  578MOL0     H76295   3.307   0.599  10.927  1.4040 -2.0688  3.4076
  578MOL0     H76296   3.221   0.456  10.732  0.0828 -0.5850 -1.5092
  579MOL0     O76297   4.628   7.515   0.903 -0.2004  0.3240 -0.0816
  579MOL0     C76298   4.687   7.618   0.873 -0.0905  0.1025 -0.2147
  579MOL0     O76299   4.626   7.723   0.809  0.6445  0.1484  0.1782
  579MOL0     C76300   4.495   7.703   0.786  0.2928 -1.4090 -0.1023
  579MOL0     C76301   4.400   7.675   0.890 -0.1879  0.3841 -0.1986
  579MOL0     C76302   4.259   7.649   0.856  0.2876  0.4804  0.0588
  579MOL0     C76303   4.215   7.663   0.723 -0.3145 -0.8555 -0.6710
  579MOL0     O76304   4.082   7.631   0.706 -0.0100 -0.0947  0.1833
  579MOL0     C76305   4.033   7.609   0.572  0.0762  1.1290  0.0613
  579MOL0     C76306   3.886   7.548   0.563 -0.7909 -0.5509 -1.2392
  579MOL0     C76307   3.781   7.633   0.636  0.5546  0.1995  0.6633
  579MOL0     C76308   3.767   7.765   0.568 -1.0838 -0.3577  1.2374
  579MOL0     C76309   3.629   7.821   0.586 -0.4200  0.3544 -0.2051
  579MOL0     C76310   3.629   7.973   0.563 -0.2282 -0.0325  1.0086
  579MOL0     C76311   3.489   8.023   0.602 -0.1835 -0.1242  0.5168
  579MOL0     C76312   3.461   8.164   0.559  0.1063 -1.2066  0.3964
  579MOL0     N76313   3.320   8.203   0.571  0.3080  0.9106 -0.7995
  579MOL0     C76314   3.234   8.175   0.676  0.3911 -0.1415  0.9515
  579MOL0     C76315   3.122   8.237   0.637  0.5015 -0.4588 -1.0382
  579MOL0     C76316   2.993   8.231   0.716 -0.0004  0.8149 -0.3322
  579MOL0     C76317   2.884   8.170   0.632  0.5177 -0.0371  1.3415
  579MOL0     C76318   2.781   8.285   0.605  0.6262  0.3634 -0.4723
  579MOL0     C76319   2.661   8.245   0.531  0.5448  0.1934  0.7027
  579MOL0     O76320   2.584   8.135   0.594  0.1957 -0.5806 -0.4384
  579MOL0     C76321   2.480   8.157   0.683 -0.2793  1.1914 -0.6667
  579MOL0     C76322   2.395   8.049   0.701 -0.7876  0.1622 -0.0079
  579MOL0     C76323   2.282   8.051   0.779 -0.2645  1.1903  0.4665
  579MOL0     C76324   2.247   8.172   0.836  0.1505 -0.2059 -0.9391
  579MOL0     C76325   2.113   8.177   0.912 -0.2454 -0.2186  0.3274
  579MOL0     O76326   2.019   8.094   0.875  0.9762  0.0426  0.2201
  579MOL0     C76327   1.906   8.079   0.954 -0.8656  1.6515  0.1352
  579MOL0     C76328   1.893   7.968   1.034  0.6144  0.2966 -0.2837
  579MOL0     C76329   1.773   7.955   1.107 -0.3993  0.7506  0.3109
  579MOL0     C76330   1.672   8.048   1.107 -0.4824 -0.1049 -0.2453
  579MOL0     O76331   1.564   8.023   1.186  0.2502 -1.0842  0.1182
  579MOL0     C76332   1.487   7.915   1.130  0.1071 -0.1762  0.7060
  579MOL0     C76333   1.390   7.855   1.231  0.0703 -0.0227  0.9339
  579MOL0     C76334   1.260   7.945   1.260 -0.1949 -0.4965  0.3906
  579MOL0     C76335   1.298   8.087   1.310  0.8885  0.1876  0.2566
  579MOL0     C76336   1.181   8.170   1.355  0.5735 -0.4852 -0.8701
  579MOL0     C76337   1.112   8.113   1.481  0.5481 -0.0684  0.0265
  579MOL0     C76338   0.969   8.049   1.467 -0.0991  0.7587  0.3387
  579MOL0     C76339   0.919   7.979   1.584 -0.9930  0.2620  0.2899
  579MOL0    Cl76340   0.920   8.065   1.731  0.1742  0.2998 -0.2060
  579MOL0     C76341   1.689   8.156   1.019  0.0377 -0.5905 -0.3618
  579MOL0     C76342   1.808   8.175   0.950 -0.3597 -0.0325  0.6656
  579MOL0     O76343   2.112   8.266   0.993  0.2163  0.0089  0.8371
  579MOL0     C76344   2.331   8.284   0.826  0.1649  0.0231 -0.3784
  579MOL0     C76345   2.447   8.277   0.747 -0.0737  0.2279 -0.7492
  579MOL0     N76346   3.142   8.297   0.514 -0.4215 -0.1831 -0.4913
  579MOL0     N76347   3.264   8.287   0.484 -0.7471  0.0605 -0.0619
  579MOL0     C76348   4.305   7.712   0.623  0.4805 -0.3302  1.0104
  579MOL0     C76349   4.443   7.720   0.653  0.2091  0.5977  0.0154
  579MOL0     C76350   4.829   7.639   0.913 -0.0627 -0.1217 -0.1250
  579MOL0     C76351   4.907   7.546   0.995 -0.0272 -1.0501 -0.5472
  579MOL0     C76352   5.046   7.578   1.024 -0.4707  0.2456  0.6150
  579MOL0     C76353   5.105   7.704   0.984 -0.0669 -0.3109 -0.0775
  579MOL0     O76354   5.235   7.754   1.021 -0.3164 -0.1475 -0.4333
  579MOL0     C76355   5.293   7.715   1.140 -0.2542  0.9338 -0.8627
  579MOL0     C76356   5.412   7.609   1.109  0.2399 -0.1371 -0.0659
  579MOL0     C76357   5.537   7.649   1.028 -0.3383 -0.1212  0.0704
  579MOL0     C76358   5.649   7.730   1.101 -1.1510 -0.3524  0.1914
  579MOL0     C76359   5.745   7.796   1.007 -0.4186 -0.6623  0.2617
  579MOL0     C76360   5.825   7.850   0.936  0.5973 -0.9276 -0.0974
  579MOL0     C76361   5.031   7.776   0.892  0.0328 -0.1643  0.4669
  579MOL0     C76362   4.893   7.754   0.866  0.1945  0.1977  0.4093
  579MOL0     H76363   4.443   7.676   0.989  3.0366  0.7057 -1.4652
  579MOL0     H76364   4.200   7.603   0.935 -0.1563  0.3553 -0.3413
  579MOL0     H76365   4.105   7.547   0.518 -0.1855  1.9514 -1.2680
  579MOL0     H76366   4.038   7.708   0.526  4.1954  1.2704  0.4080
  579MOL0     H76367   3.900   7.460   0.626  3.6551 -0.4164 -1.7562
  579MOL0     H76368   3.863   7.525   0.459  0.8675  0.6904 -1.9214
  579MOL0     H76369   3.815   7.638   0.740  0.9917  0.5108  0.5115
  579MOL0     H76370   3.684   7.583   0.627  0.6267  0.2242 -0.4446
  579MOL0     H76371   3.842   7.830   0.615 -2.4244  1.8372  0.4809
  579MOL0     H76372   3.796   7.762   0.463  2.9421  1.8005  2.0634
  579MOL0     H76373   3.592   7.803   0.687  0.5839 -3.2042 -0.3450
  579MOL0     H76374   3.564   7.775   0.510  0.6144 -1.5204 -0.0171
  579MOL0     H76375   3.646   7.988   0.456 -0.8164 -3.1074  0.3992
  579MOL0     H76376   3.699   8.027   0.627  0.7470 -2.1198  1.7959
  579MOL0     H76377   3.410   7.962   0.557 -0.7584  1.5514 -0.8318
  579MOL0     H76378   3.480   8.006   0.710 -1.9921 -2.7778  0.0435
  579MOL0     H76379   3.506   8.179   0.460 -0.4826 -0.9570  0.1659
  579MOL0     H76380   3.517   8.227   0.629 -1.0954 -2.3707  2.4828
  579MOL0     H76381   3.253   8.125   0.770  0.1126 -2.3473 -0.0875
  579MOL0     H76382   2.973   8.330   0.757 -0.8777  0.8929 -0.9077
  579MOL0     H76383   3.008   8.175   0.809  1.0250 -0.3947 -1.1927
  579MOL0     H76384   2.838   8.084   0.682  1.2996 -0.2487  1.7080
  579MOL0     H76385   2.923   8.140   0.535  0.9264  2.6612  0.5764
  579MOL0     H76386   2.745   8.337   0.694  0.5554  1.2381 -1.0068
  579MOL0     H76387   2.828   8.358   0.538  1.1768  0.1073 -0.3684
  579MOL0     H76388   2.694   8.219   0.430  1.2842 -1.0399  1.2422
  579MOL0     H76389   2.598   8.331   0.507 -1.7803 -1.4759  0.4674
  579MOL0     H76390   2.421   7.950   0.664  1.1680  0.4009  0.6723
  579MOL0     H76391   2.223   7.961   0.791  0.7673  0.7468  2.5945
  579MOL0     H76392   1.969   7.891   1.036  0.9642  0.6472  1.2066
  579MOL0     H76393   1.759   7.870   1.173  0.5343 -1.7020 -2.4629
  579MOL0     H76394   1.555   7.834   1.104  2.0313  0.6627  2.7489
  579MOL0     H76395   1.427   7.953   1.048 -0.2441  0.5731  1.2902
  579MOL0     H76396   1.448   7.834   1.321  3.1826  1.0299 -0.6860
  579MOL0     H76397   1.353   7.758   1.197  0.0359  0.1589  0.4476
  579MOL0     H76398   1.188   7.892   1.323 -1.4235  0.6021 -0.0487
  579MOL0     H76399   1.202   7.968   1.171 -2.7351  1.3495  2.3589
  579MOL0     H76400   1.361   8.086   1.398 -0.5321  1.0283  1.3317
  579MOL0     H76401   1.353   8.149   1.238  1.2604  2.0994  2.0963
  579MOL0     H76402   1.110   8.161   1.272 -1.1231  1.8299  0.2041
  579MOL0     H76403   1.197   8.278   1.365  0.8736 -0.5589 -0.5289
  579MOL0     H76404   1.089   8.196   1.548 -0.6926 -1.0300  0.8521
  579MOL0     H76405   1.178   8.044   1.534 -0.5967 -0.9042  0.3980
  579MOL0     H76406   0.904   8.134   1.446  1.5773  1.6230 -1.6393
  579MOL0     H76407   0.972   7.976   1.386 -0.3553  2.9737 -1.7661
  579MOL0     H76408   0.971   7.884   1.591 -0.4516  0.6473  1.9639
  579MOL0     H76409   0.812   7.967   1.562 -0.4975 -1.9438 -1.1469
  579MOL0     H76410   1.611   8.231   1.009  0.7626  0.0595 -1.3387
  579MOL0     H76411   1.809   8.248   0.870  1.2800  1.2167  1.7549
  579MOL0     H76412   2.308   8.371   0.887 -0.1079 -0.2996 -0.0146
  579MOL0     H76413   2.522   8.354   0.743  1.3557 -0.9836  1.2774
  579MOL0     H76414   4.277   7.726   0.519  2.1728  2.6606  0.8363
  579MOL0     H76415   4.514   7.730   0.571  1.7380 -2.1677  0.8708
  579MOL0     H76416   4.866   7.452   1.030 -0.8071 -0.0573  1.3368
  579MOL0     H76417   5.109   7.504   1.072 -3.3256 -2.5047  0.4210
  579MOL0     H76418   5.211   7.680   1.203  0.3730 -0.8989 -0.9953
  579MOL0     H76419   5.332   7.802   1.194  0.6038  0.2572 -0.3631
  579MOL0     H76420   5.454   7.566   1.200  0.7669 -0.7580 -0.5944
  579MOL0     H76421   5.362   7.532   1.049 -0.3447  0.2182 -0.0492
  579MOL0     H76422   5.512   7.682   0.927  1.2725 -0.4287 -0.4603
  579MOL0     H76423   5.567   7.545   1.009 -2.7605 -0.3274 -3.3963
  579MOL0     H76424   5.609   7.811   1.163 -2.6300 -0.7539 -0.2110
  579MOL0     H76425   5.689   7.656   1.172 -0.0614  0.2156  0.2007
  579MOL0     H76426   5.895   7.904   0.874  1.3612  0.0713  1.5723
  579MOL0     H76427   5.072   7.866   0.847  0.3122  0.3737  1.7779
  579MOL0     H76428   4.843   7.824   0.800  1.2143  0.3791 -0.2023
  580MOL0     O76429  10.373   4.392   8.869 -0.1911  0.8378  0.5161
  580MOL0     C76430  10.332   4.283   8.847  0.3252  0.1092  0.2883
  580MOL0     O76431  10.400   4.168   8.868  0.4945 -0.3984 -0.2649
  580MOL0     C76432  10.536   4.173   8.909 -0.2933 -0.2052  0.2112
  580MOL0     C76433  10.635   4.202   8.821 -0.2142  0.2681  0.6434
  580MOL0     C76434  10.773   4.224   8.858 -0.0114  1.0320 -0.5157
  580MOL0     C76435  10.805   4.195   8.996  0.5848 -0.3306  0.6968
  580MOL0     O76436  10.932   4.233   9.029 -0.7160 -0.3280  0.4918
  580MOL0     C76437  10.974   4.250   9.164 -0.6363  0.0969 -0.5131
  580MOL0     C76438  11.104   4.317   9.181  0.1422  0.4718  0.1093
  580MOL0     C76439  11.205   4.274   9.061 -0.0606 -0.1948 -0.8687
  580MOL0     C76440  11.333   4.349   9.055 -0.4294 -0.0349 -0.2127
  580MOL0     C76441  11.413   4.294   8.931  0.1702 -0.5375  0.1334
  580MOL0     C76442  11.547   4.357   8.906 -0.1966  0.4079 -0.1002
  580MOL0     C76443  11.650   4.359   9.017 -0.1717  0.2228  0.7422
  580MOL0     C76444  11.675   4.229   9.096  0.7247 -0.8427 -0.3901
  580MOL0     N76445  11.778   4.245   9.199 -0.6903  0.0227  0.2592
  580MOL0     C76446  11.910   4.223   9.163 -0.9765 -0.0827 -0.2683
  580MOL0     C76447  11.974   4.230   9.278 -0.0191  0.0596 -0.2615
  580MOL0     C76448  12.116   4.267   9.305 -0.3747  0.3082  0.4996
  580MOL0     C76449  12.212   4.163   9.241  0.6458  1.0614 -0.1542
  580MOL0     C76450  12.353   4.160   9.310 -1.4797  0.1275 -0.0419
  580MOL0     C76451  12.443   4.045   9.253  0.0841  0.2523  0.2788
  580MOL0     O76452  12.550   4.041   9.344 -0.6388  0.2341  0.4057
  580MOL0     C76453  12.664   3.978   9.299 -0.2597 -0.0291 -1.2985
  580MOL0     C76454  12.680   3.907   9.184  0.0490  0.4445 -0.2173
  580MOL0     C76455  12.807   3.867   9.136  0.2433 -0.9340 -0.0977
  580MOL0     C76456  12.923   3.897   9.213 -0.3239 -0.5424  0.4327
  580MOL0     C76457  13.049   3.864   9.157 -0.3633  0.0606  0.5183
  580MOL0     O76458  13.064   3.814   9.030  0.6678 -0.1314  0.3620
  580MOL0     C76459  13.184   3.787   8.971  0.0807 -0.3643  0.7603
  580MOL0     C76460  13.272   3.895   8.943 -0.1899  0.1077 -0.4367
  580MOL0     C76461  13.391   3.871   8.871  0.4811  1.0982  0.0712
  580MOL0     C76462  13.434   3.735   8.857  0.5969  0.3322  0.3628
  580MOL0     O76463  13.551   3.704   8.798 -0.6833 -0.2688 -0.5402
  580MOL0     C76464  13.663   3.790   8.839  0.0589  0.7858  0.2281
  580MOL0     C76465  13.773   3.802   8.728  0.3866 -0.4519  0.4114
  580MOL0     C76466  13.721   3.877   8.598  0.0649  0.3367  0.2402
  580MOL0     C76467  13.833   3.862   8.487  0.9814 -0.4329 -0.6905
  580MOL0     C76468  13.786   3.923   8.358 -0.3765  0.7833 -0.1798
  580MOL0     C76469  13.685   3.839   8.285  0.0345 -0.2012  0.2526
  580MOL0     C76470  13.634   3.919   8.162  0.3469  0.2092 -0.9422
  580MOL0     C76471  13.619   3.838   8.029  0.6184 -0.2011 -0.0310
  580MOL0    Cl76472  13.522   3.701   8.065  0.3199  0.4278  0.0149
  580MOL0     C76473  13.352   3.625   8.890  1.5413 -0.3792 -0.6624
  580MOL0     C76474  13.227   3.655   8.947  0.9005 -0.4654  0.2717
  580MOL0     O76475  13.144   3.893   9.228 -0.2057  0.0770  0.4586
  580MOL0     C76476  12.910   3.972   9.335  0.0056  0.9810 -0.2295
  580MOL0     C76477  12.779   4.011   9.379  0.5746 -0.2622  0.1054
  580MOL0     N76478  11.873   4.236   9.375 -0.4216 -0.2626 -0.6668
  580MOL0     N76479  11.753   4.257   9.329 -0.3888 -0.0041  0.0397
  580MOL0     C76480  10.699   4.167   9.084 -0.0799 -0.2725 -0.0035
  580MOL0     C76481  10.567   4.151   9.045 -0.1664 -0.8291 -0.2093
  580MOL0     C76482  10.188   4.267   8.816  0.7912 -0.2390  0.6725
  580MOL0     C76483  10.107   4.353   8.736  0.0151 -0.4390 -0.9422
  580MOL0     C76484   9.966   4.351   8.715 -0.0922 -0.2979  0.1992
  580MOL0     C76485   9.902   4.238   8.764 -0.5937  0.4934 -0.2956
  580MOL0     O76486   9.764   4.207   8.758 -0.7948 -0.8540  0.5985
  580MOL0     C76487   9.713   4.184   8.629  2.0524  0.1119  0.1383
  580MOL0     C76488   9.702   4.036   8.625 -0.6879  0.3586 -0.6153
  580MOL0     C76489   9.604   3.988   8.512  0.0989  0.1674 -0.5084
  580MOL0     C76490   9.625   3.834   8.510  0.8049 -0.1090 -1.0978
  580MOL0     C76491   9.572   3.770   8.389  0.3845  0.9750 -0.1444
  580MOL0     C76492   9.537   3.715   8.286  0.2900 -0.4116 -0.2488
  580MOL0     C76493   9.978   4.141   8.836 -0.3119 -0.3903  0.5665
  580MOL0     C76494  10.120   4.147   8.853 -0.2759 -0.4090  0.4763
  580MOL0     H76495  10.610   4.201   8.715  1.1543 -0.8884  0.3061
  580MOL0     H76496  10.855   4.263   8.799  0.8631  0.7878  0.4868
  580MOL0     H76497  10.979   4.156   9.220  0.2903  1.0454  1.0734
  580MOL0     H76498  10.895   4.309   9.211 -3.2537 -1.1304 -3.0794
  580MOL0     H76499  11.157   4.286   9.271 -2.8655 -0.6345  1.6343
  580MOL0     H76500  11.103   4.427   9.184 -0.8219  0.5745 -1.9568
  580MOL0     H76501  11.152   4.278   8.965 -1.5478 -0.9212 -0.1050
  580MOL0     H76502  11.232   4.169   9.067  2.6648  0.1624 -3.9823
  580MOL0     H76503  11.311   4.456   9.055 -2.5241 -0.4240  0.6572
  580MOL0     H76504  11.384   4.321   9.147 -0.0597  0.6709 -0.1967
  580MOL0     H76505  11.342   4.309   8.849  2.0140  0.9479 -1.2753
  580MOL0     H76506  11.427   4.186   8.945  1.3790 -0.3774  0.2353
  580MOL0     H76507  11.514   4.458   8.880 -2.3388  0.1245  1.3009
  580MOL0     H76508  11.596   4.308   8.822 -0.3177  1.7027 -0.9568
  580MOL0     H76509  11.738   4.390   8.960  0.0618  0.2312  1.0998
  580MOL0     H76510  11.640   4.441   9.089  0.3890 -1.1774  2.4854
  580MOL0     H76511  11.703   4.147   9.029 -2.5968 -2.2420 -0.2968
  580MOL0     H76512  11.579   4.204   9.143 -0.3819  1.8134 -1.0672
  580MOL0     H76513  11.955   4.231   9.064 -1.5106  0.1991 -0.4861
  580MOL0     H76514  12.128   4.268   9.413  1.6638  0.7694  0.3037
  580MOL0     H76515  12.145   4.357   9.250  2.4690  0.2445  1.7327
  580MOL0     H76516  12.227   4.175   9.134  1.6258 -0.4512 -0.2027
  580MOL0     H76517  12.173   4.062   9.255  1.1085  0.6616 -1.6047
  580MOL0     H76518  12.408   4.254   9.304 -0.6660 -0.3716 -0.5574
  580MOL0     H76519  12.334   4.121   9.411  3.3822  0.0629  1.0889
  580MOL0     H76520  12.467   4.076   9.151  0.2630 -1.8435 -0.3614
  580MOL0     H76521  12.390   3.951   9.240 -0.8215  0.8049 -0.0999
  580MOL0     H76522  12.589   3.886   9.129 -0.6463  3.0092 -0.1715
  580MOL0     H76523  12.821   3.828   9.036  1.9569  0.2130 -0.3566
  580MOL0     H76524  13.244   3.998   8.959 -0.5450 -0.2756  1.6827
  580MOL0     H76525  13.456   3.954   8.846  0.8253  0.7342 -0.2537
  580MOL0     H76526  13.709   3.739   8.924  0.8355 -0.9398 -1.1774
  580MOL0     H76527  13.642   3.894   8.866  2.3686  1.8456 -1.6780
  580MOL0     H76528  13.788   3.698   8.698 -2.1895 -0.1786 -2.3485
  580MOL0     H76529  13.859   3.854   8.770  0.4241 -1.4349  1.6470
  580MOL0     H76530  13.688   3.977   8.627  2.5914  0.3956  3.5622
  580MOL0     H76531  13.630   3.831   8.559 -3.1537  4.8669  1.5152
  580MOL0     H76532  13.919   3.910   8.536 -1.9742  1.4146  3.2906
  580MOL0     H76533  13.864   3.757   8.483  1.4619 -0.4451  1.6271
  580MOL0     H76534  13.864   3.928   8.281 -2.7020  1.9300 -2.6308
  580MOL0     H76535  13.748   4.025   8.369 -2.4253  0.2013 -1.2405
  580MOL0     H76536  13.596   3.825   8.348  0.5043 -0.2479  0.9206
  580MOL0     H76537  13.719   3.737   8.264 -3.9425 -1.4467 -1.0686
  580MOL0     H76538  13.535   3.957   8.191  1.1926  1.0014  1.1295
  580MOL0     H76539  13.695   4.007   8.140  1.1920 -0.2514 -0.4570
  580MOL0     H76540  13.712   3.810   7.978  1.8932 -1.9126  2.9834
  580MOL0     H76541  13.557   3.902   7.965 -1.0964 -1.5920  0.1753
  580MOL0     H76542  13.372   3.519   8.882  2.7603 -0.2018 -0.0837
  580MOL0     H76543  13.161   3.583   8.995 -0.2082  0.8976  0.8668
  580MOL0     H76544  13.002   4.005   9.381  1.0476 -0.8357 -0.9341
  580MOL0     H76545  12.762   4.073   9.466 -0.9144 -0.5786  0.0677
  580MOL0     H76546  10.712   4.142   9.189  1.4129 -0.8992 -0.3042
  580MOL0     H76547  10.490   4.146   9.121 -0.5378  0.6587 -0.4511
  580MOL0     H76548  10.157   4.438   8.692 -0.0077 -0.9071 -1.8990
  580MOL0     H76549   9.920   4.430   8.657  0.4554 -0.1089  0.0162
  580MOL0     H76550   9.776   4.220   8.548 -0.8525 -0.8130 -2.7272
  580MOL0     H76551   9.613   4.229   8.625  0.8572 -2.4222 -0.3961
  580MOL0     H76552   9.801   3.997   8.599 -1.3028  0.1004 -2.6962
  580MOL0     H76553   9.671   3.996   8.722 -3.9767  2.9859 -0.4281
  580MOL0     H76554   9.642   4.043   8.425  2.8238  3.2432  2.3443
  580MOL0     H76555   9.503   4.030   8.518  0.7783  2.3275 -2.5537
  580MOL0     H76556   9.733   3.819   8.502  1.2331  2.1494 -0.4274
  580MOL0     H76557   9.578   3.790   8.598 -0.5833  0.3335 -1.5922
  580MOL0     H76558   9.508   3.674   8.192 -2.2409 -0.0130  0.2935
  580MOL0     H76559   9.926   4.050   8.863 -2.3755  1.2392  2.5922
  580MOL0     H76560  10.184   4.080   8.909 -1.2012 -1.8191 -0.1046
  581MOL0     O76561   6.137   4.933  10.028  0.0580 -0.0849  0.0009
  581MOL0     C76562   6.180   5.046  10.004  0.1171  0.0624 -0.2715
  581MOL0     O76563   6.102   5.158  10.006 -0.2026 -0.1406 -0.0066
  581MOL0     C76564   5.966   5.139  10.007  0.0459 -0.6371  0.3417
  581MOL0     C76565   5.884   5.091  10.108 -0.5342  1.1555  0.7391
  581MOL0     C76566   5.745   5.104  10.102 -0.8011  0.2809 -0.2671
  581MOL0     C76567   5.683   5.185  10.010 -0.7538 -1.2171  0.5596
  581MOL0     O76568   5.548   5.192   9.997 -0.4824  0.1364  0.2836
  581MOL0     C76569   5.490   5.322   9.978 -0.8732 -0.9170  0.1333
  581MOL0     C76570   5.367   5.336   9.897  0.3194 -0.4184 -0.7150
  581MOL0     C76571   5.259   5.245   9.963 -0.5344 -0.0951  0.2286
  581MOL0     C76572   5.144   5.230   9.868  0.3879 -0.1689  0.4876
  581MOL0     C76573   5.022   5.149   9.918 -0.1999  0.3283 -0.1164
  581MOL0     C76574   4.916   5.131   9.821  0.5641 -0.3701  0.3477
  581MOL0     C76575   4.801   5.034   9.867  0.5292 -0.0807  0.3758
  581MOL0     C76576   4.709   5.008   9.742  1.5014  0.6404  0.0827
  581MOL0     N76577   4.591   4.928   9.793  0.5134  0.4279  0.4084
  581MOL0     C76578   4.459   4.957   9.785  0.6753 -0.3639  0.8803
  581MOL0     C76579   4.398   4.838   9.813 -0.0743 -1.1306  0.2003
  581MOL0     C76580   4.254   4.822   9.832 -1.0328  0.1031  0.0260
  581MOL0     C76581   4.168   4.821   9.703 -0.7295  0.8969  0.3833
  581MOL0     C76582   4.026   4.771   9.730  0.7840 -0.3308 -0.1879
  581MOL0     C76583   3.942   4.799   9.609  0.1951  1.1463  0.3995
  581MOL0     O76584   3.819   4.730   9.605 -0.3443 -1.1563 -0.7252
  581MOL0     C76585   3.729   4.742   9.495 -0.5352 -0.1615 -1.9430
  581MOL0     C76586   3.645   4.634   9.473  1.1671  0.0196  0.1650
  581MOL0     C76587   3.541   4.649   9.379  0.3369  0.4348  0.2213
  581MOL0     C76588   3.527   4.775   9.307  0.3327  0.1933 -0.0316
  581MOL0     C76589   3.421   4.779   9.208 -0.6317 -0.1659 -0.5879
  581MOL0     O76590   3.380   4.905   9.160 -0.1170 -0.2170 -0.4065
  581MOL0     C76591   3.256   4.922   9.119  0.7980 -0.2484 -0.0803
  581MOL0     C76592   3.133   4.852   9.152 -0.4537  0.7173  0.1183
  581MOL0     C76593   3.006   4.889   9.099  0.0592 -0.9521  0.0526
  581MOL0     C76594   3.000   5.001   9.010 -0.1202  0.3633  0.0177
  581MOL0     O76595   2.888   5.047   8.956  0.3572 -0.2778 -0.2413
  581MOL0     C76596   2.763   4.973   8.965  0.3323 -0.8840 -0.1462
  581MOL0     C76597   2.665   5.046   8.868  0.2858  0.7215 -0.5940
  581MOL0     C76598   2.523   5.009   8.904  1.1517  0.4562  0.2932
  581MOL0     C76599   2.406   5.087   8.836 -0.3404 -0.4579 -0.4396
  581MOL0     C76600   2.268   5.029   8.860  0.1682  0.0077  0.3361
  581MOL0     C76601   2.219   5.028   9.006 -0.1034 -0.2045  0.9841
  581MOL0     C76602   2.213   4.891   9.064 -1.3567  0.1115  0.5971
  581MOL0     C76603   2.184   4.893   9.216 -0.3537  0.1248 -1.2228
  581MOL0    Cl76604   2.101   4.745   9.260  0.2412 -0.2721  0.3635
  581MOL0     C76605   3.116   5.068   8.989 -0.2631 -0.0340  0.6076
  581MOL0     C76606   3.237   5.037   9.041 -0.7448  0.5779  0.7368
  581MOL0     O76607   3.380   4.668   9.170  0.3049 -0.2395 -0.0416
  581MOL0     C76608   3.609   4.883   9.343  0.0769  0.3908  0.4011
  581MOL0     C76609   3.714   4.867   9.433 -0.0948  0.7918 -0.6645
  581MOL0     N76610   4.487   4.741   9.835  0.2391 -0.5302  0.1214
  581MOL0     N76611   4.603   4.801   9.839 -0.8556  0.1648 -0.6662
  581MOL0     C76612   5.772   5.237   9.909  0.2997  0.3735  0.6456
  581MOL0     C76613   5.902   5.210   9.902 -0.7719 -0.6490 -0.7115
  581MOL0     C76614   6.316   5.067   9.958 -0.8737 -0.1740 -0.5274
  581MOL0     C76615   6.412   4.967   9.949 -0.2891  0.6671  0.1320
  581MOL0     C76616   6.542   4.988   9.889  0.7652 -0.3711  0.0314
  581MOL0     C76617   6.572   5.120   9.847 -0.6431 -0.0855 -0.3228
  581MOL0     O76618   6.693   5.136   9.783 -0.6166  0.2191 -0.1249
  581MOL0     C76619   6.763   5.251   9.825  0.4328  0.2975  0.0232
  581MOL0     C76620   6.904   5.259   9.768 -0.4478  0.8605  0.0887
  581MOL0     C76621   6.912   5.231   9.619  0.2556 -0.6176 -1.0186
  581MOL0     C76622   7.060   5.213   9.571  0.5189  0.1531  0.0939
  581MOL0     C76623   7.130   5.336   9.602  0.9100 -0.5231 -0.0497
  581MOL0     C76624   7.188   5.443   9.623  0.3344  1.2217  0.1507
  581MOL0     C76625   6.482   5.225   9.873 -1.2414  0.8424  0.4851
  581MOL0     C76626   6.363   5.190   9.923  0.3835 -0.5119  0.0370
  581MOL0     H76627   5.935   5.022  10.174  0.0482  2.1692  1.3641
  581MOL0     H76628   5.685   5.043  10.169 -0.9686 -1.0188 -1.5448
  581MOL0     H76629   5.554   5.397   9.930 -0.7956  0.4104  2.1728
  581MOL0     H76630   5.468   5.366  10.076 -0.6628 -0.7001  0.0834
  581MOL0     H76631   5.391   5.309   9.793 -2.4284 -2.3883 -0.9575
  581MOL0     H76632   5.329   5.438   9.890  2.2654  0.2971 -1.7770
  581MOL0     H76633   5.223   5.298  10.052 -0.1763 -1.7468  1.4054
  581MOL0     H76634   5.303   5.148   9.989  1.7734 -0.1411 -3.2003
  581MOL0     H76635   5.113   5.330   9.838 -0.3275 -0.2237  1.0309
  581MOL0     H76636   5.188   5.170   9.787 -2.3067 -2.6399  0.6704
  581MOL0     H76637   4.977   5.193  10.008 -0.9992  0.3866 -0.5357
  581MOL0     H76638   5.053   5.048   9.945 -0.7717 -0.1590 -1.2307
  581MOL0     H76639   4.957   5.091   9.728 -1.8280  0.6940 -1.2720
  581MOL0     H76640   4.868   5.226   9.795  0.6367 -0.6421 -0.8445
  581MOL0     H76641   4.847   4.942   9.904 -0.1641  0.1620  1.9007
  581MOL0     H76642   4.744   5.077   9.950 -2.2208 -1.9455 -0.4031
  581MOL0     H76643   4.764   4.958   9.661 -4.1345 -0.9094 -3.4030
  581MOL0     H76644   4.672   5.103   9.702 -0.6778  0.4111  1.3875
  581MOL0     H76645   4.417   5.057   9.787 -1.2971 -1.1519  1.7140
  581MOL0     H76646   4.224   4.901   9.901 -1.6644  1.2265 -1.4835
  581MOL0     H76647   4.246   4.727   9.886  3.8226  0.0098  1.0011
  581MOL0     H76648   4.219   4.761   9.627 -0.9925  2.3695 -1.0053
  581MOL0     H76649   4.159   4.925   9.669  2.0207  0.9678 -0.3421
  581MOL0     H76650   4.027   4.662   9.745 -2.0763 -0.3530  0.5492
  581MOL0     H76651   3.984   4.803   9.826  0.2772 -2.6592  0.4420
  581MOL0     H76652   4.007   4.767   9.526  0.6034 -0.3087  1.2403
  581MOL0     H76653   3.931   4.908   9.611  0.4569  1.1706  0.5346
  581MOL0     H76654   3.653   4.541   9.527 -1.0304  0.7612  1.9107
  581MOL0     H76655   3.478   4.563   9.356  1.0265  0.4570 -1.9597
  581MOL0     H76656   3.123   4.770   9.222 -1.6469  0.9814  0.2747
  581MOL0     H76657   2.924   4.830   9.139 -1.0929  0.6121  0.1181
  581MOL0     H76658   2.729   4.977   9.069 -1.9622  1.1146 -0.8825
  581MOL0     H76659   2.768   4.870   8.927 -0.8465  0.3408 -4.1297
  581MOL0     H76660   2.680   5.016   8.764 -0.1606 -1.1524 -0.1563
  581MOL0     H76661   2.666   5.155   8.880 -3.4295  0.7153  1.0907
  581MOL0     H76662   2.512   5.023   9.012 -3.2019  0.4030  0.0109
  581MOL0     H76663   2.508   4.905   8.875  0.9037  1.2729 -2.8183
  581MOL0     H76664   2.403   5.186   8.882 -0.9614 -0.8398  0.3636
  581MOL0     H76665   2.439   5.086   8.731  0.5702 -1.9695 -0.1576
  581MOL0     H76666   2.266   4.926   8.824 -1.2243 -0.6187  2.0379
  581MOL0     H76667   2.192   5.087   8.807  0.3150  0.8922  1.0640
  581MOL0     H76668   2.117   5.069   9.008  0.0523  0.6306 -2.3092
  581MOL0     H76669   2.288   5.082   9.071  0.7061  0.0835 -0.0857
  581MOL0     H76670   2.137   4.831   9.014  1.2667  0.0367 -3.8864
  581MOL0     H76671   2.307   4.836   9.052 -0.4301  1.4760  1.3153
  581MOL0     H76672   2.123   4.976   9.253 -0.9047 -0.4827 -0.7351
  581MOL0     H76673   2.277   4.908   9.273 -1.7922  1.0592  1.0520
  581MOL0     H76674   3.105   5.145   8.914 -1.1216 -0.6221  0.1052
  581MOL0     H76675   3.320   5.099   9.008  0.8259 -1.0948  1.3220
  581MOL0     H76676   3.596   4.981   9.298  1.9763  0.9151  0.8746
  581MOL0     H76677   3.774   4.949   9.471 -0.3191  0.3437  0.7025
  581MOL0     H76678   5.742   5.305   9.830  1.8832  2.1668  1.5098
  581MOL0     H76679   5.953   5.251   9.815 -1.5319  2.1305  0.0646
  581MOL0     H76680   6.393   4.865   9.982  2.5214  0.0505  0.0256
  581MOL0     H76681   6.619   4.913   9.869 -0.0226 -1.1355 -0.2255
  581MOL0     H76682   6.774   5.257   9.934  1.9889  3.5319 -0.2130
  581MOL0     H76683   6.724   5.342   9.781 -0.2932  0.7674  1.5493
  581MOL0     H76684   6.947   5.355   9.798  3.9942 -1.5624  2.4374
  581MOL0     H76685   6.969   5.185   9.815  3.1202  1.5964 -3.2663
  581MOL0     H76686   6.882   5.321   9.564  2.6628  0.2303 -1.0616
  581MOL0     H76687   6.849   5.145   9.599  0.7157 -0.7695 -1.8479
  581MOL0     H76688   7.106   5.121   9.609 -0.3231 -0.2394  0.1911
  581MOL0     H76689   7.055   5.209   9.461 -3.4760  1.1572  0.0698
  581MOL0     H76690   7.236   5.537   9.642  0.1110  1.8679 -2.1993
  581MOL0     H76691   6.500   5.331   9.855  0.9278  0.3939 -0.3364
  581MOL0     H76692   6.300   5.278   9.935 -0.1491 -1.2284  3.6279
  582MOL0     O76693   6.535   6.246   1.169 -0.5131  0.2254  1.3715
  582MOL0     C76694   6.471   6.212   1.071 -0.0983 -0.1830 -0.1633
  582MOL0     O76695   6.521   6.141   0.967 -0.0058  0.0768  0.4564
  582MOL0     C76696   6.657   6.117   0.952 -0.3707  0.4270  0.5269
  582MOL0     C76697   6.764   6.192   1.009 -0.6371  0.3020 -0.0062
  582MOL0     C76698   6.905   6.173   0.999 -0.1112 -0.0761 -0.0447
  582MOL0     C76699   6.945   6.072   0.905 -0.9900 -1.1440  0.3538
  582MOL0     O76700   7.085   6.067   0.877 -0.4706  0.0879 -0.2596
  582MOL0     C76701   7.143   5.952   0.818  0.2170 -0.5393  0.3095
  582MOL0     C76702   7.284   5.915   0.860  1.2589  0.7398 -0.2627
  582MOL0     C76703   7.352   5.826   0.752  0.3405  0.0002  0.3382
  582MOL0     C76704   7.497   5.809   0.797 -0.6328  0.0487 -0.8134
  582MOL0     C76705   7.584   5.736   0.696 -0.0683 -0.1989  0.4517
  582MOL0     C76706   7.696   5.673   0.768 -0.5026 -0.1868 -0.2401
  582MOL0     C76707   7.790   5.584   0.691 -0.0758  0.3619 -0.4100
  582MOL0     C76708   7.729   5.471   0.607  0.5844  0.4281  0.7158
  582MOL0     N76709   7.677   5.364   0.695  0.2416  0.0795 -0.5250
  582MOL0     C76710   7.565   5.365   0.770  0.5242  0.5650  0.0735
  582MOL0     C76711   7.579   5.279   0.876 -1.1338 -0.4655  0.1677
  582MOL0     C76712   7.480   5.273   0.993 -0.4067  0.2514 -0.2035
  582MOL0     C76713   7.464   5.413   1.045  0.0522  0.2955 -0.8650
  582MOL0     C76714   7.370   5.414   1.166  0.1986  0.4124 -0.5152
  582MOL0     C76715   7.224   5.422   1.131  0.2356  0.6772 -0.2583
  582MOL0     O76716   7.190   5.561   1.123  1.2316 -0.1450  0.5035
  582MOL0     C76717   7.062   5.575   1.064 -0.1617 -0.3250 -0.0763
  582MOL0     C76718   6.951   5.556   1.141  0.3933 -0.2192  0.3344
  582MOL0     C76719   6.817   5.550   1.086  0.1206 -0.4835 -0.2423
  582MOL0     C76720   6.796   5.600   0.962  0.8976 -0.3913 -0.6530
  582MOL0     C76721   6.659   5.629   0.922  0.0917 -0.5953 -0.7115
  582MOL0     O76722   6.564   5.640   1.015  0.4787  0.2875  1.1141
  582MOL0     C76723   6.445   5.696   0.977  0.7094 -0.0949  0.5765
  582MOL0     C76724   6.410   5.822   1.020 -0.3227  0.2542 -0.2399
  582MOL0     C76725   6.293   5.888   0.987 -0.4740  0.2561 -0.9125
  582MOL0     C76726   6.202   5.823   0.902  0.4454 -0.6688  0.1764
  582MOL0     O76727   6.077   5.875   0.863 -0.4914 -0.5698  0.3946
  582MOL0     C76728   6.044   6.014   0.883  0.2567  0.5821 -0.7754
  582MOL0     C76729   5.886   6.049   0.864  0.6941  0.7346 -0.5649
  582MOL0     C76730   5.817   5.953   0.756 -0.2300 -0.4604 -0.5536
  582MOL0     C76731   5.671   6.006   0.728  0.5924  0.7299 -0.6776
  582MOL0     C76732   5.595   5.911   0.629 -0.2176 -0.3237 -1.0897
  582MOL0     C76733   5.458   5.944   0.598 -0.5997  0.2193 -0.0167
  582MOL0     C76734   5.360   5.941   0.720 -0.9274  0.9071  0.3137
  582MOL0     C76735   5.212   5.949   0.683 -0.7366  0.0655 -0.0571
  582MOL0    Cl76736   5.147   5.795   0.610 -0.2912 -0.6193  0.3739
  582MOL0     C76737   6.243   5.698   0.849 -0.2281 -0.0182 -0.0490
  582MOL0     C76738   6.360   5.632   0.873  0.3778  0.1613 -0.3548
  582MOL0     O76739   6.646   5.647   0.799 -0.6168  0.0456 -0.3278
  582MOL0     C76740   6.913   5.635   0.884 -1.0238 -0.1967 -1.2190
  582MOL0     C76741   7.050   5.622   0.926  0.0676  0.5061  1.1477
  582MOL0     N76742   7.706   5.221   0.853  0.5163  0.3763  0.2874
  582MOL0     N76743   7.764   5.280   0.758 -0.2214 -0.4117 -0.0134
  582MOL0     C76744   6.845   5.997   0.841 -0.7645 -0.3165 -0.3738
  582MOL0     C76745   6.706   6.010   0.867  0.0450 -0.4000 -0.4126
  582MOL0     C76746   6.320   6.250   1.071  0.2702 -0.4853  0.1274
  582MOL0     C76747   6.265   6.331   0.968 -0.2342  0.4451 -0.0046
  582MOL0     C76748   6.136   6.373   0.973  0.4932 -0.2602 -0.9524
  582MOL0     C76749   6.054   6.335   1.083  0.2612 -0.0031  0.9450
  582MOL0     O76750   5.921   6.368   1.099  0.2627 -0.2074 -0.9073
  582MOL0     C76751   5.861   6.452   1.002  0.2771  0.5053 -0.8381
  582MOL0     C76752   5.733   6.499   1.070 -0.1530 -0.3474  0.1091
  582MOL0     C76753   5.608   6.404   1.056  0.8233 -0.5280 -0.7662
  582MOL0     C76754   5.623   6.265   1.128 -0.1358  0.3051  0.1809
  582MOL0     C76755   5.498   6.194   1.107 -0.6732 -0.2199  0.2525
  582MOL0     C76756   5.414   6.117   1.119  0.6252  0.5837 -1.0815
  582MOL0     C76757   6.112   6.270   1.185  0.0023  0.7954 -0.5026
  582MOL0     C76758   6.244   6.220   1.176  0.0479  0.3331 -0.1685
  582MOL0     H76759   6.746   6.283   1.066  2.4434  0.1513  1.4672
  582MOL0     H76760   6.978   6.235   1.049  1.0112 -0.1748 -1.4862
  582MOL0     H76761   7.142   5.984   0.714 -0.8511  3.7880  1.4143
  582MOL0     H76762   7.083   5.861   0.822 -0.8858  0.1516 -0.0088
  582MOL0     H76763   7.282   5.868   0.958 -0.9458  1.4406  0.0886
  582MOL0     H76764   7.351   5.997   0.886  2.3046 -0.7769  2.1896
  582MOL0     H76765   7.341   5.868   0.652 -0.8370 -2.1665 -0.5166
  582MOL0     H76766   7.298   5.731   0.753  0.1611  0.0817 -0.5450
  582MOL0     H76767   7.543   5.900   0.837 -3.8455 -0.2401  4.5173
  582MOL0     H76768   7.487   5.752   0.889 -2.1736 -0.0774 -1.0261
  582MOL0     H76769   7.608   5.817   0.627 -0.7076 -0.2621  0.1438
  582MOL0     H76770   7.530   5.657   0.643  3.0867 -0.4007 -2.7680
  582MOL0     H76771   7.653   5.617   0.851  0.0871  2.1371  1.7386
  582MOL0     H76772   7.758   5.751   0.812 -0.8426  0.0310 -0.1465
  582MOL0     H76773   7.845   5.644   0.618  1.9867 -2.1471 -1.0525
  582MOL0     H76774   7.854   5.542   0.769 -3.7585  1.5421  3.6245
  582MOL0     H76775   7.804   5.425   0.542 -0.6247  1.4869 -1.5464
  582MOL0     H76776   7.649   5.512   0.545  0.5022  1.8898  1.7099
  582MOL0     H76777   7.479   5.428   0.753 -0.6198 -1.4226 -1.9607
  582MOL0     H76778   7.514   5.194   1.061 -0.8310 -1.4201 -1.8536
  582MOL0     H76779   7.382   5.243   0.953  1.2892 -1.1146 -3.7711
  582MOL0     H76780   7.425   5.478   0.966 -0.4736  1.3808  0.2448
  582MOL0     H76781   7.565   5.441   1.073 -0.3231  0.6277  0.2128
  582MOL0     H76782   7.384   5.324   1.226  3.3608  0.9387 -0.2736
  582MOL0     H76783   7.403   5.496   1.231  1.6674 -0.1282 -0.5334
  582MOL0     H76784   7.174   5.377   1.217  2.5260  0.7160  1.1817
  582MOL0     H76785   7.203   5.360   1.043  0.9878 -3.2437  2.0437
  582MOL0     H76786   6.974   5.526   1.243  0.3818  1.0029  0.7113
  582MOL0     H76787   6.729   5.515   1.139 -1.1737 -0.3755 -2.2048
  582MOL0     H76788   6.472   5.875   1.091 -0.2020  0.3266 -0.3984
  582MOL0     H76789   6.273   5.984   1.032  1.4468  0.5274 -0.5526
  582MOL0     H76790   6.098   6.078   0.812  0.4118 -1.9673 -3.1352
  582MOL0     H76791   6.089   6.036   0.980  2.3572 -1.7082 -1.1265
  582MOL0     H76792   5.875   6.151   0.827  2.8501  1.0028 -0.5676
  582MOL0     H76793   5.839   6.028   0.961  3.2135 -2.1520  0.1742
  582MOL0     H76794   5.812   5.849   0.787  0.5340  0.1889  2.0007
  582MOL0     H76795   5.884   5.954   0.670  0.6264 -0.5956  0.1056
  582MOL0     H76796   5.621   6.023   0.824 -2.2191 -0.0972 -1.8868
  582MOL0     H76797   5.686   6.100   0.673 -0.6087 -0.0275 -2.3695
  582MOL0     H76798   5.584   5.808   0.664  1.9360 -0.5684 -1.0382
  582MOL0     H76799   5.651   5.921   0.535 -1.8755 -0.3554 -2.1205
  582MOL0     H76800   5.426   5.867   0.526  0.5933 -2.0663  1.7671
  582MOL0     H76801   5.456   6.046   0.558  3.8694 -0.5049 -2.8076
  582MOL0     H76802   5.371   5.856   0.788 -3.0276  1.1288  1.0358
  582MOL0     H76803   5.382   6.027   0.784 -0.4724  2.7786 -2.2274
  582MOL0     H76804   5.192   6.038   0.622  2.6887  1.9973  1.3651
  582MOL0     H76805   5.152   5.963   0.773  0.8940 -0.8459  1.2297
  582MOL0     H76806   6.167   5.657   0.783 -0.3174 -1.4575  0.9107
  582MOL0     H76807   6.380   5.536   0.826  1.2670  1.7129 -3.4293
  582MOL0     H76808   6.892   5.672   0.784 -2.9015 -0.2166 -0.8619
  582MOL0     H76809   7.121   5.652   0.850 -0.9994  3.8642  1.2962
  582MOL0     H76810   6.878   5.931   0.762 -2.7995 -1.4199 -0.3671
  582MOL0     H76811   6.637   5.938   0.822 -0.9924  1.6188 -2.2664
  582MOL0     H76812   6.323   6.359   0.881 -0.6074 -0.3476 -0.5238
  582MOL0     H76813   6.092   6.414   0.883  0.7142  1.9672 -0.1082
  582MOL0     H76814   5.828   6.414   0.905 -1.2669  1.1223 -0.5795
  582MOL0     H76815   5.931   6.531   0.973  2.2716 -0.2646  1.5609
  582MOL0     H76816   5.755   6.511   1.176  1.2267 -1.1093 -0.0802
  582MOL0     H76817   5.719   6.601   1.032  2.0420 -0.1917 -0.4232
  582MOL0     H76818   5.592   6.383   0.950 -0.3738 -1.6172 -0.3972
  582MOL0     H76819   5.518   6.452   1.094  0.2593 -1.7995 -0.4429
  582MOL0     H76820   5.705   6.213   1.078 -1.6645 -1.5890 -0.4973
  582MOL0     H76821   5.639   6.271   1.236 -0.2422 -2.1903  0.4147
  582MOL0     H76822   5.340   6.039   1.114  1.4938 -0.1912 -2.7484
  582MOL0     H76823   6.052   6.246   1.272  0.3893 -0.7199 -0.6294
  582MOL0     H76824   6.277   6.162   1.262  1.9562  1.8933  0.2168
  583MOL0     O76825   0.153   3.379   8.627  0.0041  0.0101  0.6205
  583MOL0     C76826   0.193   3.267   8.664  0.1966 -0.0223  0.8649
  583MOL0     O76827   0.331   3.225   8.664 -0.7718  0.2525 -1.0258
  583MOL0     C76828   0.435   3.316   8.637 -0.4500  0.9043 -0.0364
  583MOL0     C76829   0.560   3.252   8.598  0.6279  0.4316 -1.6113
  583MOL0     C76830   0.673   3.332   8.578  1.0288 -0.4992 -0.5819
  583MOL0     C76831   0.673   3.470   8.594 -0.0056 -0.4110 -0.3764
  583MOL0     O76832   0.792   3.543   8.582  0.4805  0.0660 -0.4242
  583MOL0     C76833   0.909   3.473   8.594 -0.7669 -0.3583  0.5566
  583MOL0     C76834   1.011   3.579   8.639 -0.8713  0.6091  0.1778
  583MOL0     C76835   1.150   3.538   8.636 -0.4166 -0.7182 -0.5995
  583MOL0     C76836   1.207   3.483   8.505 -0.3132  0.4833 -0.0378
  583MOL0     C76837   1.356   3.446   8.508 -0.0839  0.0371  0.0987
  583MOL0     C76838   1.451   3.569   8.500  0.0371  1.1564  0.2516
  583MOL0     C76839   1.589   3.523   8.464 -0.2282 -0.3202  0.3710
  583MOL0     C76840   1.705   3.620   8.471 -0.4706  0.2656  0.1109
  583MOL0     N76841   1.834   3.545   8.474  0.0225  0.3585  0.0095
  583MOL0     C76842   1.929   3.547   8.370  0.6881  1.1134 -0.3485
  583MOL0     C76843   2.043   3.507   8.431  0.1042 -0.3751  0.4389
  583MOL0     C76844   2.172   3.499   8.353  0.0655 -0.3909 -0.5495
  583MOL0     C76845   2.244   3.378   8.391 -0.9681  0.1359  0.5744
  583MOL0     C76846   2.330   3.319   8.275 -0.3468  0.5105  0.1914
  583MOL0     C76847   2.442   3.415   8.225  0.9281  0.1905 -0.3903
  583MOL0     O76848   2.561   3.354   8.171  0.0940  0.9126  0.0800
  583MOL0     C76849   2.627   3.417   8.073  0.0840  0.5536  1.1803
  583MOL0     C76850   2.632   3.556   8.059 -2.2326  0.1221 -0.0705
  583MOL0     C76851   2.706   3.619   7.957  0.3720  0.3634 -0.3920
  583MOL0     C76852   2.761   3.536   7.852  0.3684  0.2724  0.8824
  583MOL0     C76853   2.826   3.589   7.735 -0.0678 -0.0140 -0.5656
  583MOL0     O76854   2.879   3.501   7.655  0.4011 -0.1111  0.1115
  583MOL0     C76855   2.945   3.551   7.545  0.6702 -1.2322 -0.1739
  583MOL0     C76856   3.088   3.542   7.545 -0.3807 -0.1362 -0.1866
  583MOL0     C76857   3.159   3.574   7.435  1.6555  0.3812  0.8357
  583MOL0     C76858   3.104   3.629   7.321  0.0723  0.3280  0.0048
  583MOL0     O76859   3.186   3.663   7.216 -0.1360  0.1474 -0.6787
  583MOL0     C76860   3.124   3.672   7.083 -0.5988 -1.4329 -0.5180
  583MOL0     C76861   3.233   3.685   6.975  0.2281  0.0485  0.0078
  583MOL0     C76862   3.279   3.832   6.948 -1.0333  0.5701 -0.5477
  583MOL0     C76863   3.428   3.834   6.889 -0.7243  0.0250 -0.2824
  583MOL0     C76864   3.487   3.972   6.887  0.8886  0.8978  0.2703
  583MOL0     C76865   3.636   3.981   6.836 -1.3054  0.2359 -0.0956
  583MOL0     C76866   3.655   3.941   6.688  0.0266  0.4841 -0.5669
  583MOL0     C76867   3.791   3.963   6.623  0.3390  0.5607  0.8719
  583MOL0    Cl76868   3.903   3.818   6.646  0.2131  0.0195  0.0216
  583MOL0     C76869   2.967   3.643   7.326  0.3255 -0.7229 -0.4593
  583MOL0     C76870   2.887   3.593   7.431 -0.6459 -0.0834 -0.2915
  583MOL0     O76871   2.821   3.706   7.716  0.2486  0.6250  0.0727
  583MOL0     C76872   2.761   3.399   7.869 -0.2800  0.2354 -0.4302
  583MOL0     C76873   2.700   3.341   7.983  0.0332 -0.1876  0.8445
  583MOL0     N76874   2.021   3.496   8.564 -0.1381  0.4606 -0.4788
  583MOL0     N76875   1.902   3.511   8.587  0.3609  0.5978 -0.2522
  583MOL0     C76876   0.549   3.528   8.628 -0.1427  0.0814 -0.1818
  583MOL0     C76877   0.427   3.455   8.644 -0.3035  0.2412  0.3184
  583MOL0     C76878   0.089   3.179   8.710  0.4519 -1.3773  0.0708
  583MOL0     C76879  -0.046   3.174   8.662 -0.1244 -1.2734 -0.2804
  583MOL0     C76880  -0.133   3.077   8.701  0.2975  0.7797 -0.8768
  583MOL0     C76881  -0.087   2.979   8.800  0.4321 -0.2444  0.6617
  583MOL0     O76882  -0.163   2.874   8.854  0.4385 -0.4793  0.9572
  583MOL0     C76883  -0.238   2.900   8.969 -0.3461 -0.3618 -1.5182
  583MOL0     C76884  -0.343   2.783   8.966 -0.2786 -0.0652  1.2844
  583MOL0     C76885  -0.344   2.707   9.102  0.7167  0.7140  0.2727
  583MOL0     C76886  -0.468   2.608   9.119 -0.8033 -0.0203 -1.3872
  583MOL0     C76887  -0.591   2.668   9.081 -0.1515 -0.8523  0.1952
  583MOL0     C76888  -0.687   2.735   9.055  0.0905 -0.1134  0.6473
  583MOL0     C76889   0.043   2.987   8.851  0.1544  0.2560  0.2634
  583MOL0     C76890   0.128   3.085   8.802  0.2733  0.1794 -0.7588
  583MOL0     H76891   0.553   3.144   8.608 -4.0977  0.6932 -0.0098
  583MOL0     H76892   0.762   3.278   8.546  1.6147 -0.7567  1.3103
  583MOL0     H76893   0.928   3.438   8.493 -1.3211  1.1846 -0.1075
  583MOL0     H76894   0.914   3.390   8.666  0.5208 -1.6548 -0.9452
  583MOL0     H76895   0.975   3.624   8.732 -2.1703 -0.8703  0.4306
  583MOL0     H76896   1.002   3.667   8.574 -2.5041  0.7919  0.6101
  583MOL0     H76897   1.164   3.454   8.705  0.4412 -0.9200 -1.0152
  583MOL0     H76898   1.213   3.621   8.668 -0.5369 -0.4121 -1.1489
  583MOL0     H76899   1.151   3.391   8.485 -0.5481  1.3080 -4.0957
  583MOL0     H76900   1.191   3.546   8.417  0.5469  0.8394  0.0487
  583MOL0     H76901   1.381   3.379   8.425  2.0764  3.0328 -1.9006
  583MOL0     H76902   1.384   3.385   8.595  0.1663 -0.2192 -0.1576
  583MOL0     H76903   1.456   3.616   8.599 -0.3564 -0.1007  0.8932
  583MOL0     H76904   1.422   3.644   8.426 -1.3655  0.3610 -0.0299
  583MOL0     H76905   1.618   3.445   8.535  1.6969 -0.6219 -0.6815
  583MOL0     H76906   1.591   3.496   8.358  2.9140 -1.5993  0.6485
  583MOL0     H76907   1.705   3.672   8.567 -2.2350  2.8181 -1.1588
  583MOL0     H76908   1.702   3.687   8.384  0.6048 -2.6157 -2.3569
  583MOL0     H76909   1.919   3.576   8.266 -2.6314  1.1518 -0.1243
  583MOL0     H76910   2.234   3.588   8.365  1.3532 -1.3370 -0.0069
  583MOL0     H76911   2.150   3.488   8.246  2.4673  1.3095 -1.2978
  583MOL0     H76912   2.173   3.299   8.417  0.7778 -1.6027  0.2853
  583MOL0     H76913   2.296   3.396   8.486 -2.1780  1.6462  0.9907
  583MOL0     H76914   2.383   3.229   8.307 -0.8820 -0.8468 -2.4349
  583MOL0     H76915   2.255   3.292   8.200 -0.6553  0.8363  0.3827
  583MOL0     H76916   2.457   3.493   8.300  0.2191  3.7255 -3.6034
  583MOL0     H76917   2.397   3.475   8.145  1.2093  1.0557  0.0978
  583MOL0     H76918   2.596   3.619   8.139  0.7888  1.1011  0.6481
  583MOL0     H76919   2.703   3.727   7.943  0.0957  0.1974 -1.6466
  583MOL0     H76920   3.143   3.493   7.625 -0.4828 -1.7598 -1.0779
  583MOL0     H76921   3.266   3.555   7.439  1.6907  0.5297  0.6329
  583MOL0     H76922   3.043   3.745   7.076  1.0894  0.8770  2.2124
  583MOL0     H76923   3.069   3.580   7.061 -1.0754 -1.2469 -0.1304
  583MOL0     H76924   3.201   3.657   6.874 -1.5777 -2.5642  1.2027
  583MOL0     H76925   3.315   3.619   7.003 -0.3141 -0.2647  0.8832
  583MOL0     H76926   3.284   3.885   7.044  0.4278 -1.4585  0.5548
  583MOL0     H76927   3.219   3.887   6.874 -0.9316  0.2675 -0.8579
  583MOL0     H76928   3.502   3.770   6.938 -1.4930 -3.7626 -3.5478
  583MOL0     H76929   3.425   3.795   6.787 -0.7766  1.2253 -0.7565
  583MOL0     H76930   3.486   4.004   6.991  1.6743 -2.4295  1.4321
  583MOL0     H76931   3.436   4.043   6.822  0.7308  3.1875  2.7173
  583MOL0     H76932   3.700   3.924   6.903  0.0351 -0.8777 -2.2096
  583MOL0     H76933   3.662   4.087   6.849  0.7943 -0.3157  0.4817
  583MOL0     H76934   3.619   3.841   6.662 -0.5738  1.0984 -2.2365
  583MOL0     H76935   3.586   4.001   6.630 -2.2427 -0.4558  1.0211
  583MOL0     H76936   3.827   4.062   6.655 -0.6939  1.0598  0.5194
  583MOL0     H76937   3.773   3.977   6.516  0.0340 -1.3464  0.6487
  583MOL0     H76938   2.921   3.699   7.246 -0.1463 -1.0458 -0.4268
  583MOL0     H76939   2.780   3.599   7.417 -0.7500  1.3839  0.8664
  583MOL0     H76940   2.818   3.335   7.803 -1.8726  1.3588 -3.0859
  583MOL0     H76941   2.693   3.233   7.985  2.9039 -0.4616  0.2184
  583MOL0     H76942   0.552   3.636   8.642  0.3278  0.1142 -0.4995
  583MOL0     H76943   0.348   3.519   8.682  1.1092  2.0755  0.3081
  583MOL0     H76944  -0.079   3.235   8.579  0.3751  0.3611  0.6882
  583MOL0     H76945  -0.239   3.083   8.680  0.3686  2.0601 -0.9330
  583MOL0     H76946  -0.285   2.999   8.967 -2.6800 -1.4097 -3.4823
  583MOL0     H76947  -0.169   2.905   9.054 -0.8502  0.9608 -1.1545
  583MOL0     H76948  -0.429   2.842   8.934  0.7539  1.1201  0.6367
  583MOL0     H76949  -0.311   2.715   8.885 -0.1738  1.9975 -0.5034
  583MOL0     H76950  -0.343   2.786   9.178 -2.0313  2.7623 -1.6010
  583MOL0     H76951  -0.255   2.648   9.122  0.8758  0.6009 -0.7169
  583MOL0     H76952  -0.447   2.516   9.062  1.9045  1.0320 -2.2768
  583MOL0     H76953  -0.470   2.574   9.222  1.3035  0.1920 -1.2402
  583MOL0     H76954  -0.782   2.781   9.034 -0.8792 -1.5130  1.7468
  583MOL0     H76955   0.076   2.914   8.925 -0.4445  0.9652  1.2491
  583MOL0     H76956   0.231   3.079   8.836  0.5384 -2.5549 -1.7797
  584MOL0     O76957   6.076   4.207   9.850  0.3605  0.2092  0.0747
  584MOL0     C76958   6.086   4.330   9.837 -0.4149  0.2203  0.9200
  584MOL0     O76959   5.994   4.414   9.772  0.5762  0.0948 -0.3841
  584MOL0     C76960   5.876   4.348   9.733 -0.2890  0.5519 -0.2131
  584MOL0     C76961   5.777   4.320   9.832  0.3186  0.0174  0.0402
  584MOL0     C76962   5.646   4.274   9.794 -0.5962 -0.3881 -0.7969
  584MOL0     C76963   5.629   4.245   9.652  0.0289  0.3375  0.8378
  584MOL0     O76964   5.518   4.173   9.608 -0.3667 -0.1864 -0.0156
  584MOL0     C76965   5.387   4.211   9.655  0.0562 -0.2012 -0.2862
  584MOL0     C76966   5.267   4.142   9.577 -0.4678  0.1818 -0.6029
  584MOL0     C76967   5.235   3.993   9.611 -0.9211 -0.8079 -0.2827
  584MOL0     C76968   5.115   3.954   9.511  0.4526  0.0619 -0.3356
  584MOL0     C76969   5.070   3.814   9.542 -0.6710  0.0764  0.7497
  584MOL0     C76970   5.172   3.706   9.507 -0.1408  0.0507 -0.2247
  584MOL0     C76971   5.119   3.560   9.510 -0.8845  1.1200  0.1327
  584MOL0     C76972   5.091   3.516   9.367  0.6434  0.1667  0.0504
  584MOL0     N76973   4.981   3.587   9.315  0.4387 -0.0684  1.2670
  584MOL0     C76974   4.849   3.597   9.364 -0.3823  0.2258 -0.2250
  584MOL0     C76975   4.781   3.694   9.289 -0.5624 -0.1536 -0.3531
  584MOL0     C76976   4.648   3.766   9.284 -1.0075 -0.9625  0.3164
  584MOL0     C76977   4.598   3.796   9.426 -0.3864 -1.1486  0.0306
  584MOL0     C76978   4.447   3.842   9.414 -0.6762 -0.1483  1.1031
  584MOL0     C76979   4.393   3.890   9.549 -0.2472 -0.1795 -0.1696
  584MOL0     O76980   4.270   3.961   9.545 -0.2941  0.2068  0.1212
  584MOL0     C76981   4.156   3.895   9.512 -0.1707 -0.4676  0.4361
  584MOL0     C76982   4.048   3.971   9.470 -0.0814  0.2638 -0.1930
  584MOL0     C76983   3.931   3.913   9.429  0.2857 -0.3877 -0.2727
  584MOL0     C76984   3.901   3.782   9.448 -0.0605 -0.5664  0.5884
  584MOL0     C76985   3.764   3.724   9.426 -0.5555 -0.2117  0.0609
  584MOL0     O76986   3.671   3.820   9.394  0.6003 -0.1616 -0.3021
  584MOL0     C76987   3.559   3.757   9.348 -0.3059  0.1454 -0.5392
  584MOL0     C76988   3.531   3.737   9.213 -0.9781 -0.0939  0.2026
  584MOL0     C76989   3.412   3.683   9.170 -0.6920 -0.2615 -0.2001
  584MOL0     C76990   3.319   3.650   9.262  0.4304  0.0397 -0.6592
  584MOL0     O76991   3.201   3.597   9.207 -0.0516 -0.8856  0.5750
  584MOL0     C76992   3.098   3.588   9.299  0.0588  0.3396  0.7835
  584MOL0     C76993   2.979   3.508   9.236  0.2030 -0.3463 -0.5913
  584MOL0     C76994   2.902   3.604   9.141  0.2764 -0.2939 -0.9065
  584MOL0     C76995   2.824   3.714   9.221  0.2458 -0.8690  0.4565
  584MOL0     C76996   2.706   3.771   9.142  1.0178  0.3580 -0.1392
  584MOL0     C76997   2.620   3.857   9.220 -0.4411  0.2316 -0.0189
  584MOL0     C76998   2.496   3.898   9.143  0.0294  0.2565  0.7926
  584MOL0     C76999   2.393   3.984   9.213  0.1668 -0.8186 -0.8150
  584MOL0    Cl77000   2.233   4.015   9.120  0.6725 -0.2036  0.4732
  584MOL0     C77001   3.344   3.667   9.402  0.2002 -0.5171  0.0642
  584MOL0     C77002   3.470   3.711   9.440  1.0857  0.0273 -0.2985
  584MOL0     O77003   3.745   3.602   9.436  0.0091  0.3266  0.4743
  584MOL0     C77004   4.009   3.707   9.506 -0.1602  0.7838 -0.0104
  584MOL0     C77005   4.138   3.752   9.526 -0.1168 -0.4555 -0.5259
  584MOL0     N77006   4.875   3.738   9.190 -0.0279  0.3053 -0.6509
  584MOL0     N77007   4.991   3.677   9.207  0.2489  0.3807 -0.3950
  584MOL0     C77008   5.729   4.271   9.558  0.2085  0.3265  0.3153
  584MOL0     C77009   5.852   4.329   9.598  1.0633  0.5977  0.1047
  584MOL0     C77010   6.211   4.398   9.874  0.7172 -0.4653 -0.1305
  584MOL0     C77011   6.292   4.344   9.970 -0.3581 -0.3804 -0.5231
  584MOL0     C77012   6.393   4.419  10.019 -0.5584 -0.9743  0.3706
  584MOL0     C77013   6.433   4.546   9.965  0.0776  0.0357  0.1170
  584MOL0     O77014   6.523   4.639  10.009 -0.6870  0.0668 -0.7131
  584MOL0     C77015   6.548   4.636  10.152  0.4760  0.4669  0.8369
  584MOL0     C77016   6.699   4.630  10.164 -0.0691  0.7346  1.5609
  584MOL0     C77017   6.756   4.505  10.102  0.1443  0.6171 -0.6156
  584MOL0     C77018   6.904   4.520  10.082 -0.8597 -0.1400 -1.5022
  584MOL0     C77019   6.984   4.517  10.211 -0.0223  0.1544  0.5116
  584MOL0     C77020   7.050   4.500  10.310 -0.0460 -0.9705  0.8999
  584MOL0     C77021   6.355   4.589   9.857  0.2142  1.2550 -0.8187
  584MOL0     C77022   6.246   4.518   9.810  0.1143  0.4258  0.3814
  584MOL0     H77023   5.797   4.337   9.938 -0.3834  2.0059 -0.0936
  584MOL0     H77024   5.570   4.255   9.868  1.9538  1.3040  2.5385
  584MOL0     H77025   5.387   4.320   9.653  3.3157 -0.0483  1.1664
  584MOL0     H77026   5.363   4.189   9.760 -1.5292  0.9254 -0.3734
  584MOL0     H77027   5.281   4.142   9.468  0.9042 -0.5705 -0.4581
  584MOL0     H77028   5.177   4.202   9.590 -1.3628 -1.3915  0.8700
  584MOL0     H77029   5.193   3.980   9.711 -2.5248 -0.3059 -0.8516
  584MOL0     H77030   5.326   3.936   9.589 -2.3160 -2.2898 -2.7314
  584MOL0     H77031   5.025   4.012   9.533  0.7616 -0.3814  2.4853
  584MOL0     H77032   5.145   3.970   9.407  1.5217  0.5820  0.0378
  584MOL0     H77033   4.983   3.790   9.480 -1.0889  0.5731  1.1305
  584MOL0     H77034   5.045   3.805   9.648 -1.2446 -2.2237  0.4741
  584MOL0     H77035   5.243   3.710   9.590 -1.6334 -0.7564  1.1426
  584MOL0     H77036   5.223   3.737   9.415 -0.7087  2.4445  0.2010
  584MOL0     H77037   5.204   3.500   9.544 -0.3343  1.3361 -0.8236
  584MOL0     H77038   5.027   3.559   9.568 -0.4612  0.1658  0.8005
  584MOL0     H77039   5.068   3.409   9.361 -1.9366  0.4056  2.9112
  584MOL0     H77040   5.184   3.529   9.311  1.6780  0.5432  1.7888
  584MOL0     H77041   4.794   3.538   9.437  0.1095  2.0671  1.7301
  584MOL0     H77042   4.568   3.706   9.240 -2.5701  0.0679  1.6671
  584MOL0     H77043   4.651   3.859   9.227 -3.1461 -0.5392  0.8367
  584MOL0     H77044   4.664   3.873   9.464  0.3086 -0.3509 -2.5512
  584MOL0     H77045   4.608   3.711   9.494  1.5401 -0.0168  1.2392
  584MOL0     H77046   4.450   3.921   9.338 -0.0977 -1.1894  0.0144
  584MOL0     H77047   4.388   3.758   9.377  3.0888 -1.9337 -1.3711
  584MOL0     H77048   4.465   3.957   9.598  0.5020 -2.5339  2.1974
  584MOL0     H77049   4.390   3.803   9.616 -0.1520 -0.2659 -0.2776
  584MOL0     H77050   4.060   4.077   9.452  2.5311  0.0938  0.2206
  584MOL0     H77051   3.853   3.982   9.398 -2.4232 -3.6604 -1.4089
  584MOL0     H77052   3.600   3.776   9.139 -0.9583 -0.9139 -0.2170
  584MOL0     H77053   3.386   3.674   9.065  1.8718 -0.3424 -0.9052
  584MOL0     H77054   3.062   3.684   9.337 -2.0592 -0.0256 -0.1396
  584MOL0     H77055   3.133   3.523   9.380  3.1334 -0.6518 -1.1688
  584MOL0     H77056   2.917   3.465   9.315  2.8878 -1.8573  0.8620
  584MOL0     H77057   3.015   3.429   9.170  0.2856  0.3129 -1.3566
  584MOL0     H77058   2.828   3.546   9.086 -0.9305  0.5083 -0.1839
  584MOL0     H77059   2.962   3.655   9.065  1.1406  1.0568  0.6103
  584MOL0     H77060   2.776   3.672   9.310 -1.7551  0.2146 -0.0450
  584MOL0     H77061   2.891   3.794   9.254  1.8822 -2.4943  1.1885
  584MOL0     H77062   2.651   3.688   9.097 -0.3496 -0.0527  2.1793
  584MOL0     H77063   2.759   3.838   9.073  2.0399 -0.4686 -0.1749
  584MOL0     H77064   2.681   3.946   9.240  0.2681  0.0435 -1.2290
  584MOL0     H77065   2.588   3.807   9.312  0.2756  0.0452  0.1381
  584MOL0     H77066   2.531   3.946   9.051  1.0469 -0.9754  0.5077
  584MOL0     H77067   2.442   3.809   9.109  1.2095  0.1847 -1.0298
  584MOL0     H77068   2.438   4.080   9.240 -1.2264 -0.2114 -0.6170
  584MOL0     H77069   2.368   3.925   9.301 -1.2280  1.7332  0.6031
  584MOL0     H77070   3.275   3.641   9.482  3.9192 -1.5485  3.2559
  584MOL0     H77071   3.469   3.727   9.548 -0.2501 -2.1445  0.0737
  584MOL0     H77072   3.995   3.601   9.522  1.1335  0.5083 -0.5858
  584MOL0     H77073   4.209   3.681   9.565 -1.1435 -1.3576 -0.2555
  584MOL0     H77074   5.707   4.234   9.459 -1.7508 -2.2679  1.6220
  584MOL0     H77075   5.933   4.341   9.527 -0.5374 -0.6098 -2.0554
  584MOL0     H77076   6.269   4.247  10.012 -1.5562 -0.6338 -1.6817
  584MOL0     H77077   6.458   4.377  10.095  1.1732 -3.8273 -2.4556
  584MOL0     H77078   6.501   4.552  10.203  1.4741 -2.1197 -2.1505
  584MOL0     H77079   6.506   4.726  10.197 -1.1985 -0.6847  1.6674
  584MOL0     H77080   6.739   4.709  10.100 -1.1266 -0.6608 -0.9691
  584MOL0     H77081   6.728   4.645  10.268  0.1440 -1.3900  1.8420
  584MOL0     H77082   6.702   4.485  10.009 -2.6336  1.7408  0.6339
  584MOL0     H77083   6.732   4.428  10.176  0.2754  2.5709  1.5769
  584MOL0     H77084   6.935   4.441  10.013 -0.7972 -0.2080 -1.3964
  584MOL0     H77085   6.939   4.617  10.046  0.8802  1.5191  3.7639
  584MOL0     H77086   7.114   4.476  10.392  0.3599  1.5889  1.3840
  584MOL0     H77087   6.377   4.688   9.816  1.8816  1.3080  0.1484
  584MOL0     H77088   6.192   4.561   9.726  2.3066 -1.2522 -2.0283
  585MOL0     O77089   5.751   8.100   1.776  0.6934 -0.6847  0.0823
  585MOL0     C77090   5.841   8.143   1.842 -0.2571  0.5074  0.7001
  585MOL0     O77091   5.835   8.192   1.964  0.5823  0.4982  0.1489
  585MOL0     C77092   5.721   8.226   2.023 -0.5378  0.0109 -0.6861
  585MOL0     C77093   5.601   8.277   1.966 -0.3141 -0.6532  0.5751
  585MOL0     C77094   5.492   8.319   2.043  0.1484 -0.1059 -0.0821
  585MOL0     C77095   5.500   8.303   2.186  0.2049 -0.2408  0.0688
  585MOL0     O77096   5.400   8.330   2.265  0.8412  0.3643 -0.1361
  585MOL0     C77097   5.266   8.343   2.209  0.0031 -0.4878  0.5733
  585MOL0     C77098   5.157   8.387   2.315  0.1231  0.0394 -0.3828
  585MOL0     C77099   5.024   8.318   2.289  0.4710 -0.5098  0.3758
  585MOL0     C77100   4.910   8.377   2.370  0.6073 -0.8843 -0.2746
  585MOL0     C77101   4.784   8.347   2.300  0.2948  0.7833 -0.2107
  585MOL0     C77102   4.661   8.396   2.374 -0.3319  0.8077  0.4911
  585MOL0     C77103   4.531   8.368   2.297  0.4689 -0.0848  0.2869
  585MOL0     C77104   4.417   8.414   2.392 -0.6461 -0.1845 -0.6157
  585MOL0     N77105   4.357   8.543   2.352  0.0015 -0.1955 -0.2374
  585MOL0     C77106   4.422   8.649   2.290  0.1374  0.1058  0.0088
  585MOL0     C77107   4.323   8.722   2.233  1.1611  0.8249 -0.0652
  585MOL0     C77108   4.336   8.837   2.139 -0.4630 -0.9154  0.3746
  585MOL0     C77109   4.427   8.808   2.009 -0.8263 -0.3240  0.0316
  585MOL0     C77110   4.338   8.797   1.877 -0.0130 -0.0456 -0.1741
  585MOL0     C77111   4.257   8.665   1.893  0.5710 -0.3171 -0.0722
  585MOL0     O77112   4.190   8.652   1.769 -0.0880  0.2312  0.3773
  585MOL0     C77113   4.130   8.526   1.744  0.8344 -0.3078 -0.0533
  585MOL0     C77114   4.148   8.407   1.816 -0.9872  0.7344 -0.2939
  585MOL0     C77115   4.075   8.290   1.810  0.9303 -0.3308 -0.5305
  585MOL0     C77116   3.976   8.282   1.709 -0.3668 -0.0749 -0.3219
  585MOL0     C77117   3.899   8.165   1.682  0.9318  0.0376  0.3695
  585MOL0     O77118   3.797   8.169   1.594 -0.2924 -0.0984 -1.0856
  585MOL0     C77119   3.737   8.055   1.546  0.7350 -0.1929  0.4340
  585MOL0     C77120   3.694   7.952   1.623 -0.4782  2.0625  0.4111
  585MOL0     C77121   3.647   7.833   1.570  0.3570  0.4243 -0.1195
  585MOL0     C77122   3.642   7.807   1.433 -1.1612 -0.4229 -0.0872
  585MOL0     O77123   3.597   7.691   1.378 -0.4577 -0.5644 -0.0214
  585MOL0     C77124   3.576   7.570   1.454 -0.3280 -0.7397  0.4789
  585MOL0     C77125   3.654   7.461   1.374  0.7282  0.6804 -0.1545
  585MOL0     C77126   3.765   7.401   1.458 -0.1741 -0.3561  0.2485
  585MOL0     C77127   3.721   7.313   1.571 -0.7560  0.4709 -0.2556
  585MOL0     C77128   3.855   7.269   1.638 -0.3464 -0.5926  0.2833
  585MOL0     C77129   3.843   7.204   1.769  0.2690  0.8233 -0.1246
  585MOL0     C77130   3.978   7.156   1.823  0.2206  0.9089  0.5703
  585MOL0     C77131   4.017   7.212   1.957  0.0952 -0.2517 -0.2396
  585MOL0    Cl77132   4.053   7.377   1.938  0.1240  0.0404  0.0975
  585MOL0     C77133   3.684   7.912   1.352 -0.1639  0.3175 -0.5982
  585MOL0     C77134   3.732   8.032   1.410  0.5779 -0.0043  0.4026
  585MOL0     O77135   3.932   8.066   1.743  0.4176  0.0589  0.5158
  585MOL0     C77136   3.959   8.393   1.622 -0.5507  0.0734  0.0611
  585MOL0     C77137   4.037   8.509   1.645  0.1897 -0.0427  0.1183
  585MOL0     N77138   4.199   8.670   2.272 -0.2910 -0.0896  0.4065
  585MOL0     N77139   4.227   8.568   2.357 -0.5104  0.3120  1.2981
  585MOL0     C77140   5.617   8.261   2.240  0.3086 -0.7484 -0.1996
  585MOL0     C77141   5.731   8.231   2.165 -0.1931  0.0554 -0.3161
  585MOL0     C77142   5.979   8.136   1.795  0.7719 -0.1667  0.5495
  585MOL0     C77143   6.087   8.167   1.878  0.3215  0.0728  0.3458
  585MOL0     C77144   6.222   8.148   1.835  0.4641  0.1690  0.0421
  585MOL0     C77145   6.245   8.115   1.706  0.0813  0.5828  0.1985
  585MOL0     O77146   6.369   8.111   1.652 -0.3044  0.1202  0.8681
  585MOL0     C77147   6.425   7.979   1.649  0.4205  0.5647  0.6174
  585MOL0     C77148   6.569   7.997   1.676  0.4063 -0.3631  0.1817
  585MOL0     C77149   6.589   8.064   1.806  0.6167 -0.0211 -0.6551
  585MOL0     C77150   6.731   8.060   1.866  0.8129  0.0558 -0.4915
  585MOL0     C77151   6.833   8.136   1.790 -0.2365 -0.3909  0.7248
  585MOL0     C77152   6.913   8.184   1.711  0.0356 -0.0822  0.0409
  585MOL0     C77153   6.139   8.083   1.621 -1.0027  0.5794 -0.2843
  585MOL0     C77154   6.011   8.090   1.668  0.7044  0.0120 -0.0608
  585MOL0     H77155   5.592   8.280   1.857  0.5631 -1.0264  0.4894
  585MOL0     H77156   5.400   8.348   1.994  0.4502  2.4446  0.7199
  585MOL0     H77157   5.238   8.242   2.176  0.3003 -0.9262  1.6127
  585MOL0     H77158   5.258   8.406   2.120  0.5276 -1.2018  0.0107
  585MOL0     H77159   5.131   8.491   2.298 -0.6912 -0.3440 -1.5826
  585MOL0     H77160   5.192   8.373   2.418  1.0867 -0.5026 -0.7648
  585MOL0     H77161   5.030   8.212   2.312 -0.2772 -0.7134 -0.3178
  585MOL0     H77162   5.005   8.333   2.182  3.9711 -1.8071 -0.5671
  585MOL0     H77163   4.923   8.327   2.466  1.8550 -1.3461 -0.6654
  585MOL0     H77164   4.926   8.485   2.384  2.1115 -1.1410  0.1019
  585MOL0     H77165   4.758   8.242   2.286  1.5677  0.1495  1.7440
  585MOL0     H77166   4.789   8.390   2.200 -1.2243  1.9630  0.1666
  585MOL0     H77167   4.676   8.502   2.395 -1.1959  2.1678 -4.5658
  585MOL0     H77168   4.651   8.339   2.468 -5.2203  1.2495  0.5227
  585MOL0     H77169   4.530   8.427   2.205  4.4359  0.4860  0.4489
  585MOL0     H77170   4.526   8.261   2.278 -0.7462  0.3216 -2.1330
  585MOL0     H77171   4.452   8.419   2.495 -0.4919 -3.1278 -0.4431
  585MOL0     H77172   4.338   8.342   2.371 -1.2229  1.1769 -3.6941
  585MOL0     H77173   4.529   8.659   2.273 -0.3414  1.8061 -2.5236
  585MOL0     H77174   4.387   8.923   2.184  1.1716 -2.2615  1.2096
  585MOL0     H77175   4.233   8.862   2.112 -0.8222 -1.6797  1.0026
  585MOL0     H77176   4.489   8.719   2.023  0.9233  0.7385 -0.6242
  585MOL0     H77177   4.509   8.878   1.992  0.2449 -0.8068  2.7812
  585MOL0     H77178   4.263   8.877   1.875  1.0318  0.9672 -2.9112
  585MOL0     H77179   4.391   8.789   1.782 -2.6690 -1.6879 -1.6658
  585MOL0     H77180   4.175   8.667   1.965 -0.6309  2.4452 -1.3666
  585MOL0     H77181   4.325   8.583   1.920  0.1040 -0.3130  1.2013
  585MOL0     H77182   4.219   8.408   1.897 -1.2932  3.6581  0.0362
  585MOL0     H77183   4.099   8.216   1.885 -0.0478  0.3735  0.5339
  585MOL0     H77184   3.707   7.955   1.731 -1.0046 -1.4148  0.7102
  585MOL0     H77185   3.617   7.751   1.635 -1.5256 -2.6893 -4.3929
  585MOL0     H77186   3.471   7.538   1.448 -0.2103 -1.3157  1.3550
  585MOL0     H77187   3.611   7.564   1.557 -1.2276 -3.8348  0.6990
  585MOL0     H77188   3.682   7.500   1.276  3.2032 -1.4075 -0.3860
  585MOL0     H77189   3.597   7.368   1.362  1.1702 -0.0660  2.7479
  585MOL0     H77190   3.842   7.472   1.489  3.2976 -4.0929  1.2181
  585MOL0     H77191   3.828   7.341   1.392  1.1150  1.8794 -0.6261
  585MOL0     H77192   3.657   7.371   1.638 -0.0808  2.0644 -0.9461
  585MOL0     H77193   3.668   7.225   1.533  1.0260 -0.0291 -1.7350
  585MOL0     H77194   3.913   7.362   1.648 -0.5056 -0.4390 -0.1914
  585MOL0     H77195   3.915   7.197   1.581 -0.4089  0.4257 -1.1472
  585MOL0     H77196   3.776   7.120   1.750  0.3382  1.1773 -2.2170
  585MOL0     H77197   3.790   7.276   1.832 -0.1603  0.9654 -0.6470
  585MOL0     H77198   3.962   7.049   1.839 -0.5530  0.8055 -0.7246
  585MOL0     H77199   4.052   7.159   1.743 -0.6657  0.5826 -0.2812
  585MOL0     H77200   4.106   7.155   1.986 -1.0496 -3.1806 -2.0325
  585MOL0     H77201   3.932   7.191   2.022 -1.1623 -0.0143 -1.7447
  585MOL0     H77202   3.680   7.911   1.243  1.2610  1.0177 -0.6757
  585MOL0     H77203   3.759   8.104   1.333 -0.5164 -1.0907 -1.0680
  585MOL0     H77204   3.879   8.398   1.549 -1.0140  1.2655  0.6193
  585MOL0     H77205   4.021   8.600   1.588 -1.1773 -1.1098 -1.2678
  585MOL0     H77206   5.605   8.247   2.347 -2.0510  3.0112  0.1980
  585MOL0     H77207   5.825   8.207   2.216 -1.3046 -1.3147  1.1933
  585MOL0     H77208   6.080   8.195   1.983  2.5074 -0.6303  0.7225
  585MOL0     H77209   6.301   8.180   1.903 -1.0271  2.5400  0.7812
  585MOL0     H77210   6.402   7.940   1.549 -1.1301 -0.3871  1.3070
  585MOL0     H77211   6.394   7.907   1.725 -0.1747 -0.7846 -0.8346
  585MOL0     H77212   6.635   7.909   1.673  1.1672  0.1679  0.8951
  585MOL0     H77213   6.606   8.058   1.593 -1.6340  0.4999 -0.1558
  585MOL0     H77214   6.518   8.020   1.877 -2.4703  0.7285 -3.0565
  585MOL0     H77215   6.556   8.167   1.790 -1.4259  0.4983  4.6425
  585MOL0     H77216   6.711   8.108   1.962 -2.9036  0.6418 -1.4070
  585MOL0     H77217   6.770   7.959   1.885  1.7368  0.9044  2.8482
  585MOL0     H77218   6.985   8.209   1.636 -3.2681 -1.4113 -3.9601
  585MOL0     H77219   6.166   8.070   1.517  0.9409  1.5829  0.0560
  585MOL0     H77220   5.923   8.063   1.609  0.3555  0.0593  0.4294
  586MOL0     O77221   9.311  10.849   4.027  0.0750  0.2673 -0.3061
  586MOL0     C77222   9.343  10.967   4.034 -0.4764  0.1681  0.9822
  586MOL0     O77223   9.254  11.071   4.043 -0.0585  1.0472  0.6340
  586MOL0     C77224   9.123  11.031   4.050  0.9597  0.3782 -0.8844
  586MOL0     C77225   9.070  10.988   3.928  0.1412 -1.2387 -0.4929
  586MOL0     C77226   8.928  10.974   3.921  0.0851 -0.1306  0.3381
  586MOL0     C77227   8.844  10.998   4.033  0.3060  0.2117 -1.2371
  586MOL0     O77228   8.706  10.999   4.015  0.6603  0.5644  0.0516
  586MOL0     C77229   8.620  10.978   4.128 -1.1510 -0.7515 -0.2266
  586MOL0     C77230   8.497  10.921   4.069  0.0429 -0.5051 -2.0647
  586MOL0     C77231   8.399  10.889   4.192  0.0035  1.5235  0.7809
  586MOL0     C77232   8.273  10.836   4.128  0.5350 -0.3117 -0.3167
  586MOL0     C77233   8.141  10.911   4.161  0.7919 -0.7351  0.5298
  586MOL0     C77234   8.123  11.063   4.122 -0.2020  0.0379  0.3299
  586MOL0     C77235   8.130  11.090   3.973 -0.3239  0.2455  0.1546
  586MOL0     C77236   8.109  11.242   3.953 -0.5687  0.1206 -0.2069
  586MOL0     N77237   8.198  11.328   4.029  0.0204  0.4284  0.9503
  586MOL0     C77238   8.328  11.303   4.064 -0.7586 -0.1371  0.4225
  586MOL0     C77239   8.371  11.411   4.136 -0.1997  0.2364 -0.0350
  586MOL0     C77240   8.505  11.434   4.208 -0.5465 -0.9411 -0.0349
  586MOL0     C77241   8.484  11.405   4.354 -0.7524 -0.6811 -0.4270
  586MOL0     C77242   8.506  11.248   4.380  0.0045 -0.2089  0.2445
  586MOL0     C77243   8.465  11.205   4.521 -0.6256 -0.2642  0.0464
  586MOL0     O77244   8.352  11.276   4.573  0.7679 -0.5853  0.0223
  586MOL0     C77245   8.234  11.217   4.562  1.3017 -0.0199 -1.0272
  586MOL0     C77246   8.206  11.098   4.626  0.9783 -0.5520  0.4815
  586MOL0     C77247   8.088  11.033   4.615  0.4031 -1.0583  0.0208
  586MOL0     C77248   7.993  11.078   4.525  0.7552 -0.0043 -0.0909
  586MOL0     C77249   7.854  11.022   4.517 -0.1071  0.1109  0.2783
  586MOL0     O77250   7.827  10.893   4.571 -0.6881 -0.1589  0.3967
  586MOL0     C77251   7.696  10.852   4.572 -0.2370  0.1950  0.1479
  586MOL0     C77252   7.615  10.917   4.664  0.9461 -0.6658  0.1644
  586MOL0     C77253   7.480  10.878   4.681  0.2806  0.5064 -0.5355
  586MOL0     C77254   7.428  10.786   4.595 -0.0037  1.0429 -0.1202
  586MOL0     O77255   7.294  10.749   4.603 -0.3394 -0.0208 -0.3460
  586MOL0     C77256   7.198  10.828   4.678  0.3360 -0.0881 -0.2944
  586MOL0     C77257   7.049  10.775   4.691 -0.0656  0.0917 -0.1329
  586MOL0     C77258   6.975  10.771   4.549 -0.2665  0.5464 -0.3267
  586MOL0     C77259   6.839  10.697   4.543  0.0477 -0.4593  0.0520
  586MOL0     C77260   6.759  10.752   4.420 -0.1804 -0.0714  0.2862
  586MOL0     C77261   6.616  10.699   4.394 -1.1216 -0.1147  0.4805
  586MOL0     C77262   6.629  10.554   4.351  0.3092  0.0008 -0.1870
  586MOL0     C77263   6.501  10.471   4.381 -0.0567  0.4945 -0.1114
  586MOL0    Cl77264   6.374  10.527   4.279  0.4418 -0.1113 -0.0318
  586MOL0     C77265   7.506  10.726   4.497  0.4610  0.2352 -0.1952
  586MOL0     C77266   7.634  10.769   4.473 -0.8480 -0.1501  0.5369
  586MOL0     O77267   7.778  11.078   4.443  0.1318 -0.9495  0.1506
  586MOL0     C77268   8.020  11.187   4.450 -0.7361  0.6657 -0.2644
  586MOL0     C77269   8.136  11.264   4.474 -0.2060 -0.0368 -0.0429
  586MOL0     N77270   8.267  11.502   4.130 -0.3826 -0.0582 -0.0008
  586MOL0     N77271   8.167  11.454   4.062  0.2546 -0.5833 -0.0820
  586MOL0     C77272   8.895  11.040   4.154 -1.2963 -0.5528 -0.0968
  586MOL0     C77273   9.042  11.061   4.163  0.6954  0.1089  0.5242
  586MOL0     C77274   9.486  10.993   4.043 -0.9490  0.6016 -0.5602
  586MOL0     C77275   9.579  10.917   3.974  0.2797  0.6718 -0.5246
  586MOL0     C77276   9.710  10.954   3.991  0.2047 -0.4330  0.1651
  586MOL0     C77277   9.753  11.057   4.077 -0.3393 -0.4738  0.2365
  586MOL0     O77278   9.885  11.086   4.062 -0.0817 -0.3654  0.0126
  586MOL0     C77279   9.949  11.163   4.156  0.5639  0.8332 -0.6662
  586MOL0     C77280  10.096  11.167   4.109 -0.2067 -0.2403 -0.0279
  586MOL0     C77281  10.157  11.033   4.152 -0.7486  0.6652  0.3680
  586MOL0     C77282  10.188  10.917   4.049 -0.4698 -0.4504  0.2217
  586MOL0     C77283  10.263  10.982   3.945 -0.6490  0.1003  0.6619
  586MOL0     C77284  10.313  11.034   3.840 -0.3512 -1.6845  0.1188
  586MOL0     C77285   9.659  11.136   4.147 -0.6283  0.7471 -0.6677
  586MOL0     C77286   9.527  11.100   4.132 -0.3143  0.7259  1.0701
  586MOL0     H77287   9.128  10.970   3.838 -1.7908 -2.7493 -1.5010
  586MOL0     H77288   8.888  10.935   3.828 -1.0169  4.1101 -1.1722
  586MOL0     H77289   8.610  11.073   4.181  0.0755 -1.2910  1.0244
  586MOL0     H77290   8.676  10.915   4.197 -1.0193 -1.9925 -1.4126
  586MOL0     H77291   8.524  10.827   4.020 -1.3671 -1.1560 -1.6498
  586MOL0     H77292   8.451  10.995   4.002 -2.3082  0.0338 -0.0157
  586MOL0     H77293   8.378  10.979   4.250 -1.9141  1.5236  0.1597
  586MOL0     H77294   8.441  10.815   4.259 -3.0847 -1.6374 -0.4534
  586MOL0     H77295   8.287  10.840   4.020  1.7660 -0.1871 -0.1732
  586MOL0     H77296   8.251  10.731   4.153 -0.2407 -0.2509 -0.7237
  586MOL0     H77297   8.132  10.907   4.269  0.4606 -4.3409  0.4709
  586MOL0     H77298   8.053  10.857   4.124  1.9210 -3.2126  1.2450
  586MOL0     H77299   8.203  11.123   4.166 -1.4521 -0.4822  3.6278
  586MOL0     H77300   8.028  11.099   4.162 -0.3252  0.4681 -0.3446
  586MOL0     H77301   8.233  11.080   3.937  0.5461  2.3141  1.8309
  586MOL0     H77302   8.060  11.030   3.915  0.9568 -0.0833 -1.1381
  586MOL0     H77303   8.001  11.262   3.961 -0.7913 -1.1164  0.1085
  586MOL0     H77304   8.132  11.254   3.847  2.3919 -0.9882  0.2403
  586MOL0     H77305   8.383  11.214   4.034 -0.0079 -0.4925  2.7256
  586MOL0     H77306   8.531  11.540   4.211  0.0997 -1.0791 -0.4795
  586MOL0     H77307   8.585  11.369   4.170  0.4539 -0.0446  0.4973
  586MOL0     H77308   8.390  11.444   4.393 -0.4334 -0.4193  0.0917
  586MOL0     H77309   8.561  11.445   4.421 -1.9991 -0.3783  0.8796
  586MOL0     H77310   8.432  11.196   4.318  2.2593 -1.5170 -1.5162
  586MOL0     H77311   8.605  11.217   4.347  0.2796 -1.1626  1.8275
  586MOL0     H77312   8.557  11.228   4.576 -0.1250 -1.7026 -0.1689
  586MOL0     H77313   8.449  11.097   4.529 -2.3427 -0.0630 -0.3213
  586MOL0     H77314   8.278  11.049   4.690  2.2241 -2.4350 -2.1551
  586MOL0     H77315   8.049  10.957   4.683 -6.4426  2.1357  0.5441
  586MOL0     H77316   7.665  10.984   4.733  0.4842  0.3674 -0.4667
  586MOL0     H77317   7.410  10.918   4.754  0.0309 -0.5381 -0.1836
  586MOL0     H77318   7.204  10.932   4.645  1.6153  1.4790  4.1098
  586MOL0     H77319   7.235  10.826   4.781  1.0121 -0.6615 -0.5440
  586MOL0     H77320   7.011  10.851   4.759  3.8688  1.7624  0.5143
  586MOL0     H77321   7.047  10.675   4.735 -0.4073 -0.1601 -0.7063
  586MOL0     H77322   7.039  10.718   4.479  0.7082 -1.2214  1.7567
  586MOL0     H77323   6.974  10.879   4.528  1.5505  0.3043 -1.8404
  586MOL0     H77324   6.854  10.589   4.537 -0.3003 -0.4488 -1.2993
  586MOL0     H77325   6.781  10.705   4.636 -1.2915 -3.9666 -0.3191
  586MOL0     H77326   6.815  10.733   4.327  1.2849  0.8319  0.9526
  586MOL0     H77327   6.753  10.861   4.421 -0.9903  0.0913 -3.6323
  586MOL0     H77328   6.567  10.743   4.307  0.9960 -0.0835 -0.7610
  586MOL0     H77329   6.554  10.710   4.484 -3.7856 -0.0100 -1.2581
  586MOL0     H77330   6.668  10.539   4.250  0.2636 -3.3608  0.1863
  586MOL0     H77331   6.704  10.500   4.410 -1.5441 -2.3782  0.1570
  586MOL0     H77332   6.482  10.468   4.489 -0.1562 -3.3689 -0.1092
  586MOL0     H77333   6.530  10.374   4.342  0.7592  1.2158 -1.3803
  586MOL0     H77334   7.456  10.652   4.435  1.5770  0.4099 -1.3531
  586MOL0     H77335   7.688  10.726   4.389 -1.7301 -0.4611  0.1092
  586MOL0     H77336   7.948  11.229   4.381 -1.3430  2.6408  1.4736
  586MOL0     H77337   8.161  11.360   4.428 -1.3973  1.1443  1.6487
  586MOL0     H77338   8.845  11.072   4.244 -0.9017 -2.3885  0.8209
  586MOL0     H77339   9.093  11.099   4.251  1.2125 -3.9000  2.1882
  586MOL0     H77340   9.550  10.841   3.902 -0.0053  1.2021 -0.9772
  586MOL0     H77341   9.783  10.894   3.939 -0.5595 -1.9215  0.7337
  586MOL0     H77342   9.953  11.135   4.262  1.6640 -0.9321 -1.1280
  586MOL0     H77343   9.896  11.258   4.152 -0.7929  0.0972 -0.8501
  586MOL0     H77344  10.108  11.184   4.002  1.2749 -2.4578 -0.2871
  586MOL0     H77345  10.158  11.244   4.156 -0.2670 -0.0897 -0.1956
  586MOL0     H77346  10.094  10.978   4.223  2.1174 -3.8938 -0.1820
  586MOL0     H77347  10.255  11.057   4.192  0.9510 -0.4854 -2.7727
  586MOL0     H77348  10.246  10.838   4.097 -1.0128 -0.9162  0.1281
  586MOL0     H77349  10.093  10.884   4.004 -0.1065 -0.0223 -0.8773
  586MOL0     H77350  10.357  11.090   3.760  2.0216 -2.1165  1.0275
  586MOL0     H77351   9.687  11.213   4.219 -1.0109  0.1941  0.0887
  586MOL0     H77352   9.452  11.152   4.192  0.5116  3.9821 -0.5111
  587MOL0     O77353   2.119   7.551   1.175 -0.0695  0.5732  1.0254
  587MOL0     C77354   2.067   7.498   1.277  0.2505 -0.0481  0.0394
  587MOL0     O77355   2.142   7.447   1.376 -0.1978  0.6884 -0.2373
  587MOL0     C77356   2.275   7.481   1.376 -0.1453  0.6964 -0.6185
  587MOL0     C77357   2.378   7.411   1.310 -1.6634 -0.0507  0.2078
  587MOL0     C77358   2.512   7.442   1.314  0.2629  0.4558 -0.5931
  587MOL0     C77359   2.552   7.557   1.373  0.1665 -0.2178 -0.3978
  587MOL0     O77360   2.687   7.584   1.363 -0.6177  0.3493 -0.0303
  587MOL0     C77361   2.725   7.720   1.378 -0.3615  0.5254 -0.3946
  587MOL0     C77362   2.805   7.735   1.501  0.0587 -0.0971 -0.4526
  587MOL0     C77363   2.936   7.671   1.506 -0.5779  0.4354 -0.1514
  587MOL0     C77364   3.020   7.710   1.643  0.5520 -0.0868 -0.1691
  587MOL0     C77365   3.157   7.648   1.659  0.5539 -0.0004  0.3070
  587MOL0     C77366   3.160   7.495   1.650  1.1261 -0.5866 -0.5220
  587MOL0     C77367   3.271   7.434   1.739  0.1135  0.6871  0.3146
  587MOL0     C77368   3.279   7.277   1.738  0.3761 -0.6740  0.1170
  587MOL0     N77369   3.154   7.206   1.748  0.9823 -0.6734 -0.1275
  587MOL0     C77370   3.091   7.183   1.864  1.2679  0.5503 -0.4638
  587MOL0     C77371   2.975   7.123   1.828 -1.1337  0.9304  0.0687
  587MOL0     C77372   2.862   7.098   1.915 -0.3536  1.0740 -0.1243
  587MOL0     C77373   2.719   7.152   1.885 -0.4709 -0.6912  0.4780
  587MOL0     C77374   2.722   7.302   1.845  0.5564 -0.2338 -0.1632
  587MOL0     C77375   2.581   7.351   1.808 -0.5888 -0.2516  0.1570
  587MOL0     O77376   2.488   7.349   1.916  0.4083 -0.0705 -0.1195
  587MOL0     C77377   2.354   7.370   1.895 -0.4981 -0.6563 -0.0269
  587MOL0     C77378   2.267   7.351   2.004  0.2107  0.3223 -0.7867
  587MOL0     C77379   2.128   7.351   1.988 -0.1471  0.3744  0.2154
  587MOL0     C77380   2.076   7.379   1.866  0.1164  0.2877 -1.2839
  587MOL0     C77381   1.936   7.393   1.855  0.2439 -0.0161 -0.0131
  587MOL0     O77382   1.846   7.332   1.957 -0.8771  0.5526  0.3877
  587MOL0     C77383   1.716   7.383   1.972  0.6463  0.9192  0.0568
  587MOL0     C77384   1.638   7.450   1.881 -0.3968  0.5555 -0.1998
  587MOL0     C77385   1.505   7.483   1.899 -0.5564 -0.1801  0.7130
  587MOL0     C77386   1.443   7.444   2.023 -1.0695  0.5885  0.7770
  587MOL0     O77387   1.310   7.473   2.036  0.0375  0.1808  0.2280
  587MOL0     C77388   1.243   7.404   2.134  0.5865  0.0290 -0.4023
  587MOL0     C77389   1.088   7.458   2.143 -0.2628 -0.6915 -0.3710
  587MOL0     C77390   0.992   7.338   2.159 -0.3739  0.0757  0.2648
  587MOL0     C77391   0.967   7.283   2.305 -0.1968 -0.2052  0.5880
  587MOL0     C77392   0.879   7.359   2.402 -0.1020  0.8582  0.5453
  587MOL0     C77393   0.886   7.311   2.540  0.5277 -0.1665  0.2371
  587MOL0     C77394   0.760   7.339   2.638  0.3971  0.6943 -0.1263
  587MOL0     C77395   0.692   7.464   2.605 -0.0003  0.0621 -0.3777
  587MOL0    Cl77396   0.779   7.611   2.646  0.0372 -0.2651 -0.3557
  587MOL0     C77397   1.527   7.394   2.118 -0.2143  0.4481 -0.7773
  587MOL0     C77398   1.657   7.361   2.098  0.7462 -0.7913  0.0272
  587MOL0     O77399   1.897   7.472   1.766  0.6643  0.4830  0.4069
  587MOL0     C77400   2.163   7.408   1.757 -0.2534  0.6223  0.1440
  587MOL0     C77401   2.301   7.409   1.770  0.0029 -1.1253  0.1092
  587MOL0     N77402   2.984   7.082   1.697  0.2769  0.0143 -0.2347
  587MOL0     N77403   3.092   7.134   1.652  0.4260  0.1474 -0.4870
  587MOL0     C77404   2.451   7.633   1.446 -0.5112 -0.3685  0.8362
  587MOL0     C77405   2.315   7.594   1.440  0.2307  0.4566 -0.5595
  587MOL0     C77406   1.926   7.504   1.302  0.0430 -0.7197 -1.1269
  587MOL0     C77407   1.865   7.463   1.423  1.0113  0.5929  0.2575
  587MOL0     C77408   1.724   7.469   1.442  0.0289 -0.3169 -0.3742
  587MOL0     C77409   1.640   7.521   1.345  0.6670  0.0465 -0.1418
  587MOL0     O77410   1.500   7.513   1.353 -0.3036  0.0895 -0.1300
  587MOL0     C77411   1.439   7.482   1.478  0.0644  0.8124 -0.3801
  587MOL0     C77412   1.300   7.547   1.487  0.3074 -0.5945  0.2575
  587MOL0     C77413   1.249   7.578   1.626  0.3700  0.3949  0.2313
  587MOL0     C77414   1.214   7.457   1.700 -0.4347 -0.1789 -0.4211
  587MOL0     C77415   1.091   7.393   1.658 -0.4933 -0.5595  0.5870
  587MOL0     C77416   0.986   7.342   1.631 -0.1644 -0.0930 -0.7813
  587MOL0     C77417   1.701   7.570   1.226  0.2256  0.1729  0.1869
  587MOL0     C77418   1.843   7.564   1.212 -0.0251 -1.2436 -0.0499
  587MOL0     H77419   2.361   7.317   1.257  3.9339 -0.5885 -1.2729
  587MOL0     H77420   2.595   7.387   1.270  1.6829  3.4346 -1.9516
  587MOL0     H77421   2.648   7.798   1.376 -0.3582  0.5159 -1.0434
  587MOL0     H77422   2.790   7.744   1.293  0.5065 -0.4102 -0.0097
  587MOL0     H77423   2.747   7.702   1.588  1.3129  0.2507  0.5516
  587MOL0     H77424   2.827   7.841   1.512 -3.5080  0.8366 -1.1479
  587MOL0     H77425   2.988   7.696   1.413 -0.0393 -0.4649 -0.1018
  587MOL0     H77426   2.923   7.562   1.508  2.0541 -0.0435 -2.4312
  587MOL0     H77427   3.034   7.819   1.639  2.3912 -0.1865  1.9941
  587MOL0     H77428   2.955   7.680   1.725 -0.8631 -1.0271 -1.5652
  587MOL0     H77429   3.199   7.681   1.755  1.5612 -0.5634  0.0801
  587MOL0     H77430   3.228   7.686   1.585 -0.6603  1.4984 -0.1222
  587MOL0     H77431   3.169   7.467   1.545  2.5415 -1.0161 -0.3036
  587MOL0     H77432   3.065   7.449   1.679  0.7339 -0.1097 -1.0076
  587MOL0     H77433   3.370   7.477   1.723  0.5507 -0.2642  0.3845
  587MOL0     H77434   3.243   7.457   1.842 -0.1015  0.1635  0.3800
  587MOL0     H77435   3.343   7.238   1.817 -1.1936 -0.2790  1.6570
  587MOL0     H77436   3.320   7.245   1.642 -1.7521  2.0775 -1.8717
  587MOL0     H77437   3.109   7.225   1.963 -0.1151 -3.7676  1.8819
  587MOL0     H77438   2.889   7.130   2.016 -1.1509  2.4940 -0.3306
  587MOL0     H77439   2.854   6.989   1.922 -0.7000  0.7302 -3.9092
  587MOL0     H77440   2.658   7.134   1.974  0.0621  3.5767  1.9459
  587MOL0     H77441   2.682   7.086   1.806  1.3715 -0.4876 -0.6356
  587MOL0     H77442   2.754   7.358   1.934 -2.6878  0.9977  0.3669
  587MOL0     H77443   2.780   7.315   1.753  1.2222 -0.7587  0.1693
  587MOL0     H77444   2.537   7.283   1.735 -0.7118  2.8961 -2.9077
  587MOL0     H77445   2.584   7.442   1.749 -1.5002 -0.1274  0.2893
  587MOL0     H77446   2.311   7.318   2.098  2.6500 -3.6707 -2.9939
  587MOL0     H77447   2.068   7.337   2.077 -0.3851 -1.7518 -0.2394
  587MOL0     H77448   1.669   7.479   1.781  2.1321 -4.0248 -1.0496
  587MOL0     H77449   1.446   7.538   1.827  2.0625  2.0627  0.1226
  587MOL0     H77450   1.278   7.430   2.234 -2.2574  1.5307  0.3132
  587MOL0     H77451   1.246   7.295   2.122  1.2805 -0.2229  1.7533
  587MOL0     H77452   1.064   7.514   2.052 -1.1952 -2.7521 -1.4653
  587MOL0     H77453   1.065   7.520   2.229 -1.9267 -2.2142  0.3446
  587MOL0     H77454   1.029   7.258   2.094  1.5063  1.6675 -0.7407
  587MOL0     H77455   0.899   7.378   2.118  0.3770  2.9163  1.1009
  587MOL0     H77456   0.909   7.194   2.281 -0.5043  0.1139  0.1357
  587MOL0     H77457   1.066   7.272   2.350 -0.5622 -2.8399  0.8544
  587MOL0     H77458   0.778   7.346   2.363 -0.1956  1.0454  0.7240
  587MOL0     H77459   0.915   7.462   2.408  2.5351  0.2239 -1.9835
  587MOL0     H77460   0.973   7.363   2.583  1.7232 -1.2045 -0.8453
  587MOL0     H77461   0.896   7.202   2.543 -3.0606 -0.6057  2.5012
  587MOL0     H77462   0.684   7.263   2.619  1.3522 -0.1837 -0.5702
  587MOL0     H77463   0.793   7.335   2.742  2.6971 -0.4061 -0.8197
  587MOL0     H77464   0.601   7.474   2.664  0.7712  0.4095  0.7713
  587MOL0     H77465   0.664   7.476   2.500 -0.5694 -1.0263 -0.3613
  587MOL0     H77466   1.494   7.374   2.220 -1.8671 -0.1257 -1.3928
  587MOL0     H77467   1.713   7.315   2.178 -0.1925  0.3340  1.3856
  587MOL0     H77468   2.126   7.432   1.658  0.3916 -1.6646 -0.7247
  587MOL0     H77469   2.360   7.434   1.682 -1.2664  3.0592  0.2461
  587MOL0     H77470   2.468   7.726   1.499 -0.2086 -1.3235  2.5011
  587MOL0     H77471   2.229   7.643   1.485  0.4583 -1.0405  1.6422
  587MOL0     H77472   1.916   7.410   1.502  1.1211 -1.3605 -1.0647
  587MOL0     H77473   1.674   7.422   1.527 -0.7574 -0.7681 -1.0701
  587MOL0     H77474   1.496   7.525   1.561  1.1478 -0.6043 -0.3595
  587MOL0     H77475   1.434   7.373   1.487  1.9916  0.5408 -2.0215
  587MOL0     H77476   1.309   7.641   1.433  1.2168 -0.3304  0.8483
  587MOL0     H77477   1.222   7.492   1.434 -0.4112  1.6113 -1.1113
  587MOL0     H77478   1.156   7.635   1.610  1.5622  1.6659 -3.0042
  587MOL0     H77479   1.327   7.628   1.683 -0.0667  2.8493 -1.1546
  587MOL0     H77480   1.280   7.370   1.688 -0.8414 -0.3910 -1.1932
  587MOL0     H77481   1.207   7.475   1.807 -1.1210  1.2164 -0.6809
  587MOL0     H77482   0.891   7.300   1.607 -0.5087 -0.4610  1.0814
  587MOL0     H77483   1.643   7.623   1.150  1.7950  0.7071 -0.6897
  587MOL0     H77484   1.889   7.615   1.128  0.3001 -1.1633  0.1753
  588MOL0     O77485   3.674   6.677   7.481 -0.0295 -0.0223 -0.2552
  588MOL0     C77486   3.656   6.569   7.432  1.0719 -0.3310 -0.5750
  588MOL0     O77487   3.538   6.529   7.376 -0.1653  0.1984  0.9639
  588MOL0     C77488   3.446   6.625   7.350  1.0959 -0.7733  0.4331
  588MOL0     C77489   3.449   6.770   7.328 -0.5434 -0.6871  0.4805
  588MOL0     C77490   3.334   6.852   7.296 -0.0656  0.3934  0.3349
  588MOL0     C77491   3.215   6.784   7.273 -0.0577 -0.5507  0.2351
  588MOL0     O77492   3.113   6.858   7.213  1.1807 -0.0102 -0.0268
  588MOL0     C77493   3.053   6.808   7.088 -0.2129 -0.8542 -0.4617
  588MOL0     C77494   2.922   6.886   7.057  0.1944 -0.9021 -0.1502
  588MOL0     C77495   2.865   6.867   6.912 -0.0385  0.3695  0.6280
  588MOL0     C77496   2.815   6.721   6.889 -0.7759  0.6008 -0.5794
  588MOL0     C77497   2.700   6.707   6.788  0.0181  0.0416 -0.9685
  588MOL0     C77498   2.732   6.692   6.640 -0.7348  0.4998  0.1774
  588MOL0     C77499   2.781   6.548   6.603 -0.7445  0.3488  1.0572
  588MOL0     C77500   2.805   6.519   6.457  0.5800 -0.2429 -0.7471
  588MOL0     N77501   2.837   6.374   6.432 -1.2706  0.2454  0.0195
  588MOL0     C77502   2.746   6.274   6.419 -0.7186 -0.5146 -0.1795
  588MOL0     C77503   2.815   6.175   6.361 -0.4051 -0.0752 -0.6351
  588MOL0     C77504   2.759   6.039   6.308 -0.3252 -0.0299 -0.6815
  588MOL0     C77505   2.617   6.066   6.242 -1.1455  0.1534  0.9926
  588MOL0     C77506   2.567   5.939   6.174  0.0059  0.3257  0.2479
  588MOL0     C77507   2.415   5.931   6.159  0.2630  0.3511  0.1500
  588MOL0     O77508   2.387   5.809   6.079  0.2846  0.4531 -0.6576
  588MOL0     C77509   2.253   5.782   6.043 -0.0562 -0.4872 -0.7032
  588MOL0     C77510   2.159   5.882   6.012 -0.5087  0.3666  0.0371
  588MOL0     C77511   2.028   5.862   5.965 -0.4442  0.2710 -0.9604
  588MOL0     C77512   1.984   5.730   5.955 -0.0637  0.3083  0.4328
  588MOL0     C77513   1.845   5.694   5.903 -0.4655  0.6933  0.3066
  588MOL0     O77514   1.761   5.806   5.898  0.0776 -0.1829 -0.0353
  588MOL0     C77515   1.633   5.793   5.848 -0.1277 -0.9781 -0.7278
  588MOL0     C77516   1.529   5.785   5.946 -0.1267 -0.3361  0.0093
  588MOL0     C77517   1.401   5.789   5.890 -0.4578  0.8273 -0.7241
  588MOL0     C77518   1.380   5.807   5.752  0.3651 -0.2960  0.2337
  588MOL0     O77519   1.250   5.822   5.702  0.9339  0.1843 -0.3573
  588MOL0     C77520   1.169   5.923   5.764  0.1699 -0.1638 -0.7085
  588MOL0     C77521   1.056   5.857   5.848 -0.8205  0.3706  0.8898
  588MOL0     C77522   0.945   5.947   5.900  0.2865 -0.1660  0.4348
  588MOL0     C77523   0.978   6.041   6.010  0.3469  0.3548 -0.5327
  588MOL0     C77524   0.844   6.083   6.070 -0.3225  0.2878 -0.3482
  588MOL0     C77525   0.855   6.209   6.157  0.6629 -0.0805 -0.1310
  588MOL0     C77526   0.714   6.247   6.217 -0.4786  0.7166  0.2463
  588MOL0     C77527   0.660   6.149   6.313 -0.4372  0.6232 -0.0321
  588MOL0    Cl77528   0.499   6.201   6.376  0.1464  0.3667 -0.4855
  588MOL0     C77529   1.481   5.806   5.658  0.6976  0.3244 -0.4336
  588MOL0     C77530   1.612   5.793   5.705  0.6658  0.5674  0.1579
  588MOL0     O77531   1.811   5.583   5.863  0.4568 -0.4979 -0.2331
  588MOL0     C77532   2.086   5.622   5.978 -0.1174  0.0529 -0.4210
  588MOL0     C77533   2.211   5.654   6.029 -0.4136  1.4179  0.4511
  588MOL0     N77534   2.946   6.205   6.353  1.0325  0.0927 -0.1042
  588MOL0     N77535   2.963   6.323   6.396  0.6859  0.5966  0.1814
  588MOL0     C77536   3.203   6.648   7.295  0.0706 -0.0941 -0.5662
  588MOL0     C77537   3.321   6.562   7.318 -0.2996 -0.3374 -0.0198
  588MOL0     C77538   3.758   6.471   7.444 -0.0202  0.4724 -0.4409
  588MOL0     C77539   3.731   6.331   7.401 -0.7412 -0.4959 -0.0943
  588MOL0     C77540   3.834   6.236   7.409  0.3635 -0.0900  0.0465
  588MOL0     C77541   3.959   6.264   7.466 -0.5958 -0.0206  0.1321
  588MOL0     O77542   4.053   6.166   7.453  0.4620 -0.6405 -0.6769
  588MOL0     C77543   4.152   6.185   7.554 -0.5767 -0.7002  0.1296
  588MOL0     C77544   4.217   6.047   7.566 -0.3133 -0.2536 -0.1675
  588MOL0     C77545   4.340   6.062   7.664 -0.3818 -0.9434 -0.4249
  588MOL0     C77546   4.410   5.937   7.693  0.3932  0.7325  0.6686
  588MOL0     C77547   4.548   5.967   7.728  0.1577  0.4607  0.3513
  588MOL0     C77548   4.657   5.996   7.774  0.6043  0.6907  0.8126
  588MOL0     C77549   3.978   6.392   7.509  0.7784 -0.0621 -1.2775
  588MOL0     C77550   3.886   6.494   7.508 -0.2898 -0.3604  0.8138
  588MOL0     H77551   3.543   6.824   7.326 -0.0748 -1.4855  0.7698
  588MOL0     H77552   3.339   6.958   7.276  0.0976  0.3222 -0.0047
  588MOL0     H77553   3.021   6.704   7.096  0.7110 -1.0264  2.4896
  588MOL0     H77554   3.131   6.806   7.011  1.7936  1.2949  1.3279
  588MOL0     H77555   2.945   6.993   7.056  2.6729 -1.3765  0.5624
  588MOL0     H77556   2.842   6.861   7.128 -1.6714  1.5005 -1.2488
  588MOL0     H77557   2.943   6.888   6.839  0.9819  1.6675  2.0482
  588MOL0     H77558   2.784   6.941   6.905 -0.3368  0.2059  2.1069
  588MOL0     H77559   2.902   6.666   6.852 -0.4630  0.9955 -0.4426
  588MOL0     H77560   2.777   6.681   6.984 -1.5443 -0.6139 -1.3635
  588MOL0     H77561   2.642   6.798   6.808 -0.3354 -0.7457  2.0987
  588MOL0     H77562   2.636   6.629   6.831 -0.4866  1.1062  0.2952
  588MOL0     H77563   2.810   6.763   6.609 -1.0888  0.5645 -0.5972
  588MOL0     H77564   2.639   6.722   6.591 -1.3166 -1.4978  0.0098
  588MOL0     H77565   2.872   6.531   6.661  0.9757  0.2782 -1.4888
  588MOL0     H77566   2.695   6.486   6.629 -0.7989 -0.6689 -1.2865
  588MOL0     H77567   2.873   6.587   6.404 -2.2498  1.9484 -1.8044
  588MOL0     H77568   2.710   6.530   6.403  0.4480 -2.6646 -1.1243
  588MOL0     H77569   2.640   6.280   6.441 -0.8971 -2.4703 -0.3875
  588MOL0     H77570   2.758   5.975   6.396  3.2211  1.4857  0.6591
  588MOL0     H77571   2.832   5.994   6.239  0.8958  0.1550  0.4438
  588MOL0     H77572   2.629   6.135   6.159 -4.0470  0.0759  0.4264
  588MOL0     H77573   2.542   6.108   6.309 -3.1282  1.1634 -1.6942
  588MOL0     H77574   2.597   5.932   6.070 -2.5560 -0.9524 -0.4912
  588MOL0     H77575   2.602   5.844   6.216 -0.6799 -0.0637 -0.0503
  588MOL0     H77576   2.388   6.016   6.095  0.1889 -1.3353 -2.1640
  588MOL0     H77577   2.359   5.935   6.253 -0.6412 -1.1000 -0.2880
  588MOL0     H77578   2.186   5.982   6.045  0.1797 -0.4742  2.2101
  588MOL0     H77579   1.963   5.948   5.954  0.3086  1.0840  0.5217
  588MOL0     H77580   1.555   5.797   6.050 -2.5504  1.7169  0.4658
  588MOL0     H77581   1.312   5.791   5.952 -0.8398  1.0646 -1.2814
  588MOL0     H77582   1.140   5.999   5.691  1.6335  1.6277  0.4471
  588MOL0     H77583   1.230   5.981   5.835 -1.7643  0.4709  0.5249
  588MOL0     H77584   1.097   5.821   5.943 -1.7881  1.3222  1.6891
  588MOL0     H77585   1.009   5.775   5.792 -0.5217  0.5079  0.4340
  588MOL0     H77586   0.870   5.872   5.929 -1.7032  2.0649  1.3740
  588MOL0     H77587   0.905   6.008   5.819 -2.3141 -0.2005  1.5890
  588MOL0     H77588   1.049   5.995   6.079 -0.7052 -0.4420  0.0432
  588MOL0     H77589   1.016   6.130   5.958 -0.1856  1.0791  0.2993
  588MOL0     H77590   0.789   6.005   6.124  1.2034  0.7004  1.9825
  588MOL0     H77591   0.789   6.119   5.983 -0.2517  2.2282  0.3564
  588MOL0     H77592   0.880   6.293   6.091 -0.1969  1.4770  1.4477
  588MOL0     H77593   0.926   6.204   6.240  0.6199  4.0475  0.4055
  588MOL0     H77594   0.726   6.334   6.283 -2.8446  0.6701  0.8420
  588MOL0     H77595   0.647   6.252   6.131 -0.5286  0.2527  0.2566
  588MOL0     H77596   0.737   6.128   6.388 -2.4998 -0.1119  1.9825
  588MOL0     H77597   0.654   6.056   6.255  1.5061  1.1010 -1.1086
  588MOL0     H77598   1.449   5.812   5.554 -2.6896 -0.9689  0.4003
  588MOL0     H77599   1.695   5.802   5.635 -0.5529 -2.1689 -1.7916
  588MOL0     H77600   2.058   5.519   5.960  2.5893 -1.7638  4.0569
  588MOL0     H77601   2.289   5.578   6.031 -2.9074 -1.3368 -0.2521
  588MOL0     H77602   3.115   6.591   7.269 -0.0133 -0.5612  0.6703
  588MOL0     H77603   3.306   6.454   7.316  2.6388 -0.8277 -1.2316
  588MOL0     H77604   3.634   6.293   7.370 -0.6004  0.1258 -1.3823
  588MOL0     H77605   3.829   6.132   7.380 -1.2223 -0.0666  0.1669
  588MOL0     H77606   4.104   6.222   7.645 -0.6093  0.0200 -0.1736
  588MOL0     H77607   4.224   6.263   7.530 -2.3735  0.8963 -0.3719
  588MOL0     H77608   4.141   5.975   7.599 -0.5972  0.1793  0.1275
  588MOL0     H77609   4.245   6.015   7.465 -0.4451  3.1265 -1.3892
  588MOL0     H77610   4.305   6.097   7.762  1.7546  0.7677 -0.2033
  588MOL0     H77611   4.413   6.127   7.616  0.6225 -1.2555  0.6514
  588MOL0     H77612   4.356   5.879   7.769 -0.3470  2.1285  1.2507
  588MOL0     H77613   4.404   5.885   7.597  1.6094 -0.6651  1.2951
  588MOL0     H77614   4.754   6.020   7.812 -0.4359  1.3941  3.2053
  588MOL0     H77615   4.066   6.414   7.570  0.3999  2.0197 -1.3951
  588MOL0     H77616   3.918   6.591   7.545  5.3221 -0.3198 -2.9431
  589MOL0     O77617   8.407   4.409   1.003 -0.4153 -0.0217  0.3182
  589MOL0     C77618   8.437   4.298   0.992 -0.5433 -0.4200  0.9064
  589MOL0     O77619   8.372   4.198   0.919 -0.1524 -0.4885  0.3561
  589MOL0     C77620   8.265   4.232   0.840  0.0850 -0.1351  0.1711
  589MOL0     C77621   8.293   4.275   0.712  0.5192 -0.4058 -0.3612
  589MOL0     C77622   8.201   4.322   0.625 -0.2346  0.5739  0.1917
  589MOL0     C77623   8.067   4.318   0.652 -0.2228 -0.3085  0.3093
  589MOL0     O77624   7.976   4.374   0.565  0.7840  0.1685 -0.5664
  589MOL0     C77625   8.010   4.444   0.442 -0.1347  0.1185 -0.1405
  589MOL0     C77626   7.914   4.567   0.447 -0.1571  1.2954 -0.2479
  589MOL0     C77627   7.974   4.676   0.541  0.1927  0.4213 -1.2231
  589MOL0     C77628   7.873   4.771   0.587 -0.2964 -0.3227  0.6800
  589MOL0     C77629   7.916   4.877   0.685 -0.3615 -0.7128  0.5376
  589MOL0     C77630   8.015   4.986   0.631 -0.0065 -0.0591  0.3711
  589MOL0     C77631   8.085   5.084   0.733 -0.4069  0.0783  0.2384
  589MOL0     C77632   8.110   5.224   0.673 -0.3492  0.1360 -0.5534
  589MOL0     N77633   8.160   5.328   0.766  0.2569 -0.2330  0.4052
  589MOL0     C77634   8.274   5.324   0.822  0.2505 -0.1516 -0.6781
  589MOL0     C77635   8.265   5.416   0.932  0.2019  0.4118  1.3260
  589MOL0     C77636   8.368   5.463   1.031  0.2014  0.8983  0.1929
  589MOL0     C77637   8.339   5.383   1.159 -0.7437  0.5210  0.5182
  589MOL0     C77638   8.348   5.226   1.131  0.3797 -0.2526 -0.2940
  589MOL0     C77639   8.496   5.175   1.119  0.5135  0.3868 -0.4779
  589MOL0     O77640   8.542   5.214   0.991 -0.5485  0.0531 -0.3006
  589MOL0     C77641   8.670   5.196   0.966 -0.7927 -0.1167 -0.1978
  589MOL0     C77642   8.745   5.100   1.038  0.1341 -1.0663  0.4641
  589MOL0     C77643   8.880   5.080   1.005  0.0526 -0.2468 -0.6691
  589MOL0     C77644   8.950   5.144   0.900 -0.1156 -0.5663  0.2337
  589MOL0     C77645   9.094   5.125   0.883 -0.1433 -0.0560  0.0080
  589MOL0     O77646   9.167   5.056   0.970  0.2321 -0.0713  0.1899
  589MOL0     C77647   9.291   5.002   0.949 -0.8716 -0.1944 -0.2080
  589MOL0     C77648   9.388   5.080   0.876  0.2955  0.9107 -0.9329
  589MOL0     C77649   9.521   5.031   0.881  0.1149  0.0937  0.0997
  589MOL0     C77650   9.564   4.907   0.944  0.4734 -0.4405 -0.3978
  589MOL0     O77651   9.690   4.880   0.960  0.3757 -0.1605  0.4890
  589MOL0     C77652   9.735   4.857   1.096 -0.4564 -0.2321  0.3894
  589MOL0     C77653   9.872   4.802   1.065 -0.1979  0.1940  0.1255
  589MOL0     C77654   9.965   4.785   1.188  0.3976 -0.1257  1.2227
  589MOL0     C77655  10.000   4.928   1.234 -0.2706 -0.1536 -0.4246
  589MOL0     C77656  10.102   4.925   1.352 -0.0057  0.0493 -1.0440
  589MOL0     C77657  10.239   4.890   1.306 -0.2415  0.3275 -0.0487
  589MOL0     C77658  10.301   4.990   1.211  0.0143 -0.4366 -0.8216
  589MOL0     C77659  10.454   4.968   1.193  0.2335 -0.2594  0.3496
  589MOL0    Cl77660  10.484   4.847   1.056 -0.7948 -0.0545 -0.2719
  589MOL0     C77661   9.453   4.824   0.990  0.5852  0.1965  0.8389
  589MOL0     C77662   9.323   4.873   1.000 -0.8418 -0.3168  0.3395
  589MOL0     O77663   9.130   5.165   0.771  0.0911 -0.9996  0.1536
  589MOL0     C77664   8.871   5.235   0.829  0.4701  1.1205  0.4872
  589MOL0     C77665   8.735   5.259   0.863 -0.2225  0.7373  0.3535
  589MOL0     N77666   8.139   5.475   0.922 -0.6822  0.4808 -0.0124
  589MOL0     N77667   8.085   5.426   0.818  0.0898 -0.1715  0.2043
  589MOL0     C77668   8.035   4.265   0.782  0.4538  0.2840 -0.3282
  589MOL0     C77669   8.128   4.226   0.877  0.3717 -0.2201 -0.1369
  589MOL0     C77670   8.554   4.260   1.070 -0.4685  0.0920  1.0188
  589MOL0     C77671   8.620   4.147   1.026  0.1349 -0.6776  0.0537
  589MOL0     C77672   8.737   4.109   1.087 -0.1453  0.2729  0.3147
  589MOL0     C77673   8.788   4.170   1.206  0.2057 -0.2795  0.3807
  589MOL0     O77674   8.897   4.136   1.283 -0.9764  0.2062  0.1240
  589MOL0     C77675   9.015   4.193   1.240  0.2386 -0.3986 -0.1123
  589MOL0     C77676   9.103   4.084   1.177  0.0894 -0.0621  0.3695
  589MOL0     C77677   9.253   4.119   1.210  0.0568  0.5400  0.2009
  589MOL0     C77678   9.343   4.006   1.180 -0.8921 -0.6505  0.1402
  589MOL0     C77679   9.480   4.049   1.199 -0.6505  0.9223 -0.2187
  589MOL0     C77680   9.597   4.073   1.209 -0.0704 -0.0715  0.6054
  589MOL0     C77681   8.713   4.276   1.244 -0.4936  0.5641  0.2905
  589MOL0     C77682   8.605   4.330   1.177 -0.6164 -0.2552  0.1105
  589MOL0     H77683   8.400   4.261   0.699  0.3867 -1.7976 -0.1503
  589MOL0     H77684   8.245   4.353   0.531  3.1224 -0.0071  1.4131
  589MOL0     H77685   7.989   4.382   0.355 -0.2126 -1.8922  1.2530
  589MOL0     H77686   8.116   4.471   0.428  0.1958 -0.9263  0.2613
  589MOL0     H77687   7.812   4.539   0.477 -1.1846  1.7100 -3.0848
  589MOL0     H77688   7.892   4.598   0.345  0.9465 -0.6806 -1.1189
  589MOL0     H77689   8.060   4.729   0.501  1.0126  1.9942  2.2320
  589MOL0     H77690   8.008   4.624   0.631 -1.6899  2.5988  0.9388
  589MOL0     H77691   7.836   4.820   0.496 -2.6528 -0.7162  1.3604
  589MOL0     H77692   7.786   4.721   0.628 -1.4748  0.3468 -0.8826
  589MOL0     H77693   7.967   4.843   0.775  1.5448  2.5434  0.8549
  589MOL0     H77694   7.819   4.918   0.715 -0.1329 -1.3593  2.2388
  589MOL0     H77695   7.962   5.050   0.560 -0.3424 -1.5385 -0.7653
  589MOL0     H77696   8.087   4.920   0.580 -3.2350 -2.4966 -1.4411
  589MOL0     H77697   8.036   5.089   0.830 -0.2477  2.9502  0.2402
  589MOL0     H77698   8.185   5.041   0.749  0.1811  1.6467  0.9820
  589MOL0     H77699   8.012   5.266   0.647 -1.3145 -0.8031  1.3837
  589MOL0     H77700   8.170   5.206   0.584  1.3664 -0.3327  0.6506
  589MOL0     H77701   8.365   5.273   0.792  1.8620  2.0029  0.2457
  589MOL0     H77702   8.357   5.570   1.052  0.4523  1.6148 -2.8927
  589MOL0     H77703   8.469   5.441   0.997  0.4018 -0.5102  1.5690
  589MOL0     H77704   8.233   5.401   1.182 -1.5724 -0.7416 -1.9748
  589MOL0     H77705   8.401   5.417   1.243 -2.3911 -1.5610  2.7232
  589MOL0     H77706   8.301   5.175   1.216 -0.1567  0.6162 -0.0610
  589MOL0     H77707   8.296   5.187   1.043  1.6921  2.2922 -2.3287
  589MOL0     H77708   8.494   5.070   1.147  0.8943  1.4495  4.4407
  589MOL0     H77709   8.563   5.230   1.186 -1.4526  0.6442  1.3746
  589MOL0     H77710   8.711   5.046   1.126  0.6584 -1.5213  0.3905
  589MOL0     H77711   8.942   5.008   1.058  0.6213  1.0436  0.4747
  589MOL0     H77712   9.371   5.183   0.844 -0.1365  1.0757 -0.1911
  589MOL0     H77713   9.601   5.089   0.836  1.8579 -2.7071 -0.5807
  589MOL0     H77714   9.675   4.780   1.143 -0.9571 -0.1769 -0.1530
  589MOL0     H77715   9.745   4.949   1.155  4.4597 -0.1909 -0.0596
  589MOL0     H77716   9.916   4.874   0.996 -2.6855  2.9111  1.1509
  589MOL0     H77717   9.858   4.702   1.023 -1.2825  0.4359 -0.1308
  589MOL0     H77718  10.055   4.732   1.154  1.6371  2.0769  0.8840
  589MOL0     H77719   9.917   4.722   1.264  1.9800 -2.1397  0.6523
  589MOL0     H77720  10.034   4.982   1.145  0.4194 -0.1294 -0.1529
  589MOL0     H77721   9.906   4.973   1.266 -0.3202  0.2172 -1.0595
  589MOL0     H77722  10.070   4.865   1.438  2.6150  1.8499  1.3938
  589MOL0     H77723  10.104   5.029   1.387  0.5240 -0.4000  0.3301
  589MOL0     H77724  10.228   4.790   1.263 -0.2936 -0.0224  0.7745
  589MOL0     H77725  10.292   4.877   1.401 -2.3470 -3.4604  0.7581
  589MOL0     H77726  10.249   4.986   1.115 -1.1909  0.3236 -0.2363
  589MOL0     H77727  10.280   5.089   1.254 -3.2244 -0.8309 -1.2351
  589MOL0     H77728  10.502   4.931   1.284  0.5519  0.3952  0.4519
  589MOL0     H77729  10.492   5.069   1.174 -0.2760  0.7582  3.9996
  589MOL0     H77730   9.466   4.722   1.023 -1.5219 -0.5626 -0.5259
  589MOL0     H77731   9.245   4.807   1.039 -0.0922 -1.5827 -0.2384
  589MOL0     H77732   8.909   5.287   0.742 -1.9583  0.0373 -1.3067
  589MOL0     H77733   8.682   5.333   0.803 -4.1080 -3.3895 -1.9053
  589MOL0     H77734   7.933   4.269   0.818  1.3018  2.5734  2.0820
  589MOL0     H77735   8.102   4.189   0.976  0.7134  0.6957  0.3046
  589MOL0     H77736   8.579   4.084   0.947 -0.6573  0.8314 -0.7911
  589MOL0     H77737   8.790   4.020   1.052  1.2124  1.1778 -0.0317
  589MOL0     H77738   9.057   4.236   1.331  0.6377 -1.5737  0.2855
  589MOL0     H77739   8.989   4.271   1.168 -1.5168 -0.2359  0.6535
  589MOL0     H77740   9.081   3.987   1.223  0.2096  0.6265  1.9197
  589MOL0     H77741   9.098   4.076   1.068 -1.1961 -4.1347  0.5298
  589MOL0     H77742   9.259   4.139   1.318 -2.2176 -3.1006  1.1790
  589MOL0     H77743   9.283   4.206   1.150 -0.2479  1.8356  1.8398
  589MOL0     H77744   9.321   3.914   1.235 -1.0949 -0.2558  0.7326
  589MOL0     H77745   9.332   3.991   1.072  0.5660  2.3253 -0.5051
  589MOL0     H77746   9.703   4.089   1.204 -0.3686  1.8274 -0.5777
  589MOL0     H77747   8.745   4.330   1.332  0.4203  0.9342 -0.2564
  589MOL0     H77748   8.570   4.431   1.198 -1.8179 -0.3753 -1.1610
  590MOL0     O77749   5.863   3.227   7.145  0.2477  1.1226  0.1972
  590MOL0     C77750   5.832   3.313   7.223  0.3586 -0.5719 -0.0168
  590MOL0     O77751   5.717   3.376   7.213 -0.3437  0.1477 -0.3360
  590MOL0     C77752   5.629   3.360   7.111  0.5466  1.2079 -0.8745
  590MOL0     C77753   5.520   3.273   7.132  0.4385 -0.5410 -0.0962
  590MOL0     C77754   5.421   3.261   7.037 -0.2226  0.6186 -0.8359
  590MOL0     C77755   5.428   3.328   6.913  0.2398 -0.8429  0.0327
  590MOL0     O77756   5.352   3.300   6.798 -0.0680  0.0397 -0.6262
  590MOL0     C77757   5.276   3.187   6.777  0.1736 -0.4126 -0.4866
  590MOL0     C77758   5.133   3.223   6.823 -0.4455 -0.6040  0.2600
  590MOL0     C77759   5.027   3.126   6.780  1.1226  0.0772  0.2793
  590MOL0     C77760   4.900   3.150   6.864  0.2291  0.1590  0.5098
  590MOL0     C77761   4.792   3.044   6.838  0.3968  0.6249 -0.0471
  590MOL0     C77762   4.714   3.062   6.714 -0.1290  0.4067  0.7089
  590MOL0     C77763   4.584   2.979   6.723  0.5873  0.2439 -0.6113
  590MOL0     C77764   4.490   2.991   6.612 -0.0367 -0.9134 -0.2087
  590MOL0     N77765   4.385   2.884   6.614 -0.2960 -0.0611  0.2346
  590MOL0     C77766   4.287   2.851   6.713  0.2711 -0.9117 -0.3640
  590MOL0     C77767   4.203   2.768   6.651 -0.0645 -0.7753  0.7227
  590MOL0     C77768   4.083   2.701   6.720  0.2308  0.5458  0.2272
  590MOL0     C77769   4.082   2.548   6.685 -0.5101 -0.2466  1.0514
  590MOL0     C77770   4.002   2.517   6.552  0.6366  0.0196  0.2250
  590MOL0     C77771   3.856   2.499   6.582 -1.2403 -0.6713  0.0598
  590MOL0     O77772   3.785   2.486   6.459 -0.0430 -0.5439 -0.0727
  590MOL0     C77773   3.651   2.450   6.460 -0.1874  0.4423  0.7981
  590MOL0     C77774   3.596   2.410   6.336  0.1791  0.3570 -0.0798
  590MOL0     C77775   3.463   2.367   6.325  0.5754  0.8176  0.2724
  590MOL0     C77776   3.375   2.372   6.436 -0.3723  0.2442  0.5706
  590MOL0     C77777   3.251   2.309   6.423  0.3643  0.2796 -0.5228
  590MOL0     O77778   3.238   2.214   6.323 -1.1558 -0.3335  0.3740
  590MOL0     C77779   3.112   2.164   6.293  0.1106 -0.6436  0.1233
  590MOL0     C77780   3.095   2.129   6.157 -0.2645 -1.0312 -0.4229
  590MOL0     C77781   2.977   2.070   6.119  0.1977 -0.7649 -0.1108
  590MOL0     C77782   2.885   2.024   6.217  0.0048 -1.0084  0.2973
  590MOL0     O77783   2.765   1.965   6.197 -0.5344  0.4576 -0.4796
  590MOL0     C77784   2.734   1.892   6.079 -0.8678  0.0229  0.3047
  590MOL0     C77785   2.585   1.867   6.062 -0.4903 -0.9266  0.9149
  590MOL0     C77786   2.561   1.816   5.912 -1.2555 -0.6921  0.0269
  590MOL0     C77787   2.418   1.778   5.882  0.3505  1.5715  0.0077
  590MOL0     C77788   2.391   1.625   5.907  1.2577 -0.5898 -0.6277
  590MOL0     C77789   2.253   1.563   5.857 -0.2673  0.0152  0.0048
  590MOL0     C77790   2.248   1.557   5.706  0.2863  0.3871  0.5921
  590MOL0     C77791   2.175   1.661   5.628  0.0583 -0.0427  0.1640
  590MOL0    Cl77792   1.998   1.622   5.670  0.0816  0.0244  0.0668
  590MOL0     C77793   2.908   2.049   6.353  0.5911 -0.6088  0.3024
  590MOL0     C77794   3.022   2.121   6.385 -0.4439 -0.3309 -1.1142
  590MOL0     O77795   3.162   2.337   6.509  0.5532  0.2112  0.4205
  590MOL0     C77796   3.434   2.422   6.559 -0.6578 -0.0320 -0.1551
  590MOL0     C77797   3.568   2.451   6.571  0.6487  0.5735  0.2557
  590MOL0     N77798   4.248   2.746   6.516  0.2448 -0.4361 -0.2728
  590MOL0     N77799   4.350   2.812   6.497 -0.4710  0.2355  0.0265
  590MOL0     C77800   5.528   3.426   6.896 -0.0041 -1.5091 -0.1674
  590MOL0     C77801   5.626   3.441   6.996  0.2422 -0.2201 -0.0581
  590MOL0     C77802   5.921   3.366   7.329 -0.0370 -0.6092 -0.6367
  590MOL0     C77803   6.051   3.309   7.353 -0.5571 -0.0920 -0.3854
  590MOL0     C77804   6.137   3.350   7.459 -0.3120 -0.9578 -0.2249
  590MOL0     C77805   6.106   3.463   7.528  0.3466 -0.1260 -0.6971
  590MOL0     O77806   6.199   3.493   7.634 -0.4005  0.3873  0.6659
  590MOL0     C77807   6.134   3.546   7.749  0.6141 -0.2781  0.4253
  590MOL0     C77808   6.227   3.560   7.869 -0.3238 -0.0100 -0.6207
  590MOL0     C77809   6.278   3.428   7.929  0.1002 -0.3817 -0.4255
  590MOL0     C77810   6.401   3.464   8.028  1.2966 -0.6135  0.1092
  590MOL0     C77811   6.495   3.359   8.018 -0.9730  0.1358 -0.1546
  590MOL0     C77812   6.581   3.280   8.000  0.1168  0.7318  0.4418
  590MOL0     C77813   5.979   3.524   7.509  0.1291 -0.2351 -0.6496
  590MOL0     C77814   5.887   3.484   7.406  0.0381 -0.1133  0.0127
  590MOL0     H77815   5.509   3.228   7.230  0.9076 -1.1687 -0.3261
  590MOL0     H77816   5.360   3.173   7.052  1.0718 -0.1686 -0.0507
  590MOL0     H77817   5.312   3.103   6.837 -1.9571 -0.9516  0.1332
  590MOL0     H77818   5.287   3.163   6.671  0.6336 -3.5711  0.1858
  590MOL0     H77819   5.120   3.322   6.778  0.4992 -1.4800 -2.1286
  590MOL0     H77820   5.136   3.238   6.931 -2.3321  0.1899  0.2407
  590MOL0     H77821   5.070   3.031   6.810 -0.9695 -1.1430 -0.3466
  590MOL0     H77822   5.001   3.130   6.673  2.3102 -2.2078 -0.1634
  590MOL0     H77823   4.923   3.143   6.970 -0.2893  1.6524  0.7383
  590MOL0     H77824   4.862   3.251   6.851  1.2834  0.3361 -1.7701
  590MOL0     H77825   4.723   3.044   6.923 -0.6279  5.2042 -0.6105
  590MOL0     H77826   4.848   2.951   6.842 -0.7470 -0.0699  0.0609
  590MOL0     H77827   4.768   3.020   6.628  0.2837 -0.7624  1.5165
  590MOL0     H77828   4.702   3.170   6.703  0.0574  0.7685  3.3226
  590MOL0     H77829   4.609   2.873   6.737 -0.7685 -0.0626 -0.3999
  590MOL0     H77830   4.529   3.005   6.814 -0.7315  0.5446 -1.4873
  590MOL0     H77831   4.539   2.993   6.514 -1.2174  2.4445 -0.8601
  590MOL0     H77832   4.438   3.087   6.619  2.6505  0.5353  1.1129
  590MOL0     H77833   4.284   2.890   6.815  2.5800 -2.0235  0.2033
  590MOL0     H77834   3.992   2.753   6.690 -1.2265 -1.2878  1.2271
  590MOL0     H77835   4.085   2.715   6.829  0.0046 -1.8878  0.5940
  590MOL0     H77836   4.061   2.477   6.765 -3.7364 -0.4938  0.1419
  590MOL0     H77837   4.188   2.529   6.665 -0.6580  0.8700 -1.1822
  590MOL0     H77838   4.017   2.596   6.478 -2.3715 -1.2043 -1.8770
  590MOL0     H77839   4.052   2.426   6.517  1.1813 -0.8536  2.9527
  590MOL0     H77840   3.818   2.577   6.648  0.0986 -0.2748  0.3826
  590MOL0     H77841   3.840   2.403   6.632  3.5035 -0.9168  1.5902
  590MOL0     H77842   3.647   2.427   6.241 -3.8777 -0.7658 -2.7279
  590MOL0     H77843   3.425   2.336   6.229 -2.5594 -1.9979  2.2064
  590MOL0     H77844   3.182   2.148   6.095  0.2163 -0.5392  0.3727
  590MOL0     H77845   2.965   2.077   6.011 -0.8805  0.6137  0.0654
  590MOL0     H77846   2.786   1.796   6.085  3.8150  2.2272 -0.6452
  590MOL0     H77847   2.776   1.947   5.995  1.5655  0.1286  1.4927
  590MOL0     H77848   2.543   1.968   6.061  3.0962  0.7266  1.8138
  590MOL0     H77849   2.544   1.807   6.144  1.6027 -2.1323  1.1555
  590MOL0     H77850   2.622   1.725   5.905  1.1014  0.8579 -1.0104
  590MOL0     H77851   2.602   1.880   5.833  0.2126  0.9781  2.0255
  590MOL0     H77852   2.361   1.839   5.953  1.9550  2.1201  0.8779
  590MOL0     H77853   2.399   1.801   5.776  2.2363  2.0866 -0.2448
  590MOL0     H77854   2.397   1.620   6.016  0.4712  0.3958 -0.5245
  590MOL0     H77855   2.463   1.556   5.862  0.6404 -2.0474  0.5230
  590MOL0     H77856   2.158   1.604   5.894  0.9364  1.8852  1.2289
  590MOL0     H77857   2.248   1.462   5.897 -1.0033 -0.5823 -1.5314
  590MOL0     H77858   2.351   1.550   5.668 -0.0466 -3.9333 -0.0048
  590MOL0     H77859   2.191   1.468   5.678  1.1858 -0.5128  1.5275
  590MOL0     H77860   2.203   1.643   5.524 -1.2944  0.6779 -0.3478
  590MOL0     H77861   2.211   1.759   5.660  3.2523 -0.1376 -2.6162
  590MOL0     H77862   2.842   2.017   6.434  1.0695 -3.0079 -0.1861
  590MOL0     H77863   3.048   2.139   6.490  1.3748 -3.0802 -0.9886
  590MOL0     H77864   3.367   2.428   6.644 -0.1495  4.0200  0.1847
  590MOL0     H77865   3.613   2.483   6.664  4.3131  1.5889 -1.6692
  590MOL0     H77866   5.548   3.469   6.798  0.7313  0.5240  0.8157
  590MOL0     H77867   5.707   3.513   6.983  0.5404 -0.5112  0.1682
  590MOL0     H77868   6.083   3.217   7.305  0.0338 -0.0525 -0.0761
  590MOL0     H77869   6.231   3.309   7.495  0.5139  1.6205  0.8439
  590MOL0     H77870   6.053   3.480   7.780  1.1296  0.1042  2.7658
  590MOL0     H77871   6.092   3.645   7.729  1.5211  0.1272  0.4762
  590MOL0     H77872   6.312   3.623   7.840  1.2991 -1.2671  1.1674
  590MOL0     H77873   6.170   3.608   7.948 -0.6364  1.2317 -1.5770
  590MOL0     H77874   6.306   3.365   7.844 -0.4041 -2.4687  0.8803
  590MOL0     H77875   6.198   3.379   7.985 -1.2660  2.2656  0.1094
  590MOL0     H77876   6.441   3.565   8.016 -0.2611  0.0850  0.5439
  590MOL0     H77877   6.358   3.464   8.129  0.6858  2.0359 -0.0884
  590MOL0     H77878   6.646   3.217   7.941 -1.7736  0.5310 -1.5620
  590MOL0     H77879   5.946   3.605   7.574  0.5687 -1.3736  1.0650
  590MOL0     H77880   5.790   3.532   7.402  0.0239 -0.0370  1.0741
  591MOL0     O77881   9.339   0.874   0.341  1.1336  0.3989  0.5522
  591MOL0     C77882   9.324   0.991   0.361 -0.9669 -0.1492 -0.4789
  591MOL0     O77883   9.219   1.042   0.430 -0.7499 -0.2669  0.6156
  591MOL0     C77884   9.149   0.962   0.514 -0.1027  0.2324  0.1776
  591MOL0     C77885   9.051   0.872   0.468 -0.2743 -0.5989 -0.0975
  591MOL0     C77886   8.978   0.778   0.540 -0.2769 -0.3608 -0.1837
  591MOL0     C77887   9.003   0.783   0.677  0.0002 -0.1268  0.0734
  591MOL0     O77888   8.947   0.692   0.765  0.4739 -0.7659 -0.3027
  591MOL0     C77889   8.811   0.650   0.733 -1.0713 -0.0544 -0.3262
  591MOL0     C77890   8.766   0.565   0.846  0.7165  0.5270 -0.0696
  591MOL0     C77891   8.621   0.605   0.886  1.0570 -0.4757 -0.0386
  591MOL0     C77892   8.547   0.498   0.958 -0.0953 -0.9379 -0.2087
  591MOL0     C77893   8.596   0.489   1.110  0.6005  0.2014 -0.4336
  591MOL0     C77894   8.512   0.380   1.189 -0.5967 -0.1045  0.1946
  591MOL0     C77895   8.369   0.358   1.139 -0.7984 -0.3356 -0.4736
  591MOL0     C77896   8.280   0.274   1.248 -0.7729 -0.2851  0.3109
  591MOL0     N77897   8.145   0.313   1.229 -0.3844  0.4737 -0.4623
  591MOL0     C77898   8.076   0.284   1.111 -0.0375  0.5368 -0.1262
  591MOL0     C77899   7.944   0.304   1.150  0.3599  0.4205 -0.0050
  591MOL0     C77900   7.822   0.296   1.063  0.7708  0.7395  1.2701
  591MOL0     C77901   7.840   0.203   0.940 -0.5054 -0.3209  0.2698
  591MOL0     C77902   7.732   0.225   0.834  0.1475 -0.1412 -0.2371
  591MOL0     C77903   7.579   0.233   0.880  0.2375 -0.6357 -0.8304
  591MOL0     O77904   7.483   0.212   0.773 -0.4697 -0.0993 -0.2756
  591MOL0     C77905   7.355   0.244   0.814 -0.7294 -0.0693 -0.0707
  591MOL0     C77906   7.267   0.305   0.719 -0.8397 -0.0598 -0.4007
  591MOL0     C77907   7.142   0.352   0.753  0.5745 -0.1234  0.3130
  591MOL0     C77908   7.097   0.324   0.882  0.2314 -0.9819  0.1322
  591MOL0     C77909   6.970   0.389   0.933 -0.4459  0.3155  0.3488
  591MOL0     O77910   6.931   0.506   0.881  0.1606  0.1288 -0.4710
  591MOL0     C77911   6.812   0.556   0.925  0.6855  0.9676 -0.1303
  591MOL0     C77912   6.690   0.503   0.879  0.3042  0.5171 -2.0096
  591MOL0     C77913   6.573   0.539   0.950 -0.0655  0.2715 -0.0865
  591MOL0     C77914   6.574   0.622   1.070 -0.5774 -1.0377  0.8102
  591MOL0     O77915   6.474   0.662   1.157 -1.2829  0.3516  0.0407
  591MOL0     C77916   6.349   0.595   1.151 -0.1195  0.2382 -0.2247
  591MOL0     C77917   6.351   0.454   1.213  0.2266  0.2171 -0.5951
  591MOL0     C77918   6.209   0.420   1.255  0.7092 -0.4036  1.1467
  591MOL0     C77919   6.213   0.290   1.336  0.2166 -0.2424 -0.6498
  591MOL0     C77920   6.218   0.308   1.486 -0.2699  0.4596 -0.2716
  591MOL0     C77921   6.215   0.164   1.556  0.3412  0.1268  0.4487
  591MOL0     C77922   6.211   0.180   1.706  0.5934  0.5082  0.0424
  591MOL0     C77923   6.354   0.208   1.762  0.1278 -0.0742  0.0252
  591MOL0    Cl77924   6.455   0.066   1.752  0.0585 -0.1579 -0.0239
  591MOL0     C77925   6.700   0.664   1.112 -0.5797  0.6167 -0.0978
  591MOL0     C77926   6.817   0.631   1.043 -0.0719 -0.6925  1.1611
  591MOL0     O77927   6.918   0.340   1.031  0.3478 -1.3317  0.6909
  591MOL0     C77928   7.180   0.253   0.968 -1.5066  0.4400 -0.0984
  591MOL0     C77929   7.306   0.220   0.941 -0.0263  0.3334  0.5313
  591MOL0     N77930   7.939   0.353   1.280 -0.0322  0.1629  0.2177
  591MOL0     N77931   8.056   0.354   1.326 -0.2627  0.4221  0.7746
  591MOL0     C77932   9.081   0.890   0.732 -0.0676 -0.1212  0.8008
  591MOL0     C77933   9.151   0.974   0.652  0.2918  0.8835 -0.0742
  591MOL0     C77934   9.418   1.076   0.290  0.2661  0.4185  0.5674
  591MOL0     C77935   9.523   1.033   0.206 -0.1609  0.1140 -0.1857
  591MOL0     C77936   9.598   1.116   0.121  0.6027 -1.0172 -1.0033
  591MOL0     C77937   9.573   1.256   0.128  0.4018 -0.0701  0.1240
  591MOL0     O77938   9.634   1.354   0.058 -0.2720  0.0084 -0.1299
  591MOL0     C77939   9.738   1.332  -0.045  0.8859  0.2219 -0.5567
  591MOL0     C77940   9.772   1.465  -0.110  0.0098 -1.0396  0.4763
  591MOL0     C77941   9.672   1.501  -0.224  0.0946  0.6191  1.4445
  591MOL0     C77942   9.653   1.655  -0.237  0.0242  0.1149 -0.6564
  591MOL0     C77943   9.550   1.691  -0.140  0.4548  0.3376  0.0838
  591MOL0     C77944   9.480   1.730  -0.044  1.0806 -0.4174  0.1864
  591MOL0     C77945   9.474   1.294   0.216 -0.7463 -0.9054  0.6955
  591MOL0     C77946   9.403   1.216   0.291  1.1320  0.3584 -0.8800
  591MOL0     H77947   9.032   0.872   0.361  1.5828 -0.2312 -0.4605
  591MOL0     H77948   8.921   0.716   0.471  0.4509 -0.8400 -0.3629
  591MOL0     H77949   8.812   0.599   0.637  1.2094 -0.5783 -0.0998
  591MOL0     H77950   8.756   0.745   0.726  1.6587  1.5214 -2.5551
  591MOL0     H77951   8.836   0.580   0.929  0.6903  1.7393 -0.2610
  591MOL0     H77952   8.765   0.459   0.816  2.3604  0.8638 -1.4778
  591MOL0     H77953   8.563   0.634   0.798 -3.5037  0.9357  3.0973
  591MOL0     H77954   8.620   0.698   0.943  0.4698 -0.8704  0.6125
  591MOL0     H77955   8.439   0.511   0.945  0.2307  0.1349 -2.1576
  591MOL0     H77956   8.563   0.397   0.919 -0.4930  0.0788 -3.2175
  591MOL0     H77957   8.578   0.582   1.163  2.3509  1.0971 -1.3034
  591MOL0     H77958   8.703   0.464   1.111  1.2347  2.4455  2.8184
  591MOL0     H77959   8.518   0.392   1.298  0.8060  2.9052 -0.1114
  591MOL0     H77960   8.568   0.293   1.155  1.0238  2.2887 -4.1000
  591MOL0     H77961   8.317   0.453   1.125 -0.6256 -0.1464  0.1466
  591MOL0     H77962   8.362   0.300   1.047 -1.5529 -2.2548  0.7232
  591MOL0     H77963   8.314   0.297   1.349  0.4975  0.3908 -0.2365
  591MOL0     H77964   8.292   0.168   1.223 -2.2321 -0.0516 -1.5875
  591MOL0     H77965   8.117   0.252   1.016  0.2249 -0.2038  0.2290
  591MOL0     H77966   7.796   0.399   1.037 -0.8476  0.5586  2.0623
  591MOL0     H77967   7.746   0.246   1.123  1.1432  0.4345  1.4918
  591MOL0     H77968   7.840   0.100   0.978  0.3787  0.8785  3.9030
  591MOL0     H77969   7.941   0.212   0.899  1.3107 -1.7958  3.9042
  591MOL0     H77970   7.755   0.315   0.777 -0.5066  1.2059  1.5436
  591MOL0     H77971   7.736   0.134   0.773 -0.4059 -1.7489  1.9773
  591MOL0     H77972   7.560   0.322   0.941 -2.4434 -1.2451 -0.6647
  591MOL0     H77973   7.571   0.150   0.951  2.9396 -0.0892  0.2491
  591MOL0     H77974   7.305   0.319   0.618 -1.0940 -1.7145 -0.7518
  591MOL0     H77975   7.094   0.408   0.674 -1.6117  1.4439  2.6070
  591MOL0     H77976   6.689   0.426   0.802  0.8177 -2.3556  0.6630
  591MOL0     H77977   6.475   0.505   0.919  0.3308 -0.6293 -0.3571
  591MOL0     H77978   6.301   0.582   1.054 -0.7447 -0.4421  0.1692
  591MOL0     H77979   6.285   0.665   1.206  1.1728 -0.4498  2.2870
  591MOL0     H77980   6.420   0.453   1.298 -0.3416 -0.3677 -0.1294
  591MOL0     H77981   6.390   0.373   1.151 -1.5069 -2.2078  1.2712
  591MOL0     H77982   6.138   0.412   1.172  0.7014  1.2112  0.9548
  591MOL0     H77983   6.174   0.508   1.310  1.4021 -0.0652  1.0570
  591MOL0     H77984   6.121   0.235   1.314 -0.9029  0.1654  2.4946
  591MOL0     H77985   6.290   0.217   1.311  0.0883 -0.8388  0.6140
  591MOL0     H77986   6.137   0.379   1.508 -0.9983 -0.3409 -0.2946
  591MOL0     H77987   6.313   0.352   1.517 -0.2690  2.0215 -2.2862
  591MOL0     H77988   6.299   0.100   1.526 -0.0237 -0.6976  1.1122
  591MOL0     H77989   6.133   0.103   1.518  0.0084  1.0166 -0.2776
  591MOL0     H77990   6.142   0.261   1.729  0.2355  0.0807  0.4982
  591MOL0     H77991   6.171   0.094   1.761  0.8632  0.0812 -0.4146
  591MOL0     H77992   6.337   0.245   1.864  0.0292 -0.3216  0.0996
  591MOL0     H77993   6.398   0.298   1.717 -2.2131  1.7278  1.1023
  591MOL0     H77994   6.711   0.727   1.200 -1.9666  0.2376  0.3670
  591MOL0     H77995   6.916   0.657   1.079  0.2330  1.5507 -1.0422
  591MOL0     H77996   7.154   0.238   1.072  2.1500  0.7708  1.0125
  591MOL0     H77997   7.367   0.167   1.014 -0.0838 -3.0167 -1.6407
  591MOL0     H77998   9.079   0.901   0.840 -4.3573  1.8412  0.7582
  591MOL0     H77999   9.206   1.053   0.703  2.5679 -0.9170  0.4270
  591MOL0     H78000   9.535   0.925   0.202  1.5955  0.2733  0.2602
  591MOL0     H78001   9.672   1.090   0.046 -0.4667 -0.0376 -2.4385
  591MOL0     H78002   9.710   1.254  -0.116 -0.2449 -3.1829  3.2546
  591MOL0     H78003   9.830   1.299   0.005  1.5146 -0.0844 -1.8568
  591MOL0     H78004   9.770   1.533  -0.024 -0.2835  1.6566 -1.5659
  591MOL0     H78005   9.873   1.467  -0.151 -0.4032 -2.8289 -0.7281
  591MOL0     H78006   9.575   1.456  -0.201 -1.2852  2.9793  0.6670
  591MOL0     H78007   9.714   1.467  -0.319 -1.0010 -0.6179  1.3787
  591MOL0     H78008   9.740   1.720  -0.226  1.2613 -1.5906  0.0308
  591MOL0     H78009   9.600   1.672  -0.331  1.1522 -3.4274 -2.1063
  591MOL0     H78010   9.431   1.760   0.047  1.5290 -2.7506  1.2540
  591MOL0     H78011   9.448   1.398   0.238  3.1286 -0.0577  2.1016
  591MOL0     H78012   9.331   1.260   0.359  2.3717  2.5579 -0.8936
  592MOL0     O78013   1.601   2.932   3.949  0.6850  0.3550  0.4097
  592MOL0     C78014   1.525   2.992   4.026 -0.1597  0.3940 -1.0241
  592MOL0     O78015   1.540   2.977   4.159 -0.4074 -0.2311  0.1730
  592MOL0     C78016   1.642   2.907   4.205 -0.7407 -0.1085 -0.6808
  592MOL0     C78017   1.619   2.783   4.274  0.7868  0.0823  0.4381
  592MOL0     C78018   1.721   2.701   4.317 -0.0250 -0.1461 -1.5267
  592MOL0     C78019   1.851   2.756   4.320  0.5934  0.6341  0.4411
  592MOL0     O78020   1.959   2.673   4.351 -0.2491 -0.9348  0.3104
  592MOL0     C78021   2.085   2.728   4.368  0.5255 -0.0925  0.2287
  592MOL0     C78022   2.177   2.623   4.390 -0.0822  0.4463 -0.8134
  592MOL0     C78023   2.315   2.672   4.440  0.2062 -0.1484 -1.0678
  592MOL0     C78024   2.401   2.572   4.530 -0.2053 -0.1008  0.5734
  592MOL0     C78025   2.546   2.610   4.536  0.9091  0.8196  0.3085
  592MOL0     C78026   2.575   2.724   4.627 -0.2279 -1.1594  0.2158
  592MOL0     C78027   2.716   2.788   4.612 -0.4800  0.0512  0.3947
  592MOL0     C78028   2.726   2.916   4.706  0.0401  0.1537  0.1520
  592MOL0     N78029   2.712   2.880   4.843 -0.8340  0.5163 -0.4123
  592MOL0     C78030   2.816   2.817   4.901 -1.3012  0.6135  0.0312
  592MOL0     C78031   2.776   2.791   5.033  1.4970  0.0376 -0.4241
  592MOL0     C78032   2.836   2.718   5.148 -0.2760  0.1657 -0.1016
  592MOL0     C78033   2.862   2.801   5.270 -0.0602  0.1715  0.2027
  592MOL0     C78034   2.737   2.847   5.333  0.5706 -0.4203  0.2604
  592MOL0     C78035   2.754   2.908   5.471  0.3234  0.7452  0.8288
  592MOL0     O78036   2.776   2.805   5.572 -0.7915  0.3841 -0.4064
  592MOL0     C78037   2.863   2.840   5.675  0.3647 -1.2222 -0.1809
  592MOL0     C78038   2.955   2.952   5.685  0.6893  0.6228 -0.2444
  592MOL0     C78039   3.038   2.964   5.790  0.0058 -0.5670  0.5664
  592MOL0     C78040   3.040   2.872   5.897  0.7240 -0.5597 -0.1217
  592MOL0     C78041   3.131   2.878   6.007  0.1515 -0.5829  0.8965
  592MOL0     O78042   3.234   2.959   5.988  0.7842 -0.0745  0.1088
  592MOL0     C78043   3.345   2.955   6.071  0.4311  0.1142  0.0719
  592MOL0     C78044   3.409   3.082   6.106 -0.8127 -0.3035  0.4247
  592MOL0     C78045   3.518   3.079   6.190  0.4397 -0.5089 -0.5402
  592MOL0     C78046   3.573   2.965   6.244  0.1453 -0.2012  0.2031
  592MOL0     O78047   3.678   2.981   6.328  0.2994  0.9411  0.1396
  592MOL0     C78048   3.758   2.871   6.365 -0.8963 -0.7056  0.6464
  592MOL0     C78049   3.889   2.922   6.430 -0.1789  0.1523 -0.6932
  592MOL0     C78050   3.967   3.006   6.323 -0.5049  0.2189 -0.7778
  592MOL0     C78051   4.080   3.091   6.386 -0.0892  0.0702 -0.8609
  592MOL0     C78052   4.195   3.123   6.288 -0.2267  0.5878  0.0652
  592MOL0     C78053   4.275   3.244   6.342  0.5747 -0.6783 -0.2613
  592MOL0     C78054   4.405   3.290   6.271 -0.2699 -0.1036 -0.1044
  592MOL0     C78055   4.523   3.212   6.318  0.1688 -0.9307  0.7795
  592MOL0    Cl78056   4.508   3.037   6.273  0.5110 -0.3992 -0.2168
  592MOL0     C78057   3.531   2.843   6.185  0.0926 -0.0110 -0.2467
  592MOL0     C78058   3.412   2.839   6.109 -1.1892 -0.6977  0.6288
  592MOL0     O78059   3.117   2.799   6.102 -0.0671 -0.0622  0.3693
  592MOL0     C78060   2.952   2.765   5.886  0.1955 -0.1616 -0.9097
  592MOL0     C78061   2.868   2.757   5.778 -0.5644  0.6215 -0.2038
  592MOL0     N78062   2.650   2.850   5.043 -0.2028  0.1728  0.3218
  592MOL0     N78063   2.609   2.899   4.928  0.6858  0.5837  0.3235
  592MOL0     C78064   1.873   2.877   4.251 -0.0360 -0.2425 -0.0159
  592MOL0     C78065   1.767   2.953   4.192  0.0972  0.4974  0.4499
  592MOL0     C78066   1.402   3.054   3.979  0.3206  0.8484 -0.2905
  592MOL0     C78067   1.379   3.063   3.843 -0.2906  0.2193 -0.0809
  592MOL0     C78068   1.256   3.096   3.788 -0.0076 -0.3202 -0.5445
  592MOL0     C78069   1.153   3.137   3.874 -0.1423  0.1008  0.2990
  592MOL0     O78070   1.031   3.177   3.821  0.2749 -0.4497 -0.3952
  592MOL0     C78071   1.018   3.199   3.685  0.6192 -0.3279  0.8110
  592MOL0     C78072   0.885   3.262   3.659  0.6199 -0.1631 -0.9519
  592MOL0     C78073   0.875   3.399   3.731  0.1088  0.0658  0.0317
  592MOL0     C78074   0.730   3.453   3.726  0.0200 -0.2246 -0.0041
  592MOL0     C78075   0.701   3.530   3.605  0.3995 -0.6699  0.1829
  592MOL0     C78076   0.678   3.607   3.508 -0.1230 -0.4040  0.6131
  592MOL0     C78077   1.180   3.142   4.010  0.2388  0.0796 -0.6380
  592MOL0     C78078   1.305   3.095   4.067  0.4993 -0.6454 -0.0569
  592MOL0     H78079   1.518   2.742   4.272  1.5766 -2.0664 -2.4056
  592MOL0     H78080   1.697   2.601   4.352  0.4842  0.4776  0.7624
  592MOL0     H78081   2.096   2.784   4.462  3.5855 -0.2971  0.0904
  592MOL0     H78082   2.127   2.782   4.282 -2.0337  0.4709 -0.7842
  592MOL0     H78083   2.197   2.561   4.302  4.4739  1.5133 -0.7469
  592MOL0     H78084   2.133   2.575   4.478  3.0318  2.1616  1.8901
  592MOL0     H78085   2.310   2.765   4.497 -0.3094 -2.0978  2.2970
  592MOL0     H78086   2.372   2.698   4.350  0.8700  0.4927 -0.4727
  592MOL0     H78087   2.354   2.572   4.629  0.4231  0.1827  0.8747
  592MOL0     H78088   2.397   2.473   4.485  0.9632 -0.3890  1.0923
  592MOL0     H78089   2.587   2.631   4.437 -0.0290 -2.7838 -0.9931
  592MOL0     H78090   2.601   2.525   4.576  1.3558  0.4404 -1.0675
  592MOL0     H78091   2.570   2.689   4.731 -1.9049  1.2710  1.0487
  592MOL0     H78092   2.502   2.804   4.618  1.6900  0.7614  1.0467
  592MOL0     H78093   2.795   2.716   4.634 -0.9268 -0.0863  1.6252
  592MOL0     H78094   2.732   2.807   4.505  1.1476  0.9688  0.7674
  592MOL0     H78095   2.650   2.985   4.667  0.8855 -0.0617 -2.0613
  592MOL0     H78096   2.825   2.960   4.691  2.2005 -4.4465 -0.9891
  592MOL0     H78097   2.905   2.778   4.855 -0.9590  1.0758  0.2912
  592MOL0     H78098   2.932   2.679   5.113 -0.4532  1.3432 -2.0917
  592MOL0     H78099   2.778   2.629   5.172 -2.0489  0.6126 -2.3358
  592MOL0     H78100   2.923   2.888   5.245 -1.7190  1.3888  0.1724
  592MOL0     H78101   2.919   2.744   5.344 -0.7229 -0.5992  0.1300
  592MOL0     H78102   2.689   2.925   5.273  1.7865  0.2280  0.1127
  592MOL0     H78103   2.663   2.767   5.338  1.8295 -1.6515 -0.3106
  592MOL0     H78104   2.672   2.971   5.505 -1.1434 -0.8948  0.4772
  592MOL0     H78105   2.844   2.971   5.466  3.8699 -3.4474  3.8086
  592MOL0     H78106   2.954   3.022   5.601  0.7130 -1.0544 -1.7129
  592MOL0     H78107   3.114   3.041   5.798 -0.2288  0.5065 -4.3416
  592MOL0     H78108   3.373   3.182   6.086  1.4325  0.0411 -2.8229
  592MOL0     H78109   3.561   3.172   6.226 -3.6015  0.5913  2.2443
  592MOL0     H78110   3.784   2.831   6.267  1.6314  5.7460 -1.8766
  592MOL0     H78111   3.725   2.799   6.440  0.9750 -0.3685  1.8579
  592MOL0     H78112   3.949   2.832   6.446 -0.8841 -0.4039 -1.0864
  592MOL0     H78113   3.865   2.980   6.520 -0.1870  1.1954 -1.3496
  592MOL0     H78114   3.901   3.082   6.279 -2.8280  0.1652  2.2512
  592MOL0     H78115   4.010   2.942   6.247 -0.9594 -0.8725 -0.1365
  592MOL0     H78116   4.041   3.185   6.424 -1.2150 -0.2736 -1.1090
  592MOL0     H78117   4.126   3.030   6.464 -1.9319 -1.1634 -0.6661
  592MOL0     H78118   4.150   3.142   6.190  0.2520 -1.0412 -0.4962
  592MOL0     H78119   4.253   3.032   6.269  2.3607  2.5435 -2.3473
  592MOL0     H78120   4.316   3.230   6.442  4.2294 -1.4166 -1.6830
  592MOL0     H78121   4.202   3.325   6.332 -1.4968 -2.5195 -1.0105
  592MOL0     H78122   4.391   3.289   6.163 -0.1995 -2.3154 -0.1352
  592MOL0     H78123   4.418   3.394   6.301 -1.6649  0.2913 -0.7967
  592MOL0     H78124   4.526   3.228   6.426 -3.6449 -0.8877  1.0156
  592MOL0     H78125   4.614   3.244   6.267  0.6341 -3.2742 -0.0097
  592MOL0     H78126   3.577   2.747   6.204 -1.3093 -1.3053 -2.7886
  592MOL0     H78127   3.365   2.742   6.097 -0.6358 -1.0187  1.0366
  592MOL0     H78128   2.949   2.690   5.965 -1.3703  1.1604  0.3465
  592MOL0     H78129   2.795   2.678   5.767  0.5537 -0.2188 -2.1490
  592MOL0     H78130   1.971   2.921   4.239  0.3333 -1.5704 -2.3720
  592MOL0     H78131   1.787   3.047   4.142 -2.9574  1.5583  1.0283
  592MOL0     H78132   1.460   3.049   3.772 -1.0043  0.6240 -0.9934
  592MOL0     H78133   1.240   3.093   3.681 -3.8354  0.4655 -0.1472
  592MOL0     H78134   1.025   3.103   3.633 -0.4748  1.3635 -2.8067
  592MOL0     H78135   1.099   3.263   3.649 -0.7563  1.6160  1.0145
  592MOL0     H78136   0.871   3.279   3.552 -1.3948  0.6864 -0.6098
  592MOL0     H78137   0.821   3.184   3.702  2.4299 -0.6359  1.0693
  592MOL0     H78138   0.952   3.458   3.681 -0.4238  1.0362  0.3318
  592MOL0     H78139   0.903   3.384   3.836  1.5579 -2.8185 -0.6713
  592MOL0     H78140   0.657   3.372   3.728 -2.0104  1.4614 -0.8652
  592MOL0     H78141   0.725   3.507   3.822  2.0064 -1.9785  1.1647
  592MOL0     H78142   0.670   3.662   3.417  1.0920 -1.5946 -0.2407
  592MOL0     H78143   1.102   3.175   4.079  0.9898  3.0979 -1.1001
  592MOL0     H78144   1.324   3.098   4.174 -0.5842 -1.1156  0.1627
  593MOL0     O78145   9.170   2.747   8.936 -0.9325  0.1364  0.0023
  593MOL0     C78146   9.241   2.852   8.945  0.0118 -0.2743  0.3570
  593MOL0     O78147   9.199   2.981   8.937 -0.1302  0.2417 -0.5529
  593MOL0     C78148   9.066   3.002   8.951 -0.3406  0.2127  0.6743
  593MOL0     C78149   9.021   3.072   9.069  0.1034  0.0345  0.2975
  593MOL0     C78150   8.883   3.105   9.082  0.4814  0.3365 -0.1391
  593MOL0     C78151   8.787   3.072   8.976  0.6382 -0.1673  0.5878
  593MOL0     O78152   8.657   3.110   8.969 -0.2610 -0.0371  0.6317
  593MOL0     C78153   8.593   3.145   9.094 -0.8672  0.6998  0.5492
  593MOL0     C78154   8.446   3.188   9.060 -0.6462  0.6039  0.1620
  593MOL0     C78155   8.379   3.219   9.198  0.0423  0.4108  0.3523
  593MOL0     C78156   8.222   3.246   9.200 -0.1928  0.2015  0.5248
  593MOL0     C78157   8.191   3.295   9.340 -0.1332  0.2802  0.4219
  593MOL0     C78158   8.174   3.176   9.443 -0.2580  0.5573  0.2170
  593MOL0     C78159   8.099   3.227   9.568 -0.4229  0.8020 -0.7608
  593MOL0     C78160   8.198   3.265   9.682  0.4752 -0.5102 -0.7517
  593MOL0     N78161   8.117   3.326   9.785 -0.4623 -0.0753 -0.1830
  593MOL0     C78162   8.082   3.267   9.906 -1.0538 -0.5444 -0.2109
  593MOL0     C78163   7.974   3.333   9.959 -0.0258 -0.3719  0.1957
  593MOL0     C78164   7.890   3.293  10.087 -0.0598 -0.3838 -0.3324
  593MOL0     C78165   7.807   3.412  10.145 -0.0378  0.0354  0.0041
  593MOL0     C78166   7.898   3.503  10.220 -0.2147 -1.1094 -0.4001
  593MOL0     C78167   7.823   3.627  10.280 -0.7045 -0.2926  0.1469
  593MOL0     O78168   7.737   3.591  10.388  0.8846  0.2556  0.1510
  593MOL0     C78169   7.605   3.555  10.360  0.0749 -0.6282  0.6956
  593MOL0     C78170   7.511   3.658  10.342  0.0047  0.5916  0.3438
  593MOL0     C78171   7.380   3.632  10.322 -0.4145 -1.1379 -0.1648
  593MOL0     C78172   7.336   3.501  10.324  0.1980 -0.0178  0.5247
  593MOL0     C78173   7.194   3.480  10.299  0.5594 -0.2215  0.3974
  593MOL0     O78174   7.112   3.588  10.257 -0.4204  0.2678  0.5408
  593MOL0     C78175   6.977   3.572  10.250  0.0520 -0.9276  0.5070
  593MOL0     C78176   6.903   3.468  10.174  0.3817 -0.6818  0.1626
  593MOL0     C78177   6.766   3.466  10.187 -0.6208  0.1797 -0.2962
  593MOL0     C78178   6.693   3.562  10.273 -0.3480 -0.4467  0.1348
  593MOL0     O78179   6.556   3.551  10.293 -0.4562  0.5681 -0.1488
  593MOL0     C78180   6.480   3.468  10.199  0.6945 -0.3082  0.6935
  593MOL0     C78181   6.339   3.535  10.197  0.5089 -0.7619 -0.6325
  593MOL0     C78182   6.231   3.452  10.270 -1.0869 -0.3049  0.1105
  593MOL0     C78183   6.100   3.540  10.283  0.2998  0.2392 -0.4616
  593MOL0     C78184   6.015   3.511  10.411 -0.6053 -0.8908 -0.3033
  593MOL0     C78185   5.889   3.586  10.411 -0.7862  1.1139 -0.5131
  593MOL0     C78186   5.785   3.517  10.494  0.9872 -0.0027 -0.8667
  593MOL0     C78187   5.781   3.557  10.640  0.1475 -0.4365 -0.0389
  593MOL0    Cl78188   5.732   3.733  10.632 -0.0224 -0.2129  0.2775
  593MOL0     C78189   6.772   3.650  10.343  0.0397 -0.4688 -0.4177
  593MOL0     C78190   6.910   3.655  10.331 -0.2403  0.6837  0.5957
  593MOL0     O78191   7.162   3.364  10.316 -0.5150 -0.3427  0.6070
  593MOL0     C78192   7.421   3.398  10.353 -0.3874  0.1312  0.5545
  593MOL0     C78193   7.564   3.417  10.371  0.0873  0.6115  0.4718
  593MOL0     N78194   7.954   3.433   9.868 -0.0708  0.9630 -0.6455
  593MOL0     N78195   8.031   3.430   9.766  1.1460  0.8411  0.0283
  593MOL0     C78196   8.836   2.986   8.875 -0.4676  0.5528 -0.2998
  593MOL0     C78197   8.972   2.952   8.865  0.3129  1.1042 -0.2568
  593MOL0     C78198   9.389   2.843   8.966 -0.2784 -0.9038  0.6985
  593MOL0     C78199   9.455   2.721   8.936 -0.1592 -0.6323  0.0010
  593MOL0     C78200   9.587   2.703   8.986  0.1016  0.3565  0.2891
  593MOL0     C78201   9.652   2.809   9.039 -0.2505 -0.5716 -0.2561
  593MOL0     O78202   9.785   2.784   9.081  0.0293 -0.6510 -0.0420
  593MOL0     C78203   9.874   2.895   9.107  0.5558  0.2180  0.5630
  593MOL0     C78204  10.013   2.850   9.091 -0.0928  0.4712 -1.0227
  593MOL0     C78205  10.097   2.965   9.134 -0.3993 -1.2665 -0.3918
  593MOL0     C78206  10.248   2.942   9.109 -0.3337 -0.2892  0.3623
  593MOL0     C78207  10.272   2.951   8.968  0.1593 -0.0035 -0.6284
  593MOL0     C78208  10.288   2.972   8.856 -0.9688 -0.1731  0.3668
  593MOL0     C78209   9.596   2.937   9.060 -0.2334  0.3337 -0.3199
  593MOL0     C78210   9.464   2.956   9.023 -0.1664  0.1821 -1.4168
  593MOL0     H78211   9.095   3.091   9.146  1.2402 -2.3378 -0.1231
  593MOL0     H78212   8.856   3.162   9.171 -0.9243 -0.7126  0.1530
  593MOL0     H78213   8.641   3.228   9.147 -0.4179  0.7587  0.0635
  593MOL0     H78214   8.592   3.061   9.163  2.6615  0.9521  1.1008
  593MOL0     H78215   8.391   3.106   9.011  1.8355 -1.7342  1.0466
  593MOL0     H78216   8.447   3.279   8.999 -0.7210  0.2006 -0.4537
  593MOL0     H78217   8.431   3.307   9.238 -0.0503  1.2429 -1.3136
  593MOL0     H78218   8.390   3.129   9.260 -2.0120  1.6476  2.6859
  593MOL0     H78219   8.201   3.329   9.132  0.5220  0.0293  0.0837
  593MOL0     H78220   8.170   3.155   9.170 -0.6026  0.3097  0.8997
  593MOL0     H78221   8.090   3.336   9.343  0.9989  3.4511 -0.4598
  593MOL0     H78222   8.257   3.375   9.373 -0.7358  2.1692 -2.5582
  593MOL0     H78223   8.271   3.132   9.466 -0.0558  0.0407 -1.4616
  593MOL0     H78224   8.120   3.096   9.391  0.2331  0.4834 -0.1886
  593MOL0     H78225   8.045   3.321   9.547 -1.0095  0.5984 -0.1698
  593MOL0     H78226   8.031   3.147   9.596  1.9231 -1.9244 -2.3262
  593MOL0     H78227   8.272   3.337   9.646  1.2364 -1.0203 -0.2372
  593MOL0     H78228   8.254   3.180   9.721  0.8478 -0.8778 -2.0431
  593MOL0     H78229   8.121   3.177   9.952  0.3810 -0.5690 -1.3934
  593MOL0     H78230   7.962   3.263  10.164 -3.5712 -1.6292  2.7474
  593MOL0     H78231   7.827   3.207  10.065 -1.8781  0.4404  1.4023
  593MOL0     H78232   7.738   3.374  10.220  1.8270  0.1562  1.8761
  593MOL0     H78233   7.754   3.470  10.069  1.3759  0.0434 -1.0096
  593MOL0     H78234   7.931   3.447  10.307  2.1681 -0.5795 -0.9010
  593MOL0     H78235   7.979   3.542  10.157 -0.9432  0.5783 -0.3343
  593MOL0     H78236   7.767   3.675  10.199 -1.7616  1.5925  1.8952
  593MOL0     H78237   7.896   3.697  10.321  1.0260 -2.5289  1.0991
  593MOL0     H78238   7.544   3.760  10.324 -3.0127  1.7424  0.5853
  593MOL0     H78239   7.315   3.712  10.286  0.6521 -0.2129 -0.0867
  593MOL0     H78240   6.960   3.408  10.103  1.7125  0.8951 -0.1570
  593MOL0     H78241   6.710   3.393  10.130 -3.0414  1.8676 -0.2654
  593MOL0     H78242   6.476   3.367  10.240  0.8919 -1.0101 -0.9751
  593MOL0     H78243   6.514   3.463  10.096 -0.0962 -1.2531  0.4621
  593MOL0     H78244   6.301   3.574  10.102  0.1023  0.3785 -0.0217
  593MOL0     H78245   6.345   3.625  10.259  0.1210 -1.8800  1.1005
  593MOL0     H78246   6.257   3.420  10.371 -1.6058 -0.3159  0.2468
  593MOL0     H78247   6.221   3.361  10.211  0.2891 -1.5436  1.6938
  593MOL0     H78248   6.124   3.647  10.276 -0.9893  0.5202 -0.8717
  593MOL0     H78249   6.044   3.500  10.198 -1.1117 -1.2185  1.0884
  593MOL0     H78250   6.070   3.518  10.505 -1.0096  0.8384 -0.1622
  593MOL0     H78251   5.991   3.405  10.421 -3.0850 -0.1325  4.4277
  593MOL0     H78252   5.854   3.600  10.309 -1.7229 -0.7046 -0.4932
  593MOL0     H78253   5.908   3.689  10.442  1.3220  0.7392 -0.4445
  593MOL0     H78254   5.688   3.539  10.448 -0.3544  1.4705  2.3254
  593MOL0     H78255   5.795   3.408  10.488 -2.5535 -0.4407 -0.9941
  593MOL0     H78256   5.864   3.545  10.710 -1.5871  2.1052  2.6837
  593MOL0     H78257   5.693   3.510  10.685  2.7039 -0.7650  5.4253
  593MOL0     H78258   6.732   3.724  10.411 -0.8734  1.3157 -2.7606
  593MOL0     H78259   6.965   3.725  10.393  1.4236 -0.4713  0.4820
  593MOL0     H78260   7.385   3.296  10.361  0.5417 -0.1740  1.0105
  593MOL0     H78261   7.629   3.337  10.405 -0.1240 -0.8877 -2.3637
  593MOL0     H78262   8.773   2.946   8.797  1.5189 -0.9052 -1.2455
  593MOL0     H78263   9.012   2.890   8.785  1.6282 -1.5405  2.2639
  593MOL0     H78264   9.395   2.645   8.886  0.1339 -1.0196  0.2274
  593MOL0     H78265   9.637   2.607   8.982 -1.9304 -0.7191 -0.4015
  593MOL0     H78266   9.859   2.929   9.209  0.2987 -1.6878  1.1983
  593MOL0     H78267   9.849   2.977   9.039 -0.9915 -2.4796 -2.4471
  593MOL0     H78268  10.034   2.764   9.155 -1.9504 -0.1302 -1.1802
  593MOL0     H78269  10.026   2.813   8.989 -0.4631 -0.7381 -0.6447
  593MOL0     H78270  10.072   2.971   9.240  2.3841  1.2809  0.2642
  593MOL0     H78271  10.069   3.065   9.098  2.0446 -0.8859 -1.4243
  593MOL0     H78272  10.302   3.019   9.165 -2.4555 -0.4716  2.8465
  593MOL0     H78273  10.264   2.843   9.153  0.4704  0.6685  2.3726
  593MOL0     H78274  10.292   2.994   8.751  0.8110  1.1560  0.6663
  593MOL0     H78275   9.657   3.017   9.102  0.6178 -0.0669 -0.7603
  593MOL0     H78276   9.418   3.053   9.042  0.5509  0.9685 -3.3904
  594MOL0     O78277   5.514   7.758   9.371  0.1065 -0.4461 -0.9420
  594MOL0     C78278   5.435   7.680   9.316 -0.0477  0.5993 -0.0160
  594MOL0     O78279   5.304   7.648   9.352  0.4143  0.1931  0.6518
  594MOL0     C78280   5.256   7.721   9.451  0.1067  0.6085 -0.8704
  594MOL0     C78281   5.297   7.698   9.584 -0.5508 -0.0851 -0.6657
  594MOL0     C78282   5.244   7.780   9.685 -1.0143 -0.0928  0.3689
  594MOL0     C78283   5.149   7.871   9.666 -0.5148 -0.3893  0.5455
  594MOL0     O78284   5.094   7.945   9.765 -0.1887 -0.0631 -0.2433
  594MOL0     C78285   5.174   8.057   9.803 -0.6855 -0.5094  1.4649
  594MOL0     C78286   5.086   8.159   9.871  0.0107  0.0628 -0.2570
  594MOL0     C78287   4.984   8.231   9.790  0.6809  0.1728  0.8607
  594MOL0     C78288   4.854   8.151   9.762  0.1445  0.1827 -0.1398
  594MOL0     C78289   4.748   8.229   9.688 -0.4835  0.3671  0.5144
  594MOL0     C78290   4.784   8.244   9.540 -0.3618  0.1501 -0.0885
  594MOL0     C78291   4.749   8.121   9.462 -1.1383  0.1844 -0.7269
  594MOL0     C78292   4.768   8.143   9.310  0.1509 -0.4456 -0.5984
  594MOL0     N78293   4.735   8.031   9.221  0.0647  0.2131 -0.0591
  594MOL0     C78294   4.609   7.989   9.184 -0.4638 -1.2404 -0.3258
  594MOL0     C78295   4.615   7.855   9.136  0.5968 -0.3661  0.1676
  594MOL0     C78296   4.495   7.778   9.099  0.2796  0.8956 -0.6013
  594MOL0     C78297   4.409   7.772   9.223 -0.7346 -0.2052  0.4876
  594MOL0     C78298   4.481   7.734   9.353  0.1003 -0.3490 -0.1243
  594MOL0     C78299   4.383   7.706   9.466 -0.5637 -0.4017 -0.8319
  594MOL0     O78300   4.329   7.570   9.433  0.0648 -0.2490 -0.4220
  594MOL0     C78301   4.200   7.545   9.476  0.2007  1.2751 -0.1353
  594MOL0     C78302   4.138   7.435   9.414 -0.4769  0.0557  0.5991
  594MOL0     C78303   4.018   7.380   9.453 -0.4061 -0.1181 -0.2619
  594MOL0     C78304   3.940   7.443   9.557 -0.0096 -0.6127  1.2768
  594MOL0     C78305   3.811   7.386   9.596  0.2318 -0.2441 -0.1699
  594MOL0     O78306   3.750   7.427   9.700 -0.0017 -0.2971  0.0431
  594MOL0     C78307   3.609   7.441   9.687 -0.3170  0.0877  0.2972
  594MOL0     C78308   3.544   7.491   9.570 -1.0959 -0.2016 -0.6886
  594MOL0     C78309   3.406   7.507   9.581 -0.3463 -0.4303  0.0278
  594MOL0     C78310   3.336   7.471   9.694  0.8622 -0.2091  0.6285
  594MOL0     O78311   3.196   7.489   9.697 -0.0769  0.3060 -0.4839
  594MOL0     C78312   3.125   7.370   9.647  0.1685  0.0198 -0.8978
  594MOL0     C78313   3.111   7.263   9.758  0.4227  0.0700  0.3077
  594MOL0     C78314   2.964   7.228   9.794  0.4110 -0.0597  0.1300
  594MOL0     C78315   2.911   7.137   9.681 -0.3221  0.3240  0.6863
  594MOL0     C78316   2.885   6.997   9.744 -0.7731  0.1885  0.4631
  594MOL0     C78317   2.785   6.969   9.858  0.1863 -0.1843 -0.3605
  594MOL0     C78318   2.649   7.036   9.830 -0.0273  0.4619  0.4677
  594MOL0     C78319   2.569   6.993   9.709  0.6788  0.0162  0.7135
  594MOL0    Cl78320   2.420   7.088   9.719  0.2329 -0.2183 -0.1612
  594MOL0     C78321   3.403   7.433   9.801 -0.3945  0.1189  0.4778
  594MOL0     C78322   3.544   7.428   9.809 -0.3787 -0.1331  1.2014
  594MOL0     O78323   3.772   7.302   9.519 -0.3052 -0.3176 -0.1802
  594MOL0     C78324   3.993   7.561   9.604 -0.6081 -0.2514 -1.1577
  594MOL0     C78325   4.121   7.611   9.572 -0.9114  1.2713 -0.1668
  594MOL0     N78326   4.746   7.814   9.155  0.0193  0.3496 -0.2515
  594MOL0     N78327   4.817   7.923   9.202 -0.8385 -0.9514  0.8569
  594MOL0     C78328   5.114   7.904   9.537  0.1442 -0.2117 -0.1691
  594MOL0     C78329   5.161   7.821   9.425 -0.7331 -0.5386 -1.5527
  594MOL0     C78330   5.479   7.634   9.189 -0.0996 -0.0048  0.2139
  594MOL0     C78331   5.388   7.557   9.113 -0.7332  0.7372 -0.6402
  594MOL0     C78332   5.421   7.505   8.990 -0.8145 -0.1031 -0.7781
  594MOL0     C78333   5.552   7.529   8.939  0.5320  0.0753  0.6704
  594MOL0     O78334   5.615   7.481   8.824  0.0816 -0.5379 -0.3199
  594MOL0     C78335   5.555   7.379   8.745 -0.2927  0.2640  0.1465
  594MOL0     C78336   5.664   7.308   8.675 -0.5109 -0.1247 -0.0669
  594MOL0     C78337   5.718   7.394   8.564 -0.9578  0.3058  0.3806
  594MOL0     C78338   5.814   7.328   8.469  0.1699  0.4864 -0.2685
  594MOL0     C78339   5.732   7.236   8.381 -0.9362  0.6799 -0.4219
  594MOL0     C78340   5.660   7.159   8.324  0.5919 -0.6970  0.5016
  594MOL0     C78341   5.635   7.618   9.005 -0.2100 -0.1080 -0.3454
  594MOL0     C78342   5.604   7.665   9.127 -0.1593 -0.1890 -1.0287
  594MOL0     H78343   5.373   7.623   9.602 -0.9669 -0.0662  1.4766
  594MOL0     H78344   5.274   7.762   9.788  0.2071 -0.1294  0.0182
  594MOL0     H78345   5.210   8.103   9.711 -3.0184  0.4576  0.9628
  594MOL0     H78346   5.247   8.026   9.878 -1.0531 -1.1006  1.5854
  594MOL0     H78347   5.161   8.226   9.914  0.9633 -1.4811  0.6131
  594MOL0     H78348   5.040   8.110   9.958 -2.6659  3.0154  0.1637
  594MOL0     H78349   5.033   8.272   9.701  0.2438 -0.0046  0.5325
  594MOL0     H78350   4.955   8.318   9.850 -1.6980 -1.3880  2.1399
  594MOL0     H78351   4.880   8.059   9.708 -1.5107 -0.3963 -0.0106
  594MOL0     H78352   4.808   8.127   9.858 -2.9051  1.0431 -1.2758
  594MOL0     H78353   4.752   8.331   9.727  0.5876  0.4376  0.2460
  594MOL0     H78354   4.651   8.179   9.702 -0.4185  0.4981  1.5645
  594MOL0     H78355   4.892   8.258   9.534 -0.1164 -1.5838 -0.4318
  594MOL0     H78356   4.733   8.330   9.496 -2.3288 -0.0485  1.6033
  594MOL0     H78357   4.801   8.033   9.500  1.1491  1.2784 -1.1805
  594MOL0     H78358   4.644   8.096   9.482 -0.9641 -3.5353 -3.4653
  594MOL0     H78359   4.869   8.181   9.289  0.3516 -3.0453 -5.6019
  594MOL0     H78360   4.708   8.224   9.267  1.3555  1.0942  0.4850
  594MOL0     H78361   4.525   8.056   9.194  0.7604  0.1342  1.3532
  594MOL0     H78362   4.530   7.679   9.067 -1.7702 -0.8419  2.0649
  594MOL0     H78363   4.441   7.825   9.017  1.5744 -0.0217 -2.0456
  594MOL0     H78364   4.324   7.704   9.209 -0.3378 -0.2558 -2.2562
  594MOL0     H78365   4.369   7.874   9.230  4.5857  2.2689 -0.0874
  594MOL0     H78366   4.543   7.647   9.333  1.9407  0.7141  0.7127
  594MOL0     H78367   4.549   7.815   9.381 -1.5953  0.4522  1.9536
  594MOL0     H78368   4.304   7.780   9.459  1.5031  1.8482 -1.7027
  594MOL0     H78369   4.425   7.705   9.567 -1.9000 -0.3038 -0.2630
  594MOL0     H78370   4.197   7.378   9.343  1.4088 -1.8837  3.4920
  594MOL0     H78371   3.990   7.281   9.420 -2.0806 -0.9136  3.0651
  594MOL0     H78372   3.613   7.515   9.490  0.1345  0.5491  0.5529
  594MOL0     H78373   3.361   7.563   9.499  3.1245  5.0910  1.3156
  594MOL0     H78374   3.182   7.330   9.563  2.5817  0.2890  0.5150
  594MOL0     H78375   3.023   7.400   9.621  0.5835  2.5753  0.0926
  594MOL0     H78376   3.156   7.297   9.852 -0.5097  1.2617  0.3423
  594MOL0     H78377   3.157   7.165   9.740  0.7122  0.2586  0.0195
  594MOL0     H78378   2.906   7.321   9.798 -0.8868 -0.8554  0.5053
  594MOL0     H78379   2.958   7.188   9.896  0.5947 -2.5717 -0.7783
  594MOL0     H78380   2.815   7.173   9.642  0.3435  0.4438 -0.9019
  594MOL0     H78381   2.977   7.129   9.595 -2.0152 -1.2547 -0.5551
  594MOL0     H78382   2.981   6.968   9.788 -0.0648  2.4161  0.5301
  594MOL0     H78383   2.848   6.935   9.662 -1.8271  4.2967 -2.4913
  594MOL0     H78384   2.816   7.019   9.950 -0.2956 -2.4041  1.1038
  594MOL0     H78385   2.791   6.862   9.880  0.4206 -0.1341 -0.1666
  594MOL0     H78386   2.590   7.021   9.921  0.4820 -2.0431  0.4832
  594MOL0     H78387   2.668   7.142   9.815 -0.8003  0.4292 -0.8612
  594MOL0     H78388   2.556   6.885   9.694 -2.5290  0.4603 -0.3580
  594MOL0     H78389   2.640   7.017   9.629  1.3053  0.0135  1.2570
  594MOL0     H78390   3.349   7.414   9.893 -0.7510  0.8112  0.4215
  594MOL0     H78391   3.584   7.401   9.906 -3.0787  0.6232  2.6168
  594MOL0     H78392   3.939   7.616   9.680 -2.9078 -2.1010 -1.3399
  594MOL0     H78393   4.155   7.701   9.623 -1.4999  1.4283 -0.0439
  594MOL0     H78394   5.048   7.986   9.512 -1.0946 -1.5500 -1.5199
  594MOL0     H78395   5.127   7.848   9.326  0.9956  1.7942 -1.5940
  594MOL0     H78396   5.290   7.526   9.148 -0.3348 -0.3245 -0.4305
  594MOL0     H78397   5.351   7.436   8.944 -0.5317 -1.6263  0.9353
  594MOL0     H78398   5.476   7.410   8.676  1.0385  2.9607 -0.3023
  594MOL0     H78399   5.512   7.306   8.813  0.5792 -1.3601 -0.9826
  594MOL0     H78400   5.751   7.292   8.740 -2.0592 -1.0100  1.9008
  594MOL0     H78401   5.634   7.209   8.639  0.3708 -1.3853  2.3786
  594MOL0     H78402   5.766   7.481   8.610  1.7978 -0.7635 -0.2316
  594MOL0     H78403   5.637   7.438   8.505 -1.2337 -0.7724 -0.0709
  594MOL0     H78404   5.862   7.392   8.395 -1.1540 -1.4266 -2.9415
  594MOL0     H78405   5.891   7.276   8.527  0.3261  0.9006 -0.1025
  594MOL0     H78406   5.592   7.100   8.266  0.6932  1.2924 -1.7783
  594MOL0     H78407   5.733   7.632   8.960  1.6072 -1.4483  2.8264
  594MOL0     H78408   5.683   7.714   9.182  0.9022 -2.4700 -0.4229
  595MOL0     O78409  11.134   3.617   2.086 -0.1452 -0.1994 -0.0042
  595MOL0     C78410  11.211   3.578   2.004  1.2106 -0.7297 -0.2342
  595MOL0     O78411  11.185   3.581   1.869 -0.4068 -1.2048  0.4819
  595MOL0     C78412  11.065   3.588   1.805 -0.5030 -0.4057  0.0587
  595MOL0     C78413  11.039   3.489   1.705  0.5821  0.1845  0.7890
  595MOL0     C78414  10.918   3.501   1.626 -0.6969  0.3401  0.0791
  595MOL0     C78415  10.825   3.597   1.664 -0.0807 -0.8312  0.2246
  595MOL0     O78416  10.717   3.597   1.574  0.1692  0.3314 -0.3309
  595MOL0     C78417  10.585   3.625   1.629 -0.4946 -0.6143 -0.3279
  595MOL0     C78418  10.544   3.770   1.599  0.1781  0.5765  0.3509
  595MOL0     C78419  10.409   3.815   1.633  0.2940  0.1277 -0.0154
  595MOL0     C78420  10.373   3.824   1.784  0.5100  0.2608  0.5241
  595MOL0     C78421  10.254   3.903   1.827 -0.7600  0.1369 -0.0531
  595MOL0     C78422  10.127   3.816   1.782 -0.3980 -0.7653 -0.1994
  595MOL0     C78423   9.995   3.866   1.834  0.5361  0.6494 -0.2413
  595MOL0     C78424   9.881   3.749   1.846  0.9370 -0.1200 -0.7103
  595MOL0     N78425   9.745   3.799   1.816  0.1641 -0.3380 -0.7827
  595MOL0     C78426   9.693   3.800   1.681  0.1430  0.9666 -0.6569
  595MOL0     C78427   9.601   3.895   1.677  1.3533 -0.9183  1.3774
  595MOL0     C78428   9.514   3.952   1.563  0.8124 -0.7802  0.5905
  595MOL0     C78429   9.365   3.924   1.570  0.5305  0.4560  0.4218
  595MOL0     C78430   9.335   3.777   1.548 -0.1932 -0.1384 -0.8532
  595MOL0     C78431   9.183   3.757   1.518 -0.2630 -0.6632  0.0870
  595MOL0     O78432   9.093   3.838   1.594  0.0034  0.4819  0.4125
  595MOL0     C78433   9.050   3.790   1.716  0.0766 -0.5015  0.2759
  595MOL0     C78434   9.059   3.654   1.752  0.4342 -0.5695 -0.2864
  595MOL0     C78435   8.988   3.609   1.867 -0.2362  0.3049  0.7712
  595MOL0     C78436   8.908   3.692   1.947  0.3328 -0.3043  0.1838
  595MOL0     C78437   8.839   3.646   2.071 -0.1290  0.7707 -0.1156
  595MOL0     O78438   8.802   3.740   2.169 -0.9488  0.2186  0.3815
  595MOL0     C78439   8.724   3.708   2.277 -0.0223 -0.9964  0.6832
  595MOL0     C78440   8.746   3.597   2.354 -0.3044 -0.6906  0.0320
  595MOL0     C78441   8.678   3.581   2.474  0.2828 -0.1341 -0.6405
  595MOL0     C78442   8.569   3.666   2.508 -0.5882  0.0062  0.1535
  595MOL0     O78443   8.502   3.644   2.627 -0.5380  0.1948  0.7006
  595MOL0     C78444   8.416   3.531   2.637 -0.5451  0.1996  0.5523
  595MOL0     C78445   8.270   3.570   2.636  0.3695  0.2519  0.4089
  595MOL0     C78446   8.191   3.477   2.723  0.8374  0.4182 -0.3454
  595MOL0     C78447   8.053   3.464   2.670 -0.5007  0.6540 -0.8253
  595MOL0     C78448   7.969   3.364   2.750  0.0437  0.0806  0.7555
  595MOL0     C78449   7.824   3.365   2.694 -0.6272  0.5980  1.1258
  595MOL0     C78450   7.757   3.243   2.750  0.5762  0.6030  0.0716
  595MOL0     C78451   7.606   3.224   2.709 -0.9263  0.3098 -0.6356
  595MOL0    Cl78452   7.507   3.135   2.828 -0.0634 -0.5133 -0.3155
  595MOL0     C78453   8.540   3.770   2.424 -1.0693 -0.1463 -0.0454
  595MOL0     C78454   8.623   3.803   2.317 -0.7802  0.4745 -0.1920
  595MOL0     O78455   8.800   3.525   2.078 -0.0185 -0.3340  1.0767
  595MOL0     C78456   8.917   3.826   1.909  0.1513  0.3315  0.0077
  595MOL0     C78457   8.976   3.875   1.795 -0.3092  0.0042  0.4849
  595MOL0     N78458   9.600   3.951   1.802 -0.5871  0.6811 -0.1517
  595MOL0     N78459   9.688   3.900   1.885  0.0485 -0.1736  1.7682
  595MOL0     C78460  10.846   3.676   1.775  0.7144 -0.4503  0.0089
  595MOL0     C78461  10.968   3.678   1.842  0.3971 -0.4447  0.4268
  595MOL0     C78462  11.349   3.548   2.044  0.5633 -0.2229 -0.4572
  595MOL0     C78463  11.445   3.507   1.954  0.2228 -0.1371 -0.1990
  595MOL0     C78464  11.577   3.479   1.989  0.2183  0.4450 -0.0198
  595MOL0     C78465  11.618   3.509   2.123  0.1300 -0.0911 -0.4547
  595MOL0     O78466  11.739   3.497   2.166  0.2897 -0.0745  0.2232
  595MOL0     C78467  11.838   3.446   2.085  0.3040  0.2896 -0.0374
  595MOL0     C78468  11.986   3.484   2.134  0.4132  0.1216  0.1390
  595MOL0     C78469  12.014   3.451   2.270  0.0940  0.3109 -0.0191
  595MOL0     C78470  12.175   3.457   2.297  0.7720  0.4007  0.0486
  595MOL0     C78471  12.242   3.343   2.235 -1.2083  1.5063 -0.2636
  595MOL0     C78472  12.308   3.249   2.187 -0.7083  0.0521 -1.2605
  595MOL0     C78473  11.528   3.561   2.216  0.4606 -0.2178 -0.4138
  595MOL0     C78474  11.395   3.582   2.176  0.3203  0.4836 -1.0663
  595MOL0     H78475  11.115   3.417   1.680  1.5370  0.5541  2.4666
  595MOL0     H78476  10.895   3.440   1.539 -1.7051 -0.1758  0.6875
  595MOL0     H78477  10.562   3.592   1.731 -1.7517 -0.8832 -0.6740
  595MOL0     H78478  10.521   3.565   1.564 -1.7550  1.3500 -1.0094
  595MOL0     H78479  10.550   3.784   1.490 -2.9441 -0.2617 -0.0062
  595MOL0     H78480  10.623   3.833   1.640  0.8804  1.4733 -2.1718
  595MOL0     H78481  10.335   3.747   1.589  1.2262 -0.8076 -0.1731
  595MOL0     H78482  10.398   3.909   1.580  2.1948  0.7268  0.5626
  595MOL0     H78483  10.367   3.725   1.832 -0.6514 -0.0118 -0.1632
  595MOL0     H78484  10.462   3.873   1.826 -0.5179  2.8248 -0.1516
  595MOL0     H78485  10.249   4.002   1.782 -1.3759  0.2235  0.1882
  595MOL0     H78486  10.258   3.905   1.936 -0.6360 -1.1702 -0.0145
  595MOL0     H78487  10.142   3.713   1.814 -0.2128 -0.7946 -0.3766
  595MOL0     H78488  10.116   3.820   1.673  1.4409 -4.5748 -0.6469
  595MOL0     H78489  10.007   3.905   1.935  0.6962 -1.1252  0.4549
  595MOL0     H78490   9.959   3.946   1.768 -0.7025 -0.9766 -1.6168
  595MOL0     H78491   9.882   3.716   1.950  0.3277  0.2738 -0.5697
  595MOL0     H78492   9.900   3.666   1.777  4.0469  1.2553 -1.6780
  595MOL0     H78493   9.716   3.732   1.599 -1.3203 -0.7281  0.2722
  595MOL0     H78494   9.554   3.896   1.478  1.8863  0.1215  0.4818
  595MOL0     H78495   9.536   4.058   1.549 -2.2374 -0.2995 -1.6918
  595MOL0     H78496   9.315   3.993   1.501 -0.9090  0.1656  1.1361
  595MOL0     H78497   9.339   3.934   1.676 -1.8387 -4.2112  0.5209
  595MOL0     H78498   9.384   3.740   1.457 -0.9436  1.6309 -2.0492
  595MOL0     H78499   9.366   3.714   1.631  1.9324  0.0784 -1.4226
  595MOL0     H78500   9.154   3.653   1.505 -0.7642 -0.5955  0.6345
  595MOL0     H78501   9.175   3.795   1.415 -1.6567  0.6621  0.6327
  595MOL0     H78502   9.118   3.581   1.698  1.3410 -1.4443  1.7665
  595MOL0     H78503   8.988   3.505   1.897  0.3745 -0.8476 -2.8224
  595MOL0     H78504   8.829   3.530   2.335  0.8645  0.9633 -0.9683
  595MOL0     H78505   8.714   3.493   2.528  0.5418 -0.7781 -1.8256
  595MOL0     H78506   8.450   3.490   2.733 -0.5307 -0.8743  0.1026
  595MOL0     H78507   8.434   3.460   2.555 -3.2150 -1.6550  1.4455
  595MOL0     H78508   8.232   3.597   2.537  0.8618 -1.1855 -0.2043
  595MOL0     H78509   8.267   3.666   2.687  1.1214  1.7706 -2.2098
  595MOL0     H78510   8.182   3.505   2.829 -1.5666  0.2340 -0.4405
  595MOL0     H78511   8.244   3.382   2.727 -1.3977 -0.8754 -0.0941
  595MOL0     H78512   8.008   3.564   2.666 -2.9755 -0.4144 -1.5103
  595MOL0     H78513   8.064   3.426   2.569  0.2792 -2.8996  0.4599
  595MOL0     H78514   7.957   3.402   2.852 -1.5868 -1.0366  1.0143
  595MOL0     H78515   8.014   3.265   2.755  0.5804 -0.0694 -3.4932
  595MOL0     H78516   7.831   3.359   2.585  1.5818 -0.8698  1.2845
  595MOL0     H78517   7.778   3.459   2.725 -0.5519  1.5571 -1.4285
  595MOL0     H78518   7.812   3.153   2.723  0.0366  0.0620  0.7413
  595MOL0     H78519   7.768   3.257   2.858 -1.9911 -0.3652  0.5262
  595MOL0     H78520   7.603   3.167   2.616 -0.7549 -1.6414  0.4999
  595MOL0     H78521   7.564   3.319   2.673 -0.3822  1.1772  0.9354
  595MOL0     H78522   8.456   3.834   2.450  0.9979  2.5223  0.4812
  595MOL0     H78523   8.616   3.894   2.259  1.2675  0.5023 -0.4723
  595MOL0     H78524   8.866   3.893   1.977  2.0372  2.6864 -0.8028
  595MOL0     H78525   8.959   3.979   1.771 -2.6786 -0.3858  0.2023
  595MOL0     H78526  10.770   3.749   1.802 -0.8958 -1.9935 -0.1915
  595MOL0     H78527  10.982   3.751   1.921  0.2003 -1.5498  1.5025
  595MOL0     H78528  11.415   3.479   1.853 -0.1790 -4.4188  0.9197
  595MOL0     H78529  11.651   3.433   1.924 -0.9241 -2.0732  0.3412
  595MOL0     H78530  11.830   3.491   1.986 -3.1650 -0.1948 -0.0924
  595MOL0     H78531  11.821   3.339   2.068  1.1344  0.0462  0.5924
  595MOL0     H78532  12.065   3.428   2.084  0.2554  1.3236 -1.5509
  595MOL0     H78533  11.997   3.591   2.116  0.3800  0.0424 -0.3645
  595MOL0     H78534  11.979   3.348   2.282  1.0774  0.2014  2.6104
  595MOL0     H78535  11.973   3.527   2.337  0.5334  0.8514 -0.3597
  595MOL0     H78536  12.215   3.550   2.256  2.6845  0.2898  1.5254
  595MOL0     H78537  12.191   3.458   2.405 -0.1122 -0.1426  0.1964
  595MOL0     H78538  12.349   3.160   2.143  1.6919 -0.7339  2.1599
  595MOL0     H78539  11.563   3.587   2.315  0.6417  0.8189 -0.7347
  595MOL0     H78540  11.330   3.608   2.260  0.9583  1.3663 -0.8263
  596MOL0     O78541   2.507  10.297   6.878  0.6801 -0.5574  1.0940
  596MOL0     C78542   2.608  10.362   6.905  0.0210 -0.0392 -0.6771
  596MOL0     O78543   2.608  10.488   6.947  0.0468 -0.4568  0.0699
  596MOL0     C78544   2.496  10.560   6.927 -0.4268 -0.0793 -0.2600
  596MOL0     C78545   2.413  10.579   7.041  0.5830 -0.5566  0.6355
  596MOL0     C78546   2.312  10.680   7.031 -0.5746 -1.0550  0.4082
  596MOL0     C78547   2.303  10.761   6.924 -0.1200 -0.0834 -0.1667
  596MOL0     O78548   2.231  10.874   6.936 -0.0933 -0.1696 -0.2408
  596MOL0     C78549   2.181  10.948   6.821 -0.1399 -0.0978  0.0363
  596MOL0     C78550   2.045  11.026   6.847 -0.9486  0.6383 -0.0067
  596MOL0     C78551   2.088  11.161   6.897 -0.6348 -1.0512  0.2272
  596MOL0     C78552   1.972  11.251   6.954  0.2980  0.6940  0.2108
  596MOL0     C78553   1.927  11.207   7.096  0.5547  0.5328 -0.4535
  596MOL0     C78554   1.801  11.280   7.149 -0.6531  0.0519 -1.0745
  596MOL0     C78555   1.673  11.255   7.072  0.4590  0.1789 -0.0081
  596MOL0     C78556   1.573  11.368   7.106  0.2553  0.8502 -0.3696
  596MOL0     N78557   1.464  11.394   7.005 -0.1308  0.4981  0.0590
  596MOL0     C78558   1.420  11.307   6.908 -0.2601  0.7483 -0.0193
  596MOL0     C78559   1.341  11.381   6.822 -0.1817 -0.0419  0.2576
  596MOL0     C78560   1.290  11.328   6.687  0.2543  0.2061 -0.4148
  596MOL0     C78561   1.140  11.321   6.693  0.3343 -0.4196 -0.9984
  596MOL0     C78562   1.075  11.460   6.680  0.3127 -0.0285  0.4708
  596MOL0     C78563   0.926  11.476   6.717  0.1740  0.4187 -0.2434
  596MOL0     O78564   0.834  11.387   6.637  0.1093 -0.2428  0.5760
  596MOL0     C78565   0.702  11.417   6.619  0.6494  0.4849  0.2854
  596MOL0     C78566   0.653  11.549   6.625  0.0168 -0.6308  0.3594
  596MOL0     C78567   0.515  11.575   6.600 -0.7764 -0.2676 -0.0971
  596MOL0     C78568   0.435  11.465   6.562 -0.3993  0.0887  1.0119
  596MOL0     C78569   0.290  11.493   6.522 -0.0626 -0.8456 -0.4889
  596MOL0     O78570   0.251  11.624   6.538  0.0501  0.3228 -0.2495
  596MOL0     C78571   0.118  11.659   6.512 -0.8493  0.0042 -0.7139
  596MOL0     C78572   0.001  11.585   6.521  0.6006  0.3718 -0.1041
  596MOL0     C78573  -0.123  11.647   6.506 -0.0898  1.1096 -0.4570
  596MOL0     C78574  -0.139  11.777   6.465  0.1379 -0.1210 -0.0522
  596MOL0     O78575  -0.258  11.840   6.443  0.4672  0.0926  0.2870
  596MOL0     C78576  -0.357  11.806   6.545 -0.3190 -0.0964  0.5318
  596MOL0     C78577  -0.449  11.927   6.561 -0.0697 -0.1259  0.6316
  596MOL0     C78578  -0.596  11.872   6.610  0.7850 -0.3202 -0.1613
  596MOL0     C78579  -0.695  11.988   6.601  0.0338  0.5171 -0.0191
  596MOL0     C78580  -0.837  11.949   6.649 -1.0227  0.2422  0.2547
  596MOL0     C78581  -0.927  12.074   6.678 -0.2279  0.0129 -0.0886
  596MOL0     C78582  -1.076  12.042   6.706  0.7431 -0.4883  0.0491
  596MOL0     C78583  -1.150  12.167   6.761  0.3258 -0.5815  0.4519
  596MOL0    Cl78584  -1.318  12.144   6.818  0.1250 -0.2950  0.0121
  596MOL0     C78585  -0.022  11.842   6.440 -0.3353 -0.5505  0.3404
  596MOL0     C78586   0.102  11.790   6.472 -0.6749 -1.2397  0.7045
  596MOL0     O78587   0.220  11.403   6.471 -0.4774 -0.5088 -0.1599
  596MOL0     C78588   0.493  11.343   6.551 -0.3467 -0.2465  0.6631
  596MOL0     C78589   0.623  11.314   6.578  0.6277 -0.2098  0.7326
  596MOL0     N78590   1.332  11.505   6.879 -0.4576 -0.0338  0.0601
  596MOL0     N78591   1.394  11.508   6.994  0.8122  0.5724 -1.0332
  596MOL0     C78592   2.385  10.732   6.812  0.1585 -0.1708  0.1641
  596MOL0     C78593   2.474  10.625   6.805  0.5319 -0.0496 -0.2930
  596MOL0     C78594   2.743  10.312   6.858  0.1423 -0.8426  0.2183
  596MOL0     C78595   2.759  10.183   6.818 -0.0461  0.7801  0.3608
  596MOL0     C78596   2.887  10.139   6.770  0.0368  0.2925 -0.0786
  596MOL0     C78597   2.982  10.236   6.749 -0.2722 -0.0355 -0.2846
  596MOL0     O78598   3.089  10.221   6.667 -0.5303 -0.6216  0.1077
  596MOL0     C78599   3.165  10.098   6.652 -0.0168  0.0822 -0.7898
  596MOL0     C78600   3.225  10.095   6.511  0.3209  0.4848  1.1309
  596MOL0     C78601   3.362  10.029   6.481  1.1111 -1.2104 -0.3808
  596MOL0     C78602   3.360   9.877   6.524 -0.2570 -0.0261  0.0371
  596MOL0     C78603   3.507   9.831   6.528 -0.1772  0.3257 -0.0926
  596MOL0     C78604   3.621   9.787   6.528  0.7518  0.1950 -0.6442
  596MOL0     C78605   2.958  10.368   6.787 -0.7335 -0.2510  0.5553
  596MOL0     C78606   2.849  10.403   6.846  0.2643 -0.3282 -0.5626
  596MOL0     H78607   2.418  10.529   7.138 -0.4066  0.5064  1.2691
  596MOL0     H78608   2.256  10.693   7.124  0.8455  3.3802  0.8547
  596MOL0     H78609   2.165  10.864   6.752  0.1554  0.5334 -0.8054
  596MOL0     H78610   2.255  11.019   6.785  0.3246  0.2683  1.6191
  596MOL0     H78611   1.990  10.969   6.922 -0.7893  0.5047  0.0072
  596MOL0     H78612   1.994  11.033   6.750 -0.0991 -1.0743 -0.6020
  596MOL0     H78613   2.132  11.209   6.810  1.2575  0.5622  1.9635
  596MOL0     H78614   2.170  11.158   6.969  0.4093  2.1748 -0.6482
  596MOL0     H78615   1.995  11.358   6.953  0.2097  0.7349 -1.5899
  596MOL0     H78616   1.888  11.245   6.884 -0.3297 -0.3536  1.0183
  596MOL0     H78617   2.011  11.223   7.165  0.0997 -1.8395  0.7562
  596MOL0     H78618   1.913  11.099   7.104 -0.8342  0.6798 -0.6911
  596MOL0     H78619   1.831  11.384   7.163  1.7687 -0.9684  3.1967
  596MOL0     H78620   1.792  11.251   7.254  5.8066 -2.6121 -0.7540
  596MOL0     H78621   1.698  11.265   6.966  1.6736  1.8464  0.3854
  596MOL0     H78622   1.635  11.154   7.089  1.6987  0.0330  2.1524
  596MOL0     H78623   1.619  11.467   7.117  2.3007 -0.1489  0.6949
  596MOL0     H78624   1.529  11.336   7.201 -0.3482  0.6736 -0.7048
  596MOL0     H78625   1.465  11.208   6.896  1.6567  1.4835  0.6776
  596MOL0     H78626   1.344  11.234   6.668  0.1688  0.1285 -0.2766
  596MOL0     H78627   1.326  11.394   6.608  1.6880 -1.1206 -0.9179
  596MOL0     H78628   1.115  11.273   6.788 -1.5030 -0.7602 -1.6209
  596MOL0     H78629   1.114  11.256   6.609  1.9414  0.5723 -2.3452
  596MOL0     H78630   1.124  11.540   6.735  3.2260  0.0795 -2.0007
  596MOL0     H78631   1.075  11.481   6.572  0.1170 -1.8677  0.0723
  596MOL0     H78632   0.903  11.582   6.709 -1.9815  0.0879  0.8720
  596MOL0     H78633   0.916  11.440   6.820 -0.1299  1.9288  0.2676
  596MOL0     H78634   0.725  11.625   6.655  2.1576 -2.2765 -0.3609
  596MOL0     H78635   0.465  11.668   6.623 -1.6866 -1.0278  1.1118
  596MOL0     H78636   0.001  11.487   6.568  2.1943  1.3685  2.1912
  596MOL0     H78637  -0.203  11.587   6.548  1.1198  0.4606  1.0222
  596MOL0     H78638  -0.315  11.788   6.645  0.7451  1.8415  0.4714
  596MOL0     H78639  -0.413  11.722   6.503 -0.8088  1.3702 -1.9000
  596MOL0     H78640  -0.463  11.974   6.463  0.3754  2.0185  1.5372
  596MOL0     H78641  -0.399  12.000   6.626 -0.5592  0.7268  0.0698
  596MOL0     H78642  -0.581  11.853   6.717  2.2970  4.4416  0.7648
  596MOL0     H78643  -0.637  11.793   6.547  1.4212  1.2397 -2.6865
  596MOL0     H78644  -0.671  12.080   6.656  0.9230 -0.3833  1.1333
  596MOL0     H78645  -0.707  12.018   6.496 -0.7895  0.3066  0.0034
  596MOL0     H78646  -0.832  11.884   6.737  3.0395 -0.2470 -0.1721
  596MOL0     H78647  -0.879  11.895   6.564 -0.2565  1.4129 -0.9032
  596MOL0     H78648  -0.933  12.146   6.596 -3.4402 -0.7527 -0.6410
  596MOL0     H78649  -0.896  12.138   6.762 -0.6240  1.7680 -1.2192
  596MOL0     H78650  -1.126  12.002   6.617  0.3371 -0.0062  0.0592
  596MOL0     H78651  -1.076  11.979   6.797 -0.0778 -0.1716  0.2734
  596MOL0     H78652  -1.146  12.245   6.684 -1.8505 -1.1703 -0.3383
  596MOL0     H78653  -1.102  12.208   6.850 -1.4987  3.7128 -0.2764
  596MOL0     H78654  -0.013  11.946   6.410 -2.5792  0.6886  3.4480
  596MOL0     H78655   0.193  11.849   6.474 -1.8996  0.8060 -0.5902
  596MOL0     H78656   0.435  11.256   6.524 -0.8259  0.5954 -1.1648
  596MOL0     H78657   0.636  11.207   6.565 -3.9456 -0.6078 -3.5659
  596MOL0     H78658   2.384  10.795   6.723 -0.1429 -2.0258 -1.1884
  596MOL0     H78659   2.543  10.610   6.722 -3.5188 -2.9247 -3.5639
  596MOL0     H78660   2.687  10.102   6.825 -0.6743  1.4523  2.2806
  596MOL0     H78661   2.906  10.037   6.738 -0.2152 -0.0286  0.7691
  596MOL0     H78662   3.103  10.011   6.674  0.7019 -0.0887  0.7314
  596MOL0     H78663   3.249  10.110   6.722  0.7517 -0.6660 -1.5619
  596MOL0     H78664   3.153  10.039   6.451 -0.1997  0.8277  1.4248
  596MOL0     H78665   3.225  10.198   6.474 -3.0990  1.2331  2.8243
  596MOL0     H78666   3.439  10.084   6.536  2.5216 -0.7750 -2.6578
  596MOL0     H78667   3.388  10.043   6.376  0.3188 -0.6442 -0.5050
  596MOL0     H78668   3.323   9.846   6.622 -0.2549 -1.5610 -0.4203
  596MOL0     H78669   3.322   9.822   6.437 -2.6353 -0.6203  1.3681
  596MOL0     H78670   3.723   9.759   6.544 -0.3492 -3.7904  0.4710
  596MOL0     H78671   3.035  10.443   6.773  0.0526 -1.2616 -0.7198
  596MOL0     H78672   2.834  10.507   6.872 -0.7536 -0.6241  0.1252
  597MOL0     O78673   1.902   4.657   0.326  0.4799 -0.0247  1.0431
  597MOL0     C78674   1.899   4.610   0.440  0.0742  0.9705  0.4926
  597MOL0     O78675   2.006   4.548   0.498 -0.6715  0.2086 -0.2757
  597MOL0     C78676   2.139   4.563   0.458 -0.1881 -0.7052  0.2976
  597MOL0     C78677   2.226   4.459   0.473 -0.9480  0.9227  0.4515
  597MOL0     C78678   2.363   4.470   0.443  0.4610  0.1880  0.3316
  597MOL0     C78679   2.416   4.600   0.411 -0.0865  0.1463  0.3779
  597MOL0     O78680   2.538   4.631   0.369 -0.3875  0.4071  0.0793
  597MOL0     C78681   2.626   4.527   0.332 -0.3975  0.6432 -0.2186
  597MOL0     C78682   2.762   4.583   0.275  0.5078  0.7019 -0.7904
  597MOL0     C78683   2.851   4.463   0.270  0.1368  0.5790  0.1939
  597MOL0     C78684   2.994   4.484   0.230 -0.5405  0.4649 -1.1823
  597MOL0     C78685   3.096   4.441   0.337 -0.0841 -0.2440  1.1336
  597MOL0     C78686   3.251   4.473   0.298  0.4610 -0.2390  0.1524
  597MOL0     C78687   3.342   4.444   0.419  0.9117 -0.2804  0.4427
  597MOL0     C78688   3.488   4.516   0.406  0.3434 -0.5228  0.1133
  597MOL0     N78689   3.493   4.667   0.397  0.8165 -0.9063 -0.3189
  597MOL0     C78690   3.443   4.737   0.496  0.4878  0.1146  0.1496
  597MOL0     C78691   3.414   4.853   0.430 -0.3146  0.0985 -0.5657
  597MOL0     C78692   3.381   4.974   0.512 -0.1838 -0.1881  0.1244
  597MOL0     C78693   3.232   4.981   0.568  0.0261  0.7525 -0.8008
  597MOL0     C78694   3.136   4.948   0.462  0.9527  1.0138 -0.4580
  597MOL0     C78695   3.015   4.867   0.518  0.2337 -0.2901 -0.2332
  597MOL0     O78696   3.050   4.744   0.585 -0.4696 -0.0688 -0.3103
  597MOL0     C78697   2.942   4.681   0.638  0.4664 -0.2874  0.0396
  597MOL0     C78698   2.964   4.570   0.722  1.0597  0.0510 -0.5339
  597MOL0     C78699   2.860   4.504   0.792  0.7785 -0.7525  0.2670
  597MOL0     C78700   2.725   4.549   0.781 -0.1000 -0.0482 -0.2200
  597MOL0     C78701   2.620   4.465   0.837 -0.6070 -0.2971 -0.0298
  597MOL0     O78702   2.504   4.504   0.793  0.3647  0.0964 -0.3176
  597MOL0     C78703   2.392   4.513   0.875  0.8168  0.0794 -0.1961
  597MOL0     C78704   2.388   4.478   1.012  0.0172  0.8558 -0.4774
  597MOL0     C78705   2.264   4.472   1.076 -0.1828  1.0839 -0.1861
  597MOL0     C78706   2.148   4.501   1.009  0.0440 -0.2978  0.4583
  597MOL0     O78707   2.028   4.514   1.081  0.0160 -0.0468 -0.0082
  597MOL0     C78708   2.001   4.424   1.186 -0.1350 -0.2777 -0.3503
  597MOL0     C78709   1.852   4.440   1.225 -0.1084  0.3835 -0.5001
  597MOL0     C78710   1.757   4.387   1.119  0.9607 -0.5982 -0.4353
  597MOL0     C78711   1.763   4.242   1.090 -0.0129  0.1194 -0.9683
  597MOL0     C78712   1.616   4.207   1.029 -0.1965  0.1192  0.7151
  597MOL0     C78713   1.582   4.266   0.891 -0.4212 -0.9637 -0.0075
  597MOL0     C78714   1.434   4.264   0.865 -0.3328 -0.5301  0.1877
  597MOL0     C78715   1.405   4.291   0.726  0.1206  0.6566  0.7895
  597MOL0    Cl78716   1.240   4.371   0.696  0.0024  0.1681 -0.2894
  597MOL0     C78717   2.149   4.549   0.874  0.0642 -0.0635  0.6625
  597MOL0     C78718   2.272   4.558   0.811 -0.0885  0.5383  0.0989
  597MOL0     O78719   2.639   4.366   0.910  0.0276  0.4084  0.0939
  597MOL0     C78720   2.704   4.661   0.693  0.4404  0.6156  0.2182
  597MOL0     C78721   2.806   4.726   0.627  0.0327 -1.0854 -0.8608
  597MOL0     N78722   3.453   4.849   0.301  0.8812  0.9730 -0.1349
  597MOL0     N78723   3.495   4.739   0.281  0.8851  0.1440 -0.1025
  597MOL0     C78724   2.325   4.706   0.409  0.4300 -0.0640 -0.7716
  597MOL0     C78725   2.186   4.694   0.436  0.8505  0.2555  0.4181
  597MOL0     C78726   1.773   4.621   0.514  0.4648 -0.7028  0.6815
  597MOL0     C78727   1.655   4.671   0.444 -0.2382  0.5312 -0.2573
  597MOL0     C78728   1.541   4.701   0.514 -0.6560 -0.8570  0.3740
  597MOL0     C78729   1.531   4.665   0.650  0.5405 -1.0896 -0.2057
  597MOL0     O78730   1.417   4.692   0.726  0.0115 -0.4828 -0.4199
  597MOL0     C78731   1.289   4.727   0.670  0.2559  0.2541  1.0992
  597MOL0     C78732   1.187   4.744   0.780 -0.1670  0.2329  0.2488
  597MOL0     C78733   1.054   4.773   0.710 -0.4321 -0.5023  0.5147
  597MOL0     C78734   0.942   4.733   0.806  0.4388 -0.8942 -0.6259
  597MOL0     C78735   0.950   4.826   0.928  0.4825 -0.3958  0.3663
  597MOL0     C78736   0.978   4.905   1.021 -0.0771 -0.3743 -0.2762
  597MOL0     C78737   1.638   4.598   0.712  0.3424  0.5902 -0.1419
  597MOL0     C78738   1.761   4.583   0.643  0.1220  0.3337  0.0626
  597MOL0     H78739   2.195   4.362   0.512 -1.0170  1.5990  2.1666
  597MOL0     H78740   2.423   4.380   0.436 -1.5181 -1.0608 -2.1940
  597MOL0     H78741   2.581   4.472   0.250  0.7479 -1.5094  0.5261
  597MOL0     H78742   2.656   4.471   0.421  2.0077  0.0039 -1.3402
  597MOL0     H78743   2.804   4.662   0.338 -0.9344 -0.8918  2.3905
  597MOL0     H78744   2.748   4.615   0.171  0.6878 -0.0553 -1.0526
  597MOL0     H78745   2.809   4.399   0.192  0.9026  0.5049 -0.1622
  597MOL0     H78746   2.836   4.414   0.366  0.7488 -1.5426 -0.7376
  597MOL0     H78747   3.008   4.422   0.141  0.4808 -1.1025  0.0218
  597MOL0     H78748   3.008   4.591   0.210  2.2946  0.3775 -0.1099
  597MOL0     H78749   3.075   4.334   0.350 -2.3099  0.1889  1.4056
  597MOL0     H78750   3.076   4.505   0.423 -1.3272  0.2494  0.4920
  597MOL0     H78751   3.259   4.578   0.267  0.5513 -0.2988 -0.0300
  597MOL0     H78752   3.282   4.411   0.213  0.1661 -1.4925  0.9448
  597MOL0     H78753   3.298   4.458   0.518 -2.2696 -4.3864 -0.1342
  597MOL0     H78754   3.361   4.336   0.429  0.7056 -0.2746  0.9620
  597MOL0     H78755   3.531   4.470   0.316  0.8699 -0.7928  0.4996
  597MOL0     H78756   3.549   4.497   0.495  0.0234  1.7167  0.8753
  597MOL0     H78757   3.421   4.711   0.599  1.7441  2.6566  1.1353
  597MOL0     H78758   3.390   5.060   0.444  0.7652 -0.6293 -0.3232
  597MOL0     H78759   3.460   4.986   0.588  0.5298 -1.0546 -0.4632
  597MOL0     H78760   3.214   5.079   0.612 -3.1944 -0.1569  0.1833
  597MOL0     H78761   3.221   4.912   0.652 -0.2244  1.0299 -0.6027
  597MOL0     H78762   3.098   5.044   0.425 -0.3537  1.0466  0.8843
  597MOL0     H78763   3.180   4.894   0.378  0.8097  3.6496 -2.3510
  597MOL0     H78764   2.950   4.862   0.430 -0.3120 -0.5204  0.1797
  597MOL0     H78765   2.963   4.930   0.590 -2.7751 -2.6962 -0.1186
  597MOL0     H78766   3.069   4.543   0.721  0.9525 -0.3850 -0.2465
  597MOL0     H78767   2.875   4.429   0.869  1.0325 -0.7995  0.1711
  597MOL0     H78768   2.476   4.456   1.072  0.4433  0.8540 -1.0863
  597MOL0     H78769   2.274   4.438   1.179  2.4726 -0.2438 -0.7729
  597MOL0     H78770   2.057   4.454   1.275  3.8410 -1.8929 -2.0516
  597MOL0     H78771   2.027   4.319   1.167  1.7498  0.2160 -0.7055
  597MOL0     H78772   1.836   4.548   1.220  1.5069  0.6118 -4.0573
  597MOL0     H78773   1.832   4.394   1.322 -0.5879  2.8134  0.6190
  597MOL0     H78774   1.764   4.447   1.028 -1.8531 -3.2435 -2.6069
  597MOL0     H78775   1.657   4.412   1.156  1.6470  1.4820  0.1559
  597MOL0     H78776   1.844   4.239   1.017  1.5344  5.7876  0.0476
  597MOL0     H78777   1.777   4.186   1.183  2.7668 -0.5714 -1.7353
  597MOL0     H78778   1.540   4.242   1.100  0.8649 -1.1077  2.5314
  597MOL0     H78779   1.609   4.099   1.013 -2.0461  0.2127  0.5798
  597MOL0     H78780   1.633   4.210   0.812 -0.1557 -0.8352  0.0707
  597MOL0     H78781   1.612   4.371   0.877  1.6029 -1.6752 -1.4938
  597MOL0     H78782   1.395   4.165   0.888  0.0918 -0.9683 -0.9282
  597MOL0     H78783   1.391   4.345   0.925  0.2595 -0.0940  0.0344
  597MOL0     H78784   1.401   4.191   0.681 -0.6581  1.5556 -1.2973
  597MOL0     H78785   1.481   4.352   0.677 -2.0651  1.8302 -1.4020
  597MOL0     H78786   2.052   4.556   0.827  0.4631 -0.4236 -0.2370
  597MOL0     H78787   2.277   4.610   0.716 -1.7036 -1.6341 -1.2669
  597MOL0     H78788   2.607   4.695   0.659 -0.3807 -0.3951  1.4747
  597MOL0     H78789   2.776   4.818   0.576 -3.2812 -1.8338 -0.4851
  597MOL0     H78790   2.368   4.802   0.383  1.6374 -0.1756  0.7072
  597MOL0     H78791   2.124   4.783   0.437 -1.0009 -0.9771  1.4598
  597MOL0     H78792   1.657   4.704   0.340 -5.7594  0.7590 -0.5906
  597MOL0     H78793   1.458   4.747   0.462  1.4934  1.3959 -1.3071
  597MOL0     H78794   1.261   4.643   0.606  1.2484  0.2664  0.6364
  597MOL0     H78795   1.294   4.815   0.605 -0.9489  0.2308  0.9531
  597MOL0     H78796   1.196   4.652   0.839  0.1409 -1.9684 -2.9892
  597MOL0     H78797   1.225   4.830   0.836 -2.6856  1.1146  0.7618
  597MOL0     H78798   1.043   4.707   0.624 -1.2135 -3.5248  2.7246
  597MOL0     H78799   1.052   4.876   0.675 -2.0440 -0.9033 -0.6817
  597MOL0     H78800   0.848   4.737   0.750 -0.3405 -2.1062  0.5380
  597MOL0     H78801   0.946   4.635   0.854  0.3565  0.4111  2.3104
  597MOL0     H78802   0.993   4.986   1.090  0.7323  1.8393 -2.8270
  597MOL0     H78803   1.619   4.573   0.816 -1.3061 -0.5091 -0.6650
  597MOL0     H78804   1.842   4.544   0.704 -0.5332  2.2366  2.2884
  598MOL0     O78805   3.184   9.204   8.906  0.0805 -0.4858 -0.9478
  598MOL0     C78806   3.264   9.180   8.997 -0.0015 -0.5170  0.0066
  598MOL0     O78807   3.236   9.168   9.129  0.2056 -0.2305 -0.4569
  598MOL0     C78808   3.113   9.204   9.166  0.3798  0.6099 -0.6548
  598MOL0     C78809   3.039   9.117   9.252 -0.2682 -0.4184  0.1671
  598MOL0     C78810   2.912   9.145   9.297  0.0724  0.3549 -0.3968
  598MOL0     C78811   2.862   9.279   9.267  0.1111  0.7216 -0.2661
  598MOL0     O78812   2.735   9.331   9.298  0.0331 -0.6430 -0.5441
  598MOL0     C78813   2.667   9.292   9.412 -0.1932 -0.5107 -0.9352
  598MOL0     C78814   2.520   9.334   9.396  0.0461 -0.0999 -0.6275
  598MOL0     C78815   2.452   9.311   9.527 -0.8223 -0.2138 -0.1191
  598MOL0     C78816   2.302   9.353   9.522 -1.1892 -0.7672 -0.0395
  598MOL0     C78817   2.219   9.342   9.653  0.2472 -0.3007 -0.2204
  598MOL0     C78818   2.192   9.198   9.680 -0.1503 -0.2969 -0.6500
  598MOL0     C78819   2.122   9.184   9.821  0.1271 -0.3619 -0.9638
  598MOL0     C78820   2.087   9.045   9.876 -0.7123  0.5620  0.8058
  598MOL0     N78821   2.029   9.054  10.012 -0.4129 -0.7285 -0.0738
  598MOL0     C78822   2.084   9.101  10.129 -0.0870 -0.5508  0.6254
  598MOL0     C78823   1.979   9.112  10.219  0.1713  0.5995  1.5729
  598MOL0     C78824   1.995   9.177  10.349  0.3440  0.6155 -0.2932
  598MOL0     C78825   1.933   9.310  10.357 -0.7059  0.0557  0.9058
  598MOL0     C78826   1.863   9.362  10.487  1.1211 -0.2682  0.4418
  598MOL0     C78827   1.761   9.466  10.457  0.0469  0.6746  0.1756
  598MOL0     O78828   1.710   9.502  10.582  0.4470 -0.1059 -0.3518
  598MOL0     C78829   1.591   9.580  10.588 -0.8308  0.7195 -0.2772
  598MOL0     C78830   1.559   9.670  10.493 -0.2784  0.0068  1.2667
  598MOL0     C78831   1.454   9.763  10.507  0.6802 -0.2420  0.1465
  598MOL0     C78832   1.368   9.751  10.620  0.4173  0.2335  0.1480
  598MOL0     C78833   1.251   9.843  10.631 -0.7827  0.4520  0.3600
  598MOL0     O78834   1.241   9.944  10.535  0.2689 -0.1505 -0.0830
  598MOL0     C78835   1.133  10.030  10.541  0.0622  0.9027  0.2817
  598MOL0     C78836   1.164  10.159  10.513 -0.4240  0.0988 -0.5919
  598MOL0     C78837   1.062  10.258  10.495  0.0310  0.4463 -0.4059
  598MOL0     C78838   0.931  10.219  10.519  0.1762  0.2048 -1.0483
  598MOL0     O78839   0.830  10.310  10.504 -0.1670  0.4088  0.1188
  598MOL0     C78840   0.843  10.437  10.453  0.0837 -0.1213 -0.3769
  598MOL0     C78841   0.701  10.490  10.429 -0.2951 -0.3654  0.1581
  598MOL0     C78842   0.620  10.386  10.346  1.3358 -0.7510  0.2869
  598MOL0     C78843   0.474  10.446  10.331 -0.1818 -0.8205 -0.0282
  598MOL0     C78844   0.462  10.556  10.229  0.1033 -0.3664  0.3439
  598MOL0     C78845   0.454  10.695  10.293 -0.0828 -0.7803  0.7814
  598MOL0     C78846   0.470  10.821  10.192 -0.7572  0.4522  0.7113
  598MOL0     C78847   0.571  10.805  10.079 -0.8720 -0.0249 -0.4582
  598MOL0    Cl78848   0.742  10.786  10.132  0.5242  0.5437  0.2022
  598MOL0     C78849   0.896  10.083  10.562 -0.1183  0.7194 -0.1006
  598MOL0     C78850   0.998   9.990  10.562  0.4219  0.1983  0.9587
  598MOL0     O78851   1.175   9.817  10.723 -0.5320  0.2275 -0.2646
  598MOL0     C78852   1.399   9.654  10.716  0.2438  0.1043 -0.2196
  598MOL0     C78853   1.513   9.569  10.703 -0.4428  0.1444 -0.7159
  598MOL0     N78854   1.866   9.078  10.152  1.1793 -0.4055  0.5458
  598MOL0     N78855   1.889   9.045  10.032 -0.6947  0.3176 -0.7879
  598MOL0     C78856   2.944   9.368   9.196  0.2889 -0.8186 -0.2209
  598MOL0     C78857   3.067   9.334   9.135 -0.5403 -0.2470 -0.5435
  598MOL0     C78858   3.407   9.167   8.949  0.3464 -0.4490 -0.0562
  598MOL0     C78859   3.440   9.199   8.821 -0.7114 -0.2129  0.0089
  598MOL0     C78860   3.572   9.167   8.778  0.1061 -0.4688  0.3037
  598MOL0     C78861   3.670   9.109   8.842  0.3247  0.2557  0.2596
  598MOL0     O78862   3.788   9.080   8.785  0.8094 -0.0246  0.4993
  598MOL0     C78863   3.896   9.033   8.877 -0.3013  0.0072  0.0538
  598MOL0     C78864   4.023   9.038   8.793 -0.7120 -0.7699 -0.1050
  598MOL0     C78865   4.001   8.970   8.657  0.1686  0.2358 -0.6386
  598MOL0     C78866   4.014   8.825   8.654  0.2016 -0.2690 -0.2599
  598MOL0     C78867   3.941   8.753   8.547 -1.2352 -0.6917  0.8665
  598MOL0     C78868   3.917   8.691   8.447  0.6510 -0.6425  0.1687
  598MOL0     C78869   3.641   9.071   8.977 -0.5823  0.0540  0.2763
  598MOL0     C78870   3.509   9.105   9.030 -0.4258  0.3505 -0.4495
  598MOL0     H78871   3.076   9.015   9.254 -2.1247 -1.2060 -1.5753
  598MOL0     H78872   2.857   9.064   9.344 -0.6814  0.7382 -0.5982
  598MOL0     H78873   2.718   9.340   9.497  1.6228 -1.8007 -1.2464
  598MOL0     H78874   2.663   9.186   9.441 -0.6933 -0.4904 -0.9138
  598MOL0     H78875   2.477   9.273   9.316  0.1502  0.5458 -1.1791
  598MOL0     H78876   2.509   9.439   9.368 -0.2450  1.1390  3.4249
  598MOL0     H78877   2.511   9.369   9.598 -2.3313 -0.7834  1.6988
  598MOL0     H78878   2.470   9.209   9.563  0.0791  0.9031  2.9207
  598MOL0     H78879   2.291   9.460   9.499 -0.1573 -0.2278  1.7453
  598MOL0     H78880   2.248   9.307   9.439 -3.6094  0.8244  0.5345
  598MOL0     H78881   2.126   9.400   9.644  0.0596 -0.8261 -2.0187
  598MOL0     H78882   2.278   9.377   9.738  2.0378  0.0567 -1.5617
  598MOL0     H78883   2.286   9.145   9.662  1.3218  2.0547 -0.3308
  598MOL0     H78884   2.119   9.160   9.607 -1.3392 -2.5666  1.5634
  598MOL0     H78885   2.183   9.239   9.893 -2.0399 -0.6686  1.2043
  598MOL0     H78886   2.025   9.236   9.822  0.8755  1.1062  0.8821
  598MOL0     H78887   2.183   8.994   9.864 -0.4462  0.3032  3.4634
  598MOL0     H78888   2.025   8.979   9.816 -1.8807  1.0626  1.4325
  598MOL0     H78889   2.187   9.123  10.155 -0.6770  2.1419  1.0154
  598MOL0     H78890   2.103   9.177  10.370  0.4440 -0.3421 -0.7594
  598MOL0     H78891   1.942   9.119  10.425 -0.2274 -1.4722 -2.2041
  598MOL0     H78892   1.858   9.315  10.278 -0.9886 -0.9097  1.0962
  598MOL0     H78893   2.009   9.384  10.332  0.3796 -2.0457 -2.6348
  598MOL0     H78894   1.804   9.275  10.517 -0.4282  0.6909  0.2803
  598MOL0     H78895   1.933   9.385  10.569 -0.4034 -0.3747  1.8165
  598MOL0     H78896   1.686   9.419  10.393 -0.6871 -1.5828  2.5253
  598MOL0     H78897   1.800   9.547  10.395  0.7036 -0.6429 -1.1863
  598MOL0     H78898   1.609   9.680  10.397 -2.9273  0.3183 -0.1799
  598MOL0     H78899   1.441   9.832  10.424  1.6323 -1.8028 -1.3862
  598MOL0     H78900   1.268  10.189  10.516 -0.4845  0.3033 -0.4473
  598MOL0     H78901   1.098  10.356  10.466 -0.6600  0.8302  0.0151
  598MOL0     H78902   0.885  10.425  10.353 -0.2740  0.1395 -0.5601
  598MOL0     H78903   0.897  10.509  10.516  1.7120 -0.6694 -1.0887
  598MOL0     H78904   0.709  10.591  10.389 -0.6514  1.1365  3.5486
  598MOL0     H78905   0.655  10.505  10.527  0.6285  0.5913  0.4612
  598MOL0     H78906   0.604  10.289  10.394  1.5294 -0.7415  0.3723
  598MOL0     H78907   0.679  10.372  10.255  1.8227 -2.1563  0.8005
  598MOL0     H78908   0.407  10.363  10.305 -3.7750  0.9273  2.7844
  598MOL0     H78909   0.429  10.480  10.425  0.7408 -2.0108  0.8692
  598MOL0     H78910   0.379  10.537  10.160  1.1552  0.5504 -1.2365
  598MOL0     H78911   0.555  10.556  10.171 -1.2966 -1.3844 -2.0135
  598MOL0     H78912   0.535  10.710  10.365 -1.1940  1.3801  1.6836
  598MOL0     H78913   0.359  10.713  10.343 -0.3775 -0.5540  0.1483
  598MOL0     H78914   0.374  10.835  10.141 -1.0752  0.0260  1.1838
  598MOL0     H78915   0.501  10.910  10.247  0.7524  0.1131  0.4337
  598MOL0     H78916   0.556  10.901  10.029 -2.2750  0.5484  0.9803
  598MOL0     H78917   0.540  10.726  10.010  1.0528 -2.8826  1.6966
  598MOL0     H78918   0.798  10.044  10.587  1.3758 -0.9746  4.0930
  598MOL0     H78919   0.975   9.885  10.575  0.6632  0.1546  1.0471
  598MOL0     H78920   1.353   9.642  10.813 -0.2754 -1.6669 -0.6299
  598MOL0     H78921   1.552   9.505  10.781  3.0975 -0.1096 -2.5087
  598MOL0     H78922   2.916   9.471   9.173  0.9373 -0.4129  0.7391
  598MOL0     H78923   3.125   9.409   9.081  0.3341 -0.9763 -0.6414
  598MOL0     H78924   3.372   9.255   8.758  0.6499 -0.8232 -2.1028
  598MOL0     H78925   3.592   9.198   8.676  0.3419  1.4870  0.9101
  598MOL0     H78926   3.883   8.933   8.920  0.0117  1.0553  2.8359
  598MOL0     H78927   3.906   9.102   8.961 -1.5638  2.3439 -1.6190
  598MOL0     H78928   4.060   9.140   8.777 -0.0837 -0.7838  1.1192
  598MOL0     H78929   4.093   8.970   8.841  2.2799  0.2300 -2.7054
  598MOL0     H78930   4.085   8.997   8.593  0.3091 -2.7699 -1.8698
  598MOL0     H78931   3.916   9.004   8.598 -1.5545  0.5685  1.8617
  598MOL0     H78932   4.121   8.800   8.655  0.3754  0.3347  2.3475
  598MOL0     H78933   3.973   8.781   8.745 -2.0453 -1.1988 -1.6393
  598MOL0     H78934   3.885   8.635   8.362  3.6150 -2.9211  0.3670
  598MOL0     H78935   3.715   9.020   9.037 -1.2782 -3.0064 -1.2444
  598MOL0     H78936   3.484   9.073   9.131  0.6440 -2.6228 -1.0245
  599MOL0     O78937   3.505   8.508   5.590  0.2354 -0.2230 -0.2004
  599MOL0     C78938   3.550   8.396   5.602 -0.0051  0.3816  0.2445
  599MOL0     O78939   3.509   8.288   5.539  0.5648 -0.3559  0.2469
  599MOL0     C78940   3.405   8.289   5.457  0.2412  0.7402 -0.0705
  599MOL0     C78941   3.272   8.325   5.491  0.4849  0.4742 -0.1991
  599MOL0     C78942   3.166   8.290   5.405  0.9153  0.9715 -0.1405
  599MOL0     C78943   3.191   8.233   5.280  0.6595  0.0260 -0.1951
  599MOL0     O78944   3.079   8.206   5.212  0.3849 -0.6416  0.4571
  599MOL0     C78945   3.083   8.256   5.073 -0.4552 -0.1679  0.5959
  599MOL0     C78946   2.973   8.365   5.047 -1.2256 -0.4977 -0.3830
  599MOL0     C78947   2.844   8.333   5.124  1.1764  0.0599 -0.1092
  599MOL0     C78948   2.745   8.461   5.114  0.8706 -0.1035 -0.3538
  599MOL0     C78949   2.600   8.439   5.177 -1.4664  0.1431  0.5138
  599MOL0     C78950   2.596   8.360   5.311  0.2429 -0.3904  0.2076
  599MOL0     C78951   2.452   8.335   5.357  0.0944 -1.1181  0.1464
  599MOL0     C78952   2.373   8.469   5.368  0.0007  0.1686 -0.1331
  599MOL0     N78953   2.240   8.452   5.426 -0.3762 -0.3453  0.7932
  599MOL0     C78954   2.121   8.415   5.362 -0.1197 -0.3864  0.0191
  599MOL0     C78955   2.027   8.426   5.462 -0.2877  0.2186 -1.0158
  599MOL0     C78956   1.887   8.381   5.448 -0.1133  0.0845  0.0076
  599MOL0     C78957   1.798   8.491   5.392 -0.1281 -0.3518 -0.4818
  599MOL0     C78958   1.772   8.601   5.492 -0.8094 -0.5298 -0.1024
  599MOL0     C78959   1.683   8.577   5.619  0.8585  0.3237 -0.2070
  599MOL0     O78960   1.555   8.525   5.576  0.0166 -0.7486 -0.2172
  599MOL0     C78961   1.457   8.516   5.674 -0.4104 -0.1056  0.2499
  599MOL0     C78962   1.494   8.475   5.807 -0.2132  1.0025  0.9436
  599MOL0     C78963   1.393   8.469   5.908  0.5904 -0.3474 -0.1572
  599MOL0     C78964   1.262   8.498   5.876  0.6824 -0.0797  0.2634
  599MOL0     C78965   1.159   8.477   5.970  0.8770  0.7553 -0.0114
  599MOL0     O78966   1.030   8.488   5.920  0.3953  0.0144  0.6357
  599MOL0     C78967   0.927   8.534   5.995 -0.3545 -0.2367 -0.7502
  599MOL0     C78968   0.934   8.574   6.127  0.1159  0.9360 -0.0939
  599MOL0     C78969   0.813   8.589   6.193  0.2036  1.2991  0.0260
  599MOL0     C78970   0.680   8.575   6.133 -1.1732  0.1213 -0.5455
  599MOL0     O78971   0.569   8.575   6.210  0.5922 -0.5649  0.8130
  599MOL0     C78972   0.568   8.456   6.294  0.2076 -1.4280  0.8668
  599MOL0     C78973   0.427   8.394   6.283 -1.1166 -0.1918 -0.4645
  599MOL0     C78974   0.312   8.490   6.316 -0.1235  0.2652 -0.6951
  599MOL0     C78975   0.332   8.573   6.441 -0.3638 -0.0943  0.7773
  599MOL0     C78976   0.225   8.682   6.469 -0.5480  1.3032  0.2963
  599MOL0     C78977   0.080   8.634   6.466  0.0630  0.1059  0.5899
  599MOL0     C78978  -0.007   8.748   6.496  0.4454  0.4270  0.4447
  599MOL0     C78979  -0.147   8.695   6.528 -0.0536  0.6143 -0.0837
  599MOL0    Cl78980  -0.224   8.819   6.626 -0.0110  0.0324 -0.1391
  599MOL0     C78981   0.673   8.557   5.997 -0.2592  0.2519  0.1603
  599MOL0     C78982   0.795   8.540   5.927 -0.5103 -0.0133 -0.6129
  599MOL0     O78983   1.177   8.440   6.081 -0.6429 -0.2039  0.1616
  599MOL0     C78984   1.234   8.545   5.744  0.8356  0.7695  0.0430
  599MOL0     C78985   1.332   8.552   5.644 -0.4253 -0.3921 -0.0761
  599MOL0     N78986   2.094   8.476   5.574 -0.7032 -0.8573  0.4004
  599MOL0     N78987   2.218   8.484   5.548 -0.4939  0.3326 -0.4746
  599MOL0     C78988   3.316   8.194   5.249  0.9312 -0.0048 -0.8497
  599MOL0     C78989   3.420   8.225   5.334 -0.0601  0.3044 -1.0153
  599MOL0     C78990   3.678   8.382   5.680 -0.4334  0.1557 -0.5660
  599MOL0     C78991   3.759   8.262   5.692  0.3975  0.0401 -0.5985
  599MOL0     C78992   3.887   8.256   5.745  0.3224  0.2375 -0.8208
  599MOL0     C78993   3.939   8.377   5.801  0.2588  0.3015  0.0133
  599MOL0     O78994   4.057   8.385   5.868 -0.2519  0.0600 -0.4534
  599MOL0     C78995   4.141   8.273   5.890 -0.6593  0.3683 -0.6337
  599MOL0     C78996   4.062   8.178   5.991 -0.6113 -0.6988 -0.2530
  599MOL0     C78997   4.061   8.252   6.129  0.4070 -0.1415 -0.7240
  599MOL0     C78998   4.023   8.165   6.242  0.9997 -0.3489  0.2118
  599MOL0     C78999   3.875   8.141   6.246 -0.6146 -0.2691 -0.8727
  599MOL0     C79000   3.760   8.102   6.259 -0.4535  1.2372 -0.2108
  599MOL0     C79001   3.861   8.494   5.791  0.6932 -0.3596 -0.4169
  599MOL0     C79002   3.735   8.497   5.728 -0.4315 -0.5102  0.3707
  599MOL0     H79003   3.249   8.361   5.591 -0.3257  1.6427 -0.7891
  599MOL0     H79004   3.063   8.311   5.431  1.1766 -0.8342  2.9950
  599MOL0     H79005   3.062   8.173   5.004  2.2852 -0.7649  0.3476
  599MOL0     H79006   3.180   8.295   5.040 -0.8476  0.4533  0.1725
  599MOL0     H79007   2.952   8.375   4.940 -0.4871 -0.2058 -0.5071
  599MOL0     H79008   3.009   8.460   5.088  1.3066 -1.9987  1.1290
  599MOL0     H79009   2.857   8.317   5.231 -1.5875 -5.1884 -0.2302
  599MOL0     H79010   2.789   8.245   5.091 -0.4574  1.3009 -0.8538
  599MOL0     H79011   2.790   8.544   5.170  0.2687  1.6667 -2.3457
  599MOL0     H79012   2.739   8.498   5.011  0.7603 -2.4893 -1.2600
  599MOL0     H79013   2.540   8.384   5.104  0.6521 -1.6737  0.0261
  599MOL0     H79014   2.552   8.537   5.187  1.3013  1.5798  0.6905
  599MOL0     H79015   2.657   8.411   5.386  0.9802  0.7325 -1.1207
  599MOL0     H79016   2.645   8.262   5.307 -2.3135 -1.7899  0.7031
  599MOL0     H79017   2.389   8.272   5.293 -1.7583 -1.4977  2.2395
  599MOL0     H79018   2.447   8.300   5.460 -1.4613 -2.4448 -0.3320
  599MOL0     H79019   2.359   8.505   5.266 -1.9066  3.0261  1.0236
  599MOL0     H79020   2.433   8.533   5.434 -2.1683  0.7609  1.3763
  599MOL0     H79021   2.108   8.377   5.261 -0.8977  0.9942 -0.4258
  599MOL0     H79022   1.842   8.354   5.544  2.5358  1.6551  1.8338
  599MOL0     H79023   1.866   8.296   5.383 -3.2820  0.3800  0.4857
  599MOL0     H79024   1.718   8.444   5.333 -0.1057 -2.9934  1.3952
  599MOL0     H79025   1.840   8.544   5.306  1.8958 -0.7460  0.2069
  599MOL0     H79026   1.868   8.641   5.525 -2.1212  3.4981 -0.5445
  599MOL0     H79027   1.731   8.688   5.439  3.1657  1.3673 -0.3766
  599MOL0     H79028   1.664   8.670   5.674  0.1215  0.8513 -1.3213
  599MOL0     H79029   1.730   8.500   5.681  2.0658  1.3391  0.1905
  599MOL0     H79030   1.597   8.454   5.834  0.1365 -0.6305 -1.4148
  599MOL0     H79031   1.417   8.458   6.013  3.2574 -2.0961 -0.8611
  599MOL0     H79032   1.029   8.569   6.179  0.1451 -2.3177 -0.2788
  599MOL0     H79033   0.814   8.616   6.297 -0.4817  2.3773 -0.2347
  599MOL0     H79034   0.586   8.494   6.395 -3.1879  0.3805  0.9320
  599MOL0     H79035   0.647   8.387   6.261  1.5543  0.6688 -0.5583
  599MOL0     H79036   0.430   8.311   6.354 -0.7693  0.6887  0.5775
  599MOL0     H79037   0.414   8.346   6.186 -0.3721 -0.3066 -0.5151
  599MOL0     H79038   0.235   8.418   6.346  0.4815  0.6728  2.0660
  599MOL0     H79039   0.292   8.560   6.234  0.2447 -0.2633 -1.2461
  599MOL0     H79040   0.337   8.498   6.520 -0.1623 -2.2461 -1.1682
  599MOL0     H79041   0.425   8.630   6.444 -1.6659  2.3524 -0.8749
  599MOL0     H79042   0.244   8.768   6.404 -0.1902  1.8963  1.1731
  599MOL0     H79043   0.246   8.711   6.572 -2.1547 -0.5704  1.2103
  599MOL0     H79044   0.071   8.552   6.538  0.2460 -0.3947  0.0451
  599MOL0     H79045   0.057   8.607   6.363  2.1814  0.4174 -0.0167
  599MOL0     H79046   0.030   8.804   6.583 -0.3284  1.2444  0.2630
  599MOL0     H79047  -0.012   8.818   6.413 -2.9225  0.3182  0.4419
  599MOL0     H79048  -0.142   8.602   6.585 -0.4820  0.3001 -0.5501
  599MOL0     H79049  -0.192   8.683   6.429  1.0260 -1.3401 -0.3853
  599MOL0     H79050   0.573   8.541   5.957  0.2191 -1.0386 -0.5731
  599MOL0     H79051   0.805   8.509   5.823  0.2941 -1.9909  0.0136
  599MOL0     H79052   1.138   8.576   5.704  0.4884 -1.9337 -1.5213
  599MOL0     H79053   1.308   8.586   5.544 -0.2708 -1.2776 -0.4260
  599MOL0     H79054   3.333   8.132   5.162 -0.8102 -2.0247  0.1600
  599MOL0     H79055   3.517   8.191   5.299  1.0206  0.5563  1.5304
  599MOL0     H79056   3.715   8.177   5.640  1.6993 -2.1094  1.6315
  599MOL0     H79057   3.920   8.153   5.752 -3.6717 -1.6392 -4.7320
  599MOL0     H79058   4.228   8.307   5.947 -1.7638 -1.4347  2.3273
  599MOL0     H79059   4.173   8.222   5.798 -0.0318  4.0005 -2.6393
  599MOL0     H79060   3.959   8.158   5.958 -1.8666  1.8090  1.8343
  599MOL0     H79061   4.114   8.082   5.992  1.0799  0.1933  1.2184
  599MOL0     H79062   4.000   8.343   6.127  0.1404 -0.3034 -0.1960
  599MOL0     H79063   4.160   8.292   6.153  0.0261  0.1196  0.4665
  599MOL0     H79064   4.082   8.073   6.246  3.9699  1.4388  3.8828
  599MOL0     H79065   4.047   8.221   6.333 -0.6617  0.3982  0.2240
  599MOL0     H79066   3.662   8.061   6.248  0.5996 -1.2157 -1.5982
  599MOL0     H79067   3.890   8.589   5.836 -3.3123 -0.5605  3.3988
  599MOL0     H79068   3.697   8.599   5.725 -2.7269 -1.3231 -0.7711
  600MOL0     O79069   0.089   1.259   7.943  0.8712  0.0116  0.2730
  600MOL0     C79070   0.120   1.193   8.040  0.2333  0.0773 -0.5336
  600MOL0     O79071   0.092   1.070   8.067 -0.7611  0.0603  0.5924
  600MOL0     C79072   0.022   0.989   7.979 -0.1250  0.2151  1.0620
  600MOL0     C79073  -0.106   0.942   8.002  0.0230 -0.2935  0.0925
  600MOL0     C79074  -0.170   0.854   7.915  0.3711 -0.1808 -0.2123
  600MOL0     C79075  -0.102   0.808   7.802 -0.4621 -0.4196 -0.7937
  600MOL0     O79076  -0.150   0.705   7.719  0.6737 -0.2369  0.2148
  600MOL0     C79077  -0.076   0.589   7.712  0.4751  0.1737 -0.7429
  600MOL0     C79078  -0.144   0.493   7.816  0.5958 -0.4113 -0.1137
  600MOL0     C79079  -0.077   0.357   7.851  1.0354  0.3180  0.1959
  600MOL0     C79080  -0.157   0.286   7.968 -0.4504  0.1183  1.0113
  600MOL0     C79081  -0.304   0.229   7.939  0.2251  0.1349 -0.2104
  600MOL0     C79082  -0.325   0.162   7.805  0.1942 -0.4403 -0.0392
  600MOL0     C79083  -0.462   0.090   7.793 -0.8459  0.1249  0.0505
  600MOL0     C79084  -0.589   0.170   7.840  0.1718 -0.2601  0.5587
  600MOL0     N79085  -0.706   0.083   7.817  0.4325  0.2474 -0.5689
  600MOL0     C79086  -0.747  -0.018   7.902  0.6147 -0.7150 -0.0731
  600MOL0     C79087  -0.866  -0.070   7.851 -0.6580 -0.5510  0.8513
  600MOL0     C79088  -0.954  -0.182   7.905  0.5793 -0.9205  0.4420
  600MOL0     C79089  -1.085  -0.137   7.975 -0.4749  0.7265  0.5642
  600MOL0     C79090  -1.169  -0.042   7.882 -0.2950 -0.2097 -0.3740
  600MOL0     C79091  -1.221  -0.099   7.757 -1.1935  0.2455  0.1736
  600MOL0     O79092  -1.305  -0.208   7.783  0.2917 -0.9204  0.8381
  600MOL0     C79093  -1.439  -0.168   7.803  0.0739  0.4700  0.3700
  600MOL0     C79094  -1.520  -0.288   7.801 -1.1383 -0.3396  0.8305
  600MOL0     C79095  -1.656  -0.276   7.803  0.2762 -0.7632 -0.2615
  600MOL0     C79096  -1.721  -0.152   7.815 -1.2515  0.0327 -0.1974
  600MOL0     C79097  -1.867  -0.134   7.819  1.4844 -0.0356  0.3164
  600MOL0     O79098  -1.947  -0.242   7.804 -0.5327  0.1725  0.3777
  600MOL0     C79099  -2.085  -0.245   7.813  0.6846 -0.9191  0.8959
  600MOL0     C79100  -2.159  -0.151   7.737 -0.0847 -1.1938 -0.1173
  600MOL0     C79101  -2.295  -0.155   7.722 -0.1743  0.1827 -0.4629
  600MOL0     C79102  -2.364  -0.270   7.774 -0.0687 -0.4748 -0.6592
  600MOL0     O79103  -2.499  -0.292   7.758 -0.4379 -0.1411 -0.2121
  600MOL0     C79104  -2.584  -0.185   7.721 -0.7699  0.3663  0.3521
  600MOL0     C79105  -2.727  -0.213   7.740  0.2679  0.1427  0.0426
  600MOL0     C79106  -2.810  -0.090   7.703 -0.0651  0.3286 -0.5740
  600MOL0     C79107  -2.963  -0.117   7.720  0.2087  0.2534 -0.4295
  600MOL0     C79108  -3.049  -0.000   7.666 -0.2815  0.1420 -0.0796
  600MOL0     C79109  -3.198  -0.012   7.703 -0.2757  0.5100 -0.2896
  600MOL0     C79110  -3.274   0.098   7.640  0.0956 -0.5696 -0.6864
  600MOL0     C79111  -3.396   0.038   7.572 -0.6530  0.8073 -0.1593
  600MOL0    Cl79112  -3.337  -0.058   7.426 -0.1542  0.2170 -0.2502
  600MOL0     C79113  -2.295  -0.371   7.841  0.7384 -0.4710 -0.0129
  600MOL0     C79114  -2.156  -0.354   7.864 -0.1023  0.2799  0.5569
  600MOL0     O79115  -1.909  -0.026   7.858 -0.3677 -0.5764 -0.0988
  600MOL0     C79116  -1.638  -0.043   7.808 -0.0626 -0.1612 -0.6657
  600MOL0     C79117  -1.503  -0.039   7.800  0.5136  0.5873  1.1650
  600MOL0     N79118  -0.888   0.005   7.729  0.0204  0.2713  0.4099
  600MOL0     N79119  -0.793   0.094   7.718  0.4140 -0.0387  0.3203
  600MOL0     C79120   0.024   0.860   7.769 -0.8190 -0.0909  0.6694
  600MOL0     C79121   0.089   0.956   7.858  0.3207 -0.5578  0.3521
  600MOL0     C79122   0.212   1.261   8.142 -0.2711  0.2754  0.7399
  600MOL0     C79123   0.244   1.201   8.263  0.4310  0.0204 -0.4532
  600MOL0     C79124   0.341   1.254   8.348 -0.2569  0.1020 -0.9228
  600MOL0     C79125   0.408   1.376   8.317  0.0936 -0.3809 -0.5524
  600MOL0     O79126   0.502   1.422   8.409  0.4017 -0.5779 -0.4765
  600MOL0     C79127   0.506   1.566   8.424 -0.1714  0.3311 -0.4092
  600MOL0     C79128   0.642   1.611   8.387  0.7060 -0.4610 -0.0102
  600MOL0     C79129   0.747   1.571   8.494  0.7725  1.1102  0.1642
  600MOL0     C79130   0.895   1.572   8.456  0.8838  0.1268  0.0307
  600MOL0     C79131   0.930   1.704   8.397  0.2231 -0.3353  0.9890
  600MOL0     C79132   0.913   1.804   8.326 -0.9121  0.9987  0.0330
  600MOL0     C79133   0.371   1.442   8.197 -0.1569  0.4423  0.5415
  600MOL0     C79134   0.269   1.390   8.114  0.0535 -0.6803  0.1228
  600MOL0     H79135  -0.148   0.976   8.095  0.1943 -1.0161  0.4440
  600MOL0     H79136  -0.273   0.824   7.932  0.7897 -0.4531  2.1028
  600MOL0     H79137   0.030   0.614   7.724  1.2577 -2.4906 -1.3786
  600MOL0     H79138  -0.098   0.550   7.612 -1.4687 -2.3679  0.5722
  600MOL0     H79139  -0.249   0.484   7.788 -0.3161 -1.7569  3.2176
  600MOL0     H79140  -0.153   0.546   7.912 -0.7701 -0.3409 -0.2690
  600MOL0     H79141   0.026   0.372   7.885  0.8620 -0.4320  1.1093
  600MOL0     H79142  -0.088   0.290   7.766 -1.9037 -0.2460  0.8993
  600MOL0     H79143  -0.099   0.199   8.000 -0.7430 -0.5178 -0.1426
  600MOL0     H79144  -0.162   0.353   8.055 -0.1849 -1.8523  2.6213
  600MOL0     H79145  -0.366   0.318   7.954 -0.6575 -0.7116  1.5562
  600MOL0     H79146  -0.332   0.163   8.022  0.7883 -0.0936 -0.1982
  600MOL0     H79147  -0.239   0.096   7.788  2.1698  2.1411 -0.6227
  600MOL0     H79148  -0.304   0.226   7.719 -1.0710 -0.2604 -0.2358
  600MOL0     H79149  -0.477   0.048   7.694  1.2633 -1.1880  0.2274
  600MOL0     H79150  -0.472   0.009   7.866  0.3989  1.3796  1.7047
  600MOL0     H79151  -0.595   0.263   7.782  2.2025 -0.2781  0.2446
  600MOL0     H79152  -0.594   0.189   7.947 -2.7583 -1.1127  0.6484
  600MOL0     H79153  -0.700  -0.031   7.999  1.5528  3.8093  0.2856
  600MOL0     H79154  -0.901  -0.239   7.982 -3.9273  0.5634  5.3150
  600MOL0     H79155  -0.978  -0.248   7.822  0.5211  1.0112 -1.1717
  600MOL0     H79156  -1.056  -0.079   8.063 -0.1980 -0.2852  1.1522
  600MOL0     H79157  -1.146  -0.221   8.011 -2.0525  0.9635 -1.3926
  600MOL0     H79158  -1.254   0.001   7.936 -1.3130  0.2322 -2.2325
  600MOL0     H79159  -1.100   0.038   7.851 -0.0880  0.8226  2.4614
  600MOL0     H79160  -1.132  -0.131   7.702 -0.1107  2.5492  0.4689
  600MOL0     H79161  -1.270  -0.014   7.707 -0.1066  0.0007 -1.4113
  600MOL0     H79162  -1.470  -0.383   7.785 -1.3477 -0.2737 -0.2975
  600MOL0     H79163  -1.715  -0.367   7.790 -0.1524 -0.4787 -0.3386
  600MOL0     H79164  -2.108  -0.063   7.700 -0.0271 -0.8412  0.7776
  600MOL0     H79165  -2.346  -0.069   7.680 -0.0726 -0.0815 -1.1448
  600MOL0     H79166  -2.581  -0.161   7.614  0.1407  2.3891  0.7856
  600MOL0     H79167  -2.557  -0.093   7.773 -2.2377  0.1952  1.5053
  600MOL0     H79168  -2.741  -0.234   7.847  1.8090  1.6378  0.5723
  600MOL0     H79169  -2.742  -0.302   7.678  0.5265  0.5698 -0.6373
  600MOL0     H79170  -2.797  -0.068   7.597 -1.3658 -1.6757 -1.1985
  600MOL0     H79171  -2.776  -0.002   7.759  2.1178  0.5444 -2.1119
  600MOL0     H79172  -2.994  -0.201   7.658 -0.9888  0.5767 -0.2772
  600MOL0     H79173  -2.983  -0.134   7.827  0.0333 -0.2787 -0.5445
  600MOL0     H79174  -3.023   0.028   7.563  0.5000 -1.4454 -0.3461
  600MOL0     H79175  -3.015   0.089   7.720  1.8223  0.0874 -1.2079
  600MOL0     H79176  -3.218   0.012   7.808 -0.7172 -1.2936  0.0687
  600MOL0     H79177  -3.238  -0.112   7.688 -0.7908  0.9624 -2.2000
  600MOL0     H79178  -3.299   0.171   7.717  1.3994 -0.5077 -0.3010
  600MOL0     H79179  -3.211   0.148   7.566 -2.7829  2.1875 -1.5045
  600MOL0     H79180  -3.463   0.119   7.540 -2.1306 -0.7666 -1.1837
  600MOL0     H79181  -3.452  -0.033   7.633 -2.1753  0.6357 -1.6974
  600MOL0     H79182  -2.355  -0.459   7.863 -1.0161  0.5237 -0.6145
  600MOL0     H79183  -2.096  -0.431   7.912  0.5162  1.2371  1.3471
  600MOL0     H79184  -1.680   0.057   7.802 -3.0819 -0.7353  4.8601
  600MOL0     H79185  -1.452   0.055   7.781  1.0166  0.2143  0.6436
  600MOL0     H79186   0.078   0.822   7.683 -1.6401  1.0002 -0.3766
  600MOL0     H79187   0.179   1.008   7.826 -0.8205  1.3673  0.1308
  600MOL0     H79188   0.184   1.120   8.301  1.5180 -0.4807  0.2350
  600MOL0     H79189   0.351   1.214   8.449 -2.5510  0.7042 -0.3897
  600MOL0     H79190   0.501   1.586   8.532 -4.0730 -2.3604  0.0781
  600MOL0     H79191   0.427   1.618   8.369  1.0170  4.0972  1.1015
  600MOL0     H79192   0.677   1.576   8.289  0.0918  0.3004 -0.5101
  600MOL0     H79193   0.633   1.719   8.383  1.2698 -0.4019  0.2322
  600MOL0     H79194   0.717   1.472   8.529 -2.1763  1.8093 -0.1623
  600MOL0     H79195   0.737   1.628   8.587 -2.9843  0.5443  0.2577
  600MOL0     H79196   0.953   1.556   8.548 -1.8231 -2.8586  1.4034
  600MOL0     H79197   0.932   1.502   8.381  0.9193  0.5742 -0.3751
  600MOL0     H79198   0.913   1.890   8.261 -0.0888  0.6555 -0.4345
  600MOL0     H79199   0.435   1.525   8.170 -0.5361  0.3822 -0.6138
  600MOL0     H79200   0.251   1.440   8.020 -0.5522 -2.8881 -1.0064
  601MOL0     O79201   6.699   0.738   0.663 -0.0038  0.2091  0.1393
  601MOL0     C79202   6.704   0.751   0.537  1.1869  0.2332  0.8643
  601MOL0     O79203   6.593   0.766   0.456 -0.0765  0.0315  0.0622
  601MOL0     C79204   6.567   0.665   0.368  0.0306  0.1594 -0.3939
  601MOL0     C79205   6.616   0.528   0.365 -0.4349 -0.4615  0.5854
  601MOL0     C79206   6.556   0.446   0.259  0.0371  0.4643 -0.4601
  601MOL0     C79207   6.463   0.495   0.171 -0.1305 -0.4780  0.1188
  601MOL0     O79208   6.400   0.420   0.074 -0.3932  0.5451  0.3095
  601MOL0     C79209   6.268   0.370   0.117 -0.3522  0.0489  0.4456
  601MOL0     C79210   6.241   0.224   0.072 -0.0345  0.0118  0.6883
  601MOL0     C79211   6.094   0.207   0.096 -0.2518  0.4047  0.9868
  601MOL0     C79212   6.050   0.057   0.092  0.3205 -0.1279  0.2036
  601MOL0     C79213   5.898   0.054   0.100  0.0920 -0.0459 -0.3574
  601MOL0     C79214   5.841  -0.089   0.130 -0.5026 -0.5528  0.0040
  601MOL0     C79215   5.700  -0.065   0.170  1.0898  0.4975  0.8129
  601MOL0     C79216   5.617  -0.197   0.152  0.1079  0.2109  0.1014
  601MOL0     N79217   5.478  -0.185   0.200  0.2081 -0.2893 -0.1866
  601MOL0     C79218   5.436  -0.254   0.316 -0.0223  0.2337  0.4029
  601MOL0     C79219   5.305  -0.231   0.318  1.5117  0.8377 -0.7665
  601MOL0     C79220   5.217  -0.299   0.416  0.1050  0.2625 -0.1585
  601MOL0     C79221   5.254  -0.430   0.480 -0.9220  0.8142  0.1177
  601MOL0     C79222   5.300  -0.543   0.386  0.2068  0.2685 -0.5384
  601MOL0     C79223   5.345  -0.671   0.470 -0.1707  0.1330 -0.2307
  601MOL0     O79224   5.232  -0.749   0.515 -0.4138  0.8594 -1.2515
  601MOL0     C79225   5.136  -0.788   0.423 -0.3624 -0.6184  0.4516
  601MOL0     C79226   5.163  -0.814   0.283 -0.3607 -0.4579 -0.3896
  601MOL0     C79227   5.070  -0.869   0.197  0.4536  0.7284 -1.0693
  601MOL0     C79228   4.945  -0.913   0.256  0.1880 -0.6946  0.1471
  601MOL0     C79229   4.847  -0.976   0.173  0.7129 -0.4124  1.2587
  601MOL0     O79230   4.717  -0.953   0.198  0.3632  0.1957 -0.5947
  601MOL0     C79231   4.623  -1.044   0.164 -0.0866  0.2890  0.4269
  601MOL0     C79232   4.603  -1.082   0.025 -0.4519  0.2099 -0.1298
  601MOL0     C79233   4.507  -1.184  -0.009 -0.6583 -0.2182 -0.3306
  601MOL0     C79234   4.440  -1.244   0.098 -0.2605 -0.2336 -0.2394
  601MOL0     O79235   4.366  -1.348   0.057  0.5822 -0.1792  0.3646
  601MOL0     C79236   4.371  -1.481   0.128  0.4815 -0.6017 -0.1100
  601MOL0     C79237   4.236  -1.496   0.206  0.9646  0.0821  0.3191
  601MOL0     C79238   4.125  -1.530   0.108  0.0205 -0.6379  0.1127
  601MOL0     C79239   4.136  -1.680   0.078  0.0157  0.1699 -0.4158
  601MOL0     C79240   3.997  -1.739   0.038  0.7590  0.1449 -0.2784
  601MOL0     C79241   3.986  -1.889   0.059 -0.9166  0.0180 -0.2908
  601MOL0     C79242   3.845  -1.943   0.046  0.0368 -0.1813 -0.0270
  601MOL0     C79243   3.751  -1.878  -0.061  0.1129 -1.0043 -0.7139
  601MOL0    Cl79244   3.622  -1.990  -0.101  0.3420 -0.1278 -0.2707
  601MOL0     C79245   4.455  -1.209   0.231  0.3836  0.3048  0.4217
  601MOL0     C79246   4.550  -1.104   0.269  0.6984  0.4542  0.4658
  601MOL0     O79247   4.886  -1.038   0.081 -0.2876  0.9093  0.9114
  601MOL0     C79248   4.911  -0.877   0.389  0.4685 -0.7839  0.0955
  601MOL0     C79249   5.011  -0.818   0.468 -0.0924 -0.1443  0.6141
  601MOL0     N79250   5.267  -0.169   0.197  0.4200  0.3645 -0.3781
  601MOL0     N79251   5.369  -0.129   0.134  0.4149 -0.0500  0.4163
  601MOL0     C79252   6.429   0.633   0.176  0.0382  0.1109  0.4409
  601MOL0     C79253   6.482   0.716   0.271  0.5129 -0.0106 -0.6657
  601MOL0     C79254   6.831   0.751   0.475 -0.3819 -0.7564  0.1569
  601MOL0     C79255   6.935   0.670   0.523 -0.0815  0.0822 -0.0661
  601MOL0     C79256   7.057   0.656   0.450 -0.5650  0.0252  0.3391
  601MOL0     C79257   7.084   0.737   0.332  0.1521  0.4841 -0.4393
  601MOL0     O79258   7.192   0.727   0.255  0.6665 -0.0894  0.4362
  601MOL0     C79259   7.285   0.618   0.265  0.2276 -0.2264  0.2166
  601MOL0     C79260   7.387   0.631   0.375  0.1953  0.0170  0.1337
  601MOL0     C79261   7.467   0.761   0.378  0.5052 -0.2395 -0.0362
  601MOL0     C79262   7.397   0.884   0.446  0.4514  0.1767 -0.7281
  601MOL0     C79263   7.494   0.981   0.475  0.8402  0.0905 -0.2113
  601MOL0     C79264   7.580   1.051   0.514 -1.2283  0.5534  0.0381
  601MOL0     C79265   6.980   0.825   0.299 -0.6254 -0.5963  0.6326
  601MOL0     C79266   6.855   0.835   0.357 -0.2681 -0.2647  0.9290
  601MOL0     H79267   6.686   0.498   0.443  0.3567  0.9424  0.4406
  601MOL0     H79268   6.584   0.346   0.228 -3.1248 -0.0644 -2.0702
  601MOL0     H79269   6.195   0.430   0.061 -0.2946 -0.0942  0.2188
  601MOL0     H79270   6.254   0.377   0.225  2.0980  0.3720  0.7980
  601MOL0     H79271   6.299   0.157   0.136  0.9583 -1.8139 -1.9458
  601MOL0     H79272   6.259   0.203  -0.033 -0.7009 -1.6218  0.8637
  601MOL0     H79273   6.042   0.261   0.016 -0.2154  1.5551  1.7135
  601MOL0     H79274   6.060   0.240   0.194  0.6581 -1.5933  2.0292
  601MOL0     H79275   6.085   0.021  -0.005 -1.3330  1.1469 -0.9118
  601MOL0     H79276   6.087   0.015   0.187  0.6150  2.2245  1.1921
  601MOL0     H79277   5.861   0.081   0.000 -2.2928 -0.9599  0.2113
  601MOL0     H79278   5.855   0.129   0.166  2.6684 -0.3677  1.8612
  601MOL0     H79279   5.899  -0.137   0.209 -0.9253  2.6146  2.4021
  601MOL0     H79280   5.845  -0.141   0.033 -1.9302  2.0669 -1.5841
  601MOL0     H79281   5.695  -0.033   0.274 -0.4728 -1.0122  1.2455
  601MOL0     H79282   5.647   0.009   0.108 -0.9378 -0.7427  0.9738
  601MOL0     H79283   5.660  -0.276   0.214 -2.1049 -0.3091  1.0873
  601MOL0     H79284   5.622  -0.226   0.047  2.8694  0.5452  0.0753
  601MOL0     H79285   5.500  -0.315   0.378 -0.1138 -1.5847 -1.2200
  601MOL0     H79286   5.119  -0.310   0.370 -0.9709  0.0497  2.0173
  601MOL0     H79287   5.206  -0.237   0.506  3.1525  1.7098 -0.6606
  601MOL0     H79288   5.179  -0.458   0.555 -0.1097 -0.9051  0.3223
  601MOL0     H79289   5.345  -0.411   0.538 -0.9294 -2.1417  1.2409
  601MOL0     H79290   5.213  -0.565   0.324  0.4807 -0.0814 -0.7978
  601MOL0     H79291   5.376  -0.513   0.313 -1.2469  2.6900 -1.1749
  601MOL0     H79292   5.396  -0.641   0.562  4.1326 -1.0854 -1.9705
  601MOL0     H79293   5.424  -0.729   0.422  1.1539  2.1418 -0.6086
  601MOL0     H79294   5.264  -0.780   0.258  0.8353 -1.3415  2.7145
  601MOL0     H79295   5.096  -0.891   0.095  1.3222 -0.4646 -0.6034
  601MOL0     H79296   4.652  -1.034  -0.059 -1.2877 -0.6952 -1.1674
  601MOL0     H79297   4.490  -1.221  -0.109  3.8429 -0.2095 -1.3335
  601MOL0     H79298   4.458  -1.490   0.193 -1.4034 -3.8824  2.2511
  601MOL0     H79299   4.376  -1.554   0.047  1.9474 -0.0740 -0.5316
  601MOL0     H79300   4.217  -1.411   0.271 -2.6485 -0.1325 -0.2836
  601MOL0     H79301   4.249  -1.578   0.277 -0.0750 -0.3023  0.0782
  601MOL0     H79302   4.130  -1.468   0.018  1.3442 -0.5419  0.2397
  601MOL0     H79303   4.031  -1.510   0.161 -0.2874 -1.4333 -0.1168
  601MOL0     H79304   4.205  -1.688  -0.007  1.2791  2.2299  0.3560
  601MOL0     H79305   4.178  -1.733   0.164  2.3982  2.1551 -0.2454
  601MOL0     H79306   3.981  -1.736  -0.070 -0.4563 -1.0006 -0.1556
  601MOL0     H79307   3.922  -1.679   0.090 -0.2648  0.1511 -1.7105
  601MOL0     H79308   4.029  -1.909   0.158 -0.0451  1.7213 -0.2835
  601MOL0     H79309   4.061  -1.929  -0.010  2.1658 -2.6916  4.1001
  601MOL0     H79310   3.861  -2.048   0.016 -0.5032 -0.1763 -0.3606
  601MOL0     H79311   3.783  -1.954   0.135 -0.1576  0.1401 -0.1226
  601MOL0     H79312   3.817  -1.858  -0.146  1.4075  3.7785  1.0669
  601MOL0     H79313   3.711  -1.786  -0.018 -0.8910 -1.7094 -0.1073
  601MOL0     H79314   4.396  -1.252   0.311  1.8220  0.5236  1.6332
  601MOL0     H79315   4.563  -1.081   0.375  1.0224  0.9242  0.3280
  601MOL0     H79316   4.813  -0.908   0.427  0.2745 -0.0972  0.1718
  601MOL0     H79317   4.985  -0.798   0.571  2.5400 -4.0277  2.2744
  601MOL0     H79318   6.350   0.668   0.110 -0.1712 -1.3148 -0.1064
  601MOL0     H79319   6.452   0.820   0.275 -0.9436 -0.4215 -0.2179
  601MOL0     H79320   6.925   0.619   0.618  0.6547  2.3818  1.3042
  601MOL0     H79321   7.126   0.580   0.485 -1.0835  0.7698  3.2374
  601MOL0     H79322   7.346   0.614   0.175 -0.2748  1.9672 -0.2654
  601MOL0     H79323   7.230   0.523   0.256  2.5182 -1.6981  0.9369
  601MOL0     H79324   7.341   0.605   0.471 -0.0635  0.5692  0.1641
  601MOL0     H79325   7.454   0.545   0.370  1.6783  1.0469  1.2545
  601MOL0     H79326   7.470   0.782   0.270  1.0785 -3.0412 -0.6622
  601MOL0     H79327   7.568   0.740   0.415 -0.0353 -1.5428  0.7770
  601MOL0     H79328   7.328   0.925   0.371  0.7401  0.1272 -1.0220
  601MOL0     H79329   7.339   0.853   0.534  0.7129 -0.2425 -0.6981
  601MOL0     H79330   7.649   1.125   0.547  1.4803 -2.1254  0.8362
  601MOL0     H79331   7.000   0.883   0.209 -1.2679 -0.3884  0.6174
  601MOL0     H79332   6.778   0.898   0.314  0.4170  0.6326  0.9870
  602MOL0     O79333   2.248   2.079   2.473  0.3185  0.2904  0.1026
  602MOL0     C79334   2.303   2.103   2.368  0.0998  0.5007 -0.4203
  602MOL0     O79335   2.242   2.165   2.261 -0.1290 -0.0838 -0.5595
  602MOL0     C79336   2.103   2.188   2.247  0.0049  0.4605  1.0216
  602MOL0     C79337   2.001   2.118   2.302  0.1337  0.0653 -0.3388
  602MOL0     C79338   1.864   2.144   2.269 -0.0135  0.6491 -0.3326
  602MOL0     C79339   1.835   2.251   2.190 -0.2112  0.2355  0.4077
  602MOL0     O79340   1.700   2.261   2.159 -0.5344  0.5856 -0.9369
  602MOL0     C79341   1.648   2.352   2.070  1.0387  0.0054  1.3871
  602MOL0     C79342   1.498   2.371   2.089 -0.5177 -0.0489 -0.5431
  602MOL0     C79343   1.438   2.460   1.983  0.5664 -0.1626 -0.0674
  602MOL0     C79344   1.280   2.463   2.016 -0.0106  0.3148 -0.0420
  602MOL0     C79345   1.202   2.581   1.958 -0.0442 -0.3824 -0.8674
  602MOL0     C79346   1.246   2.642   1.827 -0.2425  0.0417  0.9018
  602MOL0     C79347   1.244   2.541   1.709 -0.5739  0.0970  0.1610
  602MOL0     C79348   1.311   2.589   1.577  0.0961  0.6787 -0.6725
  602MOL0     N79349   1.252   2.516   1.454  0.2758 -0.1099  0.0562
  602MOL0     C79350   1.190   2.393   1.448  0.6576 -0.0042  0.0337
  602MOL0     C79351   1.101   2.408   1.352  0.4686  0.1688  1.1945
  602MOL0     C79352   1.008   2.299   1.286  0.2134  0.4356  0.6616
  602MOL0     C79353   0.873   2.275   1.369 -0.4708  0.8188  0.5583
  602MOL0     C79354   0.779   2.165   1.311  0.8224  0.1586 -0.1615
  602MOL0     C79355   0.646   2.149   1.392 -0.0969 -0.1432  0.5963
  602MOL0     O79356   0.560   2.258   1.364  0.8436 -0.5675  1.0094
  602MOL0     C79357   0.428   2.237   1.382 -0.1977 -1.1234  0.3442
  602MOL0     C79358   0.353   2.350   1.342  0.4715 -0.6303  0.1572
  602MOL0     C79359   0.214   2.346   1.338  0.4280  0.4081  0.6153
  602MOL0     C79360   0.149   2.219   1.359 -0.0293  1.4808 -0.2821
  602MOL0     C79361   0.005   2.190   1.334  0.4910 -0.6006 -0.2598
  602MOL0     O79362  -0.062   2.272   1.243  0.6104 -0.8422 -0.3673
  602MOL0     C79363  -0.178   2.225   1.185  0.2325 -0.2687 -0.2999
  602MOL0     C79364  -0.202   2.097   1.135 -0.5132  0.6007  0.9158
  602MOL0     C79365  -0.319   2.061   1.071 -0.2908 -1.0374  0.6954
  602MOL0     C79366  -0.410   2.162   1.043 -1.1943 -0.6431 -0.1138
  602MOL0     O79367  -0.509   2.115   0.962 -0.0974  0.6079 -0.1011
  602MOL0     C79368  -0.626   2.181   0.942  0.5532 -0.8319 -0.9443
  602MOL0     C79369  -0.708   2.211   1.065 -0.2282  0.2699  0.7286
  602MOL0     C79370  -0.753   2.083   1.138 -0.8851  0.1461  0.4227
  602MOL0     C79371  -0.884   2.026   1.077 -0.7036 -0.1157 -0.1037
  602MOL0     C79372  -0.936   1.908   1.159 -0.2540  0.2056 -0.3077
  602MOL0     C79373  -1.007   1.953   1.285  0.7156 -0.4825  0.5339
  602MOL0     C79374  -1.068   1.824   1.353 -0.4269 -0.0618  0.2497
  602MOL0     C79375  -1.142   1.845   1.486 -1.5911 -0.2645 -0.4335
  602MOL0    Cl79376  -1.245   1.717   1.524 -0.0631  0.6645  0.1676
  602MOL0     C79377  -0.384   2.299   1.076 -0.4855  0.2529 -0.0481
  602MOL0     C79378  -0.270   2.328   1.153 -0.2210  0.4392 -0.3987
  602MOL0     O79379  -0.052   2.102   1.400  0.1460  0.6082 -0.0235
  602MOL0     C79380   0.222   2.112   1.411 -0.4881  0.0952 -1.4257
  602MOL0     C79381   0.360   2.116   1.420 -0.0393 -0.2017 -0.4145
  602MOL0     N79382   1.095   2.543   1.311 -0.4012  0.2070  0.1658
  602MOL0     N79383   1.190   2.603   1.371 -0.0759 -0.7840  0.8389
  602MOL0     C79384   1.937   2.327   2.140  0.4771  0.2033 -0.2401
  602MOL0     C79385   2.070   2.291   2.166  0.1145 -0.2435 -0.4860
  602MOL0     C79386   2.455   2.095   2.370  0.9874  0.3491 -0.1644
  602MOL0     C79387   2.511   2.048   2.488 -0.0751 -0.2264 -0.3644
  602MOL0     C79388   2.643   2.016   2.479  0.3684  0.4451  0.5134
  602MOL0     C79389   2.711   2.034   2.362 -0.2419  0.2412 -0.1972
  602MOL0     O79390   2.845   2.009   2.346 -0.9853  0.6508 -0.0214
  602MOL0     C79391   2.909   1.934   2.456  0.2311  0.4032 -0.3047
  602MOL0     C79392   3.054   1.899   2.412  0.0273 -0.0364 -0.3699
  602MOL0     C79393   3.132   2.031   2.434  0.2985  0.0036 -0.2089
  602MOL0     C79394   3.273   2.004   2.383 -0.7992 -0.1173  0.4189
  602MOL0     C79395   3.345   1.917   2.469 -0.7204 -0.4907 -0.0441
  602MOL0     C79396   3.398   1.839   2.550 -0.2608  0.5256 -0.5455
  602MOL0     C79397   2.653   2.106   2.254 -0.2288  1.2770 -0.2504
  602MOL0     C79398   2.526   2.130   2.257  0.4790  1.0279 -0.0056
  602MOL0     H79399   2.021   2.040   2.376 -1.7335 -2.4479 -2.2793
  602MOL0     H79400   1.782   2.079   2.300  0.7089 -1.4407 -2.5259
  602MOL0     H79401   1.664   2.309   1.971  3.0929  0.0365  1.6551
  602MOL0     H79402   1.699   2.448   2.057  0.8664 -0.1804 -1.1445
  602MOL0     H79403   1.493   2.416   2.188  2.1772  1.6400 -1.0577
  602MOL0     H79404   1.440   2.279   2.091 -0.5346 -0.0641  2.4784
  602MOL0     H79405   1.455   2.417   1.884 -2.6648  0.9234 -1.2228
  602MOL0     H79406   1.487   2.558   1.985  1.6508 -0.7081  1.4088
  602MOL0     H79407   1.248   2.370   1.968 -0.5228  0.2197  0.4800
  602MOL0     H79408   1.249   2.446   2.119  1.2282  3.1465  0.8944
  602MOL0     H79409   1.210   2.671   2.019  0.0851 -0.8983 -0.1049
  602MOL0     H79410   1.098   2.545   1.954  0.8629 -3.4991  0.8365
  602MOL0     H79411   1.347   2.683   1.839  1.6236 -3.4588 -1.2143
  602MOL0     H79412   1.178   2.725   1.806 -0.6806 -0.2885  1.0072
  602MOL0     H79413   1.296   2.449   1.739 -1.0738 -0.7585 -1.4397
  602MOL0     H79414   1.137   2.524   1.691 -0.6629 -0.9537  1.4710
  602MOL0     H79415   1.419   2.576   1.584  0.1181  0.3615 -1.5466
  602MOL0     H79416   1.283   2.695   1.576 -1.5327  0.2786 -0.1743
  602MOL0     H79417   1.203   2.308   1.514  3.7867  0.8674  0.6980
  602MOL0     H79418   1.070   2.209   1.290 -0.7923 -0.2856  0.5510
  602MOL0     H79419   0.991   2.310   1.178  1.0760 -1.8682  0.2355
  602MOL0     H79420   0.817   2.369   1.361 -1.3807  0.2239 -0.2756
  602MOL0     H79421   0.904   2.254   1.472  1.0937 -2.9700 -0.5254
  602MOL0     H79422   0.747   2.197   1.212  0.6842 -1.3324 -0.6216
  602MOL0     H79423   0.833   2.070   1.310  1.5551  0.5138  1.6468
  602MOL0     H79424   0.644   2.143   1.502 -3.9224 -0.7798  0.6233
  602MOL0     H79425   0.597   2.058   1.356 -3.7008  2.1716 -0.8939
  602MOL0     H79426   0.398   2.448   1.329 -2.4639  1.4079  3.3950
  602MOL0     H79427   0.154   2.428   1.301  1.5739  0.7197 -0.5964
  602MOL0     H79428  -0.127   2.020   1.154  1.8631  2.9462  1.7319
  602MOL0     H79429  -0.337   1.959   1.037  1.8353 -2.1733  2.6662
  602MOL0     H79430  -0.683   2.127   0.866  0.6317  1.0985 -2.4679
  602MOL0     H79431  -0.598   2.279   0.902  1.1540 -0.5909  0.0240
  602MOL0     H79432  -0.789   2.280   1.039  0.7285  0.9538 -0.5344
  602MOL0     H79433  -0.650   2.261   1.143  2.0588 -1.0177 -0.0457
  602MOL0     H79434  -0.771   2.116   1.241  0.1356  1.5069  0.1933
  602MOL0     H79435  -0.671   2.011   1.140 -0.8055  0.1371 -1.4554
  602MOL0     H79436  -0.959   2.100   1.048 -0.1227 -0.2818 -2.2266
  602MOL0     H79437  -0.851   1.983   0.982 -2.9572 -5.5628  1.2285
  602MOL0     H79438  -0.847   1.849   1.185 -0.7858  0.4481  2.2935
  602MOL0     H79439  -1.003   1.849   1.096 -1.3313 -0.3924  1.3333
  602MOL0     H79440  -1.082   2.030   1.263  0.7048 -0.4960  0.5205
  602MOL0     H79441  -0.947   2.004   1.361 -2.1631  1.1774  1.8786
  602MOL0     H79442  -1.133   1.770   1.284 -1.5169 -2.4716  2.9623
  602MOL0     H79443  -0.989   1.754   1.381  1.6158  1.4155 -1.4557
  602MOL0     H79444  -1.215   1.925   1.476 -2.1248 -0.3374  2.2422
  602MOL0     H79445  -1.066   1.864   1.563 -1.8670 -0.9052  0.0083
  602MOL0     H79446  -0.449   2.381   1.051  0.9065  1.7562  1.0570
  602MOL0     H79447  -0.239   2.428   1.178 -2.6085  1.2494 -0.4293
  602MOL0     H79448   0.178   2.021   1.451 -2.0979  1.1493 -0.7179
  602MOL0     H79449   0.402   2.023   1.455  0.9451  0.7262  0.9996
  602MOL0     H79450   1.904   2.411   2.080 -3.2851  0.4510  1.8629
  602MOL0     H79451   2.145   2.359   2.127  0.0445  1.6369  2.3745
  602MOL0     H79452   2.458   2.034   2.582  0.9978 -3.1015 -0.0916
  602MOL0     H79453   2.694   1.985   2.570 -0.5472 -0.3057  0.7849
  602MOL0     H79454   2.856   1.842   2.484  2.3447 -1.8729 -3.1208
  602MOL0     H79455   2.924   1.990   2.549 -0.2597 -0.7641  0.5036
  602MOL0     H79456   3.099   1.814   2.464  0.7444 -1.3928 -3.0369
  602MOL0     H79457   3.056   1.875   2.305  1.4695 -2.2087  0.0833
  602MOL0     H79458   3.144   2.068   2.537  2.3349  0.0730 -0.4247
  602MOL0     H79459   3.086   2.120   2.391  0.7228  0.5218  0.3819
  602MOL0     H79460   3.267   1.962   2.282 -1.5906 -0.4420  0.5946
  602MOL0     H79461   3.320   2.103   2.381 -3.0180  0.9895  0.0118
  602MOL0     H79462   3.442   1.758   2.605 -0.9605 -1.0151 -2.1765
  602MOL0     H79463   2.718   2.140   2.174 -1.5428  0.3419 -1.7533
  602MOL0     H79464   2.480   2.177   2.170 -0.5814  2.7874  1.4131
  603MOL0     O79465   0.333   8.557   1.640 -0.1698  0.1020  0.1496
  603MOL0     C79466   0.404   8.658   1.660 -0.3402  0.0896 -0.2729
  603MOL0     O79467   0.368   8.759   1.739 -0.4820 -0.2214 -0.3616
  603MOL0     C79468   0.230   8.776   1.765  0.2268 -0.4230  0.9951
  603MOL0     C79469   0.194   8.825   1.892  0.0416 -0.7130  0.6686
  603MOL0     C79470   0.064   8.876   1.917  0.0280 -0.7360  0.7229
  603MOL0     C79471  -0.022   8.894   1.808  0.4354  0.5260 -0.4240
  603MOL0     O79472  -0.151   8.948   1.821 -1.0782  0.0018  0.0073
  603MOL0     C79473  -0.172   9.064   1.908  0.5918 -0.7166  0.3807
  603MOL0     C79474  -0.238   9.175   1.813 -0.1020  0.2605 -0.3114
  603MOL0     C79475  -0.132   9.288   1.784 -0.7332 -0.0815 -0.2721
  603MOL0     C79476  -0.078   9.367   1.905  0.2173  0.4059  0.0182
  603MOL0     C79477   0.048   9.446   1.885 -1.2491  0.0494  0.3559
  603MOL0     C79478   0.093   9.505   2.018  0.1653 -0.1371 -0.1790
  603MOL0     C79479   0.205   9.603   1.992 -0.1503  1.7489  0.7906
  603MOL0     C79480   0.265   9.650   2.117  0.8658 -0.6528  0.4429
  603MOL0     N79481   0.386   9.738   2.096  0.0126 -0.3987  0.5704
  603MOL0     C79482   0.506   9.721   2.034  1.2065  0.1439  0.0092
  603MOL0     C79483   0.589   9.809   2.085 -0.3006 -0.0462  0.0723
  603MOL0     C79484   0.744   9.788   2.062  0.4507  0.3485 -0.2835
  603MOL0     C79485   0.814   9.896   1.986 -0.1732  0.0670 -0.2751
  603MOL0     C79486   0.776   9.888   1.836 -0.2779 -0.4538 -0.2766
  603MOL0     C79487   0.894   9.865   1.741 -0.1841  1.0565 -0.6192
  603MOL0     O79488   1.013   9.933   1.788 -0.3903 -0.2499  1.4776
  603MOL0     C79489   1.081  10.017   1.710  0.6138 -0.2843  0.1640
  603MOL0     C79490   1.071  10.156   1.730  0.2816 -0.0908  0.0496
  603MOL0     C79491   1.151  10.248   1.664  0.1989 -0.9367 -0.1722
  603MOL0     C79492   1.240  10.200   1.568 -0.9151 -0.8104  0.3275
  603MOL0     C79493   1.339  10.300   1.506 -0.1539 -0.3197 -0.6348
  603MOL0     O79494   1.431  10.243   1.421 -0.0966  0.2017  0.7881
  603MOL0     C79495   1.516  10.317   1.337  0.2729  0.3955  0.4227
  603MOL0     C79496   1.510  10.455   1.308 -0.9095 -0.6344 -0.1915
  603MOL0     C79497   1.607  10.515   1.229 -0.3530  0.8848  0.3373
  603MOL0     C79498   1.713  10.442   1.170  0.5175  0.3285  0.1900
  603MOL0     O79499   1.794  10.504   1.082  0.0259 -0.4996  0.1154
  603MOL0     C79500   1.849  10.418   0.989 -0.0275 -0.7956 -1.0789
  603MOL0     C79501   1.908  10.513   0.883 -0.7627 -0.2036 -0.2659
  603MOL0     C79502   2.009  10.443   0.794  0.1011  0.1895  0.6712
  603MOL0     C79503   2.060  10.531   0.681  0.1864  0.4737 -0.0668
  603MOL0     C79504   2.171  10.454   0.617 -0.2002  1.0300  0.0462
  603MOL0     C79505   2.208  10.529   0.493  1.0414  0.0458  0.2950
  603MOL0     C79506   2.332  10.463   0.422 -0.3823 -0.7159  0.1328
  603MOL0     C79507   2.301  10.318   0.383 -0.4124 -0.6258 -0.9646
  603MOL0    Cl79508   2.450  10.272   0.286 -0.0431  0.1712 -0.0422
  603MOL0     C79509   1.706  10.303   1.186 -0.5079  0.1618 -0.3316
  603MOL0     C79510   1.609  10.243   1.262 -0.8161 -0.8117 -0.5176
  603MOL0     O79511   1.347  10.413   1.557 -0.7627  0.0803 -0.6875
  603MOL0     C79512   1.248  10.059   1.541 -0.1517  0.0664 -0.2653
  603MOL0     C79513   1.166   9.971   1.609 -0.2304  0.2928 -0.2618
  603MOL0     N79514   0.519   9.900   2.163  0.7242 -0.1839 -0.5659
  603MOL0     N79515   0.399   9.853   2.158  1.3721 -0.2762  0.3823
  603MOL0     C79516   0.009   8.840   1.687 -0.5820  0.3584 -0.1612
  603MOL0     C79517   0.136   8.778   1.659  0.2777 -0.0094 -0.5081
  603MOL0     C79518   0.529   8.667   1.583  0.2947  0.0234  0.3537
  603MOL0     C79519   0.584   8.795   1.562  0.6680  0.3606  0.1318
  603MOL0     C79520   0.703   8.813   1.490  0.1635  0.8576 -0.8648
  603MOL0     C79521   0.771   8.700   1.446  0.0027  0.0900 -0.0135
  603MOL0     O79522   0.902   8.716   1.416 -0.0684 -0.1084  0.2305
  603MOL0     C79523   0.987   8.616   1.363  0.3582  0.2623 -0.6494
  603MOL0     C79524   0.953   8.573   1.218  0.0100 -0.4847 -0.7748
  603MOL0     C79525   1.074   8.495   1.157  0.3272 -0.5227 -0.1615
  603MOL0     C79526   1.206   8.562   1.125 -0.3500 -0.0394 -0.0738
  603MOL0     C79527   1.179   8.680   1.041 -1.0288  0.1696  0.1551
  603MOL0     C79528   1.157   8.783   0.989 -0.0743  0.3086 -0.3802
  603MOL0     C79529   0.707   8.569   1.455 -0.4831 -0.3789  0.1092
  603MOL0     C79530   0.587   8.553   1.533  0.6715  0.8335  0.1976
  603MOL0     H79531   0.277   8.822   1.963  1.5790 -0.4943 -1.0311
  603MOL0     H79532   0.038   8.908   2.018 -0.6080  0.8266  0.0760
  603MOL0     H79533  -0.086   9.099   1.965 -1.0552 -0.0071  2.5878
  603MOL0     H79534  -0.254   9.046   1.978 -0.5533  2.9939  0.2095
  603MOL0     H79535  -0.329   9.219   1.854 -0.9320 -1.1536 -0.5763
  603MOL0     H79536  -0.262   9.137   1.713  2.4646  0.9188 -1.2561
  603MOL0     H79537  -0.177   9.364   1.720  0.5083 -0.6044 -1.8202
  603MOL0     H79538  -0.042   9.237   1.748  0.1717  0.0239  1.6904
  603MOL0     H79539  -0.159   9.435   1.934  0.0308  0.4723 -0.6493
  603MOL0     H79540  -0.063   9.298   1.988 -3.6432 -0.3427  0.2733
  603MOL0     H79541   0.029   9.531   1.818  1.3782 -0.1964 -0.8349
  603MOL0     H79542   0.127   9.381   1.847 -0.5986 -0.1393  1.9495
  603MOL0     H79543   0.117   9.425   2.089 -1.4889 -0.5923 -0.0923
  603MOL0     H79544   0.005   9.553   2.062  1.5878 -0.6186  3.5377
  603MOL0     H79545   0.275   9.549   1.928  0.0203  2.3529  0.4627
  603MOL0     H79546   0.162   9.683   1.931 -0.1666  0.8413 -0.4196
  603MOL0     H79547   0.315   9.572   2.176  1.8827 -2.2868 -2.3652
  603MOL0     H79548   0.176   9.692   2.164 -2.2025 -5.0467 -0.7819
  603MOL0     H79549   0.547   9.637   1.977  0.6745 -1.0545  1.3324
  603MOL0     H79550   0.759   9.694   2.009  0.4002  1.3056 -2.0841
  603MOL0     H79551   0.781   9.783   2.165 -0.9199  0.7440  0.2547
  603MOL0     H79552   0.920   9.873   2.002  0.6256  1.9988 -2.2150
  603MOL0     H79553   0.794   9.997   2.022  2.8615  0.5985  0.1735
  603MOL0     H79554   0.704   9.807   1.818 -0.8075  0.1638 -1.0710
  603MOL0     H79555   0.723   9.981   1.810 -0.1723  0.0115  1.1047
  603MOL0     H79556   0.880   9.886   1.634 -0.6437  1.6100 -0.4537
  603MOL0     H79557   0.914   9.759   1.759 -1.0387  1.3464  2.6240
  603MOL0     H79558   1.004  10.186   1.810  0.6148 -4.0366  2.0520
  603MOL0     H79559   1.146  10.355   1.678  3.8218 -0.1498 -3.2001
  603MOL0     H79560   1.432  10.515   1.354  2.0740  3.0843  0.4969
  603MOL0     H79561   1.589  10.622   1.220  0.2716  1.1402  1.7614
  603MOL0     H79562   1.786  10.346   0.937 -0.9300 -0.3254 -0.6573
  603MOL0     H79563   1.924  10.364   1.047  0.3324 -1.5363 -2.2158
  603MOL0     H79564   1.954  10.600   0.930 -0.1183 -1.1856  0.9791
  603MOL0     H79565   1.828  10.561   0.825 -1.7756  1.9489  2.6788
  603MOL0     H79566   1.949  10.362   0.753 -1.5498  0.8069  1.7837
  603MOL0     H79567   2.093  10.400   0.850  0.8857  1.1906  0.3056
  603MOL0     H79568   1.981  10.553   0.608  0.2747  3.0719  0.5284
  603MOL0     H79569   2.085  10.629   0.722  0.8972  0.9530 -1.5756
  603MOL0     H79570   2.147  10.352   0.585 -0.0709  0.5872  1.2940
  603MOL0     H79571   2.254  10.447   0.689 -0.6036 -1.5124  0.3649
  603MOL0     H79572   2.217  10.633   0.526  1.8963  0.6624 -1.7537
  603MOL0     H79573   2.126  10.542   0.422  0.5729  1.6929  1.0899
  603MOL0     H79574   2.352  10.523   0.332  0.5381  1.1539  1.4951
  603MOL0     H79575   2.414  10.465   0.494 -0.5177  1.1380  0.2802
  603MOL0     H79576   2.207  10.308   0.328 -1.4171 -2.0556  0.8533
  603MOL0     H79577   2.311  10.253   0.471  1.2775 -0.7377 -1.2210
  603MOL0     H79578   1.773  10.231   1.141 -1.3340 -1.2181  0.5661
  603MOL0     H79579   1.619  10.137   1.283 -0.7181 -0.1766  3.2497
  603MOL0     H79580   1.309  10.022   1.459 -0.7008 -2.0635  0.2140
  603MOL0     H79581   1.163   9.865   1.585 -0.6647 -0.2468  1.9414
  603MOL0     H79582  -0.065   8.847   1.608 -1.5082 -1.7067  0.4404
  603MOL0     H79583   0.155   8.742   1.558  0.1082 -1.8578  0.0844
  603MOL0     H79584   0.540   8.883   1.608 -0.7834 -0.3418  0.1494
  603MOL0     H79585   0.754   8.908   1.478  0.8845  0.2848 -2.6484
  603MOL0     H79586   0.961   8.527   1.422 -2.4568  3.2191  3.0578
  603MOL0     H79587   1.092   8.646   1.370  0.5251 -0.4583  0.1083
  603MOL0     H79588   0.866   8.508   1.207  0.1769 -0.3488 -3.5544
  603MOL0     H79589   0.930   8.661   1.157  0.3658  0.7727  0.8093
  603MOL0     H79590   1.034   8.455   1.063  0.0472 -0.4383 -0.0807
  603MOL0     H79591   1.095   8.408   1.219  4.0449 -0.2231 -0.7879
  603MOL0     H79592   1.257   8.590   1.217 -2.0921 -1.9397  1.5461
  603MOL0     H79593   1.266   8.489   1.070 -1.0998 -0.4329 -0.3914
  603MOL0     H79594   1.131   8.874   0.940  1.7230 -0.2208 -2.4604
  603MOL0     H79595   0.760   8.479   1.424  1.5907 -0.0105  2.2120
  603MOL0     H79596   0.553   8.452   1.554  3.6468 -0.8287 -2.2020
  604MOL0     O79597   2.856   2.616   0.238 -0.2796  0.9651 -0.3725
  604MOL0     C79598   2.896   2.507   0.273  0.0651  0.1410  0.5964
  604MOL0     O79599   2.814   2.407   0.310 -0.2156  0.4719  0.1270
  604MOL0     C79600   2.676   2.413   0.276  0.8654 -0.2789  0.4964
  604MOL0     C79601   2.616   2.295   0.223 -0.3861 -0.3940  0.4076
  604MOL0     C79602   2.474   2.291   0.190 -1.0309  0.2114 -0.4333
  604MOL0     C79603   2.396   2.403   0.195  0.7663  0.1906 -0.7201
  604MOL0     O79604   2.261   2.400   0.165  0.0617 -0.5189 -0.6807
  604MOL0     C79605   2.203   2.303   0.077  0.7145 -0.4697 -0.9769
  604MOL0     C79606   2.079   2.372   0.019 -1.1087  0.7162 -0.2649
  604MOL0     C79607   2.001   2.291  -0.090  0.2109  0.3922 -0.4145
  604MOL0     C79608   1.848   2.310  -0.088 -0.0174 -0.4153  0.4425
  604MOL0     C79609   1.784   2.253  -0.214  0.1693 -0.6491 -0.7561
  604MOL0     C79610   1.667   2.163  -0.204  0.3884 -0.0432  0.3741
  604MOL0     C79611   1.690   2.029  -0.145 -1.0167 -0.5434  0.2401
  604MOL0     C79612   1.614   1.923  -0.220  0.2076 -0.2569  0.6965
  604MOL0     N79613   1.598   1.819  -0.123  0.4118  0.6271 -0.1942
  604MOL0     C79614   1.514   1.832  -0.015 -0.8647 -0.0109  0.4202
  604MOL0     C79615   1.531   1.723   0.070  0.1445  0.2127  0.3777
  604MOL0     C79616   1.445   1.690   0.200 -0.1537  0.1181  0.4043
  604MOL0     C79617   1.303   1.622   0.155 -0.3949  0.2118 -0.3850
  604MOL0     C79618   1.212   1.626   0.275 -0.0133 -0.2612 -0.7811
  604MOL0     C79619   1.108   1.743   0.259 -0.2666  0.4891 -0.4264
  604MOL0     O79620   1.171   1.870   0.211  0.3092 -0.5068  0.0502
  604MOL0     C79621   1.089   1.959   0.152 -0.6601 -0.2006 -0.0468
  604MOL0     C79622   1.154   2.055   0.066  0.5083 -0.0271  0.1896
  604MOL0     C79623   1.066   2.151   0.008 -0.5808 -0.8291 -0.1944
  604MOL0     C79624   0.921   2.152   0.022  0.7377  0.9157  0.3553
  604MOL0     C79625   0.833   2.255  -0.048 -0.5549 -0.7361  0.0462
  604MOL0     O79626   0.711   2.269   0.000  0.1375 -0.2280 -0.5325
  604MOL0     C79627   0.615   2.337  -0.057 -1.0293  0.2623 -0.2318
  604MOL0     C79628   0.514   2.375   0.029  0.2610 -0.6823 -0.4483
  604MOL0     C79629   0.404   2.448  -0.012 -0.2593 -0.1478 -0.7702
  604MOL0     C79630   0.395   2.494  -0.148 -0.3367 -0.5138  0.5873
  604MOL0     O79631   0.288   2.559  -0.209  0.1705  0.3377 -0.2560
  604MOL0     C79632   0.205   2.639  -0.121 -0.5480  0.5773 -0.3266
  604MOL0     C79633   0.116   2.712  -0.218 -0.4622 -0.1923 -0.0093
  604MOL0     C79634   0.052   2.604  -0.309  0.7986 -0.3474  0.1223
  604MOL0     C79635  -0.093   2.655  -0.352 -0.8298 -0.5846 -0.4913
  604MOL0     C79636  -0.200   2.607  -0.250  0.6804 -0.9562 -0.7628
  604MOL0     C79637  -0.320   2.704  -0.233  0.5550  0.4913 -0.0491
  604MOL0     C79638  -0.280   2.851  -0.202 -0.0579 -0.4397  0.5259
  604MOL0     C79639  -0.390   2.951  -0.163  0.0438 -0.2142  0.3443
  604MOL0    Cl79640  -0.330   3.111  -0.128 -0.2190 -0.4017 -0.2150
  604MOL0     C79641   0.493   2.442  -0.246 -0.1655 -0.3878 -0.8968
  604MOL0     C79642   0.608   2.360  -0.199 -0.2961 -0.4922  0.0110
  604MOL0     O79643   0.887   2.323  -0.135 -0.5772 -0.0703 -0.5815
  604MOL0     C79644   0.865   2.045   0.095 -0.1979  0.0385  0.1872
  604MOL0     C79645   0.944   1.966   0.169  0.5647  1.1238  0.4675
  604MOL0     N79646   1.629   1.647   0.002  0.5665  0.2619 -1.0874
  604MOL0     N79647   1.671   1.702  -0.108 -0.2294  0.4641 -0.4350
  604MOL0     C79648   2.449   2.520   0.251  0.3326 -0.7919  0.1760
  604MOL0     C79649   2.585   2.525   0.289 -0.0822 -0.2229  0.8610
  604MOL0     C79650   3.041   2.484   0.263 -0.1944 -0.2471  0.2453
  604MOL0     C79651   3.100   2.351   0.269 -0.6781  0.3737  0.6309
  604MOL0     C79652   3.236   2.337   0.254  0.2424 -0.3519  0.5480
  604MOL0     C79653   3.319   2.445   0.242  0.0111  0.6811  0.0837
  604MOL0     O79654   3.443   2.407   0.241 -0.0963 -0.3837  0.1678
  604MOL0     C79655   3.540   2.504   0.198 -0.1050  0.3078  0.4842
  604MOL0     C79656   3.665   2.416   0.171 -0.2507  0.2208  0.4157
  604MOL0     C79657   3.774   2.510   0.113 -0.0045 -0.9987 -0.1494
  604MOL0     C79658   3.838   2.606   0.219 -0.7450 -0.3696 -0.0703
  604MOL0     C79659   3.951   2.683   0.168 -0.0346  0.6934 -1.2148
  604MOL0     C79660   4.049   2.742   0.125  0.2097 -0.4223 -0.1064
  604MOL0     C79661   3.271   2.573   0.256  0.1512  0.0439 -0.0746
  604MOL0     C79662   3.128   2.596   0.256 -1.2489 -0.8682 -0.0532
  604MOL0     H79663   2.671   2.202   0.210 -2.5475 -1.9777  1.8170
  604MOL0     H79664   2.429   2.202   0.148  0.9954  0.1655 -2.7705
  604MOL0     H79665   2.180   2.211   0.133 -0.3331  0.6373  0.4843
  604MOL0     H79666   2.263   2.262  -0.004  0.9217 -1.4798 -0.3443
  604MOL0     H79667   2.092   2.464  -0.039 -1.3722 -1.3531 -3.9061
  604MOL0     H79668   2.008   2.411   0.092  0.1774  3.3362 -0.2863
  604MOL0     H79669   2.005   2.185  -0.060 -0.0868  0.8989  1.5640
  604MOL0     H79670   2.046   2.308  -0.188  2.0177 -0.0613  0.2887
  604MOL0     H79671   1.798   2.265  -0.002 -1.5088 -0.2704 -0.3036
  604MOL0     H79672   1.812   2.413  -0.080 -1.8588 -1.1577  3.9646
  604MOL0     H79673   1.859   2.191  -0.264  0.3328 -3.0349  2.1942
  604MOL0     H79674   1.758   2.339  -0.277 -3.0164 -1.9891 -1.4982
  604MOL0     H79675   1.621   2.160  -0.303  0.7167  1.6970  0.1295
  604MOL0     H79676   1.590   2.199  -0.135  1.7523  1.3606  1.2504
  604MOL0     H79677   1.797   2.006  -0.141 -0.4785  1.7273  0.8946
  604MOL0     H79678   1.663   2.031  -0.039 -2.7615 -1.5932 -0.1691
  604MOL0     H79679   1.664   1.883  -0.308 -1.2586  0.4843 -0.5157
  604MOL0     H79680   1.515   1.958  -0.250  1.6296  2.7747 -0.9258
  604MOL0     H79681   1.435   1.904   0.000  0.2108  1.4028 -0.4680
  604MOL0     H79682   1.419   1.776   0.263 -0.6363  0.2084  0.0870
  604MOL0     H79683   1.510   1.626   0.260 -0.5823 -0.1785  0.5557
  604MOL0     H79684   1.318   1.521   0.117  1.1990  0.5245 -0.6580
  604MOL0     H79685   1.245   1.668   0.074 -1.0748 -1.6688 -1.0173
  604MOL0     H79686   1.164   1.528   0.282 -2.7074  1.1051  2.0105
  604MOL0     H79687   1.280   1.637   0.360  0.5465 -0.0810 -1.2407
  604MOL0     H79688   1.063   1.752   0.358  3.4424  1.5011  1.3603
  604MOL0     H79689   1.033   1.715   0.184 -1.1677  2.2302 -0.2284
  604MOL0     H79690   1.258   2.041   0.042  0.3420 -0.1949 -0.4519
  604MOL0     H79691   1.120   2.227  -0.047  0.5029 -1.5587 -0.1652
  604MOL0     H79692   0.526   2.343   0.132  0.3124 -0.7846 -0.4858
  604MOL0     H79693   0.319   2.469   0.052 -0.4789 -1.1474 -0.7179
  604MOL0     H79694   0.260   2.704  -0.053  0.1335  1.0136 -1.2761
  604MOL0     H79695   0.150   2.565  -0.061  1.3494  1.4554  2.7489
  604MOL0     H79696   0.176   2.782  -0.276 -0.2886 -0.6404 -0.3777
  604MOL0     H79697   0.046   2.772  -0.159 -1.1454 -1.9759  1.1143
  604MOL0     H79698   0.037   2.502  -0.272 -0.9929 -0.7095 -1.4052
  604MOL0     H79699   0.111   2.593  -0.400 -0.8244  0.6361 -1.1100
  604MOL0     H79700  -0.101   2.763  -0.368 -4.1408 -1.1506 -4.0284
  604MOL0     H79701  -0.115   2.617  -0.452  1.6850  0.0491 -1.3696
  604MOL0     H79702  -0.156   2.586  -0.152  0.6953 -1.6355 -0.9066
  604MOL0     H79703  -0.226   2.507  -0.288  2.7141 -2.2545  1.0262
  604MOL0     H79704  -0.380   2.679  -0.145  0.0025 -1.1233 -0.8404
  604MOL0     H79705  -0.391   2.698  -0.316  0.7377  1.1877 -0.2644
  604MOL0     H79706  -0.226   2.862  -0.108 -0.1611  1.3085  0.4162
  604MOL0     H79707  -0.226   2.897  -0.285  1.6832 -4.3470 -0.7495
  604MOL0     H79708  -0.430   2.924  -0.065 -0.3210 -0.6143  0.0906
  604MOL0     H79709  -0.463   2.959  -0.244  0.7533 -1.5507 -0.4562
  604MOL0     H79710   0.489   2.480  -0.347  0.1145 -0.0481 -0.7779
  604MOL0     H79711   0.696   2.337  -0.258  0.3627  1.5626  0.1054
  604MOL0     H79712   0.757   2.052   0.105 -0.4143 -1.3651 -0.8900
  604MOL0     H79713   0.889   1.889   0.223  2.1558 -0.5958 -0.2651
  604MOL0     H79714   2.389   2.609   0.267 -0.1211 -1.0974  0.1745
  604MOL0     H79715   2.615   2.622   0.326 -1.8643  0.9373 -0.5167
  604MOL0     H79716   3.036   2.269   0.299 -0.8815  1.0080  2.0441
  604MOL0     H79717   3.281   2.239   0.256 -0.1031 -0.5039  1.1904
  604MOL0     H79718   3.558   2.583   0.272  3.4845  2.6204 -2.4792
  604MOL0     H79719   3.521   2.541   0.097  2.4093 -1.5688 -0.7880
  604MOL0     H79720   3.703   2.379   0.267 -3.1629 -0.7049  1.3297
  604MOL0     H79721   3.630   2.338   0.104  3.7377 -1.6372  0.1982
  604MOL0     H79722   3.742   2.568   0.026  0.1303 -0.9726 -0.1821
  604MOL0     H79723   3.848   2.441   0.071  0.1145 -0.9200 -0.0703
  604MOL0     H79724   3.760   2.679   0.242 -1.1848 -0.9881  0.4504
  604MOL0     H79725   3.865   2.547   0.307 -0.2356 -0.9805 -0.6207
  604MOL0     H79726   4.130   2.806   0.093  0.9915  0.0151  2.4666
  604MOL0     H79727   3.327   2.665   0.272 -1.7620  1.2590  0.0472
  604MOL0     H79728   3.089   2.697   0.262 -0.4713 -0.6665  3.6771
  605MOL0     O79729   6.259   6.793   5.043  0.5880  0.9252 -0.0828
  605MOL0     C79730   6.229   6.850   5.148  1.6063  0.8678  0.6069
  605MOL0     O79731   6.296   6.853   5.259 -0.4611  0.1342 -0.3153
  605MOL0     C79732   6.418   6.794   5.271  0.3644  0.4130 -0.1391
  605MOL0     C79733   6.445   6.725   5.387 -0.3108  0.0073 -0.6834
  605MOL0     C79734   6.563   6.645   5.401  0.1615  0.0613  0.1825
  605MOL0     C79735   6.665   6.649   5.303 -0.5946 -0.2832  1.2000
  605MOL0     O79736   6.778   6.565   5.329  0.0783  0.1164 -0.0811
  605MOL0     C79737   6.877   6.538   5.234 -0.3479  1.0267  0.1444
  605MOL0     C79738   7.011   6.500   5.305  0.6910 -0.1964 -1.0043
  605MOL0     C79739   7.100   6.619   5.308  0.5956  0.7835 -0.5098
  605MOL0     C79740   7.248   6.578   5.335  0.7199  0.3482  0.0212
  605MOL0     C79741   7.338   6.690   5.345  0.0971  0.1393 -0.3134
  605MOL0     C79742   7.472   6.636   5.387 -0.1244 -0.0772 -0.1628
  605MOL0     C79743   7.574   6.746   5.386 -0.1561  0.6492 -0.4701
  605MOL0     C79744   7.623   6.779   5.239  1.0460  0.1493 -0.7936
  605MOL0     N79745   7.743   6.856   5.230  0.0142 -0.1074 -0.3011
  605MOL0     C79746   7.866   6.811   5.177  0.0515 -0.2719 -0.1045
  605MOL0     C79747   7.947   6.911   5.185 -0.2599  0.1716  0.3437
  605MOL0     C79748   8.082   6.911   5.129  0.0178 -0.4541 -0.1100
  605MOL0     C79749   8.164   6.777   5.151  0.1102 -0.9121 -0.3459
  605MOL0     C79750   8.194   6.730   5.293  1.4737 -0.6146  0.5088
  605MOL0     C79751   8.286   6.826   5.371  0.6394 -0.2271 -0.9993
  605MOL0     O79752   8.305   6.796   5.513  0.2157 -0.2371 -0.6032
  605MOL0     C79753   8.316   6.663   5.545  1.2722 -0.3477  0.4823
  605MOL0     C79754   8.208   6.612   5.614 -0.8827  0.2266 -0.0039
  605MOL0     C79755   8.197   6.481   5.652  0.6202 -0.5085  0.5359
  605MOL0     C79756   8.302   6.392   5.622 -0.8090 -0.2340 -0.6498
  605MOL0     C79757   8.303   6.257   5.666  0.3048  0.1808 -0.6983
  605MOL0     O79758   8.406   6.175   5.621  0.1349 -0.0601  0.0774
  605MOL0     C79759   8.440   6.066   5.691 -0.9410  0.4550 -0.7575
  605MOL0     C79760   8.570   6.043   5.718  0.2590  0.0680  0.3888
  605MOL0     C79761   8.616   5.937   5.793  0.0422  0.0456 -0.1979
  605MOL0     C79762   8.520   5.844   5.839 -0.5292 -0.3258  0.0727
  605MOL0     O79763   8.569   5.755   5.931  1.0463 -0.0008  0.1751
  605MOL0     C79764   8.491   5.635   5.946  0.0544 -0.0480 -0.3084
  605MOL0     C79765   8.455   5.542   5.827 -0.6925  0.1411  0.7501
  605MOL0     C79766   8.571   5.449   5.802 -0.8673  0.1526  0.2133
  605MOL0     C79767   8.689   5.511   5.717  0.9944  0.1285  0.5798
  605MOL0     C79768   8.811   5.547   5.799 -0.1389 -0.7025 -0.9147
  605MOL0     C79769   8.896   5.645   5.727 -0.0884  0.3754  0.3628
  605MOL0     C79770   9.032   5.683   5.788 -0.0867  0.8149  0.6739
  605MOL0     C79771   9.015   5.723   5.936  0.5938 -0.6162  0.3221
  605MOL0    Cl79772   8.942   5.883   5.954 -0.0785  0.1509 -0.1537
  605MOL0     C79773   8.390   5.859   5.806  0.0714 -0.0005 -0.0724
  605MOL0     C79774   8.351   5.961   5.730  0.6253 -0.2553  0.5219
  605MOL0     O79775   8.208   6.217   5.730 -0.4383  0.4133  0.4245
  605MOL0     C79776   8.411   6.441   5.554  0.2215 -0.1453  1.0078
  605MOL0     C79777   8.418   6.576   5.512 -0.0120 -0.6373  0.1363
  605MOL0     N79778   7.890   7.015   5.251 -0.6855  0.3541  0.2621
  605MOL0     N79779   7.766   6.985   5.275 -0.6463 -0.2970 -0.2425
  605MOL0     C79780   6.648   6.727   5.187  0.8314  0.3196  0.6002
  605MOL0     C79781   6.526   6.800   5.175 -0.7940  0.7502  0.1352
  605MOL0     C79782   6.104   6.911   5.145 -0.4375  0.7279 -1.3600
  605MOL0     C79783   6.062   7.004   5.247 -0.3130 -0.0623 -0.0436
  605MOL0     C79784   5.936   7.059   5.247 -0.5678 -0.9318  0.1906
  605MOL0     C79785   5.835   7.011   5.167  0.5798  0.2613  0.0476
  605MOL0     O79786   5.696   7.039   5.193 -0.4631 -0.3409 -0.1852
  605MOL0     C79787   5.670   7.180   5.203 -1.2765  0.2330 -0.0991
  605MOL0     C79788   5.564   7.199   5.313 -0.1838  0.4635  0.6352
  605MOL0     C79789   5.438   7.110   5.290 -0.3408  0.0990 -0.6621
  605MOL0     C79790   5.361   7.126   5.156  0.1230 -0.0669 -0.0845
  605MOL0     C79791   5.301   7.263   5.138  0.0768  0.7494  0.0153
  605MOL0     C79792   5.249   7.370   5.126  0.3982  0.4261 -0.2078
  605MOL0     C79793   5.871   6.927   5.062  0.2152  0.0228 -0.2068
  605MOL0     C79794   6.008   6.880   5.042 -0.5982 -0.0148  0.7790
  605MOL0     H79795   6.371   6.728   5.467  1.3279 -2.8415  1.1304
  605MOL0     H79796   6.589   6.591   5.492  0.3414 -1.6158 -0.8300
  605MOL0     H79797   6.900   6.620   5.165  1.6133  0.4900  0.1076
  605MOL0     H79798   6.851   6.452   5.172 -1.4638  1.1981  0.3599
  605MOL0     H79799   7.054   6.416   5.250 -2.7802 -1.8165 -1.4975
  605MOL0     H79800   6.999   6.470   5.409  1.5088 -1.7392 -1.3177
  605MOL0     H79801   7.079   6.687   5.391  0.3616 -1.1452  1.0856
  605MOL0     H79802   7.103   6.673   5.213 -1.0928 -1.4657 -1.9525
  605MOL0     H79803   7.251   6.532   5.434 -0.3092  0.5185  0.1388
  605MOL0     H79804   7.280   6.508   5.257  2.3826  1.9891 -0.8681
  605MOL0     H79805   7.296   6.767   5.410 -1.7950  0.5910 -1.9594
  605MOL0     H79806   7.336   6.734   5.245 -2.5916 -2.5064 -1.5939
  605MOL0     H79807   7.491   6.550   5.323 -2.0272 -0.4008 -0.3660
  605MOL0     H79808   7.461   6.604   5.490  0.1063 -1.9698 -0.6947
  605MOL0     H79809   7.534   6.837   5.430  1.6523  2.7803 -2.9251
  605MOL0     H79810   7.667   6.722   5.438  0.6784 -1.4917 -2.7370
  605MOL0     H79811   7.538   6.826   5.188 -1.6503 -2.7275  0.7279
  605MOL0     H79812   7.656   6.683   5.199  1.5547  0.2872 -0.7078
  605MOL0     H79813   7.890   6.719   5.124 -1.4464  0.1859 -1.6997
  605MOL0     H79814   8.137   6.998   5.165 -2.0822  0.9131 -0.0620
  605MOL0     H79815   8.077   6.928   5.022  1.8307 -0.8280 -0.2920
  605MOL0     H79816   8.258   6.780   5.095  2.6584 -0.2775  3.5937
  605MOL0     H79817   8.111   6.702   5.091 -0.7826  2.5205 -4.3370
  605MOL0     H79818   8.099   6.722   5.346  0.5919  0.1787 -0.8933
  605MOL0     H79819   8.233   6.628   5.289  0.9343 -0.8370  0.8105
  605MOL0     H79820   8.255   6.931   5.361 -1.7212 -0.4495  2.3832
  605MOL0     H79821   8.387   6.817   5.329  0.8693  2.1334 -1.1223
  605MOL0     H79822   8.134   6.686   5.644 -2.1259 -0.6975 -0.6637
  605MOL0     H79823   8.104   6.451   5.700 -0.3886  2.2973  0.4830
  605MOL0     H79824   8.640   6.121   5.687  0.2748  1.5152  3.6285
  605MOL0     H79825   8.714   5.910   5.830  0.1654  0.7759  0.0252
  605MOL0     H79826   8.397   5.662   5.996 -0.3609 -1.1837 -0.4593
  605MOL0     H79827   8.544   5.577   6.022 -0.2105 -0.5763 -0.5204
  605MOL0     H79828   8.426   5.593   5.735 -0.0037 -1.3967 -0.3543
  605MOL0     H79829   8.370   5.478   5.850 -1.5263  0.7654 -0.4899
  605MOL0     H79830   8.541   5.367   5.737 -0.2426  0.8129 -0.9304
  605MOL0     H79831   8.621   5.408   5.891 -0.8620  0.3253  0.2893
  605MOL0     H79832   8.719   5.441   5.639  0.7673 -0.5843  1.1285
  605MOL0     H79833   8.643   5.596   5.666 -1.2510  0.2505  2.6499
  605MOL0     H79834   8.867   5.454   5.811 -1.6393 -1.6517 -0.9849
  605MOL0     H79835   8.779   5.588   5.896 -1.9140  0.8181 -2.0715
  605MOL0     H79836   8.825   5.728   5.723 -1.2387 -0.4464  2.3085
  605MOL0     H79837   8.930   5.605   5.631  1.8763 -1.4068  1.6856
  605MOL0     H79838   9.101   5.599   5.776 -1.3779  0.0020 -1.7333
  605MOL0     H79839   9.080   5.760   5.727  2.2450 -0.6649  0.5070
  605MOL0     H79840   9.114   5.740   5.980  0.9972  4.4228 -1.8131
  605MOL0     H79841   8.965   5.645   5.993  1.4393 -1.5570 -0.1834
  605MOL0     H79842   8.308   5.792   5.832 -1.2012  1.3967 -0.3119
  605MOL0     H79843   8.246   5.951   5.704  0.2302 -3.8836  2.8010
  605MOL0     H79844   8.494   6.376   5.528 -1.5452 -1.8580 -0.5539
  605MOL0     H79845   8.508   6.616   5.467 -0.3399  1.1773  0.9987
  605MOL0     H79846   6.726   6.728   5.112  1.1416 -1.8752  0.8234
  605MOL0     H79847   6.510   6.860   5.086 -0.0757 -1.8368 -1.8661
  605MOL0     H79848   6.129   7.047   5.321 -1.4458  2.5978 -0.4444
  605MOL0     H79849   5.917   7.139   5.319  3.9560  0.7355 -0.1176
  605MOL0     H79850   5.637   7.228   5.110  2.1899 -1.3287 -2.3665
  605MOL0     H79851   5.754   7.236   5.245 -1.6353 -1.2868  2.9089
  605MOL0     H79852   5.598   7.162   5.410  2.7501  0.3381 -0.3497
  605MOL0     H79853   5.532   7.303   5.303  0.5218  0.7089  0.8616
  605MOL0     H79854   5.374   7.134   5.375  0.9096 -0.1529  0.3656
  605MOL0     H79855   5.472   7.007   5.301 -0.2570 -0.2424 -3.3783
  605MOL0     H79856   5.419   7.113   5.065  1.1654  0.3717  0.4953
  605MOL0     H79857   5.278   7.055   5.160 -0.4047  0.5094 -0.6219
  605MOL0     H79858   5.204   7.467   5.123  2.5677  1.5253 -3.5049
  605MOL0     H79859   5.796   6.895   4.991  1.3867 -3.3670 -0.1101
  605MOL0     H79860   6.038   6.815   4.961  0.2978 -1.1811  1.9927
  606MOL0     O79861   2.029   2.536   0.511 -0.3030 -0.0254  0.3024
  606MOL0     C79862   1.998   2.430   0.563 -0.3910 -0.3648 -0.3610
  606MOL0     O79863   1.882   2.400   0.619  0.4595 -0.3694  0.2960
  606MOL0     C79864   1.797   2.509   0.650 -0.2064  0.0388  1.0219
  606MOL0     C79865   1.657   2.484   0.634  0.2163  0.6033 -0.1507
  606MOL0     C79866   1.561   2.576   0.666  0.0853  0.2156 -0.0438
  606MOL0     C79867   1.608   2.697   0.724  0.0486  0.1310 -0.0330
  606MOL0     O79868   1.507   2.777   0.773  0.4378 -0.1921  0.6774
  606MOL0     C79869   1.527   2.854   0.891 -0.0988  0.8401  1.2718
  606MOL0     C79870   1.411   2.954   0.912 -0.6276 -0.0108 -1.4851
  606MOL0     C79871   1.285   2.886   0.936  0.7124  0.9001 -0.2480
  606MOL0     C79872   1.176   2.982   0.968 -0.0755 -0.2798 -0.0441
  606MOL0     C79873   1.040   2.928   0.969  0.2001 -0.0506 -0.7819
  606MOL0     C79874   0.934   3.036   0.956 -0.7009  0.9588  0.4248
  606MOL0     C79875   0.798   2.973   0.907  0.8076 -0.5975 -0.5039
  606MOL0     C79876   0.692   3.074   0.882  0.0889  0.0699  0.1072
  606MOL0     N79877   0.572   3.000   0.847  0.6198  0.5387 -0.8697
  606MOL0     C79878   0.446   3.015   0.898 -0.0732  0.4745 -0.6073
  606MOL0     C79879   0.368   2.938   0.815 -0.1328 -0.2223 -0.0578
  606MOL0     C79880   0.225   2.890   0.823 -0.0123 -0.2244  0.9037
  606MOL0     C79881   0.122   2.952   0.726  0.8567 -0.6717  0.3725
  606MOL0     C79882   0.070   3.079   0.800 -0.0644 -0.5994 -0.9634
  606MOL0     C79883  -0.018   3.161   0.708  0.2928 -0.1882 -0.4657
  606MOL0     O79884  -0.050   3.287   0.767 -0.0113  0.5437 -0.4591
  606MOL0     C79885  -0.183   3.323   0.772  0.0281  0.7207  0.2814
  606MOL0     C79886  -0.262   3.316   0.887  0.4785  0.0051 -0.2811
  606MOL0     C79887  -0.397   3.346   0.888  0.6553 -1.2252 -0.3100
  606MOL0     C79888  -0.458   3.393   0.762  0.2793  0.2274  0.5491
  606MOL0     C79889  -0.601   3.425   0.754  0.8502 -0.7884 -0.4958
  606MOL0     O79890  -0.682   3.394   0.853 -0.7829  0.5279  0.1498
  606MOL0     C79891  -0.810   3.439   0.864 -0.7600  1.0534  0.7861
  606MOL0     C79892  -0.891   3.344   0.921 -0.0119 -0.4186  0.9857
  606MOL0     C79893  -1.029   3.355   0.925 -0.1507 -0.9697 -0.0681
  606MOL0     C79894  -1.095   3.476   0.883 -1.1006  0.2572  0.0160
  606MOL0     O79895  -1.219   3.496   0.921 -0.1340  1.4797  0.1256
  606MOL0     C79896  -1.303   3.492   0.804  0.4714 -0.2331  0.2441
  606MOL0     C79897  -1.434   3.574   0.818 -0.5657  0.6143  0.0976
  606MOL0     C79898  -1.514   3.558   0.691  0.5585 -0.1208  0.0673
  606MOL0     C79899  -1.666   3.585   0.712  0.1364  0.4236  0.5685
  606MOL0     C79900  -1.753   3.531   0.598 -0.5951 -0.2574 -0.6679
  606MOL0     C79901  -1.907   3.524   0.617  0.0875 -0.5114 -0.3867
  606MOL0     C79902  -1.957   3.442   0.727  0.0078  0.2759 -0.6727
  606MOL0     C79903  -2.089   3.487   0.759  0.8404  0.6350 -0.4129
  606MOL0    Cl79904  -2.186   3.343   0.805 -0.2564 -0.3102 -0.1323
  606MOL0     C79905  -1.018   3.576   0.830 -1.3009  1.4306 -0.7888
  606MOL0     C79906  -0.873   3.555   0.813 -0.7123 -0.1463  0.0896
  606MOL0     O79907  -0.631   3.505   0.661 -0.2878 -0.4224 -0.4199
  606MOL0     C79908  -0.378   3.406   0.647 -0.9019 -0.5920  0.9919
  606MOL0     C79909  -0.243   3.376   0.656 -0.9664  0.5026 -0.7168
  606MOL0     N79910   0.444   2.889   0.712  0.3236  0.0369  0.8454
  606MOL0     N79911   0.566   2.936   0.727  0.0967 -0.3684  0.1986
  606MOL0     C79912   1.741   2.721   0.748  1.0274 -0.6904  0.1060
  606MOL0     C79913   1.831   2.625   0.710 -1.1586 -0.9469  0.6957
  606MOL0     C79914   2.111   2.330   0.575  0.2923 -0.0273 -0.2999
  606MOL0     C79915   2.095   2.209   0.646 -1.0124  0.0391  0.0504
  606MOL0     C79916   2.204   2.120   0.661 -0.9316 -0.1460 -0.5091
  606MOL0     C79917   2.327   2.143   0.591  0.1991 -1.3587  0.4117
  606MOL0     O79918   2.429   2.051   0.610  0.3270 -0.0633 -0.2881
  606MOL0     C79919   2.461   1.964   0.503  0.0379 -0.2080  0.5093
  606MOL0     C79920   2.595   1.886   0.523 -0.4106  0.0414  0.6315
  606MOL0     C79921   2.704   1.986   0.565 -0.1931  1.5004 -1.2518
  606MOL0     C79922   2.847   1.935   0.548 -0.4241 -0.1875  0.0922
  606MOL0     C79923   2.938   2.055   0.552  0.2558 -0.4016 -0.4855
  606MOL0     C79924   3.005   2.153   0.562 -0.0873  0.0243 -0.6379
  606MOL0     C79925   2.348   2.260   0.521  0.3322  0.3553  0.5018
  606MOL0     C79926   2.242   2.352   0.518  0.2997 -0.1234  0.0864
  606MOL0     H79927   1.632   2.390   0.586 -1.6763  0.1449  1.6146
  606MOL0     H79928   1.457   2.551   0.648 -0.3373  1.4621  0.5350
  606MOL0     H79929   1.598   2.931   0.860  0.2529  0.5490  1.3463
  606MOL0     H79930   1.560   2.787   0.971  0.8590  0.4896  0.5982
  606MOL0     H79931   1.400   3.025   0.829 -2.7403  0.3445 -0.9746
  606MOL0     H79932   1.436   3.011   1.002 -0.6994  0.0568 -1.5079
  606MOL0     H79933   1.296   2.824   1.025  1.3887 -0.0669 -0.9810
  606MOL0     H79934   1.265   2.825   0.847  1.3076 -2.9823  2.0614
  606MOL0     H79935   1.198   3.034   1.062 -2.8359  1.8744 -0.4520
  606MOL0     H79936   1.172   3.058   0.889  0.2417 -2.2533 -2.0586
  606MOL0     H79937   1.018   2.866   1.056 -0.2177 -2.8505 -2.7186
  606MOL0     H79938   1.024   2.858   0.886 -1.5859 -1.7071  0.8550
  606MOL0     H79939   0.966   3.113   0.885 -0.2166  1.8392  1.5548
  606MOL0     H79940   0.914   3.083   1.053  1.9613 -1.7653  2.4824
  606MOL0     H79941   0.792   2.904   0.822  1.1135  1.7309 -2.5280
  606MOL0     H79942   0.771   2.918   0.998  0.5480 -1.6840 -1.2182
  606MOL0     H79943   0.716   3.144   0.801 -2.2828  0.9213  0.0556
  606MOL0     H79944   0.677   3.132   0.974 -1.4359  1.2553 -0.8183
  606MOL0     H79945   0.413   3.072   0.984 -1.9745 -0.4860 -0.6394
  606MOL0     H79946   0.197   2.900   0.928 -0.0971  1.7240  0.7259
  606MOL0     H79947   0.212   2.784   0.800  0.5235 -0.7239  2.7595
  606MOL0     H79948   0.041   2.880   0.709  1.1877 -1.5307  2.1637
  606MOL0     H79949   0.170   2.979   0.632 -1.0289  0.8188 -0.2170
  606MOL0     H79950   0.013   3.042   0.886 -0.9195  1.0623 -0.7781
  606MOL0     H79951   0.140   3.156   0.835 -1.5123  1.4680 -2.3485
  606MOL0     H79952  -0.103   3.093   0.697  0.5318 -0.5922  0.0794
  606MOL0     H79953   0.025   3.171   0.608  3.1823 -2.0856  0.4508
  606MOL0     H79954  -0.219   3.277   0.979  1.8524  1.0327 -0.4459
  606MOL0     H79955  -0.457   3.340   0.978 -0.2760  1.1308 -0.6960
  606MOL0     H79956  -0.836   3.258   0.957  2.3322  0.0453 -1.1092
  606MOL0     H79957  -1.090   3.277   0.969 -2.2204 -0.1954 -1.4051
  606MOL0     H79958  -1.321   3.386   0.785 -1.2997  0.3704 -1.8997
  606MOL0     H79959  -1.254   3.527   0.713 -1.2067  1.9184  0.0867
  606MOL0     H79960  -1.413   3.681   0.826  5.0504 -0.2534  1.2405
  606MOL0     H79961  -1.481   3.535   0.908  0.9449  1.2426  1.2080
  606MOL0     H79962  -1.494   3.461   0.645 -0.3550  0.8031 -2.4686
  606MOL0     H79963  -1.487   3.631   0.614 -0.5186 -1.2160 -1.4021
  606MOL0     H79964  -1.708   3.536   0.800 -0.9853 -0.8538 -0.6408
  606MOL0     H79965  -1.683   3.691   0.731 -1.5180  0.2578  0.1155
  606MOL0     H79966  -1.722   3.430   0.569 -0.8076 -1.4958  2.9866
  606MOL0     H79967  -1.728   3.582   0.504  1.6724  0.4879  0.2773
  606MOL0     H79968  -1.954   3.484   0.527 -3.4825  0.2447  0.9904
  606MOL0     H79969  -1.943   3.628   0.620 -0.1336 -0.5545 -1.2064
  606MOL0     H79970  -1.956   3.336   0.699  2.1167  0.1232 -0.2256
  606MOL0     H79971  -1.895   3.445   0.817 -0.4473  0.4364 -0.3659
  606MOL0     H79972  -2.132   3.530   0.668  2.7232  0.3689 -1.4745
  606MOL0     H79973  -2.101   3.560   0.841 -2.4144  0.0036 -0.1629
  606MOL0     H79974  -1.048   3.673   0.791  0.2166  1.7501 -1.2647
  606MOL0     H79975  -0.807   3.625   0.762 -4.4515  0.9431 -3.9684
  606MOL0     H79976  -0.421   3.426   0.549 -0.7914  1.7613  1.3788
  606MOL0     H79977  -0.174   3.396   0.574 -1.6428  0.9776 -1.1845
  606MOL0     H79978   1.791   2.802   0.799 -0.9725  2.4658 -2.4980
  606MOL0     H79979   1.931   2.647   0.746 -1.4423 -0.8269  1.4283
  606MOL0     H79980   2.006   2.173   0.698  0.1082 -4.0102 -0.4817
  606MOL0     H79981   2.191   2.028   0.718  0.9418  0.9108  1.8019
  606MOL0     H79982   2.475   2.008   0.403 -1.0823 -0.6433  0.1335
  606MOL0     H79983   2.374   1.898   0.493  0.2365 -0.3140 -0.6425
  606MOL0     H79984   2.590   1.802   0.593  1.9325  0.9183  1.9342
  606MOL0     H79985   2.621   1.841   0.426  0.5214  2.2929 -0.2337
  606MOL0     H79986   2.685   1.997   0.673 -0.0643  2.7448 -1.3525
  606MOL0     H79987   2.691   2.073   0.501  1.4729  2.2909 -0.5821
  606MOL0     H79988   2.870   1.851   0.615 -3.2519 -0.3887  0.9618
  606MOL0     H79989   2.866   1.884   0.453  1.2004 -0.7435  0.6705
  606MOL0     H79990   3.070   2.232   0.592  0.4666 -0.6067 -0.1473
  606MOL0     H79991   2.442   2.292   0.479  0.5544 -1.8677 -0.8273
  606MOL0     H79992   2.267   2.447   0.471  2.3999  0.9625  3.1127
  607MOL0     O79993   5.998   1.687  11.285 -0.0953  0.5192  0.5817
  607MOL0     C79994   5.945   1.778  11.347  0.6181 -0.2616  0.9282
  607MOL0     O79995   5.812   1.797  11.368 -0.1790  0.2773  0.6413
  607MOL0     C79996   5.728   1.714  11.295  0.6585 -0.3911 -0.1634
  607MOL0     C79997   5.629   1.642  11.362  0.2499 -0.8627  0.4658
  607MOL0     C79998   5.544   1.557  11.284  0.1674  0.9064 -0.1194
  607MOL0     C79999   5.549   1.558  11.147 -0.3574 -0.5439 -0.6531
  607MOL0     O80000   5.467   1.472  11.081  0.1089 -0.0663  0.3972
  607MOL0     C80001   5.460   1.487  10.938  0.7368 -0.7450  0.0309
  607MOL0     C80002   5.347   1.399  10.881  0.7438  0.1513 -0.1475
  607MOL0     C80003   5.196   1.450  10.907  0.0505 -0.1815 -0.4853
  607MOL0     C80004   5.163   1.585  10.839  0.1655  0.2997  0.0052
  607MOL0     C80005   5.021   1.629  10.861 -0.4345 -0.1621 -0.5010
  607MOL0     C80006   4.980   1.653  11.004 -0.1076  0.2541 -0.6989
  607MOL0     C80007   4.853   1.731  11.007  0.5103 -0.7122  0.5558
  607MOL0     C80008   4.727   1.662  10.957  0.5125 -0.0013 -0.5974
  607MOL0     N80009   4.607   1.753  10.969 -0.1776  0.4036  0.7999
  607MOL0     C80010   4.480   1.715  10.976  0.4837 -0.2639  0.5001
  607MOL0     C80011   4.402   1.822  10.948 -0.4591 -0.6049  0.3957
  607MOL0     C80012   4.253   1.819  10.947  0.2255 -0.2325  0.6093
  607MOL0     C80013   4.198   1.874  11.072  0.2524 -0.2781 -0.6847
  607MOL0     C80014   4.223   2.030  11.090 -0.2542 -0.3081  0.8166
  607MOL0     C80015   4.194   2.120  10.964 -0.5769  0.3177 -0.1936
  607MOL0     O80016   4.087   2.082  10.877 -0.5176  0.0493  0.1454
  607MOL0     C80017   3.959   2.100  10.909  0.7371  0.9682 -0.5584
  607MOL0     C80018   3.926   2.202  11.004  0.3299 -0.1603 -0.3162
  607MOL0     C80019   3.792   2.211  11.042  0.5217  0.1514  0.2268
  607MOL0     C80020   3.686   2.147  10.970  0.9972  0.5540  0.1014
  607MOL0     C80021   3.543   2.155  11.004  0.5924 -0.4871 -1.7133
  607MOL0     O80022   3.503   2.216  11.123 -0.6881  0.8340 -0.5539
  607MOL0     C80023   3.369   2.222  11.147  0.4789  0.4484  0.4489
  607MOL0     C80024   3.303   2.110  11.179  0.6880  0.3297 -0.3330
  607MOL0     C80025   3.172   2.100  11.216  0.3185 -0.3605 -0.7016
  607MOL0     C80026   3.103   2.219  11.216  1.1104  0.0975 -0.0762
  607MOL0     O80027   2.966   2.207  11.245  0.1419  0.1319 -0.5118
  607MOL0     C80028   2.892   2.306  11.317  0.2579  0.0390  0.5499
  607MOL0     C80029   2.764   2.321  11.236  0.0553  0.1549 -0.0317
  607MOL0     C80030   2.698   2.458  11.249 -0.5844  0.1086 -0.5826
  607MOL0     C80031   2.565   2.455  11.177  0.1350  0.1402  1.4866
  607MOL0     C80032   2.473   2.573  11.187  0.2887 -0.3673  0.7565
  607MOL0     C80033   2.346   2.577  11.108  0.0509  0.4391  0.3798
  607MOL0     C80034   2.347   2.570  10.954  0.1343  0.8154  0.2778
  607MOL0     C80035   2.208   2.606  10.889  0.2589 -0.0334  0.2615
  607MOL0    Cl80036   2.059   2.580  10.986  0.4738  0.1665 -0.2942
  607MOL0     C80037   3.169   2.343  11.193  0.1476 -0.3309  0.2352
  607MOL0     C80038   3.303   2.347  11.163 -0.2711 -0.3140  0.9797
  607MOL0     O80039   3.466   2.124  10.917 -0.7497 -0.5648  0.4697
  607MOL0     C80040   3.733   2.054  10.868 -0.5660 -0.6191  0.1367
  607MOL0     C80041   3.867   2.024  10.846  0.0027  0.1335  0.7296
  607MOL0     N80042   4.488   1.925  10.917 -0.0799  0.0157 -0.0167
  607MOL0     N80043   4.608   1.887  10.939  0.6288  0.0979 -0.2602
  607MOL0     C80044   5.651   1.634  11.081  1.1443  0.1542 -0.4764
  607MOL0     C80045   5.738   1.706  11.152  0.6816 -1.1428 -0.6017
  607MOL0     C80046   6.027   1.886  11.399 -0.6651 -0.7951 -0.2241
  607MOL0     C80047   6.166   1.877  11.419 -0.5797  0.6569 -0.0625
  607MOL0     C80048   6.251   1.981  11.455  0.4562  0.2958  0.3045
  607MOL0     C80049   6.191   2.107  11.475 -0.7620 -0.2663 -0.2559
  607MOL0     O80050   6.258   2.219  11.514  0.5097 -0.4039 -0.4961
  607MOL0     C80051   6.405   2.214  11.501 -0.0270  0.3952 -0.0940
  607MOL0     C80052   6.463   2.357  11.499 -0.5565 -0.6857  0.0550
  607MOL0     C80053   6.613   2.356  11.472 -0.7302  0.1584 -0.1383
  607MOL0     C80054   6.674   2.499  11.438  0.4586 -1.3509  1.2052
  607MOL0     C80055   6.635   2.589  11.540 -0.7040 -0.1876  0.6288
  607MOL0     C80056   6.568   2.648  11.621 -0.4993  0.0765  1.0537
  607MOL0     C80057   6.047   2.116  11.478 -0.3293 -0.8154 -0.2243
  607MOL0     C80058   5.968   2.008  11.437 -0.2832  0.4407 -0.1605
  607MOL0     H80059   5.617   1.650  11.469  1.5144  0.8176  0.5243
  607MOL0     H80060   5.470   1.506  11.344  1.8719 -2.9492 -0.9601
  607MOL0     H80061   5.548   1.437  10.898  2.8306  1.3270  1.7573
  607MOL0     H80062   5.456   1.590  10.900 -1.0328  0.5689  3.3176
  607MOL0     H80063   5.355   1.297  10.919  1.6761 -0.5115 -2.0076
  607MOL0     H80064   5.366   1.379  10.776  0.1777 -0.8342 -0.0759
  607MOL0     H80065   5.183   1.454  11.016  1.4258 -3.4265 -0.0932
  607MOL0     H80066   5.131   1.373  10.865 -0.0016 -0.4426  0.0673
  607MOL0     H80067   5.231   1.661  10.878  1.8770 -2.0259  1.8437
  607MOL0     H80068   5.184   1.584  10.732 -0.3238  3.9219 -0.2475
  607MOL0     H80069   4.964   1.541  10.828  0.5942 -1.0250 -0.0384
  607MOL0     H80070   5.005   1.712  10.791 -0.7607 -2.4051 -3.2670
  607MOL0     H80071   5.063   1.716  11.037  1.1224 -0.8196 -1.6300
  607MOL0     H80072   4.977   1.557  11.057  0.6708  0.3680 -0.4341
  607MOL0     H80073   4.843   1.777  11.106 -1.2606 -1.2558  0.6592
  607MOL0     H80074   4.876   1.820  10.948 -0.0594 -0.8054  0.1842
  607MOL0     H80075   4.704   1.571  11.014 -0.7944  1.9825  2.3319
  607MOL0     H80076   4.731   1.642  10.850 -1.8587 -1.3601 -0.5066
  607MOL0     H80077   4.439   1.622  11.014 -0.8920  0.3472  0.5673
  607MOL0     H80078   4.224   1.717  10.921  1.3593 -0.3824 -0.1491
  607MOL0     H80079   4.210   1.876  10.865  1.3436 -0.5985 -0.2680
  607MOL0     H80080   4.255   1.831  11.155  0.0980 -0.3721 -0.6267
  607MOL0     H80081   4.092   1.849  11.082  0.1528  0.9360  2.0503
  607MOL0     H80082   4.159   2.069  11.171 -1.8235 -1.6918  0.2994
  607MOL0     H80083   4.327   2.040  11.121  1.7952 -4.3227 -3.5378
  607MOL0     H80084   4.282   2.108  10.900 -1.0209 -0.4533 -0.6883
  607MOL0     H80085   4.189   2.227  10.986  0.9642  0.5728 -0.9286
  607MOL0     H80086   4.000   2.252  11.067 -0.6783  0.4376  0.4213
  607MOL0     H80087   3.755   2.270  11.125 -1.3031 -3.1417  1.9907
  607MOL0     H80088   3.363   2.020  11.190 -0.9900 -0.5226  3.1474
  607MOL0     H80089   3.132   2.003  11.241  2.0792 -1.0392 -0.3382
  607MOL0     H80090   2.938   2.404  11.330 -1.6084  1.2417 -1.3200
  607MOL0     H80091   2.860   2.278  11.418 -1.5249 -0.5131 -0.1181
  607MOL0     H80092   2.694   2.244  11.267  1.3343  0.5629  4.5620
  607MOL0     H80093   2.783   2.306  11.129 -7.4974  0.0240 -1.9034
  607MOL0     H80094   2.765   2.537  11.214 -0.4599 -0.3923 -1.5239
  607MOL0     H80095   2.675   2.475  11.354 -0.5500 -0.2548 -0.5143
  607MOL0     H80096   2.603   2.430  11.078  3.1380 -0.8685  2.7549
  607MOL0     H80097   2.515   2.368  11.223  1.3869 -1.4626 -0.0445
  607MOL0     H80098   2.526   2.661  11.147 -2.6960  1.7431  1.1009
  607MOL0     H80099   2.460   2.586  11.295  4.4172 -0.5704  1.4467
  607MOL0     H80100   2.294   2.670  11.135  0.4831  0.1328  2.4681
  607MOL0     H80101   2.271   2.502  11.136 -0.5078  0.0443 -1.9844
  607MOL0     H80102   2.417   2.637  10.904  2.7614 -1.7060  0.3280
  607MOL0     H80103   2.386   2.472  10.923  0.1543  0.8895  0.0684
  607MOL0     H80104   2.201   2.552  10.794  0.7742  0.9435 -0.3508
  607MOL0     H80105   2.209   2.714  10.871  0.4139 -0.1939 -0.8045
  607MOL0     H80106   3.113   2.436  11.190 -0.2241 -0.5734 -1.8775
  607MOL0     H80107   3.352   2.442  11.143  0.3116 -1.0984 -1.6325
  607MOL0     H80108   3.659   1.993  10.817 -0.3505  1.5841 -3.1104
  607MOL0     H80109   3.904   1.953  10.772  0.1377  0.9849 -0.0367
  607MOL0     H80110   5.641   1.633  10.973 -4.5353 -2.2956 -0.2284
  607MOL0     H80111   5.809   1.760  11.089 -0.2817  0.3370 -0.4637
  607MOL0     H80112   6.219   1.785  11.398  1.6048  1.5479  1.2706
  607MOL0     H80113   6.358   1.972  11.470  0.6462 -0.3018 -1.2276
  607MOL0     H80114   6.418   2.170  11.401 -0.8587 -1.9644  0.7564
  607MOL0     H80115   6.456   2.145  11.569 -3.6053 -1.6628  0.7806
  607MOL0     H80116   6.421   2.410  11.413 -3.6846 -1.5040  0.9154
  607MOL0     H80117   6.438   2.404  11.595  1.2731 -2.1957  1.3456
  607MOL0     H80118   6.638   2.293  11.386  3.8412  0.6328  0.6258
  607MOL0     H80119   6.662   2.309  11.557 -2.8198  0.2719  1.2196
  607MOL0     H80120   6.782   2.494  11.421  0.3677 -2.6541  0.8972
  607MOL0     H80121   6.625   2.528  11.345  0.3190 -0.4264  1.5622
  607MOL0     H80122   6.504   2.690  11.696  0.5632 -1.6692  3.0548
  607MOL0     H80123   6.015   2.218  11.499  2.5007  0.2051 -0.4625
  607MOL0     H80124   5.860   2.010  11.431 -0.5506  0.4108  3.1578
  608MOL0     O80125   3.126   3.365   6.904 -0.5057 -0.2845  0.5310
  608MOL0     C80126   3.213   3.270   6.874 -0.2239 -0.2591 -0.2785
  608MOL0     O80127   3.203   3.185   6.766  0.2225  0.0310 -0.2919
  608MOL0     C80128   3.103   3.180   6.678  0.1353 -0.0745  0.1657
  608MOL0     C80129   2.973   3.201   6.706 -0.1919  0.1809  0.1779
  608MOL0     C80130   2.880   3.195   6.608  0.4393 -0.2533 -0.9798
  608MOL0     C80131   2.906   3.151   6.484 -0.0623  1.1286  0.1706
  608MOL0     O80132   2.800   3.134   6.398  0.1259  0.5012  0.0369
  608MOL0     C80133   2.721   3.247   6.389 -0.4817 -0.0037  0.9730
  608MOL0     C80134   2.623   3.248   6.269 -0.6816  1.0231 -0.1239
  608MOL0     C80135   2.540   3.117   6.263  0.2499 -0.0035  0.7007
  608MOL0     C80136   2.413   3.115   6.169  0.6480 -0.6676  0.3877
  608MOL0     C80137   2.366   2.973   6.156  0.0388 -0.7327  0.7465
  608MOL0     C80138   2.244   2.972   6.066  0.5641 -0.8345 -0.4571
  608MOL0     C80139   2.168   2.840   6.062  0.9564  0.1745  0.1446
  608MOL0     C80140   2.137   2.784   6.200 -0.3405  0.5223 -0.1537
  608MOL0     N80141   2.015   2.705   6.201 -0.0109  1.5843 -0.6966
  608MOL0     C80142   1.901   2.739   6.269  0.8862 -0.2615  0.1156
  608MOL0     C80143   1.818   2.633   6.250  0.7794  0.7015 -0.7466
  608MOL0     C80144   1.679   2.647   6.304  0.2166  0.0376  0.1035
  608MOL0     C80145   1.668   2.579   6.446  1.2734 -0.2378  0.1659
  608MOL0     C80146   1.692   2.421   6.439 -0.3302 -0.1435 -0.6497
  608MOL0     C80147   1.707   2.371   6.578  0.6107 -0.3625  0.0054
  608MOL0     O80148   1.592   2.408   6.651  0.6265  0.2822 -0.1737
  608MOL0     C80149   1.483   2.317   6.658 -0.6253 -0.0869  0.6643
  608MOL0     C80150   1.358   2.372   6.661  0.4457 -0.2976 -0.7488
  608MOL0     C80151   1.254   2.282   6.685  0.4606  0.8470  0.0131
  608MOL0     C80152   1.268   2.140   6.703  0.0771 -0.2727 -0.3814
  608MOL0     C80153   1.152   2.032   6.728  0.4125 -0.2791  0.2864
  608MOL0     O80154   1.021   2.075   6.711  0.6827 -0.3095 -0.2340
  608MOL0     C80155   0.923   1.982   6.729  0.1237  0.5940  0.3728
  608MOL0     C80156   0.859   1.967   6.855  0.4155 -1.0585  0.3422
  608MOL0     C80157   0.749   1.886   6.880 -0.1112  0.6435  0.8309
  608MOL0     C80158   0.695   1.814   6.768  0.5749 -0.0330 -0.0689
  608MOL0     O80159   0.607   1.716   6.797  0.1684 -0.0231 -0.5055
  608MOL0     C80160   0.485   1.726   6.721  0.3531  0.0829  0.3088
  608MOL0     C80161   0.431   1.874   6.703 -0.5035 -0.7622  0.0328
  608MOL0     C80162   0.287   1.889   6.662 -0.2124  0.7902 -0.1634
  608MOL0     C80163   0.254   2.028   6.626  0.0754 -0.0905 -0.1296
  608MOL0     C80164   0.123   2.079   6.687  0.4688  0.0641 -0.4574
  608MOL0     C80165  -0.002   2.004   6.660  0.0536  0.6266 -0.4408
  608MOL0     C80166  -0.052   2.018   6.514 -0.2290 -0.8542  0.1608
  608MOL0     C80167  -0.199   1.959   6.518  0.0262 -0.3879  0.4303
  608MOL0    Cl80168  -0.266   1.992   6.358 -0.2543 -0.0655  0.2982
  608MOL0     C80169   0.752   1.829   6.642 -0.0165  0.1014  0.5441
  608MOL0     C80170   0.866   1.911   6.619 -0.3409  0.6501 -0.4020
  608MOL0     O80171   1.183   1.924   6.779 -0.8178  0.1900  0.8229
  608MOL0     C80172   1.398   2.092   6.702 -0.4308 -0.9857  0.6006
  608MOL0     C80173   1.501   2.177   6.672  0.4587 -0.0397  0.3509
  608MOL0     N80174   1.877   2.531   6.183 -0.4813 -0.2173  0.2119
  608MOL0     N80175   1.998   2.575   6.149  0.7436 -0.4525  0.2629
  608MOL0     C80176   3.040   3.133   6.446  0.4811 -0.2668 -0.3039
  608MOL0     C80177   3.137   3.145   6.548 -0.2658 -0.6105 -0.5888
  608MOL0     C80178   3.334   3.257   6.952 -0.3026 -0.4323  0.6915
  608MOL0     C80179   3.434   3.169   6.924  0.5424  0.8825 -0.4334
  608MOL0     C80180   3.542   3.153   6.999  0.0904 -0.0021 -0.2783
  608MOL0     C80181   3.570   3.243   7.102  0.2927 -0.6258  0.6219
  608MOL0     O80182   3.684   3.252   7.174  0.0284  0.4219 -0.7962
  608MOL0     C80183   3.792   3.163   7.142  0.1447  1.0722  0.1914
  608MOL0     C80184   3.921   3.194   7.222  0.5746 -0.1221  0.3647
  608MOL0     C80185   3.897   3.267   7.349 -0.1684  0.4453 -0.1613
  608MOL0     C80186   4.024   3.341   7.410  0.9611  0.4920 -0.4212
  608MOL0     C80187   4.142   3.251   7.402  1.0783 -0.2671 -0.0538
  608MOL0     C80188   4.232   3.178   7.399  0.5190  0.1939  0.0659
  608MOL0     C80189   3.473   3.332   7.132 -0.6985 -0.1807 -0.8634
  608MOL0     C80190   3.353   3.341   7.065  0.2844  0.1166  0.2058
  608MOL0     H80191   2.958   3.239   6.806 -0.2033 -1.0355  0.6453
  608MOL0     H80192   2.775   3.213   6.629  0.8687  1.3878  0.0062
  608MOL0     H80193   2.782   3.338   6.382  0.4044 -0.6379  0.1631
  608MOL0     H80194   2.660   3.262   6.478 -0.6748  0.5190  0.7602
  608MOL0     H80195   2.679   3.264   6.177 -2.2290  0.3636 -1.2154
  608MOL0     H80196   2.554   3.332   6.275 -2.2249 -0.1034 -1.3447
  608MOL0     H80197   2.511   3.086   6.364  0.9932  2.7297  1.8298
  608MOL0     H80198   2.608   3.039   6.226  0.9519 -0.3604  2.6186
  608MOL0     H80199   2.328   3.176   6.202  0.2055 -0.1424 -1.6197
  608MOL0     H80200   2.445   3.154   6.072  0.3107  0.0902  0.5725
  608MOL0     H80201   2.335   2.934   6.254 -4.5005 -1.0824 -0.5715
  608MOL0     H80202   2.439   2.903   6.117  0.2572  0.2585 -0.6735
  608MOL0     H80203   2.269   3.017   5.969 -1.4375  0.4980 -0.4135
  608MOL0     H80204   2.166   3.036   6.107  1.6396  0.0506  0.2682
  608MOL0     H80205   2.066   2.857   6.024  0.4424  0.5076  1.6132
  608MOL0     H80206   2.213   2.759   6.005 -1.2887 -2.3938  1.7815
  608MOL0     H80207   2.101   2.871   6.255 -2.4833  1.0792 -2.2693
  608MOL0     H80208   2.216   2.728   6.252 -0.0019  0.6163 -0.5626
  608MOL0     H80209   1.870   2.831   6.318 -4.4920 -1.6133 -0.0719
  608MOL0     H80210   1.607   2.601   6.236  1.1851 -2.0207  0.3954
  608MOL0     H80211   1.645   2.751   6.311 -3.2011 -1.0285  1.3491
  608MOL0     H80212   1.566   2.603   6.478 -0.5126 -2.7153 -2.9839
  608MOL0     H80213   1.741   2.622   6.515  1.2232  1.0259 -0.5340
  608MOL0     H80214   1.610   2.361   6.397 -1.6159 -0.3510  1.9903
  608MOL0     H80215   1.786   2.407   6.385 -0.4577 -1.0279 -0.6549
  608MOL0     H80216   1.793   2.416   6.628 -0.2291  1.4024 -0.0572
  608MOL0     H80217   1.729   2.264   6.568  0.7823 -0.6924  2.9798
  608MOL0     H80218   1.345   2.480   6.651  0.2755 -0.0507  1.5570
  608MOL0     H80219   1.150   2.312   6.691 -0.6588 -2.4647 -0.6742
  608MOL0     H80220   0.886   2.029   6.940 -1.1441  0.5026 -0.2328
  608MOL0     H80221   0.721   1.884   6.985  0.2665  2.0182  0.9764
  608MOL0     H80222   0.412   1.666   6.776  0.6437 -0.6826 -0.1245
  608MOL0     H80223   0.484   1.670   6.627 -1.4152 -5.8311  3.2907
  608MOL0     H80224   0.485   1.913   6.616 -0.0084  1.1089  1.1442
  608MOL0     H80225   0.461   1.924   6.795  0.1341 -1.2755  0.1140
  608MOL0     H80226   0.225   1.840   6.738 -0.9863 -2.7181 -2.8014
  608MOL0     H80227   0.274   1.845   6.563  1.7632  1.5405 -0.7966
  608MOL0     H80228   0.334   2.093   6.663 -0.3956  1.3095 -1.4175
  608MOL0     H80229   0.245   2.037   6.517 -6.0506 -0.9901 -0.0344
  608MOL0     H80230   0.097   2.184   6.671 -0.2011  0.9857  4.7840
  608MOL0     H80231   0.127   2.083   6.796  1.0194  4.1181 -0.4764
  608MOL0     H80232  -0.079   2.038   6.730 -0.1807 -1.8823  0.6522
  608MOL0     H80233   0.001   1.897   6.684 -1.1446  0.6086 -0.2990
  608MOL0     H80234  -0.063   2.124   6.488  0.0051 -0.4733  1.5143
  608MOL0     H80235   0.010   1.971   6.437 -0.4690  0.4774 -0.8668
  608MOL0     H80236  -0.252   2.007   6.601 -1.7245 -1.8816  0.2320
  608MOL0     H80237  -0.188   1.852   6.536  0.7012 -0.7826 -2.0608
  608MOL0     H80238   0.712   1.776   6.556 -0.5062  0.7426  0.3693
  608MOL0     H80239   0.917   1.914   6.524  2.9447 -4.7476  0.7247
  608MOL0     H80240   1.403   1.983   6.701 -0.2977 -1.0867 -3.3894
  608MOL0     H80241   1.603   2.145   6.687  1.0011  1.6424  0.4442
  608MOL0     H80242   3.059   3.089   6.349  0.6525 -0.3058 -0.2524
  608MOL0     H80243   3.243   3.144   6.525  0.0944 -0.8182  0.9892
  608MOL0     H80244   3.435   3.103   6.838  3.6021 -2.7640  2.0747
  608MOL0     H80245   3.609   3.071   6.974 -0.4962 -1.1422  1.7193
  608MOL0     H80246   3.812   3.179   7.036  1.9444  0.4481  0.3858
  608MOL0     H80247   3.760   3.061   7.163  2.7363  0.2988  0.8071
  608MOL0     H80248   3.985   3.105   7.234  1.3447  0.4489  0.5560
  608MOL0     H80249   3.973   3.271   7.164  0.6938  1.4588  2.4734
  608MOL0     H80250   3.867   3.185   7.414 -0.1255 -2.0862 -3.1399
  608MOL0     H80251   3.811   3.336   7.348 -1.9268 -1.6285 -2.1457
  608MOL0     H80252   4.049   3.426   7.345 -2.1576 -0.7343 -3.5802
  608MOL0     H80253   4.014   3.377   7.512  2.1222  0.4489 -0.2709
  608MOL0     H80254   4.319   3.115   7.393  0.2778  0.0137 -1.9190
  608MOL0     H80255   3.483   3.398   7.218  2.6945 -0.8539 -0.6160
  608MOL0     H80256   3.281   3.419   7.088  1.5430  1.2020  0.6090
  609MOL0     O80257   6.960   8.111   6.293  0.2394 -0.9316  0.8365
  609MOL0     C80258   6.957   7.989   6.275 -0.0258  0.0458  0.2970
  609MOL0     O80259   6.865   7.910   6.326  0.1605  0.1696  0.1993
  609MOL0     C80260   6.753   7.961   6.385 -0.5625 -0.1285  0.0372
  609MOL0     C80261   6.676   8.070   6.333  0.4005 -0.9012  1.2643
  609MOL0     C80262   6.551   8.112   6.387 -0.4186  0.0396  0.7502
  609MOL0     C80263   6.499   8.034   6.490  0.5314 -0.2782  0.1964
  609MOL0     O80264   6.382   8.074   6.548 -0.4385  0.2967 -0.0369
  609MOL0     C80265   6.349   8.036   6.678  0.7254  0.3366 -0.4608
  609MOL0     C80266   6.237   8.118   6.728  0.5726 -0.3669 -0.1113
  609MOL0     C80267   6.230   8.114   6.882  0.7747 -0.0355 -0.6756
  609MOL0     C80268   6.133   8.216   6.944 -0.9273 -0.6126  0.5466
  609MOL0     C80269   5.997   8.199   6.883  0.1398 -0.3868  0.9524
  609MOL0     C80270   5.880   8.237   6.973 -0.0971 -0.6926  0.1698
  609MOL0     C80271   5.741   8.229   6.905  0.3415  0.8707  0.7835
  609MOL0     C80272   5.628   8.275   7.002  0.2023  0.4606  0.4398
  609MOL0     N80273   5.494   8.251   6.961 -0.0690 -0.0888  0.4043
  609MOL0     C80274   5.404   8.316   6.874 -0.8618  0.7534  0.1206
  609MOL0     C80275   5.283   8.259   6.899 -0.5937 -0.4766  0.2301
  609MOL0     C80276   5.152   8.307   6.849 -0.0929 -0.5346  0.0262
  609MOL0     C80277   5.108   8.206   6.742  0.3915  0.2419  0.5984
  609MOL0     C80278   5.003   8.266   6.653  0.0722  0.2397  0.0741
  609MOL0     C80279   4.944   8.160   6.552  0.7591  0.2466 -0.3851
  609MOL0     O80280   4.860   8.069   6.620  0.3673  0.1516 -0.0060
  609MOL0     C80281   4.728   8.108   6.609  0.3493  0.2512 -0.1788
  609MOL0     C80282   4.655   8.129   6.486  0.2490 -0.0940 -0.2750
  609MOL0     C80283   4.531   8.186   6.481  0.2730 -0.1987  0.1705
  609MOL0     C80284   4.471   8.229   6.602  0.9821  0.0976 -0.0971
  609MOL0     C80285   4.326   8.285   6.607 -0.5521  0.3934 -0.3645
  609MOL0     O80286   4.269   8.333   6.729 -0.6747 -0.1644  0.2054
  609MOL0     C80287   4.149   8.398   6.722  0.4125  0.3900  0.4314
  609MOL0     C80288   4.157   8.539   6.696  0.4950 -0.2987  0.3004
  609MOL0     C80289   4.031   8.614   6.686  0.5160  0.7373  0.3660
  609MOL0     C80290   3.909   8.548   6.685  0.8214  0.0907 -0.0099
  609MOL0     O80291   3.791   8.625   6.673  0.0382  0.6953  0.8602
  609MOL0     C80292   3.775   8.682   6.543  1.3302  0.3228 -0.1503
  609MOL0     C80293   3.738   8.565   6.448 -0.8814 -1.2230  0.9247
  609MOL0     C80294   3.642   8.601   6.337  0.1530  1.5545 -0.8878
  609MOL0     C80295   3.617   8.483   6.245 -0.7029 -0.6516 -0.5139
  609MOL0     C80296   3.501   8.529   6.154  0.0470 -0.1560  0.0054
  609MOL0     C80297   3.492   8.433   6.039  0.4342 -0.4023  0.2407
  609MOL0     C80298   3.378   8.454   5.938 -0.2892  0.2462  0.1336
  609MOL0     C80299   3.246   8.450   5.993  1.3703 -0.3558  0.0642
  609MOL0    Cl80300   3.120   8.478   5.863  0.1751  0.0005 -0.1249
  609MOL0     C80301   3.909   8.414   6.722 -0.6520  0.2059  0.6073
  609MOL0     C80302   4.028   8.339   6.744  0.4242 -0.6391  0.3792
  609MOL0     O80303   4.268   8.291   6.501  0.5565  0.4043 -0.5576
  609MOL0     C80304   4.531   8.205   6.723  0.9665  0.4742 -0.2490
  609MOL0     C80305   4.659   8.151   6.729  0.4071  0.9100  0.3219
  609MOL0     N80306   5.307   8.152   6.991  0.3412  0.2920  1.1774
  609MOL0     N80307   5.423   8.156   7.027 -0.2987  0.0656 -0.7715
  609MOL0     C80308   6.569   7.919   6.537  0.5151 -0.1773 -0.3266
  609MOL0     C80309   6.690   7.887   6.486  0.0180 -0.5909  0.1459
  609MOL0     C80310   7.074   7.923   6.225  0.3472  0.3998 -0.2072
  609MOL0     C80311   7.077   7.785   6.222 -0.3604  0.3421  0.9452
  609MOL0     C80312   7.197   7.726   6.166  0.2840  0.1023  0.2917
  609MOL0     C80313   7.320   7.798   6.142 -0.9684 -0.2432 -0.3896
  609MOL0     O80314   7.420   7.710   6.112  0.1400 -0.0092  0.7228
  609MOL0     C80315   7.522   7.757   6.024  0.3794 -0.6421  0.7248
  609MOL0     C80316   7.615   7.639   6.022 -0.1656 -0.1443  0.1482
  609MOL0     C80317   7.762   7.674   5.982  0.6489 -0.1643 -0.1294
  609MOL0     C80318   7.843   7.546   5.978 -0.4365  0.0323  0.6676
  609MOL0     C80319   7.987   7.583   5.959  0.2901 -0.3745  0.4955
  609MOL0     C80320   8.098   7.608   5.935 -0.7668  0.2362 -0.0668
  609MOL0     C80321   7.315   7.935   6.144 -0.2267  1.2576 -0.3326
  609MOL0     C80322   7.194   7.989   6.185 -0.4794  0.9264 -0.4846
  609MOL0     H80323   6.707   8.119   6.241 -1.0093 -1.1715  0.6088
  609MOL0     H80324   6.495   8.193   6.340 -0.7372 -2.1587 -3.1130
  609MOL0     H80325   6.429   8.051   6.751  0.2275  1.1736 -0.0717
  609MOL0     H80326   6.319   7.931   6.669 -1.2887  0.9510 -1.6105
  609MOL0     H80327   6.152   8.076   6.673  1.3133  2.3414 -3.7406
  609MOL0     H80328   6.240   8.224   6.699 -4.5664  0.3631  1.0589
  609MOL0     H80329   6.322   8.141   6.934 -1.7343  0.3185  4.1372
  609MOL0     H80330   6.208   8.018   6.929 -0.9494  2.3961  4.1519
  609MOL0     H80331   6.130   8.208   7.053  0.0248  3.7294  1.0686
  609MOL0     H80332   6.178   8.312   6.919  2.7304 -1.5671  2.6529
  609MOL0     H80333   5.983   8.097   6.846 -1.3016 -1.1835  3.4763
  609MOL0     H80334   5.991   8.261   6.792 -0.4269 -0.9462  0.5972
  609MOL0     H80335   5.893   8.339   7.012  1.8600 -0.4001 -1.0834
  609MOL0     H80336   5.880   8.163   7.054 -2.2549 -0.0231  0.8446
  609MOL0     H80337   5.744   8.283   6.809  0.6633 -1.0626 -0.3368
  609MOL0     H80338   5.723   8.129   6.866  0.8173  1.2533 -0.4854
  609MOL0     H80339   5.638   8.383   7.018  0.4877  0.8289 -1.8318
  609MOL0     H80340   5.649   8.221   7.095 -0.0273  1.4512  1.0826
  609MOL0     H80341   5.423   8.384   6.792  4.0255 -1.2099 -0.7552
  609MOL0     H80342   5.161   8.412   6.821  3.0060  0.1807  2.9545
  609MOL0     H80343   5.078   8.302   6.930 -1.5032  1.7817 -1.0116
  609MOL0     H80344   5.075   8.117   6.795 -1.0082  1.1326  1.2713
  609MOL0     H80345   5.187   8.178   6.671 -2.0116  2.5490 -3.3827
  609MOL0     H80346   4.924   8.308   6.715  1.4577 -1.4451  3.2181
  609MOL0     H80347   5.044   8.349   6.595  1.5985 -1.8080 -2.0165
  609MOL0     H80348   5.023   8.102   6.503 -0.4171 -1.9160  0.1421
  609MOL0     H80349   4.885   8.207   6.473 -3.7912  0.0077  2.5262
  609MOL0     H80350   4.717   8.090   6.406  2.9831  1.9616  0.6899
  609MOL0     H80351   4.492   8.206   6.381  0.4173 -2.3835 -0.3755
  609MOL0     H80352   4.244   8.601   6.676  1.9112 -2.2339  0.2130
  609MOL0     H80353   4.021   8.718   6.658 -0.4831  0.8315  1.0304
  609MOL0     H80354   3.862   8.741   6.511 -0.8590  3.3233 -1.0984
  609MOL0     H80355   3.697   8.760   6.541  2.5663  1.6110  0.4020
  609MOL0     H80356   3.697   8.477   6.499  2.9965 -1.7638  3.4906
  609MOL0     H80357   3.826   8.536   6.392 -1.2158  0.1695 -0.4023
  609MOL0     H80358   3.662   8.693   6.280 -0.4403  1.7872 -0.7295
  609MOL0     H80359   3.545   8.612   6.386  1.9172 -0.9300  3.8399
  609MOL0     H80360   3.716   8.473   6.200  0.9243  0.6036  2.4896
  609MOL0     H80361   3.592   8.387   6.292 -0.4468 -0.9423 -0.9706
  609MOL0     H80362   3.521   8.624   6.105 -0.6578 -1.2484 -2.6028
  609MOL0     H80363   3.406   8.530   6.207 -0.7152  0.3566 -1.3375
  609MOL0     H80364   3.479   8.336   6.088  4.2570 -0.9369  0.4913
  609MOL0     H80365   3.589   8.421   5.991  0.5458 -0.1813  0.4111
  609MOL0     H80366   3.380   8.553   5.891 -1.9253  0.1344 -0.2198
  609MOL0     H80367   3.400   8.378   5.862  1.5423 -0.1370  0.9769
  609MOL0     H80368   3.234   8.526   6.071 -2.2477  1.3134 -1.8677
  609MOL0     H80369   3.216   8.361   6.048 -3.3382  1.3338  0.6286
  609MOL0     H80370   3.810   8.371   6.735  0.9308 -4.1314 -0.0165
  609MOL0     H80371   4.027   8.231   6.760 -2.1425 -0.7178  0.0167
  609MOL0     H80372   4.474   8.222   6.814 -0.0895 -0.8343 -0.6193
  609MOL0     H80373   4.700   8.154   6.830 -1.2977  1.0757  1.0384
  609MOL0     H80374   6.538   7.859   6.622  1.0083 -2.1615 -1.4774
  609MOL0     H80375   6.746   7.802   6.523  1.9021  0.5886  0.1462
  609MOL0     H80376   6.992   7.718   6.232  0.4206 -1.2641 -2.0948
  609MOL0     H80377   7.184   7.627   6.121 -0.9111  0.5740 -0.4571
  609MOL0     H80378   7.571   7.835   6.083  1.1180 -0.6672  0.1600
  609MOL0     H80379   7.491   7.801   5.929 -2.0239 -1.6623  0.9654
  609MOL0     H80380   7.634   7.587   6.117  2.5216  1.9362  0.8621
  609MOL0     H80381   7.570   7.570   5.949 -1.5120  1.8507 -1.0024
  609MOL0     H80382   7.810   7.736   6.059  0.5639 -2.4942  1.9179
  609MOL0     H80383   7.764   7.720   5.883  0.7648 -0.1386 -0.1159
  609MOL0     H80384   7.827   7.483   6.066  0.4303  0.7019  1.3242
  609MOL0     H80385   7.818   7.480   5.895  2.9043  0.3008 -0.7239
  609MOL0     H80386   8.197   7.606   5.894 -0.3368 -2.7616  0.8639
  609MOL0     H80387   7.394   8.001   6.110  0.6048  1.3552  1.6284
  609MOL0     H80388   7.210   8.094   6.207  0.3238  0.2991  2.1705
  610MOL0     O80389   6.451   0.204   5.660  0.6173  0.7268  0.2332
  610MOL0     C80390   6.479   0.158   5.766  0.1100 -0.0201  0.4053
  610MOL0     O80391   6.397   0.146   5.881 -0.2031  0.2352 -0.1908
  610MOL0     C80392   6.275   0.201   5.879  0.4906 -0.0498 -0.3417
  610MOL0     C80393   6.160   0.123   5.897 -0.4741  0.5062  0.2327
  610MOL0     C80394   6.035   0.181   5.885 -0.4696 -0.7482 -0.1929
  610MOL0     C80395   6.023   0.318   5.867  0.0750  0.2956 -0.6827
  610MOL0     O80396   5.905   0.388   5.865  0.3294 -0.1736  0.1611
  610MOL0     C80397   5.779   0.329   5.851  0.0752  0.3732  0.8203
  610MOL0     C80398   5.762   0.262   5.709 -0.1602 -0.4154 -0.2743
  610MOL0     C80399   5.643   0.167   5.718 -0.9713  0.1555  0.4453
  610MOL0     C80400   5.516   0.240   5.770 -0.0762 -0.3528  0.4501
  610MOL0     C80401   5.384   0.158   5.738 -0.3481 -0.3354  0.0455
  610MOL0     C80402   5.344   0.146   5.582 -0.2780 -0.2530  0.5732
  610MOL0     C80403   5.192   0.132   5.568  0.1609  0.6029 -0.3832
  610MOL0     C80404   5.144   0.108   5.427 -0.6201  0.7113  0.5246
  610MOL0     N80405   5.007   0.167   5.401 -0.3666 -0.3450  0.3826
  610MOL0     C80406   4.886   0.104   5.403  0.2904 -0.3924  0.1506
  610MOL0     C80407   4.803   0.189   5.338  0.4805  0.6251 -0.1934
  610MOL0     C80408   4.660   0.149   5.324 -0.3012 -0.5599 -0.0829
  610MOL0     C80409   4.588   0.235   5.207 -1.1180  0.0272  0.4246
  610MOL0     C80410   4.441   0.195   5.177 -0.3612 -0.1613  0.3424
  610MOL0     C80411   4.346   0.232   5.289  0.3271 -0.7764 -0.6105
  610MOL0     O80412   4.212   0.171   5.294  0.3884 -0.1692 -0.0228
  610MOL0     C80413   4.108   0.207   5.211 -0.1379 -0.7248  0.2846
  610MOL0     C80414   4.047   0.329   5.214 -0.4141 -0.3369 -0.3954
  610MOL0     C80415   3.953   0.367   5.114 -0.3077  0.3238  0.1231
  610MOL0     C80416   3.904   0.264   5.032  0.6240 -0.4069 -0.3506
  610MOL0     C80417   3.784   0.291   4.942 -0.2444  0.6081  0.0781
  610MOL0     O80418   3.773   0.203   4.835  0.0039 -0.3906  0.1657
  610MOL0     C80419   3.646   0.173   4.782  0.8362 -0.0326  0.5489
  610MOL0     C80420   3.513   0.196   4.838  1.0490 -0.0501  0.2069
  610MOL0     C80421   3.397   0.153   4.768  0.0711 -0.0085 -0.2710
  610MOL0     C80422   3.404   0.087   4.646 -0.0430 -0.3859 -0.4003
  610MOL0     O80423   3.278   0.080   4.591 -0.0937 -0.0848  0.1328
  610MOL0     C80424   3.260  -0.012   4.485 -0.0632  0.8815  0.2986
  610MOL0     C80425   3.121  -0.021   4.435 -0.1107 -0.3165 -0.0374
  610MOL0     C80426   3.091   0.086   4.326  0.1199  0.4313 -1.0136
  610MOL0     C80427   3.093   0.223   4.384 -0.5377  0.3034 -0.5111
  610MOL0     C80428   3.063   0.338   4.288 -0.2785 -0.9251  1.2624
  610MOL0     C80429   3.137   0.477   4.319  0.0658 -0.3671 -0.2151
  610MOL0     C80430   3.056   0.611   4.281 -0.5499  0.2010  1.0231
  610MOL0     C80431   3.046   0.627   4.127  0.5968 -0.0288 -0.5970
  610MOL0    Cl80432   2.928   0.520   4.055 -0.2288  0.2618 -0.5484
  610MOL0     C80433   3.533   0.071   4.588  0.2994  0.4606  0.1381
  610MOL0     C80434   3.652   0.117   4.647 -0.6093 -0.3588  0.7289
  610MOL0     O80435   3.714   0.389   4.961  0.0237  0.4486 -0.3804
  610MOL0     C80436   3.966   0.137   5.029 -0.1354  0.2535  1.4117
  610MOL0     C80437   4.073   0.110   5.114 -0.2219 -0.3420  0.3596
  610MOL0     N80438   4.874   0.307   5.299  0.6055 -0.4802  0.5143
  610MOL0     N80439   4.999   0.293   5.336  0.1301  0.1693  0.0247
  610MOL0     C80440   6.131   0.396   5.848 -0.7817  0.2421 -0.8146
  610MOL0     C80441   6.257   0.339   5.868  0.0445 -0.2708 -0.7213
  610MOL0     C80442   6.607   0.076   5.773  0.2347 -0.3000  1.2772
  610MOL0     C80443   6.638  -0.019   5.876  0.4453 -0.1000 -0.1309
  610MOL0     C80444   6.742  -0.109   5.860  0.4012  0.5331  0.7985
  610MOL0     C80445   6.835  -0.102   5.758  0.3996  0.1478 -0.0420
  610MOL0     O80446   6.939  -0.186   5.730  0.4425 -0.2877  0.5556
  610MOL0     C80447   6.987  -0.271   5.840 -0.5365  0.3076  0.5354
  610MOL0     C80448   6.916  -0.406   5.834 -0.3943 -0.4756  0.3354
  610MOL0     C80449   7.024  -0.502   5.766  0.5127 -0.0693 -0.0505
  610MOL0     C80450   7.136  -0.560   5.855  0.9415  0.5150  0.3189
  610MOL0     C80451   7.251  -0.593   5.770  0.5979  0.4297  0.4988
  610MOL0     C80452   7.353  -0.580   5.696  0.5821 -0.5429 -0.9320
  610MOL0     C80453   6.815  -0.003   5.662  1.3481 -0.1634 -0.3684
  610MOL0     C80454   6.696   0.083   5.669 -0.0650  0.5667 -0.1122
  610MOL0     H80455   6.191   0.021   5.917 -1.3193 -0.1017 -1.3813
  610MOL0     H80456   5.953   0.112   5.900 -0.5632 -0.6573 -0.2918
  610MOL0     H80457   5.706   0.407   5.876  0.9013  0.8904  1.7211
  610MOL0     H80458   5.768   0.252   5.928  0.6087  0.1085  0.6335
  610MOL0     H80459   5.855   0.208   5.687  0.6479 -0.4678  2.7182
  610MOL0     H80460   5.752   0.335   5.629 -0.8120 -1.3930 -1.1085
  610MOL0     H80461   5.664   0.092   5.795 -1.7650 -0.5123  0.0382
  610MOL0     H80462   5.631   0.122   5.619  0.5745 -0.3781  0.4646
  610MOL0     H80463   5.519   0.243   5.880  1.4317 -2.2115  0.5209
  610MOL0     H80464   5.521   0.338   5.723  0.6138 -0.9725 -0.8347
  610MOL0     H80465   5.297   0.204   5.785 -0.2872  1.0111 -1.1221
  610MOL0     H80466   5.377   0.058   5.783 -2.1741 -1.1261 -1.8124
  610MOL0     H80467   5.394   0.063   5.531  1.7256  1.2376 -0.0335
  610MOL0     H80468   5.377   0.236   5.528 -1.6507 -0.6928 -1.0717
  610MOL0     H80469   5.152   0.050   5.628  0.0594  0.3687 -0.7665
  610MOL0     H80470   5.144   0.225   5.601 -0.0080  1.0655 -1.8551
  610MOL0     H80471   5.154   0.001   5.406  0.8482  0.5389  1.8725
  610MOL0     H80472   5.213   0.152   5.354  1.1333 -0.9425  1.0842
  610MOL0     H80473   4.854   0.009   5.445 -0.8768 -1.0303 -2.0223
  610MOL0     H80474   4.598   0.171   5.411 -3.4088 -1.7225 -1.8247
  610MOL0     H80475   4.654   0.041   5.305 -1.4698 -1.3821  4.0593
  610MOL0     H80476   4.645   0.217   5.115 -0.3028 -0.1137  0.9443
  610MOL0     H80477   4.600   0.339   5.238 -0.4045  0.3673 -0.9331
  610MOL0     H80478   4.413   0.248   5.086  1.3986  1.0093  0.4443
  610MOL0     H80479   4.442   0.086   5.163 -0.1992 -0.1169  0.0193
  610MOL0     H80480   4.345   0.341   5.282 -1.6266 -0.4685  2.4489
  610MOL0     H80481   4.391   0.205   5.385 -1.9345  0.2439  0.8262
  610MOL0     H80482   4.086   0.391   5.294  1.2770 -0.5440 -1.0131
  610MOL0     H80483   3.911   0.465   5.095 -1.3266  0.1259  1.2593
  610MOL0     H80484   3.487   0.241   4.933 -4.3840 -0.3870 -0.7809
  610MOL0     H80485   3.305   0.161   4.824  0.0411 -2.1877  0.0898
  610MOL0     H80486   3.292  -0.102   4.537  0.3836  0.0497 -1.3305
  610MOL0     H80487   3.326   0.012   4.401 -0.0123 -0.4987 -0.0787
  610MOL0     H80488   3.056  -0.009   4.523  3.0671 -0.3070  2.4962
  610MOL0     H80489   3.110  -0.121   4.393  1.0365 -1.0420  1.2983
  610MOL0     H80490   2.994   0.064   4.282 -1.4767  0.2328  2.2788
  610MOL0     H80491   3.168   0.084   4.248 -0.5372 -1.7910 -1.6867
  610MOL0     H80492   3.014   0.242   4.458 -1.8971 -0.4900 -1.7065
  610MOL0     H80493   3.188   0.243   4.433 -0.0144  1.9031 -2.0465
  610MOL0     H80494   2.957   0.365   4.283 -0.2792 -0.9846  0.9327
  610MOL0     H80495   3.093   0.299   4.190 -3.6359  1.4395 -0.9316
  610MOL0     H80496   3.235   0.471   4.270  0.3449 -2.2167  0.4813
  610MOL0     H80497   3.162   0.469   4.425 -2.3271 -2.9142  0.2891
  610MOL0     H80498   2.952   0.616   4.316 -1.4038  1.2440 -1.4271
  610MOL0     H80499   3.097   0.700   4.329 -1.2169 -0.2769  2.5493
  610MOL0     H80500   3.146   0.614   4.084  1.5922  3.8314  0.1109
  610MOL0     H80501   3.011   0.730   4.114 -2.0266 -0.8172 -0.2937
  610MOL0     H80502   3.542   0.033   4.486  0.7529  1.3046 -0.1447
  610MOL0     H80503   3.747   0.114   4.596 -1.4269 -1.7812 -0.7810
  610MOL0     H80504   3.928   0.057   4.967  0.5005  2.4126 -2.0297
  610MOL0     H80505   4.114   0.009   5.118  3.9635  1.2149  1.9646
  610MOL0     H80506   6.130   0.500   5.817 -1.1556  0.2706 -0.7166
  610MOL0     H80507   6.350   0.396   5.869  0.4399 -0.8821 -1.6523
  610MOL0     H80508   6.562  -0.033   5.952 -0.9417 -1.2175 -1.6482
  610MOL0     H80509   6.764  -0.185   5.934 -2.5102 -0.3037  0.9160
  610MOL0     H80510   6.974  -0.233   5.941 -0.3833 -3.1278  1.9646
  610MOL0     H80511   7.094  -0.269   5.814 -0.7093 -2.6493 -0.8772
  610MOL0     H80512   6.889  -0.459   5.925  1.6530 -2.6706 -0.2273
  610MOL0     H80513   6.820  -0.390   5.785 -1.3457 -0.8660  2.0051
  610MOL0     H80514   7.069  -0.438   5.690 -1.6936  2.7450  0.8500
  610MOL0     H80515   6.970  -0.587   5.722  0.1391  0.9610 -1.6697
  610MOL0     H80516   7.165  -0.488   5.931 -1.5735  0.5582  1.3286
  610MOL0     H80517   7.092  -0.647   5.905 -1.7363  1.7399  0.2311
  610MOL0     H80518   7.450  -0.567   5.652  1.8321 -0.9795  1.5479
  610MOL0     H80519   6.882   0.015   5.579  1.2111  0.7125 -0.2954
  610MOL0     H80520   6.692   0.153   5.586  3.8864  1.1598 -0.0033
  611MOL0     O80521   4.364   1.604   7.819 -0.5976  0.0805 -0.5315
  611MOL0     C80522   4.289   1.618   7.918  1.2040 -0.0460 -0.4025
  611MOL0     O80523   4.310   1.567   8.044  0.4561 -0.0332 -0.1058
  611MOL0     C80524   4.420   1.482   8.071  0.1984 -0.6551 -0.2392
  611MOL0     C80525   4.388   1.401   8.181  0.1664 -0.3929 -0.8034
  611MOL0     C80526   4.477   1.310   8.235  0.3928 -0.7943  0.5562
  611MOL0     C80527   4.603   1.294   8.167  0.8527  0.3315 -0.2587
  611MOL0     O80528   4.672   1.194   8.223 -0.3820  0.1084 -0.2039
  611MOL0     C80529   4.713   1.097   8.122 -0.2215 -0.2916 -0.7745
  611MOL0     C80530   4.660   0.955   8.148  0.7373 -0.2302 -0.3929
  611MOL0     C80531   4.513   0.930   8.098  0.2787 -0.4058  0.7439
  611MOL0     C80532   4.403   0.950   8.193 -0.2223  0.1816 -0.8719
  611MOL0     C80533   4.271   0.919   8.127  0.8035  0.2578  0.6159
  611MOL0     C80534   4.153   0.941   8.229  0.8058 -0.3947  0.0173
  611MOL0     C80535   4.011   0.939   8.170 -0.4480  1.4073 -0.5105
  611MOL0     C80536   3.965   0.799   8.139 -0.3700 -0.1558  0.6703
  611MOL0     N80537   3.828   0.816   8.083  1.1709  0.2883 -0.6339
  611MOL0     C80538   3.803   0.862   7.961  0.1337  0.0221  0.6155
  611MOL0     C80539   3.665   0.860   7.945  0.2813 -0.5680 -0.3443
  611MOL0     C80540   3.601   0.880   7.805  0.0810 -0.2359  0.5743
  611MOL0     C80541   3.532   1.021   7.811 -0.3372  0.2118  0.7565
  611MOL0     C80542   3.460   1.066   7.683  0.1596 -0.4800 -0.0019
  611MOL0     C80543   3.365   0.972   7.626 -0.6678  1.0905 -0.0144
  611MOL0     O80544   3.256   1.031   7.550  0.6732  0.7384 -0.6343
  611MOL0     C80545   3.145   1.085   7.609  0.1505 -1.2116  0.3042
  611MOL0     C80546   3.117   1.108   7.743 -0.1033  0.7713  0.2005
  611MOL0     C80547   2.993   1.175   7.775  0.4819 -0.1795  0.1538
  611MOL0     C80548   2.910   1.224   7.677 -0.5839  0.1627  0.4787
  611MOL0     C80549   2.797   1.308   7.709  0.1406 -0.1357  0.2718
  611MOL0     O80550   2.773   1.345   7.847  0.0440 -0.2214 -0.8110
  611MOL0     C80551   2.684   1.450   7.848 -0.0051 -0.1565  0.0158
  611MOL0     C80552   2.721   1.559   7.918  0.5540  1.2257 -0.1601
  611MOL0     C80553   2.634   1.671   7.934  0.0431  0.2945  0.2274
  611MOL0     C80554   2.508   1.664   7.884 -0.6900  0.2244  0.0976
  611MOL0     O80555   2.414   1.765   7.892 -0.2458  0.5793 -0.1807
  611MOL0     C80556   2.459   1.894   7.849 -0.0003 -0.0872  0.3001
  611MOL0     C80557   2.352   1.993   7.899 -1.1561  0.3891 -0.1727
  611MOL0     C80558   2.400   2.135   7.864  0.4804 -0.1049  0.3747
  611MOL0     C80559   2.291   2.235   7.880  0.4339 -0.0425  0.2100
  611MOL0     C80560   2.292   2.312   8.011 -0.4154 -0.8820 -0.2406
  611MOL0     C80561   2.179   2.409   8.053  0.2241 -0.3536  0.4179
  611MOL0     C80562   2.186   2.435   8.202 -0.1143 -0.6057  0.2347
  611MOL0     C80563   2.084   2.529   8.262 -0.2075  0.4447  0.4176
  611MOL0    Cl80564   2.100   2.686   8.175  0.4473 -0.2561 -0.4995
  611MOL0     C80565   2.461   1.547   7.823  0.2027 -1.0506  0.9413
  611MOL0     C80566   2.550   1.442   7.803  0.7946  0.1591 -0.4151
  611MOL0     O80567   2.723   1.342   7.613 -0.2855  0.2683 -0.0568
  611MOL0     C80568   2.940   1.198   7.540 -0.1370  0.2613 -0.5279
  611MOL0     C80569   3.061   1.143   7.509  0.5720  1.0110 -0.1922
  611MOL0     N80570   3.620   0.823   8.070 -0.0104  0.1746  0.2477
  611MOL0     N80571   3.713   0.789   8.152 -0.9989  0.2329 -0.0152
  611MOL0     C80572   4.641   1.380   8.063  0.4959  0.2092  0.2592
  611MOL0     C80573   4.550   1.486   8.024 -0.4689 -0.1083 -0.7348
  611MOL0     C80574   4.163   1.683   7.892  0.3424  0.0347 -0.2965
  611MOL0     C80575   4.096   1.672   7.771  0.9630 -0.0362  0.0489
  611MOL0     C80576   3.967   1.723   7.753  0.1079 -0.1829 -0.4257
  611MOL0     C80577   3.897   1.782   7.853  1.0320  0.3595  0.0928
  611MOL0     O80578   3.771   1.828   7.835  0.6056  0.3361 -0.0642
  611MOL0     C80579   3.754   1.964   7.796  0.4618 -0.1346  0.0684
  611MOL0     C80580   3.697   2.049   7.909 -0.1873 -0.3138 -0.1727
  611MOL0     C80581   3.539   2.043   7.904 -0.0990 -0.5983  0.7817
  611MOL0     C80582   3.467   2.129   8.006 -1.6768 -0.5466 -0.2284
  611MOL0     C80583   3.478   2.274   7.976 -0.0653 -0.3181 -0.1318
  611MOL0     C80584   3.509   2.388   7.950  0.6861  0.0062  0.5930
  611MOL0     C80585   3.962   1.803   7.970 -0.3286 -0.8546 -0.3373
  611MOL0     C80586   4.091   1.751   7.989 -0.3137 -0.9077  0.2639
  611MOL0     H80587   4.285   1.409   8.215 -0.0395  0.5798 -1.6170
  611MOL0     H80588   4.458   1.266   8.333  2.9975  1.8441  2.4498
  611MOL0     H80589   4.822   1.095   8.113 -0.2196  0.7673 -1.0686
  611MOL0     H80590   4.687   1.134   8.022  0.0260  0.1065 -0.6937
  611MOL0     H80591   4.669   0.915   8.249 -3.2549 -0.6104 -0.0274
  611MOL0     H80592   4.732   0.899   8.088  0.4780  0.4867 -1.4078
  611MOL0     H80593   4.503   0.823   8.082  1.7569 -0.0978 -3.3130
  611MOL0     H80594   4.485   0.982   8.006  2.5482  1.2298  0.8635
  611MOL0     H80595   4.423   0.877   8.272  1.2500 -1.5525 -2.7204
  611MOL0     H80596   4.390   1.048   8.238 -1.7179 -0.6465  0.6351
  611MOL0     H80597   4.271   0.812   8.104 -2.3310  0.7010 -2.3345
  611MOL0     H80598   4.254   0.975   8.034 -1.7942 -1.7046 -0.2208
  611MOL0     H80599   4.166   1.037   8.278 -2.2268 -1.0131  2.3217
  611MOL0     H80600   4.160   0.864   8.307 -3.0274  0.7990  1.7326
  611MOL0     H80601   3.940   0.989   8.237  1.0580 -1.7966  3.9279
  611MOL0     H80602   4.001   0.990   8.073 -2.1127 -1.3380 -1.9121
  611MOL0     H80603   3.962   0.735   8.228 -1.8045 -0.8589  0.1324
  611MOL0     H80604   4.022   0.743   8.065  0.3835  0.8353  0.4773
  611MOL0     H80605   3.875   0.884   7.883  0.5124  0.5358  1.0987
  611MOL0     H80606   3.537   0.798   7.771 -2.0333  1.6210 -0.1414
  611MOL0     H80607   3.682   0.864   7.732  1.2146 -3.4241  2.3075
  611MOL0     H80608   3.602   1.100   7.839  0.0424 -0.0452  0.5464
  611MOL0     H80609   3.455   1.025   7.888 -0.4090  3.1063  0.6293
  611MOL0     H80610   3.395   1.148   7.714 -1.6304 -1.7127 -0.2758
  611MOL0     H80611   3.530   1.095   7.605 -0.7310 -2.0080 -1.4370
  611MOL0     H80612   3.324   0.916   7.711  1.4747 -2.3154 -1.0228
  611MOL0     H80613   3.418   0.902   7.560  0.5305  1.4277  0.5636
  611MOL0     H80614   3.176   1.075   7.828  2.5536  4.3571 -0.0532
  611MOL0     H80615   2.949   1.162   7.873 -2.1786 -1.0506 -1.0613
  611MOL0     H80616   2.820   1.548   7.959 -0.3455  0.0445  1.8562
  611MOL0     H80617   2.666   1.767   7.974 -3.3529  2.1544 -1.1348
  611MOL0     H80618   2.465   1.894   7.739 -0.4186 -2.5374  0.2226
  611MOL0     H80619   2.554   1.929   7.889 -1.2475  3.8798  0.2591
  611MOL0     H80620   2.332   1.978   8.005  0.8459 -2.9949 -0.1356
  611MOL0     H80621   2.263   1.968   7.840 -1.1524  2.5353 -1.1852
  611MOL0     H80622   2.449   2.146   7.767  3.2213 -0.1862  1.6716
  611MOL0     H80623   2.476   2.166   7.936  1.2446 -0.4896 -0.2491
  611MOL0     H80624   2.310   2.312   7.804  1.1412  0.5306  0.9523
  611MOL0     H80625   2.189   2.197   7.870 -0.6571  3.0265 -2.4981
  611MOL0     H80626   2.391   2.359   8.013 -0.8375  0.1361 -1.5596
  611MOL0     H80627   2.294   2.234   8.088 -2.7138 -0.8135 -0.0597
  611MOL0     H80628   2.083   2.361   8.035 -1.1367  1.6899  1.7633
  611MOL0     H80629   2.168   2.495   7.987  1.3958 -0.1877  0.4052
  611MOL0     H80630   2.198   2.336   8.248  3.5771  0.2925  1.4918
  611MOL0     H80631   2.283   2.484   8.214 -0.6245  0.2767  0.8538
  611MOL0     H80632   2.115   2.560   8.363  1.6318  1.5105 -0.4385
  611MOL0     H80633   1.981   2.493   8.269 -0.0453 -0.8983 -2.5793
  611MOL0     H80634   2.358   1.532   7.794 -0.5887  3.8424  0.4753
  611MOL0     H80635   2.512   1.356   7.750  0.3560  0.2867 -0.3122
  611MOL0     H80636   2.886   1.230   7.452 -0.2873  1.7032  0.0654
  611MOL0     H80637   3.085   1.120   7.405  1.0908  0.7725 -0.0215
  611MOL0     H80638   4.735   1.368   8.010  0.2875  1.0926 -0.3387
  611MOL0     H80639   4.589   1.561   7.955  2.5326  1.1821  2.0958
  611MOL0     H80640   4.143   1.615   7.692 -2.5420 -4.1352  0.5154
  611MOL0     H80641   3.917   1.726   7.657  1.1837  1.1332 -0.9696
  611MOL0     H80642   3.690   1.957   7.708  1.3568 -0.3601 -0.5800
  611MOL0     H80643   3.851   2.010   7.778  0.3649  0.0806  0.1007
  611MOL0     H80644   3.735   2.012   8.005 -2.6838 -2.0022  0.2595
  611MOL0     H80645   3.728   2.153   7.899 -0.6090 -0.2992 -1.4502
  611MOL0     H80646   3.510   1.938   7.916 -0.7224 -0.3811  1.2408
  611MOL0     H80647   3.491   2.069   7.809  1.5132  1.2405  0.4081
  611MOL0     H80648   3.360   2.109   8.021 -1.5757  0.0344  1.5409
  611MOL0     H80649   3.515   2.104   8.101  0.0802  1.9677 -0.3584
  611MOL0     H80650   3.558   2.475   7.914  1.2267 -0.1579  0.9183
  611MOL0     H80651   3.916   1.873   8.039  0.9786  1.5134 -1.7396
  611MOL0     H80652   4.134   1.775   8.085 -0.0204 -1.4603  0.2773
  612MOL0     O80653   4.978   6.556   6.203 -0.4524 -0.7371 -0.1533
  612MOL0     C80654   5.004   6.629   6.303  0.0811 -0.1373 -0.2212
  612MOL0     O80655   4.940   6.745   6.345 -0.2911  0.5098  0.6297
  612MOL0     C80656   4.814   6.772   6.296  0.9640  0.4991 -0.2518
  612MOL0     C80657   4.794   6.825   6.164 -0.1830  1.1213  0.1902
  612MOL0     C80658   4.660   6.856   6.112 -0.0566  0.6420  0.3143
  612MOL0     C80659   4.554   6.849   6.201 -0.6227  0.4590 -0.3712
  612MOL0     O80660   4.421   6.871   6.166  0.0285 -0.5212 -0.1187
  612MOL0     C80661   4.384   6.935   6.046  0.8049 -0.1116  0.3061
  612MOL0     C80662   4.227   6.945   6.032 -0.5542 -0.1010 -0.4408
  612MOL0     C80663   4.197   7.006   5.893 -0.0133  0.0738  0.1174
  612MOL0     C80664   4.053   7.048   5.886  0.0012  0.1308  0.1305
  612MOL0     C80665   3.983   7.087   5.748  0.5750  0.3477 -0.4271
  612MOL0     C80666   3.987   6.959   5.652 -0.2028 -0.3181  0.1928
  612MOL0     C80667   3.929   6.981   5.514  0.3901 -0.0191  0.3918
  612MOL0     C80668   3.867   6.853   5.454  0.0981  0.0440  1.2650
  612MOL0     N80669   3.791   6.879   5.334  0.2768 -0.5643 -0.9237
  612MOL0     C80670   3.685   6.966   5.325  0.0884 -0.7690  0.8107
  612MOL0     C80671   3.657   6.977   5.190 -1.3806 -1.4797 -0.3458
  612MOL0     C80672   3.569   7.069   5.115  0.5417 -0.2709  0.0223
  612MOL0     C80673   3.432   7.119   5.177  0.4123  0.9636 -1.3331
  612MOL0     C80674   3.341   7.173   5.073 -0.5909  0.7672 -0.6071
  612MOL0     C80675   3.218   7.238   5.141  0.1596  0.2190 -0.2629
  612MOL0     O80676   3.120   7.137   5.178  0.0647 -0.1643  0.3915
  612MOL0     C80677   3.004   7.183   5.229 -0.1746  0.7329 -0.1242
  612MOL0     C80678   2.906   7.083   5.245 -0.3138 -0.3185 -0.2673
  612MOL0     C80679   2.781   7.113   5.306  0.5134 -0.3505  0.7348
  612MOL0     C80680   2.750   7.247   5.346 -0.3326 -0.9246 -0.8187
  612MOL0     C80681   2.618   7.286   5.421 -0.1997 -1.1167  1.1173
  612MOL0     O80682   2.548   7.180   5.470  0.6327 -0.2471 -0.7656
  612MOL0     C80683   2.412   7.185   5.482 -0.8255 -0.4096  0.5762
  612MOL0     C80684   2.352   7.068   5.441 -0.7908  0.5565 -0.5280
  612MOL0     C80685   2.215   7.065   5.443 -0.3737  0.8765  0.5545
  612MOL0     C80686   2.140   7.171   5.483 -0.0733 -0.2963 -0.2803
  612MOL0     O80687   2.006   7.182   5.484 -0.1180 -0.1043  0.0539
  612MOL0     C80688   1.924   7.054   5.484 -0.1137 -0.3240  0.6358
  612MOL0     C80689   1.769   7.064   5.490  0.0449  0.0565 -0.4299
  612MOL0     C80690   1.726   7.166   5.593 -0.5273 -0.0282 -0.3048
  612MOL0     C80691   1.578   7.210   5.579 -0.2826 -0.2747  0.5577
  612MOL0     C80692   1.481   7.103   5.627 -0.6836 -0.4207  0.0431
  612MOL0     C80693   1.336   7.140   5.575 -0.1318  0.6033  0.3051
  612MOL0     C80694   1.298   7.289   5.561  0.1340 -0.2612 -0.4111
  612MOL0     C80695   1.156   7.298   5.493  1.0695 -0.8341  0.1657
  612MOL0    Cl80696   1.020   7.318   5.623 -0.1108  0.2687  0.3192
  612MOL0     C80697   2.195   7.285   5.527  0.0314  0.6912  0.7163
  612MOL0     C80698   2.332   7.298   5.529 -0.7160 -0.5541 -1.1937
  612MOL0     O80699   2.591   7.404   5.430 -0.7162  0.5664 -0.3266
  612MOL0     C80700   2.850   7.337   5.325  0.4646  0.5170  0.2699
  612MOL0     C80701   2.972   7.313   5.263  0.1024  0.2918 -0.2752
  612MOL0     N80702   3.724   6.871   5.131 -0.4355  0.2372  0.8079
  612MOL0     N80703   3.811   6.817   5.216  0.2786 -0.3080  0.6423
  612MOL0     C80704   4.575   6.803   6.332 -1.5290 -0.2943 -1.0056
  612MOL0     C80705   4.707   6.756   6.373  0.9835 -0.4143 -0.3606
  612MOL0     C80706   5.128   6.599   6.372 -0.1594  0.1604  1.2759
  612MOL0     C80707   5.203   6.709   6.423 -0.5145 -0.3305  1.0803
  612MOL0     C80708   5.324   6.676   6.484  0.2860  0.7850  0.4845
  612MOL0     C80709   5.380   6.550   6.489  0.2560 -0.9627 -0.6185
  612MOL0     O80710   5.497   6.538   6.559 -0.0216  0.4657  0.1694
  612MOL0     C80711   5.558   6.412   6.551 -0.0537 -0.2468  0.1678
  612MOL0     C80712   5.666   6.414   6.663  0.1968  0.0442 -0.4371
  612MOL0     C80713   5.723   6.264   6.682  0.5615  0.1614  1.3620
  612MOL0     C80714   5.800   6.224   6.550 -0.0620  1.0750  0.2484
  612MOL0     C80715   5.859   6.091   6.567  0.2015  0.0404 -0.3546
  612MOL0     C80716   5.900   5.978   6.594 -0.2489  0.2387 -0.7013
  612MOL0     C80717   5.312   6.459   6.416 -0.5041  1.0550 -0.1277
  612MOL0     C80718   5.190   6.476   6.367  0.2929 -0.2252 -0.4149
  612MOL0     H80719   4.882   6.847   6.104 -0.5061  4.0573  0.6385
  612MOL0     H80720   4.643   6.881   6.008  2.4409 -0.8817 -0.5502
  612MOL0     H80721   4.414   6.870   5.963  0.9181 -0.0612  0.3072
  612MOL0     H80722   4.437   7.029   6.030  1.1107 -0.4171 -0.5813
  612MOL0     H80723   4.185   6.995   6.120 -0.6803 -0.9378 -0.0195
  612MOL0     H80724   4.187   6.844   6.022 -0.1361 -0.1578 -1.7888
  612MOL0     H80725   4.230   6.937   5.815 -2.9260 -1.4495  0.0922
  612MOL0     H80726   4.250   7.100   5.874 -0.9856  0.1389 -2.8741
  612MOL0     H80727   3.999   6.962   5.926  1.0140 -0.2629  0.6996
  612MOL0     H80728   4.046   7.126   5.961 -1.9999  0.7416 -0.6189
  612MOL0     H80729   4.034   7.173   5.702  2.6979  0.4722  1.9693
  612MOL0     H80730   3.881   7.122   5.766  0.9627  2.2512 -1.5934
  612MOL0     H80731   3.934   6.875   5.697  1.5894  0.1235  3.4807
  612MOL0     H80732   4.089   6.922   5.636 -1.1211 -2.5286 -1.0248
  612MOL0     H80733   3.862   7.067   5.510  0.0071 -0.3589 -2.2679
  612MOL0     H80734   4.011   7.006   5.446  0.8905 -1.7130  0.3387
  612MOL0     H80735   3.808   6.792   5.522  0.7134 -2.9361 -0.6921
  612MOL0     H80736   3.944   6.786   5.415 -2.4069 -2.3058  0.0017
  612MOL0     H80737   3.643   7.017   5.411 -0.6724 -1.5628  0.9230
  612MOL0     H80738   3.545   7.002   5.032  3.1367 -2.7681  1.1098
  612MOL0     H80739   3.615   7.160   5.077 -1.6080  0.5370 -0.8308
  612MOL0     H80740   3.464   7.193   5.251  0.3577 -0.3596  0.0631
  612MOL0     H80741   3.384   7.040   5.235  0.3329  1.9129 -0.0628
  612MOL0     H80742   3.408   7.230   5.009  0.3349  1.7166  1.1164
  612MOL0     H80743   3.278   7.098   5.023  0.3507 -0.0252 -0.6277
  612MOL0     H80744   3.176   7.300   5.062  0.9068  0.6442 -0.3358
  612MOL0     H80745   3.240   7.299   5.229  1.9579 -1.5672  0.6041
  612MOL0     H80746   2.934   6.982   5.217  0.2115 -0.2517  0.0005
  612MOL0     H80747   2.711   7.033   5.325  0.2270  0.1652  1.9647
  612MOL0     H80748   2.425   6.997   5.403 -0.9952 -0.3979  0.7872
  612MOL0     H80749   2.179   6.964   5.429  3.0273 -0.6383  1.6825
  612MOL0     H80750   1.944   6.992   5.572  1.7802  3.0458  2.7497
  612MOL0     H80751   1.953   7.009   5.388  0.7014  1.7218 -0.1196
  612MOL0     H80752   1.725   6.970   5.525  0.9448  1.0867  4.1398
  612MOL0     H80753   1.739   7.090   5.388  0.6146  3.1035  0.0807
  612MOL0     H80754   1.785   7.257   5.587 -0.1954 -0.0754  1.5624
  612MOL0     H80755   1.741   7.113   5.687  0.3929  1.3307  0.3396
  612MOL0     H80756   1.573   7.303   5.636  2.7867 -0.3558  1.1448
  612MOL0     H80757   1.569   7.234   5.473  0.3728 -1.3080  0.2535
  612MOL0     H80758   1.472   7.109   5.736 -0.5290  2.4572 -0.0116
  612MOL0     H80759   1.511   7.005   5.592 -0.6896  0.1426 -1.6116
  612MOL0     H80760   1.265   7.092   5.643  1.0671 -0.1014  1.1073
  612MOL0     H80761   1.326   7.094   5.477 -0.7614 -1.0778  1.1361
  612MOL0     H80762   1.312   7.332   5.661 -0.6265 -2.2704  0.6321
  612MOL0     H80763   1.374   7.327   5.492  0.0885  0.2534 -0.1817
  612MOL0     H80764   1.134   7.204   5.441 -3.3988 -0.5418  1.1549
  612MOL0     H80765   1.140   7.380   5.423 -1.9752 -3.5371 -2.6144
  612MOL0     H80766   2.139   7.368   5.570  0.1618  0.2969  1.6737
  612MOL0     H80767   2.374   7.394   5.557  1.1162 -1.5654 -0.3194
  612MOL0     H80768   2.825   7.436   5.361  0.7579  2.0883 -3.4127
  612MOL0     H80769   3.040   7.395   5.246  0.6739 -0.1239 -0.0372
  612MOL0     H80770   4.495   6.823   6.403 -0.5333  2.5792 -0.5688
  612MOL0     H80771   4.726   6.716   6.472  0.1509 -0.4403 -0.2002
  612MOL0     H80772   5.177   6.814   6.426  2.9791  0.6365  1.2150
  612MOL0     H80773   5.365   6.766   6.528  1.4998 -0.4252  1.9244
  612MOL0     H80774   5.589   6.389   6.449 -2.3872 -2.3265 -0.1720
  612MOL0     H80775   5.477   6.341   6.574 -0.9057 -0.0164 -1.9228
  612MOL0     H80776   5.749   6.476   6.628  0.3842  2.3902  3.5789
  612MOL0     H80777   5.640   6.454   6.761  1.5182  0.1223 -0.1023
  612MOL0     H80778   5.640   6.193   6.694  1.1218 -0.6358  0.6082
  612MOL0     H80779   5.781   6.244   6.773 -0.8116 -1.6112  1.9112
  612MOL0     H80780   5.739   6.220   6.459  1.5395  1.7744 -0.8960
  612MOL0     H80781   5.873   6.302   6.524 -2.3730  2.6963 -1.9419
  612MOL0     H80782   5.916   5.873   6.613 -0.2061  0.6362  1.7328
  612MOL0     H80783   5.362   6.366   6.391 -1.6852 -0.2956  2.2086
  612MOL0     H80784   5.145   6.400   6.303 -2.7293  0.9098  0.2025
  613MOL0     O80785   6.371   0.896   9.591  0.3431 -0.2629  0.0652
  613MOL0     C80786   6.452   0.852   9.513  0.1552 -0.0837  0.6688
  613MOL0     O80787   6.429   0.766   9.409 -0.0248  0.6654 -0.0790
  613MOL0     C80788   6.300   0.758   9.367 -0.0609 -0.6337 -0.6780
  613MOL0     C80789   6.189   0.707   9.428 -1.0872 -0.3230 -0.0672
  613MOL0     C80790   6.063   0.700   9.367 -0.3579 -0.1930 -0.1851
  613MOL0     C80791   6.042   0.772   9.251 -0.3064  0.4332 -0.1779
  613MOL0     O80792   5.916   0.777   9.204  0.7814  1.0764  0.1651
  613MOL0     C80793   5.868   0.653   9.146 -0.3629  0.5227 -0.1325
  613MOL0     C80794   5.712   0.661   9.140  0.3094  0.0338 -0.7312
  613MOL0     C80795   5.641   0.700   9.277 -0.3087  0.5995 -0.8790
  613MOL0     C80796   5.488   0.683   9.275 -0.0224  0.3082 -0.1427
  613MOL0     C80797   5.414   0.797   9.350  0.9671 -1.5497  0.2510
  613MOL0     C80798   5.433   0.926   9.276 -0.0042  0.5170  0.1159
  613MOL0     C80799   5.346   1.031   9.348  0.3482  0.6094  0.1655
  613MOL0     C80800   5.202   1.048   9.303  0.2436  0.0986 -0.8447
  613MOL0     N80801   5.183   1.076   9.159  0.2726  0.2068  0.0513
  613MOL0     C80802   5.076   1.025   9.087 -0.6706  0.1041  0.4466
  613MOL0     C80803   5.097   1.077   8.960 -0.9184 -0.4036 -0.5524
  613MOL0     C80804   4.992   1.052   8.863  0.1077 -0.4610 -0.2537
  613MOL0     C80805   4.983   1.151   8.743 -0.1356  0.4670  0.4951
  613MOL0     C80806   4.852   1.127   8.661  0.2006  0.1586  0.4516
  613MOL0     C80807   4.857   1.014   8.565 -0.0911 -0.1263  0.8021
  613MOL0     O80808   4.779   0.900   8.589  0.4718 -0.1176  0.0368
  613MOL0     C80809   4.635   0.920   8.605 -0.4390 -1.1537 -0.2411
  613MOL0     C80810   4.572   1.041   8.561 -1.0499 -0.8772  0.7089
  613MOL0     C80811   4.431   1.045   8.567 -0.2408 -0.2522 -0.1009
  613MOL0     C80812   4.347   0.934   8.608  0.0634  0.3400  0.8474
  613MOL0     C80813   4.200   0.936   8.596 -0.1967  0.4178  0.3472
  613MOL0     O80814   4.140   0.829   8.647 -0.1988  0.5508 -0.4114
  613MOL0     C80815   4.009   0.798   8.614  0.6815 -0.3278  0.0293
  613MOL0     C80816   3.925   0.850   8.509 -0.6380  0.0861 -1.0097
  613MOL0     C80817   3.801   0.793   8.489  0.2966 -0.2818 -1.1911
  613MOL0     C80818   3.745   0.703   8.580 -0.3986 -0.0194 -0.0820
  613MOL0     O80819   3.619   0.661   8.548 -1.1152 -0.1836  0.4056
  613MOL0     C80820   3.583   0.528   8.584  0.1439  0.1160  0.0586
  613MOL0     C80821   3.445   0.502   8.543  0.4529  0.8166 -0.0607
  613MOL0     C80822   3.387   0.359   8.574 -0.0854  0.2391 -0.6716
  613MOL0     C80823   3.251   0.340   8.518  0.2179  1.3858  0.5305
  613MOL0     C80824   3.224   0.370   8.365  0.0468  0.2571 -0.1139
  613MOL0     C80825   3.255   0.249   8.286 -0.2828  0.6439  0.0175
  613MOL0     C80826   3.253   0.276   8.141 -0.6527  0.0302 -0.0636
  613MOL0     C80827   3.249   0.149   8.059 -0.2781 -0.4508 -0.1929
  613MOL0    Cl80828   3.266   0.201   7.888  0.2172 -0.0502  0.0981
  613MOL0     C80829   3.819   0.663   8.690  0.3601 -0.3686 -0.8076
  613MOL0     C80830   3.953   0.703   8.704  0.7521  0.2529 -0.0546
  613MOL0     O80831   4.151   1.034   8.558  0.0781 -0.4391  0.7027
  613MOL0     C80832   4.411   0.825   8.658  0.3938  0.0472 -0.1761
  613MOL0     C80833   4.551   0.818   8.652 -1.0381 -0.2720  0.2332
  613MOL0     N80834   5.217   1.147   8.952  0.6299  0.3414  0.4238
  613MOL0     N80835   5.270   1.148   9.071  0.3232 -0.9237 -0.1217
  613MOL0     C80836   6.152   0.833   9.183 -0.0099 -1.5098  0.2052
  613MOL0     C80837   6.276   0.826   9.243 -0.0342 -0.8539  0.3501
  613MOL0     C80838   6.591   0.905   9.526  0.2204 -0.6961 -0.0641
  613MOL0     C80839   6.635   0.960   9.651 -0.2598  0.6936 -0.4228
  613MOL0     C80840   6.770   1.009   9.660  0.0616 -0.1762 -0.5172
  613MOL0     C80841   6.860   1.012   9.550  0.6773  0.2272  0.2661
  613MOL0     O80842   6.990   1.041   9.568  0.5936  0.2001  0.0938
  613MOL0     C80843   7.083   1.054   9.447  0.4983 -0.4304 -1.4494
  613MOL0     C80844   7.215   1.104   9.505  0.8020 -0.5808  0.3612
  613MOL0     C80845   7.343   1.089   9.407  0.5332  0.0363  0.5557
  613MOL0     C80846   7.406   1.226   9.395  0.3965 -0.8962  0.5926
  613MOL0     C80847   7.522   1.230   9.308 -0.1170  0.0022 -0.1329
  613MOL0     C80848   7.620   1.253   9.251 -0.7817 -0.5024 -0.2935
  613MOL0     C80849   6.809   0.972   9.429  0.1455  0.1706  0.0269
  613MOL0     C80850   6.679   0.914   9.428 -0.5114 -0.1383 -0.0674
  613MOL0     H80851   6.195   0.659   9.525 -1.4036 -0.8885 -0.3224
  613MOL0     H80852   5.974   0.657   9.411 -0.4515 -2.6309 -2.4760
  613MOL0     H80853   5.891   0.569   9.212  1.3332  0.9680 -0.1288
  613MOL0     H80854   5.906   0.636   9.044  0.7601  2.4281 -0.0767
  613MOL0     H80855   5.677   0.559   9.124  0.2160  0.0472 -0.6167
  613MOL0     H80856   5.679   0.738   9.070  0.8292  0.8421 -0.1189
  613MOL0     H80857   5.668   0.805   9.286  1.2751  0.0986  0.8823
  613MOL0     H80858   5.679   0.643   9.363 -1.7071  1.9655  0.6985
  613MOL0     H80859   5.461   0.680   9.169  0.8263  0.9437 -0.3943
  613MOL0     H80860   5.453   0.591   9.323 -0.3019  0.2994 -0.3615
  613MOL0     H80861   5.464   0.806   9.447  1.6726  2.4571 -0.2954
  613MOL0     H80862   5.307   0.777   9.355  0.4312  1.0371  0.6790
  613MOL0     H80863   5.400   0.919   9.172 -0.3120  4.1654 -0.1707
  613MOL0     H80864   5.539   0.952   9.266 -0.2912  1.4636 -0.7242
  613MOL0     H80865   5.358   1.023   9.456 -0.2894  1.8095  0.3436
  613MOL0     H80866   5.384   1.131   9.325  0.6657  1.1710  2.8131
  613MOL0     H80867   5.157   1.128   9.364 -3.9037 -1.9700 -0.8460
  613MOL0     H80868   5.145   0.958   9.326 -2.1525  2.0919  1.8382
  613MOL0     H80869   4.984   0.979   9.119 -0.5663 -0.0262  0.5599
  613MOL0     H80870   4.895   1.048   8.912  0.0956  0.2434 -0.2129
  613MOL0     H80871   4.995   0.950   8.823 -0.0741 -0.4957 -0.1783
  613MOL0     H80872   5.070   1.128   8.680 -1.1643 -4.8150  0.4767
  613MOL0     H80873   4.987   1.253   8.780 -0.0673 -0.2666  2.6647
  613MOL0     H80874   4.763   1.136   8.723  1.2215 -0.5699  2.0892
  613MOL0     H80875   4.862   1.217   8.599  0.7611  1.3959  2.2345
  613MOL0     H80876   4.955   0.969   8.548 -0.3939 -1.0021  1.3552
  613MOL0     H80877   4.825   1.056   8.469  1.0067  1.1438  0.9705
  613MOL0     H80878   4.635   1.122   8.528  0.0091 -1.3458  1.4829
  613MOL0     H80879   4.389   1.136   8.527  3.2697  1.5581 -0.0711
  613MOL0     H80880   3.973   0.917   8.438  2.2053 -1.1991 -0.4718
  613MOL0     H80881   3.733   0.827   8.411  0.5357 -0.1457 -1.3404
  613MOL0     H80882   3.587   0.507   8.691  2.4858  0.5735  0.1316
  613MOL0     H80883   3.637   0.448   8.533 -1.2678 -0.8643  0.0566
  613MOL0     H80884   3.444   0.522   8.436 -0.8859 -0.4990 -0.3249
  613MOL0     H80885   3.377   0.573   8.590 -2.1017 -1.3826 -0.2314
  613MOL0     H80886   3.389   0.343   8.683  1.8474 -0.4648 -0.7586
  613MOL0     H80887   3.449   0.277   8.535  0.1712 -0.2561  0.6925
  613MOL0     H80888   3.200   0.245   8.541 -2.1192  2.7386  1.2675
  613MOL0     H80889   3.182   0.412   8.562 -0.7645  1.8440 -1.6106
  613MOL0     H80890   3.288   0.449   8.325  0.7668 -0.4672 -0.4504
  613MOL0     H80891   3.119   0.398   8.354 -0.2988 -1.5635 -2.0846
  613MOL0     H80892   3.170   0.180   8.293  0.5318 -0.2353  1.7406
  613MOL0     H80893   3.351   0.210   8.320  0.6684  2.5647 -0.3329
  613MOL0     H80894   3.164   0.329   8.106  0.1566 -0.3473 -2.9436
  613MOL0     H80895   3.340   0.334   8.111  0.1798  0.0759  2.2038
  613MOL0     H80896   3.157   0.094   8.082 -1.9692  2.7041  1.1284
  613MOL0     H80897   3.335   0.084   8.076  1.0892  1.3461 -0.0007
  613MOL0     H80898   3.783   0.592   8.764 -1.2596  2.7353  1.6598
  613MOL0     H80899   4.021   0.693   8.788  1.0817  0.1796 -0.3301
  613MOL0     H80900   4.357   0.742   8.701  1.9361 -2.1847 -2.2849
  613MOL0     H80901   4.609   0.731   8.682  0.2652  1.1588  2.0937
  613MOL0     H80902   6.123   0.885   9.093 -1.4696 -0.3275  1.3107
  613MOL0     H80903   6.358   0.884   9.202 -1.0744 -0.1002 -0.6979
  613MOL0     H80904   6.571   0.953   9.738  0.7676 -1.5640  0.2397
  613MOL0     H80905   6.806   1.054   9.752  0.8977  1.5410 -1.6325
  613MOL0     H80906   7.049   1.127   9.373 -0.6521  0.0168 -0.5045
  613MOL0     H80907   7.092   0.956   9.400 -1.3814  0.3518 -3.6414
  613MOL0     H80908   7.192   1.206   9.536 -1.0765  0.1376 -2.9580
  613MOL0     H80909   7.240   1.038   9.589  1.7408 -1.0269 -0.2429
  613MOL0     H80910   7.312   1.045   9.312  3.6925 -2.4879  0.5208
  613MOL0     H80911   7.410   1.019   9.458  1.1759  0.3719  0.1910
  613MOL0     H80912   7.333   1.297   9.356  1.7271 -1.1640 -2.6957
  613MOL0     H80913   7.432   1.268   9.493 -1.5139 -0.1260  0.8151
  613MOL0     H80914   7.712   1.286   9.208 -0.4788 -0.7810  0.1315
  613MOL0     H80915   6.875   0.956   9.344 -0.9146 -2.1716 -0.4383
  613MOL0     H80916   6.635   0.882   9.334 -1.0389  0.4279 -0.0169
  614MOL0     O80917   2.821   9.472   4.323  0.6850 -0.9570 -0.6963
  614MOL0     C80918   2.763   9.458   4.425 -0.4733 -0.7604 -0.5271
  614MOL0     O80919   2.815   9.382   4.539  0.0811 -0.8095  0.5257
  614MOL0     C80920   2.948   9.344   4.542  0.4368 -0.4054  0.1001
  614MOL0     C80921   2.988   9.208   4.523  0.9914  0.2537 -0.7239
  614MOL0     C80922   3.117   9.172   4.543 -0.3424 -0.8128  0.1283
  614MOL0     C80923   3.216   9.265   4.584  0.3093 -0.5785  1.3361
  614MOL0     O80924   3.339   9.216   4.596 -0.3644  0.0051  0.0187
  614MOL0     C80925   3.454   9.303   4.600 -0.2818  0.0033  0.1868
  614MOL0     C80926   3.471   9.389   4.473  0.5646  0.2808 -1.0108
  614MOL0     C80927   3.618   9.438   4.457  0.1585  0.3348  0.3228
  614MOL0     C80928   3.628   9.567   4.369  0.0440  0.4095  0.5005
  614MOL0     C80929   3.639   9.532   4.219 -0.0267  0.7671 -0.4369
  614MOL0     C80930   3.711   9.635   4.135  0.9097  0.8899 -0.6860
  614MOL0     C80931   3.686   9.610   3.986  0.7722  0.4025 -0.4401
  614MOL0     C80932   3.753   9.718   3.904  0.1351  0.1184 -0.0292
  614MOL0     N80933   3.900   9.708   3.922 -0.1200  0.3711 -0.6590
  614MOL0     C80934   3.981   9.632   3.844  0.7020 -1.0892 -0.0099
  614MOL0     C80935   4.102   9.650   3.895 -0.4662 -0.2803 -0.1014
  614MOL0     C80936   4.229   9.599   3.846 -0.8412 -0.1097  0.3214
  614MOL0     C80937   4.304   9.485   3.901 -0.0359  0.1495  0.5194
  614MOL0     C80938   4.324   9.496   4.046  0.1366 -0.4760 -0.9879
  614MOL0     C80939   4.396   9.374   4.104 -0.2573 -0.3955  0.2994
  614MOL0     O80940   4.456   9.399   4.230 -0.0285 -0.5594  0.3646
  614MOL0     C80941   4.491   9.282   4.298 -0.3668 -0.6455 -0.0486
  614MOL0     C80942   4.406   9.223   4.391  0.1254  0.2744  0.1572
  614MOL0     C80943   4.447   9.112   4.473  0.2561 -0.0896  0.9419
  614MOL0     C80944   4.584   9.081   4.466  1.4693  0.4706 -0.1205
  614MOL0     C80945   4.625   8.948   4.519 -0.6066  0.7539 -0.0639
  614MOL0     O80946   4.531   8.859   4.566  0.0264 -0.0101  0.7342
  614MOL0     C80947   4.564   8.786   4.676  0.4764 -0.4091 -0.0233
  614MOL0     C80948   4.614   8.843   4.799  0.2220 -0.6618 -0.0784
  614MOL0     C80949   4.643   8.754   4.909 -1.0957  0.0047 -0.3458
  614MOL0     C80950   4.608   8.618   4.901  0.3863 -0.3639  0.5922
  614MOL0     O80951   4.600   8.538   5.016  0.8843 -0.0484 -0.3893
  614MOL0     C80952   4.729   8.518   5.085  0.2503  0.0385 -0.2954
  614MOL0     C80953   4.695   8.450   5.223 -0.9627  0.0448  0.3469
  614MOL0     C80954   4.627   8.549   5.313  0.4405  0.0161 -0.8058
  614MOL0     C80955   4.605   8.491   5.456  0.7912  0.1189 -0.0437
  614MOL0     C80956   4.514   8.593   5.530  0.5754 -0.9222  0.3346
  614MOL0     C80957   4.501   8.576   5.684  0.3220  1.1679  0.6216
  614MOL0     C80958   4.398   8.663   5.766 -0.2192 -0.8728  0.8002
  614MOL0     C80959   4.254   8.650   5.730  0.7194  0.4653  0.3518
  614MOL0    Cl80960   4.176   8.801   5.778 -0.1783 -0.2592  0.4121
  614MOL0     C80961   4.556   8.569   4.789 -0.0410  0.4296  0.3772
  614MOL0     C80962   4.536   8.645   4.678  0.7123  0.4182 -0.0691
  614MOL0     O80963   4.741   8.927   4.524 -0.3980 -0.2028 -0.6285
  614MOL0     C80964   4.674   9.149   4.382 -0.3309  1.6865 -0.2553
  614MOL0     C80965   4.627   9.259   4.309 -0.6143  0.8722 -0.3879
  614MOL0     N80966   4.086   9.732   4.004 -0.3577  0.1021 -0.5199
  614MOL0     N80967   3.970   9.778   4.015  0.3147  0.1555  0.4822
  614MOL0     C80968   3.180   9.397   4.604 -0.8513 -0.0491 -0.1658
  614MOL0     C80969   3.049   9.437   4.583  0.2650 -0.7878 -1.3958
  614MOL0     C80970   2.629   9.514   4.432 -0.4080  0.3011  0.5790
  614MOL0     C80971   2.546   9.508   4.549  0.2783  0.1918  0.3089
  614MOL0     C80972   2.416   9.548   4.537  0.8376 -0.2495 -0.0900
  614MOL0     C80973   2.358   9.609   4.427 -0.6123 -0.6402  0.7271
  614MOL0     O80974   2.235   9.658   4.415  0.8805 -0.2350 -0.1093
  614MOL0     C80975   2.158   9.660   4.535 -0.4721  0.2716 -0.2857
  614MOL0     C80976   2.040   9.743   4.497  0.0819  0.6819  0.7180
  614MOL0     C80977   1.950   9.792   4.616 -0.1678  0.1347  0.1171
  614MOL0     C80978   1.877   9.668   4.674 -0.3994 -0.3297 -0.5302
  614MOL0     C80979   1.950   9.613   4.790  0.3758 -1.0445  0.2078
  614MOL0     C80980   2.027   9.590   4.880  0.1155  0.3867  0.0740
  614MOL0     C80981   2.435   9.625   4.316 -0.3615  0.6729 -0.3187
  614MOL0     C80982   2.569   9.580   4.318 -0.5590  0.2970  0.3104
  614MOL0     H80983   2.912   9.140   4.485  0.5771 -0.5190  1.3693
  614MOL0     H80984   3.159   9.074   4.520  0.9618 -0.7937  2.1708
  614MOL0     H80985   3.546   9.243   4.601 -0.1855  0.1363 -0.3958
  614MOL0     H80986   3.440   9.358   4.693  1.9413  1.8450 -0.4924
  614MOL0     H80987   3.417   9.483   4.490 -2.5073 -1.6143  0.5454
  614MOL0     H80988   3.425   9.337   4.389 -0.2725 -2.1828  0.8825
  614MOL0     H80989   3.675   9.350   4.428  0.3994  1.1209 -1.6992
  614MOL0     H80990   3.664   9.461   4.554 -0.9063  1.4875  0.5722
  614MOL0     H80991   3.540   9.631   4.379 -0.3392  0.1155 -0.7739
  614MOL0     H80992   3.698   9.644   4.401 -3.2137  3.8527 -0.0313
  614MOL0     H80993   3.538   9.529   4.176 -0.6895 -1.0313  1.1229
  614MOL0     H80994   3.690   9.437   4.203 -2.4794 -0.4210 -1.8849
  614MOL0     H80995   3.818   9.626   4.157  0.9188  3.1426  0.4296
  614MOL0     H80996   3.670   9.734   4.158  0.7723  0.9644 -1.2339
  614MOL0     H80997   3.721   9.514   3.949 -0.1917 -1.9141  3.9810
  614MOL0     H80998   3.581   9.602   3.954  0.5449  1.7650 -0.1161
  614MOL0     H80999   3.729   9.821   3.932  0.1470  0.6333 -1.8065
  614MOL0     H81000   3.737   9.699   3.797  1.4737 -1.1256 -0.0328
  614MOL0     H81001   3.954   9.563   3.764  0.9938 -1.3000  0.0719
  614MOL0     H81002   4.300   9.682   3.854 -0.0874 -0.8054  1.1530
  614MOL0     H81003   4.216   9.575   3.741 -0.2975  0.8590  0.0149
  614MOL0     H81004   4.400   9.484   3.848 -1.7268 -0.9855 -2.8076
  614MOL0     H81005   4.249   9.391   3.892  2.5134 -1.4158  0.1326
  614MOL0     H81006   4.364   9.593   4.077 -5.3121  1.6736  0.6154
  614MOL0     H81007   4.226   9.503   4.094  1.2432 -0.4183  1.4245
  614MOL0     H81008   4.469   9.324   4.039 -1.0137 -0.4727 -0.5176
  614MOL0     H81009   4.315   9.301   4.110 -0.9087  0.4097  1.7284
  614MOL0     H81010   4.305   9.261   4.403  0.8605  1.6597  2.6474
  614MOL0     H81011   4.376   9.068   4.543 -0.3905  0.2854  0.5321
  614MOL0     H81012   4.642   8.945   4.820  1.8562 -0.9638 -0.6589
  614MOL0     H81013   4.685   8.795   5.001  1.0387 -3.1453  0.2300
  614MOL0     H81014   4.792   8.605   5.104  0.6331 -0.4089  0.5477
  614MOL0     H81015   4.784   8.453   5.016 -0.6058 -0.7552 -0.2556
  614MOL0     H81016   4.788   8.418   5.271  0.6735  1.4022 -1.7026
  614MOL0     H81017   4.639   8.360   5.196 -2.3148  1.1833 -0.8312
  614MOL0     H81018   4.530   8.580   5.271  0.2218  1.2324  0.4997
  614MOL0     H81019   4.677   8.645   5.328 -1.4721  0.6411  2.6614
  614MOL0     H81020   4.577   8.386   5.466  1.3665  0.0877  1.5170
  614MOL0     H81021   4.692   8.483   5.522 -0.3547  0.4617  1.5620
  614MOL0     H81022   4.416   8.602   5.481  1.7318  1.6458 -1.6996
  614MOL0     H81023   4.566   8.688   5.523 -0.9240  0.1517  2.4713
  614MOL0     H81024   4.598   8.599   5.729  3.6079 -2.4099 -3.7086
  614MOL0     H81025   4.475   8.471   5.700  1.8536  0.3735 -1.6095
  614MOL0     H81026   4.402   8.635   5.871  0.4699  1.4683  1.4416
  614MOL0     H81027   4.440   8.763   5.753  3.5984 -2.3358  0.5797
  614MOL0     H81028   4.213   8.562   5.780  2.8440  0.6631  2.5776
  614MOL0     H81029   4.244   8.643   5.621 -3.0281  0.8744  0.5227
  614MOL0     H81030   4.508   8.471   4.788  0.3672  0.2226 -1.1460
  614MOL0     H81031   4.485   8.599   4.594  0.7151 -2.2489  1.2744
  614MOL0     H81032   4.770   9.101   4.365 -1.2091  0.0954 -0.9289
  614MOL0     H81033   4.697   9.299   4.236 -0.7987  0.7754 -0.6208
  614MOL0     H81034   3.249   9.475   4.636  0.7607 -0.0637 -3.2300
  614MOL0     H81035   3.022   9.537   4.614 -1.1480 -1.4498 -0.3503
  614MOL0     H81036   2.587   9.465   4.640 -3.2905 -0.7281  1.6596
  614MOL0     H81037   2.356   9.524   4.624 -0.3316  0.7349 -0.5913
  614MOL0     H81038   2.211   9.702   4.621 -0.5970  0.0649 -0.1103
  614MOL0     H81039   2.119   9.561   4.561  0.2017  0.0058 -0.2608
  614MOL0     H81040   2.078   9.826   4.437  1.6952 -0.0674  0.6608
  614MOL0     H81041   1.982   9.685   4.424  2.1433 -0.6038  0.0193
  614MOL0     H81042   1.874   9.862   4.579  1.1209  0.6959 -1.6249
  614MOL0     H81043   2.008   9.845   4.692 -1.3642  2.8706 -0.7457
  614MOL0     H81044   1.779   9.707   4.704 -0.3179  0.7799 -1.6252
  614MOL0     H81045   1.865   9.588   4.600 -0.4156 -0.1550 -0.7190
  614MOL0     H81046   2.095   9.583   4.962  1.6071  1.0488 -1.0586
  614MOL0     H81047   2.396   9.680   4.231  0.3469 -0.4496 -1.3967
  614MOL0     H81048   2.627   9.600   4.229  0.8898 -0.2673  1.0860
  615MOL0     O81049   6.024   4.694   1.049  0.3354 -0.4505 -0.5057
  615MOL0     C81050   6.054   4.744   0.939 -1.0085 -0.6308  0.1312
  615MOL0     O81051   5.968   4.787   0.842 -0.5049 -0.9869 -0.0990
  615MOL0     C81052   5.834   4.791   0.873  0.3528  0.4479 -0.5164
  615MOL0     C81053   5.777   4.907   0.921 -0.0627 -0.2795  0.9066
  615MOL0     C81054   5.646   4.917   0.955  0.0932  1.2854  1.0573
  615MOL0     C81055   5.562   4.799   0.948 -0.5245  0.1186 -0.9057
  615MOL0     O81056   5.429   4.821   0.982 -0.6319 -0.0680  0.6281
  615MOL0     C81057   5.318   4.768   0.909 -0.8283 -0.2500  0.5805
  615MOL0     C81058   5.186   4.829   0.953  0.3892 -1.1020  0.2142
  615MOL0     C81059   5.085   4.835   0.838  1.0364 -0.0929  0.4758
  615MOL0     C81060   4.963   4.897   0.896  0.1473 -0.0840 -0.5853
  615MOL0     C81061   4.847   4.892   0.795 -0.3786  0.5679  0.7702
  615MOL0     C81062   4.715   4.939   0.864  0.3605  0.6079 -0.8638
  615MOL0     C81063   4.612   4.979   0.759 -0.3908  0.2468  0.0301
  615MOL0     C81064   4.480   5.026   0.811  0.4698 -0.7017  0.0497
  615MOL0     N81065   4.407   4.933   0.888 -0.0610  0.1668 -0.4847
  615MOL0     C81066   4.288   4.885   0.843 -0.5367  0.6768  0.0427
  615MOL0     C81067   4.230   4.832   0.950 -0.5009  0.8640 -1.0854
  615MOL0     C81068   4.105   4.749   0.954  1.1073  0.4851 -0.2246
  615MOL0     C81069   4.009   4.798   1.052 -0.6961 -0.2048 -0.0148
  615MOL0     C81070   3.880   4.723   1.058  0.2261  0.8794  0.0350
  615MOL0     C81071   3.782   4.776   1.166 -0.3652 -0.5991  0.0277
  615MOL0     O81072   3.764   4.918   1.161  0.0151  0.7924  0.3195
  615MOL0     C81073   3.643   4.968   1.116  0.2632 -0.2570  0.0439
  615MOL0     C81074   3.515   4.903   1.138 -1.0537  0.5763 -0.1375
  615MOL0     C81075   3.399   4.952   1.091  0.3406  0.2800  0.2340
  615MOL0     C81076   3.392   5.063   1.010 -0.0386 -0.2116 -0.4318
  615MOL0     C81077   3.259   5.104   0.957  0.3925 -0.4187  0.6449
  615MOL0     O81078   3.150   5.066   1.031 -0.2471  0.1799 -0.2911
  615MOL0     C81079   3.028   5.097   0.977 -0.3698 -0.0885 -0.2089
  615MOL0     C81080   2.961   5.012   0.880  0.2286 -0.0700 -1.4600
  615MOL0     C81081   2.841   5.046   0.819 -0.2929  0.2888  1.0800
  615MOL0     C81082   2.777   5.158   0.859 -0.0944  0.0500 -0.4087
  615MOL0     O81083   2.664   5.219   0.808  0.5087  0.3881  0.7885
  615MOL0     C81084   2.602   5.161   0.691 -0.1691  0.0309  0.7135
  615MOL0     C81085   2.450   5.187   0.702  0.0486  0.3547 -0.0368
  615MOL0     C81086   2.390   5.117   0.823  0.2288 -0.2016  1.4164
  615MOL0     C81087   2.240   5.131   0.829  0.1500 -0.2704 -0.7988
  615MOL0     C81088   2.157   5.073   0.714 -0.0503 -0.3736 -0.3736
  615MOL0     C81089   2.015   5.049   0.760 -0.6014 -0.3792  0.6523
  615MOL0     C81090   1.934   4.996   0.640 -0.1265  1.0808 -0.8190
  615MOL0     C81091   1.779   4.992   0.661 -0.2026 -0.7175 -0.1412
  615MOL0    Cl81092   1.718   4.901   0.796  0.0452 -0.1390  0.3720
  615MOL0     C81093   2.836   5.238   0.959 -0.1926 -0.4352 -0.6525
  615MOL0     C81094   2.960   5.211   1.022 -0.0277  0.0979  0.5739
  615MOL0     O81095   3.254   5.194   0.872  0.5283 -0.2651 -0.3354
  615MOL0     C81096   3.511   5.128   0.987  0.2594  0.3583  0.4196
  615MOL0     C81097   3.634   5.082   1.036 -0.6975 -0.6394 -0.4462
  615MOL0     N81098   4.313   4.869   1.063  0.3209  0.5310 -0.5591
  615MOL0     N81099   4.413   4.929   1.027 -0.1674  0.5151  1.3210
  615MOL0     C81100   5.625   4.674   0.909  0.7025  0.5352  0.7199
  615MOL0     C81101   5.756   4.671   0.862 -0.2047 -1.0020 -0.5781
  615MOL0     C81102   6.190   4.751   0.899 -0.6001 -0.0533  0.4533
  615MOL0     C81103   6.294   4.764   0.986 -0.5576  1.4186  0.5078
  615MOL0     C81104   6.430   4.763   0.942  0.1188  0.3382 -0.0859
  615MOL0     C81105   6.466   4.745   0.813  0.9885 -0.2827  0.6502
  615MOL0     O81106   6.589   4.752   0.758 -0.4518 -0.0466 -0.0126
  615MOL0     C81107   6.703   4.774   0.852 -0.1507  0.1855  0.7572
  615MOL0     C81108   6.833   4.800   0.771  1.1906  0.5649  0.0578
  615MOL0     C81109   6.835   4.950   0.730 -0.2600  0.0285 -0.0920
  615MOL0     C81110   6.928   4.962   0.617  0.2491 -0.3333  0.2005
  615MOL0     C81111   6.870   4.900   0.493  0.9708 -0.8960 -1.2268
  615MOL0     C81112   6.843   4.831   0.396 -0.0795 -0.3030 -0.0038
  615MOL0     C81113   6.364   4.727   0.721 -0.6303 -0.4702 -0.1497
  615MOL0     C81114   6.230   4.734   0.763  0.3155 -0.1766 -0.0033
  615MOL0     H81115   5.833   5.000   0.925 -2.8676  1.5444  0.3846
  615MOL0     H81116   5.594   5.011   0.975 -1.8773  0.3782  0.4704
  615MOL0     H81117   5.326   4.660   0.919  2.5848 -0.3220 -1.3763
  615MOL0     H81118   5.336   4.782   0.802  1.9307 -0.9345  0.8837
  615MOL0     H81119   5.204   4.932   0.983 -0.5279 -1.6218  2.8002
  615MOL0     H81120   5.145   4.777   1.040  0.2200  1.0179  1.4798
  615MOL0     H81121   5.060   4.745   0.781 -0.2490  1.7531 -2.0876
  615MOL0     H81122   5.124   4.907   0.765 -2.5847 -0.0146 -1.6170
  615MOL0     H81123   4.938   4.859   0.995  1.0809 -1.1487 -0.7389
  615MOL0     H81124   4.982   5.004   0.913  0.4042 -0.2337  0.0698
  615MOL0     H81125   4.826   4.789   0.764  0.6953  0.1999  1.2286
  615MOL0     H81126   4.867   4.955   0.708 -0.4515 -0.5634 -0.0854
  615MOL0     H81127   4.728   5.031   0.921 -1.7395  2.9823 -3.9155
  615MOL0     H81128   4.679   4.852   0.920  1.0901 -0.3769 -1.8736
  615MOL0     H81129   4.657   5.067   0.711  0.6215 -0.1996  0.1248
  615MOL0     H81130   4.588   4.896   0.693 -4.1601  0.7045  0.6336
  615MOL0     H81131   4.419   5.073   0.733  1.5148 -0.1001 -0.4286
  615MOL0     H81132   4.500   5.112   0.876  2.5492  1.1197 -2.7425
  615MOL0     H81133   4.244   4.875   0.744  0.1569 -2.3702 -0.0601
  615MOL0     H81134   4.128   4.642   0.966  1.7280  0.6314 -0.0752
  615MOL0     H81135   4.075   4.755   0.849  1.1290  0.9053 -0.2071
  615MOL0     H81136   3.983   4.901   1.026  1.9493  0.4178 -0.4987
  615MOL0     H81137   4.052   4.799   1.153 -2.2925  4.3161  0.8366
  615MOL0     H81138   3.833   4.739   0.960 -0.6297  2.5134  0.6726
  615MOL0     H81139   3.900   4.617   1.072 -0.0061  0.9275  0.7802
  615MOL0     H81140   3.823   4.752   1.265  0.7130 -2.0349 -0.7261
  615MOL0     H81141   3.687   4.726   1.143 -0.8027 -0.4820  1.4564
  615MOL0     H81142   3.513   4.809   1.191  0.9428  0.2331 -0.5552
  615MOL0     H81143   3.311   4.890   1.105  1.7106 -1.7970  0.1360
  615MOL0     H81144   3.021   4.927   0.849 -0.0562 -1.0814  0.5492
  615MOL0     H81145   2.799   4.985   0.740  2.6938  1.0046 -1.2522
  615MOL0     H81146   2.610   5.051   0.687  1.2879  0.0975  1.2100
  615MOL0     H81147   2.658   5.211   0.612  4.9631 -2.3595  2.3235
  615MOL0     H81148   2.409   5.157   0.605 -0.9628 -0.1375  0.5283
  615MOL0     H81149   2.424   5.292   0.718 -4.2426 -0.7701  1.7759
  615MOL0     H81150   2.427   5.162   0.915  1.7727 -2.0143  1.7436
  615MOL0     H81151   2.410   5.010   0.821  0.0031 -0.2580 -1.0856
  615MOL0     H81152   2.209   5.086   0.923 -1.2631  4.2683  1.2183
  615MOL0     H81153   2.232   5.240   0.834  2.7504 -0.0374  0.0238
  615MOL0     H81154   2.200   4.976   0.687  0.1736 -0.1575 -0.7949
  615MOL0     H81155   2.158   5.147   0.634  0.6271 -1.7343 -1.6660
  615MOL0     H81156   1.971   5.139   0.805  0.5012  0.3829  0.2493
  615MOL0     H81157   2.009   4.972   0.837 -3.8594 -2.8461 -1.7606
  615MOL0     H81158   1.948   5.057   0.550 -1.6862  0.1854 -1.7143
  615MOL0     H81159   1.967   4.892   0.632  2.4593  1.8327 -0.7914
  615MOL0     H81160   1.741   4.947   0.569 -2.0386  0.6897 -0.1080
  615MOL0     H81161   1.746   5.095   0.671  1.3780 -0.0376 -1.4596
  615MOL0     H81162   2.795   5.337   0.980 -0.8593 -0.0728 -3.3204
  615MOL0     H81163   3.012   5.280   1.087 -0.4382  1.5065 -0.5390
  615MOL0     H81164   3.511   5.214   0.922  2.0346 -0.9518 -1.4190
  615MOL0     H81165   3.725   5.134   1.006 -0.8920  1.2351  1.8829
  615MOL0     H81166   5.559   4.589   0.901  0.1996  1.0081 -0.4785
  615MOL0     H81167   5.796   4.578   0.823  0.4702 -0.7638 -0.4669
  615MOL0     H81168   6.278   4.787   1.091  3.4312  2.4380  1.0680
  615MOL0     H81169   6.506   4.779   1.017 -2.6628  3.5806  2.3771
  615MOL0     H81170   6.723   4.692   0.922  0.2129  1.0869  1.7300
  615MOL0     H81171   6.692   4.858   0.921  3.6905  2.3148 -0.9317
  615MOL0     H81172   6.921   4.784   0.833  0.4788  1.9228  1.4654
  615MOL0     H81173   6.828   4.725   0.691 -0.1711 -1.7961  2.1865
  615MOL0     H81174   6.866   5.014   0.813 -0.9004  2.4129 -1.5874
  615MOL0     H81175   6.738   4.984   0.692  0.4365  1.7889 -0.3885
  615MOL0     H81176   6.941   5.070   0.602  1.2606 -0.4212  0.3389
  615MOL0     H81177   7.028   4.919   0.629  0.5727  0.0525 -0.9392
  615MOL0     H81178   6.817   4.768   0.314  0.3871  0.0276 -0.4169
  615MOL0     H81179   6.366   4.724   0.612 -4.3768 -1.6437 -0.3196
  615MOL0     H81180   6.161   4.717   0.681  0.8535 -0.4163 -0.4137
  616MOL0     O81181   9.183  10.775   1.410  0.2348 -0.3211 -0.7362
  616MOL0     C81182   9.183  10.844   1.311 -0.8933  0.9507 -0.0371
  616MOL0     O81183   9.127  10.803   1.192 -0.1708 -0.1105 -0.3080
  616MOL0     C81184   9.048  10.688   1.180 -1.2175  0.3053  1.3437
  616MOL0     C81185   9.055  10.604   1.064  0.5348 -0.1676  0.5121
  616MOL0     C81186   8.953  10.501   1.044  0.1587  0.1579 -0.0894
  616MOL0     C81187   8.855  10.472   1.138 -0.6730  0.0847 -1.0156
  616MOL0     O81188   8.769  10.373   1.121 -0.5424 -1.5636  0.5018
  616MOL0     C81189   8.637  10.389   1.176 -0.2356  0.8029 -0.5027
  616MOL0     C81190   8.534  10.328   1.092  1.6863 -0.3236  0.5374
  616MOL0     C81191   8.550  10.187   1.058 -0.5080 -0.0096  0.3792
  616MOL0     C81192   8.486  10.097   1.164 -0.2448  0.8030  0.3916
  616MOL0     C81193   8.512   9.950   1.125 -0.7961 -0.0985  0.5638
  616MOL0     C81194   8.392   9.870   1.161  0.5809 -0.1061  0.1062
  616MOL0     C81195   8.242   9.894   1.093  0.9714 -0.8264 -0.4642
  616MOL0     C81196   8.164   9.770   1.058 -0.5564 -0.4660  0.3979
  616MOL0     N81197   8.023   9.794   1.065 -0.8191  0.1113 -0.0470
  616MOL0     C81198   7.959   9.887   0.987  0.5214 -0.1405 -0.2821
  616MOL0     C81199   7.825   9.882   1.031  0.0348 -0.7188  0.6111
  616MOL0     C81200   7.712   9.965   0.963 -0.5419 -0.2835 -0.2516
  616MOL0     C81201   7.714  10.111   1.021  0.2532  0.5590 -0.6018
  616MOL0     C81202   7.665  10.103   1.170  0.3697 -0.5142  0.5462
  616MOL0     C81203   7.621  10.245   1.224 -0.2495 -0.4943  0.8030
  616MOL0     O81204   7.713  10.352   1.210  0.0538 -0.1542 -0.1365
  616MOL0     C81205   7.692  10.473   1.275  0.0779 -0.3652  0.2721
  616MOL0     C81206   7.603  10.491   1.384  0.3739  0.0732  0.5066
  616MOL0     C81207   7.566  10.621   1.418 -0.1272 -0.2494  0.2550
  616MOL0     C81208   7.615  10.729   1.335  0.1471 -0.7802  0.4905
  616MOL0     C81209   7.571  10.869   1.359  0.2677  0.2291  0.1554
  616MOL0     O81210   7.583  10.956   1.252 -0.6033 -0.1806 -0.5901
  616MOL0     C81211   7.551  11.087   1.281  0.6579 -1.1291  0.5701
  616MOL0     C81212   7.650  11.179   1.302  0.4485  0.1781 -0.7966
  616MOL0     C81213   7.628  11.311   1.326  0.1210 -0.7671 -0.6686
  616MOL0     C81214   7.496  11.365   1.337  0.1479  0.5865  0.1787
  616MOL0     O81215   7.454  11.494   1.373 -0.9723 -0.1493 -0.0981
  616MOL0     C81216   7.553  11.586   1.433  0.0565  0.4165  0.0286
  616MOL0     C81217   7.489  11.714   1.485  0.4768  0.4355 -0.6275
  616MOL0     C81218   7.400  11.795   1.380 -0.3347  0.9085 -0.3320
  616MOL0     C81219   7.458  11.832   1.247 -0.6699 -0.3646 -0.0596
  616MOL0     C81220   7.361  11.919   1.171 -0.4497 -0.2716 -0.0046
  616MOL0     C81221   7.412  11.955   1.033  0.6683 -0.2714 -0.3387
  616MOL0     C81222   7.293  12.007   0.952 -0.2598 -0.0059  0.0234
  616MOL0     C81223   7.333  12.009   0.802 -0.0215 -0.9993  0.2281
  616MOL0    Cl81224   7.493  12.085   0.773  0.6897  0.0084 -0.4009
  616MOL0     C81225   7.396  11.277   1.298  0.0540  0.8595  0.6187
  616MOL0     C81226   7.416  11.141   1.278  0.2488 -0.0430 -0.3363
  616MOL0     O81227   7.531  10.896   1.474  0.5194  0.6541  0.2309
  616MOL0     C81228   7.717  10.711   1.235  0.7715  1.0380 -0.9709
  616MOL0     C81229   7.751  10.583   1.207 -0.0509  0.2297  0.1874
  616MOL0     N81230   7.816   9.789   1.138  0.0685 -0.2581 -0.2317
  616MOL0     N81231   7.937   9.746   1.154 -0.2599  0.1239  0.0108
  616MOL0     C81232   8.870  10.541   1.261  0.6115  0.6016 -0.3072
  616MOL0     C81233   8.950  10.654   1.275 -0.6003 -0.7442 -0.2020
  616MOL0     C81234   9.269  10.971   1.296 -0.5198  0.2113  0.1882
  616MOL0     C81235   9.283  11.032   1.173  0.0492 -0.0618 -0.4504
  616MOL0     C81236   9.335  11.161   1.155 -0.6917 -0.1187  0.1163
  616MOL0     C81237   9.400  11.225   1.263  1.2931 -0.3346  0.2660
  616MOL0     O81238   9.442  11.360   1.243  0.0177  0.4234 -0.5724
  616MOL0     C81239   9.453  11.451   1.353 -0.2090  0.4376 -0.5945
  616MOL0     C81240   9.591  11.445   1.414 -1.1159  0.2944  0.0573
  616MOL0     C81241   9.608  11.549   1.526 -0.6452  0.5926  0.8497
  616MOL0     C81242   9.735  11.540   1.614  0.6661 -0.3292  0.3540
  616MOL0     C81243   9.851  11.598   1.545 -0.2599 -0.4754  0.2022
  616MOL0     C81244   9.945  11.652   1.494 -1.1904 -0.3874  0.3019
  616MOL0     C81245   9.383  11.167   1.390 -0.5204 -0.5872  0.8201
  616MOL0     C81246   9.319  11.045   1.403 -1.0721  0.1922  0.7179
  616MOL0     H81247   9.130  10.626   0.989  0.5746 -0.6292  0.4133
  616MOL0     H81248   8.976  10.431   0.965  0.7213 -1.5185  1.4760
  616MOL0     H81249   8.598  10.486   1.209 -0.4359  0.5948 -0.1310
  616MOL0     H81250   8.637  10.329   1.268 -0.6866 -0.0035 -1.0194
  616MOL0     H81251   8.539  10.381   0.996 -1.6132  1.4735  1.2207
  616MOL0     H81252   8.433  10.338   1.131  0.6008 -3.9347 -0.9486
  616MOL0     H81253   8.654  10.157   1.039 -0.4971  0.8102 -1.0150
  616MOL0     H81254   8.503  10.174   0.960  1.4732 -0.8063 -0.5393
  616MOL0     H81255   8.521  10.125   1.264 -1.3039  0.4560  0.8766
  616MOL0     H81256   8.379  10.119   1.158  0.1969  2.7024 -2.4518
  616MOL0     H81257   8.600   9.912   1.178 -0.9076 -2.4620 -0.8073
  616MOL0     H81258   8.537   9.940   1.019  0.5628 -0.4554  0.8947
  616MOL0     H81259   8.370   9.872   1.268 -0.3816  0.2211 -0.0894
  616MOL0     H81260   8.420   9.769   1.133  0.9419  0.1706 -0.5470
  616MOL0     H81261   8.175   9.961   1.148  0.6982  0.0424 -1.7884
  616MOL0     H81262   8.255   9.951   1.000  2.1567  1.9663  1.2765
  616MOL0     H81263   8.198   9.688   1.122  0.6696  0.3135  0.7829
  616MOL0     H81264   8.184   9.731   0.958 -2.4356 -3.4333  1.0581
  616MOL0     H81265   8.012   9.943   0.910  0.6293  0.0670 -0.0584
  616MOL0     H81266   7.614   9.919   0.980 -0.6714  0.1868  0.3336
  616MOL0     H81267   7.719   9.964   0.854  1.1521 -1.6707 -0.1791
  616MOL0     H81268   7.643  10.166   0.958 -0.6813  2.6039  2.0804
  616MOL0     H81269   7.816  10.150   1.023  0.0748  1.2320 -2.4257
  616MOL0     H81270   7.578  10.038   1.173 -2.0725  2.5597  3.0449
  616MOL0     H81271   7.744  10.063   1.235  1.3092  1.3629  0.6373
  616MOL0     H81272   7.598  10.230   1.330  3.2850 -1.9440  1.5076
  616MOL0     H81273   7.529  10.269   1.170  0.3835 -1.6958 -0.9007
  616MOL0     H81274   7.557  10.410   1.440  0.4998  0.5744  1.3476
  616MOL0     H81275   7.489  10.647   1.489 -1.3092 -1.2256 -0.6344
  616MOL0     H81276   7.752  11.143   1.310  0.7304  0.8563 -1.2085
  616MOL0     H81277   7.711  11.378   1.348 -0.2862 -0.4663 -0.0155
  616MOL0     H81278   7.624  11.610   1.353 -2.6025  0.8686 -2.4024
  616MOL0     H81279   7.607  11.539   1.515  0.6586 -0.6059 -0.9194
  616MOL0     H81280   7.570  11.779   1.522 -0.8654  0.8509  1.7779
  616MOL0     H81281   7.429  11.681   1.570  1.5251  2.4188  0.9932
  616MOL0     H81282   7.364  11.889   1.424  1.0440  1.5041 -0.4308
  616MOL0     H81283   7.314  11.728   1.369 -0.1918  0.2549  1.9870
  616MOL0     H81284   7.556  11.880   1.260  0.3356 -1.9639 -1.2612
  616MOL0     H81285   7.479  11.743   1.187  2.7712 -0.4177  1.0303
  616MOL0     H81286   7.325  12.008   1.222  1.4557  1.4767 -1.5142
  616MOL0     H81287   7.270  11.858   1.165 -2.4554  2.2596  2.3061
  616MOL0     H81288   7.455  11.871   0.977 -1.5378 -2.4226  1.0163
  616MOL0     H81289   7.490  12.028   1.056 -1.3050  1.1227  2.5445
  616MOL0     H81290   7.196  11.956   0.958 -1.0095  1.4330  0.9610
  616MOL0     H81291   7.270  12.112   0.974  1.0083  0.8614 -2.3753
  616MOL0     H81292   7.254  12.057   0.743 -2.0558 -2.3313  1.7382
  616MOL0     H81293   7.330  11.909   0.758 -3.6386 -0.5786 -0.7969
  616MOL0     H81294   7.304  11.333   1.289  0.2210  1.0212 -0.1249
  616MOL0     H81295   7.339  11.069   1.252  0.2633 -0.2261  0.1181
  616MOL0     H81296   7.762  10.788   1.173  3.1873  1.2800  0.9531
  616MOL0     H81297   7.819  10.571   1.124 -0.6221 -0.4622 -0.2000
  616MOL0     H81298   8.804  10.508   1.341 -1.6788 -1.5304 -2.8807
  616MOL0     H81299   8.946  10.720   1.361  3.3051  0.7055 -0.9368
  616MOL0     H81300   9.237  10.971   1.095  3.1124 -1.7692 -1.0682
  616MOL0     H81301   9.339  11.205   1.056  2.1593 -3.6993 -1.5909
  616MOL0     H81302   9.386  11.419   1.433  1.4365  0.0175  0.6750
  616MOL0     H81303   9.418  11.551   1.324 -2.7480 -1.1133 -3.4198
  616MOL0     H81304   9.596  11.350   1.468 -0.2238  1.0392  1.3227
  616MOL0     H81305   9.669  11.462   1.339  2.0497 -3.0326  2.2321
  616MOL0     H81306   9.520  11.537   1.591 -0.6988  2.9797  1.3181
  616MOL0     H81307   9.612  11.651   1.486  3.3010 -0.5109 -2.1611
  616MOL0     H81308   9.700  11.599   1.699  0.7313  0.3480 -0.0856
  616MOL0     H81309   9.764  11.439   1.646  0.9318 -0.0871  0.8708
  616MOL0     H81310  10.024  11.699   1.439 -0.2238  0.1384  2.0718
  616MOL0     H81311   9.422  11.203   1.484 -1.5574  0.7073  0.7831
  616MOL0     H81312   9.306  11.001   1.501  1.9247 -1.4602  0.4958
  617MOL0     O81313   6.062   2.640   1.816  0.3524 -0.1737 -1.3508
  617MOL0     C81314   6.145   2.569   1.764  0.2120 -0.6044 -1.4642
  617MOL0     O81315   6.144   2.519   1.628 -0.0895  0.3524  0.4280
  617MOL0     C81316   6.027   2.517   1.555 -0.7770  1.3569  0.8008
  617MOL0     C81317   5.932   2.619   1.553  0.2618  0.3794 -0.0744
  617MOL0     C81318   5.803   2.603   1.491 -0.7525  0.4857 -0.3973
  617MOL0     C81319   5.776   2.488   1.424 -0.4413  0.0558  0.3055
  617MOL0     O81320   5.646   2.476   1.378  0.6133  0.2408 -0.4674
  617MOL0     C81321   5.619   2.350   1.324  0.4951  0.4343  0.3964
  617MOL0     C81322   5.476   2.358   1.277  0.4162 -0.7980 -0.6906
  617MOL0     C81323   5.419   2.218   1.266 -0.4391 -0.2718 -1.1885
  617MOL0     C81324   5.322   2.211   1.154  0.0950 -0.9309  0.5742
  617MOL0     C81325   5.265   2.067   1.132 -0.1126 -0.3645 -0.7604
  617MOL0     C81326   5.124   2.072   1.060 -1.1503  0.1282 -0.1509
  617MOL0     C81327   5.086   1.920   1.040  0.0894 -0.5327 -0.8072
  617MOL0     C81328   5.005   1.867   1.156 -0.2617 -0.3874  0.7254
  617MOL0     N81329   4.990   1.720   1.139 -0.1561 -0.5560  0.1924
  617MOL0     C81330   4.871   1.663   1.105 -0.9381  0.4102 -0.6246
  617MOL0     C81331   4.898   1.527   1.096  0.3917  0.9086  0.8070
  617MOL0     C81332   4.803   1.416   1.050 -0.9301  0.3247 -0.1512
  617MOL0     C81333   4.664   1.414   1.118 -0.6210 -0.5194 -0.2139
  617MOL0     C81334   4.563   1.336   1.027  0.0067  0.3096  0.8736
  617MOL0     C81335   4.604   1.187   0.995  0.6159  0.5599  0.6472
  617MOL0     O81336   4.494   1.102   0.953 -0.9518 -0.5096  0.3643
  617MOL0     C81337   4.395   1.082   1.047  0.9333 -0.5897 -1.4077
  617MOL0     C81338   4.264   1.059   0.997 -0.7506 -0.2353  0.7617
  617MOL0     C81339   4.158   1.049   1.084 -0.2742 -0.1264  0.6136
  617MOL0     C81340   4.177   1.070   1.221  1.1365 -0.6866  1.1511
  617MOL0     C81341   4.060   1.061   1.308  0.2039 -0.2643  0.3221
  617MOL0     O81342   3.946   1.035   1.237  0.0322 -0.0210 -0.0926
  617MOL0     C81343   3.826   1.021   1.311 -0.2424 -0.6755 -0.2327
  617MOL0     C81344   3.816   0.935   1.429 -0.2806 -0.3033  1.0678
  617MOL0     C81345   3.700   0.921   1.501 -0.1371 -0.4404 -0.0811
  617MOL0     C81346   3.580   0.987   1.455 -0.3751 -0.3915 -0.8081
  617MOL0     O81347   3.472   0.973   1.534 -0.1809  0.4727 -1.0179
  617MOL0     C81348   3.347   0.974   1.461 -0.4351 -0.5208 -1.1108
  617MOL0     C81349   3.233   0.918   1.558 -0.1066 -0.7811  0.0149
  617MOL0     C81350   3.107   0.900   1.478  0.8023  0.1635  0.0686
  617MOL0     C81351   2.975   0.871   1.553  0.6971 -0.1743 -0.2063
  617MOL0     C81352   2.851   0.890   1.467 -0.0022 -0.1018  0.0035
  617MOL0     C81353   2.811   1.036   1.442 -1.3060  0.3840  0.5308
  617MOL0     C81354   2.684   1.051   1.361 -0.1322  0.9726 -0.1630
  617MOL0     C81355   2.623   1.181   1.358  0.0839  0.1305  0.1877
  617MOL0    Cl81356   2.599   1.238   1.523 -0.2108 -0.5796 -0.3048
  617MOL0     C81357   3.590   1.068   1.341  0.1759 -0.9145  0.1706
  617MOL0     C81358   3.713   1.085   1.262  0.6554  0.1058  0.6398
  617MOL0     O81359   4.074   1.073   1.429  0.5545  0.0534  0.5011
  617MOL0     C81360   4.303   1.096   1.271  0.2833 -0.5425  0.0889
  617MOL0     C81361   4.416   1.097   1.189  0.4634 -0.2012  0.3537
  617MOL0     N81362   5.031   1.513   1.096  0.3604 -1.0812 -0.3201
  617MOL0     N81363   5.090   1.625   1.124  0.4342  0.1490 -0.5745
  617MOL0     C81364   5.876   2.384   1.416 -0.6694  0.4664 -0.0135
  617MOL0     C81365   5.999   2.405   1.487  0.2261  0.2551 -0.6528
  617MOL0     C81366   6.266   2.527   1.844 -0.1719  0.2755 -0.0678
  617MOL0     C81367   6.356   2.428   1.794 -0.0974  0.6034 -0.4825
  617MOL0     C81368   6.471   2.400   1.865 -0.5722 -0.4869 -0.5739
  617MOL0     C81369   6.489   2.455   1.992  0.2055 -0.1824 -0.4540
  617MOL0     O81370   6.595   2.424   2.067 -0.0447 -0.1948 -0.0157
  617MOL0     C81371   6.686   2.318   2.031 -0.2566 -0.4721  0.3072
  617MOL0     C81372   6.797   2.302   2.131 -0.1238  0.1440  0.7428
  617MOL0     C81373   6.861   2.435   2.167 -0.6779 -0.3527  0.3435
  617MOL0     C81374   7.003   2.405   2.236  0.1017  0.3037 -0.5524
  617MOL0     C81375   6.975   2.345   2.371  0.5212  0.0105  0.2784
  617MOL0     C81376   6.962   2.301   2.492 -0.3173  0.9499  0.7425
  617MOL0     C81377   6.399   2.545   2.047  0.0637 -1.0917  0.2971
  617MOL0     C81378   6.285   2.573   1.980  0.1796 -0.4504  0.5271
  617MOL0     H81379   5.956   2.714   1.599  1.5885  0.5324 -1.0446
  617MOL0     H81380   5.726   2.679   1.501  0.9614  2.3019 -0.3414
  617MOL0     H81381   5.621   2.266   1.394 -1.4752  0.1530  0.1731
  617MOL0     H81382   5.685   2.336   1.239 -0.2591  0.1112 -0.1493
  617MOL0     H81383   5.471   2.404   1.178 -0.4696 -2.5773 -1.5366
  617MOL0     H81384   5.416   2.423   1.342  1.9790  1.5821 -1.4951
  617MOL0     H81385   5.381   2.180   1.361  3.7714 -0.7656  0.5102
  617MOL0     H81386   5.502   2.153   1.234 -0.6852 -1.2032 -0.0065
  617MOL0     H81387   5.236   2.278   1.160  0.7749  0.5886 -3.3174
  617MOL0     H81388   5.361   2.246   1.058  0.2342 -0.9595  0.6189
  617MOL0     H81389   5.252   2.017   1.229  2.9525  1.9336  1.0055
  617MOL0     H81390   5.335   2.004   1.076  0.6362 -1.4684  1.3048
  617MOL0     H81391   5.129   2.120   0.962 -2.9392  3.2652  1.1417
  617MOL0     H81392   5.055   2.133   1.119 -0.1877  0.2251  0.9158
  617MOL0     H81393   5.017   1.917   0.955  1.2262  1.1506 -1.8360
  617MOL0     H81394   5.172   1.856   1.019 -0.2862 -1.3333  0.0075
  617MOL0     H81395   4.913   1.927   1.160  0.3787  0.6495  0.2093
  617MOL0     H81396   5.055   1.886   1.252 -0.3254 -1.3402  0.9521
  617MOL0     H81397   4.774   1.711   1.116 -0.5583  1.6373 -2.2122
  617MOL0     H81398   4.855   1.321   1.067 -1.3199 -0.0893 -1.2179
  617MOL0     H81399   4.790   1.418   0.942  1.5415  0.9083 -0.4957
  617MOL0     H81400   4.619   1.513   1.126 -0.0887 -0.1222 -1.8003
  617MOL0     H81401   4.662   1.364   1.216 -0.4887  0.3343  0.2324
  617MOL0     H81402   4.467   1.341   1.079  1.2064  0.3685  3.2193
  617MOL0     H81403   4.547   1.396   0.938 -0.4910  2.2286  2.1931
  617MOL0     H81404   4.661   1.137   1.074  0.7124  0.8118  0.7375
  617MOL0     H81405   4.671   1.178   0.908 -1.2645  1.1530 -0.9292
  617MOL0     H81406   4.244   1.056   0.890 -2.0083  1.9941  0.8766
  617MOL0     H81407   4.066   1.018   1.035  0.5586  0.1859 -1.2282
  617MOL0     H81408   3.908   0.884   1.457  0.3933  0.3266  0.0495
  617MOL0     H81409   3.702   0.849   1.583 -2.5499 -2.1900 -1.4353
  617MOL0     H81410   3.342   0.905   1.376  0.5186  1.7885 -3.1507
  617MOL0     H81411   3.315   1.074   1.430 -4.1050 -0.8226  1.1233
  617MOL0     H81412   3.224   0.993   1.637 -0.5955  0.4322 -1.1370
  617MOL0     H81413   3.269   0.825   1.602  1.2739 -0.2481  0.0655
  617MOL0     H81414   3.114   0.820   1.404 -1.3501 -1.6198  1.6653
  617MOL0     H81415   3.080   0.991   1.423  0.6317 -0.3624 -0.7523
  617MOL0     H81416   2.984   0.768   1.587 -0.6799 -0.0672  0.5619
  617MOL0     H81417   2.961   0.925   1.647  0.2345  0.0815 -0.4210
  617MOL0     H81418   2.765   0.829   1.499  0.1439  0.1647  0.9254
  617MOL0     H81419   2.876   0.854   1.367  3.9194  0.6842  0.5680
  617MOL0     H81420   2.887   1.077   1.375  0.1770  1.2825  2.6365
  617MOL0     H81421   2.795   1.093   1.533  1.3267  0.1849  1.2054
  617MOL0     H81422   2.697   1.025   1.256 -4.7271 -0.3414 -0.5855
  617MOL0     H81423   2.604   0.987   1.398 -0.8434  1.6063 -0.5830
  617MOL0     H81424   2.525   1.183   1.309  0.0836  1.5522  0.2024
  617MOL0     H81425   2.689   1.253   1.309  0.5172 -0.5831 -0.2906
  617MOL0     H81426   3.506   1.131   1.316  0.6228 -0.7473 -1.0015
  617MOL0     H81427   3.714   1.158   1.181  3.4249 -1.2809 -0.7073
  617MOL0     H81428   4.305   1.122   1.377 -0.6515 -1.1569  0.2705
  617MOL0     H81429   4.505   1.125   1.243  1.4813 -0.9259 -0.8859
  617MOL0     H81430   5.871   2.289   1.363  0.0959  0.8942 -0.8810
  617MOL0     H81431   6.070   2.323   1.480  1.6263  1.2065  1.5549
  617MOL0     H81432   6.345   2.386   1.694 -0.2025  0.9431 -0.6138
  617MOL0     H81433   6.539   2.332   1.814 -1.5987 -1.5176 -0.6085
  617MOL0     H81434   6.721   2.339   1.930  0.2811  1.9050  0.9219
  617MOL0     H81435   6.626   2.226   2.028 -1.2623  0.0903 -4.5104
  617MOL0     H81436   6.760   2.251   2.221  0.9016 -3.2270 -0.5985
  617MOL0     H81437   6.861   2.227   2.084 -0.4351  0.6124 -0.4542
  617MOL0     H81438   6.796   2.503   2.223 -1.9319 -0.0890 -1.3610
  617MOL0     H81439   6.872   2.500   2.079  3.2995  3.7214  3.4061
  617MOL0     H81440   7.059   2.330   2.179 -0.0870  0.8249 -1.4388
  617MOL0     H81441   7.058   2.499   2.228 -0.2946  0.4027 -3.1267
  617MOL0     H81442   6.953   2.245   2.583 -0.0647 -1.2761 -0.5182
  617MOL0     H81443   6.415   2.596   2.141  0.7260 -0.4612 -0.1498
  617MOL0     H81444   6.207   2.633   2.027 -1.4135 -0.0253 -2.4067
  618MOL0     O81445   7.024  11.253   6.772  0.5603 -0.7395  0.3871
  618MOL0     C81446   7.001  11.275   6.652 -0.7613  0.3451  0.1083
  618MOL0     O81447   6.894  11.341   6.607  0.1404 -0.2378 -0.6677
  618MOL0     C81448   6.792  11.385   6.695 -0.5609  0.0905 -0.9121
  618MOL0     C81449   6.767  11.520   6.702 -0.4307 -0.2306 -0.3519
  618MOL0     C81450   6.663  11.568   6.784  0.5417 -0.3038 -0.2586
  618MOL0     C81451   6.590  11.490   6.864  0.0647 -0.4906 -0.5368
  618MOL0     O81452   6.488  11.539   6.951 -0.1453  0.3304  0.4256
  618MOL0     C81453   6.483  11.676   6.996  0.3813  0.2019 -0.7742
  618MOL0     C81454   6.344  11.721   7.059 -0.4963 -0.8402 -0.2511
  618MOL0     C81455   6.227  11.665   6.979  0.2702  0.1928  0.1507
  618MOL0     C81456   6.085  11.701   7.036  0.2984 -0.3096 -0.5118
  618MOL0     C81457   5.967  11.651   6.944 -0.3287 -0.1063 -0.1076
  618MOL0     C81458   5.961  11.725   6.809 -0.4336  0.3061 -0.0052
  618MOL0     C81459   5.853  11.669   6.715 -0.5485  0.0654  0.4334
  618MOL0     C81460   5.708  11.704   6.757 -0.5406 -0.2164  0.4367
  618MOL0     N81461   5.608  11.605   6.722  0.4693 -0.1742 -0.6688
  618MOL0     C81462   5.527  11.611   6.607 -1.1578 -0.0838  0.0492
  618MOL0     C81463   5.447  11.507   6.605  0.1403  0.4015  0.7437
  618MOL0     C81464   5.358  11.463   6.488 -0.4380 -0.0172  0.4389
  618MOL0     C81465   5.261  11.583   6.452  0.3345  0.3359  0.4660
  618MOL0     C81466   5.138  11.587   6.552  0.0083  0.7562 -0.1073
  618MOL0     C81467   5.048  11.463   6.525  0.1895 -0.2963 -0.8391
  618MOL0     O81468   4.945  11.490   6.424  0.9226  0.7684  0.7763
  618MOL0     C81469   4.833  11.558   6.472  0.5189  0.3622  0.4565
  618MOL0     C81470   4.809  11.590   6.604  0.3755 -0.3873  0.0133
  618MOL0     C81471   4.684  11.649   6.639  0.8359 -0.2476  0.7701
  618MOL0     C81472   4.580  11.678   6.547 -0.2567  0.0192 -0.0201
  618MOL0     C81473   4.446  11.730   6.598 -0.1670  0.3312 -1.0035
  618MOL0     O81474   4.342  11.715   6.516  0.1065 -0.1141 -0.1855
  618MOL0     C81475   4.222  11.781   6.527 -0.2363 -0.5014 -0.0433
  618MOL0     C81476   4.185  11.887   6.602  0.1060 -1.0725  0.6268
  618MOL0     C81477   4.053  11.935   6.597 -0.4565  0.3113 -0.6598
  618MOL0     C81478   3.952  11.867   6.523 -1.2949 -0.0677 -0.4343
  618MOL0     O81479   3.818  11.898   6.525 -0.0103  0.2106 -0.6374
  618MOL0     C81480   3.776  12.033   6.533  0.0060  0.1301 -0.3078
  618MOL0     C81481   3.630  12.013   6.555 -0.1201  0.0964  0.0219
  618MOL0     C81482   3.568  12.132   6.629 -0.3170  0.4928 -0.0912
  618MOL0     C81483   3.422  12.109   6.657 -0.5003 -0.1040  0.1990
  618MOL0     C81484   3.352  12.224   6.737 -0.5848  0.6866 -0.3127
  618MOL0     C81485   3.339  12.351   6.660  0.2698 -0.2717  0.6778
  618MOL0     C81486   3.274  12.330   6.517  0.3645  0.1751  0.6623
  618MOL0     C81487   3.138  12.260   6.506 -0.0473  0.2894 -0.4680
  618MOL0    Cl81488   3.085  12.293   6.344  0.1845 -0.1371 -0.1801
  618MOL0     C81489   3.994  11.756   6.453 -0.0247  0.2759 -0.0473
  618MOL0     C81490   4.125  11.714   6.457 -0.2045  0.1297 -0.2047
  618MOL0     O81491   4.436  11.778   6.711  0.1430 -0.2346 -0.2095
  618MOL0     C81492   4.613  11.640   6.408 -0.0493 -0.4270 -0.2356
  618MOL0     C81493   4.733  11.580   6.382 -0.7165  0.2214  0.9418
  618MOL0     N81494   5.485  11.431   6.720  0.1836 -0.3281  0.0764
  618MOL0     N81495   5.583  11.487   6.776  0.8624  0.1434  0.3496
  618MOL0     C81496   6.614  11.351   6.854  0.1137 -0.4375  0.2336
  618MOL0     C81497   6.706  11.305   6.765 -0.6613 -0.1689  0.1565
  618MOL0     C81498   7.112  11.238   6.558  0.5186  0.1459  0.1257
  618MOL0     C81499   7.092  11.245   6.420  0.4703 -0.5154 -0.0304
  618MOL0     C81500   7.199  11.214   6.333  0.7524  0.0058  0.3780
  618MOL0     C81501   7.321  11.173   6.386  0.7622  0.1297 -0.3060
  618MOL0     O81502   7.420  11.144   6.303 -0.3337  0.0642  0.3903
  618MOL0     C81503   7.422  11.137   6.162  0.3338 -0.4305  0.6948
  618MOL0     C81504   7.574  11.129   6.132 -1.0428 -0.3647 -0.3976
  618MOL0     C81505   7.603  11.075   5.984  0.3711 -0.1001  0.1928
  618MOL0     C81506   7.611  11.190   5.876 -0.2814  0.9780  0.2586
  618MOL0     C81507   7.485  11.228   5.828  0.8252  0.7059  0.3496
  618MOL0     C81508   7.371  11.258   5.789 -0.1092  0.1529  0.5670
  618MOL0     C81509   7.332  11.152   6.524 -0.0164  0.1000  0.1180
  618MOL0     C81510   7.229  11.184   6.612  0.1322 -0.9107 -0.4420
  618MOL0     H81511   6.829  11.590   6.646  3.5049 -0.6240  3.0030
  618MOL0     H81512   6.634  11.672   6.781 -0.2328 -0.5410 -2.0908
  618MOL0     H81513   6.512  11.743   6.914 -0.7527  2.2463  0.3951
  618MOL0     H81514   6.555  11.698   7.076 -0.9481 -0.3500  0.6360
  618MOL0     H81515   6.339  11.830   7.072  0.4003 -0.9910  1.7770
  618MOL0     H81516   6.342  11.682   7.162  0.6764  1.4451  0.7193
  618MOL0     H81517   6.235  11.556   6.983  0.8813 -0.0415 -3.6148
  618MOL0     H81518   6.235  11.702   6.876  2.2639  2.2023  0.9417
  618MOL0     H81519   6.059  11.654   7.131 -1.0202  1.4106  0.0289
  618MOL0     H81520   6.080  11.810   7.044 -2.9549 -0.4182  0.3738
  618MOL0     H81521   5.875  11.668   7.001 -1.9340  0.1710 -2.6255
  618MOL0     H81522   5.975  11.543   6.930 -3.2085 -0.4447  0.1845
  618MOL0     H81523   6.058  11.717   6.759 -0.8939  0.4080 -0.9497
  618MOL0     H81524   5.935  11.826   6.843  1.3955 -0.4030  4.0445
  618MOL0     H81525   5.870  11.708   6.614 -0.3150 -0.3893  0.2948
  618MOL0     H81526   5.862  11.560   6.715 -1.4010 -0.0197 -0.1131
  618MOL0     H81527   5.669  11.798   6.717  1.0698 -0.1154 -1.0409
  618MOL0     H81528   5.708  11.721   6.865  0.6332  2.8648  0.0432
  618MOL0     H81529   5.539  11.684   6.528 -1.3656  0.0181  0.1133
  618MOL0     H81530   5.293  11.382   6.523 -0.2891  0.5218  2.0359
  618MOL0     H81531   5.421  11.431   6.405 -1.1748  0.2375 -0.2320
  618MOL0     H81532   5.221  11.575   6.350  0.9265 -0.2886  0.2728
  618MOL0     H81533   5.314  11.679   6.458 -0.5600  1.0246 -1.5361
  618MOL0     H81534   5.183  11.576   6.651 -1.1339 -2.0159  0.1844
  618MOL0     H81535   5.078  11.677   6.534 -0.7947 -0.1504 -2.2993
  618MOL0     H81536   4.994  11.424   6.612 -0.4760 -0.8666 -1.4889
  618MOL0     H81537   5.093  11.373   6.481  0.6461 -0.4787 -0.0089
  618MOL0     H81538   4.880  11.585   6.687 -0.8465 -0.0887  1.1049
  618MOL0     H81539   4.658  11.684   6.738 -0.0367  0.9762  0.1436
  618MOL0     H81540   4.263  11.941   6.656 -0.8040 -0.4943  1.3998
  618MOL0     H81541   4.028  12.017   6.663  1.9425 -0.9132  1.9604
  618MOL0     H81542   3.795  12.085   6.439 -2.8592 -1.6027 -2.0029
  618MOL0     H81543   3.826  12.079   6.619 -2.5657  0.3637  1.1675
  618MOL0     H81544   3.608  11.925   6.616  0.5324  0.9045  1.4720
  618MOL0     H81545   3.583  11.995   6.458  0.8675 -0.0194 -0.4419
  618MOL0     H81546   3.580  12.214   6.557  2.3608  0.8735  0.6684
  618MOL0     H81547   3.611  12.170   6.722 -2.2256  0.0474  1.0302
  618MOL0     H81548   3.366  12.074   6.570 -0.3315 -0.3667  0.1950
  618MOL0     H81549   3.440  12.023   6.723  0.2288 -0.4236 -0.3995
  618MOL0     H81550   3.406  12.246   6.830 -2.9183 -0.5888  1.4489
  618MOL0     H81551   3.253  12.207   6.780  1.6379 -0.2304  5.4482
  618MOL0     H81552   3.442  12.381   6.642 -0.7769  2.5733 -1.1473
  618MOL0     H81553   3.285  12.428   6.716 -1.8377  0.3846 -2.0776
  618MOL0     H81554   3.260  12.431   6.477  1.5052 -0.4336 -1.4223
  618MOL0     H81555   3.342  12.283   6.445 -0.4898  0.1382 -0.1458
  618MOL0     H81556   3.077  12.303   6.586  1.2514  0.3864  0.4908
  618MOL0     H81557   3.151  12.152   6.515  0.1396  0.2496 -1.1584
  618MOL0     H81558   3.926  11.694   6.395  0.7760 -0.4424 -0.2265
  618MOL0     H81559   4.152  11.620   6.410  3.1534  1.7837 -1.9634
  618MOL0     H81560   4.546  11.645   6.323 -0.9387 -0.3640  0.4527
  618MOL0     H81561   4.758  11.555   6.279 -2.1522  0.3657  0.5310
  618MOL0     H81562   6.564  11.283   6.923  0.4611  1.0867  2.0987
  618MOL0     H81563   6.730  11.199   6.760 -1.8294 -0.5685  2.0531
  618MOL0     H81564   6.997  11.280   6.382 -0.2559 -3.3611 -1.0398
  618MOL0     H81565   7.188  11.214   6.225 -0.2120 -0.6033  0.4585
  618MOL0     H81566   7.387  11.227   6.109  0.1313 -0.7989  0.1983
  618MOL0     H81567   7.369  11.046   6.132 -1.1479 -0.4943  3.2134
  618MOL0     H81568   7.609  11.232   6.133 -1.9956  0.1431 -3.9990
  618MOL0     H81569   7.618  11.068   6.211  0.2205  1.6607  0.5154
  618MOL0     H81570   7.518  11.010   5.962 -0.3439  0.5617  0.9712
  618MOL0     H81571   7.695  11.016   5.986  0.2480 -0.3107 -0.3163
  618MOL0     H81572   7.658  11.276   5.924 -2.7862  2.2551  0.6059
  618MOL0     H81573   7.675  11.149   5.797  1.1898 -1.0737  2.3724
  618MOL0     H81574   7.281  11.288   5.740  1.8631  4.8429 -0.7676
  618MOL0     H81575   7.420  11.111   6.571  1.6199  3.7663  0.5882
  618MOL0     H81576   7.231  11.169   6.719  0.1124 -1.2653 -0.4893
  619MOL0     O81577   4.674   8.920   3.407  0.0436 -0.2023  0.0315
  619MOL0     C81578   4.628   8.838   3.490  1.2808  0.0544  0.2044
  619MOL0     O81579   4.504   8.846   3.538  0.8940  0.4620  0.4617
  619MOL0     C81580   4.429   8.962   3.546 -0.3583  0.3312 -0.1221
  619MOL0     C81581   4.494   9.084   3.539 -1.1137  0.2199 -0.6407
  619MOL0     C81582   4.412   9.192   3.529  0.7968 -0.6920  0.0389
  619MOL0     C81583   4.272   9.188   3.520 -1.2715 -0.3491 -0.1277
  619MOL0     O81584   4.218   9.308   3.522  0.2336  0.4410 -0.5539
  619MOL0     C81585   4.084   9.317   3.511 -0.2101  0.3659 -0.3629
  619MOL0     C81586   4.054   9.465   3.497  0.5143 -0.2664  1.0252
  619MOL0     C81587   3.905   9.492   3.468  0.5994  0.4169  0.2606
  619MOL0     C81588   3.855   9.641   3.478  0.2667  0.0556  0.1925
  619MOL0     C81589   3.712   9.658   3.474  0.8018  0.7574 -0.8614
  619MOL0     C81590   3.656   9.616   3.338  0.6696 -0.2890  0.3770
  619MOL0     C81591   3.510   9.655   3.300 -0.5793 -0.7689 -1.0097
  619MOL0     C81592   3.467   9.572   3.175 -0.5054 -0.3716 -0.4825
  619MOL0     N81593   3.333   9.615   3.140  0.4106  0.4204  0.9136
  619MOL0     C81594   3.220   9.557   3.181  0.7526  0.2960  0.1726
  619MOL0     C81595   3.114   9.606   3.107 -0.3468 -0.0810  0.8157
  619MOL0     C81596   2.968   9.564   3.093 -0.2915 -0.5508 -0.0106
  619MOL0     C81597   2.926   9.469   3.199 -0.0455 -0.0390  0.4924
  619MOL0     C81598   2.776   9.432   3.198  0.5294  0.5584  0.6246
  619MOL0     C81599   2.735   9.372   3.334  1.5421  0.6111 -0.0841
  619MOL0     O81600   2.590   9.365   3.346 -0.0949  0.2661  0.1100
  619MOL0     C81601   2.537   9.273   3.433 -0.7804  0.5963  0.5946
  619MOL0     C81602   2.609   9.191   3.521 -0.3377 -0.3756  1.0695
  619MOL0     C81603   2.532   9.116   3.618 -0.5297  0.3168  0.1376
  619MOL0     C81604   2.393   9.117   3.620 -0.1061  1.0737  0.2156
  619MOL0     C81605   2.318   9.041   3.729  0.1310 -0.1136  0.6131
  619MOL0     O81606   2.180   9.038   3.713 -0.2096 -0.5874 -0.2540
  619MOL0     C81607   2.089   9.007   3.810 -0.4083 -0.3044  0.5425
  619MOL0     C81608   1.972   8.954   3.764 -0.5638  0.3189 -0.1756
  619MOL0     C81609   1.868   8.918   3.856 -1.1514  0.0325 -0.3200
  619MOL0     C81610   1.879   8.959   3.992  0.0526  0.1626  0.0390
  619MOL0     O81611   1.780   8.928   4.080 -0.3533 -0.0240  0.4313
  619MOL0     C81612   1.756   9.030   4.187 -0.1061  0.3299  1.2405
  619MOL0     C81613   1.621   8.987   4.240 -0.3881 -0.3814  0.5142
  619MOL0     C81614   1.554   9.094   4.323  0.2195 -0.2918 -0.9582
  619MOL0     C81615   1.409   9.040   4.370 -0.3207  0.0604  0.3110
  619MOL0     C81616   1.318   9.163   4.383 -0.4262 -0.5368  0.3084
  619MOL0     C81617   1.182   9.141   4.426 -0.5666  1.0634  0.1399
  619MOL0     C81618   1.117   9.273   4.461 -0.2710 -0.0865 -0.5089
  619MOL0     C81619   0.967   9.268   4.485  0.9108 -0.3042  0.2793
  619MOL0    Cl81620   0.916   9.168   4.628 -0.1757 -0.1691 -0.2684
  619MOL0     C81621   2.001   9.016   4.039 -1.0434  0.6701  0.7588
  619MOL0     C81622   2.100   9.047   3.950 -0.0009 -0.6446 -0.2419
  619MOL0     O81623   2.379   9.004   3.825 -0.1155  0.5934  0.1879
  619MOL0     C81624   2.332   9.212   3.534 -0.6371  0.2817 -0.5862
  619MOL0     C81625   2.400   9.282   3.444 -0.4989 -0.4257 -0.0703
  619MOL0     N81626   3.176   9.688   3.013  0.4428  0.0528 -0.6803
  619MOL0     N81627   3.299   9.700   3.041 -0.2149 -0.0396  1.2076
  619MOL0     C81628   4.213   9.056   3.521  0.0966 -0.1177  0.7272
  619MOL0     C81629   4.290   8.942   3.530  0.2118  0.0852  0.1263
  619MOL0     C81630   4.723   8.744   3.552  0.8444 -1.0320  0.0827
  619MOL0     C81631   4.860   8.752   3.529 -0.0760 -0.1707 -0.9332
  619MOL0     C81632   4.947   8.680   3.610 -0.2630 -0.4317  0.1653
  619MOL0     C81633   4.893   8.589   3.705 -0.9040 -0.5276 -0.0058
  619MOL0     O81634   4.986   8.511   3.766  0.5053  0.5876 -0.1250
  619MOL0     C81635   4.939   8.409   3.858  0.3269  0.2583 -0.9056
  619MOL0     C81636   5.058   8.319   3.891 -0.3049  0.8785 -0.6666
  619MOL0     C81637   5.185   8.402   3.936  0.5630 -1.4753  0.5355
  619MOL0     C81638   5.256   8.338   4.060  0.1008 -0.5882  0.4126
  619MOL0     C81639   5.162   8.306   4.167  0.1397  0.9892 -0.0434
  619MOL0     C81640   5.101   8.275   4.268  0.5640 -0.1512  0.0339
  619MOL0     C81641   4.756   8.577   3.726 -0.0425 -0.0329 -0.0439
  619MOL0     C81642   4.669   8.657   3.647  0.7040 -0.2370 -0.3433
  619MOL0     H81643   4.599   9.092   3.564 -1.3920  0.8260  0.4117
  619MOL0     H81644   4.455   9.292   3.521  1.4263 -1.0719 -2.3555
  619MOL0     H81645   4.037   9.269   3.597 -0.6345  0.5198 -0.5039
  619MOL0     H81646   4.054   9.264   3.420  2.1454  1.5297 -1.9123
  619MOL0     H81647   4.118   9.509   3.421  0.9418  1.6062  2.3863
  619MOL0     H81648   4.084   9.521   3.587 -0.1563 -0.3720  1.3273
  619MOL0     H81649   3.844   9.430   3.534 -1.2621 -0.7831 -2.4158
  619MOL0     H81650   3.877   9.454   3.370 -0.3877  0.6548  0.4406
  619MOL0     H81651   3.897   9.691   3.566  2.0462 -0.4040 -0.3403
  619MOL0     H81652   3.905   9.700   3.400  1.6429  0.9451  1.6932
  619MOL0     H81653   3.695   9.765   3.488  2.6590  1.0776 -0.9173
  619MOL0     H81654   3.660   9.596   3.548  1.7933  1.0943  0.1380
  619MOL0     H81655   3.677   9.511   3.316 -0.2547 -0.7270  1.4954
  619MOL0     H81656   3.715   9.671   3.264  1.1780  1.1805  1.8101
  619MOL0     H81657   3.443   9.642   3.386  1.1844  1.1248  0.7875
  619MOL0     H81658   3.514   9.764   3.286  0.4770 -0.7795 -0.8594
  619MOL0     H81659   3.455   9.467   3.204 -0.9579  0.8603  4.7756
  619MOL0     H81660   3.537   9.595   3.094 -1.8933  3.7650 -0.7787
  619MOL0     H81661   3.206   9.480   3.256  2.9625  0.1012  0.4656
  619MOL0     H81662   2.948   9.528   2.991  1.1014  0.2438 -0.5855
  619MOL0     H81663   2.902   9.651   3.102 -2.4971 -2.2053  0.7098
  619MOL0     H81664   2.947   9.520   3.293 -1.7213 -0.9132  1.3935
  619MOL0     H81665   2.995   9.384   3.190  0.9895  0.7243  1.0667
  619MOL0     H81666   2.701   9.508   3.177 -0.4816 -0.2445  1.2388
  619MOL0     H81667   2.762   9.358   3.119 -0.5924  1.1264  0.2664
  619MOL0     H81668   2.769   9.436   3.416  3.9121  2.6956 -2.5256
  619MOL0     H81669   2.780   9.274   3.348 -1.2108 -0.7591 -0.2818
  619MOL0     H81670   2.717   9.182   3.528  0.1200  1.1802 -2.1258
  619MOL0     H81671   2.591   9.049   3.679 -0.7268 -1.2790 -1.3470
  619MOL0     H81672   1.959   8.921   3.661 -1.8113 -0.0914  0.0896
  619MOL0     H81673   1.779   8.862   3.828 -1.9668  1.8962 -1.5977
  619MOL0     H81674   1.764   9.128   4.138 -0.2338 -0.2530  0.0423
  619MOL0     H81675   1.834   9.018   4.262  1.6331 -2.5457 -0.8633
  619MOL0     H81676   1.638   8.898   4.302  2.6827 -1.0631 -1.1157
  619MOL0     H81677   1.554   8.974   4.155  0.7980  1.8758 -0.8671
  619MOL0     H81678   1.538   9.180   4.258 -3.5409 -0.9893 -1.2172
  619MOL0     H81679   1.616   9.118   4.410  0.7149 -0.2791 -1.3113
  619MOL0     H81680   1.366   8.973   4.294  0.7709 -1.8992  1.3683
  619MOL0     H81681   1.417   8.986   4.464  1.9407  1.7753  1.1721
  619MOL0     H81682   1.316   9.207   4.282  1.7506  0.8057  0.7794
  619MOL0     H81683   1.365   9.236   4.450 -3.0891  1.5547  0.0664
  619MOL0     H81684   1.178   9.080   4.517  0.7429 -0.4333 -0.7583
  619MOL0     H81685   1.126   9.090   4.347 -0.2610  2.3516 -0.9238
  619MOL0     H81686   1.153   9.309   4.557  0.3644 -0.9257 -0.4309
  619MOL0     H81687   1.132   9.351   4.385 -0.1270  1.1196  0.7105
  619MOL0     H81688   0.928   9.229   4.390  2.7144 -1.7077  0.0668
  619MOL0     H81689   0.928   9.369   4.501 -0.4490 -0.7968  0.1755
  619MOL0     H81690   2.018   9.038   4.144 -3.0262 -1.1396  1.5124
  619MOL0     H81691   2.194   9.097   3.974 -0.6238  2.1143 -2.8494
  619MOL0     H81692   2.224   9.221   3.532 -0.4417  3.8716 -0.8308
  619MOL0     H81693   2.348   9.352   3.379 -1.7818 -0.8249  0.4790
  619MOL0     H81694   4.105   9.049   3.523  0.0387  0.3815 -0.2579
  619MOL0     H81695   4.260   8.838   3.530  1.9174 -0.4437  0.1164
  619MOL0     H81696   4.899   8.814   3.448  0.4956 -1.5979 -1.8048
  619MOL0     H81697   5.055   8.678   3.597 -0.4573 -0.6124 -1.6733
  619MOL0     H81698   4.852   8.352   3.825 -1.8517  3.5008 -1.2077
  619MOL0     H81699   4.917   8.467   3.948  1.9686  0.1488 -0.3963
  619MOL0     H81700   5.028   8.253   3.973 -1.7237  1.3813 -0.7683
  619MOL0     H81701   5.085   8.252   3.808 -0.2142 -3.1435  2.3191
  619MOL0     H81702   5.141   8.497   3.966  0.1443 -1.3056 -0.5656
  619MOL0     H81703   5.256   8.425   3.856  0.3960  0.9228  0.9892
  619MOL0     H81704   5.298   8.244   4.023  0.7093  0.6926 -2.4287
  619MOL0     H81705   5.336   8.406   4.092  0.8363 -0.9500 -0.5841
  619MOL0     H81706   5.041   8.248   4.352 -3.2706  3.0249 -1.3991
  619MOL0     H81707   4.708   8.525   3.808 -0.6111  0.2340 -0.2024
  619MOL0     H81708   4.563   8.639   3.665  0.1312  1.8245 -1.3428
  620MOL0     O81709  10.974   6.961   2.498  0.4143 -0.2422 -0.8770
  620MOL0     C81710  11.005   6.847   2.475 -0.5401  0.4687  1.1309
  620MOL0     O81711  10.919   6.739   2.484 -0.4262 -0.1009 -0.0779
  620MOL0     C81712  10.795   6.750   2.534  0.3491 -0.2577  0.0988
  620MOL0     C81713  10.776   6.775   2.668 -0.6263 -0.0685  0.4030
  620MOL0     C81714  10.649   6.787   2.732  1.1227  0.8694  0.0508
  620MOL0     C81715  10.532   6.778   2.651  0.2024  1.2064 -0.3832
  620MOL0     O81716  10.401   6.771   2.691 -0.2402 -0.0104  0.2866
  620MOL0     C81717  10.385   6.743   2.827 -0.6133  0.1118  0.0747
  620MOL0     C81718  10.243   6.688   2.834  0.8183 -0.0557  0.0182
  620MOL0     C81719  10.221   6.625   2.974  0.2480 -0.3162 -0.3591
  620MOL0     C81720  10.075   6.592   2.985 -1.1453  0.0075 -0.9645
  620MOL0     C81721  10.059   6.484   3.093 -0.4169 -0.3582  0.2486
  620MOL0     C81722   9.942   6.387   3.084  0.2198 -0.3364 -0.1473
  620MOL0     C81723   9.921   6.301   3.210  0.0241 -0.2077 -0.5307
  620MOL0     C81724   9.813   6.196   3.187  0.1878 -0.0740 -0.3681
  620MOL0     N81725   9.692   6.260   3.129  1.4763 -0.0558 -0.3025
  620MOL0     C81726   9.633   6.225   3.009  1.3672  0.1397  0.3677
  620MOL0     C81727   9.538   6.313   2.991  0.3828 -0.2030 -0.8073
  620MOL0     C81728   9.444   6.288   2.883  0.0950  0.9190 -0.1491
  620MOL0     C81729   9.304   6.339   2.914 -0.6097  0.1934 -1.1455
  620MOL0     C81730   9.227   6.266   3.026 -0.4505 -0.1885  0.5592
  620MOL0     C81731   9.206   6.116   3.006 -0.5472  0.2902  0.1470
  620MOL0     O81732   9.145   6.093   2.876  0.2649  0.0566 -0.2955
  620MOL0     C81733   9.015   6.069   2.889 -0.2424  1.3174 -0.5396
  620MOL0     C81734   8.967   5.939   2.905  0.0402  0.9210  1.1336
  620MOL0     C81735   8.833   5.905   2.882 -0.7182  0.3419 -0.4564
  620MOL0     C81736   8.737   6.011   2.867 -0.1654  0.4546 -0.9510
  620MOL0     C81737   8.596   5.968   2.859  0.7508 -0.2772  0.4110
  620MOL0     O81738   8.577   5.840   2.815 -1.1167 -0.3719  0.1681
  620MOL0     C81739   8.452   5.783   2.818 -0.1510 -0.0800 -0.0047
  620MOL0     C81740   8.411   5.706   2.707 -0.2430  0.3546  1.0247
  620MOL0     C81741   8.302   5.621   2.710 -0.9081 -0.0308  1.1607
  620MOL0     C81742   8.222   5.618   2.825  0.3203 -0.6038  0.7111
  620MOL0     O81743   8.115   5.540   2.836  0.3145 -0.4883  0.4474
  620MOL0     C81744   8.041   5.502   2.721 -0.2068  0.2223  0.3618
  620MOL0     C81745   7.921   5.417   2.764  0.6572  0.5981  0.3394
  620MOL0     C81746   7.833   5.386   2.640 -0.0282  0.5185  0.0336
  620MOL0     C81747   7.692   5.315   2.665  0.2317  0.2082 -0.3008
  620MOL0     C81748   7.591   5.343   2.555 -0.4484  0.5821 -0.1871
  620MOL0     C81749   7.469   5.256   2.559 -0.7706 -1.4799 -0.0992
  620MOL0     C81750   7.367   5.295   2.450 -0.2430  0.0303 -0.3466
  620MOL0     C81751   7.276   5.172   2.430 -0.3307 -0.0863  0.0241
  620MOL0    Cl81752   7.360   5.069   2.311 -0.1592 -0.3197  0.4015
  620MOL0     C81753   8.260   5.700   2.926 -0.1461  0.1366  0.0526
  620MOL0     C81754   8.372   5.782   2.932 -0.3948  0.0756 -0.4958
  620MOL0     O81755   8.507   6.042   2.894  0.0357 -0.2273  0.0546
  620MOL0     C81756   8.785   6.140   2.855 -0.7093  0.1037  0.5802
  620MOL0     C81757   8.925   6.165   2.860  0.4859 -1.1329  0.0005
  620MOL0     N81758   9.530   6.399   3.099 -0.3255 -0.6689 -0.1684
  620MOL0     N81759   9.628   6.366   3.184 -0.3439  0.3274 -0.2753
  620MOL0     C81760  10.555   6.761   2.510 -0.2202  0.5453 -0.8113
  620MOL0     C81761  10.683   6.740   2.450 -0.3341 -0.0177  0.3266
  620MOL0     C81762  11.150   6.818   2.449  0.9967 -0.4242  0.8816
  620MOL0     C81763  11.196   6.698   2.383 -0.0547 -1.0169  0.4115
  620MOL0     C81764  11.337   6.673   2.382 -0.3824  0.8972  0.2947
  620MOL0     C81765  11.423   6.765   2.443  0.6437  0.3017 -0.3186
  620MOL0     O81766  11.552   6.741   2.440 -0.5201 -0.0165  0.3480
  620MOL0     C81767  11.608   6.816   2.328 -0.1607  0.1208  0.7781
  620MOL0     C81768  11.757   6.801   2.310  0.1156  0.7046 -0.3141
  620MOL0     C81769  11.836   6.849   2.436 -0.3010  0.3941  0.3363
  620MOL0     C81770  11.818   6.989   2.485  0.2831  0.3585 -1.0687
  620MOL0     C81771  11.832   7.093   2.383 -0.9601  1.1001 -0.0023
  620MOL0     C81772  11.852   7.181   2.302  0.1106  0.1405 -0.3599
  620MOL0     C81773  11.379   6.883   2.502  0.8056 -0.3797 -0.2676
  620MOL0     C81774  11.239   6.908   2.503  0.8255  0.0558 -0.1329
  620MOL0     H81775  10.864   6.785   2.730  0.1406  0.2302 -0.6981
  620MOL0     H81776  10.636   6.806   2.839 -1.0715  4.4834 -0.6808
  620MOL0     H81777  10.402   6.836   2.882  1.0183  1.2570 -2.2086
  620MOL0     H81778  10.454   6.665   2.862 -3.2662 -2.1961  0.5699
  620MOL0     H81779  10.231   6.609   2.759 -4.0234 -1.6802  2.1044
  620MOL0     H81780  10.164   6.763   2.827  0.5486  0.1297  3.4162
  620MOL0     H81781  10.256   6.692   3.054  2.1251 -0.8912 -0.6472
  620MOL0     H81782  10.274   6.530   2.965  0.7279 -0.1439  0.5021
  620MOL0     H81783  10.011   6.678   3.010 -2.2518 -1.3557  1.1995
  620MOL0     H81784  10.042   6.550   2.890 -1.6074  1.0230 -1.2635
  620MOL0     H81785  10.060   6.531   3.191  1.0383 -4.1649  2.2774
  620MOL0     H81786  10.141   6.412   3.080 -0.8759 -1.0243  0.9378
  620MOL0     H81787   9.951   6.322   2.997  2.3111  1.3415 -1.2807
  620MOL0     H81788   9.851   6.447   3.079  0.0392 -0.0782  3.5471
  620MOL0     H81789  10.010   6.245   3.240  1.5334  2.8546  1.1381
  620MOL0     H81790   9.898   6.361   3.298 -1.5950 -1.1512 -0.2702
  620MOL0     H81791   9.806   6.139   3.281  3.4429 -1.5812 -0.9132
  620MOL0     H81792   9.844   6.129   3.107 -0.4334 -1.0000  0.1404
  620MOL0     H81793   9.660   6.142   2.945  0.7238 -0.7857  1.2708
  620MOL0     H81794   9.435   6.183   2.855 -0.7895  0.9476 -0.0079
  620MOL0     H81795   9.479   6.343   2.795 -3.4078  7.5068  1.8548
  620MOL0     H81796   9.245   6.333   2.823 -3.3199  0.0213  0.5215
  620MOL0     H81797   9.303   6.444   2.942 -1.6140  0.2756 -1.4790
  620MOL0     H81798   9.269   6.288   3.125 -3.3631  1.5778  1.5094
  620MOL0     H81799   9.130   6.315   3.023  0.7165  2.6719 -5.4165
  620MOL0     H81800   9.149   6.085   3.094  0.6492  3.7434  2.3417
  620MOL0     H81801   9.300   6.061   3.012 -0.0043  1.3439  1.9820
  620MOL0     H81802   9.041   5.860   2.903 -1.0053 -0.1164  1.8583
  620MOL0     H81803   8.800   5.802   2.888  3.2880 -0.9951  2.0853
  620MOL0     H81804   8.470   5.699   2.616  1.6209  1.3686  2.0820
  620MOL0     H81805   8.280   5.563   2.622  1.9676 -0.8272  0.8472
  620MOL0     H81806   8.095   5.435   2.652 -4.4430 -0.7985 -2.3570
  620MOL0     H81807   8.011   5.586   2.657  2.4650  1.2063  0.2932
  620MOL0     H81808   7.846   5.462   2.830  0.8327 -0.7171  1.4861
  620MOL0     H81809   7.964   5.326   2.807  0.5099 -0.2184 -1.1605
  620MOL0     H81810   7.895   5.327   2.571 -1.0612 -0.7850  0.1704
  620MOL0     H81811   7.813   5.484   2.597  2.3456  1.2896  0.5158
  620MOL0     H81812   7.702   5.206   2.665 -0.0922  0.1723  0.4940
  620MOL0     H81813   7.650   5.353   2.759  0.2806 -2.2987  0.8120
  620MOL0     H81814   7.636   5.328   2.456  1.3218 -0.0895  0.6732
  620MOL0     H81815   7.567   5.449   2.569  2.5841  0.9874  3.7854
  620MOL0     H81816   7.426   5.265   2.659 -0.7296  0.4334 -0.2124
  620MOL0     H81817   7.494   5.150   2.554 -0.4491 -1.5315  1.8536
  620MOL0     H81818   7.314   5.380   2.494  0.8149  0.1673  0.7228
  620MOL0     H81819   7.416   5.315   2.354 -0.6163 -1.0022 -0.7659
  620MOL0     H81820   7.181   5.205   2.386  0.2774 -0.2483 -1.4638
  620MOL0     H81821   7.250   5.119   2.521 -1.7152  0.1579 -0.2013
  620MOL0     H81822   8.186   5.711   3.004 -0.6540 -3.5649  0.2635
  620MOL0     H81823   8.393   5.850   3.013 -1.0944  0.9066 -0.9896
  620MOL0     H81824   8.710   6.216   2.838 -0.2386  0.4059 -0.2027
  620MOL0     H81825   8.963   6.266   2.848  4.5017 -2.3759  0.8608
  620MOL0     H81826  10.462   6.753   2.455 -1.3032  0.0261  1.0148
  620MOL0     H81827  10.692   6.713   2.345 -0.0568  0.4972  0.2146
  620MOL0     H81828  11.130   6.619   2.350  0.4189 -0.7669 -1.2161
  620MOL0     H81829  11.379   6.574   2.367 -1.5219  0.7261 -2.4294
  620MOL0     H81830  11.596   6.925   2.328  1.3777  0.3314 -0.5780
  620MOL0     H81831  11.561   6.778   2.237 -1.8914  1.6246  0.9970
  620MOL0     H81832  11.775   6.694   2.295  3.6013  1.4460 -2.8835
  620MOL0     H81833  11.786   6.854   2.218  0.6217  0.7934 -0.1093
  620MOL0     H81834  11.940   6.819   2.420 -1.4397 -4.9927  1.1214
  620MOL0     H81835  11.803   6.783   2.517 -3.9141  3.1216  1.3521
  620MOL0     H81836  11.715   7.001   2.521  0.1719  0.6617 -1.4819
  620MOL0     H81837  11.887   7.018   2.565  2.7570  1.6660 -3.4987
  620MOL0     H81838  11.868   7.255   2.226 -0.8855 -0.5630 -1.2717
  620MOL0     H81839  11.440   6.960   2.547 -1.3644  0.9244  0.5773
  620MOL0     H81840  11.199   6.999   2.546 -1.6478  0.0020 -2.0675
  621MOL0     O81841   9.401  10.707   4.708  0.2621 -0.2415 -0.0305
  621MOL0     C81842   9.384  10.595   4.652 -0.0295  1.0056 -0.5894
  621MOL0     O81843   9.475  10.527   4.568  0.4439 -0.6844  0.5577
  621MOL0     C81844   9.594  10.588   4.557 -0.2020 -0.1879 -0.8583
  621MOL0     C81845   9.697  10.570   4.657 -0.2114  0.3386  0.1344
  621MOL0     C81846   9.811  10.649   4.626  0.2768 -0.4669 -0.0442
  621MOL0     C81847   9.829  10.736   4.518 -0.1395  0.0434  0.4681
  621MOL0     O81848   9.935  10.818   4.496 -0.4317  0.5857 -0.1319
  621MOL0     C81849  10.062  10.757   4.545 -0.0157 -0.0179  0.7101
  621MOL0     C81850  10.176  10.829   4.480  0.0605  0.0566  0.3492
  621MOL0     C81851  10.315  10.774   4.516  0.3915  0.6438  0.2935
  621MOL0     C81852  10.435  10.856   4.470  0.0381  0.0217 -0.0078
  621MOL0     C81853  10.559  10.764   4.440  0.3747 -0.7160 -0.6274
  621MOL0     C81854  10.672  10.778   4.543 -0.5628 -0.9950 -0.0754
  621MOL0     C81855  10.795  10.706   4.484  0.6913 -0.1335 -0.4656
  621MOL0     C81856  10.908  10.719   4.583  0.4067  0.6432  0.1212
  621MOL0     N81857  11.042  10.683   4.529 -0.2534  0.6664 -0.7736
  621MOL0     C81858  11.085  10.560   4.494  0.2497 -0.8239  0.5099
  621MOL0     C81859  11.222  10.575   4.486 -0.5812 -0.4397  0.2887
  621MOL0     C81860  11.315  10.472   4.440  0.0250 -0.1555  0.7783
  621MOL0     C81861  11.455  10.477   4.515 -0.1816  0.2800 -0.0245
  621MOL0     C81862  11.538  10.368   4.456  0.3201  0.1908  0.5940
  621MOL0     C81863  11.682  10.375   4.502 -0.2911  0.8278 -0.1085
  621MOL0     O81864  11.764  10.296   4.412  0.7810 -0.5606 -0.2630
  621MOL0     C81865  11.900  10.303   4.431  0.0455  0.9388  0.0964
  621MOL0     C81866  11.972  10.259   4.318 -0.4006 -0.0589  0.0055
  621MOL0     C81867  12.110  10.261   4.314  0.1392  0.8656 -0.6421
  621MOL0     C81868  12.187  10.319   4.423  0.6641  0.1612 -0.6812
  621MOL0     C81869  12.332  10.345   4.412  0.7245 -0.0705  0.1205
  621MOL0     O81870  12.388  10.329   4.285  0.1792  0.4294  0.9700
  621MOL0     C81871  12.519  10.379   4.273  0.6521 -0.1350 -0.3557
  621MOL0     C81872  12.540  10.517   4.281 -0.5653 -0.3635  0.6779
  621MOL0     C81873  12.667  10.567   4.249  0.1537  0.0203 -0.5240
  621MOL0     C81874  12.774  10.482   4.218 -0.0466 -0.5680 -0.1265
  621MOL0     O81875  12.910  10.523   4.215  0.2777  0.1696 -0.2303
  621MOL0     C81876  12.939  10.656   4.265 -0.9022  0.4683  0.8524
  621MOL0     C81877  13.087  10.689   4.277 -0.0866  0.3121  0.7253
  621MOL0     C81878  13.155  10.620   4.397  0.0783 -1.4018 -0.5363
  621MOL0     C81879  13.303  10.626   4.381 -0.6203 -0.6644 -0.1151
  621MOL0     C81880  13.372  10.511   4.328 -0.3021  0.5780  0.2679
  621MOL0     C81881  13.527  10.518   4.339 -0.0805 -1.0074 -0.0737
  621MOL0     C81882  13.578  10.391   4.265  0.0520  0.1421 -0.0092
  621MOL0     C81883  13.722  10.352   4.277 -0.3604 -0.2972  0.3626
  621MOL0    Cl81884  13.770  10.265   4.422  0.3118  0.0989  0.2880
  621MOL0     C81885  12.750  10.345   4.210 -0.0968 -0.2028 -0.8023
  621MOL0     C81886  12.624  10.294   4.234  0.0997 -0.8167 -0.2065
  621MOL0     O81887  12.391  10.369   4.518  0.0215 -0.7922  0.4429
  621MOL0     C81888  12.113  10.374   4.537 -0.1272  0.3581  0.1276
  621MOL0     C81889  11.971  10.361   4.539 -0.3362  0.1481  0.0703
  621MOL0     N81890  11.257  10.707   4.528  0.0408  1.4751 -0.8430
  621MOL0     N81891  11.144  10.770   4.536  0.0091 -0.3660  0.4824
  621MOL0     C81892   9.724  10.743   4.431 -0.4957  0.4021  0.3292
  621MOL0     C81893   9.611  10.665   4.442  0.1660 -0.2256 -1.1191
  621MOL0     C81894   9.260  10.524   4.683 -0.4130 -0.6847 -0.3440
  621MOL0     C81895   9.235  10.400   4.628  0.1810 -0.6616 -0.0576
  621MOL0     C81896   9.110  10.346   4.654 -0.7331  0.2208  0.2906
  621MOL0     C81897   9.006  10.409   4.720 -0.2048 -0.3454  0.3514
  621MOL0     O81898   8.887  10.337   4.739 -0.1925 -0.3098  0.3581
  621MOL0     C81899   8.868  10.269   4.864  0.0549 -0.7650 -0.2434
  621MOL0     C81900   8.734  10.203   4.883  0.5642 -0.1923  0.8082
  621MOL0     C81901   8.694  10.115   4.762  0.8892 -0.1399 -0.7069
  621MOL0     C81902   8.567  10.041   4.783 -0.2544  0.9036  0.1037
  621MOL0     C81903   8.443  10.116   4.788 -0.3439  0.1645 -0.1676
  621MOL0     C81904   8.350  10.185   4.820  0.8003  0.2272  0.9850
  621MOL0     C81905   9.028  10.528   4.782  0.4058  0.7178 -1.0639
  621MOL0     C81906   9.164  10.583   4.772  0.2512 -0.1166  0.1654
  621MOL0     H81907   9.687  10.493   4.732  0.9792 -1.0793 -1.0990
  621MOL0     H81908   9.889  10.647   4.702 -0.9385 -1.3083  1.2393
  621MOL0     H81909  10.065  10.652   4.513  0.9256  0.1212  0.3211
  621MOL0     H81910  10.074  10.764   4.653  0.6830  1.6063  0.5524
  621MOL0     H81911  10.178  10.935   4.507  0.8824 -0.2447  1.5655
  621MOL0     H81912  10.167  10.819   4.372  3.3523 -2.5869  0.1547
  621MOL0     H81913  10.330  10.671   4.482  0.2402  0.4984  0.6597
  621MOL0     H81914  10.313  10.766   4.625 -0.3339 -0.8939  0.2048
  621MOL0     H81915  10.414  10.892   4.369 -2.1656 -1.4780 -0.1521
  621MOL0     H81916  10.462  10.936   4.539  2.7153  0.3633 -1.3386
  621MOL0     H81917  10.601  10.798   4.345  3.8276 -2.0143  0.2624
  621MOL0     H81918  10.532  10.659   4.428  2.6672 -1.0506 -4.3514
  621MOL0     H81919  10.648  10.731   4.639  1.6556  1.5209  1.8931
  621MOL0     H81920  10.695  10.881   4.570 -1.3525 -0.8427  0.0189
  621MOL0     H81921  10.771  10.602   4.461  1.3446 -1.0444  2.5771
  621MOL0     H81922  10.825  10.750   4.388 -1.5696  0.1627 -1.0995
  621MOL0     H81923  10.887  10.657   4.671 -3.6014  3.1310  1.2134
  621MOL0     H81924  10.918  10.824   4.612  1.8306  0.7852 -0.7956
  621MOL0     H81925  11.021  10.475   4.473  1.3964 -1.5210 -0.3019
  621MOL0     H81926  11.338  10.489   4.334 -1.4626  2.8454  0.8572
  621MOL0     H81927  11.262  10.377   4.447 -1.1125  0.5618  2.4005
  621MOL0     H81928  11.459  10.465   4.624 -2.3965  1.9336  0.3007
  621MOL0     H81929  11.498  10.576   4.497 -1.2297  0.5804 -0.9446
  621MOL0     H81930  11.495  10.271   4.483 -1.3497  1.0691  1.2578
  621MOL0     H81931  11.543  10.389   4.349 -0.0261  0.9387  0.7150
  621MOL0     H81932  11.693  10.344   4.607 -1.0631  0.2820 -0.1755
  621MOL0     H81933  11.712  10.480   4.510 -2.0624  1.3074  1.1028
  621MOL0     H81934  11.918  10.204   4.242  1.6989 -0.2201 -1.4388
  621MOL0     H81935  12.146  10.223   4.219  1.0946  0.3501 -0.0900
  621MOL0     H81936  12.464  10.583   4.322  0.8264  1.6855  0.1034
  621MOL0     H81937  12.673  10.673   4.269 -2.3405 -0.1763  1.8774
  621MOL0     H81938  12.885  10.675   4.358 -1.4964 -2.6243  1.2263
  621MOL0     H81939  12.901  10.734   4.198  1.3919 -0.3424 -1.5839
  621MOL0     H81940  13.080  10.796   4.298  0.4062  0.0999  2.0354
  621MOL0     H81941  13.142  10.662   4.187 -1.3004  1.0010 -0.2555
  621MOL0     H81942  13.139  10.512   4.407  1.6662 -1.4880  2.1595
  621MOL0     H81943  13.120  10.665   4.491 -1.1505 -1.7395 -0.8134
  621MOL0     H81944  13.325  10.713   4.319 -0.8028 -1.2805 -1.0564
  621MOL0     H81945  13.338  10.648   4.483 -0.4385  1.7778 -0.6349
  621MOL0     H81946  13.363  10.500   4.220  0.1575 -1.9208  0.4207
  621MOL0     H81947  13.336  10.417   4.371 -3.0524  1.1477 -0.6421
  621MOL0     H81948  13.552  10.530   4.444 -0.0772 -0.2118 -0.1653
  621MOL0     H81949  13.573  10.602   4.286  1.2005 -2.2175 -0.9443
  621MOL0     H81950  13.514  10.305   4.289 -2.0513  1.4493 -0.6573
  621MOL0     H81951  13.557  10.411   4.160 -0.7280  1.2378  0.3384
  621MOL0     H81952  13.791  10.434   4.252 -1.4021  0.5746  0.2473
  621MOL0     H81953  13.733  10.276   4.200  1.6693 -0.3643  0.6423
  621MOL0     H81954  12.840  10.287   4.194 -1.4177 -1.5776 -4.4152
  621MOL0     H81955  12.608  10.186   4.227 -1.2327 -0.8575  2.2138
  621MOL0     H81956  12.165  10.412   4.625 -0.5816 -0.5714  0.8177
  621MOL0     H81957  11.927  10.392   4.633 -1.3016 -0.4889 -0.1499
  621MOL0     H81958   9.732  10.801   4.339  3.4963  0.0873  0.3051
  621MOL0     H81959   9.537  10.671   4.363 -2.6677  1.3817  1.4668
  621MOL0     H81960   9.300  10.355   4.554  0.6711  2.7249 -1.8852
  621MOL0     H81961   9.093  10.253   4.601 -0.3473  1.4198 -2.0944
  621MOL0     H81962   8.892  10.331   4.951  1.4439 -2.3924  0.5960
  621MOL0     H81963   8.942  10.189   4.868 -0.5869 -1.3366  1.3467
  621MOL0     H81964   8.723  10.155   4.981 -0.0469 -0.3212  0.6854
  621MOL0     H81965   8.674  10.295   4.885  2.0358  0.9451 -2.2440
  621MOL0     H81966   8.771  10.040   4.739  1.6002  0.0866  0.7775
  621MOL0     H81967   8.677  10.184   4.679 -0.6376 -1.0443 -1.1987
  621MOL0     H81968   8.541   9.976   4.699 -0.5352  0.2749  0.6619
  621MOL0     H81969   8.582   9.984   4.875 -2.3280  1.3047  0.7455
  621MOL0     H81970   8.265  10.246   4.846 -1.1616 -0.3651 -3.2338
  621MOL0     H81971   8.954  10.576   4.845  0.0804 -0.1118 -0.8095
  621MOL0     H81972   9.190  10.676   4.823  1.1210 -0.8674  1.1592
  622MOL0     O81973   8.233   9.413   5.482  0.3388  0.2906 -0.1320
  622MOL0     C81974   8.298   9.315   5.437 -0.3702 -0.4568 -0.0474
  622MOL0     O81975   8.259   9.191   5.429 -0.1517 -0.2510 -0.8794
  622MOL0     C81976   8.122   9.178   5.442  0.1225 -0.2369 -0.2077
  622MOL0     C81977   8.054   9.148   5.317  0.4353 -1.0456 -0.9357
  622MOL0     C81978   7.920   9.131   5.323  0.8330 -0.4526  0.7243
  622MOL0     C81979   7.842   9.136   5.438 -0.3495 -0.4819  0.8495
  622MOL0     O81980   7.714   9.105   5.432  0.9019  0.1238 -0.9723
  622MOL0     C81981   7.667   8.982   5.485  0.2758  0.1919  0.0639
  622MOL0     C81982   7.536   8.997   5.563 -0.6840 -0.0727 -0.2967
  622MOL0     C81983   7.553   9.097   5.679 -0.3067 -0.2181  0.2034
  622MOL0     C81984   7.427   9.114   5.759 -0.1197  1.9888 -0.0727
  622MOL0     C81985   7.326   9.197   5.681 -0.2113 -0.1334 -0.5140
  622MOL0     C81986   7.192   9.204   5.753  0.0635 -0.4494  0.1629
  622MOL0     C81987   7.101   9.307   5.689  0.9796  0.2176 -0.1234
  622MOL0     C81988   6.962   9.316   5.762  0.0945 -0.5720 -0.0449
  622MOL0     N81989   6.881   9.417   5.707 -0.5894 -0.0881 -0.0817
  622MOL0     C81990   6.744   9.405   5.714  0.5236 -1.0651  0.5967
  622MOL0     C81991   6.697   9.519   5.663  1.1564 -0.3446  1.1540
  622MOL0     C81992   6.543   9.530   5.647 -0.4953 -1.0818 -0.0656
  622MOL0     C81993   6.512   9.673   5.689  0.2397  0.1117  0.8053
  622MOL0     C81994   6.351   9.702   5.697  0.2877  0.2519  0.1394
  622MOL0     C81995   6.300   9.647   5.829  1.2127 -1.2114 -0.0227
  622MOL0     O81996   6.295   9.745   5.943 -0.3089 -0.9221  0.8357
  622MOL0     C81997   6.179   9.825   5.956  0.2507 -0.3157  0.6478
  622MOL0     C81998   6.072   9.830   5.874 -0.8676 -0.0586  0.6116
  622MOL0     C81999   5.964   9.914   5.902 -0.0401 -0.7219 -0.5756
  622MOL0     C82000   5.951   9.987   6.024  0.0193  0.5963 -0.6377
  622MOL0     C82001   5.839  10.075   6.041  0.5883 -0.7099 -0.0592
  622MOL0     O82002   5.791  10.080   6.172 -0.3175 -0.3232  0.1642
  622MOL0     C82003   5.667  10.127   6.209  0.3068  0.2112 -0.1390
  622MOL0     C82004   5.554  10.124   6.129  0.6108 -0.2336 -0.6787
  622MOL0     C82005   5.425  10.173   6.172  0.2352  0.5129  0.5895
  622MOL0     C82006   5.409  10.235   6.294 -0.2770 -0.2124 -0.2424
  622MOL0     O82007   5.288  10.277   6.351 -0.2879  0.3497  0.4881
  622MOL0     C82008   5.210  10.365   6.269 -0.5010  0.6835 -0.4344
  622MOL0     C82009   5.269  10.504   6.250 -0.7825 -0.9418  0.1615
  622MOL0     C82010   5.325  10.564   6.386 -0.2914  0.4159  0.3678
  622MOL0     C82011   5.351  10.711   6.373  0.2130 -0.5238 -0.5517
  622MOL0     C82012   5.440  10.749   6.490  0.8419 -0.3411  0.4857
  622MOL0     C82013   5.467  10.906   6.490 -0.2833  0.5134 -0.1966
  622MOL0     C82014   5.555  10.956   6.602  0.7258 -0.9580 -0.2215
  622MOL0     C82015   5.557  11.105   6.589 -0.1882  0.2529  0.4058
  622MOL0    Cl82016   5.567  11.183   6.417  0.1791  0.2498  0.0902
  622MOL0     C82017   5.524  10.252   6.375 -0.1104 -0.1161 -0.0162
  622MOL0     C82018   5.647  10.188   6.339 -0.9670 -0.4904 -0.0662
  622MOL0     O82019   5.779  10.130   5.951 -0.3506 -0.2374 -0.3061
  622MOL0     C82020   6.059   9.969   6.114 -0.1199 -0.9167 -0.0895
  622MOL0     C82021   6.178   9.897   6.069  0.2648 -0.7535 -0.0956
  622MOL0     N82022   6.810   9.601   5.640  0.2678 -1.0197 -0.4291
  622MOL0     N82023   6.919   9.542   5.665 -0.0040  0.2450  0.5871
  622MOL0     C82024   7.909   9.155   5.561 -0.3202  0.4026  0.4483
  622MOL0     C82025   8.049   9.178   5.560  0.0032  0.4264 -0.2001
  622MOL0     C82026   8.441   9.349   5.395  0.1702 -0.6103  0.4129
  622MOL0     C82027   8.483   9.484   5.386 -1.0586 -0.0657  0.0708
  622MOL0     C82028   8.615   9.518   5.339 -0.3995  0.4200 -1.0471
  622MOL0     C82029   8.707   9.411   5.298 -0.6297 -0.5254 -0.1669
  622MOL0     O82030   8.837   9.415   5.261  1.0911 -0.1356  0.6868
  622MOL0     C82031   8.880   9.536   5.196 -0.4588 -0.3203  0.5922
  622MOL0     C82032   9.018   9.577   5.246  0.2739  0.4650 -0.7460
  622MOL0     C82033   9.118   9.483   5.174 -0.9417 -0.2532  0.2445
  622MOL0     C82034   9.276   9.507   5.195 -0.4381 -0.5471 -0.2870
  622MOL0     C82035   9.304   9.651   5.199 -0.7116  0.4764 -0.6901
  622MOL0     C82036   9.314   9.776   5.214  0.0815  1.1434  0.5424
  622MOL0     C82037   8.658   9.275   5.322 -1.0813 -0.5029 -0.0817
  622MOL0     C82038   8.537   9.250   5.374  0.5904 -0.8736 -0.4349
  622MOL0     H82039   8.101   9.124   5.222 -0.3652  3.9593 -2.8864
  622MOL0     H82040   7.869   9.091   5.236 -0.2064  2.5635 -0.1842
  622MOL0     H82041   7.739   8.940   5.557  0.8380 -1.3714 -1.3498
  622MOL0     H82042   7.653   8.916   5.400 -0.8418 -1.2514  1.3135
  622MOL0     H82043   7.504   8.904   5.611  4.3216 -0.4318  3.1844
  622MOL0     H82044   7.451   9.024   5.500 -0.3853  1.3814 -0.0964
  622MOL0     H82045   7.583   9.193   5.636 -0.6739 -0.9168 -1.7617
  622MOL0     H82046   7.632   9.065   5.747  1.1546  3.4869  0.4624
  622MOL0     H82047   7.388   9.013   5.771  0.3819  1.7275 -0.5771
  622MOL0     H82048   7.435   9.148   5.863 -4.0193 -0.2349  1.1574
  622MOL0     H82049   7.300   9.141   5.591 -1.6419 -5.5967  2.8370
  622MOL0     H82050   7.364   9.296   5.655 -0.7486  0.1764 -0.1457
  622MOL0     H82051   7.198   9.231   5.859 -1.6405  2.8015 -0.4356
  622MOL0     H82052   7.149   9.103   5.745 -2.2696  0.6178 -2.8938
  622MOL0     H82053   7.144   9.405   5.710 -2.8301  1.4823  3.0638
  622MOL0     H82054   7.078   9.292   5.583 -0.4395  0.9069  0.0678
  622MOL0     H82055   6.992   9.352   5.861  1.6853  0.1866 -0.7532
  622MOL0     H82056   6.920   9.215   5.766 -1.2910 -0.0405 -0.5818
  622MOL0     H82057   6.684   9.323   5.752 -1.0576  0.7848  2.3490
  622MOL0     H82058   6.482   9.462   5.708  0.2011  1.8458  4.3143
  622MOL0     H82059   6.502   9.529   5.545 -2.5724  0.1718  0.6967
  622MOL0     H82060   6.550   9.730   5.604  0.0832  0.4492  0.9570
  622MOL0     H82061   6.567   9.703   5.779 -0.7645 -0.0706  1.5027
  622MOL0     H82062   6.344   9.810   5.707 -0.7346  0.2259 -0.1370
  622MOL0     H82063   6.297   9.659   5.612  0.2784  0.8748 -0.1724
  622MOL0     H82064   6.376   9.571   5.851  2.7862 -0.8301 -3.4721
  622MOL0     H82065   6.210   9.587   5.818  0.3865 -0.4519  2.1085
  622MOL0     H82066   6.070   9.778   5.778 -0.9617  2.5165 -0.8804
  622MOL0     H82067   5.887   9.931   5.827 -0.6794  1.7388  0.5472
  622MOL0     H82068   5.554  10.076   6.031 -0.0010  1.5256 -1.5895
  622MOL0     H82069   5.343  10.158   6.103  0.7647  0.9407 -0.1509
  622MOL0     H82070   5.127  10.376   6.340  0.2181 -0.8534  0.7067
  622MOL0     H82071   5.179  10.320   6.174  0.0498  1.5236 -1.0251
  622MOL0     H82072   5.190  10.567   6.207  0.9118  0.0272 -1.7601
  622MOL0     H82073   5.341  10.496   6.167 -1.0945 -1.1976 -0.0907
  622MOL0     H82074   5.426  10.529   6.408  0.6792  2.9275  0.3436
  622MOL0     H82075   5.259  10.549   6.471  1.0849 -2.0462  1.0993
  622MOL0     H82076   5.403  10.737   6.280 -0.7396  3.1304 -0.1873
  622MOL0     H82077   5.260  10.770   6.379  0.6854  0.0812  2.4150
  622MOL0     H82078   5.531  10.689   6.491  1.3767  0.4576  1.1788
  622MOL0     H82079   5.385  10.718   6.579 -2.0389 -0.5864 -1.2347
  622MOL0     H82080   5.372  10.960   6.488 -1.4744 -1.4573  0.4598
  622MOL0     H82081   5.528  10.932   6.403 -0.3697 -1.6332 -0.9537
  622MOL0     H82082   5.507  10.922   6.694 -2.1391  1.0544 -0.8413
  622MOL0     H82083   5.655  10.914   6.594  1.1153 -1.8876  5.4538
  622MOL0     H82084   5.637  11.147   6.651  0.6079 -0.5307 -0.0619
  622MOL0     H82085   5.460  11.143   6.621  0.4937  0.9988  1.6555
  622MOL0     H82086   5.508  10.296   6.473 -2.2844  1.0398 -0.8240
  622MOL0     H82087   5.724  10.194   6.415  1.3973 -1.4077 -2.2368
  622MOL0     H82088   6.059  10.020   6.209  3.2924  0.9184 -0.9037
  622MOL0     H82089   6.246   9.884   6.152  0.3032  0.7271  0.1361
  622MOL0     H82090   7.856   9.139   5.654  1.0407  0.5074  1.2668
  622MOL0     H82091   8.102   9.199   5.652 -0.5326  0.4101  0.1207
  622MOL0     H82092   8.400   9.551   5.408 -2.9516 -2.6136  1.3128
  622MOL0     H82093   8.638   9.624   5.334  3.5009 -0.3237 -1.7746
  622MOL0     H82094   8.818   9.624   5.213 -0.7312  0.0717 -1.9807
  622MOL0     H82095   8.871   9.527   5.087  0.2673  2.1581  0.2596
  622MOL0     H82096   9.040   9.681   5.221 -0.2945  0.9468  0.6372
  622MOL0     H82097   9.021   9.577   5.355 -1.3018 -1.2636 -0.6501
  622MOL0     H82098   9.114   9.489   5.065  1.4212 -1.0497  0.0499
  622MOL0     H82099   9.095   9.378   5.190  0.4612 -0.2053  3.4045
  622MOL0     H82100   9.308   9.476   5.295  0.2831  2.5420  0.5479
  622MOL0     H82101   9.328   9.459   5.111 -0.7441 -1.3356 -0.0296
  622MOL0     H82102   9.320   9.881   5.234 -2.1856  1.9030 -2.0686
  622MOL0     H82103   8.729   9.195   5.302  0.8757  0.6246  1.8446
  622MOL0     H82104   8.500   9.151   5.395 -2.4948  0.1131 -0.8328
  623MOL0     O82105   9.087   2.029   0.487  0.1550 -0.9883  1.3043
  623MOL0     C82106   9.158   2.016   0.581  0.1730  0.9033  0.5590
  623MOL0     O82107   9.155   2.091   0.699  0.6411 -0.6072  0.1434
  623MOL0     C82108   9.060   2.186   0.717  0.6051  0.0919  0.3671
  623MOL0     C82109   8.918   2.175   0.675  0.2027 -0.0113 -0.3686
  623MOL0     C82110   8.819   2.275   0.705  0.0161 -0.4411 -0.8393
  623MOL0     C82111   8.850   2.375   0.792  0.5785  0.6666 -1.3033
  623MOL0     O82112   8.770   2.474   0.832 -0.1215 -0.1584 -0.7076
  623MOL0     C82113   8.674   2.530   0.739 -0.1161 -0.7345 -1.0844
  623MOL0     C82114   8.526   2.471   0.778 -0.8557 -0.1771  0.3074
  623MOL0     C82115   8.420   2.560   0.709  0.3129 -0.2545  0.5289
  623MOL0     C82116   8.279   2.527   0.758 -0.1408  0.9162 -0.9178
  623MOL0     C82117   8.180   2.638   0.701 -0.4456  0.0450 -0.1294
  623MOL0     C82118   8.211   2.679   0.550 -0.1075 -0.4888  0.4940
  623MOL0     C82119   8.086   2.761   0.500  0.0203  0.2392  0.0698
  623MOL0     C82120   8.084   2.909   0.558 -0.1156  0.0139 -0.1090
  623MOL0     N82121   7.942   2.948   0.580  0.6746 -0.0051  0.2273
  623MOL0     C82122   7.856   2.996   0.486 -0.0203  0.0301 -0.7790
  623MOL0     C82123   7.749   3.030   0.561  0.0353  0.4294  0.3072
  623MOL0     C82124   7.628   3.092   0.507  0.2557  0.1902  0.8093
  623MOL0     C82125   7.506   2.988   0.526 -0.6032  0.2520  0.3749
  623MOL0     C82126   7.526   2.856   0.471 -0.3743 -0.0907  0.2566
  623MOL0     C82127   7.506   2.862   0.323 -0.1267 -0.3714  0.0954
  623MOL0     O82128   7.366   2.883   0.300 -1.5930 -0.6744 -0.1799
  623MOL0     C82129   7.304   2.840   0.181 -0.0318 -0.2361  0.3552
  623MOL0     C82130   7.167   2.833   0.184  1.0458 -0.4085  0.0572
  623MOL0     C82131   7.096   2.788   0.070 -0.4722 -0.3995  0.5442
  623MOL0     C82132   7.173   2.754  -0.053  0.9258  0.2680  0.4464
  623MOL0     C82133   7.104   2.714  -0.190 -0.1907 -0.0617  0.2479
  623MOL0     O82134   6.971   2.668  -0.178  0.3303  0.3249 -0.3246
  623MOL0     C82135   6.882   2.657  -0.281 -0.7829 -0.1115 -0.0863
  623MOL0     C82136   6.750   2.649  -0.243 -0.2819  0.0050  0.2759
  623MOL0     C82137   6.650   2.652  -0.343  0.4917  0.5422 -0.4494
  623MOL0     C82138   6.676   2.632  -0.476 -0.5491  0.0732 -0.6986
  623MOL0     O82139   6.587   2.611  -0.572 -0.4230  0.5293  0.4901
  623MOL0     C82140   6.451   2.636  -0.536 -0.3802 -0.2094  0.2337
  623MOL0     C82141   6.359   2.625  -0.666  0.4025  0.4541  0.1433
  623MOL0     C82142   6.204   2.626  -0.650  0.0551  0.6151  0.9347
  623MOL0     C82143   6.157   2.668  -0.507 -0.1227 -0.2759  0.1550
  623MOL0     C82144   6.007   2.711  -0.493  0.3513 -0.0687 -0.6759
  623MOL0     C82145   5.910   2.604  -0.553  0.0213 -0.8830  0.1904
  623MOL0     C82146   5.765   2.652  -0.524 -0.8138 -0.3247  0.0208
  623MOL0     C82147   5.723   2.773  -0.604 -0.5357  0.1947 -0.2850
  623MOL0    Cl82148   5.555   2.820  -0.565  0.3611  0.4495  0.0716
  623MOL0     C82149   6.810   2.622  -0.505 -1.2424 -0.2284 -0.0315
  623MOL0     C82150   6.917   2.635  -0.415  0.6763  0.2198  0.2146
  623MOL0     O82151   7.154   2.742  -0.299  0.1259  0.0112 -0.9243
  623MOL0     C82152   7.309   2.762  -0.046 -0.3553 -0.0368  0.9449
  623MOL0     C82153   7.375   2.805   0.066 -0.4278  0.0484 -0.6587
  623MOL0     N82154   7.768   2.987   0.694 -0.3414 -0.7319 -0.5906
  623MOL0     N82155   7.893   2.943   0.707  0.0368 -1.2972 -0.5665
  623MOL0     C82156   8.985   2.385   0.823 -0.3803  0.5170  0.2833
  623MOL0     C82157   9.087   2.297   0.790 -0.5370 -0.1556 -1.1617
  623MOL0     C82158   9.260   1.902   0.575 -0.3431 -0.6769  0.3144
  623MOL0     C82159   9.357   1.882   0.675 -0.3418 -0.6734  0.3228
  623MOL0     C82160   9.454   1.787   0.669 -0.2827  0.0198 -0.3947
  623MOL0     C82161   9.452   1.693   0.569  0.8879  0.0750  0.4654
  623MOL0     O82162   9.533   1.581   0.554 -0.3956  0.4219 -0.6069
  623MOL0     C82163   9.609   1.532   0.668  0.0645 -0.0414  0.0638
  623MOL0     C82164   9.604   1.377   0.656 -0.5630  0.0770  0.4383
  623MOL0     C82165   9.465   1.314   0.640  0.0752 -0.8004  0.8009
  623MOL0     C82166   9.366   1.360   0.756  0.5205 -0.7678  1.2170
  623MOL0     C82167   9.424   1.328   0.885 -0.3392  0.3009  0.6682
  623MOL0     C82168   9.467   1.293   0.993 -0.7510 -0.0272 -0.1012
  623MOL0     C82169   9.360   1.708   0.471 -0.5535  0.1576  0.9671
  623MOL0     C82170   9.255   1.807   0.475 -0.8934 -0.1558  0.0771
  623MOL0     H82171   8.883   2.092   0.614  2.3588  0.0235 -1.7450
  623MOL0     H82172   8.724   2.255   0.658 -0.0901 -0.6299 -0.5500
  623MOL0     H82173   8.702   2.510   0.635  2.1586  1.4719 -0.9658
  623MOL0     H82174   8.662   2.637   0.756 -1.3121 -0.7751 -1.6043
  623MOL0     H82175   8.517   2.482   0.886 -0.3347 -1.2714  0.4774
  623MOL0     H82176   8.511   2.374   0.729 -0.0249  1.7397 -4.2539
  623MOL0     H82177   8.431   2.549   0.601  2.0345  1.7979  0.4069
  623MOL0     H82178   8.440   2.668   0.718  1.0463 -0.2129 -1.1756
  623MOL0     H82179   8.236   2.432   0.726 -1.0012  0.7669  0.5709
  623MOL0     H82180   8.284   2.525   0.867 -1.1895  2.1534 -0.8196
  623MOL0     H82181   8.186   2.728   0.763  2.9787  2.2338 -3.2449
  623MOL0     H82182   8.078   2.598   0.701  0.1566 -1.6989 -2.0590
  623MOL0     H82183   8.235   2.586   0.497  2.1680  0.1675  0.2709
  623MOL0     H82184   8.290   2.755   0.551  0.0125 -0.6043  2.2955
  623MOL0     H82185   8.082   2.768   0.391 -1.1454 -1.7688 -0.0613
  623MOL0     H82186   8.000   2.704   0.536  0.0741 -0.3563 -0.7212
  623MOL0     H82187   8.147   2.981   0.505  0.9633 -0.8581 -0.0344
  623MOL0     H82188   8.112   2.906   0.664 -0.8069 -2.1387  0.0555
  623MOL0     H82189   7.862   3.010   0.379 -3.3671 -1.8596 -1.3552
  623MOL0     H82190   7.654   3.119   0.404  2.9162  0.9050  1.5922
  623MOL0     H82191   7.615   3.189   0.556  2.5353  1.7050 -1.3287
  623MOL0     H82192   7.423   3.043   0.481 -0.1669  1.0035  0.4729
  623MOL0     H82193   7.485   2.970   0.632 -0.2218  1.5210  0.6825
  623MOL0     H82194   7.622   2.821   0.509 -0.5672  0.2141  1.0288
  623MOL0     H82195   7.464   2.781   0.521 -0.2151 -1.2151 -1.1548
  623MOL0     H82196   7.533   2.766   0.279 -2.4692 -2.2922  2.5311
  623MOL0     H82197   7.557   2.944   0.271 -4.3078  1.6860 -1.1894
  623MOL0     H82198   7.122   2.847   0.281  0.9357  0.1608 -0.0695
  623MOL0     H82199   6.989   2.774   0.066 -0.3356 -1.2201 -1.1644
  623MOL0     H82200   6.720   2.646  -0.139  1.9237  3.4736  1.1888
  623MOL0     H82201   6.547   2.662  -0.311 -0.6092 -1.8518 -2.8037
  623MOL0     H82202   6.455   2.742  -0.510  1.9274 -0.4170  0.9678
  623MOL0     H82203   6.416   2.568  -0.457 -1.2948 -1.2604 -1.0336
  623MOL0     H82204   6.385   2.530  -0.713  1.4061  1.2265 -0.9212
  623MOL0     H82205   6.380   2.707  -0.736  2.7862  2.5637  3.0752
  623MOL0     H82206   6.166   2.526  -0.667  0.7117 -0.3492  4.3334
  623MOL0     H82207   6.162   2.681  -0.735 -1.4501 -0.8977  0.6549
  623MOL0     H82208   6.175   2.578  -0.448 -2.3232 -0.0769  1.2113
  623MOL0     H82209   6.218   2.747  -0.462 -1.5690 -1.0446  3.8297
  623MOL0     H82210   5.997   2.807  -0.545  0.5547  1.3913  1.8335
  623MOL0     H82211   5.977   2.722  -0.388 -2.2446 -2.1769 -1.0867
  623MOL0     H82212   5.929   2.514  -0.495 -0.3450 -1.4978 -0.6280
  623MOL0     H82213   5.926   2.580  -0.658 -0.9686  0.1654 -0.2167
  623MOL0     H82214   5.707   2.565  -0.556  1.5450 -2.3880  1.0568
  623MOL0     H82215   5.743   2.671  -0.419 -2.0775  0.5249 -0.3717
  623MOL0     H82216   5.739   2.748  -0.710 -0.2104 -1.4986  0.1359
  623MOL0     H82217   5.781   2.858  -0.568 -1.2111 -0.6072  3.0505
  623MOL0     H82218   6.846   2.595  -0.604  0.1598  3.1644 -0.6099
  623MOL0     H82219   7.020   2.622  -0.446 -0.5134 -1.8416 -3.5515
  623MOL0     H82220   7.371   2.732  -0.131 -0.0393 -2.4814  1.9605
  623MOL0     H82221   7.483   2.818   0.065 -0.1463 -1.9353 -0.4513
  623MOL0     H82222   9.000   2.471   0.887  0.7316  1.9694 -1.8182
  623MOL0     H82223   9.186   2.302   0.833 -0.2965 -1.1330 -1.5705
  623MOL0     H82224   9.367   1.952   0.758 -0.9176  1.5715 -1.4245
  623MOL0     H82225   9.517   1.774   0.757  1.1675  0.0132 -1.3820
  623MOL0     H82226   9.572   1.550   0.769 -1.9462 -0.0708 -0.6399
  623MOL0     H82227   9.712   1.566   0.652 -0.1066  0.8863  0.8697
  623MOL0     H82228   9.676   1.350   0.578 -1.8227 -1.3680 -0.2609
  623MOL0     H82229   9.641   1.340   0.752  0.4386  0.0201  0.0382
  623MOL0     H82230   9.475   1.205   0.644  3.5084 -0.5817  1.7836
  623MOL0     H82231   9.427   1.340   0.541  0.8713  1.8600  1.1357
  623MOL0     H82232   9.336   1.465   0.760 -3.9353 -1.8589  1.2347
  623MOL0     H82233   9.274   1.305   0.735 -1.3450  1.4848  2.9425
  623MOL0     H82234   9.513   1.263   1.085  2.0607  0.3109 -1.2786
  623MOL0     H82235   9.361   1.646   0.382 -0.0609 -1.7530  2.2490
  623MOL0     H82236   9.181   1.813   0.396  2.5635 -1.2614 -3.5862
  624MOL0     O82237   8.759   4.221  10.299 -0.1948  0.0270  0.2369
  624MOL0     C82238   8.823   4.292  10.225 -0.7302  0.8051 -0.6376
  624MOL0     O82239   8.776   4.403  10.162  0.1705  0.2386 -0.1594
  624MOL0     C82240   8.640   4.414  10.146  0.2671  0.4736 -0.1801
  624MOL0     C82241   8.591   4.541  10.139  0.3727 -0.6757 -0.3565
  624MOL0     C82242   8.456   4.573  10.127 -0.9916 -0.3899 -0.2881
  624MOL0     C82243   8.368   4.473  10.117  0.7876  0.6000  0.3881
  624MOL0     O82244   8.231   4.507  10.110  0.8686  0.7437 -0.5215
  624MOL0     C82245   8.124   4.404  10.125 -0.1604 -0.1877  0.5015
  624MOL0     C82246   7.981   4.460  10.148  0.2010 -0.0381 -0.3450
  624MOL0     C82247   7.975   4.531  10.283  0.2691 -0.6974 -0.1050
  624MOL0     C82248   7.832   4.556  10.340 -0.3689 -0.0115  0.3844
  624MOL0     C82249   7.736   4.639  10.253  0.1921  0.2871  0.2284
  624MOL0     C82250   7.597   4.610  10.285  0.4586 -0.2751  0.0979
  624MOL0     C82251   7.547   4.468  10.265  1.0612  0.2868 -0.4956
  624MOL0     C82252   7.395   4.453  10.295 -0.0375 -0.4389  0.1448
  624MOL0     N82253   7.372   4.304  10.290  0.0124 -0.9525 -0.4889
  624MOL0     C82254   7.296   4.245  10.193  0.4207  0.6163  0.1080
  624MOL0     C82255   7.324   4.113  10.211  0.7761 -0.4938  0.0223
  624MOL0     C82256   7.252   4.013  10.131 -0.1473  0.3778 -0.3966
  624MOL0     C82257   7.135   3.952  10.216  0.3466 -0.6246  0.0154
  624MOL0     C82258   7.017   4.047  10.243  0.1682  0.3104  0.1208
  624MOL0     C82259   6.918   4.064  10.135 -0.3212  0.6598  0.2650
  624MOL0     O82260   6.825   4.172  10.169 -0.2036  0.5027 -0.1707
  624MOL0     C82261   6.702   4.128  10.165 -0.0343  0.2642  0.0891
  624MOL0     C82262   6.615   4.139  10.058  0.3469 -0.2523  0.4525
  624MOL0     C82263   6.484   4.088  10.060  0.7303  0.2903  0.1236
  624MOL0     C82264   6.436   4.026  10.172 -0.0687  1.5204 -0.4453
  624MOL0     C82265   6.303   3.966  10.161 -0.2621  0.4897 -0.4383
  624MOL0     O82266   6.267   3.889  10.040  0.7999 -0.3905 -0.5235
  624MOL0     C82267   6.129   3.869  10.037  0.1319 -0.5839  0.5803
  624MOL0     C82268   6.042   3.979  10.064 -0.5732 -0.7026 -0.5217
  624MOL0     C82269   5.905   3.962  10.048 -0.7913 -0.0914  0.6828
  624MOL0     C82270   5.845   3.846   9.991  0.1084  0.3520 -0.8023
  624MOL0     O82271   5.709   3.836   9.961  0.6113 -0.4970  0.2826
  624MOL0     C82272   5.628   3.868  10.072 -0.2192 -0.5336  0.5571
  624MOL0     C82273   5.490   3.900  10.004 -0.4822  0.4804 -0.2437
  624MOL0     C82274   5.380   3.889  10.102  0.7350 -0.0524  0.0619
  624MOL0     C82275   5.242   3.880  10.021 -0.5419  0.0497  0.5991
  624MOL0     C82276   5.216   3.731   9.996 -0.4947 -0.0558 -0.2454
  624MOL0     C82277   5.076   3.717   9.943 -0.2452  0.4962 -0.3662
  624MOL0     C82278   5.019   3.582   9.934  0.0039 -0.3092 -0.3437
  624MOL0     C82279   4.868   3.584   9.895  0.5268 -0.1305 -0.8060
  624MOL0    Cl82280   4.822   3.666   9.738 -0.1202 -0.5553 -0.8289
  624MOL0     C82281   5.932   3.738   9.972  0.5216 -0.4452 -0.3805
  624MOL0     C82282   6.071   3.751   9.997  0.3984 -0.8200  1.4410
  624MOL0     O82283   6.238   3.965  10.266 -0.5242 -0.4064 -0.2686
  624MOL0     C82284   6.518   4.017  10.284  0.4346  0.6075  0.4859
  624MOL0     C82285   6.644   4.075  10.277 -1.0055  0.0997 -0.4555
  624MOL0     N82286   7.409   4.098  10.317 -1.2818  1.2809 -0.6163
  624MOL0     N82287   7.440   4.210  10.369 -0.2245 -0.4909  0.0068
  624MOL0     C82288   8.415   4.342  10.108  0.1262  1.3501  0.3305
  624MOL0     C82289   8.548   4.314  10.125  0.4779 -0.1745  0.5672
  624MOL0     C82290   8.971   4.275  10.243  0.8317  0.4363  0.2886
  624MOL0     C82291   9.035   4.152  10.280 -0.1842 -0.7885 -0.2504
  624MOL0     C82292   9.172   4.151  10.299  0.5484 -0.4854 -0.7132
  624MOL0     C82293   9.256   4.262  10.278  0.8616  0.0508 -0.0423
  624MOL0     O82294   9.394   4.254  10.279 -0.5145 -0.3471  0.0177
  624MOL0     C82295   9.454   4.143  10.346  0.3644  0.0491 -0.1312
  624MOL0     C82296   9.510   4.043  10.258  0.1798 -0.4588 -0.3101
  624MOL0     C82297   9.544   3.912  10.342 -0.2090  0.3639  0.9315
  624MOL0     C82298   9.602   3.797  10.252 -0.7393  0.6188 -0.7782
  624MOL0     C82299   9.508   3.710  10.181  0.6627  0.8538  0.0181
  624MOL0     C82300   9.435   3.649  10.107 -0.2719 -0.0371 -0.0497
  624MOL0     C82301   9.190   4.378  10.234 -0.3616  0.2724  0.5110
  624MOL0     C82302   9.046   4.391  10.231 -1.3563 -0.2845  0.5209
  624MOL0     H82303   8.665   4.618  10.157 -0.9065  0.2793  1.1786
  624MOL0     H82304   8.425   4.677  10.138  2.8907  0.7337  1.8596
  624MOL0     H82305   8.146   4.332  10.205 -2.1054 -0.9604  0.4017
  624MOL0     H82306   8.115   4.342  10.036  0.0260 -1.5954  1.4184
  624MOL0     H82307   7.909   4.377  10.144 -0.3680  0.4763 -0.9012
  624MOL0     H82308   7.959   4.527  10.065 -1.4768 -1.5667 -1.2167
  624MOL0     H82309   8.032   4.624  10.273 -1.3956  0.6300  1.8221
  624MOL0     H82310   8.020   4.467  10.359 -0.1408 -3.2145 -1.8700
  624MOL0     H82311   7.793   4.456  10.362  0.4647  0.0183  2.2417
  624MOL0     H82312   7.834   4.609  10.436 -1.6575 -0.6707  0.8053
  624MOL0     H82313   7.747   4.611  10.148  2.3661 -1.4224  0.8406
  624MOL0     H82314   7.753   4.746  10.267  1.4030  0.0388  0.7124
  624MOL0     H82315   7.556   4.671  10.204  1.4071  0.1867 -0.0401
  624MOL0     H82316   7.570   4.634  10.388 -1.4880 -0.8938 -0.2253
  624MOL0     H82317   7.562   4.442  10.160 -1.5050  2.1638 -1.4262
  624MOL0     H82318   7.596   4.399  10.335  1.0033 -0.3988 -1.1232
  624MOL0     H82319   7.327   4.506  10.228  1.7315 -1.0055 -2.2061
  624MOL0     H82320   7.371   4.496  10.393 -2.0672  2.2951 -1.4027
  624MOL0     H82321   7.227   4.289  10.121 -2.1838 -4.0261 -0.6488
  624MOL0     H82322   7.317   3.928  10.109 -0.7310 -1.1159  2.9512
  624MOL0     H82323   7.209   4.061  10.043 -0.2047  0.3507 -0.3843
  624MOL0     H82324   7.174   3.905  10.307  0.9889 -1.3293 -0.6077
  624MOL0     H82325   7.084   3.870  10.164 -2.0971  1.0959 -0.4492
  624MOL0     H82326   6.955   3.998  10.319  2.1456 -3.8154 -0.6657
  624MOL0     H82327   7.046   4.145  10.283 -0.2225  1.3013 -1.9078
  624MOL0     H82328   6.862   3.970  10.136  0.0969  0.4115  1.2770
  624MOL0     H82329   6.974   4.090  10.044  0.4975 -2.7313 -0.3099
  624MOL0     H82330   6.660   4.189   9.973  5.4377  0.3295  3.1046
  624MOL0     H82331   6.419   4.092   9.973 -1.6489 -1.8292  1.6723
  624MOL0     H82332   6.088   4.074  10.090  2.5700 -2.4455  0.8911
  624MOL0     H82333   5.842   4.044  10.082 -4.1631 -2.4584  0.6200
  624MOL0     H82334   5.660   3.962  10.119 -1.0046  0.3853 -0.6840
  624MOL0     H82335   5.638   3.782  10.138  1.8464  0.3119  1.4583
  624MOL0     H82336   5.466   3.828   9.926 -0.3663  0.5532 -0.3467
  624MOL0     H82337   5.494   3.997   9.953  1.3215 -0.4530 -1.9999
  624MOL0     H82338   5.382   3.987  10.152 -0.9643  1.4947 -2.6447
  624MOL0     H82339   5.392   3.816  10.183  2.0140  1.7612  1.6289
  624MOL0     H82340   5.161   3.923  10.081 -1.5575 -1.9351  0.7454
  624MOL0     H82341   5.244   3.948   9.935 -3.1741  2.6428  2.3778
  624MOL0     H82342   5.238   3.675  10.088  1.5099 -2.5384 -2.0721
  624MOL0     H82343   5.280   3.687   9.919 -1.8839 -1.8498 -0.4569
  624MOL0     H82344   5.082   3.754   9.840 -1.9757  3.4098  0.4578
  624MOL0     H82345   5.004   3.777   9.999 -0.4790 -0.9666  0.9710
  624MOL0     H82346   5.083   3.528   9.863 -0.1504 -1.5811  0.4615
  624MOL0     H82347   5.019   3.534  10.032 -1.4586 -0.9702 -0.6410
  624MOL0     H82348   4.812   3.631   9.976 -0.4736 -0.9994 -0.9786
  624MOL0     H82349   4.832   3.481   9.905 -1.2844  0.6287  1.0832
  624MOL0     H82350   5.887   3.650   9.927 -0.5983 -0.0305 -0.0910
  624MOL0     H82351   6.134   3.668   9.967  0.0034 -0.7293  0.2918
  624MOL0     H82352   6.473   3.987  10.378 -1.6132  0.6868 -0.4040
  624MOL0     H82353   6.702   4.084  10.368  0.2856  1.2443 -1.3502
  624MOL0     H82354   8.341   4.265  10.091 -0.2635  1.6457  0.6953
  624MOL0     H82355   8.577   4.210  10.132 -1.4446 -0.8346 -0.5057
  624MOL0     H82356   8.978   4.062  10.301 -2.9247  1.2848  2.0554
  624MOL0     H82357   9.219   4.055  10.318  0.6678 -0.3462 -0.2901
  624MOL0     H82358   9.388   4.088  10.414 -0.0996  0.3860 -0.2988
  624MOL0     H82359   9.523   4.193  10.414 -1.0910  1.1298  0.6072
  624MOL0     H82360   9.442   4.014  10.177  2.2750  0.7595 -2.6443
  624MOL0     H82361   9.606   4.083  10.224  0.3273  0.3586  0.9625
  624MOL0     H82362   9.458   3.873  10.397 -1.4861  1.3222 -0.3018
  624MOL0     H82363   9.623   3.950  10.407  0.7680  2.8951 -1.5515
  624MOL0     H82364   9.661   3.858  10.184  1.2603  0.1304  0.4502
  624MOL0     H82365   9.679   3.741  10.306 -1.1230  0.5014 -0.3366
  624MOL0     H82366   9.364   3.600  10.043 -1.3374  1.1169  0.1977
  624MOL0     H82367   9.263   4.457  10.223  0.8776 -0.8250  0.5549
  624MOL0     H82368   9.008   4.490  10.208 -1.0429 -0.4774 -0.9475
  625MOL0     O82369   6.882   5.690   6.718 -0.3798 -0.6067 -0.5350
  625MOL0     C82370   6.836   5.578   6.748  0.4819  0.2560  0.7724
  625MOL0     O82371   6.738   5.556   6.846 -0.8084 -0.8605 -0.4557
  625MOL0     C82372   6.672   5.656   6.923 -0.1967  0.4336  0.6997
  625MOL0     C82373   6.594   5.620   7.026  0.3244  0.6416 -0.8787
  625MOL0     C82374   6.531   5.698   7.114  0.1075 -0.0163 -0.0377
  625MOL0     C82375   6.535   5.838   7.087 -0.1927  0.2887 -0.0542
  625MOL0     O82376   6.463   5.921   7.161 -0.1538  0.2171 -0.1038
  625MOL0     C82377   6.528   5.987   7.279  0.5397  0.2211 -0.3053
  625MOL0     C82378   6.465   6.119   7.334  0.3173 -0.4114 -0.3056
  625MOL0     C82379   6.337   6.088   7.410  0.3517 -0.0802 -0.1824
  625MOL0     C82380   6.277   6.215   7.467 -0.1377  0.5343 -0.2406
  625MOL0     C82381   6.158   6.169   7.544 -0.2487 -0.2918  0.4653
  625MOL0     C82382   6.102   6.295   7.615  1.5695  0.5064  0.0546
  625MOL0     C82383   5.977   6.267   7.697  0.8954 -0.2070  0.6928
  625MOL0     C82384   5.986   6.238   7.844 -0.1168 -0.3199  0.5345
  625MOL0     N82385   6.000   6.101   7.887  1.2127  0.9765  0.3195
  625MOL0     C82386   6.040   6.055   8.015 -0.2685  0.6261 -0.0223
  625MOL0     C82387   6.061   5.924   8.002  0.9334 -0.2981 -0.2827
  625MOL0     C82388   6.077   5.815   8.103 -0.6859 -0.3449  0.1729
  625MOL0     C82389   6.221   5.763   8.112 -0.4683  0.5316 -0.1417
  625MOL0     C82390   6.266   5.689   8.233 -0.7379  0.8865  0.0635
  625MOL0     C82391   6.410   5.644   8.202  0.0199  0.1854  0.1957
  625MOL0     O82392   6.410   5.544   8.099 -0.4314 -1.0551 -0.3970
  625MOL0     C82393   6.528   5.493   8.060  0.8568  0.7377  0.0925
  625MOL0     C82394   6.651   5.511   8.118 -0.3821  0.1597  0.2913
  625MOL0     C82395   6.765   5.431   8.073 -0.3609  0.1831  0.2841
  625MOL0     C82396   6.750   5.350   7.968 -0.3774  0.7973  0.4336
  625MOL0     C82397   6.857   5.263   7.910 -0.4050 -1.0458  0.0578
  625MOL0     O82398   6.955   5.251   7.999 -0.1720 -0.1610 -0.3790
  625MOL0     C82399   7.075   5.200   7.964 -0.6389 -0.1868  0.3515
  625MOL0     C82400   7.187   5.282   7.940  0.1910 -0.6691 -0.6982
  625MOL0     C82401   7.309   5.229   7.899  0.0620 -0.2193  0.1868
  625MOL0     C82402   7.325   5.094   7.886 -0.0089  0.2665  1.8085
  625MOL0     O82403   7.456   5.049   7.853  0.2606 -0.4581  0.1500
  625MOL0     C82404   7.508   5.090   7.733 -0.5965 -1.0230  0.3159
  625MOL0     C82405   7.651   5.160   7.763 -0.1492 -1.1368  0.0382
  625MOL0     C82406   7.769   5.062   7.767 -0.9575 -0.3384  0.7643
  625MOL0     C82407   7.768   4.980   7.901 -0.0101  0.2647  0.5100
  625MOL0     C82408   7.888   4.884   7.903 -0.3883  0.4658 -0.8599
  625MOL0     C82409   8.021   4.951   7.937  0.1592 -0.6937 -0.7213
  625MOL0     C82410   8.021   5.002   8.091 -0.6012 -0.1053 -0.2601
  625MOL0     C82411   8.172   5.018   8.138  1.1669 -0.4161 -0.0959
  625MOL0    Cl82412   8.235   5.165   8.060  0.2216  0.5300 -0.4086
  625MOL0     C82413   7.215   5.016   7.908 -0.1585  0.2020  0.0263
  625MOL0     C82414   7.085   5.072   7.939  0.1453 -0.5206 -0.5514
  625MOL0     O82415   6.856   5.218   7.795  0.8496  0.4098  0.1877
  625MOL0     C82416   6.626   5.339   7.906 -0.0899  0.1401  0.5436
  625MOL0     C82417   6.518   5.412   7.951 -0.9711 -0.9996  1.3962
  625MOL0     N82418   6.046   5.893   7.873 -0.2749  0.9475  0.4276
  625MOL0     N82419   6.001   5.990   7.805 -0.5540 -0.4820 -0.7910
  625MOL0     C82420   6.612   5.887   6.985  0.2128  0.6892  0.0298
  625MOL0     C82421   6.684   5.797   6.904 -0.3675 -0.2134 -0.4034
  625MOL0     C82422   6.886   5.457   6.674 -0.4051 -0.2050  0.5010
  625MOL0     C82423   6.976   5.463   6.573 -0.2472  0.1965  0.1882
  625MOL0     C82424   7.039   5.351   6.520 -0.4931  0.0786 -0.0342
  625MOL0     C82425   6.996   5.221   6.551 -0.1160  0.3989 -0.3541
  625MOL0     O82426   7.036   5.103   6.496 -0.0959 -0.2522  1.0361
  625MOL0     C82427   7.149   5.111   6.406  0.2021  0.0867  0.3031
  625MOL0     C82428   7.183   4.967   6.376  0.6027  0.8030 -0.6477
  625MOL0     C82429   7.233   4.876   6.495 -0.7546  0.6122 -0.5161
  625MOL0     C82430   7.260   4.733   6.439  0.0367 -0.3290 -0.0731
  625MOL0     C82431   7.299   4.630   6.537  0.3316  0.7142 -0.6060
  625MOL0     C82432   7.326   4.519   6.589  0.3845  0.2901  1.0867
  625MOL0     C82433   6.885   5.214   6.627 -0.1985 -0.0090 -0.9128
  625MOL0     C82434   6.836   5.329   6.700 -0.1314  0.2338  0.3289
  625MOL0     H82435   6.597   5.514   7.052 -4.0682  0.1945 -1.5196
  625MOL0     H82436   6.468   5.657   7.192 -0.4929  0.0755 -0.4670
  625MOL0     H82437   6.634   6.011   7.265  0.6836  1.7368  2.5954
  625MOL0     H82438   6.529   5.923   7.368  2.2807  0.9254  0.2237
  625MOL0     H82439   6.441   6.181   7.247 -0.9089  0.3963  0.5804
  625MOL0     H82440   6.535   6.177   7.394  0.1798 -0.5543 -0.0066
  625MOL0     H82441   6.364   6.014   7.486  2.0674 -1.2747 -1.8698
  625MOL0     H82442   6.265   6.033   7.348  2.2873 -1.1485 -1.6022
  625MOL0     H82443   6.351   6.258   7.536  0.9636 -1.2637 -0.2518
  625MOL0     H82444   6.242   6.298   7.406  0.7950  0.4578 -0.9058
  625MOL0     H82445   6.168   6.084   7.611  0.0402 -0.5075  0.1526
  625MOL0     H82446   6.088   6.130   7.469 -0.5704 -1.0996  1.1786
  625MOL0     H82447   6.079   6.366   7.534  1.5088 -0.1333 -0.4956
  625MOL0     H82448   6.185   6.337   7.673  2.9325 -1.1132 -0.6399
  625MOL0     H82449   5.903   6.346   7.681  1.7300  0.0597 -2.7235
  625MOL0     H82450   5.931   6.183   7.643  0.3040 -1.0707  2.4554
  625MOL0     H82451   5.892   6.271   7.889  1.0860  0.3287  2.7155
  625MOL0     H82452   6.068   6.295   7.890  1.8590 -0.4467 -2.5532
  625MOL0     H82453   6.051   6.099   8.114  0.5991 -2.7871  1.5428
  625MOL0     H82454   6.004   5.736   8.086 -2.5511  1.2829  0.3066
  625MOL0     H82455   6.049   5.863   8.197 -1.3253 -0.7749  0.2074
  625MOL0     H82456   6.287   5.849   8.098  1.0040 -0.4981  0.2015
  625MOL0     H82457   6.222   5.699   8.023 -0.3666 -1.5238  1.2559
  625MOL0     H82458   6.273   5.757   8.319  1.4322  1.8485 -0.7959
  625MOL0     H82459   6.201   5.603   8.245 -0.4276  1.0144  3.3971
  625MOL0     H82460   6.453   5.615   8.298 -0.8372  3.3282  1.6778
  625MOL0     H82461   6.463   5.726   8.152  0.1831 -1.4612 -2.5293
  625MOL0     H82462   6.676   5.588   8.190  0.6023 -0.0327  0.1759
  625MOL0     H82463   6.857   5.439   8.130 -1.4318 -0.9933  2.2971
  625MOL0     H82464   7.168   5.389   7.943 -1.5551 -0.9541  1.2215
  625MOL0     H82465   7.382   5.303   7.867 -2.5038  2.5558  0.2699
  625MOL0     H82466   7.443   5.167   7.689  0.9078  1.0344  1.5127
  625MOL0     H82467   7.535   5.012   7.661  0.4747  0.2289 -0.7117
  625MOL0     H82468   7.647   5.228   7.848 -2.2922  0.5180 -1.2662
  625MOL0     H82469   7.665   5.229   7.679  0.8213  1.7924  2.4451
  625MOL0     H82470   7.855   5.129   7.775 -0.4124 -0.8803 -0.3445
  625MOL0     H82471   7.780   4.997   7.680  0.5696  0.3823  0.4043
  625MOL0     H82472   7.777   5.053   7.982  1.1980  2.5974 -1.5630
  625MOL0     H82473   7.692   4.903   7.917 -0.0634  0.1472 -0.2777
  625MOL0     H82474   7.897   4.850   7.799  2.0062  0.2460 -0.6270
  625MOL0     H82475   7.873   4.800   7.973  0.9702  1.4368  0.6642
  625MOL0     H82476   8.037   5.039   7.874 -0.9815  0.2379  0.2482
  625MOL0     H82477   8.098   4.875   7.921  0.5154 -0.1514 -1.6783
  625MOL0     H82478   7.972   5.099   8.101 -0.7546 -0.3480  1.8162
  625MOL0     H82479   7.984   4.926   8.160 -4.6035  1.8723  0.0518
  625MOL0     H82480   8.222   4.926   8.107  1.5842  0.4647 -2.1676
  625MOL0     H82481   8.157   5.022   8.247  0.0733 -0.8703 -0.2063
  625MOL0     H82482   7.214   4.907   7.901  0.5959  0.2643 -1.6943
  625MOL0     H82483   7.005   5.001   7.960 -0.7308  1.0467  1.6547
  625MOL0     H82484   6.610   5.281   7.816  1.5804  2.0288 -1.0833
  625MOL0     H82485   6.418   5.382   7.922 -2.5043  3.3389  1.5729
  625MOL0     H82486   6.630   5.993   6.964 -1.9930  0.6545 -2.6620
  625MOL0     H82487   6.755   5.841   6.833  0.0299 -0.2989 -0.0648
  625MOL0     H82488   7.007   5.561   6.539  1.9547  0.5381  2.7796
  625MOL0     H82489   7.122   5.359   6.450 -1.3631  1.5099 -0.9425
  625MOL0     H82490   7.231   5.169   6.451  3.6014 -1.9250 -2.7428
  625MOL0     H82491   7.122   5.161   6.312  1.6952  0.3315 -0.0278
  625MOL0     H82492   7.095   4.926   6.325 -2.0180  3.8542  1.0750
  625MOL0     H82493   7.259   4.976   6.298 -0.0269  0.2940 -1.3318
  625MOL0     H82494   7.163   4.882   6.578 -1.3499  2.1382 -1.0899
  625MOL0     H82495   7.328   4.911   6.534 -1.8545  0.6858  2.2870
  625MOL0     H82496   7.165   4.693   6.400  0.2988 -0.3702 -0.6732
  625MOL0     H82497   7.345   4.731   6.371  0.7923 -0.1062  0.8426
  625MOL0     H82498   7.336   4.415   6.616 -1.4248 -0.8648 -2.0955
  625MOL0     H82499   6.844   5.118   6.655  2.9919 -1.6770 -1.4562
  625MOL0     H82500   6.756   5.308   6.771  2.7249 -0.0339  3.7450
  626MOL0     O82501   8.922   7.114   9.626  0.0732  0.7600 -0.2677
  626MOL0     C82502   8.938   7.038   9.531  1.1092 -0.0794  0.1897
  626MOL0     O82503   8.831   6.966   9.469 -0.2485 -0.0260  0.0323
  626MOL0     C82504   8.700   6.977   9.504  0.0835  0.8648  0.7913
  626MOL0     C82505   8.630   7.067   9.583  0.8157  0.5686  0.6591
  626MOL0     C82506   8.487   7.061   9.588  0.7347 -0.0577  0.2261
  626MOL0     C82507   8.411   6.950   9.531  0.2176 -0.7309 -0.0468
  626MOL0     O82508   8.272   6.934   9.550 -0.4493  0.6680  0.5509
  626MOL0     C82509   8.191   7.051   9.570  0.0592 -0.1137  1.1535
  626MOL0     C82510   8.066   6.999   9.635  0.0370 -0.0728  0.7519
  626MOL0     C82511   7.968   6.908   9.556 -0.8706 -0.7503 -0.6255
  626MOL0     C82512   7.824   6.923   9.619  0.3827 -0.3020  0.9720
  626MOL0     C82513   7.811   6.937   9.777 -0.3541 -0.1972  0.0121
  626MOL0     C82514   7.675   6.879   9.836  0.4187 -1.1544  0.2159
  626MOL0     C82515   7.687   6.732   9.854 -0.0949  0.5163  0.1738
  626MOL0     C82516   7.556   6.653   9.848  0.7022  0.3612  0.8978
  626MOL0     N82517   7.501   6.622   9.713 -0.6084  0.0136  0.7582
  626MOL0     C82518   7.510   6.703   9.598  0.3961 -0.3106  0.6869
  626MOL0     C82519   7.473   6.617   9.495  0.1453  0.6258  0.0564
  626MOL0     C82520   7.457   6.659   9.344 -0.1372 -0.1975 -0.4227
  626MOL0     C82521   7.579   6.631   9.267 -0.6673  0.9631  0.5676
  626MOL0     C82522   7.615   6.481   9.255  0.1289  0.1156 -0.3936
  626MOL0     C82523   7.760   6.437   9.240  0.2434  0.6233  0.7736
  626MOL0     O82524   7.839   6.480   9.359  0.4670 -0.0460  0.9898
  626MOL0     C82525   7.974   6.464   9.351  0.0615 -0.4358 -1.1457
  626MOL0     C82526   8.048   6.525   9.460 -0.5533 -0.1670  0.4180
  626MOL0     C82527   8.193   6.529   9.454 -0.8436  0.7672  0.3428
  626MOL0     C82528   8.264   6.474   9.347  0.7486  0.0860  0.8606
  626MOL0     C82529   8.410   6.484   9.340 -1.1799  1.4212  0.5045
  626MOL0     O82530   8.472   6.478   9.463 -0.3088  0.7886 -0.5099
  626MOL0     C82531   8.611   6.484   9.476  0.5764  0.2037  0.7529
  626MOL0     C82532   8.692   6.548   9.384 -0.9262  0.0825  0.0207
  626MOL0     C82533   8.831   6.559   9.407 -0.1404 -0.6288  0.1495
  626MOL0     C82534   8.885   6.499   9.523 -0.0373 -0.0467 -0.8190
  626MOL0     O82535   9.007   6.507   9.576  0.3718  0.1122 -0.6415
  626MOL0     C82536   9.096   6.601   9.525 -0.6540  0.1333 -0.6438
  626MOL0     C82537   9.225   6.596   9.596 -0.6308 -0.7431  0.1793
  626MOL0     C82538   9.302   6.470   9.563  0.4502  0.0398  0.3554
  626MOL0     C82539   9.236   6.332   9.613 -0.3863 -0.0345  0.6802
  626MOL0     C82540   9.336   6.219   9.562 -0.5958 -0.2409  0.0796
  626MOL0     C82541   9.256   6.091   9.597 -0.9350 -0.8556 -0.3625
  626MOL0     C82542   9.337   5.960   9.582 -0.3769  0.5543  0.8174
  626MOL0     C82543   9.467   5.970   9.669  0.6770 -0.7638 -0.1951
  626MOL0    Cl82544   9.459   6.068   9.822 -0.0838  0.2831  0.1107
  626MOL0     C82545   8.800   6.429   9.610  0.3602  0.6815  0.5096
  626MOL0     C82546   8.668   6.421   9.586  0.2915  0.4862 -0.3769
  626MOL0     O82547   8.458   6.473   9.226 -0.1665  0.1940  0.2539
  626MOL0     C82548   8.188   6.410   9.244  0.0987 -0.8377  0.3423
  626MOL0     C82549   8.048   6.410   9.248 -0.0293 -0.0866 -0.3783
  626MOL0     N82550   7.422   6.499   9.550  0.8040 -0.2911 -0.3189
  626MOL0     N82551   7.442   6.505   9.678  0.3227 -0.5409 -0.3239
  626MOL0     C82552   8.481   6.866   9.453  0.9903 -0.7562 -0.0235
  626MOL0     C82553   8.622   6.880   9.436  0.7288  0.4156 -1.5136
  626MOL0     C82554   9.075   7.008   9.487 -0.1717  0.0282  0.3560
  626MOL0     C82555   9.095   6.921   9.381  0.7214  0.1558 -0.0286
  626MOL0     C82556   9.219   6.895   9.332 -0.4792 -0.4816  0.5996
  626MOL0     C82557   9.335   6.927   9.407 -0.1726 -0.2858 -0.6873
  626MOL0     O82558   9.468   6.894   9.384  0.3218 -0.4455  0.5369
  626MOL0     C82559   9.506   6.863   9.249 -0.1247 -0.3216  0.2543
  626MOL0     C82560   9.657   6.850   9.248 -0.3685  0.1944 -0.5088
  626MOL0     C82561   9.723   6.824   9.110 -0.3728 -0.4704 -0.2137
  626MOL0     C82562   9.878   6.800   9.123 -0.6274 -0.6948  0.8713
  626MOL0     C82563   9.962   6.902   9.189 -1.3054 -1.4814 -0.1643
  626MOL0     C82564  10.030   6.994   9.236 -0.0288 -0.3935  0.5930
  626MOL0     C82565   9.315   7.008   9.529  1.1536  0.3283 -0.0437
  626MOL0     C82566   9.187   7.048   9.562 -0.3663 -0.0559 -0.4089
  626MOL0     H82567   8.687   7.146   9.630 -0.7669  1.4275  1.1753
  626MOL0     H82568   8.433   7.138   9.642  1.0656  1.4951 -1.5412
  626MOL0     H82569   8.164   7.085   9.470  2.3781  3.5484  1.5882
  626MOL0     H82570   8.229   7.136   9.627 -1.3024  0.4197  1.3139
  626MOL0     H82571   8.014   7.084   9.681 -0.6895  0.5021 -1.0509
  626MOL0     H82572   8.098   6.945   9.725  2.6309  0.7433  0.4221
  626MOL0     H82573   8.002   6.805   9.566 -0.3434 -0.3460  3.5218
  626MOL0     H82574   7.954   6.934   9.451  0.2572 -1.3367 -0.9324
  626MOL0     H82575   7.773   7.011   9.580  2.0695  0.9552  1.5037
  626MOL0     H82576   7.770   6.843   9.568  2.6333  0.1496 -2.4583
  626MOL0     H82577   7.837   7.041   9.801  3.4923  0.0324 -3.8229
  626MOL0     H82578   7.899   6.887   9.818  2.9533  4.2199 -0.9300
  626MOL0     H82579   7.596   6.909   9.766 -0.4523  2.6268  2.5063
  626MOL0     H82580   7.654   6.924   9.933  1.8511  0.8670 -0.3413
  626MOL0     H82581   7.746   6.693   9.770 -1.7626  0.8661 -1.2092
  626MOL0     H82582   7.736   6.717   9.951  1.3667 -2.4063 -0.8797
  626MOL0     H82583   7.474   6.709   9.895 -1.5206 -3.5757  2.1283
  626MOL0     H82584   7.548   6.561   9.906 -3.5398  0.0689  0.1738
  626MOL0     H82585   7.540   6.806   9.582 -1.6537  0.2051 -0.1736
  626MOL0     H82586   7.434   6.765   9.329 -1.3919 -0.4777 -0.5707
  626MOL0     H82587   7.375   6.605   9.296 -1.3481  2.2464 -1.2861
  626MOL0     H82588   7.670   6.692   9.279 -1.5360  2.1476  1.3183
  626MOL0     H82589   7.542   6.669   9.171 -0.8735  2.2239  1.1223
  626MOL0     H82590   7.577   6.431   9.344  0.8875 -1.1770 -0.7747
  626MOL0     H82591   7.556   6.437   9.173  1.2611  1.6977 -2.1390
  626MOL0     H82592   7.799   6.482   9.148  0.8594 -0.4758  0.4896
  626MOL0     H82593   7.758   6.329   9.225  0.9638  0.6254  0.6661
  626MOL0     H82594   8.004   6.585   9.539 -0.5475  2.0249 -1.1494
  626MOL0     H82595   8.243   6.573   9.540  1.2254  0.9520 -0.8740
  626MOL0     H82596   8.654   6.594   9.293  0.0619 -0.6349 -0.7746
  626MOL0     H82597   8.904   6.604   9.341 -1.2804  1.6421  0.3207
  626MOL0     H82598   9.070   6.707   9.532 -0.2967  0.2671 -1.2409
  626MOL0     H82599   9.103   6.589   9.417 -2.7474  0.2244 -0.8397
  626MOL0     H82600   9.226   6.607   9.705 -0.9511  1.7583  0.0027
  626MOL0     H82601   9.278   6.687   9.566 -0.5473 -0.4757  1.0957
  626MOL0     H82602   9.401   6.473   9.608  0.7176  2.0803 -0.2714
  626MOL0     H82603   9.306   6.462   9.454 -1.2120  1.6680  0.1264
  626MOL0     H82604   9.231   6.337   9.722  0.4710 -0.8310  0.7651
  626MOL0     H82605   9.138   6.315   9.568  0.3513 -2.2354 -0.1933
  626MOL0     H82606   9.428   6.231   9.619 -0.4124 -0.9120 -0.0684
  626MOL0     H82607   9.343   6.236   9.454  0.1095 -2.0479 -0.1872
  626MOL0     H82608   9.172   6.087   9.527 -0.5450  0.8463 -0.9849
  626MOL0     H82609   9.225   6.098   9.702  1.1831 -3.9833  0.6029
  626MOL0     H82610   9.264   5.887   9.621 -2.7691  1.3730 -1.8281
  626MOL0     H82611   9.365   5.930   9.481  1.4368 -0.0346  1.4512
  626MOL0     H82612   9.548   6.003   9.603 -0.1336  0.3178 -0.6743
  626MOL0     H82613   9.478   5.865   9.699  0.3434 -1.3898 -2.0955
  626MOL0     H82614   8.826   6.372   9.699 -2.2560  0.4735  1.1988
  626MOL0     H82615   8.599   6.364   9.647  1.1379 -1.9577 -1.5901
  626MOL0     H82616   8.232   6.371   9.153 -2.9927 -1.5124 -1.0065
  626MOL0     H82617   7.993   6.370   9.163 -0.4908  1.4709 -0.8522
  626MOL0     H82618   8.431   6.780   9.409  0.7464  0.1218 -1.5653
  626MOL0     H82619   8.676   6.813   9.370  1.6227 -1.1157  0.6869
  626MOL0     H82620   9.008   6.882   9.330  1.7670  0.3260 -2.0594
  626MOL0     H82621   9.222   6.860   9.229 -0.6331  1.0700  0.0407
  626MOL0     H82622   9.465   6.928   9.171 -1.5225  0.4614  1.6013
  626MOL0     H82623   9.461   6.765   9.235  2.8199 -1.3708 -3.6886
  626MOL0     H82624   9.696   6.944   9.289  1.0734 -0.1120 -1.1089
  626MOL0     H82625   9.683   6.772   9.320 -1.3593  0.3799  0.0621
  626MOL0     H82626   9.710   6.913   9.047  0.7001  0.7803  1.2789
  626MOL0     H82627   9.672   6.736   9.070  0.4597 -0.6572 -0.8849
  626MOL0     H82628   9.900   6.704   9.170  0.5635 -0.9732 -0.1882
  626MOL0     H82629   9.905   6.799   9.017 -3.8120 -1.3840 -0.0307
  626MOL0     H82630  10.068   7.082   9.283 -2.1093  0.8206  0.1436
  626MOL0     H82631   9.393   7.048   9.593  2.3276 -1.2857 -0.4057
  626MOL0     H82632   9.174   7.108   9.652  1.5525 -0.7446  0.3815
  627MOL0     O82633   6.054   0.951   4.172  0.1123 -0.9616 -0.7355
  627MOL0     C82634   6.039   1.069   4.155  0.2040  0.0267 -0.5216
  627MOL0     O82635   5.948   1.126   4.069 -0.0527  0.0553  0.2404
  627MOL0     C82636   5.875   1.037   3.995 -0.4912  0.3016  0.8440
  627MOL0     C82637   5.756   0.990   4.044 -0.0900 -0.4645 -0.1253
  627MOL0     C82638   5.684   0.903   3.960  0.1743 -0.3438 -0.0938
  627MOL0     C82639   5.731   0.860   3.834  0.4628  0.0117  0.1018
  627MOL0     O82640   5.660   0.777   3.756  0.4042  0.5324  0.5157
  627MOL0     C82641   5.572   0.678   3.822  1.1235 -0.9337 -0.3394
  627MOL0     C82642   5.525   0.568   3.725 -0.1484  0.3021 -0.0957
  627MOL0     C82643   5.425   0.468   3.787 -0.5038 -0.4273 -0.1411
  627MOL0     C82644   5.372   0.352   3.693  0.0069  0.2681 -0.5844
  627MOL0     C82645   5.272   0.262   3.762  0.1009  0.2992  0.7367
  627MOL0     C82646   5.136   0.329   3.781 -0.1543 -0.6594 -0.2168
  627MOL0     C82647   5.024   0.228   3.767  0.2700 -0.1272 -0.0129
  627MOL0     C82648   4.987   0.185   3.623  0.0184  0.3867  0.0059
  627MOL0     N82649   4.890   0.072   3.613 -0.1327 -0.5045 -0.0894
  627MOL0     C82650   4.920  -0.060   3.582  0.5272 -0.2847 -0.7250
  627MOL0     C82651   4.799  -0.114   3.559  0.0654 -0.7385  0.1102
  627MOL0     C82652   4.769  -0.252   3.507  0.6194 -0.3677 -0.1715
  627MOL0     C82653   4.638  -0.313   3.578 -0.4283 -0.2697  0.1082
  627MOL0     C82654   4.625  -0.457   3.542 -0.2006  0.1969 -0.1729
  627MOL0     C82655   4.531  -0.541   3.632 -0.3386  1.0860  0.2401
  627MOL0     O82656   4.393  -0.516   3.606  0.2472  0.2812 -0.0824
  627MOL0     C82657   4.332  -0.581   3.500  0.6472  0.6316  0.2673
  627MOL0     C82658   4.389  -0.667   3.411  0.2226  0.0148  0.3786
  627MOL0     C82659   4.322  -0.709   3.294  0.0724 -0.0976  0.2462
  627MOL0     C82660   4.189  -0.668   3.266 -0.6594  0.0314 -0.2999
  627MOL0     C82661   4.125  -0.709   3.134 -0.1647  0.2528  0.1774
  627MOL0     O82662   3.990  -0.684   3.127 -0.1526 -0.2479  0.3856
  627MOL0     C82663   3.910  -0.754   3.041  0.1271 -0.5940  0.4883
  627MOL0     C82664   3.776  -0.707   3.007 -0.8837  0.0764 -1.3330
  627MOL0     C82665   3.682  -0.788   2.938  0.2536  0.5333 -0.0730
  627MOL0     C82666   3.716  -0.914   2.897  0.6077  0.2160 -1.0981
  627MOL0     O82667   3.617  -0.995   2.843  0.0181  0.4592  0.1278
  627MOL0     C82668   3.567  -1.082   2.937 -0.0695  1.4728 -0.0022
  627MOL0     C82669   3.430  -1.118   2.903 -0.3349 -0.2538  0.6152
  627MOL0     C82670   3.379  -1.238   2.977 -0.3086 -0.4816  0.4952
  627MOL0     C82671   3.225  -1.249   2.964  0.9864  0.3785  0.5950
  627MOL0     C82672   3.190  -1.332   2.826  0.7031 -0.3646  0.2172
  627MOL0     C82673   3.044  -1.339   2.794  0.5286  0.4354 -0.0921
  627MOL0     C82674   3.007  -1.444   2.692  0.1010 -1.1466  0.0669
  627MOL0     C82675   2.887  -1.388   2.605 -0.2536 -0.1074  0.1083
  627MOL0    Cl82676   2.764  -1.320   2.696 -0.1029 -0.3031  0.0587
  627MOL0     C82677   3.834  -0.965   2.931 -0.2653  0.0788  1.3336
  627MOL0     C82678   3.933  -0.881   2.999  0.0542  0.9259  0.1882
  627MOL0     O82679   4.192  -0.751   3.040 -0.8454  0.2261  0.1988
  627MOL0     C82680   4.134  -0.579   3.360 -0.1776 -0.7288  0.4954
  627MOL0     C82681   4.199  -0.542   3.482  0.1788  0.2791  0.1166
  627MOL0     N82682   4.694  -0.026   3.580  0.8478  0.1987 -0.1193
  627MOL0     N82683   4.754   0.089   3.610 -0.0702  0.5428  0.6932
  627MOL0     C82684   5.847   0.910   3.790 -0.4127 -0.2938  0.0462
  627MOL0     C82685   5.919   1.005   3.860 -0.4775  0.5245  0.1289
  627MOL0     C82686   6.105   1.164   4.249 -0.2376 -0.1266 -0.2673
  627MOL0     C82687   6.092   1.306   4.250 -0.2242 -0.2706 -0.2950
  627MOL0     C82688   6.150   1.390   4.343 -0.4512  0.4033  0.1695
  627MOL0     C82689   6.232   1.332   4.435  0.5561 -0.1561  0.6462
  627MOL0     O82690   6.284   1.394   4.543 -0.4269 -0.1593  0.0948
  627MOL0     C82691   6.221   1.500   4.617 -0.1237 -0.0274  0.0660
  627MOL0     C82692   6.288   1.637   4.580 -0.5611 -0.0708  0.8460
  627MOL0     C82693   6.428   1.646   4.625 -0.8472 -0.0619  0.5578
  627MOL0     C82694   6.494   1.786   4.618 -0.5159  0.6404 -0.9137
  627MOL0     C82695   6.416   1.883   4.699  0.3021  0.0081 -0.2230
  627MOL0     C82696   6.342   1.964   4.750 -0.4905 -0.6810 -0.9437
  627MOL0     C82697   6.257   1.200   4.426  0.5252  0.4741 -0.2862
  627MOL0     C82698   6.201   1.112   4.337 -0.2800 -1.4739  0.8522
  627MOL0     H82699   5.736   1.034   4.141  1.0815  1.3079 -0.6394
  627MOL0     H82700   5.585   0.872   3.991  0.0036 -1.7464 -1.8364
  627MOL0     H82701   5.480   0.721   3.864  1.5834 -1.3070  1.1263
  627MOL0     H82702   5.620   0.629   3.907 -0.9406  0.6403  1.9058
  627MOL0     H82703   5.608   0.505   3.694 -1.1018 -1.1625  0.2583
  627MOL0     H82704   5.474   0.610   3.638  1.5114  1.0720 -0.7377
  627MOL0     H82705   5.337   0.529   3.810  1.3571  2.2376  0.2432
  627MOL0     H82706   5.456   0.430   3.884  2.7552  0.2991 -0.7695
  627MOL0     H82707   5.345   0.392   3.595  0.6663  2.8805  0.2122
  627MOL0     H82708   5.462   0.292   3.682 -0.2452 -0.1785 -0.2136
  627MOL0     H82709   5.310   0.225   3.858  1.5991 -1.0811 -0.3278
  627MOL0     H82710   5.263   0.166   3.710 -0.2648  0.9621 -0.4688
  627MOL0     H82711   5.114   0.420   3.724  0.4777 -0.2516  0.1718
  627MOL0     H82712   5.120   0.354   3.886 -2.0603  1.0773 -0.8653
  627MOL0     H82713   5.052   0.136   3.819 -1.1791  0.3509  1.6772
  627MOL0     H82714   4.940   0.271   3.821  0.7133 -2.7377  3.0458
  627MOL0     H82715   5.078   0.162   3.567  1.9324  4.3531  1.1453
  627MOL0     H82716   4.940   0.269   3.572  0.5537 -0.0427 -1.2473
  627MOL0     H82717   5.015  -0.112   3.572 -0.3137 -1.8481 -0.9262
  627MOL0     H82718   4.860  -0.308   3.533  0.9458  0.7406  1.1780
  627MOL0     H82719   4.755  -0.258   3.398  3.0270 -1.7414 -0.4914
  627MOL0     H82720   4.549  -0.255   3.551  1.0744  1.6877 -0.8758
  627MOL0     H82721   4.646  -0.309   3.687 -0.1920  0.7918  0.0550
  627MOL0     H82722   4.605  -0.471   3.436  0.2357  0.9907 -0.3631
  627MOL0     H82723   4.727  -0.495   3.549 -0.2328 -0.6306 -2.9669
  627MOL0     H82724   4.540  -0.510   3.737 -1.1645  3.4248 -0.3306
  627MOL0     H82725   4.546  -0.649   3.630  1.8448  1.3338 -1.8525
  627MOL0     H82726   4.489  -0.707   3.428 -0.4201 -1.5919  0.5884
  627MOL0     H82727   4.374  -0.773   3.223 -0.2892  1.7390 -1.8042
  627MOL0     H82728   3.754  -0.606   3.039  1.4767  0.7810 -1.7600
  627MOL0     H82729   3.582  -0.751   2.918 -0.5057 -2.2282 -2.0864
  627MOL0     H82730   3.560  -1.037   3.036 -2.1997 -0.1551  0.6607
  627MOL0     H82731   3.634  -1.169   2.934 -0.1658  1.4223 -2.7614
  627MOL0     H82732   3.436  -1.131   2.794  1.5112  1.5833  0.4406
  627MOL0     H82733   3.367  -1.031   2.922  1.5356  1.7376 -1.6257
  627MOL0     H82734   3.402  -1.229   3.083 -1.0830 -0.6198  0.6793
  627MOL0     H82735   3.433  -1.329   2.950  0.7083  0.2572 -0.0296
  627MOL0     H82736   3.181  -1.304   3.047  0.6670  1.9973  1.5477
  627MOL0     H82737   3.185  -1.148   2.975  0.7838  0.2496  1.0490
  627MOL0     H82738   3.232  -1.433   2.823 -1.7061 -1.4076 -1.0878
  627MOL0     H82739   3.234  -1.282   2.738  1.0089 -0.3005  0.4043
  627MOL0     H82740   3.004  -1.239   2.774 -2.2051 -0.7926 -1.3659
  627MOL0     H82741   2.994  -1.377   2.884  1.2131 -0.2110  0.0217
  627MOL0     H82742   3.094  -1.479   2.635  0.3785 -0.8820  0.3179
  627MOL0     H82743   2.961  -1.524   2.751 -1.1765 -0.3326  0.2024
  627MOL0     H82744   2.840  -1.464   2.541  1.2240 -0.2388 -0.8585
  627MOL0     H82745   2.921  -1.315   2.532  1.5065 -2.4458 -1.5795
  627MOL0     H82746   3.847  -1.068   2.900  2.1935  0.8773 -0.6820
  627MOL0     H82747   4.031  -0.926   3.011 -0.8339 -1.4595 -0.9543
  627MOL0     H82748   4.026  -0.565   3.354 -1.1978 -6.3863 -0.1877
  627MOL0     H82749   4.139  -0.484   3.551  0.9854 -0.2892  1.3129
  627MOL0     H82750   5.892   0.876   3.697 -0.4289  0.0184 -0.0782
  627MOL0     H82751   6.006   1.059   3.824 -2.0309  2.5533 -0.7479
  627MOL0     H82752   6.019   1.351   4.183  0.6999  0.9116 -0.5376
  627MOL0     H82753   6.141   1.497   4.355  2.7555  0.4690  3.6631
  627MOL0     H82754   6.238   1.477   4.723  0.4985  1.3373  0.2872
  627MOL0     H82755   6.114   1.511   4.597  0.2089  2.8905 -0.5817
  627MOL0     H82756   6.282   1.642   4.471  1.0831  2.7774  0.7977
  627MOL0     H82757   6.224   1.710   4.629 -0.5431  1.8468 -1.8173
  627MOL0     H82758   6.485   1.574   4.567 -1.4489 -2.2780  2.5541
  627MOL0     H82759   6.429   1.615   4.730 -0.7452  1.7197  1.1325
  627MOL0     H82760   6.595   1.770   4.656 -1.1881 -3.2478 -0.3167
  627MOL0     H82761   6.511   1.822   4.516 -1.6375 -0.8765 -1.6740
  627MOL0     H82762   6.280   2.024   4.815 -1.2466 -1.6110 -0.7773
  627MOL0     H82763   6.315   1.138   4.494  1.8032 -0.0106 -1.7600
  627MOL0     H82764   6.222   1.006   4.326 -0.9664 -1.3749 -2.3431
  628MOL0     O82765   4.520   7.007   4.023  0.4332  0.0643  0.6420
  628MOL0     C82766   4.539   6.894   3.978  0.5162  0.4859  0.2657
  628MOL0     O82767   4.473   6.830   3.877  0.0891 -0.8804 -0.0637
  628MOL0     C82768   4.378   6.881   3.796 -0.0913 -0.5589 -0.4848
  628MOL0     C82769   4.332   7.011   3.807 -0.0094  0.2953  0.2478
  628MOL0     C82770   4.227   7.041   3.715  0.3840 -0.1749 -0.2248
  628MOL0     C82771   4.178   6.954   3.622 -0.0956 -0.2675  0.3696
  628MOL0     O82772   4.079   7.001   3.546  0.2408 -0.4406  0.3590
  628MOL0     C82773   3.988   6.906   3.485  0.6035 -0.4888 -0.3322
  628MOL0     C82774   3.885   6.988   3.408  0.3211 -0.8175 -0.0671
  628MOL0     C82775   3.790   6.904   3.320  0.3396  0.2157  1.1139
  628MOL0     C82776   3.709   6.990   3.222 -0.2112  0.1178 -0.6230
  628MOL0     C82777   3.590   6.912   3.163  0.3536 -0.3634 -0.0627
  628MOL0     C82778   3.535   7.003   3.046 -0.2881  0.0889 -1.0372
  628MOL0     C82779   3.493   7.150   3.089 -0.6751  0.0693 -0.3879
  628MOL0     C82780   3.413   7.159   3.222  0.2668 -0.0752 -0.1214
  628MOL0     N82781   3.275   7.130   3.187  0.3197 -0.9111 -0.3717
  628MOL0     C82782   3.216   7.009   3.193 -0.0103  0.5696 -1.4488
  628MOL0     C82783   3.096   7.027   3.129 -0.4661 -0.3224  0.4063
  628MOL0     C82784   2.986   6.932   3.104  1.4636  0.9673  0.0247
  628MOL0     C82785   2.992   6.870   2.957  0.3712 -0.1279  0.4470
  628MOL0     C82786   2.890   6.769   2.910  0.0750 -0.3088  0.4752
  628MOL0     C82787   2.746   6.814   2.903  0.8399 -0.3985 -0.3112
  628MOL0     O82788   2.687   6.835   3.028 -0.6638  0.1503  0.7405
  628MOL0     C82789   2.554   6.804   3.048 -0.5273  0.4719  0.1724
  628MOL0     C82790   2.500   6.835   3.170 -0.6692 -0.2066  0.1273
  628MOL0     C82791   2.367   6.808   3.204 -0.9772 -0.5341 -0.0754
  628MOL0     C82792   2.279   6.749   3.113  0.2768 -0.2204 -0.6481
  628MOL0     C82793   2.143   6.711   3.152 -0.3723  0.8127 -0.7428
  628MOL0     O82794   2.102   6.752   3.273 -0.4162  0.3526 -0.3636
  628MOL0     C82795   1.965   6.729   3.289 -0.3062 -0.7187 -1.1929
  628MOL0     C82796   1.929   6.608   3.361  0.0609  0.9474 -0.1679
  628MOL0     C82797   1.797   6.575   3.378  0.0052 -0.7569 -0.6797
  628MOL0     C82798   1.707   6.655   3.315  0.7750  0.6519  0.3568
  628MOL0     O82799   1.575   6.629   3.346  0.5885  0.1521 -0.5992
  628MOL0     C82800   1.477   6.731   3.331 -0.3415 -0.4696  1.6337
  628MOL0     C82801   1.420   6.763   3.193 -0.0394 -0.0353 -0.5074
  628MOL0     C82802   1.277   6.707   3.174 -0.4119  0.1643 -0.4136
  628MOL0     C82803   1.194   6.803   3.089 -1.1394 -0.7597  0.5856
  628MOL0     C82804   1.044   6.779   3.091  0.0403  0.4008  0.1113
  628MOL0     C82805   0.968   6.879   3.005  0.0710  0.0054  0.8667
  628MOL0     C82806   1.002   6.886   2.852  0.6956 -0.4368 -0.9953
  628MOL0     C82807   0.913   6.987   2.786 -0.8115  0.1828  0.0569
  628MOL0    Cl82808   0.761   6.910   2.745 -0.1492  0.5118 -0.1401
  628MOL0     C82809   1.746   6.763   3.237 -0.4974 -0.5351  0.1528
  628MOL0     C82810   1.873   6.805   3.225  0.3568  0.0675  0.2559
  628MOL0     O82811   2.082   6.630   3.078 -0.9987  0.2224  0.5647
  628MOL0     C82812   2.333   6.723   2.988  0.1097  0.8937 -0.6057
  628MOL0     C82813   2.465   6.750   2.954  0.2594 -0.2065 -0.1656
  628MOL0     N82814   3.090   7.152   3.086  0.0489 -0.1720 -0.3147
  628MOL0     N82815   3.191   7.219   3.127 -0.0505 -0.1958 -0.8002
  628MOL0     C82816   4.227   6.821   3.613  0.0458 -0.1771 -0.1429
  628MOL0     C82817   4.337   6.786   3.696  0.2723  0.0014  0.3137
  628MOL0     C82818   4.654   6.834   4.048 -0.4278 -0.4434  0.2743
  628MOL0     C82819   4.655   6.699   4.055  0.4552 -0.1216 -0.3634
  628MOL0     C82820   4.767   6.634   4.096 -0.9790 -0.5626 -0.0460
  628MOL0     C82821   4.891   6.708   4.126 -0.3729 -0.7246  0.0544
  628MOL0     O82822   5.018   6.648   4.151  0.9596  0.0114  0.5042
  628MOL0     C82823   5.080   6.624   4.024  0.2830 -1.4454 -0.0469
  628MOL0     C82824   5.221   6.560   4.038  0.5675 -0.1477  0.4630
  628MOL0     C82825   5.324   6.659   4.097 -0.1160 -0.5171  0.3354
  628MOL0     C82826   5.354   6.790   4.009  0.1229  0.4782  0.0111
  628MOL0     C82827   5.393   6.765   3.872  0.1223  0.7192 -0.5303
  628MOL0     C82828   5.419   6.760   3.760 -0.3836  0.6043  0.1591
  628MOL0     C82829   4.877   6.844   4.136  0.5562  0.2914 -0.4357
  628MOL0     C82830   4.760   6.912   4.095  0.4145 -0.4311  0.7788
  628MOL0     H82831   4.365   7.090   3.873 -1.6948 -0.7490  2.4648
  628MOL0     H82832   4.199   7.145   3.703  0.6348  0.2327  2.1260
  628MOL0     H82833   3.924   6.852   3.555 -0.2357  0.6110 -0.2157
  628MOL0     H82834   4.025   6.828   3.418 -0.0937 -0.4359 -0.7885
  628MOL0     H82835   3.948   7.048   3.341  0.7833  2.0554  2.7056
  628MOL0     H82836   3.829   7.054   3.475  1.9715  0.5592  0.0131
  628MOL0     H82837   3.721   6.840   3.375 -0.5400  1.1434  1.1022
  628MOL0     H82838   3.855   6.840   3.258 -0.0602  1.0506 -0.2028
  628MOL0     H82839   3.674   7.079   3.274  1.1742 -0.5925  1.6517
  628MOL0     H82840   3.779   7.022   3.144  0.6912 -1.6323 -0.5810
  628MOL0     H82841   3.514   6.892   3.239 -1.6288 -1.7782 -2.2704
  628MOL0     H82842   3.617   6.812   3.129 -3.3503 -1.9922  1.2801
  628MOL0     H82843   3.451   6.946   3.007  0.2509 -1.3048 -0.2279
  628MOL0     H82844   3.611   7.007   2.968  2.6638 -2.6003  1.4455
  628MOL0     H82845   3.587   7.204   3.104 -1.4957  1.6638 -0.8137
  628MOL0     H82846   3.435   7.189   3.005 -0.6272 -0.1117 -0.5063
  628MOL0     H82847   3.423   7.257   3.268 -3.4249 -0.1085  1.1623
  628MOL0     H82848   3.434   7.083   3.298 -1.1447  0.7129  1.1080
  628MOL0     H82849   3.252   6.928   3.255  0.2640  0.6144 -1.5497
  628MOL0     H82850   2.903   7.001   3.124  2.4859  2.1577  0.2938
  628MOL0     H82851   2.968   6.857   3.182  0.0556 -0.3515 -1.5008
  628MOL0     H82852   3.090   6.821   2.956 -1.1803 -3.4365 -0.9082
  628MOL0     H82853   2.993   6.945   2.877 -1.6410 -1.0528 -0.5147
  628MOL0     H82854   2.924   6.754   2.807  2.2849  2.7116  0.6333
  628MOL0     H82855   2.905   6.682   2.974  0.7657  1.6121  3.1172
  628MOL0     H82856   2.686   6.745   2.843 -2.2229  1.3679  0.4655
  628MOL0     H82857   2.728   6.909   2.851  1.0441 -0.7158 -0.9648
  628MOL0     H82858   2.556   6.900   3.236  1.9410 -1.2723 -0.8839
  628MOL0     H82859   2.338   6.836   3.305  1.1540  0.4179  0.3329
  628MOL0     H82860   2.005   6.543   3.403 -0.4927  1.1852  1.2439
  628MOL0     H82861   1.757   6.495   3.439 -1.7283  1.1365  0.7986
  628MOL0     H82862   1.529   6.823   3.360 -1.2929  0.7122 -0.2268
  628MOL0     H82863   1.399   6.718   3.407 -2.6034 -0.1269 -0.5179
  628MOL0     H82864   1.476   6.722   3.108 -0.2716  1.3805 -1.3680
  628MOL0     H82865   1.428   6.871   3.184 -0.2795  0.4494  3.5238
  628MOL0     H82866   1.231   6.709   3.273  1.6801 -0.6094  0.6349
  628MOL0     H82867   1.287   6.609   3.128  1.0159  1.0650 -2.1472
  628MOL0     H82868   1.215   6.908   3.109  2.1542 -0.6699 -2.4418
  628MOL0     H82869   1.221   6.792   2.984  0.9704  0.1437  0.9926
  628MOL0     H82870   0.996   6.784   3.189  1.6219  2.0365  0.8650
  628MOL0     H82871   1.023   6.676   3.059  2.1958 -0.1816  0.4351
  628MOL0     H82872   0.981   6.979   3.046  0.7916  2.2160 -4.0686
  628MOL0     H82873   0.862   6.854   3.017 -0.7065  1.8959 -1.2822
  628MOL0     H82874   1.108   6.907   2.833  1.0199 -2.1019 -1.1830
  628MOL0     H82875   0.988   6.797   2.789  0.2494  0.1077 -1.6808
  628MOL0     H82876   0.963   7.029   2.698  3.1270 -2.8064  0.5306
  628MOL0     H82877   0.891   7.067   2.858 -0.8362 -0.4188  0.7356
  628MOL0     H82878   1.673   6.820   3.180  0.0558  2.0640  1.8668
  628MOL0     H82879   1.899   6.883   3.154  1.0151  0.3556  0.7979
  628MOL0     H82880   2.271   6.686   2.907  3.8319 -0.9776 -2.8603
  628MOL0     H82881   2.502   6.730   2.854  1.4164  1.8919 -0.2139
  628MOL0     H82882   4.196   6.749   3.538  0.3746  0.6519 -1.0904
  628MOL0     H82883   4.389   6.691   3.690  0.1596  0.0422 -2.2018
  628MOL0     H82884   4.567   6.646   4.019  1.7163 -2.4619 -0.2076
  628MOL0     H82885   4.777   6.527   4.086 -0.6966 -0.3132 -3.3559
  628MOL0     H82886   5.098   6.716   3.967 -1.6403 -0.3688  0.9836
  628MOL0     H82887   5.012   6.564   3.963 -1.1269 -0.7646  0.7989
  628MOL0     H82888   5.214   6.481   4.114 -3.8288  0.6236  1.1555
  628MOL0     H82889   5.262   6.529   3.942 -2.4690  0.0026 -0.9882
  628MOL0     H82890   5.417   6.601   4.098 -0.9933 -1.9810 -0.2416
  628MOL0     H82891   5.297   6.690   4.199  1.0269  0.6474  0.3094
  628MOL0     H82892   5.265   6.853   4.008 -1.0601 -1.1211  1.0510
  628MOL0     H82893   5.434   6.851   4.052  1.5641 -0.1718 -1.6191
  628MOL0     H82894   5.443   6.775   3.656 -0.3302 -1.2501 -0.1367
  628MOL0     H82895   4.962   6.908   4.158 -0.8691  2.0196  0.2719
  628MOL0     H82896   4.743   7.019   4.093  0.9244 -0.3453 -0.5122
  629MOL0     O82897   3.217   9.843   0.000  0.6013  0.0394  0.0552
  629MOL0     C82898   3.306   9.762   0.022 -0.1982  0.6410  0.0274
  629MOL0     O82899   3.380   9.714  -0.080 -0.1846  0.2653 -0.4641
  629MOL0     C82900   3.340   9.707  -0.209 -0.0193  0.8908  0.7076
  629MOL0     C82901   3.447   9.694  -0.303 -0.1590 -1.0560  0.3084
  629MOL0     C82902   3.425   9.706  -0.443  1.2410 -0.6620 -0.0605
  629MOL0     C82903   3.293   9.710  -0.496  0.2655 -0.1529  0.1069
  629MOL0     O82904   3.283   9.725  -0.631 -0.0709  0.3355 -0.1249
  629MOL0     C82905   3.158   9.755  -0.677 -0.0564  0.1097  1.0093
  629MOL0     C82906   3.160   9.796  -0.820  0.5786  0.1673 -0.1758
  629MOL0     C82907   3.186   9.946  -0.838 -0.4714 -0.5331  1.0612
  629MOL0     C82908   3.342   9.967  -0.877  0.4463  1.2509  0.9242
  629MOL0     C82909   3.369   9.917  -1.023 -0.4626 -0.5392  0.2569
  629MOL0     C82910   3.516   9.923  -1.070  0.0949  0.8572 -0.0315
  629MOL0     C82911   3.616   9.843  -0.997 -0.0717  0.8891  0.0368
  629MOL0     C82912   3.762   9.849  -1.057 -0.4119 -0.2659  0.2330
  629MOL0     N82913   3.860   9.789  -0.967  0.1553  0.3047 -0.8007
  629MOL0     C82914   3.964   9.869  -0.918 -0.7848 -0.8430 -0.2359
  629MOL0     C82915   4.065   9.777  -0.878  1.6510 -0.5260 -0.2896
  629MOL0     C82916   4.190   9.801  -0.806  0.2982 -0.4597 -0.5905
  629MOL0     C82917   4.300   9.698  -0.836  0.1175 -0.2264  0.1529
  629MOL0     C82918   4.337   9.706  -0.981 -0.0382  0.0637  0.2171
  629MOL0     C82919   4.390   9.580  -1.037 -0.4782  0.2447  0.0720
  629MOL0     O82920   4.467   9.498  -0.939 -0.1096 -0.0795  0.1396
  629MOL0     C82921   4.589   9.538  -0.881 -0.2400  0.9688  0.8232
  629MOL0     C82922   4.666   9.623  -0.952 -0.5169 -0.0617 -0.5363
  629MOL0     C82923   4.780   9.690  -0.885  1.0091  0.5820  0.3298
  629MOL0     C82924   4.824   9.650  -0.755 -0.0478  0.9165  0.3149
  629MOL0     C82925   4.947   9.699  -0.690  0.0000  0.9940  0.0834
  629MOL0     O82926   4.978   9.641  -0.571  0.3010  0.8898 -0.0007
  629MOL0     C82927   5.077   9.689  -0.487 -0.2143 -0.1098  0.7539
  629MOL0     C82928   5.177   9.605  -0.444  0.7791  0.1521  0.2572
  629MOL0     C82929   5.268   9.650  -0.350 -0.1969 -0.5309  0.0665
  629MOL0     C82930   5.255   9.782  -0.294  0.5866 -0.1302 -0.2781
  629MOL0     O82931   5.339   9.832  -0.192  0.1562  0.3297  0.8912
  629MOL0     C82932   5.371   9.745  -0.082  0.2891 -0.1829  0.1244
  629MOL0     C82933   5.414   9.833   0.042 -0.1024  0.1006  0.2103
  629MOL0     C82934   5.544   9.911   0.000  0.1451 -1.6025  0.2697
  629MOL0     C82935   5.675   9.834   0.010 -0.1833 -0.1387  0.0620
  629MOL0     C82936   5.789   9.915  -0.047  0.1149  0.3407  0.3656
  629MOL0     C82937   5.919   9.836  -0.047 -0.3302 -1.0330  1.2131
  629MOL0     C82938   5.981   9.830   0.091 -0.4593  0.4172 -0.1588
  629MOL0     C82939   6.118   9.761   0.091 -0.1963 -0.2453 -0.4542
  629MOL0    Cl82940   6.181   9.727   0.255  0.3762  0.0706 -0.2056
  629MOL0     C82941   5.150   9.864  -0.354  0.1222 -0.1956 -0.2945
  629MOL0     C82942   5.069   9.817  -0.451  0.3269 -0.7477 -0.8687
  629MOL0     O82943   5.021   9.785  -0.743  0.2735 -0.5583  0.1458
  629MOL0     C82944   4.744   9.545  -0.695  0.2250 -0.1446  0.4851
  629MOL0     C82945   4.634   9.486  -0.762 -0.3617  0.1103  0.3928
  629MOL0     N82946   4.014   9.654  -0.911 -1.0815 -0.3142  0.1359
  629MOL0     N82947   3.894   9.658  -0.956  0.4498 -0.4457 -0.3756
  629MOL0     C82948   3.186   9.708  -0.401  0.0632  0.3581  1.5481
  629MOL0     C82949   3.205   9.708  -0.262 -1.0467  0.1598 -0.5311
  629MOL0     C82950   3.332   9.702   0.153 -0.3354 -0.1895 -0.2924
  629MOL0     C82951   3.269   9.768   0.267  0.9384  0.3503  0.0358
  629MOL0     C82952   3.273   9.710   0.392 -0.8824 -0.3524  0.7286
  629MOL0     C82953   3.337   9.587   0.417 -0.0520  0.5596  0.7196
  629MOL0     O82954   3.330   9.534   0.537  0.4763  0.8073 -0.1672
  629MOL0     C82955   3.358   9.613   0.649 -0.0007 -0.5174 -0.6028
  629MOL0     C82956   3.479   9.551   0.728  0.0144 -0.0196 -0.4441
  629MOL0     C82957   3.510   9.634   0.849 -0.1191 -0.0644  0.4739
  629MOL0     C82958   3.649   9.698   0.867 -0.2605 -0.2010 -0.1292
  629MOL0     C82959   3.730   9.736   0.748 -0.1163  0.0013 -0.4864
  629MOL0     C82960   3.797   9.764   0.650  0.0120  0.4139 -0.4768
  629MOL0     C82961   3.385   9.514   0.304 -0.6176  0.3028  0.0084
  629MOL0     C82962   3.389   9.574   0.179 -1.1745  1.0322  0.2357
  629MOL0     H82963   3.547   9.692  -0.260  0.0743  0.2114 -0.1340
  629MOL0     H82964   3.509   9.701  -0.512  0.7668 -0.0067 -0.6944
  629MOL0     H82965   3.099   9.825  -0.616 -0.2788  1.1294 -0.3161
  629MOL0     H82966   3.104   9.660  -0.677  0.0713  0.0382  1.1653
  629MOL0     H82967   3.065   9.760  -0.860 -0.8405  3.4556 -0.0389
  629MOL0     H82968   3.240   9.743  -0.873  0.5037 -0.7967  0.6377
  629MOL0     H82969   3.152  10.007  -0.754  2.1607  2.1335  0.3776
  629MOL0     H82970   3.137   9.994  -0.924  0.4856  0.8183  1.2311
  629MOL0     H82971   3.372  10.072  -0.866 -1.6338  1.7716  2.1635
  629MOL0     H82972   3.398   9.906  -0.806 -0.8179 -2.1081 -0.7488
  629MOL0     H82973   3.314   9.981  -1.092  0.4984 -1.1673 -1.1429
  629MOL0     H82974   3.324   9.821  -1.051  0.5246 -0.7304 -0.7782
  629MOL0     H82975   3.548  10.027  -1.072  1.7706  0.3629 -0.6246
  629MOL0     H82976   3.521   9.893  -1.175 -0.6959  3.5890 -0.9366
  629MOL0     H82977   3.622   9.865  -0.890  1.0616 -2.5075  0.8067
  629MOL0     H82978   3.587   9.737  -0.998  1.3812  0.4657  0.2639
  629MOL0     H82979   3.782   9.955  -1.077  0.7201 -0.4090  0.5806
  629MOL0     H82980   3.766   9.792  -1.150 -0.7657  0.3207 -0.1467
  629MOL0     H82981   3.956   9.976  -0.899  2.2891 -0.3275 -1.2191
  629MOL0     H82982   4.178   9.808  -0.697  2.7507  3.0065 -0.4001
  629MOL0     H82983   4.233   9.899  -0.830 -1.7560  1.2931  2.2166
  629MOL0     H82984   4.248   9.603  -0.819 -0.9125 -0.9808 -5.2785
  629MOL0     H82985   4.390   9.706  -0.775 -0.3785 -3.2494  1.4961
  629MOL0     H82986   4.251   9.727  -1.045  1.3255 -1.2705 -2.2202
  629MOL0     H82987   4.415   9.782  -0.990  3.2494 -3.0841 -0.2205
  629MOL0     H82988   4.443   9.610  -1.128  1.0582 -0.1423  0.8013
  629MOL0     H82989   4.304   9.521  -1.067  0.1811 -0.7631  0.1239
  629MOL0     H82990   4.632   9.656  -1.050 -2.6074 -0.5606 -0.0289
  629MOL0     H82991   4.819   9.780  -0.932  1.1969  0.1395 -0.3666
  629MOL0     H82992   5.177   9.503  -0.480  0.7102 -1.0086  3.2139
  629MOL0     H82993   5.351   9.589  -0.317  0.3920 -1.4604 -2.8689
  629MOL0     H82994   5.455   9.685  -0.118 -0.0302  0.4227 -1.7301
  629MOL0     H82995   5.279   9.696  -0.048  0.8565 -0.6013  1.1280
  629MOL0     H82996   5.443   9.774   0.130  1.5063 -0.2525 -0.5269
  629MOL0     H82997   5.334   9.905   0.062 -2.1193 -1.1952 -2.5221
  629MOL0     H82998   5.554   9.991   0.074  0.9869 -1.3743 -0.0761
  629MOL0     H82999   5.530   9.960  -0.097  1.1306  0.7483  1.2322
  629MOL0     H83000   5.689   9.811   0.116  0.6070  4.4721  1.1767
  629MOL0     H83001   5.671   9.741  -0.047 -1.4094 -2.4054  3.5371
  629MOL0     H83002   5.804  10.010   0.006 -2.2410  0.8613  0.2248
  629MOL0     H83003   5.768   9.945  -0.149  1.7031  1.8691  0.4393
  629MOL0     H83004   5.982   9.899  -0.111 -0.7707  0.2759  2.0113
  629MOL0     H83005   5.906   9.738  -0.093  3.9146  0.0343 -2.9508
  629MOL0     H83006   6.007   9.930   0.127  1.9287 -0.5519  1.0409
  629MOL0     H83007   5.913   9.790   0.167 -3.2651  0.4525 -2.5009
  629MOL0     H83008   6.190   9.818   0.031  2.6081 -2.0643  0.9221
  629MOL0     H83009   6.118   9.668   0.032  2.5318 -0.3711 -0.3832
  629MOL0     H83010   5.135   9.963  -0.313 -4.9146 -0.5368 -0.7770
  629MOL0     H83011   5.006   9.898  -0.485  1.4587  0.3019 -0.5603
  629MOL0     H83012   4.770   9.512  -0.595  1.0993  0.5449  0.4999
  629MOL0     H83013   4.574   9.420  -0.701 -0.2870 -2.3432 -2.0207
  629MOL0     H83014   3.086   9.705  -0.443  1.1917 -1.2799 -1.3271
  629MOL0     H83015   3.119   9.735  -0.201 -0.6576  1.6513 -0.6085
  629MOL0     H83016   3.208   9.857   0.251 -1.4543 -1.4570 -1.6427
  629MOL0     H83017   3.226   9.758   0.477 -0.7657  1.2528 -0.0628
  629MOL0     H83018   3.273   9.604   0.717  1.4547 -0.9649  1.2347
  629MOL0     H83019   3.366   9.721   0.636 -2.1098 -0.5240 -2.6259
  629MOL0     H83020   3.446   9.449   0.748  0.1602 -0.4627 -2.3132
  629MOL0     H83021   3.558   9.543   0.652  0.3920 -2.1833  0.1028
  629MOL0     H83022   3.504   9.566   0.935 -0.3299  1.4704  1.7072
  629MOL0     H83023   3.435   9.711   0.866 -1.0381 -1.2274  1.9543
  629MOL0     H83024   3.648   9.785   0.933  3.0149  0.6412 -1.0184
  629MOL0     H83025   3.705   9.621   0.921 -0.0528 -1.3365 -1.8505
  629MOL0     H83026   3.852   9.778   0.559  0.0161 -0.0818 -0.5510
  629MOL0     H83027   3.419   9.415   0.332 -2.8117 -0.9901 -1.6114
  629MOL0     H83028   3.416   9.503   0.102  1.9665  0.8461  1.3838
  630MOL0     O83029   8.818   5.467   0.639  0.0408 -0.6454 -0.1007
  630MOL0     C83030   8.814   5.589   0.670 -0.4461 -0.5693  0.0141
  630MOL0     O83031   8.916   5.680   0.630  0.3804 -0.0498  0.3553
  630MOL0     C83032   9.031   5.633   0.576 -0.3529  0.1403  0.0863
  630MOL0     C83033   9.103   5.707   0.479  0.2693 -0.2940 -0.7318
  630MOL0     C83034   9.227   5.674   0.433  0.0765  0.1319  0.1764
  630MOL0     C83035   9.296   5.558   0.486 -0.0475 -0.0793  0.8649
  630MOL0     O83036   9.421   5.509   0.447  0.2806 -0.4119  0.4732
  630MOL0     C83037   9.466   5.545   0.312  0.5318  1.0466  0.2973
  630MOL0     C83038   9.571   5.447   0.269 -0.0628 -0.1997 -0.6609
  630MOL0     C83039   9.523   5.311   0.254  0.0583 -0.1017 -0.5352
  630MOL0     C83040   9.424   5.289   0.152 -0.3513 -0.3348 -0.1441
  630MOL0     C83041   9.406   5.144   0.111  0.4761  0.4599 -0.2729
  630MOL0     C83042   9.315   5.131  -0.022 -0.3672  0.5783 -0.5031
  630MOL0     C83043   9.372   5.015  -0.123  0.2563 -1.2313 -0.1290
  630MOL0     C83044   9.341   4.868  -0.083  0.2501 -1.0195  0.3519
  630MOL0     N83045   9.199   4.842  -0.107 -0.3373  0.0724 -0.5274
  630MOL0     C83046   9.108   4.845   0.001  0.7929 -0.0918 -0.1182
  630MOL0     C83047   8.990   4.815  -0.057 -0.7216 -1.1805 -0.0771
  630MOL0     C83048   8.851   4.801   0.007 -0.4644  0.1768 -0.6664
  630MOL0     C83049   8.766   4.926  -0.006  0.0118 -0.4976  0.4029
  630MOL0     C83050   8.633   4.900   0.053 -0.7244  0.1166  0.7434
  630MOL0     C83051   8.524   4.997   0.019 -0.2213 -0.0955  0.6085
  630MOL0     O83052   8.408   4.970   0.098  0.4127 -0.4597 -0.3075
  630MOL0     C83053   8.289   5.021   0.062  0.2262  0.2783 -0.0971
  630MOL0     C83054   8.274   5.125  -0.033 -0.3506 -0.2902 -0.9475
  630MOL0     C83055   8.150   5.170  -0.081 -0.4695 -0.3104 -0.4432
  630MOL0     C83056   8.032   5.111  -0.024  0.1450 -1.2650  0.0955
  630MOL0     C83057   7.902   5.164  -0.082 -0.0169  0.0585 -0.3069
  630MOL0     O83058   7.799   5.078  -0.068 -0.2226 -0.2865  0.6317
  630MOL0     C83059   7.679   5.101  -0.128  0.1491  0.5154 -0.2115
  630MOL0     C83060   7.605   5.215  -0.099 -0.0197  0.0064 -0.2336
  630MOL0     C83061   7.475   5.232  -0.144  0.2548 -0.0157  0.4055
  630MOL0     C83062   7.421   5.139  -0.240  0.1001  0.0624  0.2510
  630MOL0     O83063   7.289   5.148  -0.284  0.4602 -0.2195  1.0949
  630MOL0     C83064   7.243   5.283  -0.337 -1.0805  0.0735 -0.1239
  630MOL0     C83065   7.165   5.362  -0.234 -0.3317 -0.4878 -0.2560
  630MOL0     C83066   7.012   5.366  -0.257 -0.4699  0.2012 -0.5921
  630MOL0     C83067   6.953   5.419  -0.125  0.9232  0.6219 -0.4042
  630MOL0     C83068   6.798   5.381  -0.132  0.7442 -0.5401  0.2747
  630MOL0     C83069   6.707   5.488  -0.060 -0.8675  0.2240 -0.2243
  630MOL0     C83070   6.558   5.447  -0.037 -0.0838  0.1695 -0.6151
  630MOL0     C83071   6.479   5.536   0.051  0.8609  0.2044 -0.4842
  630MOL0    Cl83072   6.417   5.661  -0.066  0.0762 -0.1361 -0.1945
  630MOL0     C83073   7.493   5.021  -0.270  0.7141 -0.3069 -0.0481
  630MOL0     C83074   7.619   5.001  -0.211  0.1715  0.4569 -0.1427
  630MOL0     O83075   7.904   5.274  -0.135  0.0905 -0.6933  0.0709
  630MOL0     C83076   8.041   5.007   0.073  0.3845 -1.5371  0.7028
  630MOL0     C83077   8.169   4.966   0.111 -0.7702  0.0997 -1.1063
  630MOL0     N83078   9.010   4.798  -0.199  0.3764  0.3622 -0.6291
  630MOL0     N83079   9.134   4.822  -0.228 -0.1704  1.0558  0.0603
  630MOL0     C83080   9.229   5.485   0.596  0.6343 -0.0036  1.5469
  630MOL0     C83081   9.097   5.515   0.633  0.9848  1.0006 -0.2236
  630MOL0     C83082   8.683   5.658   0.689  0.9636 -0.1651  0.2349
  630MOL0     C83083   8.664   5.794   0.737  0.7730  0.4704 -0.2273
  630MOL0     C83084   8.538   5.858   0.740 -0.1046  0.1520 -0.2890
  630MOL0     C83085   8.424   5.792   0.723  0.8315 -0.0162 -0.3482
  630MOL0     O83086   8.307   5.858   0.765 -0.0471 -0.0841 -0.1532
  630MOL0     C83087   8.175   5.793   0.763 -0.7206  0.6164 -0.7377
  630MOL0     C83088   8.086   5.853   0.659 -0.2261  0.4310  0.2375
  630MOL0     C83089   8.140   5.835   0.505  0.6377  0.4604 -0.3704
  630MOL0     C83090   8.046   5.907   0.410  0.0459 -0.5292  0.0390
  630MOL0     C83091   7.915   5.842   0.376  0.0306  0.4842  0.0436
  630MOL0     C83092   7.803   5.781   0.373 -0.0667 -0.3786 -0.2601
  630MOL0     C83093   8.441   5.647   0.708  1.2447 -0.7551  0.5276
  630MOL0     C83094   8.562   5.586   0.672  0.0837 -0.3057 -0.9422
  630MOL0     H83095   9.066   5.806   0.452  2.5569  0.9880  0.5576
  630MOL0     H83096   9.273   5.742   0.362 -1.0008  1.7544  0.9933
  630MOL0     H83097   9.500   5.648   0.296  1.2861  0.4199 -2.9579
  630MOL0     H83098   9.384   5.537   0.239 -0.9229  0.8977  1.8898
  630MOL0     H83099   9.658   5.448   0.335 -1.6795 -1.9590  1.6664
  630MOL0     H83100   9.604   5.487   0.172  1.1194 -0.8388 -0.5394
  630MOL0     H83101   9.489   5.265   0.347  1.7468  1.1208  0.7642
  630MOL0     H83102   9.613   5.253   0.231 -0.5274 -0.9171 -0.7902
  630MOL0     H83103   9.325   5.318   0.187 -1.2653 -1.9066 -1.2899
  630MOL0     H83104   9.440   5.341   0.057  1.6132  1.2139  0.9740
  630MOL0     H83105   9.373   5.083   0.196  0.2263  1.3774  0.3070
  630MOL0     H83106   9.503   5.103   0.082  0.3483 -3.1988  3.5643
  630MOL0     H83107   9.320   5.224  -0.078  0.4602  0.8018 -0.0786
  630MOL0     H83108   9.210   5.103  -0.005 -0.7408 -0.1370 -3.5165
  630MOL0     H83109   9.313   5.037  -0.212  4.0672  1.1892 -2.3778
  630MOL0     H83110   9.478   5.022  -0.152  1.3592 -0.6697  3.5005
  630MOL0     H83111   9.383   4.833   0.011  1.2646 -1.0704 -0.1076
  630MOL0     H83112   9.387   4.794  -0.149 -1.0553 -1.6595  0.1274
  630MOL0     H83113   9.129   4.871   0.105  0.3834 -1.8202  0.4197
  630MOL0     H83114   8.854   4.786   0.115 -2.3802  0.4996 -0.5391
  630MOL0     H83115   8.807   4.707  -0.025 -0.4288 -0.4451  1.0507
  630MOL0     H83116   8.757   4.943  -0.114 -0.1331 -1.1680  0.3036
  630MOL0     H83117   8.804   5.015   0.045  0.6486 -1.1172  1.0349
  630MOL0     H83118   8.601   4.795   0.048 -0.4808  0.0159  1.2134
  630MOL0     H83119   8.637   4.921   0.161 -1.5840 -1.3852  1.1053
  630MOL0     H83120   8.503   4.987  -0.088  1.2296  0.2361  0.2682
  630MOL0     H83121   8.565   5.097   0.036 -1.9400  1.1293 -1.7684
  630MOL0     H83122   8.366   5.160  -0.079 -0.2258  2.2691  1.0342
  630MOL0     H83123   8.150   5.249  -0.156  0.3016  0.5574  0.4419
  630MOL0     H83124   7.651   5.294  -0.041 -0.2020  0.9702 -1.3658
  630MOL0     H83125   7.431   5.331  -0.132  1.0567  0.3300  0.5737
  630MOL0     H83126   7.185   5.280  -0.430 -0.8055  1.0448 -0.3370
  630MOL0     H83127   7.330   5.344  -0.360  0.0859 -0.1744  3.1438
  630MOL0     H83128   7.197   5.466  -0.242  2.4517 -1.2654 -0.0234
  630MOL0     H83129   7.190   5.315  -0.138  0.1280 -2.4055 -1.2678
  630MOL0     H83130   6.974   5.265  -0.274 -0.5312  0.0355  0.4742
  630MOL0     H83131   6.992   5.431  -0.343 -3.3193  1.3113  0.7617
  630MOL0     H83132   6.999   5.370  -0.039  0.4846 -0.4466 -0.7626
  630MOL0     H83133   6.971   5.527  -0.118 -0.7872  0.8281  2.9554
  630MOL0     H83134   6.776   5.281  -0.091 -2.0462 -0.5568 -1.0122
  630MOL0     H83135   6.758   5.380  -0.233  0.9295  0.0742  0.1922
  630MOL0     H83136   6.709   5.579  -0.122  0.7838  0.8970  0.7481
  630MOL0     H83137   6.759   5.507   0.034 -1.4609 -1.3116  0.4493
  630MOL0     H83138   6.515   5.444  -0.137  1.2149  1.5091 -1.2428
  630MOL0     H83139   6.551   5.349   0.011  0.7594 -0.4865 -1.8017
  630MOL0     H83140   6.531   5.581   0.136  0.5055 -0.0247 -0.1432
  630MOL0     H83141   6.395   5.490   0.103  2.4232  0.8947  2.8888
  630MOL0     H83142   7.455   4.943  -0.334  1.1859  0.6591 -1.5556
  630MOL0     H83143   7.675   4.911  -0.232 -0.9144 -0.0624 -0.9082
  630MOL0     H83144   7.960   4.968   0.134 -1.4848  0.2358 -0.5144
  630MOL0     H83145   8.186   4.884   0.181  1.5990 -0.4686 -2.2403
  630MOL0     H83146   9.266   5.397   0.648 -2.0575  0.1977  4.0604
  630MOL0     H83147   9.054   5.447   0.705 -0.6340  3.2384  1.0593
  630MOL0     H83148   8.749   5.853   0.769  0.4934  0.8125 -0.1023
  630MOL0     H83149   8.533   5.962   0.769 -0.6829 -0.1162  0.6175
  630MOL0     H83150   8.130   5.802   0.863 -1.4334  0.3471 -1.0221
  630MOL0     H83151   8.183   5.687   0.740  0.9708  0.4450  0.4357
  630MOL0     H83152   7.992   5.797   0.663  0.2170 -0.4233 -0.7975
  630MOL0     H83153   8.066   5.957   0.686  2.3965  0.6013  1.8825
  630MOL0     H83154   8.133   5.730   0.475 -0.0659 -0.2097  1.9124
  630MOL0     H83155   8.243   5.870   0.497  1.7497 -1.8592  2.1202
  630MOL0     H83156   8.025   6.004   0.456  0.9763  0.5807 -1.7739
  630MOL0     H83157   8.094   5.914   0.312  0.7236 -0.4834  0.3642
  630MOL0     H83158   7.710   5.728   0.374 -1.4682  1.9113 -1.0228
  630MOL0     H83159   8.355   5.583   0.721  0.2659  0.5961  0.8951
  630MOL0     H83160   8.568   5.484   0.636  0.1553  0.6251 -3.8835
  631MOL0     O83161   3.835   1.361   1.071 -0.4169 -0.8213 -0.3269
  631MOL0     C83162   3.879   1.482   1.087  0.2735 -0.1116  1.0079
  631MOL0     O83163   3.817   1.579   1.168 -0.8300  0.3028  0.0535
  631MOL0     C83164   3.708   1.536   1.236  0.5836 -0.6812 -1.0440
  631MOL0     C83165   3.593   1.504   1.162  0.8905 -0.1422  0.9746
  631MOL0     C83166   3.469   1.467   1.221  0.2509  0.5716 -0.5124
  631MOL0     C83167   3.461   1.480   1.363 -0.0028 -0.2255 -0.0486
  631MOL0     O83168   3.336   1.444   1.418  0.2282 -0.5352  0.3082
  631MOL0     C83169   3.306   1.500   1.555  0.5795  0.6592 -0.3213
  631MOL0     C83170   3.164   1.444   1.581  0.4726 -0.1221  0.2620
  631MOL0     C83171   3.150   1.292   1.579  0.1663 -0.8077 -0.6407
  631MOL0     C83172   3.017   1.247   1.633 -0.1698 -0.1990 -0.5671
  631MOL0     C83173   2.994   1.248   1.783  0.6521 -0.5936  0.0663
  631MOL0     C83174   2.844   1.221   1.811 -0.2205 -0.7962 -0.6195
  631MOL0     C83175   2.806   1.269   1.949 -0.2638 -1.0591 -0.1925
  631MOL0     C83176   2.675   1.223   2.001 -0.0406  0.0553  0.3163
  631MOL0     N83177   2.558   1.287   1.933 -0.3495  0.2779 -0.0819
  631MOL0     C83178   2.477   1.232   1.837 -0.6913  0.7421  0.5264
  631MOL0     C83179   2.396   1.329   1.785 -0.0952 -0.4279  0.0117
  631MOL0     C83180   2.309   1.319   1.666  0.1890  0.2105  0.0393
  631MOL0     C83181   2.171   1.259   1.689 -0.0241  0.3883 -0.0518
  631MOL0     C83182   2.105   1.208   1.560  0.9732  0.8794 -0.3103
  631MOL0     C83183   1.975   1.116   1.581 -0.3225 -0.3238 -0.5949
  631MOL0     O83184   1.879   1.209   1.632  0.1666 -1.0503 -0.4562
  631MOL0     C83185   1.751   1.165   1.623 -1.0624 -0.8901  0.8229
  631MOL0     C83186   1.707   1.031   1.627 -0.2960  0.7590  0.7860
  631MOL0     C83187   1.572   0.999   1.618 -0.1879 -0.1035 -0.7867
  631MOL0     C83188   1.471   1.105   1.597  0.0449 -0.3285 -0.4751
  631MOL0     C83189   1.329   1.068   1.587 -0.4650 -0.5180 -0.3918
  631MOL0     O83190   1.239   1.169   1.590  0.1113  0.2887 -0.4410
  631MOL0     C83191   1.111   1.135   1.598 -0.8381  0.1721  0.9946
  631MOL0     C83192   1.030   1.159   1.485 -0.1326 -0.2978  0.4023
  631MOL0     C83193   0.886   1.131   1.484  0.3247 -0.1553  0.4359
  631MOL0     C83194   0.821   1.077   1.601 -0.3734 -0.9991  0.3504
  631MOL0     O83195   0.693   1.050   1.628  0.2478  0.0902  0.8366
  631MOL0     C83196   0.592   1.074   1.530  0.6207  0.6948  1.4767
  631MOL0     C83197   0.474   0.981   1.556 -0.4528  0.0461 -0.5704
  631MOL0     C83198   0.358   1.010   1.469 -0.6834 -0.1337  0.7997
  631MOL0     C83199   0.232   0.937   1.511  0.1361 -0.2424 -0.4807
  631MOL0     C83200   0.103   1.006   1.458 -0.9065 -0.3408  0.3861
  631MOL0     C83201   0.067   1.141   1.523  0.1385  0.3390 -0.5835
  631MOL0     C83202  -0.045   1.223   1.453 -0.2538 -0.4887  0.4739
  631MOL0     C83203  -0.188   1.176   1.481 -0.7398  0.2925 -0.9187
  631MOL0    Cl83204  -0.298   1.308   1.472 -0.0696 -0.5830 -0.2572
  631MOL0     C83205   0.901   1.066   1.719  0.1977 -0.6295 -0.3757
  631MOL0     C83206   1.044   1.099   1.716 -0.7555  0.2880 -0.5098
  631MOL0     O83207   1.304   0.950   1.588 -0.7245 -0.3178  0.3812
  631MOL0     C83208   1.519   1.236   1.588  0.2847  0.2022 -0.1381
  631MOL0     C83209   1.653   1.267   1.610 -0.6553 -0.3236 -0.4425
  631MOL0     N83210   2.434   1.450   1.840 -1.3799  0.4618 -0.0447
  631MOL0     N83211   2.530   1.417   1.928  0.2371  0.3401 -1.0265
  631MOL0     C83212   3.577   1.521   1.443 -0.6218 -0.0235 -0.0930
  631MOL0     C83213   3.703   1.538   1.377 -0.2988  0.7167  0.0091
  631MOL0     C83214   3.997   1.520   1.022 -0.2372  0.2999  0.5422
  631MOL0     C83215   4.021   1.647   0.981  1.0031 -0.0858 -0.3412
  631MOL0     C83216   4.147   1.684   0.926 -0.5013  0.3318  0.0693
  631MOL0     C83217   4.242   1.584   0.899 -0.5560  0.7165 -0.1336
  631MOL0     O83218   4.369   1.609   0.851 -0.6596  0.1210 -0.2636
  631MOL0     C83219   4.388   1.710   0.752  0.2352 -0.1634  0.4290
  631MOL0     C83220   4.513   1.688   0.674 -1.0629  0.2342 -0.1552
  631MOL0     C83221   4.646   1.706   0.752 -0.2012 -0.1634 -0.3288
  631MOL0     C83222   4.779   1.678   0.683 -0.0873  0.4240  0.3321
  631MOL0     C83223   4.781   1.753   0.555 -0.7978 -0.9163 -0.2191
  631MOL0     C83224   4.779   1.824   0.456  0.4973  0.4731 -0.0456
  631MOL0     C83225   4.207   1.455   0.913 -0.6737 -0.3569  0.2433
  631MOL0     C83226   4.090   1.420   0.976 -0.8997 -0.1880 -0.5679
  631MOL0     H83227   3.593   1.511   1.054 -2.0149 -0.5952  0.8727
  631MOL0     H83228   3.381   1.442   1.163 -0.5546  0.9294  0.5347
  631MOL0     H83229   3.309   1.609   1.559  2.0546  0.6402 -0.3521
  631MOL0     H83230   3.382   1.464   1.625  0.6332  2.1230  0.3896
  631MOL0     H83231   3.107   1.493   1.502  3.6880  1.2667 -1.3569
  631MOL0     H83232   3.131   1.490   1.674 -1.3567  2.0008 -1.3323
  631MOL0     H83233   3.231   1.244   1.635  0.0207  1.1245  1.3502
  631MOL0     H83234   3.158   1.248   1.479 -1.7807 -2.8899  0.0286
  631MOL0     H83235   2.941   1.317   1.597  0.0571  1.9450  2.6424
  631MOL0     H83236   2.996   1.144   1.605 -0.4122 -0.3359  0.1005
  631MOL0     H83237   3.019   1.334   1.846  0.1856 -0.8259  0.5762
  631MOL0     H83238   3.060   1.174   1.828 -1.2121 -0.9031  2.5406
  631MOL0     H83239   2.812   1.118   1.798 -1.7157 -0.6088  1.2003
  631MOL0     H83240   2.779   1.272   1.738  0.5778 -1.0072 -1.5068
  631MOL0     H83241   2.890   1.247   2.016 -0.9443  1.2080  1.5268
  631MOL0     H83242   2.810   1.377   1.936  1.5293 -1.0345  0.3487
  631MOL0     H83243   2.668   1.243   2.109  0.5025 -0.0596  0.3753
  631MOL0     H83244   2.667   1.115   1.993 -2.2576  0.1624  0.2009
  631MOL0     H83245   2.491   1.126   1.818  0.5936  0.4065  2.9640
  631MOL0     H83246   2.356   1.243   1.603  2.3003  1.3718  0.1083
  631MOL0     H83247   2.316   1.412   1.607  2.4211  2.3014  3.2783
  631MOL0     H83248   2.104   1.331   1.739  0.5911  0.5875  0.4996
  631MOL0     H83249   2.178   1.171   1.754 -0.2434  0.2219 -0.2532
  631MOL0     H83250   2.073   1.299   1.508 -4.3285 -1.0430 -1.0159
  631MOL0     H83251   2.178   1.142   1.514  0.0630 -1.5109  1.4795
  631MOL0     H83252   1.991   1.036   1.654 -0.2414  0.6205  0.4336
  631MOL0     H83253   1.953   1.080   1.480  1.8572  2.8287 -2.3912
  631MOL0     H83254   1.777   0.948   1.627 -2.6391 -1.3658  2.7930
  631MOL0     H83255   1.527   0.901   1.612 -3.8680  1.4426 -2.0400
  631MOL0     H83256   1.083   1.181   1.393 -1.0527 -4.7102 -1.4629
  631MOL0     H83257   0.830   1.150   1.393  2.0546 -0.8338 -0.8271
  631MOL0     H83258   0.631   1.035   1.436 -0.5747  1.0309  0.8265
  631MOL0     H83259   0.562   1.179   1.534 -1.4366  0.3351 -1.5103
  631MOL0     H83260   0.448   0.998   1.661  2.2388  1.4282 -0.0256
  631MOL0     H83261   0.505   0.876   1.545 -1.5824 -0.2918 -0.6915
  631MOL0     H83262   0.378   0.957   1.376 -2.4446 -0.1507  0.3965
  631MOL0     H83263   0.348   1.116   1.445  0.7476 -0.4897 -1.6170
  631MOL0     H83264   0.227   0.836   1.469  0.3658 -0.0982 -0.8531
  631MOL0     H83265   0.215   0.937   1.619 -2.3029  0.1717 -0.8235
  631MOL0     H83266   0.020   0.937   1.473  0.9306 -2.8142 -0.1812
  631MOL0     H83267   0.116   1.025   1.351  1.7438 -0.6532  0.5793
  631MOL0     H83268   0.155   1.205   1.530 -0.6062  1.2125  1.2759
  631MOL0     H83269   0.038   1.120   1.626 -1.0238 -0.8406 -1.1173
  631MOL0     H83270  -0.045   1.327   1.486  2.2337 -0.2781  0.0128
  631MOL0     H83271  -0.016   1.234   1.348 -0.9782 -1.0176  0.2075
  631MOL0     H83272  -0.181   1.140   1.584  0.8592  1.0228 -0.7482
  631MOL0     H83273  -0.223   1.093   1.419 -2.3081 -0.1008  0.4279
  631MOL0     H83274   0.854   1.027   1.809  1.8893  0.2573  0.9521
  631MOL0     H83275   1.103   1.091   1.806  1.2060 -0.8925 -1.8079
  631MOL0     H83276   1.451   1.318   1.567  0.2198  0.7016  1.8058
  631MOL0     H83277   1.681   1.372   1.607  0.2248 -0.5813 -2.0753
  631MOL0     H83278   3.567   1.529   1.551 -0.6150 -0.0058 -0.0937
  631MOL0     H83279   3.793   1.555   1.434 -0.2736 -2.4283  1.0847
  631MOL0     H83280   3.952   1.721   1.021 -0.7029 -2.1793  0.8279
  631MOL0     H83281   4.173   1.788   0.907 -0.0320  0.6605  2.3123
  631MOL0     H83282   4.388   1.799   0.816 -2.7363  2.3755 -2.7037
  631MOL0     H83283   4.296   1.712   0.692  1.1609 -0.8427 -1.0650
  631MOL0     H83284   4.513   1.585   0.639  0.3002  0.3981 -0.7089
  631MOL0     H83285   4.509   1.755   0.588 -5.6118 -1.6844 -1.7373
  631MOL0     H83286   4.641   1.650   0.846 -1.9606  1.0629  0.3618
  631MOL0     H83287   4.646   1.807   0.794  0.3653 -0.7997  1.2707
  631MOL0     H83288   4.862   1.711   0.746  0.1693  1.1888 -0.3900
  631MOL0     H83289   4.793   1.570   0.671 -1.5995  0.2130  0.3084
  631MOL0     H83290   4.787   1.885   0.369  2.8429  1.3612  0.7178
  631MOL0     H83291   4.273   1.380   0.872  1.2347  2.2452 -1.7708
  631MOL0     H83292   4.074   1.318   1.009  0.6625  0.0544  1.0476
  632MOL0     O83293   7.923  11.273   2.431 -0.2177  0.1913 -0.8988
  632MOL0     C83294   7.912  11.224   2.541 -0.2109  0.5857  0.8801
  632MOL0     O83295   8.017  11.188   2.630 -0.1697 -0.6340  0.2096
  632MOL0     C83296   8.144  11.203   2.566  0.5222  0.2898 -0.1179
  632MOL0     C83297   8.178  11.328   2.504 -0.2090  0.5033  0.5440
  632MOL0     C83298   8.308  11.338   2.440  0.3083 -0.5405 -1.0506
  632MOL0     C83299   8.396  11.228   2.433 -0.4527 -0.1386  0.2207
  632MOL0     O83300   8.506  11.250   2.347  0.4637  0.5378 -0.2851
  632MOL0     C83301   8.598  11.138   2.349  0.2238  0.4169  0.0597
  632MOL0     C83302   8.744  11.168   2.308 -0.0633 -0.0597  0.8980
  632MOL0     C83303   8.796  11.300   2.367  0.2276 -0.1916 -0.1642
  632MOL0     C83304   8.937  11.346   2.333 -0.1180  0.3283  0.0464
  632MOL0     C83305   8.982  11.466   2.430  1.0154  0.5937  0.2577
  632MOL0     C83306   9.136  11.495   2.434  0.7794  0.2838 -0.4198
  632MOL0     C83307   9.176  11.628   2.509  0.2595  0.3962 -0.2583
  632MOL0     C83308   9.312  11.671   2.458  0.4849 -0.2431 -0.5576
  632MOL0     N83309   9.426  11.604   2.518 -0.4578 -0.5359 -0.2079
  632MOL0     C83310   9.477  11.485   2.467 -0.1358 -0.2376 -0.0790
  632MOL0     C83311   9.598  11.477   2.519  0.0295 -0.4156  0.7709
  632MOL0     C83312   9.681  11.351   2.499 -0.5144 -0.1917  0.0067
  632MOL0     C83313   9.663  11.246   2.611 -0.5177  0.2929  0.3972
  632MOL0     C83314   9.594  11.121   2.542 -0.2050  0.6712  0.2131
  632MOL0     C83315   9.438  11.131   2.534 -0.0140 -0.2103  0.2845
  632MOL0     O83316   9.375  11.112   2.663  0.5193 -0.2604 -0.3840
  632MOL0     C83317   9.244  11.073   2.663 -0.0814  0.8344  0.2603
  632MOL0     C83318   9.148  11.166   2.675 -0.4242 -0.2302  0.3813
  632MOL0     C83319   9.009  11.131   2.663 -0.7284  0.1334  0.3362
  632MOL0     C83320   8.979  10.999   2.637 -0.2576 -0.2424  0.3096
  632MOL0     C83321   8.841  10.959   2.633  0.1099  0.0344  0.2840
  632MOL0     O83322   8.807  10.846   2.562  0.4523  0.0503  0.3753
  632MOL0     C83323   8.680  10.799   2.577 -0.2398 -0.4055  1.2487
  632MOL0     C83324   8.650  10.740   2.689  0.1337  0.0723  0.0806
  632MOL0     C83325   8.524  10.688   2.704 -0.1327 -0.1642 -0.1827
  632MOL0     C83326   8.420  10.706   2.605 -0.2647  0.3210  0.1011
  632MOL0     O83327   8.286  10.654   2.618 -0.4235 -0.5806 -1.1255
  632MOL0     C83328   8.275  10.525   2.680 -0.2841  0.2787  0.1740
  632MOL0     C83329   8.202  10.541   2.814 -0.0911  0.5940  0.4995
  632MOL0     C83330   8.178  10.403   2.858 -0.1403  0.1283 -1.4822
  632MOL0     C83331   8.061  10.406   2.958 -0.2080 -0.2585 -0.9611
  632MOL0     C83332   8.018  10.260   2.993 -0.4558 -0.3511  0.1517
  632MOL0     C83333   7.877  10.242   3.049 -0.6623  0.3072  0.2040
  632MOL0     C83334   7.840  10.096   3.057 -0.0553 -0.7964 -1.1835
  632MOL0     C83335   7.689  10.075   3.074  0.9706 -0.3681 -0.3674
  632MOL0    Cl83336   7.626  10.154   3.221 -0.2863  0.2231  0.5965
  632MOL0     C83337   8.460  10.762   2.487  0.2694  0.0606  0.4588
  632MOL0     C83338   8.588  10.802   2.472  0.1423  0.7846 -1.0258
  632MOL0     O83339   8.758  11.027   2.690  0.7460 -0.0946  0.4158
  632MOL0     C83340   9.082  10.901   2.631 -0.5197 -0.0443  0.6712
  632MOL0     C83341   9.212  10.942   2.641 -1.0072 -0.1500  0.3646
  632MOL0     N83342   9.621  11.591   2.600 -0.2800  0.9335 -0.3834
  632MOL0     N83343   9.511  11.667   2.606 -0.2683 -0.1554 -0.6829
  632MOL0     C83344   8.353  11.109   2.501 -0.0594 -0.1576 -0.1783
  632MOL0     C83345   8.234  11.101   2.574 -0.0753  1.2260  0.0139
  632MOL0     C83346   7.779  11.195   2.581  0.5394 -0.3811 -0.7594
  632MOL0     C83347   7.756  11.108   2.692  0.1587  0.0573  0.5543
  632MOL0     C83348   7.624  11.078   2.729 -0.8886 -0.2816 -0.0474
  632MOL0     C83349   7.508  11.125   2.666  0.0758  0.3209 -0.4117
  632MOL0     O83350   7.386  11.089   2.720 -0.2932  0.3667  0.0249
  632MOL0     C83351   7.267  11.112   2.638 -0.3577 -0.2063  0.0114
  632MOL0     C83352   7.160  11.014   2.685  1.0377 -0.5587  0.4534
  632MOL0     C83353   7.164  10.999   2.838 -0.8493 -0.0625  0.3969
  632MOL0     C83354   7.047  10.912   2.869  1.0807 -0.4356 -0.9479
  632MOL0     C83355   6.922  10.994   2.863  0.0095  0.5010 -0.3007
  632MOL0     C83356   6.831  11.079   2.879  0.1509  0.9443  0.5803
  632MOL0     C83357   7.529  11.212   2.558  0.0818 -0.7171  0.1182
  632MOL0     C83358   7.659  11.248   2.518 -0.6017  0.4775 -0.3608
  632MOL0     H83359   8.115  11.416   2.502  0.5548  1.0538 -0.4202
  632MOL0     H83360   8.338  11.434   2.399 -0.3712 -0.4616 -1.3859
  632MOL0     H83361   8.554  11.058   2.289  2.6812  1.1303 -2.9442
  632MOL0     H83362   8.611  11.101   2.452  1.2473 -0.4269 -0.3546
  632MOL0     H83363   8.756  11.160   2.199  2.9521 -0.8283  1.2220
  632MOL0     H83364   8.808  11.086   2.341 -0.8156 -1.0045  0.1076
  632MOL0     H83365   8.786  11.300   2.476  0.0496 -0.7824 -0.1771
  632MOL0     H83366   8.742  11.385   2.325  0.2339 -0.7717 -1.3976
  632MOL0     H83367   9.007  11.265   2.356  1.3092  2.1208  2.5394
  632MOL0     H83368   8.958  11.377   2.231  1.3508 -2.4035 -0.5677
  632MOL0     H83369   8.939  11.446   2.529 -2.0194  0.3217 -1.0005
  632MOL0     H83370   8.930  11.558   2.405 -0.0753 -0.3624 -1.2113
  632MOL0     H83371   9.161  11.514   2.329 -0.9252  0.6044 -0.8008
  632MOL0     H83372   9.184  11.408   2.480 -1.1313 -1.1041 -0.9124
  632MOL0     H83373   9.100  11.706   2.496  1.5655  1.6645 -0.4295
  632MOL0     H83374   9.183  11.610   2.617  3.6925 -1.1566 -0.6195
  632MOL0     H83375   9.305  11.776   2.489  0.2968 -0.6033  0.6464
  632MOL0     H83376   9.328  11.674   2.350 -0.0701 -0.9806 -0.6672
  632MOL0     H83377   9.432  11.418   2.395 -0.9726 -1.2348  1.3141
  632MOL0     H83378   9.783  11.387   2.513  0.9526 -3.8852 -0.0868
  632MOL0     H83379   9.674  11.315   2.396  0.7489  0.1613 -0.2239
  632MOL0     H83380   9.611  11.281   2.700  1.9481 -0.8987  2.4394
  632MOL0     H83381   9.762  11.211   2.644  0.3220  0.3274 -1.8473
  632MOL0     H83382   9.640  11.111   2.443 -0.7056  0.6849 -0.0233
  632MOL0     H83383   9.619  11.030   2.596  1.2391 -0.3339 -2.0159
  632MOL0     H83384   9.406  11.061   2.457  0.6104 -0.5942  0.3731
  632MOL0     H83385   9.404  11.226   2.491  1.2472  1.8951  3.5126
  632MOL0     H83386   9.175  11.267   2.704 -2.6228  0.6843 -0.5253
  632MOL0     H83387   8.931  11.206   2.674 -1.4719 -0.3104 -1.5462
  632MOL0     H83388   8.724  10.744   2.768  1.4252  0.6619 -1.1208
  632MOL0     H83389   8.510  10.630   2.794  2.7324 -0.5998  0.0814
  632MOL0     H83390   8.373  10.477   2.691 -1.1971 -1.2059  2.7276
  632MOL0     H83391   8.209  10.462   2.620 -0.3255 -0.5129  1.0270
  632MOL0     H83392   8.113  10.603   2.801  1.2211  2.0464 -2.3237
  632MOL0     H83393   8.263  10.601   2.883 -1.3733  2.9900 -0.3265
  632MOL0     H83394   8.279  10.371   2.886  0.3008 -0.4833 -3.5522
  632MOL0     H83395   8.145  10.345   2.772 -1.9669  0.7778 -1.2581
  632MOL0     H83396   8.092  10.463   3.046 -0.8946 -1.8035  0.3419
  632MOL0     H83397   7.976  10.455   2.909 -0.6723 -0.6940 -0.6059
  632MOL0     H83398   8.079  10.214   3.071  0.0548 -3.1134 -1.6942
  632MOL0     H83399   8.020  10.200   2.901 -0.9014 -0.5267  0.2560
  632MOL0     H83400   7.798  10.289   2.989 -1.8384 -1.7936  0.0028
  632MOL0     H83401   7.875  10.296   3.145  0.8069  2.0998 -0.7117
  632MOL0     H83402   7.876  10.035   2.974 -3.3859 -0.8824 -2.7320
  632MOL0     H83403   7.895  10.051   3.141 -4.2316  3.4295  4.6062
  632MOL0     H83404   7.669   9.969   3.091 -1.2284  0.3738  2.2927
  632MOL0     H83405   7.628  10.097   2.985 -0.7128  2.3335  1.3049
  632MOL0     H83406   8.400  10.762   2.396  5.4473 -1.9201 -3.4941
  632MOL0     H83407   8.616  10.835   2.372  0.2630 -1.0376 -1.6211
  632MOL0     H83408   9.048  10.801   2.606 -1.4048  0.9682 -2.7245
  632MOL0     H83409   9.292  10.874   2.669  1.1850  2.5534  1.1000
  632MOL0     H83410   8.401  11.013   2.483 -3.8869 -2.2476 -0.3488
  632MOL0     H83411   8.203  11.006   2.615 -1.8467  1.2261 -1.2264
  632MOL0     H83412   7.840  11.073   2.751  1.6150  1.9785 -0.2442
  632MOL0     H83413   7.609  11.015   2.816  0.2901  0.6129  0.8447
  632MOL0     H83414   7.297  11.102   2.534 -1.7731  1.4021 -0.5968
  632MOL0     H83415   7.221  11.210   2.654  0.4189  0.0909  0.4983
  632MOL0     H83416   7.068  11.056   2.643  1.9062  1.6897  0.6267
  632MOL0     H83417   7.164  10.917   2.636  0.5258 -0.6713  0.6232
  632MOL0     H83418   7.160  11.091   2.897 -3.3516  0.6096 -0.6685
  632MOL0     H83419   7.253  10.944   2.869  0.1592  1.7141  0.7822
  632MOL0     H83420   7.042  10.821   2.810 -1.5357  0.0043 -1.5264
  632MOL0     H83421   7.051  10.882   2.974 -0.6178  2.0350 -0.0900
  632MOL0     H83422   6.739  11.134   2.887  0.4663  1.6165 -0.2924
  632MOL0     H83423   7.452  11.265   2.504  1.1438  3.6899  2.4215
  632MOL0     H83424   7.678  11.333   2.454  0.5386  0.2666 -0.3243
  633MOL0     O83425   6.067   5.066   7.607 -0.2483 -0.1076 -0.0337
  633MOL0     C83426   6.181   5.083   7.646 -0.9921  0.7302  0.3595
  633MOL0     O83427   6.232   5.185   7.725  0.5291  0.0566  0.1742
  633MOL0     C83428   6.137   5.273   7.776  0.1899  0.0395  0.4861
  633MOL0     C83429   6.155   5.413   7.770 -0.6471 -0.2901  0.4892
  633MOL0     C83430   6.071   5.504   7.818  0.4557  0.0273 -0.3813
  633MOL0     C83431   5.952   5.457   7.874  0.1639 -0.5441 -0.2854
  633MOL0     O83432   5.877   5.557   7.940 -0.2397 -0.8429 -0.5139
  633MOL0     C83433   5.728   5.540   7.913 -0.0447 -0.8050  0.7716
  633MOL0     C83434   5.662   5.681   7.897  0.9146 -0.1661  0.2355
  633MOL0     C83435   5.514   5.688   7.878  0.0566  0.1602 -0.6115
  633MOL0     C83436   5.480   5.837   7.893 -0.6030  0.7979  0.2337
  633MOL0     C83437   5.333   5.864   7.904 -0.0546  0.2778  1.2756
  633MOL0     C83438   5.268   5.882   8.047  0.1468  0.1328 -0.3483
  633MOL0     C83439   5.115   5.896   8.041 -0.7050 -0.0703 -0.0306
  633MOL0     C83440   5.052   5.879   8.176 -0.2599 -0.3587 -0.1776
  633MOL0     N83441   4.906   5.900   8.171  0.1529  0.0853  0.2168
  633MOL0     C83442   4.809   5.805   8.186 -0.6336  1.4053 -0.1787
  633MOL0     C83443   4.697   5.869   8.202 -0.6128 -0.9773  0.0334
  633MOL0     C83444   4.563   5.809   8.226 -0.5467 -0.3861 -0.6089
  633MOL0     C83445   4.453   5.878   8.141 -0.2733 -0.3996 -1.0031
  633MOL0     C83446   4.410   6.018   8.192  0.1520 -0.5980 -0.2183
  633MOL0     C83447   4.263   6.035   8.168  0.3297  0.5350 -0.8990
  633MOL0     O83448   4.233   6.028   8.029 -0.6188 -0.2804  0.7866
  633MOL0     C83449   4.102   6.036   8.002  0.3220 -0.0941  0.1810
  633MOL0     C83450   4.062   5.986   7.882  0.4531  0.3947  0.4577
  633MOL0     C83451   3.935   6.006   7.827  0.0697  0.5243 -0.9764
  633MOL0     C83452   3.844   6.074   7.908  0.5972  0.0471 -0.9889
  633MOL0     C83453   3.702   6.086   7.860 -0.2586  0.2754 -0.3022
  633MOL0     O83454   3.671   6.153   7.742  0.1452 -0.0918 -1.1023
  633MOL0     C83455   3.548   6.149   7.687  0.1364  0.4818  0.3089
  633MOL0     C83456   3.479   6.030   7.682  0.9177  0.7640 -0.2531
  633MOL0     C83457   3.364   6.012   7.598  0.0665 -0.1477 -1.0097
  633MOL0     C83458   3.320   6.121   7.514 -0.0065  1.5302  0.1304
  633MOL0     O83459   3.211   6.117   7.424  0.1017 -0.2762  0.0578
  633MOL0     C83460   3.121   6.008   7.415  0.5964 -1.4820 -0.3991
  633MOL0     C83461   3.000   6.051   7.335 -0.5172  0.5994  0.3055
  633MOL0     C83462   2.868   6.053   7.422  0.0222 -0.2948 -0.0093
  633MOL0     C83463   2.746   6.056   7.335 -0.6401 -0.1087 -0.8747
  633MOL0     C83464   2.625   5.974   7.393  0.3156 -0.4655  0.0601
  633MOL0     C83465   2.513   5.977   7.297 -0.1392  0.6960 -0.3640
  633MOL0     C83466   2.382   5.907   7.351  0.2006  0.4312  0.7058
  633MOL0     C83467   2.278   5.870   7.250 -0.1096  0.1739  0.7224
  633MOL0    Cl83468   2.188   6.008   7.177  0.1419 -0.2172 -0.0874
  633MOL0     C83469   3.391   6.250   7.525 -0.1811  0.4783 -0.1453
  633MOL0     C83470   3.502   6.258   7.612 -0.8099 -0.4571 -0.1064
  633MOL0     O83471   3.618   6.040   7.946  0.3330 -0.0572 -0.4747
  633MOL0     C83472   3.873   6.111   8.036 -0.0398 -0.4483  0.3201
  633MOL0     C83473   4.006   6.099   8.084 -0.4544 -0.5227  0.3086
  633MOL0     N83474   4.718   6.007   8.206  0.5253  0.1891  0.3911
  633MOL0     N83475   4.847   6.019   8.193  0.4312  0.1839 -0.2364
  633MOL0     C83476   5.930   5.325   7.899 -0.1415  0.2323 -0.7772
  633MOL0     C83477   6.023   5.232   7.851  0.2811 -0.1311  0.0866
  633MOL0     C83478   6.293   5.007   7.581  0.3578  0.0845  0.5452
  633MOL0     C83479   6.429   5.013   7.616  0.2521  1.1549  0.2737
  633MOL0     C83480   6.527   4.918   7.567  0.0948 -1.0581  0.8763
  633MOL0     C83481   6.498   4.835   7.455  0.5466 -0.8405  0.1482
  633MOL0     O83482   6.584   4.761   7.387 -0.6589  0.4527 -0.1749
  633MOL0     C83483   6.719   4.757   7.432 -0.1537  0.5491 -0.2285
  633MOL0     C83484   6.798   4.669   7.327  0.3764 -0.2868  0.0567
  633MOL0     C83485   6.927   4.633   7.402 -0.4600  0.6404  0.0605
  633MOL0     C83486   7.022   4.561   7.303 -0.4151  0.0970 -0.0932
  633MOL0     C83487   6.994   4.414   7.313  0.4544  0.2126 -0.3921
  633MOL0     C83488   6.953   4.296   7.310  0.2486 -0.3946 -0.8894
  633MOL0     C83489   6.361   4.844   7.406 -1.2433 -0.2535  1.0490
  633MOL0     C83490   6.265   4.923   7.465  0.1535  0.3319 -0.6504
  633MOL0     H83491   6.249   5.453   7.732 -0.2974 -0.9365  0.6571
  633MOL0     H83492   6.091   5.611   7.818  0.8002  0.0033  1.7457
  633MOL0     H83493   5.688   5.474   7.990 -0.7774 -3.5396 -1.7689
  633MOL0     H83494   5.719   5.481   7.821  0.5712  0.1929  0.0520
  633MOL0     H83495   5.700   5.730   7.807 -0.4960 -0.6927 -0.6925
  633MOL0     H83496   5.682   5.742   7.985 -2.1316  0.5047  0.5670
  633MOL0     H83497   5.465   5.621   7.949  2.0938  0.8914  1.6249
  633MOL0     H83498   5.478   5.655   7.781 -2.9651  1.4607 -0.0314
  633MOL0     H83499   5.529   5.879   7.981  0.5787  1.4623 -0.7118
  633MOL0     H83500   5.511   5.882   7.799  1.2909 -1.3458 -0.2413
  633MOL0     H83501   5.279   5.784   7.852 -0.1188  1.0964  0.0512
  633MOL0     H83502   5.315   5.943   7.830  0.5377 -4.1602 -4.2736
  633MOL0     H83503   5.314   5.971   8.093 -2.6856  1.7361 -0.4296
  633MOL0     H83504   5.300   5.796   8.108  0.7062  2.4002  2.8138
  633MOL0     H83505   5.088   5.995   8.005  0.1789  0.2155  0.0777
  633MOL0     H83506   5.082   5.823   7.967 -0.9903  2.0913 -2.1180
  633MOL0     H83507   5.086   5.960   8.240 -0.5224  0.4337 -1.0094
  633MOL0     H83508   5.085   5.786   8.223  1.4375  0.1591 -0.2603
  633MOL0     H83509   4.824   5.698   8.189 -1.1796  1.3227 -0.1537
  633MOL0     H83510   4.538   5.814   8.332  1.4978 -1.0903 -0.0414
  633MOL0     H83511   4.553   5.704   8.195  1.1938 -0.9712  0.5992
  633MOL0     H83512   4.366   5.812   8.133 -0.5703 -0.1149 -0.1534
  633MOL0     H83513   4.492   5.875   8.038  0.8298 -2.3936 -0.5831
  633MOL0     H83514   4.431   6.022   8.299 -1.3580 -1.0414  0.1203
  633MOL0     H83515   4.463   6.101   8.143 -1.9716  1.1325  0.2638
  633MOL0     H83516   4.230   6.135   8.200 -2.3375  0.1327 -2.1556
  633MOL0     H83517   4.210   5.959   8.226  1.6286  1.1889  1.2663
  633MOL0     H83518   4.136   5.932   7.824  1.3168  0.9054  1.0551
  633MOL0     H83519   3.902   5.969   7.730  0.3486 -0.1116 -0.8311
  633MOL0     H83520   3.518   5.943   7.734  1.1688  2.5097  2.7174
  633MOL0     H83521   3.325   5.915   7.568 -0.5617  0.1417 -1.1395
  633MOL0     H83522   3.081   5.977   7.512 -0.0663 -2.9555 -1.1160
  633MOL0     H83523   3.176   5.923   7.373  2.6146 -0.7596  0.6656
  633MOL0     H83524   2.993   5.976   7.256 -0.7587 -1.9121  2.5956
  633MOL0     H83525   3.016   6.151   7.292 -0.7141  0.5126  0.0309
  633MOL0     H83526   2.874   6.142   7.486  1.6439 -0.0924 -0.3973
  633MOL0     H83527   2.859   5.962   7.482 -0.9194 -0.2408 -0.0415
  633MOL0     H83528   2.721   6.161   7.317  1.9314  1.1173  1.9432
  633MOL0     H83529   2.770   6.012   7.238 -2.8385  0.8740 -1.9460
  633MOL0     H83530   2.594   6.008   7.492  1.5613 -1.7105  0.9159
  633MOL0     H83531   2.660   5.871   7.398  0.3432 -0.4856 -0.4441
  633MOL0     H83532   2.552   5.929   7.206  1.1369  1.8699 -0.4784
  633MOL0     H83533   2.493   6.084   7.291  1.1721  1.0252  0.6892
  633MOL0     H83534   2.394   5.809   7.399 -2.9927  0.5370  1.9589
  633MOL0     H83535   2.338   5.971   7.428  2.7901 -0.2973  2.9806
  633MOL0     H83536   2.207   5.809   7.307  0.5002  0.9956  2.4374
  633MOL0     H83537   2.324   5.815   7.168 -1.0011 -2.7923  2.0642
  633MOL0     H83538   3.367   6.336   7.463  1.2240  2.3059  1.6959
  633MOL0     H83539   3.553   6.354   7.616  1.1284 -1.2795 -2.5888
  633MOL0     H83540   3.801   6.143   8.111 -1.3794  2.1635 -1.9380
  633MOL0     H83541   4.026   6.154   8.175  0.7941  0.0482 -0.2838
  633MOL0     H83542   5.845   5.294   7.960  0.7565  0.5754  0.7017
  633MOL0     H83543   6.019   5.127   7.878 -2.1773  0.0722  0.7077
  633MOL0     H83544   6.459   5.092   7.685 -0.2483  0.1637  1.6783
  633MOL0     H83545   6.630   4.923   7.601  0.3964 -3.5538  0.4679
  633MOL0     H83546   6.730   4.709   7.529 -4.0064  0.2782  0.2519
  633MOL0     H83547   6.768   4.853   7.450 -1.0298  1.4901 -2.4404
  633MOL0     H83548   6.742   4.584   7.287 -2.2597  0.7895  1.2523
  633MOL0     H83549   6.826   4.737   7.246  3.3197 -0.6573  0.6341
  633MOL0     H83550   6.922   4.573   7.494 -1.9621  1.7663  0.7569
  633MOL0     H83551   6.985   4.722   7.427  0.7456 -0.2081  0.3605
  633MOL0     H83552   7.008   4.604   7.203 -0.3417 -2.7965 -1.4477
  633MOL0     H83553   7.126   4.559   7.335 -0.9469 -3.0702  1.8431
  633MOL0     H83554   6.927   4.192   7.307  2.3243 -0.9335 -2.7835
  633MOL0     H83555   6.323   4.781   7.327  2.4805 -1.9058  0.3504
  633MOL0     H83556   6.167   4.902   7.425  0.8702  0.9962 -2.8870
  634MOL0     O83557   8.951   1.305   3.776  0.2026  0.2144 -0.9152
  634MOL0     C83558   8.986   1.217   3.857 -0.2675 -0.4151 -0.0146
  634MOL0     O83559   8.900   1.148   3.941  0.0807  0.2506 -0.0597
  634MOL0     C83560   8.764   1.155   3.912 -0.1297 -0.3395 -0.1463
  634MOL0     C83561   8.711   1.031   3.906 -0.8903  0.7546 -0.1172
  634MOL0     C83562   8.575   1.028   3.881  0.1890  0.7921 -0.1708
  634MOL0     C83563   8.491   1.142   3.860 -0.1457  0.5524  0.0425
  634MOL0     O83564   8.357   1.123   3.837  0.1430 -0.3781  0.1463
  634MOL0     C83565   8.288   1.060   3.959 -1.2534 -0.5449 -0.4216
  634MOL0     C83566   8.207   0.935   3.920  0.1551  0.0374  0.2041
  634MOL0     C83567   8.072   0.949   3.835  0.6973 -0.6418  0.4010
  634MOL0     C83568   7.965   1.037   3.900  0.3747 -0.4632  0.6616
  634MOL0     C83569   7.936   1.008   4.044 -0.1395 -0.2246 -0.6814
  634MOL0     C83570   7.800   1.071   4.072  0.4124  0.5161 -0.0053
  634MOL0     C83571   7.757   1.068   4.215 -0.0009  0.6486  0.2025
  634MOL0     C83572   7.616   1.119   4.237  0.3496  0.3949 -0.6166
  634MOL0     N83573   7.593   1.259   4.199  0.0322  0.6120 -0.1122
  634MOL0     C83574   7.679   1.368   4.198 -0.1771 -0.1297  0.3402
  634MOL0     C83575   7.600   1.466   4.149 -0.3359 -0.3662 -0.3325
  634MOL0     C83576   7.650   1.594   4.098  0.4315 -0.1542  1.3560
  634MOL0     C83577   7.562   1.714   4.106  0.1785  0.7299  0.2229
  634MOL0     C83578   7.524   1.763   4.246  1.0212  0.1249  0.7623
  634MOL0     C83579   7.640   1.802   4.337  0.6780  1.2657  0.2124
  634MOL0     O83580   7.733   1.885   4.265  0.4181 -0.6350 -0.7846
  634MOL0     C83581   7.815   1.969   4.333 -0.2434 -0.2686 -0.2311
  634MOL0     C83582   7.849   2.097   4.286  0.6954  0.2574 -0.2832
  634MOL0     C83583   7.937   2.185   4.358  0.0670 -0.1488  1.0957
  634MOL0     C83584   7.979   2.145   4.481  0.3032 -0.1093  0.1950
  634MOL0     C83585   8.073   2.228   4.557 -0.6309  0.1076  0.1593
  634MOL0     O83586   8.054   2.222   4.690  0.8212  0.1367  0.6707
  634MOL0     C83587   8.124   2.308   4.771  0.5408 -0.5018  0.1571
  634MOL0     C83588   8.055   2.364   4.875  0.2840 -0.3226  0.0605
  634MOL0     C83589   8.111   2.453   4.963  0.5248  0.1451 -0.1518
  634MOL0     C83590   8.246   2.478   4.964  0.5302 -1.1990 -0.3100
  634MOL0     O83591   8.293   2.566   5.053  0.0546 -0.2361 -1.0688
  634MOL0     C83592   8.389   2.663   4.998 -0.6383  0.6574  0.5185
  634MOL0     C83593   8.467   2.760   5.098  0.2031 -0.0696 -0.8309
  634MOL0     C83594   8.364   2.845   5.174 -0.0442 -0.2489 -0.5460
  634MOL0     C83595   8.423   2.939   5.283 -0.3941 -0.2416  0.5818
  634MOL0     C83596   8.325   3.037   5.340 -0.3473  0.2829  0.6011
  634MOL0     C83597   8.224   2.964   5.426  0.1166 -0.5796  0.4959
  634MOL0     C83598   8.163   3.082   5.506  0.0299 -0.7257  0.4408
  634MOL0     C83599   8.035   3.159   5.459 -1.0139 -0.4801 -0.2877
  634MOL0    Cl83600   7.903   3.044   5.470 -0.6876  0.0201  0.0927
  634MOL0     C83601   8.325   2.407   4.863 -0.2584 -0.0823 -1.5413
  634MOL0     C83602   8.263   2.325   4.769 -0.3649 -0.0549  0.8702
  634MOL0     O83603   8.148   2.313   4.497 -1.2631  0.3326  0.2883
  634MOL0     C83604   7.943   2.025   4.528  0.0152  0.0972  0.5624
  634MOL0     C83605   7.856   1.936   4.462  0.0129  0.7066 -0.0203
  634MOL0     N83606   7.467   1.422   4.135  0.3471 -0.6739 -0.8618
  634MOL0     N83607   7.468   1.297   4.155  0.2573 -0.2136 -0.1808
  634MOL0     C83608   8.549   1.269   3.870  0.3766 -0.0445  0.1414
  634MOL0     C83609   8.684   1.270   3.897  0.1497 -0.1574 -0.0242
  634MOL0     C83610   9.134   1.199   3.881  0.1027 -0.9648 -0.1006
  634MOL0     C83611   9.167   1.121   3.994 -0.0520 -0.0910  0.7058
  634MOL0     C83612   9.304   1.084   4.012 -0.4304  0.7364  0.2131
  634MOL0     C83613   9.398   1.143   3.934  0.4435  0.2091 -0.2369
  634MOL0     O83614   9.526   1.097   3.956 -0.2206 -0.0041  0.0133
  634MOL0     C83615   9.610   1.204   3.992 -0.1698  0.5508  0.7844
  634MOL0     C83616   9.758   1.161   4.031  0.1128 -0.7413  0.4158
  634MOL0     C83617   9.857   1.189   3.924 -0.3959 -0.1021 -0.3842
  634MOL0     C83618   9.827   1.107   3.794 -0.3546  0.7869  0.7630
  634MOL0     C83619   9.930   1.119   3.692 -1.1001  0.0229 -0.9082
  634MOL0     C83620  10.031   1.133   3.623  1.3268 -0.2935  0.4043
  634MOL0     C83621   9.365   1.238   3.830 -0.0207 -0.4368  0.3225
  634MOL0     C83622   9.227   1.263   3.808 -0.7379  0.4539  0.7566
  634MOL0     H83623   8.772   0.943   3.920  2.3376  2.8923  0.3690
  634MOL0     H83624   8.529   0.930   3.867 -0.9574  1.0085  1.6398
  634MOL0     H83625   8.217   1.133   3.999 -2.0906  0.2018 -3.0650
  634MOL0     H83626   8.365   1.032   4.032 -0.1203  0.2509 -1.2711
  634MOL0     H83627   8.180   0.882   4.012 -0.7654 -1.9731 -1.1185
  634MOL0     H83628   8.276   0.873   3.862 -1.1040 -0.7203 -0.5380
  634MOL0     H83629   8.039   0.848   3.807 -1.4276  0.5607 -1.7816
  634MOL0     H83630   8.096   0.994   3.738  0.1996 -2.0851 -0.4333
  634MOL0     H83631   7.984   1.143   3.880 -0.2927 -0.4972 -0.2129
  634MOL0     H83632   7.872   1.023   3.845  0.7244 -0.9824  0.1973
  634MOL0     H83633   8.016   1.049   4.106  0.6345 -1.2600 -0.9748
  634MOL0     H83634   7.927   0.900   4.057 -2.7744 -0.3452 -2.6721
  634MOL0     H83635   7.728   1.020   4.007  1.6730 -0.4819 -0.6646
  634MOL0     H83636   7.815   1.175   4.044 -0.0050  0.8905  1.0772
  634MOL0     H83637   7.766   0.966   4.253  0.0509  0.1547 -1.0859
  634MOL0     H83638   7.825   1.127   4.276  2.1245 -2.7566  1.3631
  634MOL0     H83639   7.610   1.105   4.345 -0.9580 -0.2806 -0.7604
  634MOL0     H83640   7.551   1.051   4.181  1.0818 -1.0153  0.1577
  634MOL0     H83641   7.787   1.362   4.204 -0.2303 -1.6067  0.2817
  634MOL0     H83642   7.686   1.581   3.995 -0.7211 -0.9753  1.0358
  634MOL0     H83643   7.735   1.624   4.160  0.9558  0.3842  0.4051
  634MOL0     H83644   7.471   1.707   4.046  0.5376  2.4255 -0.5968
  634MOL0     H83645   7.617   1.794   4.056  2.2611  0.0279  1.2543
  634MOL0     H83646   7.460   1.850   4.232 -0.4161 -1.1435 -0.9888
  634MOL0     H83647   7.457   1.694   4.298  1.6508 -1.3818 -0.3569
  634MOL0     H83648   7.699   1.720   4.378  0.7017  0.0431 -2.1129
  634MOL0     H83649   7.598   1.862   4.419 -0.6771 -1.1593  1.3968
  634MOL0     H83650   7.794   2.121   4.195  0.7496 -0.3784 -0.4904
  634MOL0     H83651   7.948   2.287   4.323 -0.4876 -1.3199 -3.0207
  634MOL0     H83652   7.946   2.362   4.873  0.1311  1.6180  2.4909
  634MOL0     H83653   8.050   2.514   5.029  0.3341 -1.6464  1.4157
  634MOL0     H83654   8.346   2.721   4.916 -0.2447  2.4635  1.5330
  634MOL0     H83655   8.473   2.603   4.962 -1.1350  0.8932 -1.1086
  634MOL0     H83656   8.532   2.819   5.032 -0.2879 -1.6863 -2.8478
  634MOL0     H83657   8.534   2.702   5.162  0.6352  0.5627 -0.7000
  634MOL0     H83658   8.290   2.780   5.222 -1.8931  0.5367 -2.2198
  634MOL0     H83659   8.311   2.909   5.104  1.3031  2.6479  0.8773
  634MOL0     H83660   8.479   2.885   5.361 -0.2240 -0.0541  0.5897
  634MOL0     H83661   8.497   2.994   5.225 -0.8520 -0.2075  0.0220
  634MOL0     H83662   8.285   3.099   5.259 -1.0894 -1.6559 -0.6102
  634MOL0     H83663   8.387   3.102   5.401 -2.5403  1.6044  1.5368
  634MOL0     H83664   8.274   2.883   5.480  2.3269  1.4030  1.5759
  634MOL0     H83665   8.154   2.917   5.356  1.6915 -2.5762  0.1596
  634MOL0     H83666   8.147   3.052   5.610  0.0743  0.8650  0.9416
  634MOL0     H83667   8.237   3.161   5.518 -0.7561 -0.0476  0.9637
  634MOL0     H83668   8.047   3.193   5.355 -1.2656  1.8450  0.3755
  634MOL0     H83669   8.007   3.249   5.515  1.8977 -0.5371  1.4413
  634MOL0     H83670   8.431   2.422   4.845  0.9553 -2.2798  2.4858
  634MOL0     H83671   8.314   2.276   4.687 -3.6115 -0.3077 -1.1615
  634MOL0     H83672   7.982   1.991   4.624 -1.1476  0.3074  1.1229
  634MOL0     H83673   7.846   1.835   4.499 -0.2921 -0.6032 -3.3240
  634MOL0     H83674   8.485   1.356   3.861 -1.0914 -1.2770 -2.3056
  634MOL0     H83675   8.742   1.361   3.912 -0.0126  0.5277 -2.9241
  634MOL0     H83676   9.093   1.069   4.054  0.9852 -1.0363  1.2069
  634MOL0     H83677   9.329   1.013   4.091 -2.5040  0.5098  0.7466
  634MOL0     H83678   9.573   1.244   4.087 -0.6179  0.6506  0.5730
  634MOL0     H83679   9.607   1.293   3.927 -0.7758  0.6013  0.8724
  634MOL0     H83680   9.785   1.230   4.112 -1.9386 -1.0009  1.4001
  634MOL0     H83681   9.762   1.058   4.066 -0.2682 -1.3474 -1.2601
  634MOL0     H83682   9.955   1.173   3.969  0.8051  0.4369 -2.6412
  634MOL0     H83683   9.863   1.293   3.890  2.4703  1.4940  4.0798
  634MOL0     H83684   9.821   1.005   3.834 -3.0399  0.6251  0.0839
  634MOL0     H83685   9.730   1.132   3.750 -0.1180  0.5265  0.0659
  634MOL0     H83686  10.128   1.148   3.581  0.9956 -1.5776 -0.8910
  634MOL0     H83687   9.421   1.298   3.759 -1.6565  3.0777  1.7575
  634MOL0     H83688   9.194   1.314   3.718 -2.2437 -1.7579 -0.0325
  635MOL0     O83689   5.135   3.235   1.950 -0.0548  0.0999 -0.2626
  635MOL0     C83690   5.117   3.121   1.903  0.3730 -0.1140  0.0804
  635MOL0     O83691   5.186   3.004   1.931  0.5111 -0.3199 -0.1313
  635MOL0     C83692   5.298   3.003   2.009 -1.3405  0.2183  0.2389
  635MOL0     C83693   5.398   2.909   1.972 -0.6713 -0.4710  0.4448
  635MOL0     C83694   5.510   2.895   2.060  0.1389  0.6891  0.0232
  635MOL0     C83695   5.516   2.981   2.178  0.4246 -0.5131  0.3524
  635MOL0     O83696   5.634   2.978   2.246 -0.0619  0.2301  0.1518
  635MOL0     C83697   5.658   3.040   2.373  0.7599  0.2990  0.1487
  635MOL0     C83698   5.575   2.981   2.489 -0.2364  0.1389  0.9856
  635MOL0     C83699   5.637   2.978   2.622  0.6573  0.5276 -0.9710
  635MOL0     C83700   5.534   2.919   2.729 -0.2911  0.3206 -0.9436
  635MOL0     C83701   5.599   2.887   2.873  1.3359 -0.0314  0.2708
  635MOL0     C83702   5.491   2.847   2.979 -0.3252  0.4725  0.1011
  635MOL0     C83703   5.531   2.876   3.122  0.2351 -0.4559 -0.4988
  635MOL0     C83704   5.432   2.843   3.222 -0.2443 -0.0456 -0.7325
  635MOL0     N83705   5.304   2.926   3.216 -0.6963  0.4026 -0.0752
  635MOL0     C83706   5.187   2.871   3.183  0.6301 -0.6817 -0.8599
  635MOL0     C83707   5.098   2.973   3.208 -0.2627 -0.1468  0.0770
  635MOL0     C83708   4.945   2.952   3.217 -0.1313  0.0561  0.6254
  635MOL0     C83709   4.882   3.071   3.146 -0.0403 -0.5737 -0.3601
  635MOL0     C83710   4.729   3.048   3.119  0.5732 -0.1123 -0.4268
  635MOL0     C83711   4.655   3.166   3.059 -0.0761  0.0103  0.2511
  635MOL0     O83712   4.670   3.162   2.917 -0.5434 -0.3683 -0.7905
  635MOL0     C83713   4.579   3.213   2.838  0.1898 -0.1170  0.0793
  635MOL0     C83714   4.597   3.195   2.703 -0.5868  0.4802  0.2815
  635MOL0     C83715   4.498   3.237   2.612  0.2444  0.0643 -0.0227
  635MOL0     C83716   4.384   3.310   2.646 -0.0047  0.3265  0.0544
  635MOL0     C83717   4.288   3.355   2.548  0.7077  0.6103 -0.0328
  635MOL0     O83718   4.197   3.446   2.594 -0.3977  0.4977 -0.4383
  635MOL0     C83719   4.096   3.486   2.515 -0.1354 -0.1454  0.1927
  635MOL0     C83720   3.972   3.412   2.512  0.1618  0.1375  0.8016
  635MOL0     C83721   3.865   3.461   2.434 -0.4530  0.0790 -1.2451
  635MOL0     C83722   3.882   3.576   2.362 -0.0268  0.1824 -1.5420
  635MOL0     O83723   3.764   3.625   2.304 -0.3148  0.3742 -0.7975
  635MOL0     C83724   3.765   3.753   2.240  0.4393 -0.1042  0.1610
  635MOL0     C83725   3.618   3.798   2.249 -0.9212 -0.3707  0.1967
  635MOL0     C83726   3.570   3.831   2.393 -0.0002  0.8658  0.1027
  635MOL0     C83727   3.450   3.927   2.391 -0.0591  0.0617 -0.5605
  635MOL0     C83728   3.397   3.946   2.531  0.2560 -0.8931  0.6758
  635MOL0     C83729   3.295   4.060   2.530  0.4753 -0.6697  0.4927
  635MOL0     C83730   3.159   4.032   2.462  0.1267  0.0951  0.1395
  635MOL0     C83731   3.073   3.918   2.512  0.0775 -0.2570  0.4068
  635MOL0    Cl83732   2.911   3.914   2.414 -0.5114  0.0246 -0.0756
  635MOL0     C83733   4.007   3.646   2.366 -0.2608 -0.4882 -0.3510
  635MOL0     C83734   4.109   3.605   2.435  0.1783  0.2397  0.0696
  635MOL0     O83735   4.308   3.333   2.425 -0.7108  0.3440  0.2907
  635MOL0     C83736   4.373   3.344   2.783  0.7488  0.5926  0.5229
  635MOL0     C83737   4.465   3.289   2.875  0.0929 -0.0130 -0.1448
  635MOL0     N83738   5.160   3.082   3.269 -1.1062 -0.1591  0.5325
  635MOL0     N83739   5.282   3.049   3.274  0.4350 -0.0427  0.0661
  635MOL0     C83740   5.423   3.083   2.207  0.0152  0.2576 -0.1731
  635MOL0     C83741   5.314   3.090   2.117  0.1398 -0.3317  1.0696
  635MOL0     C83742   5.020   3.116   1.802  0.3626  0.2287  1.0040
  635MOL0     C83743   4.953   2.994   1.786  0.1391  0.0504 -0.5546
  635MOL0     C83744   4.872   2.979   1.673  0.6223  0.7075 -0.2311
  635MOL0     C83745   4.841   3.087   1.584 -0.8975  0.4249 -0.6687
  635MOL0     O83746   4.771   3.046   1.473 -0.2039  0.2911  0.6474
  635MOL0     C83747   4.768   3.126   1.358  1.1335  0.3757 -0.1463
  635MOL0     C83748   4.619   3.137   1.338  0.4051  0.0319 -0.6550
  635MOL0     C83749   4.588   3.202   1.200  0.0049  1.2362  0.6258
  635MOL0     C83750   4.444   3.200   1.168  0.4254 -0.2831 -0.0974
  635MOL0     C83751   4.411   3.251   1.035 -0.3354 -0.1659  0.2691
  635MOL0     C83752   4.403   3.304   0.924  1.2075  0.0777  0.4063
  635MOL0     C83753   4.900   3.214   1.615  0.4756  0.0644  0.6049
  635MOL0     C83754   4.990   3.223   1.719 -0.5242 -0.3565  0.1689
  635MOL0     H83755   5.396   2.857   1.877  2.3843  1.3152 -0.7472
  635MOL0     H83756   5.590   2.827   2.034 -2.1934 -0.8868 -3.7777
  635MOL0     H83757   5.631   3.146   2.366 -0.3427 -0.0069 -0.6827
  635MOL0     H83758   5.763   3.035   2.402  0.4125  1.3995  1.7152
  635MOL0     H83759   5.533   2.882   2.471 -3.1436  1.3081  0.9241
  635MOL0     H83760   5.491   3.048   2.502 -0.2423  0.3215  0.0812
  635MOL0     H83761   5.685   3.069   2.658  4.1726 -1.2919 -0.5935
  635MOL0     H83762   5.707   2.894   2.621 -0.2294 -0.2305 -1.4030
  635MOL0     H83763   5.462   3.001   2.737  0.9519  1.3392  0.3703
  635MOL0     H83764   5.482   2.831   2.690 -0.3920  0.0870 -0.3031
  635MOL0     H83765   5.641   2.983   2.904 -1.2495  1.0829  0.6436
  635MOL0     H83766   5.677   2.811   2.881 -2.0676 -3.8076  1.0319
  635MOL0     H83767   5.477   2.739   2.969 -2.0435  0.5513  1.2314
  635MOL0     H83768   5.399   2.900   2.952 -1.0461 -2.0980 -3.0756
  635MOL0     H83769   5.622   2.818   3.137 -0.3722 -1.7376 -1.5116
  635MOL0     H83770   5.542   2.983   3.139  0.4963 -0.3486 -1.3013
  635MOL0     H83771   5.474   2.857   3.322 -2.6952 -3.4579  1.0202
  635MOL0     H83772   5.398   2.739   3.214 -1.3748 -0.0677  2.6423
  635MOL0     H83773   5.162   2.772   3.145  0.1674 -1.1636  0.6321
  635MOL0     H83774   4.917   2.946   3.323  0.5592  0.4335  0.8421
  635MOL0     H83775   4.909   2.862   3.167 -1.7726  0.9292  0.1728
  635MOL0     H83776   4.919   3.099   3.048  1.8416 -1.7725 -0.0377
  635MOL0     H83777   4.884   3.159   3.210  2.0567 -0.2526 -0.8071
  635MOL0     H83778   4.710   2.959   3.058  3.8279  0.7279 -2.9366
  635MOL0     H83779   4.678   3.028   3.214 -0.3423  2.5661 -0.2550
  635MOL0     H83780   4.690   3.260   3.103  0.2622 -0.6711  1.4774
  635MOL0     H83781   4.550   3.156   3.088 -0.9669  1.5145 -2.1613
  635MOL0     H83782   4.675   3.120   2.690 -0.2437  0.6814  1.1174
  635MOL0     H83783   4.521   3.217   2.507  2.6950  3.0596 -0.2194
  635MOL0     H83784   3.952   3.332   2.583  0.9482 -0.0196  0.8583
  635MOL0     H83785   3.763   3.423   2.428 -0.1603 -1.1771  0.8726
  635MOL0     H83786   3.800   3.744   2.137  2.0321 -1.3420  0.7722
  635MOL0     H83787   3.841   3.817   2.286 -1.8341  1.3419  2.1530
  635MOL0     H83788   3.557   3.724   2.197 -0.8029 -0.5254  0.2791
  635MOL0     H83789   3.618   3.896   2.200  1.2199  1.1330  2.8779
  635MOL0     H83790   3.652   3.881   2.444  1.7469  0.2877 -1.9885
  635MOL0     H83791   3.549   3.743   2.456 -0.6305  2.0002  1.5370
  635MOL0     H83792   3.481   4.025   2.355  0.0072  1.7284  3.4981
  635MOL0     H83793   3.367   3.893   2.329 -1.2852  0.1647  0.9734
  635MOL0     H83794   3.479   3.957   2.603 -0.0152 -2.4175  1.2783
  635MOL0     H83795   3.350   3.853   2.566  0.2425 -1.9972 -2.0376
  635MOL0     H83796   3.334   4.145   2.473 -3.1257  0.2162 -0.8956
  635MOL0     H83797   3.289   4.099   2.632  0.9634 -1.1807  0.7310
  635MOL0     H83798   3.112   4.120   2.507 -1.4025 -1.6358  2.0491
  635MOL0     H83799   3.149   4.041   2.354 -2.3846  0.3976  0.3382
  635MOL0     H83800   3.041   3.938   2.614 -0.4072 -1.9698  0.6130
  635MOL0     H83801   3.117   3.819   2.504 -1.3985 -1.0469  1.5774
  635MOL0     H83802   4.022   3.736   2.308 -3.0062  1.3420  1.5494
  635MOL0     H83803   4.204   3.657   2.424  0.6065  0.2270  2.9146
  635MOL0     H83804   4.300   3.418   2.813 -0.6893  0.8959 -3.2213
  635MOL0     H83805   4.447   3.313   2.980  0.1495 -0.4236 -0.0425
  635MOL0     H83806   5.428   3.156   2.287 -0.5503 -0.7325  0.7876
  635MOL0     H83807   5.239   3.166   2.136 -0.3370  0.4817 -3.0769
  635MOL0     H83808   4.979   2.913   1.853  2.3989 -0.3433 -1.7781
  635MOL0     H83809   4.826   2.883   1.650 -0.2498  0.5439  1.9328
  635MOL0     H83810   4.821   3.076   1.276 -0.3459  0.9181 -1.5159
  635MOL0     H83811   4.811   3.226   1.372  1.4028  0.2411 -0.0267
  635MOL0     H83812   4.571   3.039   1.351  1.2725 -0.0306  3.2549
  635MOL0     H83813   4.574   3.201   1.414  1.2783 -2.1197  1.7942
  635MOL0     H83814   4.652   3.162   1.121  0.1885  1.1498  0.8158
  635MOL0     H83815   4.620   3.304   1.220  3.4117 -0.0522  2.7394
  635MOL0     H83816   4.425   3.092   1.176 -1.1380  0.0400  1.0466
  635MOL0     H83817   4.380   3.245   1.244 -0.8456 -1.1763 -0.6002
  635MOL0     H83818   4.390   3.351   0.829  0.7972  0.8780  0.8516
  635MOL0     H83819   4.884   3.300   1.551  3.5688  0.0666 -0.3542
  635MOL0     H83820   5.048   3.313   1.734  2.3686 -2.3033  1.4333
  636MOL0     O83821   9.699   9.544   1.252 -0.5260  0.5898 -0.4785
  636MOL0     C83822   9.655   9.533   1.372 -0.6349  0.4231  0.1800
  636MOL0     O83823   9.724   9.562   1.491  0.0246  0.4631  0.5551
  636MOL0     C83824   9.846   9.624   1.495  0.8715 -0.7553 -1.5110
  636MOL0     C83825   9.890   9.712   1.397 -0.4040 -0.5426 -0.0478
  636MOL0     C83826  10.006   9.783   1.415  0.0846 -0.6920  0.0750
  636MOL0     C83827  10.063   9.788   1.545 -0.1756  0.1391  0.3100
  636MOL0     O83828  10.144   9.891   1.561  0.6805  0.2984 -0.0796
  636MOL0     C83829  10.251   9.881   1.660  0.1793  1.2016 -0.2054
  636MOL0     C83830  10.352   9.984   1.618  0.3350 -0.2802  0.8665
  636MOL0     C83831  10.450  10.028   1.724  0.1351 -0.0451 -0.3666
  636MOL0     C83832  10.537   9.902   1.746 -1.0433 -0.6913  0.2032
  636MOL0     C83833  10.679   9.934   1.782  0.5109  0.3078  0.4508
  636MOL0     C83834  10.770   9.817   1.783 -0.3967  0.5419 -0.6558
  636MOL0     C83835  10.900   9.853   1.853 -0.8995 -0.4869  0.6851
  636MOL0     C83836  10.999   9.738   1.870 -0.6799 -0.1825  0.1175
  636MOL0     N83837  11.120   9.787   1.937 -0.6391 -0.3090  0.2069
  636MOL0     C83838  11.201   9.885   1.893 -0.2866 -0.1416 -0.0894
  636MOL0     C83839  11.301   9.888   1.989  1.2572 -0.2556 -0.2471
  636MOL0     C83840  11.421   9.978   1.996 -0.0174 -0.6342 -0.0748
  636MOL0     C83841  11.404  10.098   2.092 -0.4670 -0.0839  0.2384
  636MOL0     C83842  11.272  10.169   2.076  0.7451 -0.7966 -1.0266
  636MOL0     C83843  11.259  10.245   1.946  0.0957 -0.4185  0.1183
  636MOL0     O83844  11.178  10.365   1.965 -0.3828  0.4931 -0.1577
  636MOL0     C83845  11.047  10.362   1.923  0.2016 -0.1569  1.2232
  636MOL0     C83846  11.009  10.444   1.813 -0.7144 -0.5280  0.9248
  636MOL0     C83847  10.867  10.457   1.786 -0.6004 -1.0226 -0.1457
  636MOL0     C83848  10.768  10.405   1.866 -0.0128 -0.3409 -1.1897
  636MOL0     C83849  10.627  10.437   1.848  0.4131 -0.1973  0.3567
  636MOL0     O83850  10.599  10.501   1.735 -1.0807  0.1914 -0.0013
  636MOL0     C83851  10.481  10.484   1.676 -0.4714 -0.1298  0.5867
  636MOL0     C83852  10.469  10.400   1.563  0.6029  0.4698 -0.5477
  636MOL0     C83853  10.348  10.366   1.505  0.0579 -0.6588 -0.5942
  636MOL0     C83854  10.232  10.420   1.567  0.2369  0.0205  0.0345
  636MOL0     O83855  10.120  10.353   1.519 -0.7159  0.6486 -0.5612
  636MOL0     C83856   9.988  10.413   1.542 -0.3057  0.2102  0.5005
  636MOL0     C83857   9.891  10.334   1.447  0.0042 -0.1406 -0.2678
  636MOL0     C83858   9.919  10.372   1.295  0.7753 -0.0362  1.1283
  636MOL0     C83859   9.848  10.279   1.189 -0.7567 -0.4174  0.1428
  636MOL0     C83860   9.894  10.131   1.216 -0.9869 -0.2844 -0.8490
  636MOL0     C83861   9.894  10.034   1.105 -0.3202  0.0580  0.0230
  636MOL0     C83862   9.764  10.038   1.027  0.2743 -0.3637  0.0145
  636MOL0     C83863   9.636   9.999   1.111 -0.3596 -1.0003  0.6064
  636MOL0    Cl83864   9.504   9.951   0.989  0.1536  0.0152 -0.2110
  636MOL0     C83865  10.241  10.514   1.675  1.0803 -0.0017  0.2185
  636MOL0     C83866  10.370  10.557   1.726  0.3848  0.1487 -0.6682
  636MOL0     O83867  10.545  10.391   1.923  0.3326  0.4502  0.1119
  636MOL0     C83868  10.813  10.313   1.962 -1.5415  0.7232  0.3583
  636MOL0     C83869  10.950  10.283   1.984 -0.0713 -0.0668 -0.6238
  636MOL0     N83870  11.277   9.776   2.079  0.3816  0.6652  0.3284
  636MOL0     N83871  11.166   9.717   2.049  0.5850  0.0213  0.1118
  636MOL0     C83872  10.026   9.696   1.640  0.1173 -0.4761  0.1177
  636MOL0     C83873   9.916   9.609   1.612  0.2206 -0.1833 -0.4204
  636MOL0     C83874   9.527   9.472   1.398  0.0015  0.2587 -0.1095
  636MOL0     C83875   9.478   9.438   1.529  0.1520 -0.6665  0.4623
  636MOL0     C83876   9.341   9.426   1.559  0.7842  0.1795 -0.8128
  636MOL0     C83877   9.246   9.422   1.463  0.4754 -0.1482  0.4339
  636MOL0     O83878   9.114   9.415   1.484  0.2014 -0.1611 -0.0830
  636MOL0     C83879   9.052   9.433   1.613  0.8225  0.7648 -0.6734
  636MOL0     C83880   8.902   9.391   1.607 -0.0511 -0.4264 -0.0395
  636MOL0     C83881   8.824   9.490   1.517 -0.4724 -0.0257  0.0439
  636MOL0     C83882   8.808   9.435   1.379 -0.7276  0.7216 -0.2764
  636MOL0     C83883   8.702   9.521   1.316 -0.6707 -0.8901 -0.5425
  636MOL0     C83884   8.629   9.589   1.248 -0.1988 -0.2224 -0.0360
  636MOL0     C83885   9.292   9.446   1.336 -0.0708  0.0763  0.2341
  636MOL0     C83886   9.427   9.467   1.302 -0.6042  1.0707 -0.0255
  636MOL0     H83887   9.849   9.723   1.297  1.0592 -3.6921 -1.1260
  636MOL0     H83888  10.039   9.861   1.348 -0.9343 -0.7392 -0.5033
  636MOL0     H83889  10.303   9.786   1.648  2.5415  2.5047 -0.9159
  636MOL0     H83890  10.220   9.912   1.760  0.8226  2.1860 -0.3011
  636MOL0     H83891  10.292  10.071   1.591 -2.6595 -2.1255  1.1150
  636MOL0     H83892  10.415   9.954   1.534  1.3012  0.0493  1.4485
  636MOL0     H83893  10.397  10.056   1.816  0.0590  2.3934 -1.0721
  636MOL0     H83894  10.511  10.114   1.695  0.9849  0.7321  3.2078
  636MOL0     H83895  10.491   9.840   1.824 -0.4748  0.8154  1.7884
  636MOL0     H83896  10.557   9.841   1.657  1.9485 -1.4033  1.2428
  636MOL0     H83897  10.690   9.985   1.879  2.0728 -0.7515  0.8670
  636MOL0     H83898  10.715  10.006   1.708  1.4010 -0.6907 -0.1213
  636MOL0     H83899  10.798   9.792   1.680  1.7691 -0.4823  0.1176
  636MOL0     H83900  10.729   9.731   1.835  1.2080  0.8761  1.2648
  636MOL0     H83901  10.950   9.926   1.787 -4.7208  1.0124 -0.8523
  636MOL0     H83902  10.878   9.890   1.953 -1.5691 -0.5453  0.5631
  636MOL0     H83903  11.031   9.711   1.768  1.9056  1.4529  0.3982
  636MOL0     H83904  10.954   9.654   1.922 -2.7071  0.1537 -0.9989
  636MOL0     H83905  11.192   9.945   1.803 -0.0017 -0.6168 -0.4425
  636MOL0     H83906  11.438  10.010   1.893 -0.6748  1.5138  0.4369
  636MOL0     H83907  11.506   9.914   2.021 -0.7704 -1.4021  0.5846
  636MOL0     H83908  11.482  10.174   2.082 -1.2115  0.4248 -2.9335
  636MOL0     H83909  11.398  10.040   2.185 -2.8322 -1.3734 -0.6285
  636MOL0     H83910  11.183  10.105   2.073 -0.6443  0.9483  0.6683
  636MOL0     H83911  11.258  10.224   2.170 -2.4987 -3.2912  0.1507
  636MOL0     H83912  11.238  10.180   1.861  0.4408  4.7724 -4.4572
  636MOL0     H83913  11.362  10.275   1.924  0.7208 -2.1919  0.4229
  636MOL0     H83914  11.074  10.505   1.750  0.1243  0.7170  2.8889
  636MOL0     H83915  10.839  10.532   1.713 -1.5583  0.7126  1.8865
  636MOL0     H83916  10.560  10.343   1.543  0.5931 -0.8548  2.6614
  636MOL0     H83917  10.343  10.300   1.419  0.2207  0.5329 -1.5597
  636MOL0     H83918   9.994  10.519   1.513 -1.0949  0.2145  0.3150
  636MOL0     H83919   9.952  10.411   1.645 -2.7914 -1.2787 -0.3185
  636MOL0     H83920   9.788  10.340   1.482  0.2102 -0.0219  0.3407
  636MOL0     H83921   9.924  10.230   1.454  1.2899  0.2445 -0.3232
  636MOL0     H83922  10.025  10.384   1.270  0.1378 -0.8908 -2.6856
  636MOL0     H83923   9.862  10.466   1.291 -0.6800 -0.8720  1.3499
  636MOL0     H83924   9.744  10.305   1.208 -0.4142  1.8982 -0.8356
  636MOL0     H83925   9.891  10.318   1.097  0.2313  3.1181  1.9260
  636MOL0     H83926   9.834  10.096   1.301 -0.5536 -1.4512 -1.0086
  636MOL0     H83927   9.996  10.154   1.248 -2.0857  3.0682  0.6992
  636MOL0     H83928   9.920   9.936   1.146 -1.8112  0.3564  1.8196
  636MOL0     H83929   9.980  10.068   1.046 -0.9548  1.9772  0.1494
  636MOL0     H83930   9.764  10.133   0.972  1.4733  0.6059  1.6044
  636MOL0     H83931   9.771   9.960   0.951  0.1009  0.7018 -1.1374
  636MOL0     H83932   9.601  10.087   1.166 -1.1502  0.0776 -1.5324
  636MOL0     H83933   9.652   9.918   1.183  1.5842  0.6084  2.1438
  636MOL0     H83934  10.146  10.541   1.722  1.5938 -1.2928  2.1600
  636MOL0     H83935  10.374  10.627   1.808  3.3749 -1.8929  1.1423
  636MOL0     H83936  10.743  10.247   2.013 -0.8769  1.3373  2.1326
  636MOL0     H83937  10.975  10.206   2.056 -2.2227 -1.0191 -0.7961
  636MOL0     H83938  10.062   9.709   1.742  0.4203  1.4191 -0.1819
  636MOL0     H83939   9.874   9.545   1.688  1.7909 -0.1559  0.5311
  636MOL0     H83940   9.549   9.428   1.611 -1.2101  0.8667  1.8976
  636MOL0     H83941   9.322   9.411   1.665 -0.8869 -1.1092 -1.2496
  636MOL0     H83942   9.055   9.536   1.648 -0.4620  0.4405  0.4250
  636MOL0     H83943   9.086   9.365   1.691 -1.7925  2.8270  2.5089
  636MOL0     H83944   8.900   9.289   1.566  0.3887 -0.0972 -0.8998
  636MOL0     H83945   8.870   9.401   1.711  0.8377 -1.5328  0.3662
  636MOL0     H83946   8.875   9.587   1.515  3.0257 -1.6379  1.9879
  636MOL0     H83947   8.724   9.498   1.562 -1.5425  0.5774 -2.2884
  636MOL0     H83948   8.899   9.455   1.323 -0.3932 -0.1075 -0.0408
  636MOL0     H83949   8.781   9.329   1.372  0.6491  0.3356  0.1078
  636MOL0     H83950   8.582   9.653   1.176  1.2655 -1.3884 -2.1368
  636MOL0     H83951   9.217   9.441   1.259 -0.8257  2.5635  0.7414
  636MOL0     H83952   9.442   9.506   1.202  3.2660  0.5546  0.2180
  637MOL0     O83953   5.759   5.728   6.413  0.4091 -0.2430 -0.3578
  637MOL0     C83954   5.748   5.619   6.353 -0.1746  0.0218 -0.0822
  637MOL0     O83955   5.807   5.502   6.404  0.9484  0.0358  0.4820
  637MOL0     C83956   5.905   5.508   6.499 -0.7052 -0.9444 -0.4620
  637MOL0     C83957   5.886   5.542   6.636  0.5511 -0.3565  0.6487
  637MOL0     C83958   5.995   5.546   6.723 -0.0258 -0.5694 -0.0943
  637MOL0     C83959   6.125   5.516   6.676 -0.6464  0.1819  0.1998
  637MOL0     O83960   6.223   5.512   6.766  0.2362  0.2142 -0.2293
  637MOL0     C83961   6.356   5.571   6.743 -0.2379  0.0049  0.1963
  637MOL0     C83962   6.360   5.718   6.698 -0.1637 -1.3130 -0.2448
  637MOL0     C83963   6.256   5.803   6.784 -0.9235  0.2162 -0.0117
  637MOL0     C83964   6.291   5.953   6.757 -1.1036  0.4736  0.3732
  637MOL0     C83965   6.225   6.044   6.859 -0.3565 -0.2345 -0.3051
  637MOL0     C83966   6.233   6.187   6.802 -0.0204 -0.0332  0.2441
  637MOL0     C83967   6.146   6.276   6.883  0.4419 -0.9503  0.0614
  637MOL0     C83968   6.205   6.307   7.020  0.6311 -0.5020 -0.2174
  637MOL0     N83969   6.124   6.391   7.107 -0.2920  0.3430  0.0655
  637MOL0     C83970   6.009   6.351   7.168  0.3509 -0.3966 -1.0418
  637MOL0     C83971   5.979   6.463   7.253  0.7378  0.4984 -0.9237
  637MOL0     C83972   5.872   6.483   7.352 -0.2587  0.3583 -0.5778
  637MOL0     C83973   5.785   6.602   7.322 -0.2117  0.7543  0.2636
  637MOL0     C83974   5.709   6.576   7.189 -0.2017  0.0135  0.0659
  637MOL0     C83975   5.648   6.434   7.169 -0.7087  0.4909 -1.1877
  637MOL0     O83976   5.577   6.424   7.048  0.7736  0.0431  0.3624
  637MOL0     C83977   5.457   6.486   7.046 -0.2231 -0.3289 -0.7535
  637MOL0     C83978   5.403   6.496   6.921 -0.0895  0.1465  0.0301
  637MOL0     C83979   5.283   6.569   6.896 -0.7615  0.2563  0.6230
  637MOL0     C83980   5.206   6.617   7.002 -0.3785 -0.3033  0.2831
  637MOL0     C83981   5.080   6.687   6.972 -0.1735 -0.1954 -0.4450
  637MOL0     O83982   4.995   6.617   6.891  0.0020  1.0208  0.2315
  637MOL0     C83983   4.886   6.690   6.843 -0.2467 -0.1639 -0.6074
  637MOL0     C83984   4.760   6.666   6.896 -0.4450  0.5097  0.0590
  637MOL0     C83985   4.646   6.725   6.846  0.2696 -0.0639 -1.2527
  637MOL0     C83986   4.654   6.821   6.741 -0.5469 -0.2186  0.1621
  637MOL0     O83987   4.551   6.891   6.710 -0.1738  0.1377  0.1164
  637MOL0     C83988   4.421   6.825   6.696  0.3988 -0.1984 -0.1806
  637MOL0     C83989   4.317   6.900   6.613  0.0109  0.4273 -0.3218
  637MOL0     C83990   4.218   6.807   6.544  0.4981 -0.4404 -0.3776
  637MOL0     C83991   4.107   6.883   6.465 -0.0855  0.7408 -0.1485
  637MOL0     C83992   4.038   6.781   6.375 -0.2404  0.1888  0.5451
  637MOL0     C83993   3.923   6.838   6.308 -0.5257  0.3267 -0.4974
  637MOL0     C83994   3.803   6.874   6.401 -0.6171 -0.3546 -0.0185
  637MOL0     C83995   3.666   6.872   6.342 -0.2015  0.1760 -0.9752
  637MOL0    Cl83996   3.623   6.718   6.273 -0.7393  0.1877 -0.1260
  637MOL0     C83997   4.781   6.848   6.692  0.0319 -0.1967 -0.1379
  637MOL0     C83998   4.894   6.772   6.726  0.3695  0.3692  0.7506
  637MOL0     O83999   5.047   6.804   7.015 -0.5467 -1.0309  0.2259
  637MOL0     C84000   5.269   6.621   7.123  0.0588  0.3038  0.2256
  637MOL0     C84001   5.396   6.562   7.149  0.6895 -0.0532 -0.5087
  637MOL0     N84002   6.071   6.559   7.239 -0.1133  0.5226  0.2644
  637MOL0     N84003   6.157   6.514   7.154  0.1556  0.4582 -0.4729
  637MOL0     C84004   6.149   5.490   6.539  0.2072  0.4270 -0.4464
  637MOL0     C84005   6.034   5.481   6.460  0.7631 -0.5850  0.0925
  637MOL0     C84006   5.659   5.620   6.230 -0.2402  0.4099 -0.3541
  637MOL0     C84007   5.627   5.733   6.162  0.5903  0.1311 -0.3937
  637MOL0     C84008   5.528   5.729   6.062  0.0832  0.3130  0.1208
  637MOL0     C84009   5.453   5.611   6.044  0.3363  0.5173 -0.3494
  637MOL0     O84010   5.354   5.613   5.941 -0.1177 -0.5753 -0.0525
  637MOL0     C84011   5.309   5.496   5.874 -0.2564  0.2686 -0.5067
  637MOL0     C84012   5.200   5.511   5.763  0.1180 -0.8330  0.6882
  637MOL0     C84013   5.067   5.575   5.817  0.0580  0.0373 -0.4123
  637MOL0     C84014   4.958   5.570   5.703  0.1373 -0.8217 -0.0151
  637MOL0     C84015   4.816   5.585   5.745  0.3103 -0.3302  0.1723
  637MOL0     C84016   4.700   5.588   5.770  1.1203 -0.4344  0.4653
  637MOL0     C84017   5.507   5.493   6.092  0.1198 -0.8392  0.4810
  637MOL0     C84018   5.605   5.501   6.189  0.1823  0.3988 -0.0040
  637MOL0     H84019   5.784   5.567   6.661  0.7385  0.9765  0.1662
  637MOL0     H84020   5.981   5.572   6.828 -1.5259  0.2636 -0.4714
  637MOL0     H84021   6.400   5.515   6.661  0.7623  3.0342 -1.5133
  637MOL0     H84022   6.425   5.541   6.822  0.7033  2.9729  0.6377
  637MOL0     H84023   6.316   5.726   6.598 -0.1040 -3.3908 -0.4922
  637MOL0     H84024   6.461   5.759   6.696 -0.2265 -1.0867  0.8049
  637MOL0     H84025   6.268   5.776   6.889 -1.0116 -0.9718 -0.2983
  637MOL0     H84026   6.151   5.796   6.752 -0.8911  0.6045 -0.2075
  637MOL0     H84027   6.399   5.966   6.769 -0.7464  1.0688 -2.5622
  637MOL0     H84028   6.271   5.982   6.653  1.1069  0.2785 -0.1479
  637MOL0     H84029   6.274   6.034   6.956 -0.4086 -0.0239 -0.2552
  637MOL0     H84030   6.118   6.020   6.865 -0.7304  1.4364  0.1802
  637MOL0     H84031   6.192   6.185   6.700  0.7800  0.3133 -0.0921
  637MOL0     H84032   6.337   6.221   6.802  0.7836 -2.2786  1.3340
  637MOL0     H84033   6.151   6.368   6.825  3.8604 -1.5852 -0.8996
  637MOL0     H84034   6.047   6.236   6.908  1.1133 -1.4917  2.0725
  637MOL0     H84035   6.300   6.358   7.000 -0.3215  0.0400 -4.1916
  637MOL0     H84036   6.222   6.219   7.082  1.1942  0.7688  1.5146
  637MOL0     H84037   5.966   6.252   7.173 -0.7088  0.0694 -0.6207
  637MOL0     H84038   5.911   6.493   7.454 -0.7651  1.0365 -0.4388
  637MOL0     H84039   5.808   6.395   7.350  1.8224 -1.2598 -0.0436
  637MOL0     H84040   5.850   6.689   7.307 -1.3822  1.5711 -0.1779
  637MOL0     H84041   5.704   6.608   7.395  0.3726 -3.1983  1.4919
  637MOL0     H84042   5.635   6.653   7.167  0.1667  0.2346 -0.4449
  637MOL0     H84043   5.778   6.581   7.104  0.7203 -1.7251  0.6610
  637MOL0     H84044   5.609   6.392   7.262  1.9367 -0.1511 -0.2671
  637MOL0     H84045   5.734   6.372   7.141 -0.1549  1.6884 -2.2355
  637MOL0     H84046   5.449   6.446   6.837  0.3053  1.5861 -0.6236
  637MOL0     H84047   5.254   6.578   6.791 -2.1666 -2.7579  0.6460
  637MOL0     H84048   4.754   6.590   6.973  1.2817  1.0278  0.7557
  637MOL0     H84049   4.552   6.701   6.894 -0.4763  0.8846 -2.1807
  637MOL0     H84050   4.390   6.836   6.800  4.0651  1.2074  0.9358
  637MOL0     H84051   4.431   6.720   6.666  4.9750  0.1366 -0.6108
  637MOL0     H84052   4.364   6.955   6.531 -0.4796 -1.2454 -1.8165
  637MOL0     H84053   4.260   6.966   6.678 -2.2618 -1.3261 -0.3924
  637MOL0     H84054   4.175   6.742   6.620  1.7199  1.0262  1.6626
  637MOL0     H84055   4.268   6.748   6.467  0.3351 -0.6815 -0.3011
  637MOL0     H84056   4.040   6.942   6.527  0.4241  2.0229 -0.7949
  637MOL0     H84057   4.163   6.954   6.405  0.3982 -0.9552 -1.8127
  637MOL0     H84058   3.999   6.688   6.419 -0.2311 -1.2564 -2.2226
  637MOL0     H84059   4.121   6.748   6.312  1.7296  1.5928  2.2977
  637MOL0     H84060   3.884   6.761   6.241 -3.0690  0.0348  1.1834
  637MOL0     H84061   3.962   6.913   6.238  1.8493  0.7857  1.1822
  637MOL0     H84062   3.807   6.814   6.492 -1.7099 -0.3237  0.0581
  637MOL0     H84063   3.820   6.973   6.445 -1.2220 -0.5320  0.6200
  637MOL0     H84064   3.645   6.942   6.260 -0.2026  0.4970 -0.7059
  637MOL0     H84065   3.598   6.896   6.424  2.2504  2.2852  0.5914
  637MOL0     H84066   4.782   6.922   6.611 -1.5044  0.7333  0.6351
  637MOL0     H84067   4.994   6.790   6.689 -1.0734  0.6241 -3.6989
  637MOL0     H84068   5.215   6.666   7.206 -0.0378 -0.1497  0.4101
  637MOL0     H84069   5.433   6.571   7.251 -1.7694  3.3117  0.2749
  637MOL0     H84070   6.247   5.454   6.510  0.0452  0.1985 -0.7137
  637MOL0     H84071   6.044   5.448   6.357 -1.7268 -0.5702 -0.2039
  637MOL0     H84072   5.673   5.826   6.193  0.4783  0.8687 -2.2898
  637MOL0     H84073   5.511   5.815   5.999 -0.9579  0.6335  0.8004
  637MOL0     H84074   5.260   5.436   5.952 -1.8850  2.2308  0.0545
  637MOL0     H84075   5.399   5.445   5.838  0.9497  4.2382 -3.7540
  637MOL0     H84076   5.253   5.572   5.690 -0.8992 -2.3426 -1.3991
  637MOL0     H84077   5.181   5.410   5.725  0.7819 -0.7093 -0.0006
  637MOL0     H84078   5.090   5.673   5.860  2.0623 -0.3938 -0.3922
  637MOL0     H84079   5.035   5.523   5.908  0.0665 -1.1312 -1.0611
  637MOL0     H84080   4.973   5.654   5.635  3.4868 -2.1216 -1.0965
  637MOL0     H84081   4.975   5.486   5.636  1.8927  1.2546 -2.3557
  637MOL0     H84082   4.599   5.593   5.806  1.2989  2.6397  0.7739
  637MOL0     H84083   5.474   5.396   6.058 -0.2415  0.3387 -2.9179
  637MOL0     H84084   5.649   5.414   6.236 -0.5098 -0.3351 -0.6948
  638MOL0     O84085   5.440   1.737   3.054 -0.1879 -0.0842  0.0956
  638MOL0     C84086   5.528   1.722   2.971 -0.2552 -0.4581 -0.3946
  638MOL0     O84087   5.552   1.622   2.880  0.1675  0.3054  0.2690
  638MOL0     C84088   5.456   1.523   2.863  0.6751  0.1797  0.2477
  638MOL0     C84089   5.318   1.532   2.905 -0.5396 -0.1070  1.2095
  638MOL0     C84090   5.237   1.414   2.886  0.4759 -0.2945 -0.1781
  638MOL0     C84091   5.281   1.310   2.820 -1.0911  0.3249  0.0879
  638MOL0     O84092   5.183   1.223   2.797 -0.5827  0.1605 -0.4894
  638MOL0     C84093   5.224   1.091   2.752 -0.4857  0.8885 -0.1846
  638MOL0     C84094   5.100   0.994   2.746  0.6278  0.1255 -0.1741
  638MOL0     C84095   4.981   1.077   2.681 -0.5678 -0.0741 -0.1345
  638MOL0     C84096   4.872   0.973   2.640 -0.0907  0.4740  0.6455
  638MOL0     C84097   4.730   1.038   2.613  0.0191 -0.0456 -0.1336
  638MOL0     C84098   4.617   0.933   2.591  0.5468  0.0508  0.1789
  638MOL0     C84099   4.479   0.997   2.591 -0.5949 -0.8745  0.4075
  638MOL0     C84100   4.366   0.918   2.652  0.4232 -0.6326 -0.8086
  638MOL0     N84101   4.234   0.984   2.621 -0.3847  0.4356 -0.3242
  638MOL0     C84102   4.150   1.047   2.709 -0.5285 -0.7480 -0.1130
  638MOL0     C84103   4.039   1.086   2.639 -0.8124 -0.2947  0.1601
  638MOL0     C84104   3.920   1.174   2.693  0.3158  0.6475 -0.5520
  638MOL0     C84105   3.786   1.101   2.666 -0.3017  0.3254  0.3352
  638MOL0     C84106   3.771   0.977   2.755 -0.4913 -0.1618  0.9271
  638MOL0     C84107   3.633   0.910   2.734 -0.3863 -0.6203  0.2905
  638MOL0     O84108   3.541   0.981   2.817  0.2467  0.0997 -0.9058
  638MOL0     C84109   3.476   0.910   2.910  0.2073  1.2993 -0.3803
  638MOL0     C84110   3.508   0.932   3.043 -0.0223  0.5548  0.3706
  638MOL0     C84111   3.432   0.880   3.146 -0.0888  1.2351  0.3657
  638MOL0     C84112   3.335   0.782   3.114 -0.4666  0.7060  1.1847
  638MOL0     C84113   3.280   0.696   3.223  0.4166 -0.8632 -0.4682
  638MOL0     O84114   3.170   0.613   3.195  0.0012 -1.3098  0.3150
  638MOL0     C84115   3.114   0.521   3.276 -0.2922 -0.2570  0.4082
  638MOL0     C84116   3.141   0.499   3.413  0.7606 -0.2201 -0.5483
  638MOL0     C84117   3.052   0.432   3.501 -0.0704  0.6481 -0.4130
  638MOL0     C84118   2.937   0.374   3.438  0.3546  0.0703  0.2199
  638MOL0     O84119   2.858   0.285   3.512 -0.3640 -0.1226  0.0368
  638MOL0     C84120   2.739   0.338   3.572 -0.0117 -0.0037 -0.8158
  638MOL0     C84121   2.698   0.270   3.702  0.2738 -0.7401 -0.2817
  638MOL0     C84122   2.812   0.218   3.780 -0.5958 -0.3181 -0.2042
  638MOL0     C84123   2.772   0.196   3.926  0.8331 -0.3501 -0.6802
  638MOL0     C84124   2.689   0.078   3.942 -0.4802 -0.0419  0.6858
  638MOL0     C84125   2.614   0.071   4.074 -0.1722  0.9377  0.0116
  638MOL0     C84126   2.503   0.183   4.081  0.4444  0.3872 -0.3272
  638MOL0     C84127   2.400   0.158   4.193 -0.3200 -0.0858 -0.5689
  638MOL0    Cl84128   2.274   0.291   4.199  0.1687 -0.6236  0.1201
  638MOL0     C84129   2.917   0.390   3.303 -0.0869  1.2490 -0.1642
  638MOL0     C84130   3.006   0.458   3.221 -0.1590  0.1632  0.9105
  638MOL0     O84131   3.345   0.686   3.324 -0.0890  0.6878  0.3438
  638MOL0     C84132   3.293   0.754   2.979  0.3872 -0.1465  0.1725
  638MOL0     C84133   3.367   0.827   2.878  0.4232  0.5702  0.3887
  638MOL0     N84134   4.056   1.046   2.504  0.4515 -0.4933  0.6483
  638MOL0     N84135   4.168   0.977   2.502 -0.5820 -1.2716 -0.7879
  638MOL0     C84136   5.409   1.308   2.766  0.1568 -0.0683  0.2282
  638MOL0     C84137   5.495   1.416   2.789 -0.8096 -0.2731  0.2183
  638MOL0     C84138   5.650   1.814   2.983 -0.1297 -0.6551 -0.1250
  638MOL0     C84139   5.640   1.946   3.029  0.4695  0.1051 -0.2949
  638MOL0     C84140   5.757   2.023   3.063 -0.2860  0.6257  0.1403
  638MOL0     C84141   5.887   1.967   3.051  0.1465 -0.1204 -0.3064
  638MOL0     O84142   5.995   2.046   3.092  0.0258 -0.2052 -0.2461
  638MOL0     C84143   6.117   1.979   3.134 -0.6495 -0.0386  0.6200
  638MOL0     C84144   6.216   2.093   3.182  0.4350 -0.3988 -0.2345
  638MOL0     C84145   6.156   2.214   3.264 -0.1266 -0.3150 -0.2724
  638MOL0     C84146   6.088   2.188   3.404  0.0411 -0.0707  0.1542
  638MOL0     C84147   5.943   2.153   3.384 -0.1319  0.9089 -0.4715
  638MOL0     C84148   5.822   2.127   3.360 -0.0190  0.3535 -0.7157
  638MOL0     C84149   5.903   1.843   2.993  0.0500  1.5874  0.5650
  638MOL0     C84150   5.783   1.767   2.962  0.4146  0.5889 -0.3788
  638MOL0     H84151   5.267   1.615   2.953  1.2608 -0.5990  4.2000
  638MOL0     H84152   5.132   1.420   2.915  0.2156 -0.3232 -1.0793
  638MOL0     H84153   5.292   1.046   2.825 -1.4171 -0.9037 -0.3660
  638MOL0     H84154   5.258   1.089   2.648  0.2590  1.1659  0.0496
  638MOL0     H84155   5.067   0.962   2.845  1.2517  0.7906  0.2565
  638MOL0     H84156   5.126   0.905   2.688 -1.0983 -2.7889  3.1654
  638MOL0     H84157   5.023   1.130   2.595  0.5769 -0.1729  0.3529
  638MOL0     H84158   4.945   1.151   2.753  3.3347 -0.9327  3.0386
  638MOL0     H84159   4.901   0.930   2.544 -0.8161  4.1155 -1.3917
  638MOL0     H84160   4.861   0.893   2.714 -1.2530  0.1103  0.0887
  638MOL0     H84161   4.718   1.115   2.536  1.4571  1.4796  1.0743
  638MOL0     H84162   4.714   1.091   2.707  3.8009  3.0536 -0.9449
  638MOL0     H84163   4.627   0.861   2.673 -2.3187  0.7209  1.2607
  638MOL0     H84164   4.636   0.877   2.499 -1.3896 -0.9826  0.3442
  638MOL0     H84165   4.494   1.095   2.637 -0.1543 -0.9253  0.3807
  638MOL0     H84166   4.446   1.032   2.493  3.6225  0.3351 -0.7804
  638MOL0     H84167   4.392   0.923   2.758  0.5989  2.4929 -0.9116
  638MOL0     H84168   4.366   0.813   2.620 -3.2060 -0.3887 -2.0832
  638MOL0     H84169   4.164   1.058   2.816 -0.6750  2.3325 -0.3184
  638MOL0     H84170   3.930   1.273   2.648  3.6300 -0.0579 -1.6928
  638MOL0     H84171   3.939   1.176   2.801 -0.5052 -0.6789 -0.3663
  638MOL0     H84172   3.780   1.066   2.562  0.6463 -0.7539  0.6221
  638MOL0     H84173   3.707   1.177   2.675 -1.9001 -0.7113 -3.1197
  638MOL0     H84174   3.845   0.904   2.720  0.6162  0.6265  1.5790
  638MOL0     H84175   3.786   1.001   2.861  0.1264 -0.9002  1.0170
  638MOL0     H84176   3.633   0.802   2.746 -1.9565 -0.9938 -2.2333
  638MOL0     H84177   3.608   0.929   2.629  3.5392  3.1202 -0.2668
  638MOL0     H84178   3.597   0.994   3.056 -2.4817  4.0123  2.2202
  638MOL0     H84179   3.452   0.911   3.248  1.1975 -1.5613  1.0560
  638MOL0     H84180   3.229   0.551   3.450  0.3325 -0.4223  0.8294
  638MOL0     H84181   3.085   0.417   3.604 -0.8869  0.1575 -0.2141
  638MOL0     H84182   2.657   0.313   3.504 -0.5108 -3.2639  0.7940
  638MOL0     H84183   2.739   0.447   3.586 -1.1260 -0.2915  2.3227
  638MOL0     H84184   2.641   0.180   3.679  1.7890 -1.6955 -0.4369
  638MOL0     H84185   2.623   0.332   3.751  1.9046  1.2543 -0.1771
  638MOL0     H84186   2.907   0.270   3.766 -0.3555 -0.9623 -1.0753
  638MOL0     H84187   2.835   0.117   3.746  1.6278  0.0473  0.0878
  638MOL0     H84188   2.866   0.184   3.981  0.6589 -2.4621 -0.7706
  638MOL0     H84189   2.723   0.285   3.966  0.6150 -0.1768 -1.3184
  638MOL0     H84190   2.756  -0.006   3.925 -0.7820 -0.0865 -0.3949
  638MOL0     H84191   2.621   0.073   3.856  1.7337 -0.4675 -1.1371
  638MOL0     H84192   2.690   0.085   4.152 -0.0691  2.2565 -0.3045
  638MOL0     H84193   2.572  -0.030   4.078  0.7272  0.5098 -0.9065
  638MOL0     H84194   2.552   0.280   4.088  0.4831  0.4433 -1.1901
  638MOL0     H84195   2.451   0.185   3.984  1.8067 -2.6633 -1.2632
  638MOL0     H84196   2.452   0.147   4.288  0.5229 -0.5244 -1.0668
  638MOL0     H84197   2.345   0.065   4.176 -0.2256 -0.4560  1.0205
  638MOL0     H84198   2.830   0.340   3.263 -1.1879  1.6577  1.6026
  638MOL0     H84199   3.001   0.462   3.113  0.2996 -0.0728  0.8767
  638MOL0     H84200   3.204   0.693   2.965 -1.3752  2.7989 -3.1866
  638MOL0     H84201   3.335   0.825   2.775 -1.2458  0.7322  0.8739
  638MOL0     H84202   5.440   1.227   2.701 -0.7416 -0.5787  0.4126
  638MOL0     H84203   5.599   1.426   2.763 -0.7241  2.3176  1.2357
  638MOL0     H84204   5.537   1.980   3.039 -0.4024 -2.1343 -0.8537
  638MOL0     H84205   5.742   2.128   3.087 -1.2478  1.1664 -2.4072
  638MOL0     H84206   6.169   1.935   3.048  0.5781 -0.8004  1.7224
  638MOL0     H84207   6.098   1.906   3.214 -1.4002  0.4209  0.8698
  638MOL0     H84208   6.291   2.044   3.245 -1.4548  0.2896  2.7458
  638MOL0     H84209   6.256   2.149   3.097 -0.8769  0.9239 -0.0198
  638MOL0     H84210   6.100   2.278   3.195 -0.4147 -3.5623 -3.3208
  638MOL0     H84211   6.247   2.266   3.296  1.7835 -4.9990  2.9591
  638MOL0     H84212   6.137   2.116   3.471  1.2468 -0.8357 -1.5000
  638MOL0     H84213   6.103   2.280   3.461  2.4251 -0.5237  0.3437
  638MOL0     H84214   5.722   2.112   3.326  0.0834  0.3975 -1.0412
  638MOL0     H84215   6.003   1.804   3.008 -0.3847  0.7009  1.2219
  638MOL0     H84216   5.798   1.664   2.931  2.0017  0.4665  0.6645
  639MOL0     O84217   4.021   5.867   2.307  0.2547 -0.7512  0.2662
  639MOL0     C84218   4.053   5.868   2.186  0.3548 -0.9521  0.2514
  639MOL0     O84219   3.982   5.940   2.081  0.0981  0.1021  0.2132
  639MOL0     C84220   3.867   6.003   2.127  0.2497 -0.4408 -0.3679
  639MOL0     C84221   3.741   5.962   2.099  0.1684  1.2170  0.2318
  639MOL0     C84222   3.626   6.040   2.129 -0.0091 -0.8449 -0.7685
  639MOL0     C84223   3.633   6.160   2.199 -0.8822 -0.4738  0.8007
  639MOL0     O84224   3.530   6.255   2.209 -0.8356 -0.4874 -0.1210
  639MOL0     C84225   3.403   6.204   2.191 -0.1028  0.1639  0.0878
  639MOL0     C84226   3.304   6.318   2.230 -0.1288  0.8230  0.5358
  639MOL0     C84227   3.167   6.281   2.176 -0.0634  0.1399 -0.3383
  639MOL0     C84228   3.083   6.398   2.212  0.5621 -1.6443 -0.4333
  639MOL0     C84229   2.952   6.402   2.135 -0.0140  1.0568 -0.5213
  639MOL0     C84230   2.836   6.317   2.203  0.7423 -0.5576 -0.1631
  639MOL0     C84231   2.697   6.343   2.155 -0.0021 -0.2953  0.2865
  639MOL0     C84232   2.665   6.319   2.008 -0.5249  0.0415 -0.5387
  639MOL0     N84233   2.536   6.370   1.977  0.8482  0.4363 -0.6769
  639MOL0     C84234   2.501   6.490   1.935 -0.1643  0.3127  0.0549
  639MOL0     C84235   2.371   6.506   1.964 -0.1368 -1.2194 -0.2892
  639MOL0     C84236   2.286   6.632   1.950 -0.1289  0.5081  0.1189
  639MOL0     C84237   2.315   6.725   2.069  0.3914 -0.1947  0.2793
  639MOL0     C84238   2.199   6.824   2.073  0.1091 -1.9210  0.0505
  639MOL0     C84239   2.256   6.934   2.163 -0.2584 -0.7694  0.6711
  639MOL0     O84240   2.156   7.036   2.189  0.1287 -0.3335 -0.3536
  639MOL0     C84241   2.026   6.995   2.226  0.0994  0.2918 -0.0497
  639MOL0     C84242   2.004   6.901   2.327  0.3219 -0.0377  0.5584
  639MOL0     C84243   1.878   6.855   2.352 -0.4902  0.3023  0.1754
  639MOL0     C84244   1.763   6.909   2.288 -0.4209 -0.0497  0.1419
  639MOL0     C84245   1.626   6.877   2.322  0.6161 -0.1165 -0.4986
  639MOL0     O84246   1.522   6.944   2.256  0.1812 -0.1968 -0.1697
  639MOL0     C84247   1.389   6.926   2.274  0.3281  1.0476  0.0235
  639MOL0     C84248   1.313   6.868   2.387 -0.5956 -0.5713  0.3222
  639MOL0     C84249   1.177   6.874   2.397 -0.4304 -0.4498  0.4600
  639MOL0     C84250   1.101   6.920   2.299 -0.3381 -0.4263 -0.1630
  639MOL0     O84251   0.962   6.923   2.316 -0.4688 -0.2220 -0.3933
  639MOL0     C84252   0.867   6.957   2.212 -0.1791  0.6738 -0.4540
  639MOL0     C84253   0.826   6.835   2.135 -0.2946 -0.4699  0.1116
  639MOL0     C84254   0.827   6.704   2.223  0.5639  0.0668 -0.3757
  639MOL0     C84255   0.792   6.581   2.138  0.0982  0.1846  0.0696
  639MOL0     C84256   0.666   6.593   2.045 -0.0016  0.4317 -0.1977
  639MOL0     C84257   0.653   6.452   1.967 -0.3579  0.0811 -0.5086
  639MOL0     C84258   0.748   6.446   1.852  0.5521 -0.1954  1.1805
  639MOL0     C84259   0.755   6.317   1.773  0.0145  0.8469 -0.6211
  639MOL0    Cl84260   0.585   6.253   1.747  0.1569  0.2652 -0.4628
  639MOL0     C84261   1.166   6.973   2.185 -0.5115 -0.6048 -0.6971
  639MOL0     C84262   1.305   6.965   2.172 -0.0860 -0.8589 -0.6559
  639MOL0     O84263   1.620   6.806   2.421  0.6082  0.5021  1.1249
  639MOL0     C84264   1.786   7.005   2.187  0.5268 -0.3165 -0.1640
  639MOL0     C84265   1.919   7.051   2.160  0.8198 -0.1669  0.4535
  639MOL0     N84266   2.332   6.386   2.009 -0.0484  1.0828  0.2332
  639MOL0     N84267   2.427   6.302   2.008 -0.6850  0.1882 -0.4888
  639MOL0     C84268   3.762   6.192   2.241 -0.8926  0.8331  0.0758
  639MOL0     C84269   3.876   6.109   2.212 -0.0332  0.7743  0.1837
  639MOL0     C84270   4.171   5.794   2.136  0.1258  1.0965 -1.0726
  639MOL0     C84271   4.243   5.711   2.222 -0.1771 -0.3742  0.3092
  639MOL0     C84272   4.352   5.650   2.176  0.4009  0.1757 -0.5980
  639MOL0     C84273   4.401   5.665   2.054  0.2564 -0.5285 -0.4935
  639MOL0     O84274   4.522   5.611   2.017  0.8290  0.4208 -0.0643
  639MOL0     C84275   4.636   5.705   2.003  0.1616 -1.1368 -1.1164
  639MOL0     C84276   4.750   5.619   1.951  0.2191 -0.1479  0.1052
  639MOL0     C84277   4.889   5.695   1.936  0.2090 -0.7948 -0.0901
  639MOL0     C84278   4.988   5.599   1.876 -0.1827  1.0167  0.0407
  639MOL0     C84279   5.012   5.485   1.960  0.2203  0.6120  0.3944
  639MOL0     C84280   5.033   5.382   2.018  0.1049  0.5568 -1.2921
  639MOL0     C84281   4.339   5.751   1.970  0.2200  0.9143  0.3195
  639MOL0     C84282   4.220   5.817   2.004  0.1476  0.3358  0.9488
  639MOL0     H84283   3.730   5.871   2.041  0.4797  1.5883 -0.4172
  639MOL0     H84284   3.532   5.992   2.106 -0.5658  0.4946 -1.4355
  639MOL0     H84285   3.390   6.115   2.252  0.3400 -0.8736 -1.2720
  639MOL0     H84286   3.388   6.184   2.084 -0.2844 -0.4495  0.2285
  639MOL0     H84287   3.336   6.415   2.190 -1.1461  2.1560  2.7615
  639MOL0     H84288   3.306   6.325   2.339  3.0234 -2.1647  0.8436
  639MOL0     H84289   3.135   6.193   2.233 -0.7085  1.9569  2.2985
  639MOL0     H84290   3.173   6.257   2.070 -2.5167  1.2889 -0.8067
  639MOL0     H84291   3.060   6.382   2.318 -0.3026 -0.7987 -0.4759
  639MOL0     H84292   3.137   6.490   2.188 -1.4469 -0.1700  0.4039
  639MOL0     H84293   2.960   6.364   2.033  1.8055 -2.6228  0.8160
  639MOL0     H84294   2.915   6.505   2.126  0.4341  1.2302 -0.4411
  639MOL0     H84295   2.838   6.347   2.308  2.1818  1.9935 -0.8255
  639MOL0     H84296   2.851   6.209   2.194 -1.9107 -1.0605  0.7304
  639MOL0     H84297   2.627   6.279   2.209 -0.9978  0.6197  0.1108
  639MOL0     H84298   2.678   6.448   2.179 -0.6005 -0.5873  1.1478
  639MOL0     H84299   2.657   6.213   1.983 -1.3340  0.1166 -0.6204
  639MOL0     H84300   2.732   6.367   1.935 -2.7982  0.4892 -2.4505
  639MOL0     H84301   2.571   6.557   1.887  1.1661 -1.1056 -0.0660
  639MOL0     H84302   2.182   6.596   1.953  0.6691 -2.1698 -1.2021
  639MOL0     H84303   2.311   6.682   1.856  0.3185  0.5261  0.2474
  639MOL0     H84304   2.407   6.783   2.050  0.1496 -0.0817 -0.5797
  639MOL0     H84305   2.319   6.676   2.166  0.1423 -0.9211 -0.0734
  639MOL0     H84306   2.174   6.855   1.972 -0.9218 -1.6135  0.3891
  639MOL0     H84307   2.108   6.776   2.111 -1.9807 -0.7072 -3.0139
  639MOL0     H84308   2.346   6.975   2.119 -1.0683  0.8866  0.4902
  639MOL0     H84309   2.265   6.898   2.266 -1.9562  1.9093  1.8607
  639MOL0     H84310   2.091   6.861   2.377  1.9847  3.6383  0.8850
  639MOL0     H84311   1.859   6.777   2.425 -0.7022 -1.6254 -1.8246
  639MOL0     H84312   1.362   6.823   2.472 -0.3882  1.9523  1.6378
  639MOL0     H84313   1.140   6.827   2.488  1.7903 -1.8911  0.7012
  639MOL0     H84314   0.896   7.036   2.143  3.4899 -1.5794 -1.7766
  639MOL0     H84315   0.777   6.997   2.261  0.7273  2.1962  0.0396
  639MOL0     H84316   0.892   6.826   2.048 -1.9168  2.5916 -1.6059
  639MOL0     H84317   0.723   6.850   2.101  0.5879  3.3009 -1.3969
  639MOL0     H84318   0.761   6.713   2.309  0.3708 -0.5342 -0.4594
  639MOL0     H84319   0.925   6.684   2.267  1.0254  3.9986  0.7598
  639MOL0     H84320   0.888   6.572   2.086  1.6028  2.2037  2.2944
  639MOL0     H84321   0.777   6.500   2.211 -0.3269  0.0582 -0.1570
  639MOL0     H84322   0.677   6.677   1.975 -0.6926  3.8180  3.4038
  639MOL0     H84323   0.571   6.603   2.099  0.9599  1.5387  1.3454
  639MOL0     H84324   0.550   6.444   1.931  0.0725  1.8930 -2.2662
  639MOL0     H84325   0.678   6.373   2.039  1.3736  0.4868 -0.6085
  639MOL0     H84326   0.701   6.516   1.783  1.4815 -1.3271 -0.6911
  639MOL0     H84327   0.849   6.479   1.878  0.9081  1.4395 -1.8097
  639MOL0     H84328   0.815   6.235   1.813 -3.6301 -0.5423  2.6286
  639MOL0     H84329   0.801   6.335   1.676  0.9234 -0.1776 -0.3943
  639MOL0     H84330   1.107   7.022   2.109  0.7855  1.4604 -0.4487
  639MOL0     H84331   1.350   7.015   2.087  0.6791 -0.4808 -0.0357
  639MOL0     H84332   1.702   7.048   2.134  0.4560 -0.6598 -0.3295
  639MOL0     H84333   1.923   7.116   2.074 -1.0130 -0.7951 -0.1561
  639MOL0     H84334   3.794   6.276   2.302  1.2882  0.4143 -0.3875
  639MOL0     H84335   3.972   6.142   2.251 -0.8625  1.0488  2.1363
  639MOL0     H84336   4.223   5.697   2.328  3.6882  2.5268  1.6548
  639MOL0     H84337   4.405   5.583   2.242 -0.2698 -0.3118 -0.5317
  639MOL0     H84338   4.670   5.747   2.099  0.7029  0.9378 -2.1498
  639MOL0     H84339   4.618   5.786   1.932  5.5618  1.8602  0.3740
  639MOL0     H84340   4.779   5.547   2.028  1.5825 -2.0907 -2.1038
  639MOL0     H84341   4.730   5.556   1.864 -0.0479 -0.1440  0.1629
  639MOL0     H84342   4.927   5.732   2.031 -1.7690 -2.3210  1.3849
  639MOL0     H84343   4.875   5.780   1.869 -0.1041 -1.0193 -0.3141
  639MOL0     H84344   4.941   5.571   1.781 -3.8137  1.3338  1.5695
  639MOL0     H84345   5.080   5.656   1.858 -0.7126  1.7522 -0.4245
  639MOL0     H84346   5.080   5.296   2.062  3.9209  1.8087 -2.5302
  639MOL0     H84347   4.384   5.767   1.872  0.2827 -0.1665  0.1601
  639MOL0     H84348   4.172   5.889   1.938 -0.6573 -0.3288  0.7990
  640MOL0     O84349   6.902   7.816   1.690  0.1935 -0.1820 -0.5190
  640MOL0     C84350   6.980   7.823   1.588  0.9748 -0.3947 -0.3667
  640MOL0     O84351   6.959   7.772   1.461 -0.3106 -0.5050  0.4539
  640MOL0     C84352   6.825   7.761   1.425  1.0910 -0.0821  0.0793
  640MOL0     C84353   6.768   7.637   1.406  0.2002  0.2758 -0.1004
  640MOL0     C84354   6.627   7.624   1.384 -1.0926 -0.0639 -0.8279
  640MOL0     C84355   6.549   7.736   1.369 -0.2142  0.1413  0.4657
  640MOL0     O84356   6.419   7.727   1.323 -0.5930 -0.7790  0.1707
  640MOL0     C84357   6.361   7.605   1.276  0.1457  0.0905 -0.4502
  640MOL0     C84358   6.226   7.641   1.234  0.0014  0.4942 -0.5989
  640MOL0     C84359   6.133   7.518   1.211 -0.1711 -0.9938 -1.1021
  640MOL0     C84360   5.996   7.567   1.156  0.9257  0.1029  0.1989
  640MOL0     C84361   5.948   7.507   1.019  0.6158 -0.0043  0.1450
  640MOL0     C84362   6.020   7.564   0.894  0.4283 -0.3506  1.2039
  640MOL0     C84363   5.983   7.520   0.750 -0.7307  0.4375 -0.0161
  640MOL0     C84364   5.847   7.582   0.711  0.3840  1.2357  0.0493
  640MOL0     N84365   5.771   7.518   0.594 -0.2993  1.0748 -0.2541
  640MOL0     C84366   5.712   7.397   0.600 -0.0093 -0.0750  0.0219
  640MOL0     C84367   5.630   7.388   0.492  0.2920 -0.3153  0.5832
  640MOL0     C84368   5.549   7.263   0.456  0.4035  0.1063 -0.4708
  640MOL0     C84369   5.398   7.289   0.445  0.4600  0.3372  0.6486
  640MOL0     C84370   5.308   7.171   0.401 -0.0589  0.7536 -0.4742
  640MOL0     C84371   5.170   7.209   0.357  0.7447  0.8160  0.0982
  640MOL0     O84372   5.095   7.087   0.341  0.6594  0.1764  0.6591
  640MOL0     C84373   4.958   7.109   0.325 -0.4505 -1.0947 -0.3768
  640MOL0     C84374   4.886   7.007   0.266 -0.0961 -0.2072  0.3863
  640MOL0     C84375   4.745   7.029   0.237 -0.7903 -0.6195  0.6617
  640MOL0     C84376   4.685   7.155   0.256 -0.0149 -0.2962  1.0076
  640MOL0     C84377   4.539   7.177   0.214 -0.0970 -0.0768 -0.6148
  640MOL0     O84378   4.489   7.306   0.233 -0.8547 -0.5818 -0.1683
  640MOL0     C84379   4.363   7.343   0.215  0.3130 -0.6340  0.7120
  640MOL0     C84380   4.247   7.270   0.158 -0.6760  0.1566 -0.1451
  640MOL0     C84381   4.118   7.328   0.168  1.3903 -0.2742  0.1732
  640MOL0     C84382   4.088   7.461   0.207 -0.1089 -0.9381  0.2573
  640MOL0     O84383   3.965   7.524   0.209 -0.0618  0.6661 -0.2050
  640MOL0     C84384   3.863   7.450   0.148  0.7548  0.4121 -0.6031
  640MOL0     C84385   3.746   7.537   0.148 -0.3994 -0.0659 -0.3652
  640MOL0     C84386   3.633   7.452   0.085 -0.0312 -0.2495  0.0432
  640MOL0     C84387   3.516   7.541   0.075  0.2055  0.3653 -0.2111
  640MOL0     C84388   3.401   7.468   0.007  0.7982  1.1975  1.2469
  640MOL0     C84389   3.286   7.572  -0.004 -0.2984  0.1662  0.2599
  640MOL0     C84390   3.163   7.483  -0.035  0.0357  0.0884 -0.4501
  640MOL0     C84391   3.035   7.556   0.009 -1.0127  1.0361 -0.5496
  640MOL0    Cl84392   3.017   7.518   0.179  0.0449 -0.7474  0.0876
  640MOL0     C84393   4.204   7.535   0.246 -0.2836 -1.0810  0.4171
  640MOL0     C84394   4.338   7.481   0.245  0.8176  1.4072 -0.0876
  640MOL0     O84395   4.479   7.085   0.158  0.2405 -0.0631  0.3742
  640MOL0     C84396   4.769   7.260   0.305 -0.8631 -0.4607  0.8806
  640MOL0     C84397   4.898   7.236   0.336  0.4679  0.1855  0.6283
  640MOL0     N84398   5.654   7.498   0.415  0.3415  0.1887 -0.2552
  640MOL0     N84399   5.727   7.578   0.481 -0.0940  1.3108 -0.0137
  640MOL0     C84400   6.604   7.860   1.392 -1.1119 -0.1783 -0.1499
  640MOL0     C84401   6.739   7.875   1.405  0.3005  0.3454  0.2442
  640MOL0     C84402   7.103   7.889   1.610 -0.6382  0.7356 -0.1162
  640MOL0     C84403   7.175   7.935   1.492 -0.0708 -0.4561 -0.6882
  640MOL0     C84404   7.286   8.012   1.509  0.4407 -0.0073  0.3700
  640MOL0     C84405   7.351   8.030   1.639 -0.6323  0.4179  1.5305
  640MOL0     O84406   7.470   8.092   1.649 -0.1306 -1.2223 -0.7361
  640MOL0     C84407   7.539   8.152   1.538  0.4422  0.0476  0.4607
  640MOL0     C84408   7.685   8.181   1.579  0.4347  0.3367  0.5598
  640MOL0     C84409   7.768   8.228   1.457  1.1308  0.2415  0.3925
  640MOL0     C84410   7.705   8.346   1.381 -0.5450 -0.2073 -0.1303
  640MOL0     C84411   7.788   8.368   1.271 -0.2169  0.0012  0.3988
  640MOL0     C84412   7.845   8.405   1.172 -0.2621 -0.8797  0.1874
  640MOL0     C84413   7.291   7.973   1.742  0.0020 -1.1264 -1.2087
  640MOL0     C84414   7.163   7.917   1.734  1.6146 -0.5158 -0.7009
  640MOL0     H84415   6.820   7.544   1.427 -1.0767 -0.4945 -0.2883
  640MOL0     H84416   6.574   7.532   1.359 -1.7640  0.4107 -1.2067
  640MOL0     H84417   6.345   7.524   1.348 -0.9667 -0.7226 -1.5852
  640MOL0     H84418   6.417   7.562   1.192  0.4079 -0.7206  0.1228
  640MOL0     H84419   6.236   7.684   1.134  0.9831 -0.6971 -1.0351
  640MOL0     H84420   6.183   7.708   1.309 -0.5542  1.0115 -1.3485
  640MOL0     H84421   6.124   7.459   1.302 -2.2796  0.1615 -0.4968
  640MOL0     H84422   6.181   7.457   1.134  1.5870  1.4184 -2.0021
  640MOL0     H84423   5.921   7.516   1.217  0.0606  0.8496 -0.2117
  640MOL0     H84424   5.993   7.676   1.157 -1.6709  0.0891  0.1433
  640MOL0     H84425   5.840   7.522   1.011  0.7841  1.2030 -0.0342
  640MOL0     H84426   5.974   7.400   1.022 -1.0836 -0.5574 -2.1558
  640MOL0     H84427   6.127   7.544   0.901  0.2718 -0.9915  1.8853
  640MOL0     H84428   6.002   7.672   0.886  0.5296 -0.4978 -2.7935
  640MOL0     H84429   6.059   7.545   0.676 -0.6189 -1.9970 -0.8021
  640MOL0     H84430   5.970   7.412   0.742 -0.0667  0.4358 -1.2108
  640MOL0     H84431   5.853   7.689   0.689 -2.2724  0.9343 -2.8245
  640MOL0     H84432   5.782   7.565   0.797  0.0259  0.2168 -0.3994
  640MOL0     H84433   5.715   7.314   0.671 -0.7945 -1.8990 -1.9634
  640MOL0     H84434   5.564   7.182   0.528 -1.7650 -2.2743 -2.5068
  640MOL0     H84435   5.571   7.227   0.355 -0.6523 -0.2665 -0.5839
  640MOL0     H84436   5.393   7.366   0.368 -0.6136 -1.2990 -0.9675
  640MOL0     H84437   5.355   7.332   0.536  1.3284  1.0151  0.7552
  640MOL0     H84438   5.363   7.110   0.329  2.0312  2.6978 -0.6211
  640MOL0     H84439   5.287   7.111   0.490 -0.8462  2.2626  0.4011
  640MOL0     H84440   5.171   7.261   0.261 -0.2356  3.6792  1.5359
  640MOL0     H84441   5.129   7.265   0.441 -0.1170  1.2118 -0.5731
  640MOL0     H84442   4.926   6.908   0.246 -0.5291 -0.2370 -0.3678
  640MOL0     H84443   4.678   6.950   0.204  1.6035 -1.2347 -3.3836
  640MOL0     H84444   4.260   7.172   0.114 -0.5655 -1.5227  3.2990
  640MOL0     H84445   4.036   7.282   0.114 -1.3398  0.1794  3.6148
  640MOL0     H84446   3.835   7.363   0.209  2.6954  1.7720  2.5337
  640MOL0     H84447   3.875   7.441   0.040  0.8173  0.4349 -0.5979
  640MOL0     H84448   3.770   7.625   0.087 -0.6183 -0.7196 -1.4236
  640MOL0     H84449   3.732   7.572   0.251 -0.1284  1.4916 -0.8203
  640MOL0     H84450   3.598   7.368   0.145  0.3540 -2.3594 -2.4799
  640MOL0     H84451   3.669   7.417  -0.012  0.1916 -0.7169  0.2969
  640MOL0     H84452   3.483   7.574   0.174 -1.4023  2.6444 -1.4179
  640MOL0     H84453   3.540   7.628   0.012 -3.1555  2.4834  1.1214
  640MOL0     H84454   3.354   7.384   0.060 -1.7123  1.2293 -0.7443
  640MOL0     H84455   3.441   7.425  -0.085 -1.7792 -0.4031  0.7752
  640MOL0     H84456   3.310   7.641  -0.086  2.6288 -2.3590 -1.2494
  640MOL0     H84457   3.278   7.623   0.092 -2.6092 -1.4764  1.0231
  640MOL0     H84458   3.153   7.452  -0.139  0.4429  0.2118 -0.5260
  640MOL0     H84459   3.163   7.394   0.029 -2.5089  0.4031  0.1145
  640MOL0     H84460   2.941   7.515  -0.028 -0.7360 -0.7843  0.6683
  640MOL0     H84461   3.054   7.664  -0.001 -0.4600  1.0580  0.5599
  640MOL0     H84462   4.187   7.637   0.279  2.4209  0.6058 -2.7668
  640MOL0     H84463   4.419   7.545   0.279  1.5781  0.8322 -0.7741
  640MOL0     H84464   4.727   7.357   0.327  0.1049 -0.5118  3.2367
  640MOL0     H84465   4.954   7.320   0.375 -0.8445 -0.0536  3.2511
  640MOL0     H84466   6.549   7.951   1.369 -1.4963 -0.5324 -0.6355
  640MOL0     H84467   6.777   7.977   1.408  0.4963  0.3403 -1.2064
  640MOL0     H84468   7.131   7.929   1.394 -2.1040 -0.0367  0.1573
  640MOL0     H84469   7.317   8.062   1.418  2.0791 -1.0826  0.2938
  640MOL0     H84470   7.495   8.248   1.511 -0.1681  0.2655  2.0998
  640MOL0     H84471   7.541   8.083   1.454  0.7897  1.8497 -1.0586
  640MOL0     H84472   7.692   8.252   1.662  2.2576  2.5862 -1.3783
  640MOL0     H84473   7.731   8.087   1.613 -0.2185 -1.5061 -3.1707
  640MOL0     H84474   7.768   8.142   1.390 -0.4410 -0.9892  1.8840
  640MOL0     H84475   7.873   8.249   1.480  0.7227  4.3630 -0.7039
  640MOL0     H84476   7.610   8.317   1.336 -0.6602 -0.2559  0.1399
  640MOL0     H84477   7.712   8.434   1.446 -1.0967 -0.0080 -0.3398
  640MOL0     H84478   7.910   8.439   1.094 -1.1091  0.6811  0.1342
  640MOL0     H84479   7.321   7.987   1.845 -1.3821 -2.2926 -0.6148
  640MOL0     H84480   7.110   7.897   1.826 -1.5783  1.6322 -1.8933
  641MOL0     O84481   3.214   9.049   6.294 -0.2719  0.1597 -0.2370
  641MOL0     C84482   3.158   9.133   6.370 -0.9137  0.0885  0.5396
  641MOL0     O84483   3.215   9.178   6.486 -0.0870 -0.5354 -0.2002
  641MOL0     C84484   3.342   9.154   6.533 -0.2500  1.0283  0.1721
  641MOL0     C84485   3.435   9.253   6.561  0.0722 -0.3329 -0.1663
  641MOL0     C84486   3.558   9.218   6.622  0.0970 -0.1531  0.0164
  641MOL0     C84487   3.582   9.082   6.669  0.0635  0.0628 -0.2792
  641MOL0     O84488   3.701   9.048   6.737  0.3268  0.3278  0.4259
  641MOL0     C84489   3.683   8.980   6.858  0.3867 -0.4478 -0.4806
  641MOL0     C84490   3.803   9.006   6.941 -1.0037 -1.5615 -0.3791
  641MOL0     C84491   3.785   8.941   7.078 -0.7579 -0.1766 -1.5343
  641MOL0     C84492   3.684   9.002   7.173 -0.1345 -0.5247  0.3083
  641MOL0     C84493   3.646   8.915   7.296 -0.2303  1.4173  0.2526
  641MOL0     C84494   3.530   8.969   7.379 -0.3215 -0.4570  0.0212
  641MOL0     C84495   3.509   8.893   7.510 -0.8618  0.5456 -0.0526
  641MOL0     C84496   3.365   8.913   7.567  0.4975 -0.4102  0.5145
  641MOL0     N84497   3.345   8.866   7.702  0.3894 -0.1677  0.3329
  641MOL0     C84498   3.353   8.943   7.813 -1.5915  0.2863 -0.5785
  641MOL0     C84499   3.323   8.866   7.911 -0.0151  0.3714 -0.2793
  641MOL0     C84500   3.320   8.924   8.051  0.2656 -0.5241  0.6070
  641MOL0     C84501   3.188   8.991   8.078  1.2258  0.1617  0.1275
  641MOL0     C84502   3.187   9.036   8.224  0.7248 -0.0469 -0.2671
  641MOL0     C84503   3.053   9.064   8.287  1.1048 -0.4046 -0.3277
  641MOL0     O84504   2.963   8.944   8.299 -0.0852 -0.2502 -0.2655
  641MOL0     C84505   2.829   8.974   8.312 -0.6712  0.9056  0.5233
  641MOL0     C84506   2.766   9.089   8.358 -0.4392  0.2490  0.1039
  641MOL0     C84507   2.629   9.120   8.350 -0.2107  0.1105 -0.6752
  641MOL0     C84508   2.548   9.013   8.292 -0.5100 -0.2763 -0.1178
  641MOL0     C84509   2.402   9.029   8.262  0.3190  0.0694  0.3567
  641MOL0     O84510   2.338   8.923   8.195  0.0015 -0.0934  0.4041
  641MOL0     C84511   2.205   8.940   8.161 -0.4922 -0.3844 -0.0373
  641MOL0     C84512   2.165   8.907   8.034 -0.4994 -0.7264  0.2860
  641MOL0     C84513   2.029   8.898   8.001 -0.2475  0.4282  0.2953
  641MOL0     C84514   1.936   8.939   8.101 -0.4208  1.1370 -0.8317
  641MOL0     O84515   1.800   8.931   8.076  0.8531 -0.4351 -0.3068
  641MOL0     C84516   1.731   8.807   8.055 -0.4497  1.0097  0.1175
  641MOL0     C84517   1.780   8.700   8.156 -0.0666 -0.4271 -0.3385
  641MOL0     C84518   1.749   8.740   8.302 -0.1588  0.8342  0.2928
  641MOL0     C84519   1.607   8.711   8.355 -0.9297 -0.1111  0.6762
  641MOL0     C84520   1.578   8.793   8.476 -0.8699 -0.4190  0.0692
  641MOL0     C84521   1.428   8.771   8.521 -0.9181 -0.0707 -0.6318
  641MOL0     C84522   1.377   8.874   8.631  0.4518  0.5393 -0.2170
  641MOL0     C84523   1.410   8.825   8.775  0.0549 -0.6176 -0.0080
  641MOL0    Cl84524   1.304   8.675   8.790 -0.1973  0.2076 -0.3915
  641MOL0     C84525   1.976   8.981   8.222 -0.3928 -0.5820 -1.1749
  641MOL0     C84526   2.107   8.982   8.252 -1.2054 -0.1511  0.8160
  641MOL0     O84527   2.352   9.140   8.291 -1.1217  0.2520  0.9461
  641MOL0     C84528   2.614   8.892   8.254 -0.0203 -0.3653 -0.3579
  641MOL0     C84529   2.751   8.881   8.253  0.4949  0.1908 -0.2277
  641MOL0     N84530   3.292   8.740   7.873  0.8504 -0.3161 -0.2514
  641MOL0     N84531   3.314   8.741   7.745  0.1939 -0.4837 -1.1591
  641MOL0     C84532   3.486   8.994   6.638  0.1268 -0.2672 -0.3632
  641MOL0     C84533   3.364   9.028   6.580  0.4896  0.2474 -0.0015
  641MOL0     C84534   3.025   9.192   6.325 -0.3179  0.4933  0.2052
  641MOL0     C84535   2.957   9.291   6.402 -0.3808  0.9267 -0.0033
  641MOL0     C84536   2.835   9.339   6.353 -0.0380 -0.0275 -1.0181
  641MOL0     C84537   2.770   9.288   6.244 -0.0401 -0.3181  0.0590
  641MOL0     O84538   2.641   9.338   6.220  0.5255  0.7223 -0.7801
  641MOL0     C84539   2.575   9.311   6.083 -0.2575  0.1193 -1.0679
  641MOL0     C84540   2.622   9.392   5.963  1.2136  0.3793 -0.7057
  641MOL0     C84541   2.578   9.545   5.992  0.7405 -1.0130 -0.9114
  641MOL0     C84542   2.592   9.629   5.864  0.6636 -0.4709 -0.7293
  641MOL0     C84543   2.472   9.624   5.774  0.4433  0.8039 -0.1266
  641MOL0     C84544   2.377   9.615   5.697  0.1720 -0.3650 -0.5336
  641MOL0     C84545   2.846   9.192   6.161 -0.0891  0.7308 -0.1180
  641MOL0     C84546   2.972   9.148   6.207 -0.6782  0.5788  0.4997
  641MOL0     H84547   3.418   9.360   6.558  1.1854  0.0066  2.8985
  641MOL0     H84548   3.639   9.288   6.643  0.1023  0.0182 -0.5613
  641MOL0     H84549   3.682   8.871   6.845  2.3136 -0.5049 -0.5313
  641MOL0     H84550   3.588   9.009   6.903 -0.5141 -2.0322 -1.2943
  641MOL0     H84551   3.834   9.110   6.954  2.4607 -2.6968  2.0097
  641MOL0     H84552   3.880   8.951   6.886  0.0408  0.2548 -0.8020
  641MOL0     H84553   3.877   8.941   7.136 -1.7484  0.4308  0.1234
  641MOL0     H84554   3.746   8.839   7.073 -2.0801  0.1172  0.9518
  641MOL0     H84555   3.707   9.105   7.201 -2.3616 -0.4502  2.1962
  641MOL0     H84556   3.593   9.014   7.114  0.8269  1.9408 -0.8042
  641MOL0     H84557   3.736   8.896   7.355 -0.5898 -3.1027 -0.2864
  641MOL0     H84558   3.618   8.815   7.261  0.0874  1.6540 -0.7123
  641MOL0     H84559   3.441   8.955   7.317 -0.1762 -3.1652  0.3132
  641MOL0     H84560   3.545   9.074   7.408 -1.9783 -0.4004  0.8154
  641MOL0     H84561   3.523   8.786   7.493  1.4201  1.0273 -1.7183
  641MOL0     H84562   3.586   8.931   7.578  0.2714 -0.7342 -0.5839
  641MOL0     H84563   3.298   8.859   7.499 -0.6423  2.7337 -1.0269
  641MOL0     H84564   3.325   9.014   7.560  1.0865 -0.1889  0.2397
  641MOL0     H84565   3.373   9.050   7.815  2.4719 -0.2992 -0.9893
  641MOL0     H84566   3.401   8.997   8.057  2.0661 -2.2117 -1.4638
  641MOL0     H84567   3.335   8.850   8.129 -0.5294  1.0716  2.3527
  641MOL0     H84568   3.105   8.923   8.059  1.2191  0.5779 -1.5584
  641MOL0     H84569   3.172   9.078   8.014 -2.3596  0.4907  1.2851
  641MOL0     H84570   3.246   8.964   8.282  0.7431  0.5548  0.4783
  641MOL0     H84571   3.237   9.133   8.233  0.5033 -0.0484  1.3602
  641MOL0     H84572   3.005   9.144   8.229 -2.1460 -2.0848 -0.2064
  641MOL0     H84573   3.064   9.108   8.387  0.1870  0.1368 -0.4516
  641MOL0     H84574   2.821   9.176   8.392  0.8785 -1.1632  1.6905
  641MOL0     H84575   2.590   9.218   8.375 -0.2832 -0.0928  0.0270
  641MOL0     H84576   2.240   8.882   7.960  2.3137 -1.2864  3.0797
  641MOL0     H84577   1.996   8.849   7.910 -2.4968 -1.1156  1.8373
  641MOL0     H84578   1.761   8.776   7.955  0.8232  2.7254 -0.0925
  641MOL0     H84579   1.623   8.817   8.071 -0.7251 -1.4540  0.0843
  641MOL0     H84580   1.886   8.677   8.144 -0.7354 -3.9273 -0.8123
  641MOL0     H84581   1.725   8.607   8.133 -2.0112  0.3037  1.0525
  641MOL0     H84582   1.769   8.847   8.297 -1.1426  1.1675  2.4459
  641MOL0     H84583   1.821   8.706   8.377 -1.9474 -0.5128  1.5059
  641MOL0     H84584   1.542   8.743   8.272  2.2174  0.8611 -1.5978
  641MOL0     H84585   1.595   8.606   8.384 -0.2026 -0.4792 -0.2721
  641MOL0     H84586   1.599   8.899   8.455  0.7382 -1.0032 -1.4822
  641MOL0     H84587   1.641   8.775   8.563 -3.0792  2.4883  2.5134
  641MOL0     H84588   1.415   8.665   8.546 -3.9458  0.4407  0.3788
  641MOL0     H84589   1.367   8.789   8.432  0.2479 -0.6251 -1.5632
  641MOL0     H84590   1.414   8.975   8.611  0.3707  0.1311 -2.8217
  641MOL0     H84591   1.271   8.902   8.631  0.6180  1.1982  0.5566
  641MOL0     H84592   1.395   8.902   8.850  0.3950  1.9405 -2.3898
  641MOL0     H84593   1.519   8.812   8.784  0.4429  1.7441 -0.4606
  641MOL0     H84594   1.899   9.034   8.278  2.4618  3.3784 -0.5095
  641MOL0     H84595   2.139   9.015   8.351  1.0696 -2.0584  0.8036
  641MOL0     H84596   2.566   8.809   8.201  2.1082 -0.4244 -2.3521
  641MOL0     H84597   2.787   8.788   8.210 -1.1151 -0.9997  0.8664
  641MOL0     H84598   3.493   8.887   6.653  2.0825 -0.3930 -1.7836
  641MOL0     H84599   3.291   8.948   6.569  1.7343 -1.1009  1.0046
  641MOL0     H84600   3.002   9.328   6.493 -2.1907  3.7333 -0.1389
  641MOL0     H84601   2.780   9.407   6.417 -1.9329 -1.7422 -0.6974
  641MOL0     H84602   2.466   9.308   6.083 -0.2712 -2.3851  0.7288
  641MOL0     H84603   2.602   9.209   6.057 -1.5091 -0.7246  0.6964
  641MOL0     H84604   2.731   9.387   5.956  1.4274  1.5744  1.1935
  641MOL0     H84605   2.578   9.352   5.871 -1.3029  0.7777  0.2221
  641MOL0     H84606   2.644   9.586   6.069 -1.1977 -1.8902  1.3668
  641MOL0     H84607   2.472   9.549   6.022  1.2244  0.8823  0.7969
  641MOL0     H84608   2.599   9.734   5.896 -3.0721  0.6922 -3.1460
  641MOL0     H84609   2.684   9.606   5.809  0.9658 -1.3943  0.1216
  641MOL0     H84610   2.301   9.622   5.622  0.9367 -2.0754 -1.5399
  641MOL0     H84611   2.800   9.168   6.066 -0.5120 -0.2379  0.3140
  641MOL0     H84612   3.025   9.075   6.148 -1.2902  1.3982 -1.1273
  642MOL0     O84613   8.504   3.668   5.674 -0.2735 -0.5977  0.0306
  642MOL0     C84614   8.486   3.764   5.752  0.4059  0.4139  0.2034
  642MOL0     O84615   8.579   3.848   5.797 -0.1634  0.5237 -0.7260
  642MOL0     C84616   8.717   3.842   5.777  0.7279  0.2620  0.7397
  642MOL0     C84617   8.772   3.816   5.650  0.1077  0.2477  0.5906
  642MOL0     C84618   8.909   3.798   5.633 -0.5909 -0.1195  0.0858
  642MOL0     C84619   9.009   3.818   5.730  0.1848  0.8709 -0.1690
  642MOL0     O84620   9.139   3.798   5.717 -0.1162  0.8972 -0.6758
  642MOL0     C84621   9.206   3.729   5.609 -0.0498 -0.0533  0.0193
  642MOL0     C84622   9.352   3.774   5.625 -0.2153  0.2683 -0.5379
  642MOL0     C84623   9.438   3.727   5.518 -0.6723  0.9205  0.1610
  642MOL0     C84624   9.571   3.798   5.498 -0.0028 -0.8117 -0.2793
  642MOL0     C84625   9.664   3.739   5.395 -0.0168  0.0864 -0.6078
  642MOL0     C84626   9.765   3.631   5.451 -0.2575 -0.6661 -0.1596
  642MOL0     C84627   9.808   3.527   5.348  0.5935 -0.4047 -0.4429
  642MOL0     C84628   9.952   3.554   5.299 -0.0431 -0.1255 -0.1785
  642MOL0     N84629   9.953   3.684   5.237  0.4667 -0.1253 -0.2497
  642MOL0     C84630   9.922   3.707   5.106 -1.1481 -1.3045  0.5560
  642MOL0     C84631   9.943   3.838   5.094 -0.6981  0.0221 -0.1575
  642MOL0     C84632   9.895   3.925   4.979 -0.0169  0.3172  0.8218
  642MOL0     C84633   9.740   3.898   4.945  0.2672 -0.0930  0.6169
  642MOL0     C84634   9.655   3.922   5.071 -0.6572  0.0792 -0.1154
  642MOL0     C84635   9.504   3.936   5.047 -0.1831 -0.5120 -0.8257
  642MOL0     O84636   9.443   3.952   5.175  0.0525 -0.1176 -0.5653
  642MOL0     C84637   9.313   3.996   5.188  0.0267 -0.0268 -0.7123
  642MOL0     C84638   9.235   4.050   5.083 -0.0606  0.3349  0.1495
  642MOL0     C84639   9.109   4.088   5.112  0.1055 -0.6233  0.1200
  642MOL0     C84640   9.054   4.071   5.241 -0.6306  0.6680  0.3198
  642MOL0     C84641   8.914   4.092   5.276 -0.5323 -0.1139  0.1628
  642MOL0     O84642   8.865   4.032   5.385  0.3019  0.1822 -0.4120
  642MOL0     C84643   8.724   4.037   5.407 -0.1067  0.5976  0.4113
  642MOL0     C84644   8.648   3.927   5.367 -0.3326  0.0920 -0.6833
  642MOL0     C84645   8.506   3.935   5.388 -0.1257  0.6087  0.2052
  642MOL0     C84646   8.444   4.036   5.463 -0.4635  0.1808  1.2852
  642MOL0     O84647   8.314   4.049   5.489 -0.0870 -0.3264 -0.3180
  642MOL0     C84648   8.222   3.958   5.428 -0.4958  0.3591 -0.5537
  642MOL0     C84649   8.077   4.005   5.439 -0.5190 -0.3101  0.3348
  642MOL0     C84650   7.986   3.888   5.402 -0.8490  1.2561 -0.1874
  642MOL0     C84651   7.838   3.927   5.383 -0.9377  0.3022  0.4660
  642MOL0     C84652   7.782   4.003   5.495  1.1207  0.3442 -0.0764
  642MOL0     C84653   7.636   4.036   5.460  0.4924 -0.4777 -0.3496
  642MOL0     C84654   7.582   4.141   5.556  0.6786  0.1313 -0.7069
  642MOL0     C84655   7.435   4.192   5.544 -0.2918  0.4121 -0.1352
  642MOL0    Cl84656   7.403   4.287   5.694  0.3103 -0.2746  0.7044
  642MOL0     C84657   8.529   4.145   5.489 -0.3099  0.3319 -0.1379
  642MOL0     C84658   8.664   4.145   5.458 -0.0929 -0.4307 -0.2927
  642MOL0     O84659   8.847   4.162   5.200  0.1365  0.5520  0.0615
  642MOL0     C84660   9.139   4.019   5.340 -0.5919 -0.0904 -0.1578
  642MOL0     C84661   9.267   3.991   5.315  0.1166 -0.0845  0.7348
  642MOL0     N84662  10.016   3.880   5.204 -0.4626  0.0930  0.5503
  642MOL0     N84663  10.013   3.788   5.296 -0.3276  0.6876 -0.2966
  642MOL0     C84664   8.954   3.868   5.851  0.3711 -0.7364  0.0753
  642MOL0     C84665   8.814   3.884   5.870  0.2373  0.3681 -0.5101
  642MOL0     C84666   8.344   3.781   5.805 -1.1798 -0.2431  0.0700
  642MOL0     C84667   8.231   3.740   5.740  1.3725  0.3473  0.5756
  642MOL0     C84668   8.103   3.778   5.775 -0.2006  0.4072  0.2853
  642MOL0     C84669   8.084   3.856   5.893 -0.3192 -0.0669 -0.1702
  642MOL0     O84670   7.971   3.909   5.949  0.7264 -0.6219 -0.0465
  642MOL0     C84671   7.845   3.893   5.890 -0.3101  0.1383 -0.0159
  642MOL0     C84672   7.747   3.906   5.999  0.9049  0.1907 -0.7695
  642MOL0     C84673   7.610   3.941   5.938 -0.7469  0.4710  0.3559
  642MOL0     C84674   7.563   3.850   5.820  0.0787  0.9496  0.1789
  642MOL0     C84675   7.419   3.863   5.785 -0.3583 -0.4402 -0.6338
  642MOL0     C84676   7.299   3.885   5.762 -0.0173 -1.0461  0.0925
  642MOL0     C84677   8.204   3.890   5.965 -0.0346  0.4895  0.3232
  642MOL0     C84678   8.332   3.859   5.924 -0.1461  1.2358 -0.3625
  642MOL0     H84679   8.711   3.802   5.562  0.0922 -2.8163  0.9881
  642MOL0     H84680   8.933   3.786   5.528  1.2591 -2.2987  0.6798
  642MOL0     H84681   9.165   3.758   5.512  1.5313 -1.6668 -1.1961
  642MOL0     H84682   9.189   3.622   5.616 -0.1699 -0.0778 -0.5827
  642MOL0     H84683   9.395   3.730   5.716 -1.7363  0.3664  0.2721
  642MOL0     H84684   9.338   3.882   5.638  1.3429  0.3393  0.8372
  642MOL0     H84685   9.401   3.730   5.415  1.8915 -0.5185 -0.9138
  642MOL0     H84686   9.455   3.621   5.537 -0.6141  0.9292  0.1569
  642MOL0     H84687   9.534   3.897   5.469 -2.2115 -1.4244  0.2831
  642MOL0     H84688   9.629   3.803   5.591 -0.2027 -1.0666 -0.1395
  642MOL0     H84689   9.731   3.820   5.362 -0.2678 -0.2530 -1.9972
  642MOL0     H84690   9.614   3.698   5.307  2.7108 -2.0584 -1.3010
  642MOL0     H84691   9.711   3.579   5.531 -0.2264 -1.1637 -0.4549
  642MOL0     H84692   9.852   3.677   5.499 -1.3037 -1.0422  2.2728
  642MOL0     H84693   9.808   3.430   5.398  0.3892 -0.0979  0.1638
  642MOL0     H84694   9.735   3.525   5.266  0.7904  2.9488 -0.8570
  642MOL0     H84695   9.975   3.489   5.215  1.4446  2.0955 -1.5822
  642MOL0     H84696  10.032   3.552   5.374 -0.0063  2.2076 -0.0691
  642MOL0     H84697   9.855   3.665   5.032 -1.3137  1.7621 -1.2118
  642MOL0     H84698   9.952   3.901   4.889 -0.0363  0.4398  0.7766
  642MOL0     H84699   9.918   4.028   5.008  0.9746  0.5735 -0.7335
  642MOL0     H84700   9.724   3.797   4.906  0.5683  0.6447 -1.5741
  642MOL0     H84701   9.707   3.966   4.866  0.8403  1.3068  1.5341
  642MOL0     H84702   9.656   3.839   5.143 -0.3056  0.5215  0.4056
  642MOL0     H84703   9.689   4.012   5.124 -2.6260  0.3520  0.7948
  642MOL0     H84704   9.456   3.852   4.996 -4.0026  2.7574 -3.2383
  642MOL0     H84705   9.489   4.021   4.980 -1.3630  0.4199  0.5636
  642MOL0     H84706   9.274   4.062   4.983  1.8363 -0.1935  0.7767
  642MOL0     H84707   9.046   4.132   5.035  1.6365  1.2117 -0.1554
  642MOL0     H84708   8.686   3.832   5.331 -3.6585 -1.0887 -1.5094
  642MOL0     H84709   8.451   3.846   5.359  1.3697  0.2282 -1.6616
  642MOL0     H84710   8.240   3.857   5.466  1.2355  1.5774  2.1192
  642MOL0     H84711   8.250   3.964   5.322 -2.8215  0.0352 -1.2588
  642MOL0     H84712   8.067   4.099   5.384 -0.1594 -0.6842 -0.3884
  642MOL0     H84713   8.043   4.034   5.539  0.0315  1.0025  0.1657
  642MOL0     H84714   7.997   3.802   5.469 -1.0415  0.6829 -0.8845
  642MOL0     H84715   8.024   3.842   5.311 -2.3503  0.8331 -0.6222
  642MOL0     H84716   7.826   3.994   5.298 -1.4749  0.6756  0.8308
  642MOL0     H84717   7.778   3.838   5.363  0.8269 -0.2510 -3.0340
  642MOL0     H84718   7.837   4.091   5.530  3.0993 -0.5397 -0.8364
  642MOL0     H84719   7.785   3.936   5.581 -0.2398 -0.5468 -0.6815
  642MOL0     H84720   7.577   3.945   5.461  0.0916 -0.2501 -1.6485
  642MOL0     H84721   7.620   4.079   5.361 -0.7065 -1.4255 -0.5829
  642MOL0     H84722   7.598   4.097   5.655 -0.7637 -0.7568 -0.8468
  642MOL0     H84723   7.647   4.229   5.543 -0.9640  1.4190 -0.5514
  642MOL0     H84724   7.354   4.119   5.547 -0.8325  0.8912  4.6671
  642MOL0     H84725   7.428   4.248   5.450  0.3484  0.9331  0.1167
  642MOL0     H84726   8.477   4.222   5.546 -0.6812  1.3716 -1.7831
  642MOL0     H84727   8.724   4.231   5.485 -0.3172 -0.0463 -0.9894
  642MOL0     H84728   9.097   4.018   5.440 -2.7451 -1.1109 -1.0014
  642MOL0     H84729   9.328   3.940   5.389 -0.7427 -2.2050  0.0449
  642MOL0     H84730   9.019   3.900   5.932 -1.9931  0.1508  1.7374
  642MOL0     H84731   8.766   3.913   5.963  0.1506 -1.4092  0.0390
  642MOL0     H84732   8.219   3.679   5.651 -2.1156 -2.8366  2.8928
  642MOL0     H84733   8.016   3.736   5.725 -0.4134 -0.1026  1.0661
  642MOL0     H84734   7.820   3.795   5.847 -4.3658 -1.1089  4.3204
  642MOL0     H84735   7.829   3.966   5.810 -2.7497 -0.9766 -0.6415
  642MOL0     H84736   7.751   3.822   6.068  0.7840  1.5388  0.9612
  642MOL0     H84737   7.779   3.992   6.060 -0.1930 -0.6463  1.0524
  642MOL0     H84738   7.614   4.048   5.913  3.2500 -0.3929 -4.1708
  642MOL0     H84739   7.535   3.929   6.017 -0.4914  0.3724  0.5858
  642MOL0     H84740   7.626   3.867   5.732  3.8955 -2.4326  1.9417
  642MOL0     H84741   7.594   3.750   5.851  1.3715  1.7742  1.7017
  642MOL0     H84742   7.196   3.913   5.760  0.2481 -0.0508 -0.1353
  642MOL0     H84743   8.189   3.937   6.062 -0.4979 -0.7198  0.8511
  642MOL0     H84744   8.418   3.893   5.980  1.9426 -1.6588 -1.5938
  643MOL0     O84745   1.262   8.943   2.611 -0.0027  0.5635 -0.7759
  643MOL0     C84746   1.192   8.970   2.509  0.1243  1.2083 -0.1520
  643MOL0     O84747   1.063   8.947   2.492 -0.1951 -0.4569  0.4549
  643MOL0     C84748   0.981   8.855   2.557  0.6862  0.4725 -0.4144
  643MOL0     C84749   1.040   8.745   2.608  0.1243  0.3593  0.1478
  643MOL0     C84750   0.965   8.634   2.640  1.1502  0.4882  0.3833
  643MOL0     C84751   0.826   8.632   2.631  0.0083  0.8669 -0.0931
  643MOL0     O84752   0.727   8.534   2.664  0.1183 -0.0345 -0.3633
  643MOL0     C84753   0.782   8.402   2.705  0.8834 -0.8024 -0.1018
  643MOL0     C84754   0.654   8.317   2.718 -0.6657  0.9610  0.1159
  643MOL0     C84755   0.562   8.362   2.830 -0.2962  0.6318  0.2121
  643MOL0     C84756   0.478   8.242   2.877  0.6661 -0.1328  1.0016
  643MOL0     C84757   0.392   8.271   3.001 -0.3587 -0.0349 -0.1137
  643MOL0     C84758   0.294   8.150   3.027 -0.2478 -0.1525  0.5092
  643MOL0     C84759   0.219   8.205   3.148 -0.4050  0.2851  0.2633
  643MOL0     C84760   0.121   8.112   3.204  1.2315 -0.2687  0.1791
  643MOL0     N84761   0.013   8.169   3.282 -0.1487  0.1350  0.4579
  643MOL0     C84762   0.028   8.253   3.391 -0.0748  0.2533  1.0275
  643MOL0     C84763  -0.075   8.230   3.476  0.4076 -0.3386 -0.7171
  643MOL0     C84764  -0.085   8.285   3.616  0.7900  0.1974  0.8664
  643MOL0     C84765  -0.015   8.204   3.729 -0.3100 -0.0075  0.1136
  643MOL0     C84766  -0.069   8.055   3.748 -1.0146 -0.0669 -0.2397
  643MOL0     C84767  -0.003   7.998   3.869  0.3580  0.3724  0.4002
  643MOL0     O84768  -0.064   8.036   3.992  0.2814  0.3678 -0.8052
  643MOL0     C84769  -0.186   7.984   4.021  0.5494  0.0513  0.3167
  643MOL0     C84770  -0.250   7.878   3.959  0.4679  0.3511 -0.0984
  643MOL0     C84771  -0.381   7.846   3.991 -0.5618 -0.5096  0.3997
  643MOL0     C84772  -0.448   7.915   4.098  0.5307  1.1368  0.0661
  643MOL0     C84773  -0.588   7.880   4.134  0.5115 -0.4138 -0.0028
  643MOL0     O84774  -0.658   7.808   4.042  0.3784 -0.4342 -0.3948
  643MOL0     C84775  -0.790   7.780   4.081 -0.0865  0.4960  0.4285
  643MOL0     C84776  -0.816   7.679   4.168  0.5101 -0.8106 -0.7513
  643MOL0     C84777  -0.958   7.658   4.203  0.5285 -0.4419 -0.5381
  643MOL0     C84778  -1.059   7.743   4.157  0.9307 -0.5423 -0.5288
  643MOL0     O84779  -1.191   7.718   4.187 -0.2334 -0.5777 -0.0883
  643MOL0     C84780  -1.225   7.649   4.307 -0.0955 -0.4615  0.4387
  643MOL0     C84781  -1.350   7.719   4.374  0.9004 -0.3072 -1.0221
  643MOL0     C84782  -1.482   7.669   4.309  0.3889  0.6762 -0.4972
  643MOL0     C84783  -1.619   7.701   4.360  0.8371  0.4464 -0.7038
  643MOL0     C84784  -1.730   7.641   4.271  0.0296 -0.6355 -0.1528
  643MOL0     C84785  -1.869   7.632   4.328 -1.3057  0.3399 -0.3629
  643MOL0     C84786  -1.962   7.557   4.233 -0.0066 -0.9384  0.3118
  643MOL0     C84787  -2.076   7.499   4.312  1.0853 -0.6190  0.0437
  643MOL0    Cl84788  -2.027   7.353   4.387 -0.1074 -0.1178 -0.0350
  643MOL0     C84789  -1.018   7.841   4.067 -0.0593 -0.5277 -0.6979
  643MOL0     C84790  -0.889   7.851   4.023  0.6528  0.3505 -0.2871
  643MOL0     O84791  -0.632   7.910   4.247 -0.4235  0.3182  0.2538
  643MOL0     C84792  -0.378   8.013   4.168 -0.4458  0.0404  0.1973
  643MOL0     C84793  -0.251   8.053   4.122 -0.2200 -0.3438 -1.0004
  643MOL0     N84794  -0.159   8.139   3.410  0.2600  0.1915 -0.4692
  643MOL0     N84795  -0.107   8.106   3.299 -0.3428  0.1471  0.6729
  643MOL0     C84796   0.765   8.757   2.589  0.2572 -1.1003  0.5823
  643MOL0     C84797   0.844   8.865   2.554 -0.1545 -0.2876  0.1431
  643MOL0     C84798   1.268   9.043   2.411 -0.6074 -0.1713  0.3432
  643MOL0     C84799   1.206   9.137   2.334 -0.4382 -0.2330  1.3829
  643MOL0     C84800   1.277   9.212   2.245 -0.2987 -1.3396  0.1610
  643MOL0     C84801   1.411   9.176   2.216 -1.0908  0.6385  0.3138
  643MOL0     O84802   1.497   9.262   2.138 -0.3944 -0.3931  0.5358
  643MOL0     C84803   1.480   9.404   2.145  0.3576 -0.0059  0.0320
  643MOL0     C84804   1.604   9.485   2.125 -0.3266 -0.4319  0.2429
  643MOL0     C84805   1.575   9.628   2.158  0.1699 -0.5591 -0.4241
  643MOL0     C84806   1.708   9.716   2.186  0.3015 -0.3882  0.1498
  643MOL0     C84807   1.807   9.711   2.074  0.3119 -0.2920 -0.1445
  643MOL0     C84808   1.884   9.692   1.980  0.3279  0.0701 -0.7693
  643MOL0     C84809   1.470   9.065   2.284 -0.1668 -0.4375 -0.9036
  643MOL0     C84810   1.395   8.994   2.377 -0.0520 -1.0260  0.2659
  643MOL0     H84811   1.148   8.740   2.615  0.3566  3.9471  0.9714
  643MOL0     H84812   1.017   8.544   2.669  0.1956 -0.2212 -0.0226
  643MOL0     H84813   0.852   8.413   2.789 -0.7613 -2.2962  1.5350
  643MOL0     H84814   0.849   8.359   2.630  4.0386  2.4811  0.5131
  643MOL0     H84815   0.701   8.221   2.737 -2.0997  0.3082  0.5166
  643MOL0     H84816   0.592   8.312   2.627 -1.3309  1.2152  0.5432
  643MOL0     H84817   0.497   8.448   2.812 -0.0724  1.1142  1.5270
  643MOL0     H84818   0.612   8.391   2.923 -0.7619 -1.7711  1.3041
  643MOL0     H84819   0.410   8.220   2.794  1.0020  0.8171  0.4567
  643MOL0     H84820   0.544   8.157   2.895  1.6189  0.3931  0.1313
  643MOL0     H84821   0.339   8.367   2.996 -0.8597 -0.3335 -0.6725
  643MOL0     H84822   0.455   8.273   3.091 -0.4734  2.4261  0.0023
  643MOL0     H84823   0.351   8.063   3.061  2.3004  1.1287 -0.2204
  643MOL0     H84824   0.229   8.124   2.944 -0.6467 -0.4446  0.9108
  643MOL0     H84825   0.280   8.231   3.235 -3.4232 -1.4030  3.1501
  643MOL0     H84826   0.166   8.298   3.124  1.3672  1.6905  1.5370
  643MOL0     H84827   0.177   8.037   3.260  2.5409 -1.0395 -2.0362
  643MOL0     H84828   0.083   8.042   3.129  0.1981  0.1679  0.2837
  643MOL0     H84829   0.121   8.302   3.420  0.6849 -0.8454  0.5317
  643MOL0     H84830  -0.189   8.306   3.642  0.4360  1.0564 -1.0588
  643MOL0     H84831  -0.027   8.377   3.629  1.9078 -0.9231  5.5479
  643MOL0     H84832  -0.016   8.262   3.821 -1.6400  1.3402 -0.7022
  643MOL0     H84833   0.090   8.207   3.700 -0.8635 -0.3061 -2.1095
  643MOL0     H84834  -0.177   8.043   3.755 -1.3200  0.7703 -2.5196
  643MOL0     H84835  -0.039   7.999   3.659  3.5948  1.4173  0.1127
  643MOL0     H84836   0.101   8.030   3.878  0.4806 -0.4615  2.4567
  643MOL0     H84837  -0.004   7.890   3.853  1.5612  0.6702 -2.1393
  643MOL0     H84838  -0.211   7.834   3.868 -0.9919  0.6405 -0.8927
  643MOL0     H84839  -0.428   7.770   3.930 -1.0926  2.0526 -2.7117
  643MOL0     H84840  -0.745   7.612   4.216  1.4059  0.6132 -0.0274
  643MOL0     H84841  -0.974   7.572   4.266 -0.6572  0.9076  1.0939
  643MOL0     H84842  -1.140   7.642   4.375 -0.6884 -1.4338  1.1153
  643MOL0     H84843  -1.255   7.548   4.277 -0.1283  0.1754 -1.8487
  643MOL0     H84844  -1.351   7.828   4.362  1.3111 -0.0533  0.9981
  643MOL0     H84845  -1.353   7.699   4.481  1.7551 -2.5185 -1.3519
  643MOL0     H84846  -1.476   7.563   4.336  2.6595  1.1715  1.2143
  643MOL0     H84847  -1.474   7.684   4.201 -2.2414 -2.0021 -1.2103
  643MOL0     H84848  -1.626   7.656   4.460 -4.6008 -2.8456 -2.1299
  643MOL0     H84849  -1.645   7.806   4.372  1.2208  0.3337  1.7748
  643MOL0     H84850  -1.700   7.544   4.231  1.9371  0.4407 -1.4779
  643MOL0     H84851  -1.735   7.699   4.178  0.5045  3.2130  2.0259
  643MOL0     H84852  -1.904   7.735   4.344  1.6077  1.5219 -0.9772
  643MOL0     H84853  -1.846   7.586   4.424  0.9074 -0.3932 -1.1608
  643MOL0     H84854  -2.000   7.633   4.164  3.6532  3.4684  2.5943
  643MOL0     H84855  -1.909   7.482   4.174  3.3529  1.2488  0.3022
  643MOL0     H84856  -2.162   7.467   4.252  1.4766 -2.7746  0.5479
  643MOL0     H84857  -2.115   7.578   4.377  1.2485  1.6742 -2.4962
  643MOL0     H84858  -1.088   7.906   4.016  1.1758 -1.5651 -3.9500
  643MOL0     H84859  -0.849   7.920   3.949  1.2653  1.1015  0.7202
  643MOL0     H84860  -0.414   8.066   4.256 -0.3711  0.3886  0.0207
  643MOL0     H84861  -0.196   8.132   4.172 -1.0329 -0.8891  0.8117
  643MOL0     H84862   0.660   8.782   2.584  0.8256  1.9740 -4.8646
  643MOL0     H84863   0.794   8.958   2.532  0.3233 -0.5915 -2.6456
  643MOL0     H84864   1.099   9.152   2.344 -0.1846  4.9412 -0.8068
  643MOL0     H84865   1.230   9.293   2.190 -0.1326 -1.1227  0.3380
  643MOL0     H84866   1.430   9.437   2.237  3.2248  1.9543  1.0446
  643MOL0     H84867   1.409   9.433   2.068 -3.3823 -2.0211  2.4306
  643MOL0     H84868   1.682   9.453   2.195 -0.2366 -1.3276 -0.2471
  643MOL0     H84869   1.630   9.469   2.020 -1.1074  3.7706 -0.7703
  643MOL0     H84870   1.512   9.635   2.247  1.9483  1.6671  0.7648
  643MOL0     H84871   1.518   9.669   2.074  1.4276 -2.8330 -2.5430
  643MOL0     H84872   1.665   9.815   2.202 -2.2136 -1.0703 -1.7099
  643MOL0     H84873   1.746   9.672   2.279  0.5581 -0.0857  0.1888
  643MOL0     H84874   1.948   9.655   1.902  0.1935 -3.0817  0.4320
  643MOL0     H84875   1.570   9.025   2.267 -0.6617 -1.3921 -1.7487
  643MOL0     H84876   1.448   8.912   2.424  3.5159  1.1172  0.3449
  644MOL0     O84877  10.231   8.709   6.399  0.0357 -0.4678 -0.6115
  644MOL0     C84878  10.307   8.722   6.303  0.3713 -0.4978  1.5581
  644MOL0     O84879  10.264   8.747   6.178 -0.4077 -0.3280  0.0380
  644MOL0     C84880  10.130   8.743   6.146 -0.4355  0.0494 -0.0717
  644MOL0     C84881  10.026   8.813   6.212 -0.2513 -0.9572  0.0132
  644MOL0     C84882   9.896   8.817   6.156  0.0483 -0.7712  0.1130
  644MOL0     C84883   9.869   8.747   6.039 -0.6910  1.0647 -0.3309
  644MOL0     O84884   9.752   8.753   5.987 -0.9975  0.6399  0.3790
  644MOL0     C84885   9.646   8.695   6.061 -0.0741  1.0002  0.1251
  644MOL0     C84886   9.529   8.677   5.958  0.1955 -0.4642 -1.0432
  644MOL0     C84887   9.417   8.600   6.031 -0.0708 -0.3521 -0.6248
  644MOL0     C84888   9.308   8.598   5.925 -0.4560 -0.3441  0.0040
  644MOL0     C84889   9.212   8.476   5.933 -0.3188  0.3464 -0.6503
  644MOL0     C84890   9.107   8.474   6.045  0.5786 -0.9053 -0.1056
  644MOL0     C84891   9.014   8.349   6.034 -0.1762  0.5117 -0.4560
  644MOL0     C84892   8.923   8.364   6.148  0.6987  0.2139 -0.2092
  644MOL0     N84893   8.812   8.268   6.125 -0.1034 -0.2587  0.8006
  644MOL0     C84894   8.808   8.134   6.143 -0.2316  0.3165  0.0722
  644MOL0     C84895   8.696   8.086   6.087 -0.1204  0.0145 -0.3217
  644MOL0     C84896   8.645   7.944   6.082  0.3203  0.1551 -0.0240
  644MOL0     C84897   8.702   7.856   5.972 -1.2985 -0.0277 -0.4984
  644MOL0     C84898   8.666   7.889   5.826  0.4783 -0.8891  1.3825
  644MOL0     C84899   8.512   7.884   5.801 -0.1504 -0.0824  0.6782
  644MOL0     O84900   8.474   7.918   5.663 -0.0002 -0.4132 -0.2238
  644MOL0     C84901   8.358   7.857   5.615 -0.0683 -0.6215 -0.2394
  644MOL0     C84902   8.338   7.850   5.483  0.5009 -0.2670  0.6787
  644MOL0     C84903   8.212   7.810   5.431  0.2709  0.6975  0.0610
  644MOL0     C84904   8.108   7.774   5.509 -0.4605 -0.0236 -0.6552
  644MOL0     C84905   7.985   7.735   5.456 -1.1950  0.1399  0.5348
  644MOL0     O84906   7.888   7.694   5.538  0.4554 -0.0645 -0.3915
  644MOL0     C84907   7.758   7.691   5.514  0.1540  0.1528 -0.0383
  644MOL0     C84908   7.676   7.617   5.600 -0.6610 -0.1631  0.6331
  644MOL0     C84909   7.539   7.596   5.571 -0.0988  0.2796 -0.3508
  644MOL0     C84910   7.475   7.675   5.476 -0.4018 -0.7716  0.2197
  644MOL0     O84911   7.341   7.671   5.456 -0.4947  0.2189 -0.0274
  644MOL0     C84912   7.255   7.782   5.445  0.0807  0.0994 -0.3045
  644MOL0     C84913   7.122   7.739   5.491  0.6194 -0.6727 -0.4684
  644MOL0     C84914   7.117   7.730   5.642  0.1427 -0.1085  0.3331
  644MOL0     C84915   6.984   7.691   5.696 -0.1281  0.6566  0.4949
  644MOL0     C84916   6.968   7.674   5.853  0.0664  0.2593  0.8476
  644MOL0     C84917   6.825   7.699   5.899 -0.8163 -0.4435  0.0280
  644MOL0     C84918   6.789   7.849   5.891 -0.7156 -0.3436 -0.5259
  644MOL0     C84919   6.686   7.888   5.994 -0.1470 -0.6700 -0.4812
  644MOL0    Cl84920   6.524   7.832   5.946  0.0588 -0.0635  0.4983
  644MOL0     C84921   7.554   7.772   5.406 -1.2789 -0.5540 -0.0493
  644MOL0     C84922   7.690   7.772   5.418  0.5101  0.0392  0.5240
  644MOL0     O84923   7.967   7.746   5.331  0.3987 -0.0767 -0.4275
  644MOL0     C84924   8.124   7.774   5.655 -0.7339 -0.2154 -0.0345
  644MOL0     C84925   8.249   7.817   5.702 -0.6343  0.2445  0.3551
  644MOL0     N84926   8.643   8.202   6.018 -0.6308  0.5829 -0.0026
  644MOL0     N84927   8.706   8.307   6.050  0.3413  0.9825 -0.5857
  644MOL0     C84928   9.975   8.669   5.979  1.0587  0.5984 -0.2412
  644MOL0     C84929  10.100   8.675   6.031 -0.9456 -0.1608  0.2745
  644MOL0     C84930  10.453   8.688   6.312  0.8065 -0.1573 -0.3602
  644MOL0     C84931  10.501   8.614   6.418 -0.4278  0.8475  0.6428
  644MOL0     C84932  10.638   8.567   6.425  0.3169 -0.2577  0.9146
  644MOL0     C84933  10.727   8.589   6.317  0.6159  0.2358  0.0559
  644MOL0     O84934  10.847   8.523   6.300  0.8382  0.3431  0.1158
  644MOL0     C84935  10.873   8.412   6.386 -1.0680  0.2822 -0.2269
  644MOL0     C84936  10.990   8.321   6.343  0.3649 -0.2579 -0.4280
  644MOL0     C84937  11.123   8.397   6.367  0.7605  0.4213 -0.4687
  644MOL0     C84938  11.236   8.353   6.273  0.0252  0.2395 -0.3669
  644MOL0     C84939  11.287   8.226   6.322  0.2162  0.3163  0.2841
  644MOL0     C84940  11.314   8.115   6.358 -0.7853  0.7987 -0.0689
  644MOL0     C84941  10.684   8.670   6.221  1.0941  0.4139 -0.1243
  644MOL0     C84942  10.553   8.719   6.211  0.2935 -0.3174  0.2208
  644MOL0     H84943  10.046   8.854   6.310  1.5997 -0.8572 -0.3753
  644MOL0     H84944   9.812   8.871   6.198  0.0848 -0.8391  0.2725
  644MOL0     H84945   9.618   8.770   6.136  0.1090 -0.8700  2.1420
  644MOL0     H84946   9.666   8.597   6.106 -0.0801  1.8398  2.0837
  644MOL0     H84947   9.574   8.633   5.868  2.1644  0.9286 -0.8127
  644MOL0     H84948   9.499   8.778   5.929  0.8254 -0.1262 -0.5462
  644MOL0     H84949   9.385   8.656   6.119  1.3556  4.2424 -2.7087
  644MOL0     H84950   9.447   8.495   6.044  1.4652 -0.1044 -1.8241
  644MOL0     H84951   9.255   8.693   5.937  0.2905  0.3822 -2.0187
  644MOL0     H84952   9.360   8.602   5.829  1.0474 -1.7890  0.6984
  644MOL0     H84953   9.271   8.385   5.942 -1.8726 -0.4984  1.7273
  644MOL0     H84954   9.160   8.474   5.837  0.1166 -2.0347 -0.8919
  644MOL0     H84955   9.048   8.566   6.041  2.7965  0.6029  0.2174
  644MOL0     H84956   9.151   8.470   6.145  1.7437 -4.7910 -0.5934
  644MOL0     H84957   8.966   8.351   5.935 -0.1157 -1.2324 -0.5497
  644MOL0     H84958   9.077   8.261   6.047  0.2559  0.3917 -2.9017
  644MOL0     H84959   8.867   8.458   6.140  0.9001  0.4256  0.7923
  644MOL0     H84960   8.970   8.333   6.241  0.4696 -1.7890 -0.7202
  644MOL0     H84961   8.870   8.073   6.208 -0.7051 -2.1953 -1.6893
  644MOL0     H84962   8.536   7.950   6.083  0.2503 -0.9429  0.6409
  644MOL0     H84963   8.679   7.898   6.176  0.0851 -1.1975 -0.5675
  644MOL0     H84964   8.663   7.755   5.987  1.0977 -1.0013 -0.5418
  644MOL0     H84965   8.810   7.849   5.980 -1.2498  0.2059 -0.8985
  644MOL0     H84966   8.705   7.988   5.800  1.9863 -1.6865  0.4706
  644MOL0     H84967   8.709   7.821   5.752 -1.8384  2.1113 -3.1626
  644MOL0     H84968   8.470   7.961   5.866  1.0460  0.1383  1.2142
  644MOL0     H84969   8.483   7.782   5.826  2.2072 -0.3864  2.5458
  644MOL0     H84970   8.417   7.894   5.423  0.4051  0.6551  1.1980
  644MOL0     H84971   8.187   7.811   5.325 -1.9074  3.1580  0.4860
  644MOL0     H84972   7.718   7.550   5.674 -1.4588 -1.5952 -0.1643
  644MOL0     H84973   7.480   7.527   5.630  0.7278  0.8933  1.2509
  644MOL0     H84974   7.240   7.815   5.342 -0.5796  0.5732 -0.0635
  644MOL0     H84975   7.294   7.861   5.509  3.0104 -1.6476  0.2426
  644MOL0     H84976   7.109   7.640   5.447  3.6540 -3.0447  3.1979
  644MOL0     H84977   7.052   7.816   5.459  1.1738 -1.3745 -3.6679
  644MOL0     H84978   7.158   7.827   5.672  0.9094  1.0204 -3.7591
  644MOL0     H84979   7.185   7.656   5.685  0.7458  0.4173  0.3088
  644MOL0     H84980   6.926   7.781   5.673  0.0952  1.2265  1.9822
  644MOL0     H84981   6.947   7.604   5.641 -1.5706  1.0919  0.7419
  644MOL0     H84982   7.039   7.741   5.903  0.2176  3.4610 -3.1000
  644MOL0     H84983   7.001   7.575   5.884  1.6972  0.7982  0.9226
  644MOL0     H84984   6.817   7.668   6.003 -3.3839  0.5410  0.2026
  644MOL0     H84985   6.753   7.632   5.852 -0.4811  0.2154 -1.4984
  644MOL0     H84986   6.871   7.919   5.908 -0.3368 -0.7320 -0.7158
  644MOL0     H84987   6.758   7.880   5.791  1.3154  2.8721 -0.2880
  644MOL0     H84988   6.685   7.997   5.994  0.5945 -0.6307  0.9931
  644MOL0     H84989   6.709   7.857   6.097 -0.1981 -0.8509 -0.5238
  644MOL0     H84990   7.495   7.844   5.349  0.3554  0.4313 -0.5491
  644MOL0     H84991   7.734   7.832   5.339 -2.0367  3.1645  1.2823
  644MOL0     H84992   8.039   7.769   5.722 -0.5110  0.0396  0.2651
  644MOL0     H84993   8.251   7.816   5.811 -1.7066  1.2029  0.4066
  644MOL0     H84994   9.956   8.605   5.893  2.6119 -3.5369  2.2032
  644MOL0     H84995  10.182   8.629   5.979 -1.5598 -0.9801  0.0182
  644MOL0     H84996  10.441   8.588   6.505 -1.5324 -1.6296 -0.7601
  644MOL0     H84997  10.664   8.514   6.516 -2.3042 -3.9991 -0.2661
  644MOL0     H84998  10.786   8.346   6.394  0.1618 -1.5072 -1.2072
  644MOL0     H84999  10.899   8.448   6.487 -0.1540 -3.5178  1.0552
  644MOL0     H85000  10.986   8.230   6.404 -1.6812 -0.4292 -0.7491
  644MOL0     H85001  10.974   8.293   6.239  0.1186  0.6469 -0.6384
  644MOL0     H85002  11.146   8.405   6.474  0.2122  3.8319 -0.4807
  644MOL0     H85003  11.094   8.500   6.344 -0.1730  0.3327  0.2573
  644MOL0     H85004  11.197   8.347   6.171 -0.8228  0.1285 -0.0470
  644MOL0     H85005  11.316   8.427   6.264  1.3878 -1.2693 -1.0067
  644MOL0     H85006  11.347   8.017   6.387 -2.6023 -0.9568 -3.3041
  644MOL0     H85007  10.751   8.682   6.137  3.4250  0.3675  1.6248
  644MOL0     H85008  10.514   8.774   6.126  0.8774  0.4402  0.4312
  645MOL0     O85009   8.161   1.756   9.786  0.1364 -0.0418 -0.2583
  645MOL0     C85010   8.114   1.865   9.757  0.6751  0.0512  0.0208
  645MOL0     O85011   7.993   1.905   9.782  0.2738 -0.2235 -0.2262
  645MOL0     C85012   7.896   1.824   9.843 -0.2234  0.0557 -0.3628
  645MOL0     C85013   7.893   1.680   9.835 -0.5317 -0.0882 -0.6637
  645MOL0     C85014   7.794   1.612   9.903  1.0453  0.8224 -0.1709
  645MOL0     C85015   7.681   1.675   9.953  0.6645  0.3112 -0.4543
  645MOL0     O85016   7.594   1.588  10.018  0.4367 -0.1177 -0.4972
  645MOL0     C85017   7.457   1.632  10.018  0.1323 -0.3437 -0.7559
  645MOL0     C85018   7.375   1.505  10.054  0.0230 -1.4338  0.8370
  645MOL0     C85019   7.229   1.561  10.083  0.0296 -0.4273 -1.3833
  645MOL0     C85020   7.132   1.449  10.094 -0.7643  0.6428 -0.1594
  645MOL0     C85021   6.994   1.504  10.108  0.8485 -0.4250 -0.3488
  645MOL0     C85022   6.896   1.397  10.142  0.1884  0.4984 -0.5249
  645MOL0     C85023   6.775   1.460  10.206 -0.9272  0.0670  0.8569
  645MOL0     C85024   6.696   1.550  10.111 -0.5583 -0.6565 -0.2490
  645MOL0     N85025   6.578   1.600  10.171 -0.9475  0.0303 -0.4058
  645MOL0     C85026   6.567   1.725  10.215 -0.1470  0.8969 -0.4554
  645MOL0     C85027   6.447   1.745  10.268  0.9551  0.4202  0.3898
  645MOL0     C85028   6.392   1.870  10.317  0.5259  0.2277  0.5929
  645MOL0     C85029   6.362   1.861  10.470  0.4051 -0.4814 -0.1245
  645MOL0     C85030   6.266   1.744  10.515  0.1536  0.8899 -0.7499
  645MOL0     C85031   6.242   1.770  10.663  0.1433 -0.2244  0.1432
  645MOL0     O85032   6.148   1.667  10.698 -0.0744  0.2623  0.7487
  645MOL0     C85033   6.017   1.697  10.696  0.6547 -0.0931  0.6375
  645MOL0     C85034   5.920   1.604  10.738  0.4124  0.1223  0.2680
  645MOL0     C85035   5.783   1.636  10.723 -0.9304  0.2873  0.2205
  645MOL0     C85036   5.742   1.761  10.661 -0.8577  0.2744 -0.1051
  645MOL0     C85037   5.609   1.789  10.631  0.9176 -1.1460  0.1232
  645MOL0     O85038   5.568   1.924  10.634 -0.0813  0.8309  0.0632
  645MOL0     C85039   5.454   1.953  10.717  0.3115 -0.3989 -0.5626
  645MOL0     C85040   5.443   1.906  10.847  0.5410  0.2021 -0.1823
  645MOL0     C85041   5.342   1.949  10.936  0.0113  1.0537  0.1259
  645MOL0     C85042   5.239   2.038  10.891 -1.3929 -0.5818 -0.4394
  645MOL0     O85043   5.140   2.092  10.981  0.0643  0.7124  0.9818
  645MOL0     C85044   5.148   2.064  11.120  0.2438  0.1325  0.6911
  645MOL0     C85045   5.060   2.151  11.198 -0.4515  0.0410  0.1528
  645MOL0     C85046   4.913   2.119  11.177 -0.1641 -0.2714  0.3033
  645MOL0     C85047   4.811   2.183  11.272 -0.7848 -0.8021 -0.7136
  645MOL0     C85048   4.667   2.135  11.262  0.2655  0.6705 -0.3242
  645MOL0     C85049   4.644   1.993  11.323  0.2388  0.4347 -0.9898
  645MOL0     C85050   4.622   1.996  11.476 -0.5796 -0.2992  0.7158
  645MOL0     C85051   4.472   2.025  11.495 -0.1766 -0.7230  0.9385
  645MOL0    Cl85052   4.419   1.967  11.657  0.2028  0.1658  0.1322
  645MOL0     C85053   5.253   2.074  10.756  0.4600 -0.1065 -0.3147
  645MOL0     C85054   5.357   2.041  10.674  0.2606 -0.5123 -0.0534
  645MOL0     O85055   5.531   1.692  10.644 -0.0558  0.8846 -0.0638
  645MOL0     C85056   5.839   1.853  10.636 -0.0900  1.0732  0.2571
  645MOL0     C85057   5.970   1.818  10.648 -0.2790 -1.2425 -0.0520
  645MOL0     N85058   6.385   1.627  10.250  0.6193 -0.6277 -0.3518
  645MOL0     N85059   6.455   1.542  10.180  0.5141  0.0930  0.2704
  645MOL0     C85060   7.680   1.817   9.953 -0.6918 -0.0653 -0.3790
  645MOL0     C85061   7.784   1.887   9.902 -0.5008  0.5980  0.0188
  645MOL0     C85062   8.197   1.971   9.704  0.1947 -0.4714  0.0423
  645MOL0     C85063   8.316   1.941   9.653 -0.3643  0.9515  0.4213
  645MOL0     C85064   8.412   2.035   9.613  0.5481  0.1128 -1.1790
  645MOL0     C85065   8.377   2.170   9.602 -0.0205  0.2589  0.1303
  645MOL0     O85066   8.447   2.280   9.558 -0.5946  0.0146  1.0279
  645MOL0     C85067   8.584   2.273   9.592  0.0830 -0.1626  0.5643
  645MOL0     C85068   8.639   2.276   9.445 -0.9661 -0.6767 -1.1117
  645MOL0     C85069   8.594   2.168   9.351  0.4369 -0.5390 -0.2816
  645MOL0     C85070   8.672   2.037   9.365  0.1516 -0.4118  0.4158
  645MOL0     C85071   8.814   2.063   9.322  0.2134 -0.3987  0.1314
  645MOL0     C85072   8.926   2.085   9.281  0.4041 -0.4713  0.2905
  645MOL0     C85073   8.245   2.199   9.634  0.7750  1.0696  0.7711
  645MOL0     C85074   8.157   2.104   9.692  0.5459  1.7318  0.5970
  645MOL0     H85075   7.960   1.621   9.773 -1.6455 -1.4715 -0.5762
  645MOL0     H85076   7.800   1.504   9.903 -0.0417  0.7489 -0.2150
  645MOL0     H85077   7.422   1.684   9.928 -0.8730  1.5792  0.6839
  645MOL0     H85078   7.443   1.709  10.095  0.5430 -0.5422 -0.4791
  645MOL0     H85079   7.408   1.465  10.150  0.5065  0.5439  1.5399
  645MOL0     H85080   7.375   1.435   9.970 -2.1249 -0.6280  0.0902
  645MOL0     H85081   7.190   1.635  10.012  0.3085  1.5503  0.4209
  645MOL0     H85082   7.224   1.615  10.178  0.9007  1.5322 -2.3809
  645MOL0     H85083   7.137   1.394  10.000 -0.0704  0.6678 -0.1461
  645MOL0     H85084   7.152   1.375  10.173  0.5018 -1.8715 -2.6403
  645MOL0     H85085   6.970   1.559  10.016  1.0176  0.0274 -0.1238
  645MOL0     H85086   7.000   1.582  10.184  2.5853  0.6960 -1.5449
  645MOL0     H85087   6.933   1.326  10.217  0.6546  1.2512 -0.0235
  645MOL0     H85088   6.870   1.329  10.061 -0.0417 -2.6455  1.9900
  645MOL0     H85089   6.713   1.372  10.225 -1.0978 -0.3828 -1.4355
  645MOL0     H85090   6.801   1.512  10.299 -1.7783  4.8970 -1.2844
  645MOL0     H85091   6.663   1.492  10.024  1.9674 -1.3949 -0.8147
  645MOL0     H85092   6.766   1.626  10.076 -1.7964 -1.0501 -4.0816
  645MOL0     H85093   6.643   1.803  10.213  0.0977  0.7102  0.6041
  645MOL0     H85094   6.305   1.889  10.253  2.0672  2.3100 -1.0744
  645MOL0     H85095   6.462   1.951  10.292 -0.5897  1.0031 -0.0998
  645MOL0     H85096   6.319   1.960  10.487 -1.6023 -0.9995 -1.6739
  645MOL0     H85097   6.453   1.847  10.528 -0.6213 -0.2982  1.5862
  645MOL0     H85098   6.178   1.752  10.451 -1.2190 -1.4959  0.7018
  645MOL0     H85099   6.306   1.642  10.504 -0.3227  0.8639 -2.5095
  645MOL0     H85100   6.220   1.877  10.672  5.2941  1.1111  0.0667
  645MOL0     H85101   6.335   1.768  10.722 -0.1058  0.3397  0.5592
  645MOL0     H85102   5.952   1.507  10.774 -1.0317  0.0633  1.4514
  645MOL0     H85103   5.724   1.545  10.730  0.8345 -1.0469 -1.1706
  645MOL0     H85104   5.518   1.844  10.895 -0.2877 -1.3451 -0.7920
  645MOL0     H85105   5.328   1.910  11.036  2.4992 -1.3631 -0.3492
  645MOL0     H85106   5.252   2.079  11.150  1.4652 -0.2249 -2.8924
  645MOL0     H85107   5.123   1.963  11.153  1.4119  0.7617  3.8467
  645MOL0     H85108   5.087   2.257  11.191 -1.0029  0.2578  1.1091
  645MOL0     H85109   5.069   2.124  11.303  0.7414  3.7449  1.1657
  645MOL0     H85110   4.907   2.010  11.186 -0.2941 -0.1566  1.9727
  645MOL0     H85111   4.881   2.150  11.077 -1.3863 -0.4665  0.6125
  645MOL0     H85112   4.837   2.184  11.378 -2.4446 -3.3690 -0.2205
  645MOL0     H85113   4.800   2.289  11.245 -0.7662 -0.8620 -0.9534
  645MOL0     H85114   4.627   2.135  11.161 -1.1934 -1.3689  0.1860
  645MOL0     H85115   4.598   2.205  11.310 -1.6640 -0.2457 -1.6423
  645MOL0     H85116   4.725   1.924  11.298 -0.3510 -1.7069  2.3198
  645MOL0     H85117   4.551   1.962  11.274 -0.6017 -3.0543  2.3086
  645MOL0     H85118   4.642   1.902  11.529  3.1676  0.3822  0.7807
  645MOL0     H85119   4.686   2.068  11.526 -0.7597 -0.4480  1.1640
  645MOL0     H85120   4.425   1.966  11.416 -1.6818 -0.1157  1.3538
  645MOL0     H85121   4.440   2.129  11.483  1.4581 -0.2287  0.5191
  645MOL0     H85122   5.176   2.135  10.711 -0.4355 -1.1392 -0.2291
  645MOL0     H85123   5.348   2.079  10.573 -3.6836 -0.3252  0.2135
  645MOL0     H85124   5.809   1.944  10.586  0.4668 -0.7448 -3.8107
  645MOL0     H85125   6.028   1.904  10.617 -2.2326 -1.0129 -3.6866
  645MOL0     H85126   7.589   1.871   9.978  0.6580  1.6442  1.1345
  645MOL0     H85127   7.776   1.995   9.904 -3.3683  0.5092 -1.7412
  645MOL0     H85128   8.340   1.835   9.652 -2.5621  0.3901 -0.8237
  645MOL0     H85129   8.517   2.010   9.600  0.6701 -0.5319  0.8164
  645MOL0     H85130   8.610   2.181   9.646 -1.4515 -1.1934 -0.3473
  645MOL0     H85131   8.619   2.365   9.638  1.7564  0.6389 -2.1293
  645MOL0     H85132   8.609   2.372   9.401  0.4516  0.0873 -0.4650
  645MOL0     H85133   8.748   2.270   9.452 -0.9482  0.5846  0.2486
  645MOL0     H85134   8.599   2.207   9.248 -1.5778 -0.2586 -0.3139
  645MOL0     H85135   8.490   2.146   9.375  1.1005 -1.6897  1.7994
  645MOL0     H85136   8.663   1.990   9.463 -0.4262  1.3619  1.2518
  645MOL0     H85137   8.636   1.970   9.286 -0.4566  3.6054 -3.1175
  645MOL0     H85138   9.017   2.101   9.225 -0.0139 -2.2285 -0.9774
  645MOL0     H85139   8.200   2.297   9.615  1.4479  1.4711  1.2232
  645MOL0     H85140   8.056   2.140   9.708 -0.5406 -0.8668 -0.0078
  646MOL0     O85141  10.420   1.620  10.037  1.0092  0.7557 -0.0900
  646MOL0     C85142  10.364   1.523  10.094  0.4231 -0.5127  0.4371
  646MOL0     O85143  10.420   1.395  10.110  0.1284  0.6822  0.5669
  646MOL0     C85144  10.554   1.381  10.085  0.0025  0.4403  0.5119
  646MOL0     C85145  10.658   1.431  10.159 -0.2440  0.2909 -0.4216
  646MOL0     C85146  10.795   1.411  10.133  0.4645  0.1170  0.1434
  646MOL0     C85147  10.829   1.325  10.030 -0.4178 -0.5136  0.1457
  646MOL0     O85148  10.958   1.296   9.982  0.1909 -0.0752 -0.8715
  646MOL0     C85149  11.074   1.333  10.054  0.8157 -0.5109  0.0899
  646MOL0     C85150  11.195   1.259   9.996  0.8465  0.6383 -0.3077
  646MOL0     C85151  11.201   1.278   9.842  0.4617 -0.3914  0.2567
  646MOL0     C85152  11.314   1.196   9.781 -1.1538 -0.1134 -0.6706
  646MOL0     C85153  11.440   1.278   9.744  0.2103  0.3146  0.3210
  646MOL0     C85154  11.508   1.348   9.868 -0.0323 -0.5556  0.2189
  646MOL0     C85155  11.649   1.411   9.843  1.1306  0.2423  1.1029
  646MOL0     C85156  11.642   1.501   9.725 -1.2002  0.2710 -0.3224
  646MOL0     N85157  11.764   1.586   9.737  0.1453  1.2045 -0.0575
  646MOL0     C85158  11.770   1.709   9.780 -1.0692 -0.2029 -0.0584
  646MOL0     C85159  11.878   1.762   9.709  0.6609 -0.7189 -0.0463
  646MOL0     C85160  11.931   1.904   9.712 -0.9279  0.5092 -0.8407
  646MOL0     C85161  11.843   2.014   9.761 -0.1387 -1.1859 -0.2599
  646MOL0     C85162  11.923   2.142   9.759  0.4465  0.1883  1.0151
  646MOL0     C85163  12.022   2.155   9.872  0.7078 -0.8823 -0.0342
  646MOL0     O85164  11.954   2.167  10.002  0.3114  0.8726 -0.1906
  646MOL0     C85165  12.044   2.181  10.103  0.7729  0.2603 -1.4013
  646MOL0     C85166  12.188   2.203  10.107  0.3509 -0.7938 -0.6450
  646MOL0     C85167  12.266   2.230  10.223  0.4491 -0.5836 -0.3663
  646MOL0     C85168  12.207   2.229  10.348  0.1435 -0.0761  0.2254
  646MOL0     C85169  12.283   2.278  10.470  0.7589  0.1612 -0.2439
  646MOL0     O85170  12.227   2.326  10.585  0.2735  0.0770 -0.0783
  646MOL0     C85171  12.283   2.419  10.666 -0.7976  0.8774 -1.0197
  646MOL0     C85172  12.239   2.422  10.794  0.6522  0.4952 -1.9822
  646MOL0     C85173  12.297   2.509  10.892 -0.1867  0.6668 -0.1922
  646MOL0     C85174  12.399   2.599  10.859 -0.0558  0.3112  0.4880
  646MOL0     O85175  12.454   2.682  10.950 -0.7293  0.3928 -0.4803
  646MOL0     C85176  12.470   2.818  10.911  0.5717 -0.2371 -0.0211
  646MOL0     C85177  12.453   2.909  11.038  0.6956  0.0875 -0.4092
  646MOL0     C85178  12.506   3.050  11.017 -0.6150 -0.6669  0.1731
  646MOL0     C85179  12.509   3.135  11.150  0.7394 -0.5216 -0.3295
  646MOL0     C85180  12.560   3.279  11.136 -0.7364  0.0876 -1.1617
  646MOL0     C85181  12.517   3.360  11.013 -0.0154  0.9326 -0.0560
  646MOL0     C85182  12.361   3.388  11.020 -0.2812  1.2908 -0.2601
  646MOL0     C85183  12.317   3.465  10.896 -0.2722  1.1485  0.1538
  646MOL0    Cl85184  12.158   3.540  10.925 -0.4602 -0.5164 -0.2018
  646MOL0     C85185  12.433   2.613  10.724 -0.4360 -0.6139  0.7343
  646MOL0     C85186  12.374   2.523  10.632  0.8259  0.4570  0.2759
  646MOL0     O85187  12.405   2.268  10.457  0.4415 -1.0130  0.1287
  646MOL0     C85188  12.067   2.205  10.358 -0.2763 -0.5032  0.2470
  646MOL0     C85189  11.991   2.179  10.238 -0.5302 -0.2158  0.6264
  646MOL0     N85190  11.934   1.662   9.625  0.1675 -0.0935  0.4755
  646MOL0     N85191  11.858   1.561   9.646  0.0124  0.1239  0.2105
  646MOL0     C85192  10.728   1.269   9.949  0.3536  0.2527 -1.2207
  646MOL0     C85193  10.591   1.301   9.978 -0.1303  0.3685  0.8192
  646MOL0     C85194  10.220   1.527  10.127 -0.0423  0.0988  0.1783
  646MOL0     C85195  10.150   1.401  10.126  0.5642  0.5941 -0.7749
  646MOL0     C85196  10.016   1.401  10.166 -0.5592  0.2310  0.4900
  646MOL0     C85197   9.952   1.514  10.202  0.0260 -0.0795 -0.7765
  646MOL0     O85198   9.821   1.533  10.247  0.1215 -0.2586  0.5401
  646MOL0     C85199   9.730   1.425  10.257  0.3653 -0.4382 -0.2399
  646MOL0     C85200   9.601   1.500  10.274  0.0477 -0.5489  0.3727
  646MOL0     C85201   9.582   1.607  10.391  0.3594  0.3940  0.2707
  646MOL0     C85202   9.611   1.544  10.525 -0.0547  0.1265  0.4994
  646MOL0     C85203   9.566   1.636  10.636  0.5663  0.5583  0.9981
  646MOL0     C85204   9.543   1.710  10.731 -0.0631 -0.0007  0.6674
  646MOL0     C85205  10.025   1.636  10.189 -0.5523  0.3458 -1.2146
  646MOL0     C85206  10.153   1.643  10.153  0.4405 -0.3184 -0.8235
  646MOL0     H85207  10.631   1.500  10.238  1.0198  2.5840 -1.8974
  646MOL0     H85208  10.865   1.463  10.198 -0.5103 -1.1272  2.2967
  646MOL0     H85209  11.063   1.304  10.158  3.0336 -0.9413  0.2688
  646MOL0     H85210  11.086   1.440  10.032 -2.9223 -0.4255 -2.5197
  646MOL0     H85211  11.171   1.152  10.007 -0.2295  0.5526 -2.9152
  646MOL0     H85212  11.284   1.292  10.051  0.1370  1.2030  0.5338
  646MOL0     H85213  11.213   1.383   9.813 -0.7939 -0.5583 -0.9478
  646MOL0     H85214  11.107   1.240   9.802  0.2033 -2.1391  2.3167
  646MOL0     H85215  11.327   1.116   9.854 -5.9986  1.7517  2.7741
  646MOL0     H85216  11.273   1.165   9.684 -0.2875  1.9509 -1.7759
  646MOL0     H85217  11.399   1.350   9.673  0.3038  2.3737  2.2304
  646MOL0     H85218  11.509   1.214   9.688  0.3015  2.8423 -2.7596
  646MOL0     H85219  11.509   1.280   9.954 -1.6498 -0.1162  0.6048
  646MOL0     H85220  11.453   1.437   9.899 -0.2885 -0.6961  0.1667
  646MOL0     H85221  11.673   1.471   9.931 -0.0308  0.6678  1.1441
  646MOL0     H85222  11.724   1.332   9.836 -3.2679 -4.4228  0.3994
  646MOL0     H85223  11.564   1.578   9.730 -0.0328  1.5961 -1.6124
  646MOL0     H85224  11.644   1.451   9.628  0.1653  1.0525 -0.7203
  646MOL0     H85225  11.697   1.769   9.834 -0.4684  2.7274 -2.2535
  646MOL0     H85226  11.956   1.928   9.608  1.6438  2.8332  0.2045
  646MOL0     H85227  12.024   1.907   9.769 -1.3711  0.4574 -0.1016
  646MOL0     H85228  11.822   1.984   9.864 -0.6468 -0.7766 -0.2404
  646MOL0     H85229  11.752   2.038   9.705  0.5764 -0.2248 -1.0455
  646MOL0     H85230  11.984   2.152   9.669 -0.0782  1.1365  0.7419
  646MOL0     H85231  11.856   2.229   9.768 -1.2756 -0.8598 -0.9776
  646MOL0     H85232  12.085   2.241   9.848  0.0437 -1.0727 -2.8573
  646MOL0     H85233  12.095   2.076   9.890  0.2273 -1.6481 -1.2710
  646MOL0     H85234  12.238   2.211  10.011  3.1994 -2.3835  0.5931
  646MOL0     H85235  12.374   2.238  10.234  0.5461 -2.4605  0.5843
  646MOL0     H85236  12.154   2.362  10.826  1.5382  1.3244  2.6477
  646MOL0     H85237  12.279   2.506  10.999  1.5732 -0.7170  0.1181
  646MOL0     H85238  12.397   2.861  10.841 -1.3161  1.0114  2.5308
  646MOL0     H85239  12.571   2.834  10.874  0.9046  0.7727  1.2553
  646MOL0     H85240  12.516   2.857  11.112  0.8991 -0.4294 -0.9386
  646MOL0     H85241  12.351   2.920  11.077  0.7971  1.6842 -0.5333
  646MOL0     H85242  12.445   3.108  10.947  0.3729  3.9422  2.7766
  646MOL0     H85243  12.607   3.043  10.975 -0.6962 -2.3223  0.1676
  646MOL0     H85244  12.411   3.145  11.198  1.2322  0.2395  0.5570
  646MOL0     H85245  12.567   3.080  11.225  0.4304  2.4050  2.2420
  646MOL0     H85246  12.668   3.288  11.149 -0.7935  1.9574 -1.7734
  646MOL0     H85247  12.524   3.328  11.227  2.4263  0.5618 -0.0294
  646MOL0     H85248  12.556   3.310  10.923  1.1138  0.4407  0.6907
  646MOL0     H85249  12.566   3.456  10.999  1.3563 -0.0527 -2.6883
  646MOL0     H85250  12.294   3.301  11.020  0.9132  0.3414 -1.4477
  646MOL0     H85251  12.345   3.457  11.104 -1.6814  4.9101 -3.2014
  646MOL0     H85252  12.297   3.402  10.809  2.5283 -0.0511  0.2766
  646MOL0     H85253  12.401   3.527  10.864 -0.3100  1.9638  1.5453
  646MOL0     H85254  12.499   2.692  10.692 -0.6959 -1.4983 -2.2866
  646MOL0     H85255  12.390   2.536  10.525  0.8049 -1.6805 -0.0360
  646MOL0     H85256  12.032   2.206  10.461  1.7098 -0.9560  0.9723
  646MOL0     H85257  11.886   2.151  10.250 -0.2807 -1.4334  0.1403
  646MOL0     H85258  10.759   1.207   9.866  2.7376  1.7483 -1.5684
  646MOL0     H85259  10.520   1.249   9.915  0.4903  1.9316 -1.2867
  646MOL0     H85260  10.198   1.316  10.079 -3.8335 -0.8278 -3.2928
  646MOL0     H85261   9.961   1.308  10.179  1.0954 -0.6089  2.0328
  646MOL0     H85262   9.751   1.365  10.346 -0.2489 -0.0845  0.1510
  646MOL0     H85263   9.730   1.359  10.170  3.2955  1.1202 -1.5965
  646MOL0     H85264   9.588   1.561  10.184 -3.2314 -3.0379 -1.0460
  646MOL0     H85265   9.520   1.428  10.280 -0.0021 -0.6983 -1.5752
  646MOL0     H85266   9.477   1.633  10.376 -1.4022 -5.3754  0.2109
  646MOL0     H85267   9.634   1.702  10.375 -0.4748  0.6456 -1.1231
  646MOL0     H85268   9.558   1.449  10.538  1.0139 -1.0343 -2.6816
  646MOL0     H85269   9.717   1.528  10.546  0.6986  0.0054 -2.8991
  646MOL0     H85270   9.525   1.771  10.817 -1.4738  0.1720  0.2754
  646MOL0     H85271   9.967   1.724  10.213 -1.7672 -0.3775 -1.4047
  646MOL0     H85272  10.206   1.738  10.159  2.1677 -1.3272  1.6977
  647MOL0     O85273   7.943   2.233   5.760 -0.5163  0.0019 -0.1464
  647MOL0     C85274   8.002   2.214   5.656 -0.2943 -0.0579 -0.1586
  647MOL0     O85275   8.116   2.146   5.643 -0.0540  0.0493  0.1313
  647MOL0     C85276   8.201   2.111   5.751 -0.0568  0.4328 -0.5445
  647MOL0     C85277   8.342   2.140   5.750  0.5335  0.1754 -0.0829
  647MOL0     C85278   8.434   2.090   5.847 -0.3064 -0.3109 -0.6087
  647MOL0     C85279   8.381   2.003   5.949  0.0999 -1.1589  0.0090
  647MOL0     O85280   8.459   1.962   6.060 -0.0115 -0.4618  0.1423
  647MOL0     C85281   8.558   1.868   6.015  0.1023 -0.3101  0.4315
  647MOL0     C85282   8.701   1.919   6.061 -0.5294  0.2858 -0.2037
  647MOL0     C85283   8.810   1.800   6.054  0.1143  0.9359  0.3097
  647MOL0     C85284   8.831   1.755   5.905  0.3921 -0.0196  0.8133
  647MOL0     C85285   8.947   1.658   5.877  0.3247 -0.3821 -0.6821
  647MOL0     C85286   8.922   1.518   5.948  0.2854 -0.4383 -0.3325
  647MOL0     C85287   9.035   1.419   5.906  0.9380  0.7711 -0.4460
  647MOL0     C85288   9.021   1.291   5.980  0.3283 -0.7913  0.1102
  647MOL0     N85289   8.911   1.205   5.922 -0.2377  0.4290 -0.3810
  647MOL0     C85290   8.794   1.161   5.988 -0.4518  0.2596 -0.2822
  647MOL0     C85291   8.747   1.063   5.904 -0.7844 -0.2757 -0.3606
  647MOL0     C85292   8.636   0.965   5.949  0.2053 -0.7022 -0.9002
  647MOL0     C85293   8.502   1.011   5.901  0.3023  0.5850 -1.1340
  647MOL0     C85294   8.464   1.130   5.983  0.3886 -0.6000 -0.4574
  647MOL0     C85295   8.319   1.142   5.983  0.7529  0.1072 -0.5423
  647MOL0     O85296   8.264   1.043   6.072 -0.3381  0.1356  0.1395
  647MOL0     C85297   8.124   1.041   6.073 -0.1869  0.2123  0.0078
  647MOL0     C85298   8.043   0.923   6.044 -0.3667 -0.3038 -0.5073
  647MOL0     C85299   7.902   0.937   6.052 -0.7483  0.7377  0.4687
  647MOL0     C85300   7.838   1.068   6.062  0.4171 -0.2304  0.5431
  647MOL0     C85301   7.690   1.080   6.071  0.0334 -1.0791 -0.0487
  647MOL0     O85302   7.640   1.211   6.109 -0.3621 -0.1100  0.2715
  647MOL0     C85303   7.503   1.204   6.140 -0.0541  0.4534 -0.5015
  647MOL0     C85304   7.412   1.202   6.034  0.4294 -0.2534 -1.0436
  647MOL0     C85305   7.273   1.185   6.049  0.8204  0.1621 -0.0654
  647MOL0     C85306   7.222   1.155   6.184  0.1152 -0.2332  0.5527
  647MOL0     O85307   7.091   1.125   6.216  0.0805  0.2406  0.2235
  647MOL0     C85308   6.996   1.127   6.105 -0.6812 -0.3141  0.6915
  647MOL0     C85309   6.871   1.051   6.156  0.4263 -0.2144  0.6400
  647MOL0     C85310   6.795   1.120   6.275 -0.2002 -0.1135  0.2136
  647MOL0     C85311   6.703   1.234   6.229  0.6598  0.7475  1.3353
  647MOL0     C85312   6.604   1.289   6.322 -0.8626  0.5132  0.4595
  647MOL0     C85313   6.660   1.347   6.448  0.3410  0.4993 -0.7073
  647MOL0     C85314   6.540   1.412   6.528 -0.9439 -0.1673  0.2814
  647MOL0     C85315   6.600   1.480   6.652 -0.2384  0.1853 -0.6394
  647MOL0    Cl85316   6.661   1.363   6.775 -0.1229 -0.7042  0.3066
  647MOL0     C85317   7.315   1.167   6.293 -0.0263 -0.0913  0.5849
  647MOL0     C85318   7.458   1.195   6.269 -0.7060  0.9449  0.2666
  647MOL0     O85319   7.622   0.980   6.041  0.9019  0.0474 -0.2094
  647MOL0     C85320   7.921   1.173   6.099 -0.3739  1.0913 -0.3971
  647MOL0     C85321   8.061   1.159   6.110  0.1826 -0.6629  0.6303
  647MOL0     N85322   8.822   1.053   5.787 -0.1345 -0.8397 -0.2358
  647MOL0     N85323   8.921   1.136   5.800 -0.7703 -0.1609  0.2676
  647MOL0     C85324   8.241   1.973   5.951  0.8466 -0.6415 -0.2070
  647MOL0     C85325   8.149   2.027   5.856  0.2748  0.9039 -0.1565
  647MOL0     C85326   7.935   2.263   5.533  0.0522 -0.1927  0.4976
  647MOL0     C85327   7.804   2.316   5.539  0.3522 -0.2460 -0.4871
  647MOL0     C85328   7.753   2.386   5.431 -0.4810  0.2835  0.0825
  647MOL0     C85329   7.822   2.394   5.308 -0.1472 -0.2975 -0.5287
  647MOL0     O85330   7.774   2.453   5.195  0.0472  0.2239 -0.0028
  647MOL0     C85331   7.642   2.508   5.199 -0.1525 -0.6383  0.1547
  647MOL0     C85332   7.591   2.539   5.058 -0.4782 -0.1435  0.1675
  647MOL0     C85333   7.690   2.620   4.976  1.0436  0.1231  0.4825
  647MOL0     C85334   7.700   2.763   5.011 -0.3679  0.6277 -0.0958
  647MOL0     C85335   7.775   2.785   5.131 -0.0751 -0.2520  0.4129
  647MOL0     C85336   7.841   2.819   5.228  0.3701  0.4531 -0.4055
  647MOL0     C85337   7.947   2.333   5.299  0.1065 -0.1734 -0.6529
  647MOL0     C85338   8.001   2.271   5.413  0.2807  0.3075 -0.3990
  647MOL0     H85339   8.388   2.191   5.666  1.3909  3.3332  2.1299
  647MOL0     H85340   8.539   2.118   5.851 -0.7395  1.6266 -1.4133
  647MOL0     H85341   8.566   1.845   5.909  5.3472  0.3085  0.4391
  647MOL0     H85342   8.547   1.775   6.072 -2.4703 -1.6729 -2.0618
  647MOL0     H85343   8.684   1.958   6.162 -0.4134  1.7704 -0.7324
  647MOL0     H85344   8.751   2.000   6.007 -2.0113  0.2879 -1.6211
  647MOL0     H85345   8.772   1.711   6.106 -1.1581  1.1891 -0.1585
  647MOL0     H85346   8.902   1.831   6.105 -1.2905  4.6771  0.8925
  647MOL0     H85347   8.742   1.695   5.882  0.6986  0.0162 -0.5523
  647MOL0     H85348   8.849   1.847   5.849 -2.1395  0.9695  1.4982
  647MOL0     H85349   9.045   1.702   5.896 -0.1978  2.1092 -3.0606
  647MOL0     H85350   8.946   1.645   5.768  1.3030 -0.1433 -0.7316
  647MOL0     H85351   8.821   1.488   5.916 -0.0930  0.9571 -0.5102
  647MOL0     H85352   8.906   1.521   6.056 -2.1675 -2.2346 -0.5499
  647MOL0     H85353   9.011   1.391   5.803  3.3215 -2.2135 -0.3411
  647MOL0     H85354   9.136   1.459   5.916  0.7071  1.6038 -1.2628
  647MOL0     H85355   9.012   1.326   6.083  2.8258  0.5922 -0.0640
  647MOL0     H85356   9.114   1.235   5.966  1.7062  1.8994 -2.4453
  647MOL0     H85357   8.771   1.181   6.092  1.1498 -0.9034  0.3279
  647MOL0     H85358   8.642   0.950   6.058 -0.6669  3.0798 -0.2059
  647MOL0     H85359   8.654   0.870   5.897 -1.6655 -0.1011 -2.7805
  647MOL0     H85360   8.428   0.932   5.921 -0.8889  2.4801  3.0491
  647MOL0     H85361   8.513   1.029   5.794  2.0858 -1.3467 -1.3500
  647MOL0     H85362   8.506   1.126   6.084  2.2487 -2.0201 -1.2320
  647MOL0     H85363   8.499   1.226   5.943  0.9744  0.2303  1.8621
  647MOL0     H85364   8.265   1.147   5.888 -2.0257  1.4497  0.9902
  647MOL0     H85365   8.303   1.237   6.035  2.0685  0.8956 -1.5187
  647MOL0     H85366   8.084   0.822   6.046  1.5882  0.4278 -1.1120
  647MOL0     H85367   7.847   0.845   6.038 -0.9216  0.9036  0.0332
  647MOL0     H85368   7.459   1.211   5.937 -0.9799 -2.0832 -1.9695
  647MOL0     H85369   7.215   1.194   5.958 -0.7943  0.4754  0.9443
  647MOL0     H85370   7.040   1.072   6.022 -3.0603 -1.8953  0.3856
  647MOL0     H85371   6.970   1.226   6.066  0.5201 -0.4188 -0.4048
  647MOL0     H85372   6.902   0.950   6.183 -1.2843 -1.3194 -1.2410
  647MOL0     H85373   6.799   1.038   6.074 -3.6306 -3.3861  4.2775
  647MOL0     H85374   6.866   1.159   6.349  0.5079 -0.4652 -0.2650
  647MOL0     H85375   6.730   1.038   6.309 -1.7834  0.1035 -2.0515
  647MOL0     H85376   6.770   1.310   6.189  0.3308  0.8395  0.9476
  647MOL0     H85377   6.650   1.197   6.141  2.5794  1.6264 -0.2732
  647MOL0     H85378   6.557   1.196   6.352 -0.0495  0.1444  0.6293
  647MOL0     H85379   6.550   1.366   6.266 -1.0977  2.9977  3.7302
  647MOL0     H85380   6.730   1.428   6.424  0.7673 -0.5131 -3.2655
  647MOL0     H85381   6.718   1.270   6.501 -0.9207 -0.0498 -0.0902
  647MOL0     H85382   6.517   1.496   6.463  2.2575  0.2291 -0.5287
  647MOL0     H85383   6.456   1.343   6.540 -0.1046 -1.3323 -0.2382
  647MOL0     H85384   6.530   1.548   6.700  1.0684  1.1177 -0.0076
  647MOL0     H85385   6.691   1.524   6.609 -0.8283  0.3215 -1.7762
  647MOL0     H85386   7.279   1.155   6.395 -1.2249  0.3206  0.2237
  647MOL0     H85387   7.534   1.209   6.345 -0.0785 -2.0641  0.3234
  647MOL0     H85388   7.874   1.271   6.108  0.2618  1.4245 -0.6760
  647MOL0     H85389   8.121   1.248   6.127 -0.8228  0.1838 -0.1195
  647MOL0     H85390   8.203   1.918   6.036 -0.4802  1.6130  0.7672
  647MOL0     H85391   8.044   1.999   5.866  0.5676  0.5092  3.1257
  647MOL0     H85392   7.744   2.309   5.629  0.5010 -0.3531 -0.3963
  647MOL0     H85393   7.657   2.436   5.444 -1.9136 -2.3099  0.0324
  647MOL0     H85394   7.638   2.600   5.257  1.6674  0.7848 -1.8236
  647MOL0     H85395   7.570   2.440   5.246  0.1732 -0.4204  0.9667
  647MOL0     H85396   7.586   2.439   5.014  6.0559 -0.0381 -1.8265
  647MOL0     H85397   7.491   2.584   5.060 -0.2852  0.3003 -0.1347
  647MOL0     H85398   7.655   2.612   4.873  0.0956  0.5439  0.7561
  647MOL0     H85399   7.788   2.573   4.967  1.2929  0.5550  0.8555
  647MOL0     H85400   7.745   2.825   4.933  1.5983  1.8691  1.8911
  647MOL0     H85401   7.599   2.800   5.030 -0.3888  0.0765  0.9659
  647MOL0     H85402   7.901   2.843   5.313  0.3542  0.0808 -0.2884
  647MOL0     H85403   8.006   2.337   5.208  1.6137 -3.2224  0.0722
  647MOL0     H85404   8.106   2.246   5.419  0.1289 -0.0907  0.8126
  648MOL0     O85405   8.236   1.968   7.767 -0.0716 -0.9428  0.4491
  648MOL0     C85406   8.241   1.993   7.651  0.3907 -0.9080  0.4427
  648MOL0     O85407   8.154   1.952   7.550  0.4322 -0.0206 -0.6604
  648MOL0     C85408   8.091   1.827   7.560 -0.3215  0.4586  0.6534
  648MOL0     C85409   8.167   1.717   7.597 -0.1641  0.4745  0.1729
  648MOL0     C85410   8.113   1.586   7.604 -0.7631  0.5243 -0.1049
  648MOL0     C85411   7.985   1.557   7.556  0.0706 -0.5848  0.1789
  648MOL0     O85412   7.947   1.426   7.557 -0.3757  0.9898  0.3410
  648MOL0     C85413   7.812   1.384   7.537  0.2154 -0.3231  1.0263
  648MOL0     C85414   7.707   1.419   7.645 -0.2423  0.1235  0.0402
  648MOL0     C85415   7.710   1.330   7.769  0.1804 -0.0272  0.3319
  648MOL0     C85416   7.665   1.400   7.894 -0.8345 -1.0284  0.6153
  648MOL0     C85417   7.673   1.323   8.025  0.5334 -0.4088  0.1921
  648MOL0     C85418   7.652   1.417   8.140 -0.2151 -0.1017 -0.0489
  648MOL0     C85419   7.556   1.536   8.126 -0.1938 -0.3973 -0.3510
  648MOL0     C85420   7.544   1.626   8.242 -0.4863 -0.2386  0.1404
  648MOL0     N85421   7.461   1.743   8.201  0.5092  0.3582 -0.2619
  648MOL0     C85422   7.503   1.865   8.159 -0.5766  0.5004  0.3886
  648MOL0     C85423   7.388   1.928   8.123  0.3775  0.9330  0.0740
  648MOL0     C85424   7.368   2.061   8.062 -0.1191  0.3996  0.8677
  648MOL0     C85425   7.265   2.140   8.139 -0.5679 -0.7467 -0.1982
  648MOL0     C85426   7.279   2.293   8.111 -0.2509  0.2865 -0.0121
  648MOL0     C85427   7.161   2.376   8.160 -0.3034 -0.1400 -0.5217
  648MOL0     O85428   7.062   2.352   8.057  0.0491 -0.2107 -0.0875
  648MOL0     C85429   6.943   2.418   8.065  0.0956  1.1400 -0.8288
  648MOL0     C85430   6.910   2.539   8.129 -0.4207  0.1241  0.0490
  648MOL0     C85431   6.784   2.595   8.126 -0.3385 -0.4306  0.1736
  648MOL0     C85432   6.689   2.539   8.043  0.2752  0.3091  1.0087
  648MOL0     C85433   6.562   2.607   8.030  0.3248  0.4592  0.2208
  648MOL0     O85434   6.526   2.685   8.133  0.4535  0.0772 -0.0709
  648MOL0     C85435   6.452   2.796   8.109  0.3726 -1.0872 -0.0301
  648MOL0     C85436   6.490   2.921   8.163 -1.2495  0.8465 -0.9146
  648MOL0     C85437   6.414   3.042   8.150  1.1374 -0.6444 -0.2860
  648MOL0     C85438   6.300   3.039   8.079 -0.4153  0.0050 -0.1074
  648MOL0     O85439   6.217   3.147   8.074  0.9274 -0.2366  0.2496
  648MOL0     C85440   6.102   3.125   8.157 -0.3855 -0.3218 -0.3951
  648MOL0     C85441   6.003   3.238   8.140 -0.3582 -1.2860 -1.1816
  648MOL0     C85442   5.871   3.198   8.196  0.2367 -0.5000 -0.0521
  648MOL0     C85443   5.784   3.323   8.226 -0.6318 -0.6250  0.2490
  648MOL0     C85444   5.651   3.286   8.276 -0.3099 -0.5462 -0.1941
  648MOL0     C85445   5.533   3.390   8.240 -0.2605  0.2172 -0.6854
  648MOL0     C85446   5.577   3.536   8.280  0.1447  0.5047  0.1905
  648MOL0     C85447   5.472   3.643   8.252 -0.1304 -0.0055  0.1481
  648MOL0    Cl85448   5.426   3.660   8.075  0.7012 -0.1517  0.0653
  648MOL0     C85449   6.261   2.926   8.012 -0.1912  0.4820 -0.5633
  648MOL0     C85450   6.339   2.806   8.024  0.0765  0.0401 -0.4377
  648MOL0     O85451   6.516   2.612   7.914  0.4042 -0.1159  0.1371
  648MOL0     C85452   6.719   2.424   7.964  0.2577 -0.5427  1.0607
  648MOL0     C85453   6.841   2.358   7.983 -0.2287 -0.1319  0.2933
  648MOL0     N85454   7.280   1.851   8.162 -0.2225  0.1528  0.1766
  648MOL0     N85455   7.326   1.736   8.187 -0.4975  0.0615  0.6472
  648MOL0     C85456   7.911   1.665   7.499  0.1663 -0.2013 -1.0068
  648MOL0     C85457   7.964   1.798   7.512 -0.4546 -0.1264 -0.4733
  648MOL0     C85458   8.356   2.080   7.594  0.5764  0.2171 -1.0102
  648MOL0     C85459   8.362   2.102   7.454 -0.0936  0.4271  0.4189
  648MOL0     C85460   8.475   2.170   7.402 -0.4745  0.8299  0.1942
  648MOL0     C85461   8.587   2.206   7.485 -0.5701  1.1263  0.7137
  648MOL0     O85462   8.691   2.283   7.433 -0.2059  0.4193  0.0174
  648MOL0     C85463   8.730   2.394   7.503 -0.1215 -0.4042 -0.0093
  648MOL0     C85464   8.616   2.484   7.543  0.2897  0.1904  0.5589
  648MOL0     C85465   8.518   2.532   7.443  0.2667  0.8144  0.3285
  648MOL0     C85466   8.590   2.591   7.312  0.1470 -0.1600  1.0061
  648MOL0     C85467   8.491   2.648   7.216  0.8042 -0.5972 -0.7297
  648MOL0     C85468   8.411   2.699   7.140 -0.2315 -0.3676  0.4415
  648MOL0     C85469   8.585   2.173   7.619  1.0357  0.4077 -0.6423
  648MOL0     C85470   8.466   2.114   7.676  0.2388 -0.0061 -0.3712
  648MOL0     H85471   8.274   1.722   7.616 -0.2374 -0.4003  0.9215
  648MOL0     H85472   8.168   1.495   7.624 -2.9795 -1.0516 -0.6937
  648MOL0     H85473   7.811   1.275   7.531 -0.3024 -0.4532  2.8569
  648MOL0     H85474   7.785   1.429   7.441  4.3734  1.4205  0.4275
  648MOL0     H85475   7.609   1.412   7.596 -1.2044  0.2145  1.8516
  648MOL0     H85476   7.728   1.523   7.670  0.2541  0.2783 -0.9504
  648MOL0     H85477   7.809   1.286   7.781 -0.4319 -3.0613 -3.5495
  648MOL0     H85478   7.648   1.243   7.747  0.0128  0.7162 -2.6869
  648MOL0     H85479   7.746   1.473   7.903  0.7655 -2.6744  0.0501
  648MOL0     H85480   7.566   1.443   7.873 -1.0283 -1.9269 -0.3829
  648MOL0     H85481   7.766   1.265   8.033 -0.5319 -2.3247 -0.5205
  648MOL0     H85482   7.592   1.251   8.043  2.1374 -2.0326  1.2109
  648MOL0     H85483   7.743   1.449   8.191 -1.1957  1.1261  1.0221
  648MOL0     H85484   7.608   1.347   8.212  0.2375 -1.2984 -0.9062
  648MOL0     H85485   7.612   1.605   8.062 -1.4722  2.3328  1.2828
  648MOL0     H85486   7.461   1.503   8.083 -1.5386  0.8899  1.4957
  648MOL0     H85487   7.641   1.649   8.288 -0.8602  0.2146  0.7224
  648MOL0     H85488   7.487   1.571   8.317 -2.6302 -1.6199 -2.3418
  648MOL0     H85489   7.605   1.903   8.148 -0.3552  0.0221  0.7741
  648MOL0     H85490   7.332   2.051   7.959  1.2433 -2.9638  0.5945
  648MOL0     H85491   7.464   2.113   8.056  0.6160 -0.8686  1.2659
  648MOL0     H85492   7.278   2.121   8.246 -1.5710 -1.2871 -0.1620
  648MOL0     H85493   7.164   2.110   8.111 -0.2085  0.0257 -2.5115
  648MOL0     H85494   7.368   2.327   8.164  1.0365  1.4631 -2.7491
  648MOL0     H85495   7.290   2.305   8.003 -1.4006 -1.2545 -0.3425
  648MOL0     H85496   7.184   2.483   8.158  2.1029 -0.5731  0.6605
  648MOL0     H85497   7.135   2.349   8.262 -0.4198 -0.7034 -0.6948
  648MOL0     H85498   6.985   2.592   8.187  1.3296 -3.6118  1.5779
  648MOL0     H85499   6.779   2.683   8.189 -1.3317  0.0703 -0.5644
  648MOL0     H85500   6.570   2.905   8.235 -2.1331  0.0357 -0.0899
  648MOL0     H85501   6.437   3.131   8.208 -1.4041 -1.4096  2.1086
  648MOL0     H85502   6.144   3.122   8.258 -0.1511  0.8769 -0.4406
  648MOL0     H85503   6.046   3.034   8.137 -1.6584  0.1726  0.7512
  648MOL0     H85504   5.989   3.260   8.034 -2.1056  0.5733 -0.6288
  648MOL0     H85505   6.044   3.321   8.198  0.5454 -1.9454 -0.8678
  648MOL0     H85506   5.870   3.134   8.284 -0.4190  0.8543  0.9617
  648MOL0     H85507   5.821   3.148   8.112 -0.2351 -4.1055  2.1424
  648MOL0     H85508   5.830   3.391   8.299  0.1638 -0.4622 -0.3894
  648MOL0     H85509   5.776   3.377   8.131  2.5048 -1.2009 -0.4559
  648MOL0     H85510   5.657   3.270   8.384 -3.6047  1.8604  0.5280
  648MOL0     H85511   5.617   3.190   8.235 -0.1992 -1.0797  0.9370
  648MOL0     H85512   5.441   3.349   8.282  0.0368 -0.3535 -0.5724
  648MOL0     H85513   5.520   3.387   8.131 -5.1836 -0.3748 -0.3090
  648MOL0     H85514   5.576   3.531   8.389 -1.3906  2.3941  0.3137
  648MOL0     H85515   5.678   3.562   8.248  0.0837 -0.1756 -0.6166
  648MOL0     H85516   5.522   3.734   8.284  0.7514 -0.8404  1.2207
  648MOL0     H85517   5.389   3.629   8.322  1.8612 -2.4158  2.2252
  648MOL0     H85518   6.161   2.915   7.970 -0.3396  2.0910 -0.6643
  648MOL0     H85519   6.310   2.717   7.971 -0.3727  0.5296 -1.0331
  648MOL0     H85520   6.639   2.389   7.900  2.6416 -3.5251 -0.5232
  648MOL0     H85521   6.863   2.278   7.913  0.6619 -0.7678  1.2669
  648MOL0     H85522   7.808   1.647   7.469 -0.8733  2.4497  0.6164
  648MOL0     H85523   7.906   1.882   7.475 -3.5493 -2.5994 -1.7232
  648MOL0     H85524   8.284   2.069   7.386  0.2548 -1.5056  0.9100
  648MOL0     H85525   8.483   2.196   7.297  0.8558 -1.0128 -0.2147
  648MOL0     H85526   8.786   2.458   7.435 -0.1818 -1.5166 -1.1384
  648MOL0     H85527   8.783   2.359   7.592 -0.5781 -0.7638  0.1260
  648MOL0     H85528   8.577   2.434   7.632  1.4991  1.4477  1.8573
  648MOL0     H85529   8.665   2.577   7.573 -1.5371  1.3433  0.0857
  648MOL0     H85530   8.456   2.614   7.481 -1.2121 -0.3251  0.4217
  648MOL0     H85531   8.461   2.446   7.409  1.7351 -0.7914  1.7227
  648MOL0     H85532   8.670   2.660   7.338  0.4324  0.1239 -0.5277
  648MOL0     H85533   8.638   2.518   7.246 -0.3756  0.7374 -0.4140
  648MOL0     H85534   8.347   2.748   7.070  0.1585  1.1479  1.1009
  648MOL0     H85535   8.676   2.197   7.673  0.8038  0.3629 -0.2252
  648MOL0     H85536   8.468   2.104   7.784 -1.3481  4.6510  0.3105
  649MOL0     O85537   0.659   0.805   6.683 -0.2902  1.3305  0.5687
  649MOL0     C85538   0.567   0.732   6.646  0.1188 -0.5151  0.2026
  649MOL0     O85539   0.573   0.618   6.572 -0.4600 -0.5471 -0.3158
  649MOL0     C85540   0.694   0.565   6.545  0.7448 -0.7020 -0.7461
  649MOL0     C85541   0.704   0.509   6.419 -0.2626  0.4244 -1.2148
  649MOL0     C85542   0.823   0.437   6.389  0.2490 -0.7677  0.2388
  649MOL0     C85543   0.929   0.425   6.482 -0.0319 -0.1683 -0.1815
  649MOL0     O85544   1.048   0.375   6.459 -1.1037 -0.4051  0.0873
  649MOL0     C85545   1.061   0.312   6.329  0.5037  0.4366  0.7250
  649MOL0     C85546   1.189   0.229   6.323  0.1735 -0.6680  0.7933
  649MOL0     C85547   1.308   0.310   6.378  0.1161 -0.0338 -0.4208
  649MOL0     C85548   1.444   0.236   6.363 -0.3726 -1.2862 -0.5352
  649MOL0     C85549   1.485   0.213   6.221  0.2682  0.3933 -0.1400
  649MOL0     C85550   1.621   0.128   6.225 -0.6205  0.2809  0.1615
  649MOL0     C85551   1.644   0.071   6.082 -0.6701  0.2892  0.2326
  649MOL0     C85552   1.753  -0.040   6.076 -0.3751 -0.6724 -0.0078
  649MOL0     N85553   1.742  -0.107   5.944 -0.0447 -0.6184  0.3791
  649MOL0     C85554   1.744  -0.053   5.821 -0.1067  0.2896 -0.7538
  649MOL0     C85555   1.711  -0.152   5.740  0.4060  0.7048  0.5483
  649MOL0     C85556   1.721  -0.152   5.586  0.1076  0.1896  0.0429
  649MOL0     C85557   1.649  -0.268   5.520 -0.9164  0.1839  0.8649
  649MOL0     C85558   1.716  -0.409   5.517 -0.1557 -0.3229  0.1260
  649MOL0     C85559   1.860  -0.413   5.464 -0.1326 -0.0388  0.1150
  649MOL0     O85560   1.870  -0.337   5.337 -0.2595  0.6536 -0.6896
  649MOL0     C85561   1.979  -0.354   5.259  0.4813 -0.5185  1.4846
  649MOL0     C85562   2.098  -0.417   5.288  0.0427 -0.2948 -0.3261
  649MOL0     C85563   2.200  -0.412   5.190 -0.4570 -0.2088 -0.2021
  649MOL0     C85564   2.183  -0.343   5.068 -0.4622 -0.3989 -0.6054
  649MOL0     C85565   2.303  -0.325   4.985 -0.5620 -0.1588 -1.0289
  649MOL0     O85566   2.424  -0.368   5.036  0.0842  0.0308 -0.8580
  649MOL0     C85567   2.534  -0.377   4.963  0.3188  0.6492 -0.2518
  649MOL0     C85568   2.610  -0.495   4.975  0.4685 -0.3933 -0.8323
  649MOL0     C85569   2.727  -0.515   4.898 -0.4765  0.6016 -0.1577
  649MOL0     C85570   2.768  -0.417   4.817 -0.5907 -0.8559 -0.2035
  649MOL0     O85571   2.882  -0.430   4.738 -0.0396 -0.0633 -0.5005
  649MOL0     C85572   2.949  -0.320   4.676  0.0532 -0.4647 -0.4744
  649MOL0     C85573   3.015  -0.225   4.779 -0.6658  0.3456  0.4525
  649MOL0     C85574   3.074  -0.300   4.905 -0.3719 -0.2144  0.2535
  649MOL0     C85575   3.150  -0.207   5.002 -0.9028 -0.4128 -1.0259
  649MOL0     C85576   3.243  -0.285   5.106 -0.0545  0.1284 -0.0612
  649MOL0     C85577   3.177  -0.348   5.223 -0.4267 -0.3315 -0.0975
  649MOL0     C85578   3.282  -0.425   5.304 -0.8929 -0.5812  0.0420
  649MOL0     C85579   3.208  -0.505   5.413 -0.2314 -0.2950  0.5080
  649MOL0    Cl85580   3.316  -0.652   5.456 -0.1265  0.1537  0.1754
  649MOL0     C85581   2.700  -0.295   4.805  0.3380  0.3710  0.1781
  649MOL0     C85582   2.589  -0.269   4.888 -0.5748  0.6999  0.0706
  649MOL0     O85583   2.289  -0.285   4.872 -0.2053 -0.5797 -0.7492
  649MOL0     C85584   2.068  -0.272   5.044  0.2939 -0.0839 -0.4032
  649MOL0     C85585   1.969  -0.280   5.141 -0.1307 -0.2919 -0.1687
  649MOL0     N85586   1.686  -0.267   5.814 -0.2297 -0.1823 -0.7038
  649MOL0     N85587   1.716  -0.240   5.937  0.0744  0.0216 -0.0416
  649MOL0     C85588   0.916   0.489   6.607 -0.7229  0.9621  0.1158
  649MOL0     C85589   0.794   0.548   6.640 -0.2640  0.1713 -0.1999
  649MOL0     C85590   0.426   0.776   6.677 -0.3127  0.1568  0.3440
  649MOL0     C85591   0.309   0.695   6.649 -0.2289 -0.0739  0.2746
  649MOL0     C85592   0.175   0.744   6.668 -0.0790  0.8451 -0.3235
  649MOL0     C85593   0.158   0.872   6.713 -0.5944 -0.7345  0.7029
  649MOL0     O85594   0.033   0.925   6.735  0.3384  0.0886  0.0772
  649MOL0     C85595   0.010   0.996   6.865 -1.3273  0.1541  0.2331
  649MOL0     C85596  -0.141   0.998   6.913 -0.3443 -0.4497  0.5856
  649MOL0     C85597  -0.217   1.083   6.807  0.0799  0.5512  0.0920
  649MOL0     C85598  -0.220   1.235   6.840 -0.1592 -0.0772 -0.1669
  649MOL0     C85599  -0.344   1.298   6.792  1.3125  0.2323 -0.7208
  649MOL0     C85600  -0.446   1.338   6.738  0.1358  0.5792 -0.1888
  649MOL0     C85601   0.275   0.946   6.756  0.5313  0.0478  0.3461
  649MOL0     C85602   0.401   0.901   6.734 -0.2292  0.1918  0.2983
  649MOL0     H85603   0.613   0.502   6.361 -0.8934 -0.0645 -0.1953
  649MOL0     H85604   0.840   0.400   6.289  3.1955  1.8447 -0.4029
  649MOL0     H85605   1.069   0.391   6.254  0.4185 -0.9125 -0.7689
  649MOL0     H85606   0.981   0.240   6.308 -1.5353  2.3746  1.5639
  649MOL0     H85607   1.203   0.216   6.215 -2.6445 -1.6935  0.4760
  649MOL0     H85608   1.178   0.129   6.366  1.5737 -1.7577 -1.1897
  649MOL0     H85609   1.287   0.331   6.483  0.4070 -0.2809 -0.3122
  649MOL0     H85610   1.306   0.413   6.342  0.2065  0.5351  1.1219
  649MOL0     H85611   1.518   0.296   6.415  3.2157 -2.6099 -3.6470
  649MOL0     H85612   1.421   0.145   6.418 -0.9472  0.7720  2.8739
  649MOL0     H85613   1.520   0.302   6.168  2.7532 -1.2198 -1.3806
  649MOL0     H85614   1.406   0.156   6.170 -2.1747  3.8235 -0.5269
  649MOL0     H85615   1.609   0.040   6.289  1.1136 -0.8867 -1.0088
  649MOL0     H85616   1.712   0.172   6.265  1.3965 -4.7082  1.8721
  649MOL0     H85617   1.557   0.028   6.032  1.6428 -2.8443 -1.4523
  649MOL0     H85618   1.674   0.150   6.012  0.5889 -0.8716 -0.5835
  649MOL0     H85619   1.731  -0.111   6.156  0.0137 -1.0213 -0.2042
  649MOL0     H85620   1.851   0.007   6.079 -1.0769  0.8747 -0.6362
  649MOL0     H85621   1.768   0.050   5.798 -1.2652  0.7186 -0.0802
  649MOL0     H85622   1.818  -0.151   5.537 -0.0940  0.6577 -0.3588
  649MOL0     H85623   1.676  -0.058   5.551  2.3211  1.2435 -0.1589
  649MOL0     H85624   1.634  -0.234   5.417 -0.6770 -0.1329  0.7242
  649MOL0     H85625   1.550  -0.274   5.566 -2.0261  2.0123 -1.0678
  649MOL0     H85626   1.728  -0.442   5.620  1.2713  1.2669  0.5230
  649MOL0     H85627   1.652  -0.477   5.460  0.8213 -1.5915  0.5047
  649MOL0     H85628   1.902  -0.512   5.447  1.0783  0.1885  1.5856
  649MOL0     H85629   1.923  -0.356   5.533  0.1812 -1.5859  1.1521
  649MOL0     H85630   2.116  -0.451   5.390  1.7707  4.5987  1.3415
  649MOL0     H85631   2.292  -0.468   5.199  0.9491  1.8386 -1.2204
  649MOL0     H85632   2.574  -0.578   5.035  0.1564 -0.3087 -0.9017
  649MOL0     H85633   2.797  -0.597   4.909 -1.9201 -1.0915 -2.6214
  649MOL0     H85634   2.877  -0.266   4.613  0.1059 -1.2166 -1.1854
  649MOL0     H85635   3.023  -0.356   4.604  0.3412 -0.0092 -0.4159
  649MOL0     H85636   2.932  -0.165   4.815  0.1696  1.3711  0.7223
  649MOL0     H85637   3.089  -0.168   4.722 -1.0469  0.6233  0.2309
  649MOL0     H85638   3.139  -0.383   4.877 -1.0853 -0.5003 -0.6070
  649MOL0     H85639   2.992  -0.350   4.957 -1.2876 -1.9976 -2.6840
  649MOL0     H85640   3.220  -0.147   4.944 -0.9958  0.0365 -0.6811
  649MOL0     H85641   3.078  -0.145   5.056  0.3404 -0.9246  1.3883
  649MOL0     H85642   3.319  -0.219   5.146 -0.3992  0.5338 -0.0663
  649MOL0     H85643   3.296  -0.367   5.056 -0.2227  1.5804 -2.8027
  649MOL0     H85644   3.113  -0.424   5.178 -1.1627 -0.5793  1.2881
  649MOL0     H85645   3.115  -0.287   5.289 -1.5034 -0.7420 -0.6919
  649MOL0     H85646   3.340  -0.490   5.238  0.6338 -0.6531  1.3883
  649MOL0     H85647   3.356  -0.368   5.361  0.7305 -3.4957  1.0251
  649MOL0     H85648   3.111  -0.539   5.375  1.3911 -2.1639 -2.4198
  649MOL0     H85649   3.196  -0.437   5.497 -2.6992 -0.3966  0.3085
  649MOL0     H85650   2.725  -0.209   4.743  2.0789 -0.9562 -1.0344
  649MOL0     H85651   2.524  -0.183   4.873 -2.5741 -0.2800  2.3338
  649MOL0     H85652   2.065  -0.196   4.966  1.8942 -0.0962 -0.5093
  649MOL0     H85653   1.879  -0.222   5.121 -1.0050 -0.6585  2.3243
  649MOL0     H85654   1.000   0.484   6.676  0.2793  0.0118 -1.1264
  649MOL0     H85655   0.783   0.581   6.743  1.0689  0.8233 -0.2458
  649MOL0     H85656   0.321   0.598   6.602  4.1313 -0.1272  1.0996
  649MOL0     H85657   0.087   0.682   6.654  0.7675 -1.0084  1.8570
  649MOL0     H85658   0.033   1.102   6.850 -0.9525  0.8151  4.4098
  649MOL0     H85659   0.081   0.962   6.940 -0.3353  1.8561  0.1105
  649MOL0     H85660  -0.187   0.902   6.935 -0.6471 -0.6802 -0.9523
  649MOL0     H85661  -0.150   1.039   7.014  0.2247 -1.0063  0.8671
  649MOL0     H85662  -0.316   1.038   6.809  0.5737 -1.0075 -3.0659
  649MOL0     H85663  -0.179   1.069   6.705  0.3188  1.9502 -0.0328
  649MOL0     H85664  -0.223   1.248   6.948  0.9663 -1.7544  0.1086
  649MOL0     H85665  -0.134   1.287   6.797 -0.3280 -0.0993 -0.5380
  649MOL0     H85666  -0.539   1.363   6.692  0.5472 -0.3255 -1.6143
  649MOL0     H85667   0.268   1.053   6.773  3.9077  0.2868  0.9136
  649MOL0     H85668   0.482   0.972   6.747 -0.6068  0.3567  1.9829
  650MOL0     O85669   3.207   4.699   1.878  0.5730  1.1081 -0.8951
  650MOL0     C85670   3.292   4.756   1.955 -0.4529 -0.3479  0.2932
  650MOL0     O85671   3.271   4.861   2.033  0.0280  0.2297 -0.4155
  650MOL0     C85672   3.143   4.908   2.033  0.4986  0.7572 -1.2184
  650MOL0     C85673   3.088   4.905   2.162  0.3262  0.0814  0.0033
  650MOL0     C85674   2.947   4.933   2.183 -0.1742  0.3789  0.7249
  650MOL0     C85675   2.878   4.992   2.065 -0.0274 -0.9375 -0.0694
  650MOL0     O85676   2.758   5.059   2.073  0.6169 -0.2957 -0.2753
  650MOL0     C85677   2.651   4.982   2.129 -0.1379 -0.1631  0.6169
  650MOL0     C85678   2.533   5.079   2.126 -0.3921 -0.0711 -1.1420
  650MOL0     C85679   2.476   5.101   1.991 -0.1887  0.8307 -0.4825
  650MOL0     C85680   2.360   5.191   2.014  0.5385  0.4771  0.2624
  650MOL0     C85681   2.218   5.123   2.053 -0.0342  0.4980  0.3388
  650MOL0     C85682   2.101   5.209   2.074 -0.1867 -0.5054 -0.7354
  650MOL0     C85683   2.042   5.283   1.958 -0.5264  0.0703 -0.7385
  650MOL0     C85684   1.917   5.369   1.996 -1.0611  0.2371  0.1881
  650MOL0     N85685   1.808   5.288   2.055 -0.4522 -0.4732  0.0559
  650MOL0     C85686   1.737   5.193   1.987  0.6898  0.0066  0.4222
  650MOL0     C85687   1.660   5.135   2.082  0.5749  0.2607 -0.5012
  650MOL0     C85688   1.580   5.008   2.050  0.8613 -0.2798 -0.4133
  650MOL0     C85689   1.433   5.017   2.105  0.1796 -0.2709  0.1235
  650MOL0     C85690   1.412   4.965   2.256  0.5037 -0.6600 -0.2773
  650MOL0     C85691   1.275   4.932   2.311  0.0161 -0.3343 -0.1317
  650MOL0     O85692   1.201   5.054   2.342 -0.2278  0.2719  0.8337
  650MOL0     C85693   1.071   5.033   2.362  0.2810  0.3273  0.3603
  650MOL0     C85694   1.017   4.917   2.441  0.4217 -0.3428 -0.7380
  650MOL0     C85695   0.876   4.911   2.459 -0.2011 -0.3103 -0.5408
  650MOL0     C85696   0.790   5.015   2.415 -0.4236  0.2168  0.3529
  650MOL0     C85697   0.641   5.003   2.440 -0.7471  0.5172  0.8033
  650MOL0     O85698   0.594   4.878   2.487  0.2942 -0.3914  0.4263
  650MOL0     C85699   0.468   4.880   2.546 -0.2456  0.4034  0.6333
  650MOL0     C85700   0.412   4.753   2.546 -1.3012 -0.8061 -0.0568
  650MOL0     C85701   0.282   4.733   2.596 -1.2863 -0.1612 -1.6711
  650MOL0     C85702   0.219   4.832   2.666  0.8487 -0.0028 -0.9206
  650MOL0     O85703   0.104   4.795   2.734  0.8282 -0.4996 -0.6871
  650MOL0     C85704  -0.000   4.892   2.769 -0.0975 -1.2117 -0.9712
  650MOL0     C85705  -0.118   4.814   2.828  0.1582 -0.1487 -0.5025
  650MOL0     C85706  -0.211   4.901   2.912  0.2163  0.7344 -0.0770
  650MOL0     C85707  -0.301   4.812   2.996 -0.1161 -0.3933  0.5524
  650MOL0     C85708  -0.408   4.900   3.053  0.0796 -0.7132 -0.0329
  650MOL0     C85709  -0.457   4.843   3.183  0.1368 -0.3191  0.1397
  650MOL0     C85710  -0.567   4.918   3.243  0.6512 -1.0620 -0.0397
  650MOL0     C85711  -0.633   4.841   3.352 -0.1934 -0.7074  0.1285
  650MOL0    Cl85712  -0.723   4.968   3.439 -0.1377  0.3391  0.1859
  650MOL0     C85713   0.274   4.962   2.670  0.8405 -0.3445 -0.7186
  650MOL0     C85714   0.395   4.991   2.601  0.1067  0.2784  0.2423
  650MOL0     O85715   0.572   5.102   2.427  0.1319  0.0300  0.4322
  650MOL0     C85716   0.846   5.122   2.349 -0.5670 -0.1488 -0.1508
  650MOL0     C85717   0.982   5.125   2.314 -0.0743 -0.1406  0.3256
  650MOL0     N85718   1.682   5.204   2.199 -0.5981 -0.7209 -0.0026
  650MOL0     N85719   1.776   5.294   2.183 -0.0443 -0.4969  0.4282
  650MOL0     C85720   2.939   5.012   1.945 -0.7264  0.0193  0.3154
  650MOL0     C85721   3.071   4.959   1.925  0.1633 -0.1717 -0.4580
  650MOL0     C85722   3.434   4.722   1.944  0.0616  0.4228  1.1503
  650MOL0     C85723   3.475   4.661   1.826 -0.1058  0.5537  0.0226
  650MOL0     C85724   3.615   4.646   1.803 -0.4994  0.8852  0.5062
  650MOL0     C85725   3.703   4.690   1.901  0.3346 -0.3468  0.7999
  650MOL0     O85726   3.835   4.706   1.870  0.1701  0.3229  1.2264
  650MOL0     C85727   3.916   4.587   1.875  0.0155 -0.5514  0.0634
  650MOL0     C85728   4.016   4.595   1.996 -0.3770 -0.2162 -0.2316
  650MOL0     C85729   3.943   4.547   2.127  0.3013 -0.5673  0.8580
  650MOL0     C85730   4.041   4.512   2.232  0.0222  0.0756 -0.3527
  650MOL0     C85731   3.964   4.493   2.363 -0.2546 -0.1514  0.4857
  650MOL0     C85732   3.901   4.477   2.470  0.0685  0.3381  0.0052
  650MOL0     C85733   3.659   4.741   2.023  0.1192 -0.4680  0.4842
  650MOL0     C85734   3.526   4.758   2.042 -0.0703  0.7341  0.0263
  650MOL0     H85735   3.146   4.868   2.245  1.5675  1.8824 -0.0016
  650MOL0     H85736   2.894   4.930   2.278  0.5630  0.8288  1.1625
  650MOL0     H85737   2.673   4.959   2.233  0.0076  1.2180  0.9066
  650MOL0     H85738   2.638   4.886   2.078  2.4670 -0.3384  0.1702
  650MOL0     H85739   2.558   5.172   2.178 -0.0797 -0.1479 -1.1519
  650MOL0     H85740   2.452   5.037   2.186  0.5850  0.1355  0.3746
  650MOL0     H85741   2.453   5.005   1.943  2.0559  0.4263 -0.8604
  650MOL0     H85742   2.554   5.151   1.934  1.7756  0.4371  1.6966
  650MOL0     H85743   2.387   5.263   2.091 -0.6012  1.5292 -0.2724
  650MOL0     H85744   2.343   5.235   1.915 -0.5294 -0.5143 -0.0331
  650MOL0     H85745   2.245   5.052   2.132  0.2276 -0.7117 -0.7899
  650MOL0     H85746   2.183   5.058   1.972  0.1276 -0.3885  0.9578
  650MOL0     H85747   2.126   5.279   2.154  1.0843 -3.3118  1.5370
  650MOL0     H85748   2.013   5.157   2.113  0.6653  0.6037  3.1118
  650MOL0     H85749   2.124   5.340   1.913 -1.1366 -0.6163 -2.8580
  650MOL0     H85750   2.006   5.215   1.881 -2.2301  1.5504 -1.3178
  650MOL0     H85751   1.879   5.427   1.912  2.1814  3.1429  0.5249
  650MOL0     H85752   1.960   5.445   2.061  0.0768 -0.9516  0.8654
  650MOL0     H85753   1.742   5.163   1.883 -0.3952 -3.2953  1.2280
  650MOL0     H85754   1.631   4.922   2.096  0.4774 -1.3541 -1.9121
  650MOL0     H85755   1.593   5.001   1.941  1.7534  0.2351 -0.3467
  650MOL0     H85756   1.374   4.967   2.028 -0.6445  0.5278  0.2327
  650MOL0     H85757   1.406   5.123   2.100 -1.3493 -0.7102 -2.3510
  650MOL0     H85758   1.464   4.870   2.271  1.1156 -0.2084  0.5469
  650MOL0     H85759   1.453   5.043   2.320 -0.5900 -0.8390  0.6769
  650MOL0     H85760   1.304   4.888   2.407 -0.3511  1.1900  0.7124
  650MOL0     H85761   1.224   4.870   2.236  1.0926  0.8715 -1.9329
  650MOL0     H85762   1.078   4.839   2.485 -1.4452 -0.1375  2.5252
  650MOL0     H85763   0.826   4.826   2.504 -2.2297  1.3613  0.5354
  650MOL0     H85764   0.468   4.670   2.504 -2.2256 -1.2313 -0.4870
  650MOL0     H85765   0.237   4.634   2.598 -1.3663 -0.1158 -0.8053
  650MOL0     H85766  -0.037   4.949   2.683 -2.3655  0.3410  0.9014
  650MOL0     H85767   0.043   4.962   2.841 -1.4735 -1.3686  0.0450
  650MOL0     H85768  -0.070   4.751   2.904  0.4622  0.1019 -0.4852
  650MOL0     H85769  -0.178   4.765   2.751 -0.9012  2.8146 -1.7278
  650MOL0     H85770  -0.268   4.962   2.842 -1.5632  0.3614  0.9745
  650MOL0     H85771  -0.157   4.974   2.973 -0.1512 -0.0191  1.1983
  650MOL0     H85772  -0.354   4.744   2.929  0.2404 -0.0760 -0.0606
  650MOL0     H85773  -0.237   4.773   3.075  2.2114  2.8195  0.4566
  650MOL0     H85774  -0.491   4.912   2.983  1.7365  0.7903 -1.9068
  650MOL0     H85775  -0.360   4.997   3.069 -1.3004 -0.1081  0.6167
  650MOL0     H85776  -0.374   4.843   3.255  3.2492 -1.2324 -3.1182
  650MOL0     H85777  -0.486   4.740   3.158 -0.4922 -0.2927  0.7276
  650MOL0     H85778  -0.540   5.015   3.284 -0.7769  0.4572 -2.4721
  650MOL0     H85779  -0.636   4.933   3.160 -0.9971 -3.4256  0.7741
  650MOL0     H85780  -0.559   4.795   3.419 -0.3090 -1.8333 -0.4878
  650MOL0     H85781  -0.687   4.754   3.314  1.1605 -1.9996  1.0119
  650MOL0     H85782   0.223   5.046   2.716  1.6828  0.6320 -1.5216
  650MOL0     H85783   0.425   5.094   2.586 -1.5625  1.0059  1.5273
  650MOL0     H85784   0.776   5.201   2.322 -0.4366 -0.2761 -0.9053
  650MOL0     H85785   1.027   5.213   2.268  0.8533 -0.5888  0.3541
  650MOL0     H85786   2.889   5.059   1.862 -1.1602 -1.5476 -0.3575
  650MOL0     H85787   3.105   4.952   1.823 -0.2272 -3.6267 -0.4650
  650MOL0     H85788   3.410   4.657   1.739  1.7734  0.9670 -1.4789
  650MOL0     H85789   3.664   4.624   1.708 -2.3457  0.8284 -0.4903
  650MOL0     H85790   3.970   4.574   1.780  3.1033 -4.5786  2.0257
  650MOL0     H85791   3.857   4.496   1.884  0.7024 -0.9478  0.6750
  650MOL0     H85792   4.101   4.528   1.974 -0.6994 -0.4989 -0.6423
  650MOL0     H85793   4.052   4.696   2.017 -0.7389 -0.6345  2.7543
  650MOL0     H85794   3.880   4.462   2.103 -1.2616  0.6209  0.6040
  650MOL0     H85795   3.882   4.629   2.165  1.0133  0.2019  0.3808
  650MOL0     H85796   4.092   4.422   2.197 -0.9319 -2.4479  3.9330
  650MOL0     H85797   4.122   4.585   2.239 -1.5063  1.8015  0.3692
  650MOL0     H85798   3.870   4.455   2.570 -0.8362  2.0749  0.1402
  650MOL0     H85799   3.728   4.789   2.092 -1.0197  0.1041  1.2666
  650MOL0     H85800   3.492   4.800   2.136 -0.3077 -3.3592  2.0157
  651MOL0     O85801   2.706   0.497   2.909 -0.1741 -0.3762 -0.4353
  651MOL0     C85802   2.759   0.587   2.971 -0.3461 -0.0716 -0.2558
  651MOL0     O85803   2.854   0.673   2.927  0.3206  1.0277  0.1544
  651MOL0     C85804   2.934   0.623   2.827  0.8411  0.1809 -0.2732
  651MOL0     C85805   2.973   0.717   2.721  1.1241  0.5758 -1.0793
  651MOL0     C85806   3.053   0.667   2.616  0.7446  1.2646  0.5594
  651MOL0     C85807   3.095   0.532   2.604  0.5491  0.1358 -0.2637
  651MOL0     O85808   3.158   0.480   2.493 -0.8760 -0.7606  0.1340
  651MOL0     C85809   3.112   0.358   2.435 -0.4940  0.0875  0.4314
  651MOL0     C85810   3.110   0.359   2.284 -0.0096  0.2029  0.4110
  651MOL0     C85811   3.249   0.361   2.237 -0.7745  0.2153 -0.3935
  651MOL0     C85812   3.310   0.224   2.223  0.0971 -0.4672  0.5578
  651MOL0     C85813   3.443   0.237   2.149 -0.6981 -0.3501 -0.0788
  651MOL0     C85814   3.563   0.229   2.244  0.4161 -0.5368  0.3546
  651MOL0     C85815   3.693   0.214   2.154  0.5506  0.8161 -0.5915
  651MOL0     C85816   3.820   0.202   2.237  0.3296 -0.1864 -0.1744
  651MOL0     N85817   3.944   0.225   2.157  0.1571  0.3000  0.0447
  651MOL0     C85818   4.039   0.320   2.169 -0.5402 -0.6637  0.6659
  651MOL0     C85819   4.127   0.309   2.062  0.2306 -0.7471 -0.6766
  651MOL0     C85820   4.261   0.386   2.051 -0.4734  0.7707 -0.2418
  651MOL0     C85821   4.244   0.534   2.003 -0.1911  0.2629 -0.6517
  651MOL0     C85822   4.220   0.532   1.852 -0.1564  0.1281 -0.0386
  651MOL0     C85823   4.357   0.514   1.789 -0.5275 -0.9802  0.7578
  651MOL0     O85824   4.437   0.635   1.799  0.3225 -0.0935  0.6201
  651MOL0     C85825   4.565   0.636   1.761  0.4340 -1.2023 -0.2804
  651MOL0     C85826   4.624   0.551   1.668  0.3158 -0.4643  0.1674
  651MOL0     C85827   4.764   0.557   1.652 -0.3994 -0.4418 -0.3484
  651MOL0     C85828   4.842   0.645   1.711 -0.1315 -0.0881 -0.7955
  651MOL0     C85829   4.985   0.648   1.704 -0.6908 -0.3617  0.2832
  651MOL0     O85830   5.043   0.757   1.763  0.6998  0.9196  0.5971
  651MOL0     C85831   5.182   0.785   1.769 -0.2083  0.3690  0.8602
  651MOL0     C85832   5.206   0.927   1.797 -0.2998 -0.1077  0.5775
  651MOL0     C85833   5.338   0.971   1.814  0.3628 -0.3246 -0.6475
  651MOL0     C85834   5.444   0.872   1.809  0.3338 -0.5658 -0.1913
  651MOL0     O85835   5.573   0.904   1.852  1.2220 -0.3103  0.6844
  651MOL0     C85836   5.613   1.042   1.835 -0.7001  0.6950  0.4837
  651MOL0     C85837   5.768   1.043   1.864  0.6435 -0.3030 -0.0872
  651MOL0     C85838   5.859   1.156   1.806 -0.2145  0.4386 -0.3517
  651MOL0     C85839   5.999   1.158   1.867 -0.0229 -0.1019 -0.7842
  651MOL0     C85840   6.110   1.247   1.788 -0.2253  0.2040  0.2310
  651MOL0     C85841   6.062   1.394   1.817  0.4217 -0.6735 -0.4550
  651MOL0     C85842   6.183   1.498   1.817  0.4268 -0.2604  0.0652
  651MOL0     C85843   6.139   1.633   1.880 -0.4853  1.5227 -0.5526
  651MOL0    Cl85844   6.005   1.706   1.779 -0.0978  0.4287 -0.8671
  651MOL0     C85845   5.420   0.740   1.771 -0.1247  0.3480  0.3448
  651MOL0     C85846   5.286   0.695   1.750  0.4582 -0.2880  0.1489
  651MOL0     O85847   5.042   0.550   1.667 -0.0995 -0.2469 -0.0847
  651MOL0     C85848   4.781   0.735   1.806  0.5283 -0.4150 -0.2272
  651MOL0     C85849   4.646   0.727   1.821  0.0956  0.3316  0.3414
  651MOL0     N85850   4.067   0.224   1.968 -0.2891  0.1729  0.2232
  651MOL0     N85851   3.962   0.173   2.030 -0.6321 -0.9793  0.2632
  651MOL0     C85852   3.056   0.448   2.710  0.0148 -0.2441 -0.3533
  651MOL0     C85853   2.980   0.496   2.815  0.9092 -0.0898  0.8002
  651MOL0     C85854   2.714   0.617   3.111  0.3453 -0.0627 -0.4014
  651MOL0     C85855   2.591   0.558   3.155  1.3616  0.6102 -0.6223
  651MOL0     C85856   2.547   0.580   3.284 -0.2260  0.2105  0.6446
  651MOL0     C85857   2.620   0.654   3.375 -0.4298 -0.4265  0.8148
  651MOL0     O85858   2.587   0.668   3.508 -0.4886  0.4291  0.4518
  651MOL0     C85859   2.488   0.767   3.519 -0.4987 -0.4136  0.2836
  651MOL0     C85860   2.488   0.840   3.646 -0.1189 -0.1125 -0.7336
  651MOL0     C85861   2.427   0.747   3.756  0.3094 -0.2946 -0.7301
  651MOL0     C85862   2.397   0.816   3.891 -0.3082 -0.4909  0.7735
  651MOL0     C85863   2.301   0.923   3.879  0.5947 -0.6655  0.2141
  651MOL0     C85864   2.229   1.019   3.850  0.2627  0.3748  0.2204
  651MOL0     C85865   2.743   0.706   3.337  0.6419 -0.2412 -0.4473
  651MOL0     C85866   2.787   0.698   3.204  0.5396  0.6764 -0.0282
  651MOL0     H85867   2.934   0.818   2.726  2.3998  1.0770 -1.0047
  651MOL0     H85868   3.075   0.727   2.528  0.5984 -2.1105 -1.9971
  651MOL0     H85869   3.017   0.320   2.476  2.0381 -2.3902  4.7262
  651MOL0     H85870   3.178   0.278   2.468  1.3239  1.2550 -0.1946
  651MOL0     H85871   3.062   0.448   2.243  1.1598  3.3549  5.0870
  651MOL0     H85872   3.046   0.279   2.245 -3.7448  2.7708  0.7782
  651MOL0     H85873   3.316   0.429   2.290  2.8280  0.2380 -4.4270
  651MOL0     H85874   3.255   0.402   2.136  2.0238  0.7172 -0.0982
  651MOL0     H85875   3.335   0.173   2.316  1.6325 -1.2758 -0.2426
  651MOL0     H85876   3.241   0.166   2.161  0.4518  0.7474 -1.0394
  651MOL0     H85877   3.453   0.329   2.092 -1.6379 -0.2945 -0.1560
  651MOL0     H85878   3.456   0.154   2.078 -3.3719 -1.0169  0.1049
  651MOL0     H85879   3.561   0.150   2.320  1.4506 -0.2825  0.6646
  651MOL0     H85880   3.564   0.321   2.303  0.6604 -0.2985 -0.0148
  651MOL0     H85881   3.696   0.116   2.105 -1.4226  0.6651 -0.4842
  651MOL0     H85882   3.706   0.290   2.076  3.1288  1.1550  0.0703
  651MOL0     H85883   3.831   0.110   2.296  3.2386  1.0983  1.4965
  651MOL0     H85884   3.807   0.287   2.304  2.0339  1.8971 -2.3106
  651MOL0     H85885   4.055   0.372   2.262 -1.0213 -2.1942  1.6372
  651MOL0     H85886   4.330   0.325   1.994  2.3463  4.3918 -1.0832
  651MOL0     H85887   4.311   0.391   2.149  1.8641 -4.0677 -0.9057
  651MOL0     H85888   4.332   0.597   2.016 -2.4103  3.0511  2.3885
  651MOL0     H85889   4.151   0.560   2.054  1.6355 -0.9684  3.6986
  651MOL0     H85890   4.151   0.456   1.812 -1.7850  2.4938 -1.9964
  651MOL0     H85891   4.191   0.633   1.822  0.9152 -0.4141 -3.3277
  651MOL0     H85892   4.335   0.496   1.683  3.8371  5.2378 -1.8549
  651MOL0     H85893   4.424   0.441   1.835  1.4269  1.0374  1.2853
  651MOL0     H85894   4.574   0.470   1.616  1.7987  0.4351 -2.9273
  651MOL0     H85895   4.815   0.485   1.588 -0.3841  1.2922 -2.4140
  651MOL0     H85896   5.123   0.996   1.804 -2.3817 -2.2922 -0.8692
  651MOL0     H85897   5.353   1.073   1.849  1.1832 -1.4796  2.8236
  651MOL0     H85898   5.561   1.097   1.915 -1.7709  0.3807  0.0176
  651MOL0     H85899   5.580   1.086   1.740 -0.7836 -2.5890 -1.1222
  651MOL0     H85900   5.804   0.944   1.836  3.0537  0.6288 -0.4860
  651MOL0     H85901   5.776   1.047   1.973  2.8833  1.4095 -0.2333
  651MOL0     H85902   5.809   1.249   1.834 -1.9421 -0.8237  1.0592
  651MOL0     H85903   5.869   1.145   1.698 -1.1782 -5.3532 -0.1920
  651MOL0     H85904   5.988   1.194   1.970  0.6626 -0.4299 -0.5900
  651MOL0     H85905   6.029   1.053   1.876  0.9486  0.2247 -0.0877
  651MOL0     H85906   6.118   1.227   1.681  2.0407  1.6480  0.0578
  651MOL0     H85907   6.211   1.245   1.832  0.3267  0.4908 -0.9972
  651MOL0     H85908   6.019   1.411   1.916 -1.5831 -1.5430 -1.1333
  651MOL0     H85909   5.984   1.420   1.746  0.7335 -1.9478 -1.3009
  651MOL0     H85910   6.265   1.454   1.876  2.5917  0.2487 -2.3659
  651MOL0     H85911   6.217   1.508   1.714 -0.8845  0.1146 -0.3435
  651MOL0     H85912   6.225   1.700   1.873  1.0597 -0.3667 -0.2858
  651MOL0     H85913   6.107   1.612   1.982 -3.0248 -1.4095 -1.7670
  651MOL0     H85914   5.490   0.657   1.767  2.6533  2.5898 -2.1372
  651MOL0     H85915   5.267   0.591   1.728  1.6643 -0.7860  1.3312
  651MOL0     H85916   4.822   0.813   1.870 -1.4641  0.1943  0.3945
  651MOL0     H85917   4.589   0.791   1.889  1.2279  1.2595  0.4457
  651MOL0     H85918   3.099   0.348   2.707  2.9176  0.8377  1.5489
  651MOL0     H85919   2.952   0.430   2.897  0.8790  0.8613  1.5741
  651MOL0     H85920   2.518   0.504   3.095 -1.1829 -1.5589  3.8718
  651MOL0     H85921   2.460   0.528   3.323  0.5918 -1.3040  0.5386
  651MOL0     H85922   2.390   0.726   3.491  0.6205 -1.2706 -2.7116
  651MOL0     H85923   2.501   0.849   3.448 -0.4309  1.4370  2.2978
  651MOL0     H85924   2.590   0.863   3.680 -0.4609 -2.7163  2.6575
  651MOL0     H85925   2.433   0.934   3.639 -0.7228  0.0852  3.6564
  651MOL0     H85926   2.508   0.679   3.785 -0.0998  0.7205  3.4678
  651MOL0     H85927   2.345   0.683   3.723 -0.9041  1.1638 -0.7051
  651MOL0     H85928   2.373   0.739   3.965 -0.9219  0.0290  1.1254
  651MOL0     H85929   2.487   0.868   3.926 -0.6572 -0.2923  1.3893
  651MOL0     H85930   2.163   1.100   3.826  0.7581  0.8318  0.3765
  651MOL0     H85931   2.794   0.775   3.404  3.1242  0.4578 -2.9032
  651MOL0     H85932   2.890   0.728   3.190  0.2077  1.9054  0.0734
  652MOL0     O85933   2.977   0.315  10.847  0.2838  0.3133  0.2902
  652MOL0     C85934   2.989   0.202  10.799  0.3536 -0.0573  0.2926
  652MOL0     O85935   3.075   0.112  10.833 -0.6512  0.0488 -1.1580
  652MOL0     C85936   3.161   0.136  10.935 -0.2902 -0.5098  0.9222
  652MOL0     C85937   3.117   0.137  11.068  0.2536 -1.4949 -0.0392
  652MOL0     C85938   3.205   0.167  11.172 -0.6845  0.4446  0.7186
  652MOL0     C85939   3.342   0.191  11.148 -0.3041 -0.5230 -0.3905
  652MOL0     O85940   3.432   0.220  11.246  0.0450  0.2602 -0.0725
  652MOL0     C85941   3.506   0.337  11.232 -0.0984  0.4580 -0.7235
  652MOL0     C85942   3.624   0.354  11.333  0.9148  0.3438  0.1160
  652MOL0     C85943   3.720   0.466  11.289  0.3879  1.1835 -0.1234
  652MOL0     C85944   3.838   0.478  11.382  0.4910  0.0499 -1.0945
  652MOL0     C85945   3.917   0.601  11.343 -0.9954 -0.4848 -0.1480
  652MOL0     C85946   3.987   0.589  11.212 -0.1132  0.2724  0.5355
  652MOL0     C85947   4.093   0.699  11.201 -0.0737  0.2875  0.0525
  652MOL0     C85948   4.057   0.822  11.126 -0.2382 -0.4216  0.0548
  652MOL0     N85949   4.057   0.803  10.990 -0.2659  0.2022 -0.4732
  652MOL0     C85950   3.940   0.824  10.930  0.1659 -0.5153 -0.0615
  652MOL0     C85951   3.970   0.815  10.795  0.6194  0.3073 -0.7499
  652MOL0     C85952   3.886   0.843  10.677  0.7095 -0.2357 -0.2773
  652MOL0     C85953   3.896   0.725  10.575  0.8864 -0.1726  0.3013
  652MOL0     C85954   3.782   0.739  10.469  0.1912  0.1342 -0.3494
  652MOL0     C85955   3.813   0.676  10.333  0.1766 -0.9526  0.4833
  652MOL0     O85956   3.801   0.537  10.334  1.0816 -0.4834 -0.5891
  652MOL0     C85957   3.821   0.463  10.217 -0.2947  0.2960 -0.3787
  652MOL0     C85958   3.857   0.519  10.093  0.0217  0.0390 -0.1843
  652MOL0     C85959   3.909   0.442   9.991  0.3850 -0.0933  0.1778
  652MOL0     C85960   3.910   0.299   9.999 -1.3163  0.4785  0.6287
  652MOL0     C85961   3.960   0.215   9.888  0.1329  0.6714  0.3039
  652MOL0     O85962   3.971   0.078   9.916 -0.2769 -0.7643  0.7646
  652MOL0     C85963   4.025  -0.014   9.834 -1.3238 -0.1000 -0.4047
  652MOL0     C85964   3.993  -0.032   9.700 -0.4124  1.0224 -0.2199
  652MOL0     C85965   4.034  -0.143   9.619  0.3633 -0.4269  0.7321
  652MOL0     C85966   4.133  -0.226   9.666 -0.3824  0.6228 -0.4065
  652MOL0     O85967   4.175  -0.335   9.600 -0.2290  0.1834 -0.1254
  652MOL0     C85968   4.322  -0.354   9.605 -0.2999  1.5527 -0.4455
  652MOL0     C85969   4.361  -0.455   9.493  0.6386 -0.9277  0.7205
  652MOL0     C85970   4.274  -0.586   9.500 -0.9086  0.2994  0.7636
  652MOL0     C85971   4.317  -0.696   9.595 -0.8655 -0.0644  0.0750
  652MOL0     C85972   4.441  -0.772   9.531  0.7421 -0.4563 -0.7081
  652MOL0     C85973   4.496  -0.879   9.624 -0.3721  1.0249 -0.4998
  652MOL0     C85974   4.595  -0.976   9.558  0.3595  0.1757  0.0681
  652MOL0     C85975   4.675  -1.052   9.666  0.0560 -1.1091  0.1217
  652MOL0    Cl85976   4.772  -1.175   9.593  0.0525 -0.5022  0.4729
  652MOL0     C85977   4.176  -0.199   9.798  0.5424 -0.8853 -1.2201
  652MOL0     C85978   4.126  -0.097   9.883  0.0785  0.5332 -1.0256
  652MOL0     O85979   3.987   0.262   9.772 -0.8289  0.5548  0.0127
  652MOL0     C85980   3.880   0.239  10.126  0.2410 -0.6113 -0.0308
  652MOL0     C85981   3.838   0.322  10.235 -1.0004  0.5407 -0.0574
  652MOL0     N85982   4.100   0.774  10.788 -0.8611 -0.4594  0.8538
  652MOL0     N85983   4.161   0.774  10.901 -0.0710  0.5373  0.2198
  652MOL0     C85984   3.386   0.178  11.016  0.4204  0.6350  0.3236
  652MOL0     C85985   3.298   0.167  10.911  0.5849  0.6834 -0.3815
  652MOL0     C85986   2.897   0.167  10.687 -0.3329 -0.7105  0.0086
  652MOL0     C85987   2.918   0.056  10.604  0.3163  0.2965  0.5963
  652MOL0     C85988   2.835   0.030  10.493 -0.0690  0.5346 -0.5170
  652MOL0     C85989   2.717   0.109  10.478 -0.8773 -1.2569  0.9464
  652MOL0     O85990   2.624   0.078  10.379  0.4436 -0.8428  0.8521
  652MOL0     C85991   2.659  -0.003  10.264  0.3421 -0.7386 -0.6364
  652MOL0     C85992   2.714   0.085  10.146  0.4896 -0.1462 -0.1126
  652MOL0     C85993   2.608   0.195  10.118 -0.1231 -0.7962  0.4127
  652MOL0     C85994   2.658   0.300  10.012 -0.0013  0.9018 -0.6760
  652MOL0     C85995   2.559   0.386   9.966 -0.4733 -0.3852 -0.8130
  652MOL0     C85996   2.470   0.451   9.924 -0.0693 -0.2430 -0.3788
  652MOL0     C85997   2.692   0.215  10.556  0.4581  0.5633  0.2462
  652MOL0     C85998   2.783   0.246  10.662 -0.1126 -0.4952 -0.2540
  652MOL0     H85999   3.014   0.105  11.083 -0.3679  1.1229  2.2121
  652MOL0     H86000   3.171   0.175  11.275 -2.6616  1.4784  0.0412
  652MOL0     H86001   3.428   0.413  11.225  1.5000  2.2934  0.3772
  652MOL0     H86002   3.565   0.329  11.140  0.5371  1.9478 -0.4902
  652MOL0     H86003   3.673   0.259  11.352 -0.5076  0.1731  3.7759
  652MOL0     H86004   3.583   0.384  11.430  0.6419  1.6969 -0.3900
  652MOL0     H86005   3.667   0.561  11.277 -2.4899 -0.6019 -3.1423
  652MOL0     H86006   3.758   0.443  11.189 -0.5324  0.3393 -0.2978
  652MOL0     H86007   3.803   0.482  11.486 -2.1632 -1.3154 -1.8431
  652MOL0     H86008   3.912   0.398  11.368  0.9436  0.6716 -2.4054
  652MOL0     H86009   3.989   0.611  11.425  2.3222  0.1800 -2.9097
  652MOL0     H86010   3.842   0.681  11.348 -0.6358 -0.2169  2.6094
  652MOL0     H86011   3.918   0.597  11.127  1.9183  1.9121 -1.0903
  652MOL0     H86012   4.049   0.499  11.206  6.0034  3.9003 -0.2817
  652MOL0     H86013   4.120   0.718  11.305 -0.7660  1.5629  0.0207
  652MOL0     H86014   4.184   0.658  11.156  0.0767  0.8151 -0.1385
  652MOL0     H86015   4.135   0.890  11.163  0.6238 -2.2190  1.7072
  652MOL0     H86016   3.961   0.861  11.163  0.5510  2.5714 -0.7522
  652MOL0     H86017   3.842   0.843  10.971  0.2581  2.8041 -1.1143
  652MOL0     H86018   3.909   0.942  10.636 -0.1776  1.1898  2.4168
  652MOL0     H86019   3.781   0.851  10.707  0.6593  1.8133 -0.8510
  652MOL0     H86020   3.888   0.624  10.618  1.8541 -0.2591  0.3115
  652MOL0     H86021   3.998   0.720  10.536  1.1321 -4.2813  1.0101
  652MOL0     H86022   3.691   0.699  10.515 -0.6506  1.1188 -1.1095
  652MOL0     H86023   3.766   0.844  10.443 -1.7380 -0.3736 -1.4199
  652MOL0     H86024   3.914   0.700  10.297 -0.9895 -0.7874 -3.1139
  652MOL0     H86025   3.738   0.713  10.263  0.8111  1.7761  1.1089
  652MOL0     H86026   3.841   0.626  10.082  0.3821  0.1833  0.6071
  652MOL0     H86027   3.949   0.503   9.911  0.8627  2.0983  1.9969
  652MOL0     H86028   3.910   0.025   9.658 -2.2694  0.7574  2.8202
  652MOL0     H86029   3.983  -0.160   9.525 -0.8631 -0.3321  1.3610
  652MOL0     H86030   4.355  -0.397   9.700 -1.5745  2.9046  0.6685
  652MOL0     H86031   4.380  -0.262   9.592  0.1801  1.0917 -1.7283
  652MOL0     H86032   4.467  -0.479   9.505  0.6543 -0.1763  2.3610
  652MOL0     H86033   4.335  -0.415   9.395 -0.7408 -1.5963  0.7780
  652MOL0     H86034   4.262  -0.632   9.402 -2.8045 -0.9865  1.5459
  652MOL0     H86035   4.175  -0.548   9.526 -0.8272  0.5218  0.7551
  652MOL0     H86036   4.352  -0.642   9.684 -1.2923  2.1987 -1.0434
  652MOL0     H86037   4.241  -0.769   9.621 -0.3318  0.2491  2.8388
  652MOL0     H86038   4.523  -0.702   9.509  0.1497  0.5294  0.1117
  652MOL0     H86039   4.402  -0.811   9.436  0.1369  0.3954 -0.8265
  652MOL0     H86040   4.409  -0.929   9.665  0.2930  1.2054  1.2132
  652MOL0     H86041   4.539  -0.833   9.714 -0.0616 -0.1709 -0.0186
  652MOL0     H86042   4.544  -1.047   9.493 -1.5122  2.3634 -0.9869
  652MOL0     H86043   4.662  -0.913   9.499  0.0402 -0.9660 -1.5764
  652MOL0     H86044   4.599  -1.103   9.725 -1.3461 -1.0756 -1.5442
  652MOL0     H86045   4.738  -0.987   9.726 -1.6896  0.0007  0.8254
  652MOL0     H86046   4.252  -0.263   9.842  0.6708 -1.0883 -1.7392
  652MOL0     H86047   4.159  -0.081   9.985 -1.6958  3.3715 -0.7705
  652MOL0     H86048   3.902   0.134  10.135 -0.5191 -0.8753 -1.0692
  652MOL0     H86049   3.817   0.279  10.332 -1.3568  1.1527  0.1407
  652MOL0     H86050   3.491   0.188  10.990  0.1888  1.7052 -0.2423
  652MOL0     H86051   3.328   0.166  10.807 -1.8085 -1.0191 -1.1419
  652MOL0     H86052   2.992  -0.023  10.616 -2.3706 -2.6560 -0.8782
  652MOL0     H86053   2.866  -0.054  10.432  1.4020  1.4045 -1.0185
  652MOL0     H86054   2.565  -0.050  10.234 -0.2239 -1.2679  1.7075
  652MOL0     H86055   2.718  -0.090  10.295  1.4575 -0.4713 -1.9397
  652MOL0     H86056   2.805   0.136  10.177  0.5662 -1.5433  2.2348
  652MOL0     H86057   2.730   0.017  10.062  1.3003  1.1493 -1.0403
  652MOL0     H86058   2.595   0.259  10.206  1.9286 -0.1235  0.2822
  652MOL0     H86059   2.517   0.147  10.082 -0.8311  2.0847 -2.0903
  652MOL0     H86060   2.737   0.359  10.059  1.4393  0.2877 -2.2386
  652MOL0     H86061   2.711   0.249   9.931  0.6117 -0.6680  0.6504
  652MOL0     H86062   2.406   0.519   9.872  1.1378  0.5009 -0.9241
  652MOL0     H86063   2.606   0.276  10.529  0.9921  1.3637  0.3061
  652MOL0     H86064   2.750   0.329  10.723 -3.5911 -2.2937  0.5421
  653MOL0     O86065   7.023   6.391  11.239  0.2009 -0.8046  0.3289
  653MOL0     C86066   7.043   6.489  11.165  0.3628  0.5302 -0.5311
  653MOL0     O86067   6.954   6.540  11.070  0.5225 -0.0118 -0.3082
  653MOL0     C86068   6.815   6.518  11.086  0.2521 -0.4033 -0.5017
  653MOL0     C86069   6.750   6.516  11.206 -1.0194  0.5773  0.3161
  653MOL0     C86070   6.612   6.525  11.221  0.3258  0.5885  0.0145
  653MOL0     C86071   6.535   6.550  11.114 -0.3564 -0.7036 -0.8048
  653MOL0     O86072   6.403   6.573  11.141 -0.0050 -0.0343  0.5708
  653MOL0     C86073   6.350   6.679  11.064 -0.8903 -0.0272 -0.9174
  653MOL0     C86074   6.223   6.651  10.982  0.6982 -0.0948 -0.2662
  653MOL0     C86075   6.132   6.562  11.058  0.3667  0.1003  0.0702
  653MOL0     C86076   6.009   6.527  10.983  0.5510 -0.3821 -0.3453
  653MOL0     C86077   5.945   6.397  11.042 -0.0014 -0.3138 -0.0874
  653MOL0     C86078   5.822   6.334  10.959 -0.1476  0.0640 -0.0208
  653MOL0     C86079   5.723   6.441  10.925 -0.3882  0.0354 -1.1273
  653MOL0     C86080   5.611   6.395  10.825  0.1247  0.3620 -0.2599
  653MOL0     N86081   5.539   6.518  10.768 -0.2449  0.1472  0.6089
  653MOL0     C86082   5.424   6.503  10.689  0.0072  0.4631  0.1117
  653MOL0     C86083   5.411   6.626  10.632  0.3416 -0.4808 -0.7491
  653MOL0     C86084   5.283   6.664  10.559  0.4959 -0.1512  0.2080
  653MOL0     C86085   5.161   6.626  10.639  0.4326  0.1705 -0.2366
  653MOL0     C86086   5.143   6.712  10.767  0.7590  0.1747 -0.2126
  653MOL0     C86087   5.036   6.646  10.852  0.3292  0.2647 -0.3908
  653MOL0     O86088   4.908   6.679  10.793 -0.0813 -0.7398 -0.3311
  653MOL0     C86089   4.796   6.616  10.827 -0.4704  0.9621 -0.2532
  653MOL0     C86090   4.789   6.528  10.936  0.0814 -0.0950  0.0183
  653MOL0     C86091   4.670   6.473  10.982  0.8990  1.3392  0.5536
  653MOL0     C86092   4.549   6.497  10.920 -0.3917  0.0862  0.4233
  653MOL0     C86093   4.422   6.448  10.971  0.2417  0.5156 -0.7172
  653MOL0     O86094   4.410   6.439  11.112  0.4938  0.6568  0.7018
  653MOL0     C86095   4.280   6.440  11.150  0.5001 -0.0205 -0.3955
  653MOL0     C86096   4.233   6.339  11.243  0.0205  0.0094 -0.6320
  653MOL0     C86097   4.099   6.335  11.274  0.8431  0.8492  0.3231
  653MOL0     C86098   4.005   6.422  11.219  0.0882 -0.0686 -0.1002
  653MOL0     O86099   3.872   6.427  11.258 -0.0294 -0.2742  0.4995
  653MOL0     C86100   3.810   6.302  11.291  0.5532 -0.1259 -0.2281
  653MOL0     C86101   3.674   6.278  11.218 -1.2146 -0.7923  0.0084
  653MOL0     C86102   3.590   6.168  11.280  0.4148 -0.1372 -0.4282
  653MOL0     C86103   3.456   6.167  11.207  0.4395  0.1970 -0.7839
  653MOL0     C86104   3.364   6.069  11.296  0.1834 -0.4892  0.1723
  653MOL0     C86105   3.228   6.055  11.220  0.3484 -0.6457 -0.4654
  653MOL0     C86106   3.166   5.916  11.243  0.1392  0.5713 -0.1930
  653MOL0     C86107   3.021   5.920  11.190 -0.0765  0.4907 -0.9178
  653MOL0    Cl86108   2.950   5.760  11.210 -0.3868 -0.1111 -0.6163
  653MOL0     C86109   4.049   6.509  11.119  0.4637 -1.4912  0.1957
  653MOL0     C86110   4.187   6.527  11.092  0.5806  0.1608 -0.7935
  653MOL0     O86111   4.352   6.380  10.899  0.0587  1.0306  0.4762
  653MOL0     C86112   4.553   6.582  10.805  0.1690 -0.0111 -0.3387
  653MOL0     C86113   4.679   6.638  10.767 -0.3598  0.0086 -0.3935
  653MOL0     N86114   5.506   6.714  10.689  0.1292 -0.0536  0.5289
  653MOL0     N86115   5.586   6.640  10.764  0.4095 -0.5284 -0.4776
  653MOL0     C86116   6.591   6.534  10.985 -0.0083  0.4553  1.0747
  653MOL0     C86117   6.732   6.528  10.973 -0.1305 -0.4023  0.3500
  653MOL0     C86118   7.180   6.543  11.160  0.8729  0.5438  0.7689
  653MOL0     C86119   7.218   6.666  11.101  0.2136 -0.7557  1.0722
  653MOL0     C86120   7.349   6.703  11.086  0.3586 -0.0026  0.0073
  653MOL0     C86121   7.455   6.628  11.152  0.2397 -0.3543 -0.1372
  653MOL0     O86122   7.595   6.652  11.146  0.3579  0.2365 -0.6676
  653MOL0     C86123   7.632   6.761  11.065  0.7738  0.4242  0.4028
  653MOL0     C86124   7.779   6.793  11.108 -0.3607 -0.1446  0.7538
  653MOL0     C86125   7.875   6.660  11.098  0.6837  0.1688 -0.7888
  653MOL0     C86126   8.021   6.689  11.112 -0.7190 -0.5331  0.1135
  653MOL0     C86127   8.067   6.767  10.995 -0.9639 -0.2955 -0.0690
  653MOL0     C86128   8.117   6.836  10.903  0.4709 -0.4135  0.1101
  653MOL0     C86129   7.414   6.522  11.231 -0.5716  0.4065 -0.0865
  653MOL0     C86130   7.284   6.477  11.236 -0.4501  0.2354  0.0399
  653MOL0     H86131   6.815   6.513  11.292 -1.2452 -2.0732  0.4719
  653MOL0     H86132   6.569   6.521  11.320 -0.5620 -1.0382 -0.3853
  653MOL0     H86133   6.423   6.740  11.009  0.0169  0.4225  0.7137
  653MOL0     H86134   6.330   6.756  11.140  0.5757  1.1432 -1.6596
  653MOL0     H86135   6.246   6.595  10.891  0.3996  1.3006 -1.2404
  653MOL0     H86136   6.162   6.739  10.958 -4.2981 -2.4754  2.1677
  653MOL0     H86137   6.110   6.607  11.155 -0.5594 -0.1508 -0.0175
  653MOL0     H86138   6.183   6.468  11.083  0.0737 -0.1760 -0.3417
  653MOL0     H86139   5.934   6.606  10.990 -0.9432 -1.8751  2.6620
  653MOL0     H86140   6.037   6.505  10.880  1.2101  0.3686 -0.3280
  653MOL0     H86141   5.915   6.427  11.142 -2.7552 -0.8344 -0.6818
  653MOL0     H86142   6.021   6.319  11.054 -0.1413 -0.4603 -0.1472
  653MOL0     H86143   5.787   6.247  11.017  0.1672 -0.4874 -0.6465
  653MOL0     H86144   5.864   6.300  10.864  1.7915  1.2035  0.3747
  653MOL0     H86145   5.678   6.459  11.023 -2.6115 -3.5489 -1.2972
  653MOL0     H86146   5.769   6.528  10.877  1.5288  1.2860  2.6393
  653MOL0     H86147   5.540   6.341  10.889  1.2890  1.2935  1.9385
  653MOL0     H86148   5.651   6.332  10.746 -0.6327 -0.5532  0.0727
  653MOL0     H86149   5.359   6.421  10.661  0.4555  0.3066 -0.4737
  653MOL0     H86150   5.275   6.613  10.463  1.0868  1.5117 -0.7823
  653MOL0     H86151   5.274   6.771  10.536 -3.9004 -0.7264 -2.0023
  653MOL0     H86152   5.178   6.521  10.666  1.1510  0.2211 -0.4817
  653MOL0     H86153   5.070   6.642  10.581 -1.0973  2.4247  2.5192
  653MOL0     H86154   5.233   6.721  10.829  0.4072 -2.0580  0.7083
  653MOL0     H86155   5.109   6.815  10.757  1.7733  0.7818  1.9986
  653MOL0     H86156   5.040   6.676  10.957 -3.7282  0.0235 -0.0203
  653MOL0     H86157   5.043   6.538  10.865 -3.2302  0.0085  0.6612
  653MOL0     H86158   4.874   6.516  11.001  1.8241  3.3699 -1.3966
  653MOL0     H86159   4.664   6.420  11.076 -3.0489 -2.4262 -1.4639
  653MOL0     H86160   4.308   6.272  11.285 -0.1432 -1.1451 -2.1203
  653MOL0     H86161   4.074   6.264  11.353  4.8090 -3.2265 -1.5998
  653MOL0     H86162   3.805   6.281  11.398 -2.7599  0.5739 -0.1482
  653MOL0     H86163   3.862   6.210  11.262 -0.3892 -0.1779 -1.8612
  653MOL0     H86164   3.686   6.260  11.110 -2.2824  1.9013 -0.6461
  653MOL0     H86165   3.613   6.368  11.224 -0.4711 -0.2897  0.2389
  653MOL0     H86166   3.570   6.198  11.383  0.6633  2.5346 -1.0601
  653MOL0     H86167   3.634   6.068  11.278  1.1402  0.1302  0.9712
  653MOL0     H86168   3.403   6.263  11.210 -2.7746 -1.4500  1.6804
  653MOL0     H86169   3.476   6.141  11.103  3.2170  0.8297 -0.4854
  653MOL0     H86170   3.365   6.102  11.400  0.1991  1.3463 -0.3662
  653MOL0     H86171   3.414   5.972  11.292  0.7191 -0.2204  0.2655
  653MOL0     H86172   3.239   6.060  11.112  0.7556 -1.4626 -0.4662
  653MOL0     H86173   3.160   6.134  11.254 -1.3100 -1.9206 -0.6829
  653MOL0     H86174   3.222   5.836  11.194 -2.2171  0.7199 -3.4143
  653MOL0     H86175   3.159   5.889  11.349  2.1627  0.8981  0.0767
  653MOL0     H86176   3.013   5.940  11.083  0.8929 -0.0102 -1.0930
  653MOL0     H86177   2.950   5.987  11.240  0.1313 -0.0148  0.0811
  653MOL0     H86178   3.970   6.575  11.083  0.7864 -1.3567 -0.2702
  653MOL0     H86179   4.216   6.598  11.015  0.7906  1.8750  0.8103
  653MOL0     H86180   4.459   6.604  10.755 -0.7417 -2.1667  0.3367
  653MOL0     H86181   4.682   6.716  10.692  0.7082  0.0911 -0.2756
  653MOL0     H86182   6.529   6.556  10.899  2.1340  2.2624 -0.1170
  653MOL0     H86183   6.771   6.538  10.872  0.4267  0.5495  0.6487
  653MOL0     H86184   7.143   6.717  11.042 -0.6625 -0.3345  2.4990
  653MOL0     H86185   7.363   6.781  11.011  0.0966 -0.6674 -0.7423
  653MOL0     H86186   7.553   6.836  11.080 -0.1604 -0.6179  0.8650
  653MOL0     H86187   7.633   6.735  10.959  1.6247  2.3077 -0.0900
  653MOL0     H86188   7.827   6.851  11.029 -0.1560 -0.6119  0.5283
  653MOL0     H86189   7.797   6.830  11.209 -2.1381 -1.2390  1.5306
  653MOL0     H86190   7.857   6.596  11.011  2.1474 -0.7000 -0.4890
  653MOL0     H86191   7.847   6.601  11.185 -1.4761  0.3410 -1.3222
  653MOL0     H86192   8.042   6.747  11.203  0.9818  1.0942 -1.2349
  653MOL0     H86193   8.092   6.607  11.131  2.4253  1.5586 -1.6990
  653MOL0     H86194   8.172   6.890  10.829 -0.0777 -0.8339 -0.6269
  653MOL0     H86195   7.488   6.465  11.288  0.1468  3.5614  2.3978
  653MOL0     H86196   7.283   6.382  11.289  0.3940 -1.0738 -2.1650
  654MOL0     O86197   2.891   0.559   9.053  0.0508  0.0774  0.3122
  654MOL0     C86198   2.951   0.603   8.954  0.3002  0.4101 -0.0132
  654MOL0     O86199   2.887   0.641   8.842 -0.1952 -0.1120 -0.3523
  654MOL0     C86200   2.753   0.687   8.839 -0.4218  0.2992 -0.1548
  654MOL0     C86201   2.736   0.825   8.809 -0.5967 -0.1690 -0.2809
  654MOL0     C86202   2.603   0.877   8.789  0.6774 -1.0167 -0.8855
  654MOL0     C86203   2.491   0.796   8.809  0.0793  0.2111 -0.3630
  654MOL0     O86204   2.362   0.838   8.791  1.4031 -0.2948 -0.7000
  654MOL0     C86205   2.322   0.918   8.678 -0.9560  0.2090  0.3392
  654MOL0     C86206   2.342   0.827   8.552  0.2102 -0.9616 -0.1051
  654MOL0     C86207   2.279   0.874   8.421 -0.2557 -0.9884  0.4072
  654MOL0     C86208   2.292   0.790   8.300 -0.5090  0.1290  0.1346
  654MOL0     C86209   2.161   0.773   8.213 -0.6192  0.2977  0.4473
  654MOL0     C86210   2.169   0.656   8.112 -0.9756  0.6117  0.0288
  654MOL0     C86211   2.048   0.649   8.021  0.4867 -1.1304 -0.8191
  654MOL0     C86212   2.069   0.551   7.904  0.1873  0.1579 -1.3637
  654MOL0     N86213   1.942   0.526   7.839 -0.5262  0.5285  0.3006
  654MOL0     C86214   1.838   0.442   7.879  0.5020  0.0540  0.0260
  654MOL0     C86215   1.751   0.456   7.777 -0.5649  0.0775 -1.0307
  654MOL0     C86216   1.616   0.397   7.778 -0.6032  0.9630 -0.7253
  654MOL0     C86217   1.492   0.489   7.824 -0.4710 -0.1826 -0.8065
  654MOL0     C86218   1.432   0.554   7.700  0.1539 -0.8283 -0.2542
  654MOL0     C86219   1.323   0.653   7.747 -0.2997 -0.5207  0.2805
  654MOL0     O86220   1.213   0.561   7.773  0.5847  0.0078 -0.2035
  654MOL0     C86221   1.084   0.592   7.812  0.3977  0.4587  0.1897
  654MOL0     C86222   0.990   0.488   7.819  0.3308 -0.7105  0.4338
  654MOL0     C86223   0.866   0.518   7.865  0.7061  0.6033 -0.2254
  654MOL0     C86224   0.824   0.646   7.911 -0.2125  0.4491  0.0985
  654MOL0     C86225   0.697   0.666   7.982 -1.1618  0.2222 -0.1682
  654MOL0     O86226   0.629   0.553   8.023 -0.3234 -0.5469  0.5683
  654MOL0     C86227   0.505   0.565   8.080  0.6639  0.0933  0.4784
  654MOL0     C86228   0.403   0.655   8.027 -0.4477 -0.3655 -0.0645
  654MOL0     C86229   0.276   0.632   8.074  0.4568 -0.1727 -0.3537
  654MOL0     C86230   0.240   0.537   8.167 -0.1659 -0.4117  0.0279
  654MOL0     O86231   0.121   0.522   8.237 -0.0844 -0.0008  0.8209
  654MOL0     C86232   0.023   0.624   8.214 -1.0115 -0.5299 -0.3617
  654MOL0     C86233  -0.118   0.588   8.275  0.7169 -0.3501  0.9716
  654MOL0     C86234  -0.219   0.696   8.266 -0.3016 -0.8620  0.3311
  654MOL0     C86235  -0.333   0.676   8.363  0.0408  0.6006 -0.0819
  654MOL0     C86236  -0.429   0.798   8.368  0.3265  0.4970  0.2141
  654MOL0     C86237  -0.561   0.752   8.448 -0.0614  0.7259  0.2076
  654MOL0     C86238  -0.672   0.852   8.403 -0.4576  0.2803  0.1352
  654MOL0     C86239  -0.813   0.825   8.465 -0.8207  0.4509 -0.1562
  654MOL0    Cl86240  -0.865   0.645   8.454  0.0950 -0.0693 -0.4712
  654MOL0     C86241   0.344   0.458   8.209 -0.2773  0.1348  0.0982
  654MOL0     C86242   0.475   0.471   8.167  0.1399  1.1824 -0.3278
  654MOL0     O86243   0.668   0.781   8.011  0.0772 -0.6549 -0.5804
  654MOL0     C86244   0.920   0.747   7.911 -0.2507 -0.4477 -0.0472
  654MOL0     C86245   1.049   0.717   7.851  0.5781 -0.5344 -1.5860
  654MOL0     N86246   1.793   0.552   7.688 -0.2891 -0.4054 -0.7163
  654MOL0     N86247   1.918   0.580   7.718  0.7205 -0.2701 -0.2820
  654MOL0     C86248   2.509   0.661   8.838  0.0505 -1.1204  0.3443
  654MOL0     C86249   2.639   0.606   8.852  0.4185  0.3441 -0.2879
  654MOL0     C86250   3.103   0.589   8.959  0.0939 -1.0254 -0.6877
  654MOL0     C86251   3.189   0.654   8.869  0.0245 -0.2836  0.0127
  654MOL0     C86252   3.327   0.643   8.881 -0.2571  0.7424 -0.3391
  654MOL0     C86253   3.392   0.553   8.971 -0.2784  1.1784  0.4421
  654MOL0     O86254   3.529   0.542   8.968 -0.1820  0.0221  0.6222
  654MOL0     C86255   3.600   0.657   9.011  0.7212 -0.3904  0.4392
  654MOL0     C86256   3.740   0.611   9.058 -0.3864 -0.7371 -0.2773
  654MOL0     C86257   3.821   0.729   9.099  0.0379 -0.9809 -1.5478
  654MOL0     C86258   3.950   0.696   9.160 -0.2506 -0.0497  0.3034
  654MOL0     C86259   3.940   0.649   9.299  0.5535 -0.0896 -1.6386
  654MOL0     C86260   3.929   0.607   9.413 -0.3049 -0.2804  0.0989
  654MOL0     C86261   3.307   0.477   9.060  0.3356  0.3168  0.3287
  654MOL0     C86262   3.168   0.507   9.056  0.7763  0.7705 -0.0036
  654MOL0     H86263   2.828   0.883   8.807  0.4063 -1.7284 -0.4775
  654MOL0     H86264   2.590   0.983   8.773 -1.8859 -1.2360 -0.6714
  654MOL0     H86265   2.387   1.006   8.670 -1.1459  0.5076  1.7950
  654MOL0     H86266   2.220   0.957   8.684 -0.1460  2.3125  2.2393
  654MOL0     H86267   2.295   0.730   8.571  1.3473 -1.2789  1.2126
  654MOL0     H86268   2.450   0.812   8.547  0.4043  0.1170  0.5146
  654MOL0     H86269   2.308   0.975   8.393  0.5036 -0.7251  2.0030
  654MOL0     H86270   2.175   0.875   8.454 -0.1392 -1.9155  0.8245
  654MOL0     H86271   2.366   0.835   8.234 -1.9165  1.2001 -0.7840
  654MOL0     H86272   2.335   0.694   8.331  0.6844  1.1353  1.6915
  654MOL0     H86273   2.148   0.867   8.158  1.4452 -0.8703 -2.3263
  654MOL0     H86274   2.075   0.745   8.275 -1.2292 -0.8164 -0.8300
  654MOL0     H86275   2.178   0.561   8.166 -1.6222  2.2628  3.2942
  654MOL0     H86276   2.251   0.666   8.040 -1.3968  0.4314 -0.4807
  654MOL0     H86277   1.973   0.616   8.093  0.0923  0.5796 -0.4209
  654MOL0     H86278   2.036   0.750   7.982  2.0033 -1.4977 -2.3998
  654MOL0     H86279   2.107   0.453   7.936  1.7820 -0.1246 -3.8090
  654MOL0     H86280   2.143   0.589   7.833  3.1342 -1.6158  0.5394
  654MOL0     H86281   1.825   0.385   7.971 -1.8741  1.4049  0.6016
  654MOL0     H86282   1.617   0.312   7.847 -1.4239  1.7747  0.3321
  654MOL0     H86283   1.600   0.362   7.676  2.3847  1.9712 -1.6363
  654MOL0     H86284   1.516   0.559   7.905  1.5871 -0.9772 -0.6652
  654MOL0     H86285   1.417   0.430   7.877  0.9221 -1.1635  0.1297
  654MOL0     H86286   1.518   0.604   7.655 -1.2568  0.5221 -1.5918
  654MOL0     H86287   1.395   0.485   7.624  1.8046 -2.3245  0.2375
  654MOL0     H86288   1.303   0.725   7.668 -1.0892  1.7071  2.4075
  654MOL0     H86289   1.363   0.714   7.829 -1.6905  1.2614 -0.2961
  654MOL0     H86290   1.019   0.390   7.784 -0.0321 -0.7676  0.2878
  654MOL0     H86291   0.795   0.436   7.866  0.1094  1.1080 -0.9966
  654MOL0     H86292   0.414   0.729   7.948  4.0561 -1.0646 -0.3708
  654MOL0     H86293   0.201   0.699   8.033 -2.1415 -2.7219 -0.1002
  654MOL0     H86294   0.012   0.641   8.107  1.9022 -3.8716 -1.3781
  654MOL0     H86295   0.049   0.727   8.242  1.2307  0.5526 -5.3679
  654MOL0     H86296  -0.108   0.555   8.379 -4.7347 -0.8798  1.6397
  654MOL0     H86297  -0.150   0.506   8.209  3.2645  0.9024 -2.1117
  654MOL0     H86298  -0.252   0.702   8.162  1.0491  2.6144 -0.0243
  654MOL0     H86299  -0.185   0.796   8.294 -0.5082 -0.2839 -1.3557
  654MOL0     H86300  -0.385   0.586   8.331  2.9629 -2.7395  3.5186
  654MOL0     H86301  -0.290   0.655   8.462 -1.0525 -2.6104 -0.1661
  654MOL0     H86302  -0.454   0.820   8.264  2.1705  0.0096 -0.3806
  654MOL0     H86303  -0.380   0.878   8.424  1.0373 -0.8785  1.6332
  654MOL0     H86304  -0.552   0.734   8.556 -2.2033 -2.3730  0.0083
  654MOL0     H86305  -0.599   0.661   8.401 -1.6950  1.8543 -0.7797
  654MOL0     H86306  -0.639   0.952   8.433  0.0530  0.8641 -2.1319
  654MOL0     H86307  -0.683   0.840   8.294 -1.8967 -0.9865  0.3787
  654MOL0     H86308  -0.886   0.881   8.405 -1.3562 -1.2039 -1.1422
  654MOL0     H86309  -0.802   0.858   8.568 -0.3562  0.3210 -0.1645
  654MOL0     H86310   0.318   0.385   8.284 -2.6949  0.6454 -0.1537
  654MOL0     H86311   0.556   0.411   8.207  0.5016  0.8610 -1.4959
  654MOL0     H86312   0.889   0.840   7.957 -1.8918 -1.1189  0.2920
  654MOL0     H86313   1.120   0.800   7.847 -1.7454  1.8516  1.3872
  654MOL0     H86314   2.430   0.589   8.854  1.2770 -2.6262 -0.0746
  654MOL0     H86315   2.634   0.499   8.872  2.4488 -0.0874 -1.7433
  654MOL0     H86316   3.138   0.727   8.806  1.1826 -1.9039 -3.0129
  654MOL0     H86317   3.383   0.696   8.804  0.4124 -0.6173 -0.8215
  654MOL0     H86318   3.564   0.697   9.106  0.8803  0.0640  0.3108
  654MOL0     H86319   3.606   0.731   8.930  0.2037 -0.0716  0.6839
  654MOL0     H86320   3.725   0.540   9.139 -3.0898  0.8955  0.7920
  654MOL0     H86321   3.795   0.555   8.982  1.3910 -0.1388  0.5107
  654MOL0     H86322   3.763   0.789   9.169  2.9532  2.4286 -1.7685
  654MOL0     H86323   3.841   0.789   9.009  2.9113  0.7832  0.0982
  654MOL0     H86324   3.993   0.614   9.103 -0.5855  0.2838 -0.4325
  654MOL0     H86325   4.016   0.783   9.164  0.7772 -0.8477  1.8475
  654MOL0     H86326   3.904   0.570   9.510 -2.6514 -2.2144 -1.1077
  654MOL0     H86327   3.343   0.414   9.141 -0.5050  1.4233  1.6010
  654MOL0     H86328   3.112   0.446   9.127 -0.4518 -2.9227 -3.7380
  655MOL0     O86329   4.526  10.330  10.527  0.0715 -0.6591 -0.0859
  655MOL0     C86330   4.455  10.363  10.625 -1.0978 -0.6239 -0.0285
  655MOL0     O86331   4.321  10.378  10.624  0.0485  0.3485 -0.5434
  655MOL0     C86332   4.255  10.316  10.512 -0.1866  1.2969 -0.6608
  655MOL0     C86333   4.263  10.173  10.478 -0.1443  0.5278  0.1180
  655MOL0     C86334   4.187  10.130  10.368  0.8800  0.0008  0.4745
  655MOL0     C86335   4.108  10.218  10.297 -0.5770 -0.2473  0.8596
  655MOL0     O86336   4.041  10.155  10.193  0.3074 -0.1439 -0.0900
  655MOL0     C86337   3.904  10.200  10.162 -0.2944  0.3728 -0.4283
  655MOL0     C86338   3.876  10.150  10.026  0.5871 -0.1375 -0.1479
  655MOL0     C86339   3.736  10.179   9.985 -0.4026 -0.4465 -1.5504
  655MOL0     C86340   3.703  10.142   9.841 -0.7556 -0.2964 -0.3459
  655MOL0     C86341   3.555  10.179   9.821 -0.7691 -0.2761  0.3091
  655MOL0     C86342   3.510  10.204   9.677 -0.8225 -1.1205  0.7302
  655MOL0     C86343   3.352  10.205   9.660 -1.4293  0.2600  0.4714
  655MOL0     C86344   3.288  10.340   9.698  0.6631  0.2051  0.6583
  655MOL0     N86345   3.151  10.351   9.665  0.0417  0.8524 -0.1771
  655MOL0     C86346   3.045  10.262   9.672  0.4206  0.4338  0.3633
  655MOL0     C86347   2.937  10.321   9.619  0.4155  0.0620 -0.1262
  655MOL0     C86348   2.795  10.265   9.611 -0.8322  1.5184 -0.3241
  655MOL0     C86349   2.731  10.263   9.748 -0.3959  0.0044  0.5173
  655MOL0     C86350   2.730  10.400   9.812 -0.7218 -0.1660 -0.4223
  655MOL0     C86351   2.847  10.458   9.890  0.4230  0.8696 -0.5439
  655MOL0     O86352   2.910  10.349   9.968 -0.3345  0.9748  0.2252
  655MOL0     C86353   3.044  10.367  10.001  1.0190 -1.2508 -0.1823
  655MOL0     C86354   3.122  10.256  10.048  0.3542  0.2118  0.0311
  655MOL0     C86355   3.254  10.271  10.094 -0.3106 -0.3653  0.1898
  655MOL0     C86356   3.302  10.401  10.111 -1.0687 -0.4707  0.7627
  655MOL0     C86357   3.449  10.422  10.143  0.2631  1.2144  0.0074
  655MOL0     O86358   3.498  10.545  10.124  0.7563 -0.3017  0.0558
  655MOL0     C86359   3.630  10.569  10.159  0.5383  0.6190  0.0489
  655MOL0     C86360   3.683  10.533  10.285 -0.1826 -0.7531 -0.2885
  655MOL0     C86361   3.795  10.600  10.334 -0.0577 -0.6848 -0.5689
  655MOL0     C86362   3.863  10.693  10.256  0.4791  0.0547  0.2148
  655MOL0     O86363   3.978  10.758  10.302  0.2798  0.0587  0.4245
  655MOL0     C86364   4.054  10.849  10.225 -0.6200  0.8168 -0.5992
  655MOL0     C86365   4.179  10.900  10.295  0.1081  0.0803 -0.8128
  655MOL0     C86366   4.253  10.802  10.396  0.1952 -0.1203 -0.3334
  655MOL0     C86367   4.378  10.859  10.466  0.6847  0.6715 -0.8365
  655MOL0     C86368   4.447  10.737  10.537 -0.0742 -0.2705  0.1531
  655MOL0     C86369   4.515  10.771  10.673  0.0031  0.6128  0.0650
  655MOL0     C86370   4.405  10.821  10.772  0.4782 -0.2365 -0.6126
  655MOL0     C86371   4.470  10.866  10.905 -0.7984 -0.1417 -0.7272
  655MOL0    Cl86372   4.576  11.008  10.899 -0.2131  0.3685  0.0495
  655MOL0     C86373   3.811  10.719  10.132  0.7831  0.2199  0.6456
  655MOL0     C86374   3.696  10.659  10.079  0.5160 -0.1558  0.9625
  655MOL0     O86375   3.509  10.324  10.190 -0.1892 -0.0541  0.2791
  655MOL0     C86376   3.229  10.513  10.074 -0.2942 -0.2145  0.0567
  655MOL0     C86377   3.104  10.496  10.014 -0.5989  0.3989 -0.3035
  655MOL0     N86378   2.973  10.443   9.565 -0.4148 -0.4575  0.1297
  655MOL0     N86379   3.097  10.461   9.594 -0.1497 -0.1176 -0.8568
  655MOL0     C86380   4.103  10.353  10.323 -0.5031 -0.7686  0.6722
  655MOL0     C86381   4.182  10.402  10.431 -0.1419  0.0172  0.5380
  655MOL0     C86382   4.536  10.406  10.741 -0.3448 -0.2497 -0.6486
  655MOL0     C86383   4.470  10.445  10.867  0.1279 -1.5320 -0.6310
  655MOL0     C86384   4.537  10.480  10.981 -1.0636 -0.3075 -0.0425
  655MOL0     C86385   4.675  10.493  10.974 -0.2215  0.4298 -0.3785
  655MOL0     O86386   4.753  10.532  11.077 -0.4744  0.0540 -0.4891
  655MOL0     C86387   4.693  10.616  11.188  0.2925  1.0064  0.4297
  655MOL0     C86388   4.807  10.705  11.232  0.7943  0.1580 -0.2617
  655MOL0     C86389   4.776  10.786  11.363 -0.0103 -0.3803 -1.1282
  655MOL0     C86390   4.865  10.905  11.381 -0.8770 -0.3949  0.6637
  655MOL0     C86391   5.009  10.880  11.392 -0.0173 -0.2402 -1.1286
  655MOL0     C86392   5.131  10.860  11.406 -0.2689 -0.6941 -0.8795
  655MOL0     C86393   4.747  10.454  10.853  0.4741 -0.0098 -0.7629
  655MOL0     C86394   4.678  10.397  10.742 -0.3222 -0.0276  0.0462
  655MOL0     H86395   4.320  10.097  10.530 -3.5062 -2.8556 -0.6649
  655MOL0     H86396   4.188  10.024  10.345  1.4259 -0.4947  2.5114
  655MOL0     H86397   3.890  10.308  10.166  1.4150  0.6378  3.3424
  655MOL0     H86398   3.843  10.141  10.232  0.7120  0.7796  0.8290
  655MOL0     H86399   3.899  10.043  10.022  1.6457  0.0879 -0.4844
  655MOL0     H86400   3.940  10.195   9.950 -1.6781  0.1542 -1.9601
  655MOL0     H86401   3.712  10.285   9.990  1.0606 -0.1541  0.2837
  655MOL0     H86402   3.666  10.140  10.059  1.3063  0.0720  0.4193
  655MOL0     H86403   3.774  10.194   9.776  2.3253 -0.2189  2.7905
  655MOL0     H86404   3.712  10.035   9.820  1.1293  0.0815 -1.8635
  655MOL0     H86405   3.524  10.276   9.861  0.6211 -0.0373  0.8700
  655MOL0     H86406   3.488  10.102   9.858  1.2833 -2.5542 -0.4629
  655MOL0     H86407   3.555  10.140   9.600  0.4610 -0.7826  1.1736
  655MOL0     H86408   3.537  10.305   9.644 -3.8019 -0.4903  0.0065
  655MOL0     H86409   3.335  10.198   9.552 -2.7662 -0.2992  0.6917
  655MOL0     H86410   3.308  10.121   9.714 -1.6375 -0.7223 -1.1572
  655MOL0     H86411   3.338  10.426   9.655 -1.3252  1.9746  1.6652
  655MOL0     H86412   3.293  10.343   9.808 -0.3971 -1.1853  0.7767
  655MOL0     H86413   3.065  10.167   9.721  1.6043 -1.3124 -3.1643
  655MOL0     H86414   2.811  10.164   9.572 -1.3599  1.7313 -1.1218
  655MOL0     H86415   2.728  10.321   9.545 -3.1164 -0.8668 -0.2079
  655MOL0     H86416   2.793  10.192   9.805 -0.5278 -2.1074 -1.8172
  655MOL0     H86417   2.632  10.219   9.735 -0.5808  0.8106 -0.9873
  655MOL0     H86418   2.697  10.470   9.735 -0.3757 -1.6204 -1.9474
  655MOL0     H86419   2.650  10.385   9.885  0.3477  0.9586  1.0502
  655MOL0     H86420   2.821  10.544   9.952  1.8449 -1.3556  3.5680
  655MOL0     H86421   2.920  10.483   9.813 -0.4112 -3.4937 -3.0454
  655MOL0     H86422   3.077  10.158  10.059  0.0784  0.3763  0.4598
  655MOL0     H86423   3.316  10.186  10.119  0.1387  0.2975  1.4225
  655MOL0     H86424   3.635  10.458  10.347  1.6822 -0.2866  1.8630
  655MOL0     H86425   3.830  10.558  10.428 -2.8992  1.4450  1.6675
  655MOL0     H86426   3.987  10.929  10.190  0.6799  1.5179 -1.6056
  655MOL0     H86427   4.083  10.788  10.139 -1.4365 -1.4991  0.6832
  655MOL0     H86428   4.144  10.980  10.361  0.4588  1.7449 -2.5284
  655MOL0     H86429   4.248  10.942  10.220 -0.5096  1.3351 -0.7130
  655MOL0     H86430   4.287  10.715  10.339 -0.1030  0.2126 -1.0317
  655MOL0     H86431   4.182  10.767  10.471  1.5523  1.2144  1.6701
  655MOL0     H86432   4.436  10.894  10.381  2.5412 -0.9506 -0.2974
  655MOL0     H86433   4.354  10.944  10.531 -2.8019 -1.7306  1.4099
  655MOL0     H86434   4.520  10.686  10.474 -0.8611 -0.1930 -0.8651
  655MOL0     H86435   4.374  10.658  10.554 -0.9793  0.2664 -1.0299
  655MOL0     H86436   4.595  10.843  10.654 -0.8096  1.2531 -1.1114
  655MOL0     H86437   4.560  10.681  10.716  1.1546 -0.2037 -2.6399
  655MOL0     H86438   4.352  10.909  10.734 -0.1576 -0.9239 -1.3520
  655MOL0     H86439   4.336  10.736  10.773 -2.0196  1.6079 -2.4735
  655MOL0     H86440   4.535  10.784  10.938  0.3852  1.1361  0.2246
  655MOL0     H86441   4.386  10.883  10.974 -0.2921  2.7303 -0.7280
  655MOL0     H86442   3.857  10.791  10.065 -0.2285  1.4135  1.1850
  655MOL0     H86443   3.660  10.691   9.981  0.8571 -1.1660  0.4970
  655MOL0     H86444   3.264  10.615  10.078  0.4670 -0.5155  3.0306
  655MOL0     H86445   3.054  10.590   9.996  2.5926  1.9293 -1.8289
  655MOL0     H86446   4.027  10.410  10.271  1.0686  0.2328 -0.6145
  655MOL0     H86447   4.188  10.510  10.443  1.2659  0.5860 -3.6178
  655MOL0     H86448   4.361  10.449  10.869  0.1707  0.7139  0.3976
  655MOL0     H86449   4.491  10.503  11.077  2.4518  3.4191  1.0558
  655MOL0     H86450   4.660  10.543  11.262  4.5349  0.3140  1.9043
  655MOL0     H86451   4.615  10.682  11.149  1.0943  0.3068 -2.5993
  655MOL0     H86452   4.884  10.632  11.257  0.1829 -0.3571  0.1538
  655MOL0     H86453   4.838  10.772  11.151  1.9275  1.4748  1.2020
  655MOL0     H86454   4.791  10.715  11.445  2.3889 -0.5987 -1.6632
  655MOL0     H86455   4.671  10.813  11.354  0.2632  0.8215 -0.9439
  655MOL0     H86456   4.838  10.973  11.300 -2.4435  0.5841  1.9290
  655MOL0     H86457   4.839  10.977  11.460 -0.5411  2.0455 -1.3282
  655MOL0     H86458   5.237  10.850  11.412 -0.2873 -2.2815 -2.3521
  655MOL0     H86459   4.855  10.462  10.842  0.4405 -2.0918 -3.8460
  655MOL0     H86460   4.714  10.341  10.657  0.8034  1.4392 -0.4841
  656MOL0     O86461   7.513   0.770   9.500 -0.2829 -0.6757  0.5344
  656MOL0     C86462   7.510   0.685   9.594 -0.6133 -0.4227  1.2021
  656MOL0     O86463   7.625   0.622   9.641 -0.3710 -0.5246  0.1497
  656MOL0     C86464   7.743   0.639   9.576  0.7546 -0.0978  0.1704
  656MOL0     C86465   7.776   0.579   9.451  0.6042  0.9083 -0.0913
  656MOL0     C86466   7.892   0.599   9.393 -0.3603  0.0294  0.1950
  656MOL0     C86467   7.991   0.684   9.436 -0.2812 -0.4080  0.0320
  656MOL0     O86468   8.098   0.714   9.362  0.2621 -1.0581  0.3222
  656MOL0     C86469   8.223   0.719   9.430  0.5443 -0.2052 -0.8765
  656MOL0     C86470   8.351   0.720   9.340 -0.0629 -0.1138  0.1976
  656MOL0     C86471   8.362   0.622   9.219  0.3669  0.1591 -0.1366
  656MOL0     C86472   8.395   0.488   9.281  0.6722  0.6863  0.3928
  656MOL0     C86473   8.381   0.401   9.160  0.4707  0.3947 -1.1981
  656MOL0     C86474   8.392   0.249   9.200 -0.0927 -1.1033 -0.6504
  656MOL0     C86475   8.278   0.200   9.284  0.1583  0.6135 -0.0357
  656MOL0     C86476   8.282   0.043   9.293  0.4021 -0.5066  0.1056
  656MOL0     N86477   8.161  -0.022   9.344  0.1171 -0.7078  0.1103
  656MOL0     C86478   8.070   0.019   9.438 -1.0079 -0.5156 -0.2549
  656MOL0     C86479   7.986  -0.086   9.456 -0.3474  0.3573  0.3503
  656MOL0     C86480   7.869  -0.085   9.547 -1.0346  0.8558 -0.5990
  656MOL0     C86481   7.818  -0.229   9.558  0.6181  0.6898  0.4674
  656MOL0     C86482   7.698  -0.229   9.657 -0.6339  0.1436  0.1848
  656MOL0     C86483   7.612  -0.354   9.632 -0.2423 -0.0853  0.5039
  656MOL0     O86484   7.489  -0.350   9.700  0.1651 -0.4582  0.1483
  656MOL0     C86485   7.406  -0.463   9.686 -0.0469  0.9164  0.3849
  656MOL0     C86486   7.300  -0.463   9.768  0.5796 -0.3222 -0.8024
  656MOL0     C86487   7.200  -0.573   9.773 -0.3185  0.2351 -0.2190
  656MOL0     C86488   7.216  -0.675   9.678  1.0756  0.1773 -0.9085
  656MOL0     C86489   7.115  -0.778   9.679  0.5585 -0.3156  0.3632
  656MOL0     O86490   7.119  -0.868   9.572 -0.7626  0.1059  0.4876
  656MOL0     C86491   7.005  -0.934   9.542  0.1122 -0.5070  0.6278
  656MOL0     C86492   7.013  -1.075   9.525  0.2735  0.9462  0.8252
  656MOL0     C86493   6.901  -1.148   9.484 -0.0177 -0.7228  0.0424
  656MOL0     C86494   6.785  -1.083   9.446  0.2763 -0.3224  0.1702
  656MOL0     O86495   6.680  -1.157   9.392  0.0704 -0.1501 -0.0500
  656MOL0     C86496   6.541  -1.122   9.418 -0.5397 -0.3222  0.8483
  656MOL0     C86497   6.475  -1.150   9.549 -0.4777 -0.5564  0.3671
  656MOL0     C86498   6.422  -1.288   9.564 -0.8960  0.2494 -0.1749
  656MOL0     C86499   6.355  -1.308   9.700  0.0425  0.5308  0.0339
  656MOL0     C86500   6.352  -1.458   9.735 -0.6442  0.2784 -0.5314
  656MOL0     C86501   6.294  -1.471   9.883 -0.4105 -1.0434  0.2758
  656MOL0     C86502   6.140  -1.497   9.889 -0.3181  0.8508 -0.1041
  656MOL0     C86503   6.096  -1.648   9.881 -0.6066  0.0177  0.2357
  656MOL0    Cl86504   5.914  -1.666   9.860  0.1173 -0.4798 -0.0586
  656MOL0     C86505   6.780  -0.948   9.462 -0.0580 -0.1779  0.1226
  656MOL0     C86506   6.884  -0.871   9.518  0.2742 -0.6637 -0.0748
  656MOL0     O86507   7.040  -0.796   9.774  0.0603 -0.0949 -0.4103
  656MOL0     C86508   7.321  -0.677   9.587  1.3206  0.3555  0.4656
  656MOL0     C86509   7.414  -0.566   9.593 -0.9018 -0.2193 -1.1042
  656MOL0     N86510   8.017  -0.187   9.362 -0.4209 -0.2941 -0.0998
  656MOL0     N86511   8.129  -0.145   9.303 -0.3071  0.9970  0.6460
  656MOL0     C86512   7.959   0.737   9.558  0.2214 -0.3514 -0.5121
  656MOL0     C86513   7.847   0.709   9.633 -0.9634 -0.2801 -1.5810
  656MOL0     C86514   7.386   0.631   9.637 -0.0315 -0.1790 -0.5643
  656MOL0     C86515   7.371   0.537   9.742 -1.0216 -0.0332  0.1737
  656MOL0     C86516   7.247   0.493   9.782 -0.0247 -0.7012  0.3135
  656MOL0     C86517   7.128   0.537   9.720 -0.4815 -0.4140 -0.4015
  656MOL0     O86518   7.013   0.500   9.782  0.7099  0.5355  0.5916
  656MOL0     C86519   6.898   0.568   9.729  0.6974  0.2256  0.3523
  656MOL0     C86520   6.783   0.523   9.818 -0.4259 -0.7329  0.0357
  656MOL0     C86521   6.637   0.579   9.791  0.9953  0.3534 -0.1148
  656MOL0     C86522   6.554   0.627   9.914 -1.1847 -0.2494 -0.0551
  656MOL0     C86523   6.528   0.507   9.993 -1.1813  0.6322 -0.4276
  656MOL0     C86524   6.514   0.413  10.064  0.0438  0.5881 -0.4183
  656MOL0     C86525   7.137   0.627   9.623  0.2948 -0.1904  0.2428
  656MOL0     C86526   7.266   0.675   9.575  0.7145 -0.9702 -0.4136
  656MOL0     H86527   7.702   0.519   9.398  2.0243 -0.4105 -0.6492
  656MOL0     H86528   7.910   0.549   9.299  1.4967 -1.4711  1.2631
  656MOL0     H86529   8.232   0.627   9.489  0.2837 -0.1205 -0.7061
  656MOL0     H86530   8.219   0.805   9.498 -0.2796  0.0097 -1.1996
  656MOL0     H86531   8.438   0.706   9.405  2.3308 -1.2225 -2.9721
  656MOL0     H86532   8.371   0.817   9.293  1.6960 -1.2807 -1.6082
  656MOL0     H86533   8.445   0.647   9.153  0.2269 -0.7328 -0.6696
  656MOL0     H86534   8.269   0.622   9.162  0.4862  2.8039 -0.4458
  656MOL0     H86535   8.496   0.488   9.323  2.1302 -1.1031 -2.7552
  656MOL0     H86536   8.324   0.457   9.359  0.3087  1.2077  0.2736
  656MOL0     H86537   8.470   0.418   9.098  2.3893 -1.3673  0.8844
  656MOL0     H86538   8.281   0.411   9.116  0.8303  3.5388 -1.5701
  656MOL0     H86539   8.477   0.239   9.269  0.5307  0.7802 -1.0800
  656MOL0     H86540   8.406   0.181   9.115  1.5578 -3.4796  1.3812
  656MOL0     H86541   8.272   0.238   9.387 -3.8644  0.1814  0.0784
  656MOL0     H86542   8.183   0.239   9.245  1.5713  1.6832 -2.6481
  656MOL0     H86543   8.358   0.016   9.368  0.5225 -0.8655 -0.1444
  656MOL0     H86544   8.310   0.000   9.197  1.6762  2.6237 -1.0424
  656MOL0     H86545   8.043   0.113   9.485  1.5756  0.1905 -0.0110
  656MOL0     H86546   7.794  -0.011   9.518 -1.1222  1.4736  1.1082
  656MOL0     H86547   7.902  -0.062   9.649 -0.0376 -0.3942 -0.6191
  656MOL0     H86548   7.887  -0.298   9.607 -0.5838 -1.6029 -0.8933
  656MOL0     H86549   7.780  -0.264   9.462  2.5284 -2.8941  0.8691
  656MOL0     H86550   7.738  -0.222   9.758 -1.2405  3.8437  0.3097
  656MOL0     H86551   7.640  -0.137   9.643  1.1466  1.3024  0.1099
  656MOL0     H86552   7.662  -0.448   9.658  0.9035 -0.0442 -1.3925
  656MOL0     H86553   7.583  -0.348   9.527  0.4717  1.4017  0.3692
  656MOL0     H86554   7.282  -0.376   9.830  0.3707  1.8188 -3.6439
  656MOL0     H86555   7.115  -0.576   9.839 -0.8373 -0.2186 -0.8955
  656MOL0     H86556   7.108  -1.123   9.548 -0.3637  0.6647  3.0800
  656MOL0     H86557   6.917  -1.255   9.480  2.3518 -0.6598  3.3298
  656MOL0     H86558   6.486  -1.181   9.344  0.5653  0.9316 -1.0509
  656MOL0     H86559   6.530  -1.019   9.383  2.2662 -0.0110  0.7299
  656MOL0     H86560   6.393  -1.079   9.560 -0.2541 -0.7215  5.0421
  656MOL0     H86561   6.552  -1.140   9.626  1.0157  0.6052 -1.1971
  656MOL0     H86562   6.515  -1.346   9.566 -0.5091  0.8775  1.1883
  656MOL0     H86563   6.364  -1.317   9.476 -0.2778 -1.5629 -0.0133
  656MOL0     H86564   6.413  -1.252   9.775  0.8539  0.2005 -0.3419
  656MOL0     H86565   6.256  -1.261   9.704  0.3779  1.4067 -1.4813
  656MOL0     H86566   6.453  -1.498   9.739 -0.2298  1.3504  1.7262
  656MOL0     H86567   6.291  -1.516   9.665  0.6486 -1.0775 -0.5809
  656MOL0     H86568   6.301  -1.376   9.937  2.3310 -1.0914  0.1447
  656MOL0     H86569   6.346  -1.550   9.938 -0.2208 -2.5035 -1.8781
  656MOL0     H86570   6.102  -1.465   9.986  1.2731 -2.0468  1.5894
  656MOL0     H86571   6.103  -1.434   9.807 -3.6545 -0.2830  0.3991
  656MOL0     H86572   6.115  -1.692   9.980 -1.1388 -1.8752 -0.4452
  656MOL0     H86573   6.156  -1.696   9.803 -0.6250  1.8695 -0.9756
  656MOL0     H86574   6.689  -0.904   9.423  0.0740 -0.7710 -0.8619
  656MOL0     H86575   6.872  -0.763   9.513 -1.7703 -0.8639 -0.0838
  656MOL0     H86576   7.332  -0.762   9.521 -5.2059 -1.0395  0.4617
  656MOL0     H86577   7.496  -0.567   9.522 -0.6244  1.3240 -0.8460
  656MOL0     H86578   8.021   0.816   9.600 -1.3043  0.5270  0.1782
  656MOL0     H86579   7.833   0.756   9.730  3.0427 -3.8529  1.1079
  656MOL0     H86580   7.452   0.488   9.794 -0.2712  0.3206 -0.6384
  656MOL0     H86581   7.244   0.433   9.872  1.7886  0.0947  0.9513
  656MOL0     H86582   6.871   0.533   9.629 -1.1870  0.3222  0.7841
  656MOL0     H86583   6.896   0.677   9.724 -0.6945  0.1618 -2.2544
  656MOL0     H86584   6.779   0.417   9.792  2.3434 -0.9059  0.0029
  656MOL0     H86585   6.812   0.540   9.922  0.4120 -1.7286 -0.0175
  656MOL0     H86586   6.581   0.509   9.729  3.5415 -1.8028 -0.1858
  656MOL0     H86587   6.645   0.663   9.722  0.6475  1.2737  0.9411
  656MOL0     H86588   6.612   0.709   9.957 -0.7090 -0.5200 -0.1728
  656MOL0     H86589   6.460   0.666   9.872 -1.4134  0.4829  1.0959
  656MOL0     H86590   6.495   0.332  10.132 -1.3720 -0.8532 -2.4135
  656MOL0     H86591   7.053   0.680   9.579  0.5061  2.4425  2.7027
  656MOL0     H86592   7.266   0.756   9.503 -1.6979 -0.5246 -0.0069
  657MOL0     O86593   6.095   1.080   7.278 -0.6692 -0.4648 -0.3008
  657MOL0     C86594   6.116   1.190   7.223 -1.4121 -0.1671  0.6042
  657MOL0     O86595   6.047   1.254   7.132 -0.1967 -0.1354 -0.5327
  657MOL0     C86596   5.921   1.212   7.105 -0.8337  1.0425  0.0987
  657MOL0     C86597   5.902   1.123   6.997 -1.2359  0.1576  0.7996
  657MOL0     C86598   5.773   1.097   6.948 -0.3840  0.4636 -0.6091
  657MOL0     C86599   5.662   1.155   7.007 -0.2336 -0.0677  0.3299
  657MOL0     O86600   5.533   1.137   6.948  0.3540  0.1510 -0.4523
  657MOL0     C86601   5.509   1.018   6.879 -0.1945 -0.2109 -0.0007
  657MOL0     C86602   5.363   0.969   6.873  0.4435  0.6052 -0.0083
  657MOL0     C86603   5.283   1.053   6.776 -0.2443 -0.1897  0.5858
  657MOL0     C86604   5.154   0.996   6.739 -0.3686 -0.4077 -0.1441
  657MOL0     C86605   5.091   1.072   6.626 -0.5678  0.2147  0.0253
  657MOL0     C86606   5.047   0.965   6.516  0.5022 -0.6752 -0.8048
  657MOL0     C86607   4.956   1.028   6.407  0.1286  0.2714 -0.6409
  657MOL0     C86608   4.930   0.921   6.304  0.2799 -0.2752 -0.4056
  657MOL0     N86609   4.881   0.974   6.189  0.2323 -0.8562  0.3991
  657MOL0     C86610   4.768   1.044   6.167  1.1189 -0.5457 -0.1360
  657MOL0     C86611   4.766   1.075   6.034  0.9543 -0.2576 -0.9445
  657MOL0     C86612   4.648   1.140   5.965  0.1840 -1.2927  0.2797
  657MOL0     C86613   4.569   1.041   5.889 -0.1514 -0.3431 -0.5154
  657MOL0     C86614   4.415   1.073   5.879 -0.3100 -0.1824  0.4888
  657MOL0     C86615   4.336   0.990   5.786 -0.5703 -0.4629 -0.2314
  657MOL0     O86616   4.195   1.012   5.798 -0.4248  0.0664  0.2829
  657MOL0     C86617   4.111   0.930   5.724 -0.8176  0.1500 -0.3419
  657MOL0     C86618   3.979   0.973   5.716 -0.6201 -0.4779 -1.0144
  657MOL0     C86619   3.887   0.889   5.653  0.8296  0.2571  0.2697
  657MOL0     C86620   3.916   0.762   5.603 -0.0362 -0.1991 -0.4577
  657MOL0     C86621   3.814   0.679   5.524 -0.8847 -0.3531 -0.4909
  657MOL0     O86622   3.862   0.562   5.462 -0.4593 -0.0147  0.1062
  657MOL0     C86623   3.772   0.479   5.412  0.6440  0.3416 -0.8538
  657MOL0     C86624   3.754   0.350   5.474 -0.2055  0.7999  0.6858
  657MOL0     C86625   3.660   0.252   5.430  0.0801 -0.6734 -0.4219
  657MOL0     C86626   3.584   0.290   5.320  0.6065  0.1903 -0.1891
  657MOL0     O86627   3.490   0.213   5.255 -0.3728  0.1689  0.0826
  657MOL0     C86628   3.508   0.066   5.261  0.2699  0.2724 -0.1509
  657MOL0     C86629   3.630   0.025   5.178 -0.8422 -0.8127  0.9253
  657MOL0     C86630   3.603  -0.105   5.094  0.4220 -0.8692 -0.9330
  657MOL0     C86631   3.737  -0.158   5.037 -0.3256  0.4549 -0.2371
  657MOL0     C86632   3.736  -0.316   5.025 -0.4439 -0.0887  0.1652
  657MOL0     C86633   3.624  -0.365   4.931 -0.4295  0.2976 -0.5491
  657MOL0     C86634   3.628  -0.307   4.795  0.5116 -0.2745  0.1021
  657MOL0     C86635   3.534  -0.378   4.687  0.0011  0.4277 -0.1402
  657MOL0    Cl86636   3.367  -0.389   4.747  0.4595 -0.3602 -0.1854
  657MOL0     C86637   3.593   0.414   5.268  0.0192 -0.6236  0.4410
  657MOL0     C86638   3.690   0.508   5.308 -0.3744  0.7789 -1.0162
  657MOL0     O86639   3.696   0.717   5.521 -0.2128  0.3031 -0.2143
  657MOL0     C86640   4.050   0.731   5.601  0.3233 -0.4051 -1.5887
  657MOL0     C86641   4.143   0.802   5.671 -0.4921 -0.0384 -0.0446
  657MOL0     N86642   4.869   1.014   5.970 -0.5673 -0.4901  0.1394
  657MOL0     N86643   4.940   0.964   6.066  0.4081  0.1094 -0.1326
  657MOL0     C86644   5.676   1.226   7.124 -0.2032 -1.1163 -0.7715
  657MOL0     C86645   5.801   1.263   7.168  0.5157  0.1766 -0.9492
  657MOL0     C86646   6.246   1.260   7.261  0.0946  1.0590  0.5036
  657MOL0     C86647   6.331   1.318   7.160  0.0713  0.1588  0.4451
  657MOL0     C86648   6.456   1.374   7.192  0.4016 -0.3341 -1.1976
  657MOL0     C86649   6.502   1.376   7.328  0.5660 -0.9798  0.2197
  657MOL0     O86650   6.616   1.437   7.346  0.5000 -0.1024 -0.7843
  657MOL0     C86651   6.679   1.425   7.474  0.8417 -0.3948  0.3156
  657MOL0     C86652   6.656   1.552   7.558 -0.3869 -0.1805  0.3196
  657MOL0     C86653   6.703   1.542   7.709  0.8166 -0.4230 -0.0306
  657MOL0     C86654   6.844   1.508   7.742  0.3774 -0.3974  0.4470
  657MOL0     C86655   6.879   1.372   7.720 -0.8047  0.5206 -0.0956
  657MOL0     C86656   6.910   1.261   7.700 -0.5018  1.7630 -0.7203
  657MOL0     C86657   6.413   1.320   7.429  0.1816  0.0526  0.4032
  657MOL0     C86658   6.292   1.256   7.392  0.0477 -0.6614  0.2090
  657MOL0     H86659   5.983   1.064   6.955 -0.0035  0.3268  2.7843
  657MOL0     H86660   5.755   1.018   6.876  2.0013 -0.2078 -0.5745
  657MOL0     H86661   5.568   0.943   6.933  2.7079  1.4986 -0.5730
  657MOL0     H86662   5.559   1.042   6.785  3.3360 -0.6138  1.6151
  657MOL0     H86663   5.316   0.964   6.972 -1.1462 -1.7680 -0.8294
  657MOL0     H86664   5.374   0.866   6.841  1.0844  1.0868 -1.4175
  657MOL0     H86665   5.346   1.071   6.688  0.9111  1.2387  1.6473
  657MOL0     H86666   5.262   1.154   6.811 -2.4588  0.0869 -1.2642
  657MOL0     H86667   5.163   0.891   6.709  1.2286 -0.0602 -0.9524
  657MOL0     H86668   5.090   1.016   6.826  0.7630  1.0625  0.3759
  657MOL0     H86669   5.153   1.144   6.572 -1.2399  0.1841 -0.8089
  657MOL0     H86670   4.996   1.109   6.663  0.1132 -0.5510  2.7452
  657MOL0     H86671   4.991   0.888   6.570 -2.1322  1.9219  0.4437
  657MOL0     H86672   5.138   0.925   6.471 -2.0494 -5.6911 -2.2079
  657MOL0     H86673   4.864   1.057   6.459  1.8605  0.8648  2.3451
  657MOL0     H86674   4.984   1.116   6.349 -2.9491  0.9560 -1.2954
  657MOL0     H86675   4.842   0.858   6.324  0.3634 -0.4448 -0.5663
  657MOL0     H86676   5.013   0.851   6.287 -0.2180 -0.7472 -0.9584
  657MOL0     H86677   4.680   1.062   6.228 -0.9859  1.2774 -3.3973
  657MOL0     H86678   4.685   1.204   5.885  2.2695 -2.1937  0.4511
  657MOL0     H86679   4.585   1.190   6.039  1.4765  1.3646 -0.2979
  657MOL0     H86680   4.584   0.945   5.938 -0.0749 -1.1383 -2.0240
  657MOL0     H86681   4.612   1.016   5.792  1.1660 -0.8265  0.1730
  657MOL0     H86682   4.374   1.082   5.980  2.1291  0.8077  1.4667
  657MOL0     H86683   4.394   1.177   5.853  4.0155  1.3124  2.0828
  657MOL0     H86684   4.345   0.885   5.814  1.8467 -0.8808 -2.2119
  657MOL0     H86685   4.374   1.010   5.685 -2.1535  3.1965 -0.2360
  657MOL0     H86686   3.951   1.071   5.753 -2.2918 -0.9684 -0.9069
  657MOL0     H86687   3.793   0.940   5.636  1.3772  0.8395 -1.1530
  657MOL0     H86688   3.813   0.320   5.560 -0.4022 -4.1870 -0.6092
  657MOL0     H86689   3.652   0.158   5.483 -2.9111  1.4318  3.4530
  657MOL0     H86690   3.430   0.018   5.200  2.6729 -1.0364 -2.4313
  657MOL0     H86691   3.499   0.005   5.351 -2.1954 -1.2675 -1.3050
  657MOL0     H86692   3.711   0.012   5.250 -0.1035  3.3399  1.1160
  657MOL0     H86693   3.655   0.104   5.107 -2.2590  2.1969  3.4942
  657MOL0     H86694   3.522  -0.091   5.022 -1.8260 -1.6901  1.3102
  657MOL0     H86695   3.559  -0.179   5.160 -2.9085  1.1278 -0.7297
  657MOL0     H86696   3.748  -0.118   4.936 -2.0461  0.2228 -0.5347
  657MOL0     H86697   3.827  -0.136   5.097  0.6215 -2.7486 -0.2822
  657MOL0     H86698   3.743  -0.356   5.127 -0.7907  0.5354  0.4409
  657MOL0     H86699   3.828  -0.352   4.979 -0.1875 -1.0031  1.3402
  657MOL0     H86700   3.530  -0.344   4.983 -1.5358  0.5051 -2.5368
  657MOL0     H86701   3.633  -0.474   4.931  0.1924  0.2590  2.3124
  657MOL0     H86702   3.588  -0.206   4.804  1.7318  0.2589 -0.2201
  657MOL0     H86703   3.729  -0.296   4.754  0.1783 -0.2975 -0.7597
  657MOL0     H86704   3.566  -0.478   4.654  1.5391 -0.1841  2.8393
  657MOL0     H86705   3.537  -0.311   4.601  0.8635 -0.0530 -0.5056
  657MOL0     H86706   3.535   0.433   5.179 -1.0170 -2.9226  0.5611
  657MOL0     H86707   3.701   0.602   5.255 -1.7205 -0.4024 -3.6087
  657MOL0     H86708   4.072   0.629   5.569  4.0676  0.7565 -3.2922
  657MOL0     H86709   4.241   0.764   5.700 -0.1308  1.6309  1.0365
  657MOL0     H86710   5.592   1.281   7.165  0.1701 -0.3403 -1.0153
  657MOL0     H86711   5.801   1.332   7.251 -1.7561  2.2597 -2.5261
  657MOL0     H86712   6.308   1.305   7.054  0.6987  0.9425  0.2065
  657MOL0     H86713   6.516   1.427   7.119  0.0116  5.4252  2.0859
  657MOL0     H86714   6.784   1.403   7.454  0.6141  0.3499 -1.9951
  657MOL0     H86715   6.649   1.337   7.532  1.8862  0.9893  3.1192
  657MOL0     H86716   6.723   1.622   7.509  1.6564  1.2262  4.6097
  657MOL0     H86717   6.553   1.588   7.547 -1.1568 -2.6259 -1.4566
  657MOL0     H86718   6.638   1.464   7.748 -1.2433  1.6639  0.9428
  657MOL0     H86719   6.675   1.639   7.753  0.7399 -1.0120  1.2776
  657MOL0     H86720   6.909   1.576   7.686  0.6474  0.5442  1.8658
  657MOL0     H86721   6.874   1.541   7.842  3.9080  1.5858 -1.0810
  657MOL0     H86722   6.952   1.162   7.694 -2.2252  1.0102 -0.8528
  657MOL0     H86723   6.439   1.315   7.534  1.5367 -3.1157  0.0268
  657MOL0     H86724   6.230   1.207   7.466 -0.0442 -4.0823 -1.9519
  658MOL0     O86725   4.363   8.307   4.674 -0.0618  1.1859  0.1646
  658MOL0     C86726   4.424   8.252   4.578  0.3482  1.0945  0.3452
  658MOL0     O86727   4.559   8.234   4.565 -0.7064  0.6661 -0.1390
  658MOL0     C86728   4.639   8.221   4.679  0.2037  0.1245  1.1341
  658MOL0     C86729   4.741   8.312   4.685 -0.2013 -0.2846 -0.5983
  658MOL0     C86730   4.840   8.299   4.790 -0.3694  0.2602 -0.7633
  658MOL0     C86731   4.834   8.204   4.887 -0.0562 -0.3183 -0.2613
  658MOL0     O86732   4.916   8.184   4.998 -0.4865  0.9216  0.0972
  658MOL0     C86733   5.037   8.264   5.019 -0.3675  0.4241  0.0960
  658MOL0     C86734   5.137   8.181   5.103  0.2785 -0.1645 -0.0325
  658MOL0     C86735   5.282   8.233   5.096  0.3205 -0.3669 -0.5415
  658MOL0     C86736   5.366   8.172   5.196  0.1215 -0.9015  0.2580
  658MOL0     C86737   5.487   8.103   5.129 -0.3875  0.1359  0.3832
  658MOL0     C86738   5.588   8.039   5.234  0.5222  0.4444  0.1917
  658MOL0     C86739   5.725   8.044   5.171 -0.7957  0.3971  0.2586
  658MOL0     C86740   5.832   7.973   5.262 -0.5510 -0.7130  0.2729
  658MOL0     N86741   5.959   7.941   5.196 -0.7937 -0.4388 -0.2149
  658MOL0     C86742   6.050   8.039   5.150  0.3824  0.3415 -1.0448
  658MOL0     C86743   6.160   7.963   5.112  0.7162 -0.2658  0.7390
  658MOL0     C86744   6.299   8.005   5.063 -0.2030  0.4897 -0.7232
  658MOL0     C86745   6.332   7.987   4.906  0.2904 -0.2050 -0.1118
  658MOL0     C86746   6.238   8.052   4.808  0.3598 -0.8050  0.1870
  658MOL0     C86747   6.157   8.180   4.846 -0.7561  1.3019 -0.0315
  658MOL0     O86748   6.024   8.150   4.888  0.3066  0.1255 -0.3796
  658MOL0     C86749   5.938   8.261   4.896  0.6607 -0.1693 -0.2439
  658MOL0     C86750   5.976   8.395   4.887 -0.1127 -0.0644 -0.8934
  658MOL0     C86751   5.878   8.489   4.882  0.4531 -0.2149  0.2006
  658MOL0     C86752   5.739   8.460   4.866 -0.2958  0.6832 -1.0512
  658MOL0     C86753   5.639   8.568   4.857  0.0017 -0.0696  0.7439
  658MOL0     O86754   5.518   8.510   4.833  0.7121 -0.6113  0.7204
  658MOL0     C86755   5.417   8.599   4.802 -0.3264 -0.2030 -0.2923
  658MOL0     C86756   5.283   8.554   4.825 -0.6526  0.0095  0.1113
  658MOL0     C86757   5.178   8.643   4.789  0.5480  0.9742 -1.0952
  658MOL0     C86758   5.193   8.771   4.732 -0.2209 -1.1154 -0.2505
  658MOL0     O86759   5.078   8.833   4.689  0.0519 -0.5212  0.2331
  658MOL0     C86760   5.098   8.972   4.668 -0.2427 -0.1668  0.8837
  658MOL0     C86761   5.115   8.999   4.519 -0.0271  0.4955  0.2404
  658MOL0     C86762   5.094   9.148   4.489  0.4697 -0.9526 -0.7790
  658MOL0     C86763   5.155   9.181   4.350  0.3092  0.6390  0.9024
  658MOL0     C86764   5.129   9.323   4.302  0.9261 -0.1885 -0.4357
  658MOL0     C86765   5.177   9.356   4.162  0.7951 -0.5400  0.8670
  658MOL0     C86766   5.321   9.350   4.142 -0.0822 -0.0645  0.1886
  658MOL0     C86767   5.374   9.221   4.075 -0.6972 -0.1496 -0.0519
  658MOL0    Cl86768   5.490   9.160   4.191 -0.1182 -0.0789 -0.1709
  658MOL0     C86769   5.326   8.809   4.704 -0.0483  0.2037 -0.2623
  658MOL0     C86770   5.436   8.720   4.734  0.3280  0.4005  0.3206
  658MOL0     O86771   5.668   8.686   4.875 -0.1196  0.1377 -0.2376
  658MOL0     C86772   5.701   8.326   4.878  0.1584 -0.1608 -0.3869
  658MOL0     C86773   5.798   8.226   4.891  0.8656 -0.0382  0.0636
  658MOL0     N86774   6.131   7.830   5.127  0.1801  0.2827 -0.5735
  658MOL0     N86775   6.015   7.824   5.191  0.0823 -0.3011 -0.2076
  658MOL0     C86776   4.722   8.124   4.882  0.7836  0.5810  0.3553
  658MOL0     C86777   4.619   8.132   4.773 -1.1236  1.2167 -0.7685
  658MOL0     C86778   4.353   8.205   4.466  0.0442 -0.7820  0.2705
  658MOL0     C86779   4.418   8.197   4.346  0.3600 -0.3832 -0.0579
  658MOL0     C86780   4.349   8.161   4.232  0.1245 -0.4663  0.2092
  658MOL0     C86781   4.211   8.134   4.229 -1.3956  0.6125  0.1822
  658MOL0     O86782   4.133   8.120   4.116  0.4212  0.2107 -0.3260
  658MOL0     C86783   4.135   7.993   4.052 -0.3008  0.3974 -0.1117
  658MOL0     C86784   4.142   8.013   3.910  0.3971 -1.1274  0.8124
  658MOL0     C86785   4.260   8.093   3.848 -0.0618  0.0973  0.9049
  658MOL0     C86786   4.293   8.062   3.699  0.4681  0.1045 -0.2444
  658MOL0     C86787   4.349   7.924   3.696 -0.9362 -0.4986  0.8371
  658MOL0     C86788   4.400   7.813   3.681  0.2330 -0.0874  0.6212
  658MOL0     C86789   4.145   8.144   4.353 -0.1913 -0.2874  0.3728
  658MOL0     C86790   4.220   8.166   4.468  0.7742  1.0646  0.2951
  658MOL0     H86791   4.762   8.383   4.606 -0.1057  0.9513  0.4869
  658MOL0     H86792   4.917   8.376   4.793  0.5424 -0.6448 -0.2166
  658MOL0     H86793   5.014   8.363   5.061  0.2404  0.9229 -0.7098
  658MOL0     H86794   5.095   8.287   4.929  1.0855  0.1194  0.9122
  658MOL0     H86795   5.138   8.081   5.058 -0.5241  0.9177 -2.6660
  658MOL0     H86796   5.095   8.177   5.204 -0.3415  0.4799 -0.2530
  658MOL0     H86797   5.263   8.338   5.120 -1.6422 -0.1402 -2.6964
  658MOL0     H86798   5.325   8.235   4.996  0.0250 -0.8560 -0.6805
  658MOL0     H86799   5.393   8.248   5.270  0.5020 -2.5008  1.8227
  658MOL0     H86800   5.304   8.102   5.251 -1.9236  1.1819  0.7433
  658MOL0     H86801   5.533   8.179   5.066 -1.1121  0.4718  0.2476
  658MOL0     H86802   5.454   8.024   5.061  2.6225 -1.3487  0.5004
  658MOL0     H86803   5.559   7.935   5.253  1.4146 -0.1951 -1.7619
  658MOL0     H86804   5.582   8.086   5.333  2.5867 -1.1545  1.1555
  658MOL0     H86805   5.716   7.981   5.082 -4.3147  0.0420  0.6936
  658MOL0     H86806   5.747   8.149   5.151  0.3355 -0.1184 -1.3160
  658MOL0     H86807   5.792   7.885   5.313  0.1569  0.1923  2.5168
  658MOL0     H86808   5.862   8.044   5.340  0.9960 -2.6497  1.5508
  658MOL0     H86809   6.033   8.146   5.157 -4.0280 -0.2865  2.6043
  658MOL0     H86810   6.359   7.934   5.122 -2.2786  0.4969  1.5525
  658MOL0     H86811   6.328   8.106   5.093  1.0926  0.0506 -0.4289
  658MOL0     H86812   6.349   7.884   4.872 -4.9556 -0.8777 -1.5951
  658MOL0     H86813   6.427   8.038   4.889 -0.4341  0.8731 -1.1146
  658MOL0     H86814   6.301   8.084   4.725  2.0110  0.2257  1.7771
  658MOL0     H86815   6.159   7.982   4.777 -0.0973  0.5472 -1.9517
  658MOL0     H86816   6.155   8.244   4.758 -0.9654  0.1210 -0.9053
  658MOL0     H86817   6.212   8.225   4.930  2.0495 -1.5439 -0.1713
  658MOL0     H86818   6.081   8.424   4.895 -0.7771  2.6655 -1.0131
  658MOL0     H86819   5.907   8.593   4.867 -2.1945  0.3813 -1.3546
  658MOL0     H86820   5.272   8.460   4.878  1.3155 -0.9611 -1.0729
  658MOL0     H86821   5.081   8.598   4.808  0.3105  1.5445 -0.9453
  658MOL0     H86822   5.175   9.004   4.738  0.0214 -2.3258  1.6493
  658MOL0     H86823   5.012   9.030   4.705 -0.4135  1.7044 -2.0745
  658MOL0     H86824   5.038   8.939   4.470 -2.4059  3.6534 -0.2653
  658MOL0     H86825   5.211   8.953   4.495 -0.2479 -2.0082  3.4691
  658MOL0     H86826   5.155   9.211   4.555 -0.5294 -0.3645 -0.4042
  658MOL0     H86827   4.988   9.173   4.495  0.4511 -0.9895 -0.9523
  658MOL0     H86828   5.262   9.159   4.341  0.2052  0.7317 -0.8973
  658MOL0     H86829   5.098   9.130   4.272 -0.5027  1.5271  0.8998
  658MOL0     H86830   5.198   9.383   4.361  0.4993 -1.9093  2.0002
  658MOL0     H86831   5.026   9.355   4.324  0.9804  0.3240 -0.9140
  658MOL0     H86832   5.157   9.463   4.147  2.0044 -0.1553  1.8434
  658MOL0     H86833   5.121   9.291   4.095 -0.7693 -2.2444  3.6297
  658MOL0     H86834   5.344   9.429   4.070  1.4051 -0.5614  0.0820
  658MOL0     H86835   5.371   9.380   4.234 -1.5306  1.1070  0.6399
  658MOL0     H86836   5.429   9.242   3.983  3.2253  1.4008  2.3915
  658MOL0     H86837   5.288   9.154   4.068 -0.2415 -0.6036 -1.6253
  658MOL0     H86838   5.346   8.893   4.639 -1.6089  0.5400 -0.3582
  658MOL0     H86839   5.532   8.736   4.685 -1.1296  0.3611 -2.8393
  658MOL0     H86840   5.597   8.295   4.877 -0.2316  0.8062  2.0240
  658MOL0     H86841   5.774   8.122   4.876  2.4951 -0.1167 -2.5007
  658MOL0     H86842   4.708   8.049   4.959 -0.9324  1.9871  1.5078
  658MOL0     H86843   4.542   8.057   4.758  1.2388 -1.6661  0.2652
  658MOL0     H86844   4.522   8.226   4.335 -0.3124  2.8243  0.8944
  658MOL0     H86845   4.398   8.150   4.136  1.4476 -0.2451  0.8390
  658MOL0     H86846   4.053   7.929   4.083 -1.6745  1.2787 -1.7575
  658MOL0     H86847   4.224   7.941   4.089  0.5748  2.9532  1.6522
  658MOL0     H86848   4.146   7.914   3.863  1.5687 -0.3771 -0.7422
  658MOL0     H86849   4.049   8.059   3.876  1.4415  0.6932  0.2964
  658MOL0     H86850   4.353   8.085   3.905 -0.8655  0.8663  2.3834
  658MOL0     H86851   4.235   8.199   3.853  0.9016  0.3329  0.9191
  658MOL0     H86852   4.199   8.065   3.643 -0.9387  0.2728  2.0167
  658MOL0     H86853   4.364   8.127   3.647 -0.9199  0.7948 -1.3565
  658MOL0     H86854   4.453   7.720   3.674  0.1365 -0.1951  1.3027
  658MOL0     H86855   4.037   8.141   4.353 -0.3477  2.0411  2.7828
  658MOL0     H86856   4.164   8.159   4.561  0.1766  0.8060 -0.0823
  659MOL0     O86857   8.681   1.090   6.293  0.0058 -0.1903  0.2376
  659MOL0     C86858   8.666   1.144   6.400  0.6985 -0.3924 -0.2314
  659MOL0     O86859   8.554   1.138   6.487 -0.7414  0.8013  0.2232
  659MOL0     C86860   8.429   1.092   6.438  1.0147 -0.3917  0.1035
  659MOL0     C86861   8.408   0.979   6.358  0.6023  0.1996 -0.2347
  659MOL0     C86862   8.284   0.918   6.347  0.5939 -0.4242 -0.3750
  659MOL0     C86863   8.173   0.962   6.418  0.2349  0.3737  0.5204
  659MOL0     O86864   8.047   0.914   6.385  0.2307 -0.1163 -0.0435
  659MOL0     C86865   8.014   0.780   6.406 -0.1420  0.9640  0.4492
  659MOL0     C86866   7.901   0.762   6.505  0.7015  0.4789  0.3561
  659MOL0     C86867   7.755   0.781   6.446 -0.4289  0.1720  0.2831
  659MOL0     C86868   7.635   0.767   6.545 -0.3815 -1.1372 -0.0884
  659MOL0     C86869   7.499   0.750   6.473 -0.1157 -0.5554  0.5472
  659MOL0     C86870   7.392   0.708   6.581 -0.6490 -0.5128 -0.3436
  659MOL0     C86871   7.249   0.738   6.538  0.0501  1.3254  0.1254
  659MOL0     C86872   7.154   0.698   6.653  0.1008  0.1194  1.2439
  659MOL0     N86873   7.039   0.646   6.590  0.3437  0.4220  0.2840
  659MOL0     C86874   6.947   0.730   6.527 -0.4512  0.2164 -0.0488
  659MOL0     C86875   6.852   0.646   6.470 -0.1238 -0.6361 -0.4594
  659MOL0     C86876   6.730   0.685   6.407  0.3932  0.3930  0.0575
  659MOL0     C86877   6.596   0.651   6.473 -0.4709 -0.4378  0.6035
  659MOL0     C86878   6.481   0.659   6.368 -0.1708  0.4866  0.1321
  659MOL0     C86879   6.341   0.623   6.416  0.1783 -0.2955  0.3851
  659MOL0     O86880   6.277   0.590   6.292  0.8652 -0.0304 -0.1174
  659MOL0     C86881   6.134   0.550   6.294 -0.1462  0.1002  0.1700
  659MOL0     C86882   6.086   0.475   6.186 -0.2251  0.1443 -0.9077
  659MOL0     C86883   5.952   0.447   6.180 -0.2894  0.0982  0.0409
  659MOL0     C86884   5.855   0.481   6.280 -0.4410 -0.3147 -0.0690
  659MOL0     C86885   5.717   0.446   6.268  0.1496 -0.4754  0.5307
  659MOL0     O86886   5.690   0.338   6.176  0.2577 -0.1411  1.0104
  659MOL0     C86887   5.561   0.324   6.142 -0.1750 -0.6661 -0.2314
  659MOL0     C86888   5.496   0.203   6.152 -1.5898  1.5787 -0.5662
  659MOL0     C86889   5.364   0.193   6.110  0.2491  0.1884 -0.4137
  659MOL0     C86890   5.304   0.307   6.055 -0.2673  0.5992 -1.0413
  659MOL0     O86891   5.166   0.310   6.009  0.2837 -0.4238 -0.3350
  659MOL0     C86892   5.102   0.187   6.031  0.7981  0.6475 -0.7194
  659MOL0     C86893   4.951   0.193   5.997 -0.0374  0.7453  0.4719
  659MOL0     C86894   4.919   0.144   5.852  0.1631  0.1469 -0.2707
  659MOL0     C86895   4.779   0.086   5.853 -0.3400 -0.2337  0.8193
  659MOL0     C86896   4.741   0.036   5.717 -0.8735 -0.0564  0.0346
  659MOL0     C86897   4.606  -0.053   5.727  0.1506  0.8296 -0.1127
  659MOL0     C86898   4.487   0.026   5.677  0.4159 -0.1844 -0.9400
  659MOL0     C86899   4.373  -0.048   5.610  0.1083  0.6879 -0.2974
  659MOL0    Cl86900   4.315  -0.164   5.732  0.3422  0.3808 -0.0727
  659MOL0     C86901   5.367   0.426   6.033 -0.4313  0.3836  0.0774
  659MOL0     C86902   5.492   0.442   6.092 -0.1570 -0.5604 -0.3067
  659MOL0     O86903   5.634   0.514   6.331 -0.6431 -0.4016 -0.4119
  659MOL0     C86904   5.905   0.548   6.384 -0.2842  0.1257 -0.9027
  659MOL0     C86905   6.040   0.586   6.397 -0.2358 -0.0526 -0.1679
  659MOL0     N86906   6.887   0.520   6.500 -0.0466 -0.2292 -0.0290
  659MOL0     N86907   7.006   0.515   6.573  0.1775 -0.3445  0.0613
  659MOL0     C86908   8.191   1.076   6.498 -0.0582 -0.0994  0.8738
  659MOL0     C86909   8.320   1.137   6.501 -0.1143 -0.4900  0.0878
  659MOL0     C86910   8.785   1.224   6.452  0.3614 -0.2298  0.9271
  659MOL0     C86911   8.898   1.227   6.375 -0.9138  0.2404  0.2698
  659MOL0     C86912   8.998   1.326   6.406  0.9466  0.2525 -0.2032
  659MOL0     C86913   8.980   1.425   6.503  0.1968 -0.3395 -0.0154
  659MOL0     O86914   9.068   1.527   6.522 -0.2122 -0.9387 -0.5485
  659MOL0     C86915   9.167   1.510   6.628  1.6623 -0.0776  0.3387
  659MOL0     C86916   9.205   1.646   6.689 -0.0550  0.5235  0.4085
  659MOL0     C86917   9.304   1.624   6.802  0.8445 -0.1954 -0.3241
  659MOL0     C86918   9.282   1.722   6.912  0.5574 -0.4290 -0.5148
  659MOL0     C86919   9.301   1.862   6.867 -0.3085 -0.0139  0.4136
  659MOL0     C86920   9.305   1.979   6.830  0.3171 -0.5619 -0.1966
  659MOL0     C86921   8.862   1.422   6.576 -0.7278  0.0529 -1.2352
  659MOL0     C86922   8.770   1.314   6.558  0.8176 -0.6425  0.8791
  659MOL0     H86923   8.489   0.920   6.316 -0.2623 -2.6707  1.8300
  659MOL0     H86924   8.262   0.831   6.285 -0.3016  1.3180 -2.6854
  659MOL0     H86925   8.098   0.715   6.431 -0.7914 -1.2691 -2.5321
  659MOL0     H86926   7.992   0.746   6.305  0.6484  1.2223  0.1823
  659MOL0     H86927   7.921   0.842   6.578 -1.8454 -0.8509  2.6523
  659MOL0     H86928   7.905   0.657   6.533 -1.9011 -0.1953 -1.4905
  659MOL0     H86929   7.750   0.699   6.374 -0.3407 -0.1230  0.6088
  659MOL0     H86930   7.754   0.879   6.398 -1.6920  0.4961  0.9124
  659MOL0     H86931   7.657   0.679   6.605 -1.9235  0.4628  3.0520
  659MOL0     H86932   7.624   0.856   6.607  0.4697 -0.9025 -0.2589
  659MOL0     H86933   7.500   0.679   6.390 -0.1396  0.3145 -0.2242
  659MOL0     H86934   7.474   0.847   6.427 -1.2853 -1.7639 -1.5428
  659MOL0     H86935   7.419   0.758   6.674 -0.0339 -0.6080 -0.4632
  659MOL0     H86936   7.406   0.601   6.599 -2.1330 -0.6921 -0.1585
  659MOL0     H86937   7.244   0.843   6.506 -0.7066  1.3360  0.2755
  659MOL0     H86938   7.230   0.671   6.454  0.5094 -0.2391  1.2206
  659MOL0     H86939   7.126   0.785   6.713 -1.0158 -1.2783  2.8484
  659MOL0     H86940   7.194   0.623   6.722  0.3820  1.4472  2.5815
  659MOL0     H86941   6.945   0.838   6.526 -0.7485  0.2164 -1.1152
  659MOL0     H86942   6.729   0.633   6.311 -0.4231 -1.5801  1.0925
  659MOL0     H86943   6.726   0.793   6.385  0.5039  0.4357  0.2408
  659MOL0     H86944   6.582   0.710   6.564  1.1762 -1.3747  1.5158
  659MOL0     H86945   6.609   0.547   6.505  1.7031 -0.2229  0.5364
  659MOL0     H86946   6.477   0.766   6.349  1.2463  0.8994  1.8591
  659MOL0     H86947   6.500   0.598   6.279 -1.0731  0.3469  0.0238
  659MOL0     H86948   6.295   0.706   6.470  0.6168 -1.1287  2.1155
  659MOL0     H86949   6.340   0.535   6.481 -1.1196  0.5797  1.6217
  659MOL0     H86950   6.150   0.416   6.121 -0.5790 -1.0663 -0.1679
  659MOL0     H86951   5.923   0.391   6.091 -1.0810 -1.7426  1.3843
  659MOL0     H86952   5.552   0.122   6.197 -2.7051  2.6450  3.1726
  659MOL0     H86953   5.324   0.093   6.123 -0.7223  0.6543  0.3703
  659MOL0     H86954   5.107   0.177   6.140 -0.0342  2.7631 -0.4504
  659MOL0     H86955   5.149   0.100   5.984 -2.4431 -0.5982 -1.9168
  659MOL0     H86956   4.924   0.299   6.002  0.5470  0.8788  0.9434
  659MOL0     H86957   4.883   0.135   6.059  0.0771 -0.5277 -0.5575
  659MOL0     H86958   4.994   0.073   5.817  0.0771 -1.2023  2.0691
  659MOL0     H86959   4.911   0.229   5.783  0.9825 -0.0549 -0.6271
  659MOL0     H86960   4.790  -0.007   5.909 -0.8260 -1.6809 -1.3555
  659MOL0     H86961   4.700   0.142   5.905 -1.8539 -0.7702 -0.7782
  659MOL0     H86962   4.826  -0.025   5.686  0.1784  0.9525  0.8320
  659MOL0     H86963   4.726   0.121   5.651  2.5671  0.0242 -0.8185
  659MOL0     H86964   4.584  -0.101   5.823  1.3214  2.0908  0.8172
  659MOL0     H86965   4.603  -0.136   5.655  0.2327  0.8186 -0.1043
  659MOL0     H86966   4.453   0.086   5.762  0.5171 -0.7495 -0.4959
  659MOL0     H86967   4.507   0.105   5.603 -4.5772  0.0223 -2.4639
  659MOL0     H86968   4.412  -0.097   5.521 -0.4824  1.1401 -0.8169
  659MOL0     H86969   4.296   0.022   5.575  1.0904  3.0829  1.9473
  659MOL0     H86970   5.317   0.510   5.985 -0.7138  0.1413 -0.0587
  659MOL0     H86971   5.525   0.545   6.094 -0.1381 -0.5800  1.3745
  659MOL0     H86972   5.836   0.570   6.465  2.2346  0.7167  1.2285
  659MOL0     H86973   6.079   0.633   6.487  2.0560 -3.7893  1.0304
  659MOL0     H86974   8.107   1.137   6.530  0.1847  0.0683  1.2000
  659MOL0     H86975   8.336   1.220   6.569 -0.1280 -0.6339  0.2678
  659MOL0     H86976   8.898   1.157   6.292 -3.2563 -0.4141  0.7581
  659MOL0     H86977   9.090   1.320   6.348  2.3172 -0.3189  1.9348
  659MOL0     H86978   9.248   1.455   6.582  0.9688 -3.0698  2.4277
  659MOL0     H86979   9.115   1.444   6.698  0.8952  0.4406  0.2807
  659MOL0     H86980   9.258   1.704   6.612 -1.6024 -0.8028 -1.7563
  659MOL0     H86981   9.112   1.694   6.721 -0.3628  2.0237 -2.4025
  659MOL0     H86982   9.407   1.637   6.766  0.7266 -0.7876 -0.9134
  659MOL0     H86983   9.311   1.519   6.832  0.5597 -0.4929 -1.2708
  659MOL0     H86984   9.183   1.701   6.954  1.0112  0.8803  1.3231
  659MOL0     H86985   9.352   1.702   6.994  3.6083  0.2441 -2.7957
  659MOL0     H86986   9.325   2.082   6.807 -0.1870  1.0119  5.1010
  659MOL0     H86987   8.840   1.495   6.653  1.1615  0.3501 -0.9185
  659MOL0     H86988   8.669   1.314   6.596 -0.6513  1.9763 -2.5183
  660MOL0     O86989  10.005   4.772   8.765  0.0461  0.2068  0.1174
  660MOL0     C86990  10.005   4.892   8.788 -0.6256 -0.2989  0.0915
  660MOL0     O86991  10.118   4.971   8.801 -0.1300  0.6348  0.2045
  660MOL0     C86992  10.244   4.921   8.784  0.0232 -1.1720  0.7584
  660MOL0     C86993  10.338   4.979   8.866  0.1986 -0.5121 -0.1108
  660MOL0     C86994  10.473   4.947   8.857 -1.2854  0.0476  0.2049
  660MOL0     C86995  10.503   4.841   8.772  0.9356 -0.0919 -0.9412
  660MOL0     O86996  10.633   4.804   8.759 -0.1348  0.2282 -0.9716
  660MOL0     C86997  10.657   4.661   8.754  0.5216 -0.5384 -0.0345
  660MOL0     C86998  10.777   4.634   8.842 -0.2893  0.6277  0.4028
  660MOL0     C86999  10.875   4.750   8.845 -0.2011  0.1497 -1.4667
  660MOL0     C87000  10.984   4.704   8.935 -0.5113  0.9588 -0.4594
  660MOL0     C87001  10.934   4.733   9.077  0.5695 -0.5316 -0.1597
  660MOL0     C87002  10.956   4.880   9.130  0.1308  0.2633 -0.2937
  660MOL0     C87003  10.861   4.908   9.248 -0.3920 -0.3159 -0.1569
  660MOL0     C87004  10.879   5.040   9.317  0.1353 -0.4509 -0.7276
  660MOL0     N87005  10.823   5.149   9.227  0.2294 -0.0247  0.3586
  660MOL0     C87006  10.878   5.276   9.211 -0.1231 -0.3989 -0.5654
  660MOL0     C87007  10.775   5.359   9.170  0.0090 -0.1074  0.5669
  660MOL0     C87008  10.770   5.510   9.162  0.5137  0.3121  0.3247
  660MOL0     C87009  10.644   5.563   9.232  0.4703  0.3058  0.1136
  660MOL0     C87010  10.624   5.712   9.217 -0.7752 -0.0499  0.6337
  660MOL0     C87011  10.505   5.755   9.287  0.5079  0.6331  0.1195
  660MOL0     O87012  10.389   5.710   9.210 -0.1511 -0.0343 -0.4429
  660MOL0     C87013  10.260   5.733   9.265 -0.4247  0.2785  0.3374
  660MOL0     C87014  10.157   5.671   9.198 -0.5531 -0.2461  0.1678
  660MOL0     C87015  10.028   5.685   9.246 -0.1826 -0.1359 -0.3911
  660MOL0     C87016   9.993   5.755   9.363 -0.1621  0.4197 -0.0810
  660MOL0     C87017   9.860   5.742   9.421 -0.0276 -0.0480 -0.1739
  660MOL0     O87018   9.764   5.675   9.350  0.2780 -0.0926 -0.1375
  660MOL0     C87019   9.651   5.640   9.418 -0.3361 -0.1503  1.2905
  660MOL0     C87020   9.632   5.609   9.550  0.2397  0.0423  0.0511
  660MOL0     C87021   9.502   5.581   9.607  0.9427 -0.2931 -0.3997
  660MOL0     C87022   9.388   5.600   9.527 -0.0830 -0.7630 -0.5860
  660MOL0     O87023   9.267   5.569   9.585  0.2477  0.1921  0.0221
  660MOL0     C87024   9.148   5.625   9.523 -0.4638 -0.4250 -0.0688
  660MOL0     C87025   9.053   5.624   9.636  0.2187 -0.2684  0.1834
  660MOL0     C87026   8.910   5.644   9.589  0.9714  0.2592  0.1783
  660MOL0     C87027   8.881   5.792   9.555  0.9001  0.5574 -0.2463
  660MOL0     C87028   8.728   5.810   9.542  1.2187 -0.8040 -0.5106
  660MOL0     C87029   8.670   5.851   9.676  0.1889 -0.8626 -0.3175
  660MOL0     C87030   8.519   5.875   9.647 -0.7253 -0.1201 -0.3844
  660MOL0     C87031   8.439   5.879   9.782 -0.3123 -1.1046  0.1454
  660MOL0    Cl87032   8.267   5.905   9.733  0.2892  0.3070 -0.0574
  660MOL0     C87033   9.406   5.618   9.389 -0.9082 -0.4691 -0.3847
  660MOL0     C87034   9.538   5.642   9.332 -0.1262  0.6503  0.3800
  660MOL0     O87035   9.838   5.807   9.521 -0.2566  0.0386 -0.2571
  660MOL0     C87036  10.102   5.816   9.429 -0.3487  0.2433  0.6178
  660MOL0     C87037  10.238   5.803   9.385 -0.0724 -0.0881  0.5897
  660MOL0     N87038  10.671   5.275   9.144 -0.2812 -0.5263 -0.2636
  660MOL0     N87039  10.690   5.153   9.175 -0.0819  0.6493  0.3425
  660MOL0     C87040  10.407   4.783   8.691 -0.0120  0.4664  0.6365
  660MOL0     C87041  10.273   4.828   8.688  0.7968  0.9225  0.0530
  660MOL0     C87042   9.882   4.980   8.754  0.3530 -0.2999 -0.3069
  660MOL0     C87043   9.901   5.112   8.737  0.1222 -0.6508  0.5930
  660MOL0     C87044   9.789   5.192   8.723  0.1098  0.4418  0.5896
  660MOL0     C87045   9.659   5.135   8.714 -0.4972  0.2962  0.1313
  660MOL0     O87046   9.539   5.194   8.681  0.1048 -0.4573 -0.9314
  660MOL0     C87047   9.556   5.318   8.628  0.5519 -0.3214  0.0126
  660MOL0     C87048   9.428   5.360   8.552 -0.5966  0.5910 -0.3661
  660MOL0     C87049   9.337   5.440   8.661 -0.1225 -0.3040  0.2065
  660MOL0     C87050   9.225   5.514   8.585 -0.8810  0.3156  0.2608
  660MOL0     C87051   9.120   5.411   8.548  0.3707 -0.9652 -0.5239
  660MOL0     C87052   9.039   5.321   8.539  0.4364  0.2813 -0.1037
  660MOL0     C87053   9.650   4.994   8.702  0.3057  0.3343 -0.2192
  660MOL0     C87054   9.757   4.916   8.738  0.2890 -0.9309  0.3600
  660MOL0     H87055  10.314   5.057   8.937 -0.7475  0.9212 -1.9334
  660MOL0     H87056  10.552   4.994   8.915  0.5197 -0.4208 -1.7517
  660MOL0     H87057  10.670   4.641   8.648 -0.8637  2.0029 -0.7686
  660MOL0     H87058  10.576   4.595   8.787 -1.6222  0.9348 -2.0221
  660MOL0     H87059  10.820   4.542   8.802  4.5042  3.2804 -1.3682
  660MOL0     H87060  10.751   4.597   8.942  2.8689 -2.5603  0.2256
  660MOL0     H87061  10.833   4.846   8.876 -0.0209 -0.6162  1.4948
  660MOL0     H87062  10.916   4.754   8.744  1.0602 -1.5940 -1.0747
  660MOL0     H87063  10.998   4.595   8.927 -2.4901  0.5503  0.7546
  660MOL0     H87064  11.081   4.752   8.924 -0.0062 -0.0804 -0.6851
  660MOL0     H87065  10.991   4.667   9.143 -0.5403 -2.0138 -0.6289
  660MOL0     H87066  10.827   4.721   9.093  0.6572 -1.2770 -0.1097
  660MOL0     H87067  10.939   4.959   9.056 -0.3537 -0.1780 -0.6676
  660MOL0     H87068  11.058   4.887   9.166 -0.3099  2.6151  0.6546
  660MOL0     H87069  10.757   4.897   9.214  0.7295 -2.8659 -3.3359
  660MOL0     H87070  10.892   4.835   9.323 -1.5177 -0.1005  0.5490
  660MOL0     H87071  10.986   5.050   9.339 -0.0938 -1.4413  1.0192
  660MOL0     H87072  10.822   5.045   9.411  2.5281  2.0565  0.7533
  660MOL0     H87073  10.978   5.308   9.239 -0.6154  1.5509 -0.8523
  660MOL0     H87074  10.770   5.554   9.062 -2.1614  1.4640  0.7504
  660MOL0     H87075  10.860   5.553   9.208 -0.2815  1.4810  0.8266
  660MOL0     H87076  10.652   5.549   9.340 -1.9530  2.4324  0.6727
  660MOL0     H87077  10.554   5.513   9.195 -1.0811  2.6886  0.4418
  660MOL0     H87078  10.712   5.768   9.250  0.5607  0.7299 -3.7267
  660MOL0     H87079  10.608   5.734   9.111  1.1572 -1.0033  0.0929
  660MOL0     H87080  10.510   5.862   9.308  3.4658  0.1526  2.6326
  660MOL0     H87081  10.511   5.701   9.382 -0.4848  0.2720 -0.0144
  660MOL0     H87082  10.171   5.620   9.103  0.0707  0.3561 -0.0718
  660MOL0     H87083   9.959   5.617   9.197  2.3915 -2.3112 -1.2702
  660MOL0     H87084   9.711   5.598   9.625  1.8902  0.7970 -1.5023
  660MOL0     H87085   9.480   5.549   9.709 -1.5845 -1.4951 -1.2525
  660MOL0     H87086   9.140   5.568   9.429  1.0141 -1.7564  0.5642
  660MOL0     H87087   9.175   5.728   9.495  1.0214  0.2025  3.2678
  660MOL0     H87088   9.071   5.704   9.709 -2.5324 -2.3541  3.4343
  660MOL0     H87089   9.055   5.534   9.698  0.9992  2.2880  4.3077
  660MOL0     H87090   8.843   5.607   9.667  1.0410 -0.3619 -0.0458
  660MOL0     H87091   8.893   5.587   9.498 -0.1493  1.4685 -0.3983
  660MOL0     H87092   8.907   5.857   9.639  0.1939 -2.1336  2.2119
  660MOL0     H87093   8.931   5.822   9.462 -0.4656 -0.9958 -1.5454
  660MOL0     H87094   8.669   5.725   9.505 -2.3430  0.1335  2.4252
  660MOL0     H87095   8.714   5.895   9.475 -3.4603 -2.0764 -1.5285
  660MOL0     H87096   8.716   5.942   9.714 -1.1086 -0.1109 -0.5030
  660MOL0     H87097   8.681   5.779   9.758  2.5894 -1.6680 -1.2443
  660MOL0     H87098   8.498   5.972   9.601 -1.7496  0.7109  1.6878
  660MOL0     H87099   8.477   5.794   9.587 -1.1337 -1.6174  1.8140
  660MOL0     H87100   8.476   5.960   9.846  3.7460 -1.0360 -1.9863
  660MOL0     H87101   8.453   5.786   9.838 -1.0997  1.2181  4.7494
  660MOL0     H87102   9.322   5.621   9.320 -1.9001  2.3541  0.7817
  660MOL0     H87103   9.548   5.661   9.226  0.2124 -0.3078  0.2255
  660MOL0     H87104  10.082   5.882   9.513  1.8920  0.9457  0.6698
  660MOL0     H87105  10.316   5.856   9.439  0.0979 -0.1326  0.3866
  660MOL0     H87106  10.441   4.705   8.624 -1.1642  1.9163 -1.7332
  660MOL0     H87107  10.200   4.774   8.629  1.7957 -1.0476  0.5067
  660MOL0     H87108   9.993   5.169   8.750 -1.2405  1.8169  0.0364
  660MOL0     H87109   9.800   5.300   8.727  2.3649  0.3573 -1.0909
  660MOL0     H87110   9.635   5.308   8.553  2.0294 -0.3099  1.5121
  660MOL0     H87111   9.577   5.399   8.698 -4.0143 -1.9543  3.8222
  660MOL0     H87112   9.463   5.422   8.469  2.3214 -2.8848 -2.0180
  660MOL0     H87113   9.374   5.272   8.515  1.6028 -0.8681 -0.3199
  660MOL0     H87114   9.391   5.521   8.710  0.0089 -1.0172  1.2602
  660MOL0     H87115   9.295   5.375   8.738 -0.7716 -1.1148 -0.8096
  660MOL0     H87116   9.196   5.598   8.649  0.7901 -0.0795  1.6092
  660MOL0     H87117   9.272   5.554   8.495  0.4050 -0.2292  0.6597
  660MOL0     H87118   8.978   5.236   8.515  0.4182 -0.7783  3.2379
  660MOL0     H87119   9.561   4.941   8.669  0.3457 -0.0590  0.2936
  660MOL0     H87120   9.753   4.810   8.758  0.8702 -0.8462  0.9768
  661MOL0     O87121   7.068   5.425   4.666  0.5393 -0.0937 -0.3250
  661MOL0     C87122   7.088   5.457   4.548 -0.3771 -0.7908  0.6630
  661MOL0     O87123   7.204   5.505   4.495 -0.2497 -0.1163 -0.3840
  661MOL0     C87124   7.314   5.523   4.578  0.5491  0.6287  0.5696
  661MOL0     C87125   7.371   5.406   4.632  0.1322  0.8702  0.1014
  661MOL0     C87126   7.495   5.417   4.713 -0.3444 -0.2336  0.3924
  661MOL0     C87127   7.541   5.546   4.749 -0.0270 -0.5009  0.5801
  661MOL0     O87128   7.654   5.557   4.828 -0.1322  0.6347 -0.1857
  661MOL0     C87129   7.693   5.689   4.874  0.9566  1.3906  0.8330
  661MOL0     C87130   7.831   5.665   4.933  0.6332 -0.0260 -1.2977
  661MOL0     C87131   7.897   5.786   5.009 -0.2347  0.4718  0.7254
  661MOL0     C87132   7.817   5.847   5.129  1.0326 -0.5890 -0.0377
  661MOL0     C87133   7.898   5.917   5.239  0.0609 -0.2463 -0.2440
  661MOL0     C87134   7.991   6.037   5.203 -0.0353  0.7714  0.9175
  661MOL0     C87135   8.103   6.062   5.304 -0.1075 -0.1091  0.9759
  661MOL0     C87136   8.203   6.176   5.258  0.0352 -0.0479 -1.3154
  661MOL0     N87137   8.151   6.306   5.277 -0.2410 -0.0377  0.4094
  661MOL0     C87138   8.083   6.346   5.390 -0.6154  0.0453  0.2661
  661MOL0     C87139   8.010   6.456   5.356 -0.3538 -0.1065 -0.3913
  661MOL0     C87140   7.909   6.513   5.451  0.1863  0.3596  0.0943
  661MOL0     C87141   7.837   6.412   5.542 -0.3353 -0.4474  0.5482
  661MOL0     C87142   7.747   6.317   5.466  0.5038 -0.2030  0.0690
  661MOL0     C87143   7.736   6.190   5.538 -0.4153  0.5388 -0.5786
  661MOL0     O87144   7.634   6.096   5.497  0.1967  0.3391  0.3714
  661MOL0     C87145   7.497   6.121   5.510  0.2220 -0.0066 -0.5683
  661MOL0     C87146   7.440   6.242   5.560  0.0583  0.1468  0.3484
  661MOL0     C87147   7.295   6.252   5.565 -0.1107 -0.3114 -0.2947
  661MOL0     C87148   7.212   6.149   5.517 -0.4541 -0.1485 -0.4016
  661MOL0     C87149   7.069   6.155   5.539  0.5345 -0.2594 -0.0300
  661MOL0     O87150   6.993   6.046   5.480  0.3138  0.0731 -0.4069
  661MOL0     C87151   6.858   6.077   5.473 -1.2045  0.0664 -0.3060
  661MOL0     C87152   6.814   6.177   5.381 -0.2944  0.1166 -0.7686
  661MOL0     C87153   6.674   6.200   5.360  0.4986 -0.5715 -0.5505
  661MOL0     C87154   6.577   6.133   5.438  0.7801 -1.0033 -0.8876
  661MOL0     O87155   6.436   6.142   5.417  0.3304  0.0254 -1.0297
  661MOL0     C87156   6.401   6.259   5.342 -0.2321  0.0198  0.0500
  661MOL0     C87157   6.254   6.303   5.369 -0.4409 -0.3388 -0.2550
  661MOL0     C87158   6.207   6.376   5.246  0.7404  0.8395  0.0820
  661MOL0     C87159   6.056   6.399   5.254  0.2846 -0.8667 -0.2114
  661MOL0     C87160   6.003   6.530   5.199 -0.1854  0.2979 -0.0128
  661MOL0     C87161   5.852   6.514   5.206 -0.2288 -0.3847  0.5711
  661MOL0     C87162   5.772   6.617   5.129 -0.1269  0.8578 -0.2139
  661MOL0     C87163   5.680   6.701   5.219 -0.1876 -0.1688  0.3303
  661MOL0    Cl87164   5.556   6.605   5.291 -0.1604  0.0637 -0.0639
  661MOL0     C87165   6.619   6.036   5.529 -0.7855  0.3632 -0.8587
  661MOL0     C87166   6.761   6.004   5.548 -0.0240  0.0807  0.2839
  661MOL0     O87167   7.018   6.257   5.598 -0.7272  0.4013 -0.4335
  661MOL0     C87168   7.271   6.031   5.467  0.4181  0.3241  0.4253
  661MOL0     C87169   7.418   6.025   5.452  0.4748  0.2865 -0.4057
  661MOL0     N87170   8.028   6.480   5.226 -0.8647 -0.2021  0.0662
  661MOL0     N87171   8.111   6.392   5.173 -0.2646  0.2185  0.1025
  661MOL0     C87172   7.471   5.659   4.690 -0.0618  0.1638  0.1915
  661MOL0     C87173   7.356   5.647   4.611  0.4693  0.3006 -0.5019
  661MOL0     C87174   6.966   5.461   4.464 -0.5263  0.6116  1.4948
  661MOL0     C87175   6.968   5.509   4.329 -0.5105 -0.1812  0.0944
  661MOL0     C87176   6.848   5.493   4.249 -0.6379  0.1543  1.4556
  661MOL0     C87177   6.740   5.414   4.298  0.6175 -0.9011  0.7309
  661MOL0     O87178   6.628   5.382   4.222 -0.1323 -0.2881  0.2482
  661MOL0     C87179   6.606   5.431   4.084 -0.7319  0.5612 -0.3134
  661MOL0     C87180   6.456   5.418   4.070 -0.1047 -0.8081 -1.7933
  661MOL0     C87181   6.394   5.516   3.976 -0.2454 -0.6083  0.0830
  661MOL0     C87182   6.428   5.508   3.818  0.7102 -0.1037 -0.2703
  661MOL0     C87183   6.348   5.604   3.745 -0.4490 -0.9938  0.1394
  661MOL0     C87184   6.268   5.681   3.698  0.1283 -0.4340 -1.3083
  661MOL0     C87185   6.746   5.367   4.432 -0.2826  0.8052  0.6455
  661MOL0     C87186   6.854   5.396   4.507 -0.2641 -0.8592  0.0757
  661MOL0     H87187   7.325   5.309   4.619  1.9473 -0.0593  0.2695
  661MOL0     H87188   7.552   5.330   4.746 -0.2251 -0.9383 -1.5625
  661MOL0     H87189   7.619   5.720   4.949  0.1263  0.6049  0.3505
  661MOL0     H87190   7.689   5.763   4.794 -1.4334  0.8492  0.3857
  661MOL0     H87191   7.899   5.627   4.856  1.8808  1.4187 -0.9604
  661MOL0     H87192   7.808   5.589   5.008 -1.3874  0.9209 -0.8950
  661MOL0     H87193   7.904   5.858   4.926 -0.7224  0.9574  1.0972
  661MOL0     H87194   7.997   5.755   5.039 -0.6145 -0.5716  0.9528
  661MOL0     H87195   7.720   5.890   5.098 -1.3307 -3.2978  2.9282
  661MOL0     H87196   7.784   5.753   5.174  1.0395 -1.0512 -0.9719
  661MOL0     H87197   7.961   5.837   5.277  0.6460 -0.4232 -1.5497
  661MOL0     H87198   7.823   5.946   5.314 -2.5867 -1.4905 -2.2479
  661MOL0     H87199   7.935   6.129   5.184 -1.2141 -0.0554  0.3289
  661MOL0     H87200   8.045   6.013   5.111  1.8104  0.9314  1.8870
  661MOL0     H87201   8.051   6.083   5.397 -1.4664 -0.7859  0.3868
  661MOL0     H87202   8.157   5.970   5.328  1.5091  0.7180  0.6946
  661MOL0     H87203   8.218   6.165   5.150  3.4053  1.8063 -1.1607
  661MOL0     H87204   8.301   6.165   5.305  0.0098  1.2394 -0.9323
  661MOL0     H87205   8.104   6.309   5.489  2.7704  0.2331 -0.2529
  661MOL0     H87206   7.833   6.567   5.394 -0.0320  2.8596  2.5395
  661MOL0     H87207   7.959   6.591   5.509  3.6926 -1.1555 -0.6578
  661MOL0     H87208   7.767   6.466   5.606  0.3553  1.2584 -0.0966
  661MOL0     H87209   7.913   6.363   5.604  0.7853  0.8815  0.2609
  661MOL0     H87210   7.651   6.365   5.444  0.9196  0.0098 -1.4295
  661MOL0     H87211   7.798   6.301   5.370 -1.0085 -0.3254 -0.7475
  661MOL0     H87212   7.714   6.208   5.643 -1.3707  0.4098 -0.7457
  661MOL0     H87213   7.830   6.137   5.524 -1.6187 -1.3694 -1.9043
  661MOL0     H87214   7.506   6.318   5.599  2.3213 -1.2951 -0.4834
  661MOL0     H87215   7.259   6.338   5.620 -0.7528 -2.4159  2.8045
  661MOL0     H87216   6.876   6.246   5.326  1.0971  0.5302  1.2507
  661MOL0     H87217   6.653   6.281   5.291  0.8346 -1.9559 -2.3479
  661MOL0     H87218   6.414   6.252   5.233 -2.2764 -2.2557 -0.1317
  661MOL0     H87219   6.466   6.340   5.375 -0.2192 -0.2934  0.7978
  661MOL0     H87220   6.263   6.363   5.460  1.3619 -1.8730  0.6480
  661MOL0     H87221   6.194   6.215   5.393 -2.9294  1.1947 -0.4551
  661MOL0     H87222   6.221   6.311   5.159 -0.1795  0.2087  0.3875
  661MOL0     H87223   6.253   6.475   5.235  1.8766  0.3605  0.4740
  661MOL0     H87224   6.006   6.314   5.207  0.3546 -0.2414 -1.4692
  661MOL0     H87225   6.038   6.397   5.362  3.2206  1.2591  0.4478
  661MOL0     H87226   6.032   6.540   5.094  0.4542 -1.4842 -0.0505
  661MOL0     H87227   6.052   6.607   5.259  2.4923 -2.4369  1.6231
  661MOL0     H87228   5.829   6.521   5.312  1.5768  1.0029  0.9231
  661MOL0     H87229   5.816   6.421   5.161 -0.2210  0.1628 -0.6290
  661MOL0     H87230   5.840   6.676   5.068  1.3095 -1.4486 -0.9994
  661MOL0     H87231   5.711   6.566   5.054 -0.6263 -0.9446  1.3344
  661MOL0     H87232   5.624   6.774   5.159 -2.3850 -1.1808  1.0569
  661MOL0     H87233   5.722   6.752   5.306 -2.4224 -0.1823  1.5076
  661MOL0     H87234   6.547   5.993   5.597 -1.0340  0.3570 -1.1248
  661MOL0     H87235   6.786   5.926   5.619 -0.5874 -3.2811 -2.9225
  661MOL0     H87236   7.221   5.945   5.423  0.5213 -0.1413  1.1874
  661MOL0     H87237   7.463   5.941   5.401 -2.6149 -2.3653  0.8445
  661MOL0     H87238   7.505   5.759   4.711  0.3608  0.0648 -0.0038
  661MOL0     H87239   7.304   5.736   4.577 -1.1242 -1.1854 -2.1369
  661MOL0     H87240   7.063   5.537   4.285 -1.2346  1.8520 -0.2643
  661MOL0     H87241   6.864   5.536   4.150  2.0727 -1.6801  0.9942
  661MOL0     H87242   6.649   5.364   4.008 -2.8004 -0.6963 -0.4466
  661MOL0     H87243   6.631   5.536   4.067 -0.2660  0.6871  1.0928
  661MOL0     H87244   6.436   5.311   4.057  2.9015 -1.9336  1.2776
  661MOL0     H87245   6.401   5.441   4.161  0.8274  4.3939 -2.2031
  661MOL0     H87246   6.435   5.611   4.011  0.3484 -0.9642  0.3790
  661MOL0     H87247   6.285   5.526   3.981 -0.2533  1.7141 -2.3643
  661MOL0     H87248   6.532   5.524   3.787  0.5898  2.8019  0.5298
  661MOL0     H87249   6.399   5.411   3.775 -0.4446 -0.4637  1.2195
  661MOL0     H87250   6.196   5.751   3.662 -0.9271  0.2812  1.8557
  661MOL0     H87251   6.663   5.312   4.476  1.2526 -4.8095 -2.4709
  661MOL0     H87252   6.852   5.361   4.610  2.1330 -1.3736 -0.0013
  662MOL0     O87253   7.306   4.194   9.433  0.4804 -0.1987  0.2881
  662MOL0     C87254   7.276   4.312   9.451  0.0018 -0.3010 -0.7089
  662MOL0     O87255   7.170   4.356   9.523  0.7098  0.1419  0.2915
  662MOL0     C87256   7.091   4.268   9.580  0.2741 -0.0848  0.7330
  662MOL0     C87257   7.140   4.170   9.666  0.2709 -0.4228  0.2076
  662MOL0     C87258   7.059   4.093   9.745  0.4855  0.9555 -0.0625
  662MOL0     C87259   6.921   4.103   9.745  0.1271 -0.0102 -0.0480
  662MOL0     O87260   6.831   4.020   9.816 -0.0075 -0.5021  0.0007
  662MOL0     C87261   6.856   3.880   9.792 -0.3460 -0.3764  0.0080
  662MOL0     C87262   6.739   3.804   9.856  0.1929  1.0067 -0.1284
  662MOL0     C87263   6.608   3.823   9.783 -0.0296  0.6535  0.5431
  662MOL0     C87264   6.499   3.720   9.831  0.1910 -0.2235  0.1206
  662MOL0     C87265   6.366   3.720   9.747 -0.8497 -1.0150 -0.2529
  662MOL0     C87266   6.320   3.860   9.695 -1.0809  0.7142 -0.1724
  662MOL0     C87267   6.174   3.849   9.654  0.0409  0.2889  0.7344
  662MOL0     C87268   6.137   3.975   9.569 -0.3520 -0.1187  0.0339
  662MOL0     N87269   5.988   3.966   9.535  0.6183  0.3650  0.3777
  662MOL0     C87270   5.885   3.946   9.623 -0.1277 -0.1552 -0.3676
  662MOL0     C87271   5.771   3.936   9.550 -1.0625  0.7827 -0.6999
  662MOL0     C87272   5.636   3.900   9.606 -0.4229  0.8342 -0.3430
  662MOL0     C87273   5.615   3.753   9.594 -0.2215 -0.1696  0.6033
  662MOL0     C87274   5.725   3.672   9.655 -1.2768  0.8177 -0.3803
  662MOL0     C87275   5.698   3.521   9.665  0.1881 -1.2481 -0.3716
  662MOL0     O87276   5.762   3.469   9.779  0.2736 -0.4202 -0.1301
  662MOL0     C87277   5.897   3.435   9.782  1.0270 -0.5912  0.2791
  662MOL0     C87278   5.942   3.385   9.912 -0.1092  0.3530 -0.0181
  662MOL0     C87279   6.067   3.344   9.940  0.1012 -0.7570  0.6040
  662MOL0     C87280   6.160   3.356   9.831 -0.7924 -0.3417  0.1492
  662MOL0     C87281   6.301   3.309   9.853 -0.0225  0.1361  0.1735
  662MOL0     O87282   6.392   3.367   9.758  0.5985  0.1499 -0.5832
  662MOL0     C87283   6.527   3.351   9.757  0.0664  0.5768  0.2682
  662MOL0     C87284   6.604   3.434   9.669 -0.0756 -0.6256  0.6258
  662MOL0     C87285   6.742   3.438   9.675  1.2075  0.0677  0.5084
  662MOL0     C87286   6.812   3.354   9.763  0.3756  0.3486  0.2375
  662MOL0     O87287   6.947   3.355   9.770  0.6317  0.3955  0.0615
  662MOL0     C87288   7.012   3.475   9.732 -0.0243  0.0179  0.4893
  662MOL0     C87289   7.122   3.510   9.832  0.2071  0.1541  0.4940
  662MOL0     C87290   7.238   3.591   9.771 -0.0456 -0.6765 -0.1768
  662MOL0     C87291   7.333   3.635   9.879 -0.4411 -0.4487 -0.3423
  662MOL0     C87292   7.485   3.642   9.828 -0.7522 -0.4412  0.1464
  662MOL0     C87293   7.503   3.725   9.701 -0.1191 -0.4127  0.7503
  662MOL0     C87294   7.659   3.748   9.684 -0.2560  0.1652 -0.4989
  662MOL0     C87295   7.676   3.825   9.547  0.4699 -0.5694  0.2190
  662MOL0    Cl87296   7.549   3.961   9.526 -0.1387 -0.1654 -0.1113
  662MOL0     C87297   6.742   3.264   9.845 -0.2666  0.4856 -0.1701
  662MOL0     C87298   6.602   3.273   9.845 -0.7210 -0.1649 -0.8069
  662MOL0     O87299   6.324   3.242   9.953  1.0413 -0.5941  0.3055
  662MOL0     C87300   6.115   3.401   9.704 -0.8807 -0.7210 -0.7853
  662MOL0     C87301   5.988   3.452   9.679  0.1029 -0.0640  0.5026
  662MOL0     N87302   5.813   3.947   9.418  0.4363 -0.6689  0.2458
  662MOL0     N87303   5.941   3.967   9.408  0.2232  0.5034 -0.2870
  662MOL0     C87304   6.867   4.195   9.653  1.1992 -0.1301 -0.2535
  662MOL0     C87305   6.949   4.273   9.573  0.4003  0.9848  0.7474
  662MOL0     C87306   7.352   4.420   9.389  0.6486  0.4450  0.1399
  662MOL0     C87307   7.314   4.558   9.386 -0.5226  0.7406  0.2386
  662MOL0     C87308   7.401   4.660   9.345 -0.0410 -0.0434  0.1289
  662MOL0     C87309   7.529   4.622   9.298  0.6794 -0.5185 -0.8616
  662MOL0     O87310   7.618   4.713   9.255  0.4909 -0.3003  0.1731
  662MOL0     C87311   7.711   4.755   9.358  1.0521 -0.3635  0.5870
  662MOL0     C87312   7.790   4.875   9.318 -0.0690  0.2954  0.2136
  662MOL0     C87313   7.708   4.997   9.355  0.2315 -0.9200  0.2121
  662MOL0     C87314   7.701   5.022   9.508  0.5553  0.0192 -0.6034
  662MOL0     C87315   7.578   5.094   9.551 -0.1394 -1.0817  0.1145
  662MOL0     C87316   7.482   5.170   9.570  0.1422 -0.1372  0.3163
  662MOL0     C87317   7.562   4.482   9.282  0.4592  0.0379 -1.0764
  662MOL0     C87318   7.477   4.382   9.331  0.2278  0.1520 -0.0749
  662MOL0     H87319   7.249   4.168   9.660  0.3527  2.7810 -1.3749
  662MOL0     H87320   7.110   4.019   9.806  1.1579 -0.5370 -2.3007
  662MOL0     H87321   6.952   3.870   9.843 -0.6299  0.9704  0.8756
  662MOL0     H87322   6.852   3.852   9.686 -3.5686 -1.9060  0.3913
  662MOL0     H87323   6.720   3.821   9.963  0.0346 -2.1507  0.4511
  662MOL0     H87324   6.766   3.698   9.849 -0.3370  0.8133  0.5650
  662MOL0     H87325   6.629   3.807   9.677  1.8014 -1.3771  1.1314
  662MOL0     H87326   6.573   3.923   9.811 -1.2587 -0.4898  3.6129
  662MOL0     H87327   6.541   3.621   9.812  1.6404  0.2683  0.6480
  662MOL0     H87328   6.463   3.731   9.933 -0.8436 -1.1900 -0.1209
  662MOL0     H87329   6.296   3.670   9.815 -0.2195  0.6579  1.7240
  662MOL0     H87330   6.376   3.649   9.664 -4.0413 -1.6653 -0.1823
  662MOL0     H87331   6.374   3.887   9.604 -1.7877 -4.4212 -2.4575
  662MOL0     H87332   6.347   3.931   9.774  6.1352 -0.3128 -1.0114
  662MOL0     H87333   6.159   3.761   9.590 -4.0023  1.4973 -0.3164
  662MOL0     H87334   6.122   3.848   9.751  0.4343  1.5493  0.9716
  662MOL0     H87335   6.200   3.979   9.480  1.8880  1.4593  1.5751
  662MOL0     H87336   6.156   4.067   9.625 -1.2944  1.6432 -2.4243
  662MOL0     H87337   5.899   3.936   9.730  1.5366  3.6103 -0.0679
  662MOL0     H87338   5.550   3.946   9.555  0.2505  0.9678 -1.3889
  662MOL0     H87339   5.634   3.923   9.713  1.4306  1.9938 -0.5141
  662MOL0     H87340   5.627   3.735   9.487  4.6542 -0.0694  0.8690
  662MOL0     H87341   5.517   3.724   9.631 -1.0613 -0.4527 -1.7381
  662MOL0     H87342   5.821   3.698   9.611  1.7841 -2.7586  3.3281
  662MOL0     H87343   5.735   3.711   9.756  3.0503  4.8182 -2.0115
  662MOL0     H87344   5.723   3.473   9.570 -1.1497  2.6460 -2.9374
  662MOL0     H87345   5.593   3.509   9.690 -0.2912 -0.8140 -2.0350
  662MOL0     H87346   5.867   3.375   9.990  2.7668  3.1741  3.4671
  662MOL0     H87347   6.092   3.305  10.038  3.1532  1.7814  1.0173
  662MOL0     H87348   6.557   3.515   9.615  1.6862  1.5740  2.2359
  662MOL0     H87349   6.798   3.515   9.623 -1.4633  3.2314  2.0136
  662MOL0     H87350   6.956   3.569   9.728  3.5309  2.2997 -0.1766
  662MOL0     H87351   7.053   3.449   9.634 -1.3829 -1.3934  0.2559
  662MOL0     H87352   7.165   3.423   9.881 -0.9514  0.2027  1.6765
  662MOL0     H87353   7.075   3.566   9.914 -1.7123  0.2708 -0.6074
  662MOL0     H87354   7.202   3.682   9.721  0.7845  0.0160  0.4418
  662MOL0     H87355   7.293   3.550   9.685  3.9670  2.6180  0.4612
  662MOL0     H87356   7.313   3.736   9.915  0.0995 -0.4822  0.0652
  662MOL0     H87357   7.331   3.560   9.959  1.8140  0.2326  0.4362
  662MOL0     H87358   7.526   3.543   9.806  2.0681  0.8629 -0.9714
  662MOL0     H87359   7.540   3.684   9.912  0.9457  0.3144 -1.2729
  662MOL0     H87360   7.446   3.815   9.722 -1.6322 -1.2889  0.5487
  662MOL0     H87361   7.462   3.676   9.612  0.4074 -2.3529  1.5182
  662MOL0     H87362   7.702   3.805   9.767  1.1261 -2.0683  0.3913
  662MOL0     H87363   7.704   3.649   9.688 -2.0108 -0.7228 -1.5636
  662MOL0     H87364   7.672   3.758   9.461  0.6971 -2.7990  1.8457
  662MOL0     H87365   7.781   3.858   9.548  0.5852 -0.9303  0.1504
  662MOL0     H87366   6.802   3.207   9.915 -0.6060  0.4303  0.0790
  662MOL0     H87367   6.555   3.226   9.930 -1.0904  1.3351 -0.1574
  662MOL0     H87368   6.192   3.408   9.628  0.3489  0.1912  0.4887
  662MOL0     H87369   5.952   3.478   9.580 -2.2002 -1.4952  0.8858
  662MOL0     H87370   6.759   4.205   9.660  1.2841  1.1201 -0.3555
  662MOL0     H87371   6.899   4.343   9.507 -1.2070 -2.0254 -1.4708
  662MOL0     H87372   7.216   4.594   9.414 -1.4374 -0.4542 -1.2614
  662MOL0     H87373   7.368   4.763   9.353 -0.5387 -0.1227 -0.7937
  662MOL0     H87374   7.775   4.668   9.370  3.0965  0.8699 -0.5951
  662MOL0     H87375   7.652   4.773   9.448 -3.0103 -1.2505 -1.6243
  662MOL0     H87376   7.886   4.869   9.369  0.3005 -0.5437 -0.5490
  662MOL0     H87377   7.797   4.870   9.209  1.8952  0.7058  0.2850
  662MOL0     H87378   7.610   4.984   9.309  0.9421 -1.3729 -1.2093
  662MOL0     H87379   7.761   5.087   9.321 -1.2882 -0.2846 -0.5413
  662MOL0     H87380   7.691   4.925   9.559  3.9665  0.4936  1.2371
  662MOL0     H87381   7.792   5.068   9.546 -0.8707  1.2210  1.6234
  662MOL0     H87382   7.410   5.246   9.593  2.4058  1.9343  0.9675
  662MOL0     H87383   7.657   4.465   9.232  0.1884 -1.5600 -1.1228
  662MOL0     H87384   7.503   4.277   9.327  0.6955  0.1216  2.4088
  663MOL0     O87385  10.983   4.566   3.890  0.2483  0.1595 -0.0958
  663MOL0     C87386  11.030   4.675   3.894  1.5225 -0.9073 -0.4952
  663MOL0     O87387  10.961   4.798   3.862  0.4232 -0.3008  0.4959
  663MOL0     C87388  10.823   4.791   3.856  0.5432 -0.3459  0.2692
  663MOL0     C87389  10.738   4.790   3.972 -0.9747 -0.2770  0.0746
  663MOL0     C87390  10.607   4.775   3.964 -0.6744 -0.2050  0.0634
  663MOL0     C87391  10.541   4.779   3.841 -0.5646  0.7322  0.1985
  663MOL0     O87392  10.407   4.766   3.826  0.0116 -0.7044  0.4013
  663MOL0     C87393  10.340   4.886   3.775 -0.2137  0.8461 -1.4575
  663MOL0     C87394  10.319   4.886   3.630 -0.0019  0.4264  1.3336
  663MOL0     C87395  10.276   4.749   3.559 -0.6396 -0.4256  0.0729
  663MOL0     C87396  10.326   4.728   3.415 -0.6815  0.2174  0.2028
  663MOL0     C87397  10.229   4.626   3.348 -1.1369 -0.8013  0.1380
  663MOL0     C87398  10.243   4.478   3.391  0.3655  0.2088  1.2528
  663MOL0     C87399  10.194   4.439   3.527  0.8220  0.4434 -0.0248
  663MOL0     C87400  10.155   4.291   3.525  0.5411 -0.5229  0.8190
  663MOL0     N87401  10.252   4.190   3.547 -0.0079 -0.1260 -0.6026
  663MOL0     C87402  10.355   4.142   3.469 -0.4698  0.0669 -0.2574
  663MOL0     C87403  10.444   4.074   3.555  0.3364 -0.1589 -0.8237
  663MOL0     C87404  10.565   3.999   3.532  0.1360 -0.4036  0.6972
  663MOL0     C87405  10.686   4.082   3.573 -0.1859 -0.4021  0.1973
  663MOL0     C87406  10.809   3.990   3.568 -0.0695 -0.8359 -0.3790
  663MOL0     C87407  10.947   4.061   3.557 -0.1378 -0.5488  0.4819
  663MOL0     O87408  10.964   4.120   3.687 -0.8657  0.0302  0.7014
  663MOL0     C87409  11.094   4.143   3.720  0.3249 -0.9512  0.5172
  663MOL0     C87410  11.135   4.151   3.855 -0.0841 -0.1179  0.5501
  663MOL0     C87411  11.272   4.170   3.892 -0.4906  0.4020 -1.2705
  663MOL0     C87412  11.364   4.196   3.800  0.0608  0.9892  0.8558
  663MOL0     C87413  11.507   4.218   3.830 -0.2199  0.4304 -1.2062
  663MOL0     O87414  11.542   4.225   3.965 -0.1643  0.1796 -0.3874
  663MOL0     C87415  11.655   4.267   4.013 -0.6927 -0.3990 -0.0885
  663MOL0     C87416  11.719   4.376   3.945 -0.0267 -0.1741 -0.7122
  663MOL0     C87417  11.837   4.430   4.003  0.2993 -0.0845 -0.3343
  663MOL0     C87418  11.895   4.382   4.116  0.2562  0.3814  0.8369
  663MOL0     O87419  11.999   4.452   4.148  0.3886 -0.4322  0.3274
  663MOL0     C87420  12.099   4.377   4.225  0.2715  0.2732  0.1916
  663MOL0     C87421  12.219   4.466   4.219  0.4796  0.2193  0.0821
  663MOL0     C87422  12.266   4.500   4.076 -0.1329 -0.5507 -0.0644
  663MOL0     C87423  12.401   4.555   4.083 -0.0718  0.0940 -0.1674
  663MOL0     C87424  12.449   4.585   3.943  0.5220  0.3200  0.0758
  663MOL0     C87425  12.589   4.639   3.939  0.0872  0.7468 -0.0692
  663MOL0     C87426  12.683   4.531   3.994  0.0502  0.8367  0.7352
  663MOL0     C87427  12.833   4.562   3.970 -0.6018  0.0561 -0.3091
  663MOL0    Cl87428  12.912   4.469   4.101  0.4534  0.3073  0.1938
  663MOL0     C87429  11.835   4.278   4.189  0.3077 -0.1848 -0.5385
  663MOL0     C87430  11.712   4.224   4.144  0.6486 -0.0702  0.8747
  663MOL0     O87431  11.587   4.226   3.735  1.2856  0.7078 -0.0203
  663MOL0     C87432  11.330   4.191   3.665  0.4469 -0.5228 -0.2685
  663MOL0     C87433  11.199   4.171   3.623 -0.4901  0.1915  0.4015
  663MOL0     N87434  10.380   4.080   3.678  0.3910  0.1478 -0.5417
  663MOL0     N87435  10.270   4.146   3.673 -0.7217  0.4640  0.0893
  663MOL0     C87436  10.619   4.777   3.727  0.6510  1.0941  0.9133
  663MOL0     C87437  10.756   4.784   3.731 -0.6455 -0.6390  0.0704
  663MOL0     C87438  11.170   4.684   3.942 -0.4915  0.9243 -0.1253
  663MOL0     C87439  11.243   4.806   3.941  1.0306 -0.8755 -1.0838
  663MOL0     C87440  11.379   4.806   3.966  0.0177 -0.4045  0.2826
  663MOL0     C87441  11.447   4.692   3.992  0.3099 -0.7581  0.3914
  663MOL0     O87442  11.581   4.684   4.015  0.4955 -0.1258  0.0754
  663MOL0     C87443  11.689   4.765   3.958  0.6598 -0.8459  0.4607
  663MOL0     C87444  11.809   4.774   4.050  0.0728  0.7744  0.2742
  663MOL0     C87445  11.949   4.779   3.987  0.4599 -0.4304 -0.1143
  663MOL0     C87446  12.056   4.790   4.085 -0.0506  0.2608 -0.0299
  663MOL0     C87447  12.055   4.920   4.154  0.0396  1.6058 -0.6992
  663MOL0     C87448  12.054   5.035   4.204 -0.3574 -0.6203 -0.0407
  663MOL0     C87449  11.375   4.574   4.004 -0.3174  0.1095  0.4300
  663MOL0     C87450  11.239   4.560   3.972 -0.0535 -0.6275  0.3566
  663MOL0     H87451  10.781   4.794   4.072 -0.1535 -0.7896 -0.2489
  663MOL0     H87452  10.542   4.774   4.051 -0.5107 -1.4530  0.1911
  663MOL0     H87453  10.392   4.978   3.801  0.6499 -0.0706  0.1870
  663MOL0     H87454  10.240   4.888   3.819 -0.0412  1.7192 -1.1018
  663MOL0     H87455  10.408   4.925   3.578 -1.5949  2.1113 -0.2616
  663MOL0     H87456  10.241   4.961   3.617 -1.1095 -0.6526  1.5263
  663MOL0     H87457  10.167   4.752   3.571 -0.9553 -1.6402 -1.8236
  663MOL0     H87458  10.319   4.669   3.620 -1.5996 -1.7434 -0.9108
  663MOL0     H87459  10.324   4.823   3.362 -0.0878  0.4374  0.5754
  663MOL0     H87460  10.428   4.689   3.410 -0.7173 -0.3081  2.6250
  663MOL0     H87461  10.255   4.650   3.245  1.6338 -1.4087  0.6209
  663MOL0     H87462  10.126   4.656   3.372 -0.6593  1.5487 -0.5293
  663MOL0     H87463  10.346   4.445   3.376  0.0617  0.8788 -4.2739
  663MOL0     H87464  10.185   4.421   3.318  0.3040 -0.5662  1.8952
  663MOL0     H87465  10.274   4.460   3.599  2.0254  0.3154 -1.2959
  663MOL0     H87466  10.110   4.500   3.563  0.6821 -0.7267  1.7830
  663MOL0     H87467  10.086   4.267   3.444 -1.5536 -1.4217  2.7656
  663MOL0     H87468  10.088   4.286   3.611  0.0914  3.3234  0.8828
  663MOL0     H87469  10.358   4.159   3.362 -0.0496 -1.5409 -0.5182
  663MOL0     H87470  10.565   3.957   3.431 -0.1397  2.7663 -0.7267
  663MOL0     H87471  10.553   3.913   3.599  0.1375  0.1713  1.4455
  663MOL0     H87472  10.671   4.111   3.677  2.1410 -2.6274  1.2496
  663MOL0     H87473  10.699   4.170   3.509 -0.5163 -1.3734 -1.2526
  663MOL0     H87474  10.810   3.928   3.658  0.7917 -2.0001 -1.1578
  663MOL0     H87475  10.786   3.921   3.486  0.2163 -1.7602  0.2991
  663MOL0     H87476  10.952   4.149   3.493  2.6713 -2.1788 -1.7647
  663MOL0     H87477  11.027   3.991   3.529  1.5888  1.3924  0.3450
  663MOL0     H87478  11.060   4.149   3.933 -0.0059 -1.1528  0.6014
  663MOL0     H87479  11.311   4.171   3.994 -0.7721 -1.1375 -1.1211
  663MOL0     H87480  11.684   4.410   3.848 -3.1184  1.2605  0.7645
  663MOL0     H87481  11.879   4.517   3.955 -3.0996  2.2573  0.5683
  663MOL0     H87482  12.123   4.280   4.181 -3.2328 -0.5823 -0.1514
  663MOL0     H87483  12.071   4.370   4.331  0.4111  1.1106  0.2923
  663MOL0     H87484  12.299   4.413   4.272  0.2114 -2.4616 -1.9651
  663MOL0     H87485  12.199   4.557   4.277  2.8422  0.0239  1.3111
  663MOL0     H87486  12.196   4.569   4.028 -0.5161  0.1034  1.4109
  663MOL0     H87487  12.270   4.405   4.021 -1.0164 -1.3140  1.1392
  663MOL0     H87488  12.391   4.647   4.141 -0.8297 -1.0140  1.5714
  663MOL0     H87489  12.466   4.481   4.132 -0.2110  1.0821  1.6265
  663MOL0     H87490  12.377   4.654   3.897  2.0618  1.5894 -0.5081
  663MOL0     H87491  12.443   4.495   3.881  0.5909  0.7987 -0.6476
  663MOL0     H87492  12.592   4.728   4.003  2.2329  2.2877 -2.1297
  663MOL0     H87493  12.614   4.666   3.836 -2.8532 -0.5055 -1.2359
  663MOL0     H87494  12.667   4.528   4.102 -1.1100 -2.4054  0.5791
  663MOL0     H87495  12.654   4.432   3.957 -0.0962  0.7684  1.0304
  663MOL0     H87496  12.865   4.665   3.984 -3.7411  0.7998  2.6654
  663MOL0     H87497  12.870   4.530   3.872 -1.1415 -1.4290 -0.0554
  663MOL0     H87498  11.862   4.245   4.289 -1.6908  0.4471  0.2547
  663MOL0     H87499  11.643   4.162   4.199  0.0073 -0.4305 -0.3098
  663MOL0     H87500  11.406   4.208   3.589  0.3767 -1.0286 -0.4569
  663MOL0     H87501  11.182   4.165   3.516  0.2715 -2.2840  0.3483
  663MOL0     H87502  10.579   4.764   3.626  2.1698  0.1929  0.4024
  663MOL0     H87503  10.820   4.791   3.644 -2.0466  0.5054 -0.9110
  663MOL0     H87504  11.181   4.890   3.910  0.6310 -0.9311 -0.4619
  663MOL0     H87505  11.430   4.900   3.946  0.8331 -1.3045 -2.3156
  663MOL0     H87506  11.656   4.867   3.934  0.9495 -0.5120  1.4407
  663MOL0     H87507  11.713   4.724   3.859 -1.6105  0.5474 -0.7661
  663MOL0     H87508  11.786   4.865   4.106 -0.4797  0.8737 -0.0923
  663MOL0     H87509  11.807   4.690   4.120 -0.9136  0.6396  0.1036
  663MOL0     H87510  11.947   4.875   3.935  0.0605 -0.2668  0.1914
  663MOL0     H87511  11.968   4.694   3.922  0.1440 -0.2957 -0.3856
  663MOL0     H87512  12.039   4.709   4.156  1.5257  1.5505  1.9478
  663MOL0     H87513  12.150   4.772   4.031 -0.4513 -2.2755  0.0007
  663MOL0     H87514  12.034   5.134   4.239 -1.0763 -1.0820  0.9356
  663MOL0     H87515  11.426   4.482   4.030 -1.0374 -0.6870 -0.8549
  663MOL0     H87516  11.204   4.457   3.979  1.5938 -1.1203  2.7102
  664MOL0     O87517   4.794   8.088  10.979 -0.1792 -0.1001 -0.5987
  664MOL0     C87518   4.693   8.091  11.047 -0.2294 -0.7344 -0.5722
  664MOL0     O87519   4.694   8.093  11.183 -0.2326  0.6191 -0.7508
  664MOL0     C87520   4.816   8.065  11.253 -0.4481 -0.7777 -0.4672
  664MOL0     C87521   4.813   8.129  11.376  0.3895 -0.2670  0.0608
  664MOL0     C87522   4.916   8.126  11.464  1.4935 -0.5907 -0.3505
  664MOL0     C87523   5.024   8.049  11.439  0.1264  1.0204  0.5957
  664MOL0     O87524   5.129   8.026  11.525 -0.3111 -0.9803  0.2622
  664MOL0     C87525   5.244   8.097  11.488 -0.1962  0.3725  0.5320
  664MOL0     C87526   5.358   8.079  11.589 -0.5762 -0.3430  1.0265
  664MOL0     C87527   5.445   8.204  11.596 -0.9299 -0.3022 -0.1990
  664MOL0     C87528   5.582   8.192  11.669 -0.1893  0.3531  0.5155
  664MOL0     C87529   5.662   8.320  11.698 -0.0450 -0.0562  0.7185
  664MOL0     C87530   5.677   8.413  11.580  0.7489  1.7124 -0.9742
  664MOL0     C87531   5.776   8.525  11.624  0.1369 -0.1370 -0.1231
  664MOL0     C87532   5.810   8.627  11.514 -0.4572  0.3226 -0.0975
  664MOL0     N87533   5.689   8.674  11.448  0.2308 -0.0749  0.2757
  664MOL0     C87534   5.637   8.801  11.466 -0.1683 -0.2153  0.5110
  664MOL0     C87535   5.530   8.818  11.382 -0.6603  0.4752  0.4475
  664MOL0     C87536   5.456   8.945  11.361  0.4130 -0.2574 -0.7113
  664MOL0     C87537   5.530   9.053  11.266  0.5626  0.1831  0.8455
  664MOL0     C87538   5.543   8.995  11.123 -0.9443 -1.0684 -0.2708
  664MOL0     C87539   5.418   9.004  11.043  0.0896  0.5123  0.1702
  664MOL0     O87540   5.376   9.147  11.020  0.1673  0.3526 -0.1084
  664MOL0     C87541   5.293   9.169  10.912  0.8476  0.0242  0.0017
  664MOL0     C87542   5.315   9.273  10.818  0.2915  1.1544  0.0330
  664MOL0     C87543   5.239   9.292  10.701  0.8041 -0.6679 -0.3183
  664MOL0     C87544   5.120   9.223  10.682  0.4172  0.0058 -0.3766
  664MOL0     C87545   5.033   9.242  10.565  0.8076 -0.4149 -1.1987
  664MOL0     O87546   5.083   9.336  10.473 -0.1989 -0.1949 -0.3647
  664MOL0     C87547   5.009   9.368  10.366 -0.8312 -0.2058  0.9327
  664MOL0     C87548   5.009   9.500  10.311 -0.3769  0.3177 -0.1585
  664MOL0     C87549   4.954   9.523  10.187 -0.5900 -0.6001 -0.9521
  664MOL0     C87550   4.886   9.427  10.111  0.0263 -1.0575  0.9808
  664MOL0     O87551   4.837   9.468   9.984 -0.5660  0.2429 -1.5615
  664MOL0     C87552   4.760   9.377   9.900  0.1971  0.4880 -1.1839
  664MOL0     C87553   4.605   9.376   9.939  0.2258 -0.1770 -0.1318
  664MOL0     C87554   4.531   9.492   9.869  0.0124  0.1822  0.2232
  664MOL0     C87555   4.381   9.472   9.868 -0.5627  0.1103 -0.6195
  664MOL0     C87556   4.317   9.595   9.807  0.5718 -0.2844  0.5484
  664MOL0     C87557   4.163   9.576   9.810  0.3326 -0.1069  0.5025
  664MOL0     C87558   4.100   9.681   9.723 -0.7631 -0.5776 -0.3292
  664MOL0     C87559   3.952   9.697   9.718  0.4351  0.3356 -0.3303
  664MOL0    Cl87560   3.881   9.534   9.712  0.0171  0.3724 -0.0512
  664MOL0     C87561   4.887   9.294  10.167  0.8261  0.4047  0.9081
  664MOL0     C87562   4.953   9.266  10.285 -0.3738 -0.5346 -0.6187
  664MOL0     O87563   4.936   9.165  10.554 -0.1310  0.0167 -0.7361
  664MOL0     C87564   5.089   9.125  10.779 -0.6366 -0.5140 -0.2354
  664MOL0     C87565   5.174   9.095  10.891 -0.5459 -0.1920 -0.1075
  664MOL0     N87566   5.519   8.696  11.307  0.1298 -0.2014 -0.2932
  664MOL0     N87567   5.607   8.613  11.353 -0.2415 -0.0993 -0.0843
  664MOL0     C87568   5.025   7.981  11.317  0.3363  0.3229 -0.7463
  664MOL0     C87569   4.927   7.990  11.221  1.2727 -0.3270 -0.5157
  664MOL0     C87570   4.559   8.091  10.988 -0.6301 -0.1239 -0.4997
  664MOL0     C87571   4.450   8.111  11.080  0.3399 -0.6566  0.1341
  664MOL0     C87572   4.315   8.100  11.031 -0.2244 -0.4837 -0.2732
  664MOL0     C87573   4.283   8.087  10.894 -0.3980  0.5519 -0.7825
  664MOL0     O87574   4.159   8.077  10.836  0.1008  0.1823  0.2828
  664MOL0     C87575   4.033   8.086  10.922  0.3201 -0.3973 -0.9781
  664MOL0     C87576   3.909   8.068  10.836 -0.1261 -0.4621  0.2600
  664MOL0     C87577   3.894   7.930  10.767 -0.1991  0.5894 -0.3731
  664MOL0     C87578   3.751   7.887  10.716 -1.0798 -0.8040 -0.3681
  664MOL0     C87579   3.758   7.763  10.645 -0.8862 -0.3265 -0.2427
  664MOL0     C87580   3.766   7.650  10.596 -0.8323  0.5994 -0.3141
  664MOL0     C87581   4.399   8.071  10.807 -0.5355 -0.1068 -0.3568
  664MOL0     C87582   4.536   8.073  10.854 -0.8755 -0.2014  0.0972
  664MOL0     H87583   4.724   8.183  11.408  1.0096 -0.8477  3.1361
  664MOL0     H87584   4.903   8.171  11.562 -0.9285 -1.9853  0.0204
  664MOL0     H87585   5.214   8.202  11.480 -0.0590  0.2756 -1.9265
  664MOL0     H87586   5.283   8.074  11.388 -0.1789  1.1395  0.3575
  664MOL0     H87587   5.413   7.991  11.555  0.1256  0.5851 -0.2945
  664MOL0     H87588   5.328   8.045  11.689 -1.0515  3.9219  2.5257
  664MOL0     H87589   5.379   8.275  11.647 -0.0149  0.3822  0.0660
  664MOL0     H87590   5.462   8.250  11.498  0.0657  3.6532  1.6133
  664MOL0     H87591   5.561   8.148  11.767 -2.6030  1.2212  0.4499
  664MOL0     H87592   5.651   8.131  11.610  0.8792  1.0486  1.0112
  664MOL0     H87593   5.759   8.288  11.736  1.1205  1.4252 -0.8566
  664MOL0     H87594   5.608   8.364  11.783  0.2028 -0.1303  0.9136
  664MOL0     H87595   5.578   8.442  11.544 -0.0161  1.4608  0.8170
  664MOL0     H87596   5.723   8.357  11.497 -0.2609 -2.0866  0.7837
  664MOL0     H87597   5.726   8.570  11.711  1.9677  0.3300  0.7222
  664MOL0     H87598   5.867   8.473  11.656 -1.0293 -3.0548 -1.1601
  664MOL0     H87599   5.870   8.577  11.438  1.2806 -1.1585  2.1208
  664MOL0     H87600   5.862   8.716  11.552 -1.1530  1.0072 -0.7116
  664MOL0     H87601   5.676   8.883  11.526 -1.7887  0.5011  0.6168
  664MOL0     H87602   5.424   8.996  11.452 -0.8535 -0.0639 -1.2496
  664MOL0     H87603   5.358   8.921  11.318 -0.5636 -0.5125  1.5138
  664MOL0     H87604   5.627   9.079  11.309  1.3136 -3.1655  1.4735
  664MOL0     H87605   5.472   9.145  11.258  0.1512 -0.1038  0.4622
  664MOL0     H87606   5.620   9.055  11.074  1.4376 -2.7995  1.1205
  664MOL0     H87607   5.565   8.888  11.128  0.0027 -0.8360  2.7362
  664MOL0     H87608   5.336   8.951  11.091  0.2237 -0.7172 -0.8912
  664MOL0     H87609   5.428   8.964  10.942 -2.0342  0.0664  0.0887
  664MOL0     H87610   5.402   9.336  10.833  0.2551  1.6725 -1.7490
  664MOL0     H87611   5.255   9.365  10.622 -0.3268 -0.4200 -0.3372
  664MOL0     H87612   5.072   9.565  10.370 -0.4376 -1.1768  1.6283
  664MOL0     H87613   4.958   9.622  10.143 -1.8047 -0.8768 -1.7323
  664MOL0     H87614   4.803   9.277   9.909 -2.1846 -0.4184  1.7388
  664MOL0     H87615   4.761   9.402   9.794  0.3819 -0.9217 -1.5286
  664MOL0     H87616   4.598   9.377  10.048 -1.5656  0.3659 -0.2257
  664MOL0     H87617   4.555   9.285   9.906 -2.0658  1.5113 -1.6078
  664MOL0     H87618   4.558   9.494   9.763  2.1922  0.8255  0.7525
  664MOL0     H87619   4.561   9.585   9.917  1.8428 -1.8874  3.4367
  664MOL0     H87620   4.349   9.387   9.807  1.2311 -2.2010  1.4875
  664MOL0     H87621   4.342   9.449   9.967  1.6551 -0.6477  0.1366
  664MOL0     H87622   4.344   9.603   9.701 -1.1580 -0.2057  0.0879
  664MOL0     H87623   4.351   9.684   9.863 -0.2063  1.1403 -1.1502
  664MOL0     H87624   4.114   9.584   9.907  0.7664  0.8021  0.6523
  664MOL0     H87625   4.149   9.473   9.775  3.5174 -0.1920 -0.8620
  664MOL0     H87626   4.139   9.780   9.749 -0.7843 -1.1091  1.9841
  664MOL0     H87627   4.118   9.656   9.618 -1.7575 -1.2477 -0.3611
  664MOL0     H87628   3.920   9.753   9.629 -2.0514  0.6803  0.6815
  664MOL0     H87629   3.917   9.759   9.801  0.1062 -1.6352  1.0737
  664MOL0     H87630   4.839   9.213  10.114  3.2636 -1.0213  0.6971
  664MOL0     H87631   4.942   9.166  10.325  3.9382 -0.8499  0.2510
  664MOL0     H87632   5.005   9.058  10.763  1.1615 -2.7818 -0.7015
  664MOL0     H87633   5.157   9.027  10.974  0.9003 -0.4536 -0.0100
  664MOL0     H87634   5.111   7.915  11.308  0.6312  0.7189 -0.8650
  664MOL0     H87635   4.918   7.922  11.137 -3.7966 -1.2816  0.4831
  664MOL0     H87636   4.456   8.133  11.186 -2.4168  0.6079  0.1304
  664MOL0     H87637   4.231   8.104  11.099  1.3423  3.8178  1.7374
  664MOL0     H87638   4.042   8.190  10.952 -0.5830 -0.3192 -0.9522
  664MOL0     H87639   4.036   8.014  11.004 -1.6460 -0.6050 -1.0331
  664MOL0     H87640   3.823   8.077  10.903 -0.8273  0.7521 -0.7513
  664MOL0     H87641   3.905   8.146  10.760  0.8635  0.3102  0.9648
  664MOL0     H87642   3.935   7.853  10.833 -1.2789 -1.6384 -2.1697
  664MOL0     H87643   3.947   7.933  10.671  0.2881 -0.3879 -0.1431
  664MOL0     H87644   3.675   7.905  10.793  0.6188  3.1561  0.6658
  664MOL0     H87645   3.724   7.959  10.638  0.7488  0.2264 -0.1092
  664MOL0     H87646   3.784   7.554  10.551  0.6545 -0.5360  2.4817
  664MOL0     H87647   4.386   8.051  10.701  0.8888 -0.9701 -0.4044
  664MOL0     H87648   4.623   8.069  10.789 -0.0486  0.4325  1.1175
  665MOL0     O87649   5.226  10.385   8.212  0.1588 -0.4053  0.5714
  665MOL0     C87650   5.239  10.413   8.089 -1.2576 -0.7876 -0.4142
  665MOL0     O87651   5.360  10.388   8.024 -0.3804 -0.2663 -0.2384
  665MOL0     C87652   5.464  10.359   8.112  0.0950  0.1476  0.0008
  665MOL0     C87653   5.535  10.243   8.099 -0.5197 -0.1428  0.6005
  665MOL0     C87654   5.654  10.209   8.173 -0.8141 -0.4171 -0.1979
  665MOL0     C87655   5.696  10.295   8.275 -0.4570 -0.6078  0.5450
  665MOL0     O87656   5.792  10.271   8.365  0.2845 -0.1940 -0.5154
  665MOL0     C87657   5.893  10.177   8.347  0.0280  0.2249 -0.6431
  665MOL0     C87658   6.004  10.189   8.451 -0.0916 -0.6423 -0.2098
  665MOL0     C87659   6.075  10.321   8.442  0.1531  0.4231  1.5829
  665MOL0     C87660   6.199  10.308   8.342  0.0422 -0.9078 -0.1502
  665MOL0     C87661   6.296  10.420   8.360  0.0529  0.2269  0.3687
  665MOL0     C87662   6.409  10.412   8.257  0.8576  0.0738  0.3638
  665MOL0     C87663   6.358  10.474   8.124  0.5192  0.7295 -0.5459
  665MOL0     C87664   6.462  10.497   8.015  0.3466  0.6112 -0.1793
  665MOL0     N87665   6.421  10.527   7.872 -0.7084 -0.4843 -0.2906
  665MOL0     C87666   6.320  10.457   7.803  0.2516  1.0120  0.1787
  665MOL0     C87667   6.294  10.539   7.701 -0.2154 -0.9095  0.5244
  665MOL0     C87668   6.218  10.496   7.578  0.4453 -0.4977 -0.2791
  665MOL0     C87669   6.145  10.618   7.502 -0.4535 -0.1530  0.0434
  665MOL0     C87670   6.060  10.565   7.392 -0.0938 -0.2098 -0.1438
  665MOL0     C87671   5.931  10.639   7.373 -0.5826  0.2039  0.3151
  665MOL0     O87672   5.853  10.588   7.266 -0.3774  0.6311  0.0049
  665MOL0     C87673   5.776  10.686   7.201 -0.6915 -0.0862 -1.0593
  665MOL0     C87674   5.643  10.689   7.235  0.5375  0.3311 -0.4030
  665MOL0     C87675   5.557  10.790   7.188  0.2171  0.1332  0.8694
  665MOL0     C87676   5.606  10.880   7.089  0.7423  0.1596  0.0683
  665MOL0     C87677   5.525  10.985   7.029 -0.1917 -0.4022  0.3388
  665MOL0     O87678   5.403  10.998   7.086  0.7177  0.4149  0.3180
  665MOL0     C87679   5.298  11.060   7.009 -0.1502  0.4183 -0.8072
  665MOL0     C87680   5.182  11.090   7.083 -0.5193  0.0003  0.0496
  665MOL0     C87681   5.056  11.111   7.017 -0.1232 -0.0829 -0.1384
  665MOL0     C87682   5.065  11.143   6.881  0.0699 -0.6667  0.0264
  665MOL0     O87683   4.957  11.158   6.799 -0.1296  0.3465  0.7912
  665MOL0     C87684   4.825  11.168   6.858  0.4431  0.7753 -0.4612
  665MOL0     C87685   4.726  11.185   6.744  0.0981  0.2705 -0.2800
  665MOL0     C87686   4.581  11.193   6.791 -0.3571  0.1969 -0.0343
  665MOL0     C87687   4.484  11.198   6.677 -0.4860  0.1106 -0.8222
  665MOL0     C87688   4.362  11.288   6.712 -0.9844 -0.3488  0.0153
  665MOL0     C87689   4.249  11.269   6.617 -0.3271  0.0362 -0.2296
  665MOL0     C87690   4.275  11.345   6.486 -0.5400  1.0436 -0.6715
  665MOL0     C87691   4.175  11.305   6.379 -0.0724  0.4049 -0.3484
  665MOL0    Cl87692   4.215  11.374   6.226 -0.2100 -0.2840  0.3055
  665MOL0     C87693   5.184  11.127   6.817 -0.1319 -0.0715  0.1611
  665MOL0     C87694   5.294  11.079   6.874 -0.3454  0.2519 -0.2895
  665MOL0     O87695   5.566  11.041   6.919 -0.2480  0.7260  0.2471
  665MOL0     C87696   5.739  10.860   7.043 -0.3203  0.6126  0.6346
  665MOL0     C87697   5.819  10.775   7.107 -0.3626  0.0081 -0.0160
  665MOL0     N87698   6.367  10.656   7.715  0.4188  0.9395  0.0538
  665MOL0     N87699   6.447  10.648   7.818  0.3650 -0.2339 -0.0911
  665MOL0     C87700   5.629  10.419   8.282 -0.0660  0.5522  0.1219
  665MOL0     C87701   5.514  10.451   8.199  0.8851  0.0314  0.0325
  665MOL0     C87702   5.124  10.468   8.018  0.1801 -0.6971 -0.7394
  665MOL0     C87703   5.009  10.520   8.080  0.6616 -0.0867  0.0511
  665MOL0     C87704   4.897  10.550   8.008 -0.2599  0.6216 -0.7882
  665MOL0     C87705   4.888  10.527   7.870 -0.3290 -0.3001  0.3943
  665MOL0     O87706   4.777  10.553   7.792 -0.0119 -0.4753 -0.2124
  665MOL0     C87707   4.647  10.594   7.841 -0.5065 -0.0607 -0.1724
  665MOL0     C87708   4.560  10.612   7.718 -0.9440 -1.1383 -0.0607
  665MOL0     C87709   4.414  10.641   7.746  0.2942  0.1753  0.8881
  665MOL0     C87710   4.322  10.520   7.770  0.3989  0.4131  0.1375
  665MOL0     C87711   4.181  10.533   7.792 -0.3859 -0.1008  0.9118
  665MOL0     C87712   4.060  10.539   7.798  0.3824  0.0068 -0.7838
  665MOL0     C87713   5.001  10.472   7.805 -0.4466 -0.5657 -0.0692
  665MOL0     C87714   5.117  10.452   7.881 -0.9828  0.2775 -0.0866
  665MOL0     H87715   5.509  10.179   8.015 -1.6263 -0.4646  1.1721
  665MOL0     H87716   5.699  10.111   8.157  0.1748 -0.2112  1.1450
  665MOL0     H87717   5.940  10.195   8.250  1.6697 -0.2953  0.0268
  665MOL0     H87718   5.856  10.074   8.347 -2.8051  1.1425  0.5422
  665MOL0     H87719   6.069  10.105   8.423  0.0569 -0.8182  0.6354
  665MOL0     H87720   5.978  10.167   8.555  1.2226 -4.3067 -0.5257
  665MOL0     H87721   6.116  10.343   8.541  1.1142  0.6760  1.1450
  665MOL0     H87722   6.016  10.406   8.408 -0.3646 -0.2722  0.7032
  665MOL0     H87723   6.249  10.212   8.361 -0.4261 -1.1698 -0.2177
  665MOL0     H87724   6.165  10.306   8.238 -1.3678 -0.2360  0.2694
  665MOL0     H87725   6.349  10.413   8.456  3.5740  1.7753 -1.2841
  665MOL0     H87726   6.248  10.518   8.356  0.9615  0.6842  0.4500
  665MOL0     H87727   6.443  10.308   8.245 -1.3602 -0.5746 -0.8941
  665MOL0     H87728   6.492  10.468   8.301 -0.5309  1.8379  0.8220
  665MOL0     H87729   6.285  10.401   8.090  0.4632  0.4767  0.0986
  665MOL0     H87730   6.303  10.568   8.140  0.2503  0.9419 -2.4957
  665MOL0     H87731   6.519  10.403   8.011 -1.6959 -0.9034  2.6104
  665MOL0     H87732   6.530  10.579   8.042 -0.3685  1.4062 -0.7365
  665MOL0     H87733   6.292  10.354   7.820  0.3844  0.6879 -1.4274
  665MOL0     H87734   6.144  10.428   7.623  1.1703  0.8510  3.2530
  665MOL0     H87735   6.274  10.438   7.505  2.3253 -1.1398  1.5894
  665MOL0     H87736   6.212  10.697   7.468  1.0975 -0.8957  1.2475
  665MOL0     H87737   6.086  10.665   7.582  1.1768 -0.6310  1.5866
  665MOL0     H87738   6.125  10.543   7.306 -0.5163 -0.2439 -0.4571
  665MOL0     H87739   6.021  10.468   7.426 -3.2932  0.4170 -1.6731
  665MOL0     H87740   5.958  10.744   7.354 -1.5811  0.3911 -0.1126
  665MOL0     H87741   5.866  10.637   7.461 -0.3061  0.7206  0.5399
  665MOL0     H87742   5.616  10.616   7.310  0.4997  0.7481 -0.0104
  665MOL0     H87743   5.452  10.775   7.208  0.2952 -3.7499 -0.7928
  665MOL0     H87744   5.182  11.059   7.187  1.2921  1.1313  0.4226
  665MOL0     H87745   4.967  11.117   7.078 -1.1535 -0.0850 -1.6021
  665MOL0     H87746   4.818  11.246   6.934  0.6791 -0.6902  1.1253
  665MOL0     H87747   4.805  11.073   6.908 -0.5675  0.4780 -1.3861
  665MOL0     H87748   4.742  11.105   6.670  0.5580  0.2500 -0.1602
  665MOL0     H87749   4.759  11.283   6.708  0.5574 -0.2415 -1.3126
  665MOL0     H87750   4.579  11.280   6.857  0.7599 -0.3377  0.7344
  665MOL0     H87751   4.553  11.108   6.854 -3.7199  1.0574 -0.1582
  665MOL0     H87752   4.545  11.227   6.591  0.6359  0.3428  0.0236
  665MOL0     H87753   4.440  11.100   6.656 -0.8541 -0.0051  0.4293
  665MOL0     H87754   4.389  11.394   6.719 -1.9575  0.1891 -3.0996
  665MOL0     H87755   4.332  11.264   6.815 -0.8044  0.0508  0.1643
  665MOL0     H87756   4.158  11.305   6.666  0.2868  1.2122  0.0969
  665MOL0     H87757   4.231  11.168   6.579 -4.2288  0.9208 -1.1953
  665MOL0     H87758   4.260  11.448   6.521 -1.0418  0.2534  1.6356
  665MOL0     H87759   4.375  11.337   6.444 -0.7503  1.7662 -1.3377
  665MOL0     H87760   4.076  11.335   6.413  0.6874  1.2011  1.2675
  665MOL0     H87761   4.166  11.196   6.371  0.9685  0.3536 -1.1287
  665MOL0     H87762   5.190  11.140   6.710  1.6106 -1.8606  0.0080
  665MOL0     H87763   5.384  11.075   6.812  2.3152  3.2813  2.9289
  665MOL0     H87764   5.782  10.930   6.972  1.0518 -1.4770 -0.7155
  665MOL0     H87765   5.917  10.766   7.061  0.7729  1.8565  1.8498
  665MOL0     H87766   5.671  10.484   8.358  1.5538  0.2620 -0.4746
  665MOL0     H87767   5.460  10.544   8.216  2.4618  0.9347  0.2760
  665MOL0     H87768   5.004  10.521   8.188 -2.5554 -0.5702  0.0114
  665MOL0     H87769   4.811  10.594   8.058  2.4203  2.1560  2.9400
  665MOL0     H87770   4.653  10.691   7.891  0.1088  0.5512 -1.3782
  665MOL0     H87771   4.604  10.525   7.915  1.0170  1.0802  1.8716
  665MOL0     H87772   4.607  10.690   7.657 -1.7296 -0.4336  0.2225
  665MOL0     H87773   4.564  10.521   7.658  0.1083 -2.1319  1.4452
  665MOL0     H87774   4.374  10.689   7.656 -1.0437 -1.2022  0.7088
  665MOL0     H87775   4.408  10.714   7.828 -0.1790  4.8412 -2.8802
  665MOL0     H87776   4.320  10.460   7.679  1.4498  0.5148  0.0367
  665MOL0     H87777   4.361  10.470   7.859 -0.9791  2.8477  2.2435
  665MOL0     H87778   3.952  10.542   7.799  0.3884  2.6853 -1.1204
  665MOL0     H87779   5.003  10.456   7.698 -2.1542 -2.3064  0.0906
  665MOL0     H87780   5.198  10.411   7.821 -0.2465  1.4967  0.0318
  666MOL0     O87781   9.714   5.747   2.050  0.0850 -0.6218 -0.6939
  666MOL0     C87782   9.624   5.740   2.139 -0.8565 -0.4548  0.6760
  666MOL0     O87783   9.632   5.673   2.257 -0.3415  0.5569  0.2550
  666MOL0     C87784   9.746   5.595   2.276  0.0824  0.6408  0.2353
  666MOL0     C87785   9.812   5.620   2.397  1.0083 -0.1863  0.2542
  666MOL0     C87786   9.923   5.538   2.434 -0.0048  0.4223 -0.4723
  666MOL0     C87787   9.977   5.437   2.345 -0.2696  0.1848 -0.9204
  666MOL0     O87788  10.088   5.365   2.378  0.2568  0.0349  0.2962
  666MOL0     C87789  10.147   5.298   2.271  0.3215 -0.2496  1.2186
  666MOL0     C87790  10.286   5.267   2.288 -0.6428  0.1446  0.7917
  666MOL0     C87791  10.350   5.219   2.420  0.5844 -0.9073  0.1138
  666MOL0     C87792  10.490   5.174   2.413  0.7412  0.1367  0.2019
  666MOL0     C87793  10.585   5.297   2.411 -0.2638 -0.3142 -0.9067
  666MOL0     C87794  10.735   5.274   2.369 -0.0501  0.6242  0.7917
  666MOL0     C87795  10.755   5.245   2.217  0.7334 -0.1516  0.6388
  666MOL0     C87796  10.901   5.224   2.162  0.4738  0.2527  1.3981
  666MOL0     N87797  11.005   5.331   2.153  0.1897 -0.1264 -0.1206
  666MOL0     C87798  11.110   5.333   2.057  0.2378 -0.1387 -0.2414
  666MOL0     C87799  11.182   5.447   2.092 -0.7447  0.3698  0.2264
  666MOL0     C87800  11.290   5.516   2.011  0.0680 -0.7033  0.6710
  666MOL0     C87801  11.224   5.596   1.891  0.7605  0.3247 -1.2741
  666MOL0     C87802  11.316   5.698   1.822 -0.1960  0.9429  0.3424
  666MOL0     C87803  11.455   5.654   1.769 -0.4983 -0.5638 -0.8716
  666MOL0     O87804  11.512   5.760   1.693 -0.1225 -0.1073 -0.0933
  666MOL0     C87805  11.633   5.737   1.631 -0.2266 -0.6561  0.2264
  666MOL0     C87806  11.702   5.850   1.576  0.4658  0.0012 -0.1103
  666MOL0     C87807  11.818   5.834   1.504 -0.8490  0.3313  0.2400
  666MOL0     C87808  11.886   5.703   1.498  0.3969  0.4291 -0.0577
  666MOL0     C87809  12.017   5.695   1.421  0.3430  0.3434  0.3514
  666MOL0     O87810  12.070   5.816   1.379 -0.1813 -0.2448 -0.0091
  666MOL0     C87811  12.153   5.811   1.264 -0.3543  0.4556 -0.5558
  666MOL0     C87812  12.263   5.886   1.259  0.2737  0.5301  1.3563
  666MOL0     C87813  12.347   5.876   1.141 -0.3817  0.4734  0.5990
  666MOL0     C87814  12.316   5.781   1.042 -0.6188  0.3638 -0.0059
  666MOL0     O87815  12.392   5.752   0.930 -0.1263 -0.7713  0.0708
  666MOL0     C87816  12.530   5.800   0.912 -0.5793 -0.1568  0.4205
  666MOL0     C87817  12.591   5.745   0.777  0.5062  0.4840 -0.4753
  666MOL0     C87818  12.644   5.601   0.793  0.1197 -0.9751 -0.3264
  666MOL0     C87819  12.794   5.576   0.788  0.2646  0.1104  0.7472
  666MOL0     C87820  12.835   5.435   0.744 -0.2475  0.4894 -0.3965
  666MOL0     C87821  12.972   5.426   0.686 -0.8878  0.1839 -0.2229
  666MOL0     C87822  13.091   5.426   0.788 -0.0856 -0.8529 -0.1677
  666MOL0     C87823  13.229   5.447   0.723  0.5768  0.3430 -0.7426
  666MOL0    Cl87824  13.336   5.406   0.859 -0.2411 -0.0809 -0.5869
  666MOL0     C87825  12.209   5.697   1.049 -0.1634  0.3032  0.4774
  666MOL0     C87826  12.123   5.713   1.159  0.7393 -0.3590 -0.9278
  666MOL0     O87827  12.067   5.583   1.412  0.3035  0.0660  0.6242
  666MOL0     C87828  11.824   5.589   1.557  1.6471  0.6086 -0.0229
  666MOL0     C87829  11.700   5.608   1.613  0.6662 -0.5089 -0.3754
  666MOL0     N87830  11.130   5.514   2.203  0.3299  0.7226  0.5838
  666MOL0     N87831  11.040   5.429   2.247  0.6402  0.5634  0.1748
  666MOL0     C87832   9.894   5.409   2.233 -0.4507  0.6080  0.5957
  666MOL0     C87833   9.780   5.477   2.202 -0.3589 -0.8140 -0.1025
  666MOL0     C87834   9.498   5.832   2.124  1.0939  0.8674 -0.5997
  666MOL0     C87835   9.471   5.875   1.994  0.3570 -0.8329 -0.1157
  666MOL0     C87836   9.350   5.957   1.976  0.5210  0.0389 -0.1651
  666MOL0     C87837   9.268   5.993   2.085  0.0135 -0.2396 -0.7157
  666MOL0     O87838   9.151   6.069   2.087  0.1191  1.0942 -0.3076
  666MOL0     C87839   9.113   6.148   1.976 -0.4295  0.5515  0.1609
  666MOL0     C87840   8.981   6.221   1.999  0.9924  0.0826  0.3182
  666MOL0     C87841   8.867   6.134   2.056 -0.0691  0.4001  0.0871
  666MOL0     C87842   8.774   6.208   2.153 -0.8311  0.3622  0.9962
  666MOL0     C87843   8.728   6.339   2.102 -0.0586  0.9843  0.6799
  666MOL0     C87844   8.688   6.444   2.054 -0.8006  0.2846 -0.0033
  666MOL0     C87845   9.297   5.943   2.211  0.1867 -0.8655  0.4969
  666MOL0     C87846   9.410   5.864   2.229  0.1828  0.6147  0.0463
  666MOL0     H87847   9.779   5.699   2.465  1.8548  0.6572 -0.3030
  666MOL0     H87848   9.974   5.574   2.523  1.3932  1.3655 -1.5930
  666MOL0     H87849  10.141   5.359   2.180  0.2662  0.5288  1.7322
  666MOL0     H87850  10.095   5.203   2.259 -0.0708 -0.1069  1.7777
  666MOL0     H87851  10.345   5.353   2.253  0.2133 -0.6577  0.1988
  666MOL0     H87852  10.311   5.184   2.222 -0.3967 -1.5189  2.8653
  666MOL0     H87853  10.278   5.144   2.455  0.6205  0.1622  2.6809
  666MOL0     H87854  10.342   5.296   2.497 -1.6326  0.4037 -1.3029
  666MOL0     H87855  10.520   5.115   2.499  2.5237  3.0585  1.7399
  666MOL0     H87856  10.499   5.117   2.319 -1.7821  0.4068 -0.2794
  666MOL0     H87857  10.587   5.327   2.516 -1.3222  2.0281 -1.5053
  666MOL0     H87858  10.548   5.385   2.357 -0.3675  0.1106 -0.1599
  666MOL0     H87859  10.762   5.181   2.420 -3.4456  0.5085  2.7116
  666MOL0     H87860  10.793   5.362   2.399  0.7576  0.8198 -1.2040
  666MOL0     H87861  10.708   5.149   2.195  0.9710 -0.1048 -0.1054
  666MOL0     H87862  10.706   5.324   2.158  0.9153 -0.0990  0.5591
  666MOL0     H87863  10.885   5.175   2.065  2.5053 -0.5389  1.4203
  666MOL0     H87864  10.938   5.142   2.223 -0.0336 -1.1488 -0.1022
  666MOL0     H87865  11.128   5.263   1.976  0.9749 -3.2964  2.4418
  666MOL0     H87866  11.363   5.446   1.969  1.2784  0.9897 -0.1785
  666MOL0     H87867  11.355   5.590   2.059 -1.1566  0.4261  0.6368
  666MOL0     H87868  11.136   5.646   1.931 -0.7724 -2.4821 -0.8872
  666MOL0     H87869  11.186   5.523   1.819 -0.0125  0.6678 -1.2218
  666MOL0     H87870  11.258   5.731   1.735  0.0984  1.2056  0.2447
  666MOL0     H87871  11.330   5.786   1.886 -0.0360  1.5490 -0.5014
  666MOL0     H87872  11.452   5.562   1.711  2.4533 -0.9766 -0.5405
  666MOL0     H87873  11.527   5.641   1.850  0.4250 -2.6138 -1.9444
  666MOL0     H87874  11.650   5.946   1.573 -1.2712 -0.8175  1.5418
  666MOL0     H87875  11.843   5.923   1.447 -1.5481  1.0311  1.0061
  666MOL0     H87876  12.296   5.956   1.335  0.0479 -0.6396  2.5596
  666MOL0     H87877  12.439   5.932   1.140  0.1503 -0.3824  0.5067
  666MOL0     H87878  12.599   5.774   0.993  1.7052 -0.2024 -1.4577
  666MOL0     H87879  12.520   5.908   0.896  1.7708 -0.1114 -1.2836
  666MOL0     H87880  12.668   5.810   0.733 -0.6935  3.0728  1.0014
  666MOL0     H87881  12.504   5.736   0.712 -1.6117  1.2742  2.1051
  666MOL0     H87882  12.605   5.555   0.702 -1.0918  5.2360 -3.5232
  666MOL0     H87883  12.606   5.564   0.889  0.7909  1.6955  1.0994
  666MOL0     H87884  12.840   5.651   0.722 -0.7105 -0.6865 -0.9104
  666MOL0     H87885  12.833   5.590   0.889  2.0386 -2.1802  0.4579
  666MOL0     H87886  12.762   5.385   0.680 -1.8312  1.5185  0.5248
  666MOL0     H87887  12.847   5.373   0.833  0.6102  2.2765  0.7931
  666MOL0     H87888  12.984   5.502   0.607 -3.1638  0.7464 -0.0955
  666MOL0     H87889  12.984   5.327   0.641  5.8757  0.0839  0.7078
  666MOL0     H87890  13.070   5.500   0.867 -0.5496 -0.8889 -0.2550
  666MOL0     H87891  13.083   5.329   0.837 -2.1763 -0.2989  0.7401
  666MOL0     H87892  13.241   5.549   0.684  4.0649  0.0193 -0.7701
  666MOL0     H87893  13.236   5.376   0.640 -2.3328 -1.4880  0.4084
  666MOL0     H87894  12.192   5.624   0.971  0.8550 -1.0614  1.4739
  666MOL0     H87895  12.032   5.656   1.153 -1.1044  2.4195 -1.2263
  666MOL0     H87896  11.863   5.488   1.555 -2.1738 -1.0153 -2.3467
  666MOL0     H87897  11.649   5.524   1.657 -0.3715  0.0517 -0.4650
  666MOL0     H87898   9.924   5.321   2.178  2.0653  1.7373  0.0272
  666MOL0     H87899   9.729   5.460   2.107 -0.1064  0.1212 -0.4211
  666MOL0     H87900   9.534   5.840   1.914  1.9705  1.4667  0.0499
  666MOL0     H87901   9.316   5.995   1.881  0.4707  0.1130 -0.1168
  666MOL0     H87902   9.101   6.096   1.881  2.3882  1.4981 -0.8108
  666MOL0     H87903   9.193   6.222   1.970  2.0250 -1.4705  3.7058
  666MOL0     H87904   9.003   6.292   2.079  0.2877 -0.0478  0.6316
  666MOL0     H87905   8.951   6.276   1.909 -0.0555  1.3820  1.4308
  666MOL0     H87906   8.892   6.040   2.104  1.7273  0.5342 -0.5102
  666MOL0     H87907   8.814   6.095   1.968 -0.0411  0.9542 -0.1860
  666MOL0     H87908   8.691   6.139   2.170 -0.6983 -0.3598 -1.0562
  666MOL0     H87909   8.818   6.226   2.251 -3.0085  0.9380  1.9235
  666MOL0     H87910   8.655   6.539   2.019 -2.0576  0.4995  1.6167
  666MOL0     H87911   9.224   5.938   2.291  1.4517 -5.9040  1.7581
  666MOL0     H87912   9.431   5.815   2.324  0.9482 -2.5465 -1.6001
  667MOL0     O87913   3.872   6.423   7.903 -0.0537  0.8734  0.2667
  667MOL0     C87914   3.918   6.503   7.976 -0.1740  0.0112  0.1021
  667MOL0     O87915   3.863   6.619   8.026 -0.1824 -0.0869  0.4478
  667MOL0     C87916   3.735   6.639   7.978 -0.0517 -1.2565 -0.2164
  667MOL0     C87917   3.708   6.689   7.853 -0.1506 -0.0345  1.0701
  667MOL0     C87918   3.577   6.710   7.804  0.5310 -0.0921 -0.1346
  667MOL0     C87919   3.465   6.675   7.882 -0.7864  0.5381 -0.5634
  667MOL0     O87920   3.331   6.684   7.844 -0.0999  0.5380 -0.0926
  667MOL0     C87921   3.310   6.707   7.709  0.2692 -0.1013 -0.9362
  667MOL0     C87922   3.173   6.636   7.686 -0.1589  0.9042  0.6330
  667MOL0     C87923   3.066   6.734   7.646 -0.9906 -1.0980  0.2550
  667MOL0     C87924   2.946   6.635   7.607  0.4669  0.1586 -0.6295
  667MOL0     C87925   2.831   6.709   7.538 -1.0842 -0.3695  0.5411
  667MOL0     C87926   2.737   6.615   7.468 -0.6733  0.5532  0.0298
  667MOL0     C87927   2.601   6.680   7.446  0.8639  1.0271 -0.5498
  667MOL0     C87928   2.606   6.820   7.389  0.5030  0.2272 -0.1992
  667MOL0     N87929   2.487   6.858   7.310 -0.1029 -0.4196 -0.7520
  667MOL0     C87930   2.406   6.959   7.348  0.0481  0.7486 -0.6861
  667MOL0     C87931   2.323   6.969   7.245  0.7713 -0.3222 -1.0161
  667MOL0     C87932   2.226   7.084   7.224  0.1794 -0.8233 -0.3325
  667MOL0     C87933   2.083   7.036   7.244  0.1738  0.0838 -1.1761
  667MOL0     C87934   1.991   7.154   7.220  0.6637 -1.2804 -0.3474
  667MOL0     C87935   1.841   7.129   7.239  0.5314  0.5061 -0.8025
  667MOL0     O87936   1.772   7.115   7.108 -0.2153  0.1175 -0.9007
  667MOL0     C87937   1.633   7.111   7.105 -0.1938  0.3596  0.8267
  667MOL0     C87938   1.550   7.115   7.217  0.5606  0.1517  0.1677
  667MOL0     C87939   1.410   7.127   7.204 -0.3409 -0.9043 -0.3186
  667MOL0     C87940   1.349   7.125   7.070  0.4428 -0.2415  0.3536
  667MOL0     C87941   1.200   7.130   7.049 -0.0565 -0.4825 -0.6247
  667MOL0     O87942   1.127   7.202   7.145 -0.2729  0.2734 -0.1852
  667MOL0     C87943   0.989   7.203   7.133 -0.3162 -0.2792 -0.9565
  667MOL0     C87944   0.916   7.323   7.133 -0.7790  0.4383  0.0711
  667MOL0     C87945   0.777   7.329   7.108  0.3105 -0.0562  0.1804
  667MOL0     C87946   0.709   7.211   7.114  1.0457  0.2737 -0.8286
  667MOL0     O87947   0.567   7.190   7.110 -0.2475 -0.5941 -0.0997
  667MOL0     C87948   0.477   7.304   7.082 -0.2483 -0.6120 -0.3120
  667MOL0     C87949   0.473   7.361   6.934 -1.2623 -0.6452 -0.4553
  667MOL0     C87950   0.378   7.473   6.912 -1.0218 -0.0024  0.1494
  667MOL0     C87951   0.238   7.437   6.888  0.0733  0.5301 -0.2896
  667MOL0     C87952   0.147   7.448   7.011  0.3612  0.2191  0.5217
  667MOL0     C87953   0.009   7.376   7.006  0.3862 -1.1127 -0.4075
  667MOL0     C87954  -0.065   7.394   6.870  0.2240 -0.3519 -0.0514
  667MOL0     C87955  -0.216   7.377   6.873  0.3483 -0.2264  0.8908
  667MOL0    Cl87956  -0.287   7.428   6.718  0.0746 -0.0193  0.1152
  667MOL0     C87957   0.779   7.093   7.125 -1.0968 -0.0692 -0.0495
  667MOL0     C87958   0.916   7.083   7.131  0.1548 -0.0176  0.2301
  667MOL0     O87959   1.147   7.085   6.947 -0.0642 -0.4552  1.1124
  667MOL0     C87960   1.441   7.127   6.963  0.0839 -0.2550  0.7833
  667MOL0     C87961   1.580   7.123   6.976  0.5343 -0.2995  0.7949
  667MOL0     N87962   2.354   6.887   7.145 -0.1238  0.1350  0.4582
  667MOL0     N87963   2.462   6.823   7.176 -0.3486  0.1253  0.3794
  667MOL0     C87964   3.498   6.637   8.012  0.1204 -0.2664  0.3411
  667MOL0     C87965   3.629   6.616   8.062  0.5774  0.3463 -0.1973
  667MOL0     C87966   4.070   6.495   7.981  0.5919  0.0600  0.0103
  667MOL0     C87967   4.145   6.593   8.036 -0.0351  0.8454 -0.3434
  667MOL0     C87968   4.285   6.586   8.037 -0.9641  0.2800 -0.1226
  667MOL0     C87969   4.354   6.474   7.981 -0.5452  0.2703  0.1598
  667MOL0     O87970   4.492   6.468   7.978 -0.3640 -0.7979  0.8836
  667MOL0     C87971   4.560   6.352   7.923 -0.0114  0.2913  0.0780
  667MOL0     C87972   4.709   6.393   7.927  0.7458  0.3689  0.3605
  667MOL0     C87973   4.798   6.300   7.849  0.3445 -0.1759 -0.8856
  667MOL0     C87974   4.937   6.348   7.819 -1.0683  0.5447 -0.5647
  667MOL0     C87975   5.016   6.239   7.753 -0.7753  0.5009 -1.0891
  667MOL0     C87976   5.075   6.140   7.718  0.0298 -0.3551 -0.7794
  667MOL0     C87977   4.271   6.380   7.912 -1.9915  0.1591 -0.9039
  667MOL0     C87978   4.133   6.387   7.914 -0.2320 -0.3041  0.0211
  667MOL0     H87979   3.787   6.722   7.787 -1.4360 -2.8690 -2.2065
  667MOL0     H87980   3.564   6.750   7.704 -1.9052 -2.0101 -0.6566
  667MOL0     H87981   3.375   6.657   7.637  0.6237 -0.9408 -0.0481
  667MOL0     H87982   3.309   6.813   7.683 -1.0992  0.0870 -0.2064
  667MOL0     H87983   3.136   6.588   7.776  2.5328 -0.0039  1.3733
  667MOL0     H87984   3.197   6.562   7.608 -0.0625  0.0111  1.4973
  667MOL0     H87985   3.105   6.785   7.557 -3.8009 -0.1890 -0.5467
  667MOL0     H87986   3.051   6.805   7.727 -1.9384  1.6802 -2.1548
  667MOL0     H87987   2.985   6.560   7.538  2.9686  0.2513  0.5820
  667MOL0     H87988   2.922   6.586   7.702  1.6956 -0.1722 -0.4641
  667MOL0     H87989   2.879   6.775   7.465  0.7308 -3.0156 -0.8406
  667MOL0     H87990   2.792   6.772   7.619 -0.3063  1.5460 -0.5011
  667MOL0     H87991   2.733   6.513   7.508 -0.5687  0.6504  0.2918
  667MOL0     H87992   2.784   6.605   7.370  3.9462  2.3052  1.7883
  667MOL0     H87993   2.547   6.621   7.371 -0.5259 -1.5592  2.2987
  667MOL0     H87994   2.535   6.672   7.532  0.3828  0.3247 -0.9735
  667MOL0     H87995   2.695   6.822   7.325  0.3426  0.0973 -0.4264
  667MOL0     H87996   2.622   6.887   7.474  0.8598  0.6021 -0.5569
  667MOL0     H87997   2.400   7.016   7.440 -2.1744  0.5831 -0.6686
  667MOL0     H87998   2.229   7.114   7.118  0.9584  1.8253  0.3787
  667MOL0     H87999   2.259   7.179   7.267  1.4951 -0.8778 -1.1699
  667MOL0     H88000   2.061   6.990   7.341  1.6082  2.6677  0.4727
  667MOL0     H88001   2.063   6.962   7.165 -0.2935  0.4341 -1.3892
  667MOL0     H88002   2.030   7.232   7.287 -1.2412  0.0111 -0.6576
  667MOL0     H88003   2.012   7.189   7.118 -1.6710  0.8787 -0.1926
  667MOL0     H88004   1.794   7.217   7.284 -0.5422  0.3027 -1.4755
  667MOL0     H88005   1.822   7.033   7.286  3.4134  0.1449 -0.1866
  667MOL0     H88006   1.593   7.121   7.316 -0.7221  3.7087  0.6420
  667MOL0     H88007   1.346   7.134   7.291  1.5985  0.0134  1.1252
  667MOL0     H88008   0.976   7.412   7.150  1.4402 -1.2165  1.3234
  667MOL0     H88009   0.724   7.422   7.088  2.6575  1.1684 -0.7878
  667MOL0     H88010   0.506   7.384   7.151  1.2162 -0.0083 -1.5383
  667MOL0     H88011   0.377   7.281   7.117 -0.8142  2.1795  0.0982
  667MOL0     H88012   0.428   7.281   6.875 -1.4745  0.2052 -1.4814
  667MOL0     H88013   0.569   7.402   6.899 -1.4413  0.9802  0.8164
  667MOL0     H88014   0.392   7.510   6.811 -0.1377  0.8143  0.5520
  667MOL0     H88015   0.389   7.556   6.983  2.0253  0.3952 -0.6431
  667MOL0     H88016   0.189   7.492   6.808 -1.8709  1.4220  1.4232
  667MOL0     H88017   0.224   7.334   6.854 -0.3303 -0.2411  2.0599
  667MOL0     H88018   0.133   7.555   7.029 -0.8082 -0.1374  1.9553
  667MOL0     H88019   0.194   7.407   7.101 -0.4806 -2.4157 -0.1269
  667MOL0     H88020  -0.059   7.406   7.086  1.0229  1.2333 -0.6545
  667MOL0     H88021   0.029   7.270   7.018 -2.8248 -1.5628  2.6586
  667MOL0     H88022  -0.051   7.494   6.829 -2.2458  0.7966  1.6432
  667MOL0     H88023  -0.033   7.313   6.804 -0.1530 -0.8101  0.3225
  667MOL0     H88024  -0.250   7.440   6.956  2.4866 -0.5319  2.0837
  667MOL0     H88025  -0.243   7.274   6.896  1.3420 -0.6249  0.3481
  667MOL0     H88026   0.720   7.002   7.128 -1.4676  0.1841  1.4638
  667MOL0     H88027   0.972   6.990   7.133  1.0639  0.5139  0.6590
  667MOL0     H88028   1.399   7.129   6.863  3.4999  0.8238 -0.7731
  667MOL0     H88029   1.648   7.125   6.892  1.5437  1.2879  1.6071
  667MOL0     H88030   3.410   6.629   8.075 -0.8789 -0.3521 -1.0289
  667MOL0     H88031   3.657   6.580   8.161  0.2082  1.2194  0.2360
  667MOL0     H88032   4.091   6.680   8.073  2.7801  2.1699  0.9631
  667MOL0     H88033   4.344   6.659   8.092 -0.6074  0.9046 -1.2987
  667MOL0     H88034   4.526   6.313   7.827 -3.4676 -1.6565  1.8973
  667MOL0     H88035   4.540   6.278   8.001 -1.9568  1.1499  0.4418
  667MOL0     H88036   4.712   6.487   7.870 -0.1598  1.3742  1.8809
  667MOL0     H88037   4.740   6.403   8.031 -1.7451  1.5658  1.0755
  667MOL0     H88038   4.747   6.277   7.754 -1.0458  1.2289 -0.5108
  667MOL0     H88039   4.803   6.210   7.911  0.8459 -0.6728 -1.6240
  667MOL0     H88040   4.932   6.439   7.758 -1.1840  1.6166  0.9773
  667MOL0     H88041   4.979   6.380   7.915 -0.6747  0.5899 -0.7478
  667MOL0     H88042   5.121   6.053   7.677  1.3353  0.6227 -1.4613
  667MOL0     H88043   4.316   6.298   7.857 -0.1138 -0.0702  0.8722
  667MOL0     H88044   4.089   6.305   7.858  0.2322  0.1199 -0.9903
  668MOL0     O88045   8.787   1.795   9.646  0.1719  0.4381  0.6691
  668MOL0     C88046   8.848   1.702   9.692 -0.5322  0.5628  0.6718
  668MOL0     O88047   8.842   1.661   9.819  0.1304  0.0849  0.5732
  668MOL0     C88048   8.738   1.670   9.895  0.7982  0.4322  0.5370
  668MOL0     C88049   8.608   1.633   9.847  0.9246 -0.3403 -0.4728
  668MOL0     C88050   8.494   1.637   9.939 -0.6240  0.0612  1.3429
  668MOL0     C88051   8.512   1.670  10.073  0.5136  0.0554  0.7079
  668MOL0     O88052   8.417   1.679  10.170 -0.2694  0.6739  0.0247
  668MOL0     C88053   8.285   1.626  10.166  0.0147  0.4089 -0.0547
  668MOL0     C88054   8.221   1.645  10.301  0.0632 -0.2302  0.5815
  668MOL0     C88055   8.100   1.552  10.323 -0.1196 -0.0079  0.3302
  668MOL0     C88056   7.989   1.595  10.226 -0.8081 -0.3127  0.9187
  668MOL0     C88057   7.853   1.511  10.254 -0.6432 -0.8296  0.0491
  668MOL0     C88058   7.742   1.599  10.320 -0.3749  0.3856  0.7391
  668MOL0     C88059   7.789   1.647  10.452  0.3910  0.7201 -0.1543
  668MOL0     C88060   7.680   1.713  10.540  0.8442  0.4993  0.5282
  668MOL0     N88061   7.731   1.805  10.642 -0.2906  0.0027  0.9475
  668MOL0     C88062   7.816   1.774  10.746  0.2211  1.1107 -0.4282
  668MOL0     C88063   7.828   1.889  10.815 -0.0343 -0.3002  0.5208
  668MOL0     C88064   7.907   1.922  10.939  0.9788  0.6597 -0.4302
  668MOL0     C88065   7.819   1.896  11.069  0.3363 -0.2986  0.3723
  668MOL0     C88066   7.707   1.994  11.082 -0.1535 -0.0179 -0.1124
  668MOL0     C88067   7.635   1.960  11.208  1.5342  0.9640  0.2215
  668MOL0     O88068   7.698   2.018  11.317 -0.1751  0.5550  0.1661
  668MOL0     C88069   7.647   1.992  11.443  0.3764  0.3343  0.6243
  668MOL0     C88070   7.728   2.021  11.551 -1.4121 -0.2516  0.0530
  668MOL0     C88071   7.685   1.994  11.678  0.9134 -0.2738  0.0115
  668MOL0     C88072   7.551   1.951  11.706  0.1812 -0.1787  0.8735
  668MOL0     C88073   7.513   1.930  11.850 -0.8908 -0.1641 -0.1935
  668MOL0     O88074   7.586   1.996  11.955  0.1314  0.2237 -0.7361
  668MOL0     C88075   7.565   1.967  12.085  0.5187  0.4595  0.0802
  668MOL0     C88076   7.475   1.883  12.153  0.4303 -0.6470  0.5417
  668MOL0     C88077   7.478   1.859  12.288 -0.3510  0.7568 -0.2013
  668MOL0     C88078   7.584   1.917  12.361 -0.6824  0.2239  0.0944
  668MOL0     O88079   7.581   1.910  12.495  0.0915  0.3271  0.0362
  668MOL0     C88080   7.705   1.912  12.572 -0.4562 -0.7410 -0.1400
  668MOL0     C88081   7.674   1.870  12.718 -0.3241  0.3002  0.5110
  668MOL0     C88082   7.810   1.854  12.790 -0.4800  0.4255  0.5962
  668MOL0     C88083   7.796   1.836  12.944 -0.3998  0.4210  0.1464
  668MOL0     C88084   7.937   1.837  13.009 -0.5255  1.2451 -0.3504
  668MOL0     C88085   8.012   1.979  12.990  1.1464  0.7964 -0.3117
  668MOL0     C88086   8.150   1.981  13.055 -0.7515  0.3351 -0.6697
  668MOL0     C88087   8.209   2.124  13.033 -0.1769 -0.2447  0.4485
  668MOL0    Cl88088   8.379   2.129  13.092 -0.0442  0.2479  0.2734
  668MOL0     C88089   7.672   1.999  12.294  0.5150 -0.7240 -0.0054
  668MOL0     C88090   7.657   2.033  12.163 -0.3791  0.2483  0.9288
  668MOL0     O88091   7.406   1.873  11.866 -0.2476 -0.0332  0.1187
  668MOL0     C88092   7.467   1.923  11.594 -0.0203 -0.0179 -0.3434
  668MOL0     C88093   7.518   1.942  11.470  0.0813 -0.9611  0.1961
  668MOL0     N88094   7.741   1.983  10.758 -0.5348 -0.6006  0.7794
  668MOL0     N88095   7.679   1.932  10.658 -0.1471 -0.4901  0.4075
  668MOL0     C88096   8.645   1.691  10.120 -0.1605  0.9090 -0.2004
  668MOL0     C88097   8.754   1.694  10.031  0.0371 -0.3591 -0.1274
  668MOL0     C88098   8.965   1.654   9.621 -0.4019  0.9686  0.0868
  668MOL0     C88099   9.030   1.718   9.513  0.7235  0.0216 -0.3748
  668MOL0     C88100   9.140   1.669   9.453 -0.2774  0.3945 -0.5353
  668MOL0     C88101   9.193   1.553   9.497 -0.7907  1.3672  0.6408
  668MOL0     O88102   9.319   1.507   9.454 -0.0572 -0.1909  0.4302
  668MOL0     C88103   9.430   1.528   9.540  0.1626  0.4014  1.0410
  668MOL0     C88104   9.474   1.676   9.539  0.3631  1.2886 -0.3311
  668MOL0     C88105   9.528   1.717   9.402 -0.0703  0.7855  0.0513
  668MOL0     C88106   9.599   1.846   9.415 -0.9545 -0.2768  0.6901
  668MOL0     C88107   9.736   1.823   9.464  0.0100  0.5432  0.1828
  668MOL0     C88108   9.832   1.788   9.524 -0.7925  1.1647 -0.1547
  668MOL0     C88109   9.130   1.483   9.599  0.0026  1.2012  0.1909
  668MOL0     C88110   9.011   1.523   9.661  0.1414  0.4359 -0.3119
  668MOL0     H88111   8.592   1.620   9.740  1.4178  2.1886 -0.9059
  668MOL0     H88112   8.395   1.629   9.894  0.0315  0.6027 -0.2495
  668MOL0     H88113   8.277   1.517  10.152 -0.2304  0.3086  0.8120
  668MOL0     H88114   8.228   1.679  10.089  0.3473  0.5958 -0.1704
  668MOL0     H88115   8.185   1.745  10.325 -1.5815 -1.3358  3.1591
  668MOL0     H88116   8.298   1.621  10.374  1.8432  0.2100 -1.0832
  668MOL0     H88117   8.051   1.542  10.421 -2.1620 -4.4633 -0.8833
  668MOL0     H88118   8.132   1.452  10.292 -0.3936 -0.2452  0.8014
  668MOL0     H88119   7.973   1.704  10.227  1.4061  0.0846 -0.6587
  668MOL0     H88120   8.020   1.569  10.125 -0.6333  4.0439 -0.3409
  668MOL0     H88121   7.870   1.431  10.327 -1.4848 -0.3308  0.8205
  668MOL0     H88122   7.814   1.479  10.157  1.6084  1.5520 -1.8121
  668MOL0     H88123   7.644   1.550  10.321  0.3406 -1.1412 -0.2297
  668MOL0     H88124   7.727   1.691  10.263 -2.7091  0.6058  1.6180
  668MOL0     H88125   7.816   1.565  10.521 -2.2875  1.3692  1.8197
  668MOL0     H88126   7.870   1.720  10.442  0.5058  0.5245 -0.6884
  668MOL0     H88127   7.631   1.625  10.583  0.5912  0.7030  0.6641
  668MOL0     H88128   7.606   1.753  10.470 -0.7963 -3.0206  0.0052
  668MOL0     H88129   7.867   1.681  10.772  2.9571  1.5213 -3.6010
  668MOL0     H88130   7.933   2.028  10.938  1.3390  0.5739 -1.7966
  668MOL0     H88131   7.993   1.855  10.939  0.4048 -0.1610  1.7455
  668MOL0     H88132   7.884   1.917  11.154  3.7844  2.0759 -2.5339
  668MOL0     H88133   7.777   1.795  11.075 -0.7032  0.1953  2.1033
  668MOL0     H88134   7.746   2.096  11.074 -1.4134  0.3853 -1.4431
  668MOL0     H88135   7.638   1.981  10.998  0.6200 -0.6986 -0.6588
  668MOL0     H88136   7.622   1.853  11.226 -2.8339  0.4644 -3.8703
  668MOL0     H88137   7.533   1.997  11.195  1.2842 -0.4490 -2.6182
  668MOL0     H88138   7.829   2.056  11.529 -1.0651 -0.8211  0.6677
  668MOL0     H88139   7.759   2.011  11.754  2.3566  1.2008 -1.6327
  668MOL0     H88140   7.387   1.846  12.101 -1.9198  2.1147  2.1807
  668MOL0     H88141   7.414   1.787  12.339 -0.9273 -1.0776 -3.2787
  668MOL0     H88142   7.749   2.011  12.559 -4.1545  0.9172 -1.4153
  668MOL0     H88143   7.775   1.839  12.530  1.3979  0.6756  0.3683
  668MOL0     H88144   7.626   1.772  12.723 -1.7788  0.9559  0.0548
  668MOL0     H88145   7.624   1.953  12.769 -1.1738 -0.3964  0.8407
  668MOL0     H88146   7.856   1.951  12.772 -1.9882  0.7263 -2.2469
  668MOL0     H88147   7.874   1.775  12.750  0.1794 -0.1041  2.5840
  668MOL0     H88148   7.730   1.913  12.985  0.5609  1.2025  0.2557
  668MOL0     H88149   7.746   1.739  12.947  0.4978 -0.0707 -0.3751
  668MOL0     H88150   7.987   1.753  12.960 -2.0071 -1.6764  2.6841
  668MOL0     H88151   7.924   1.814  13.115  0.0567  1.9944 -0.1103
  668MOL0     H88152   7.939   2.047  13.036 -2.8590 -2.3088 -1.4087
  668MOL0     H88153   8.024   2.006  12.885 -1.3183  2.6559 -0.2167
  668MOL0     H88154   8.133   1.962  13.161 -1.5547  1.3566 -0.5966
  668MOL0     H88155   8.204   1.906  12.996  1.7018  2.7803 -1.7723
  668MOL0     H88156   8.151   2.196  13.092  3.1549  2.5842  0.5762
  668MOL0     H88157   8.222   2.152  12.928  3.3793 -3.6254 -0.2232
  668MOL0     H88158   7.738   2.062  12.353  0.0450  0.9326 -1.1725
  668MOL0     H88159   7.722   2.106  12.117  1.4124 -2.4363 -1.1189
  668MOL0     H88160   7.369   1.881  11.613  0.5870 -0.5655  2.0015
  668MOL0     H88161   7.444   1.909  11.397 -2.3263 -0.4700  2.2558
  668MOL0     H88162   8.650   1.696  10.228 -1.2047 -1.3809 -0.0018
  668MOL0     H88163   8.855   1.699  10.072 -0.1400 -4.1790  1.1870
  668MOL0     H88164   8.984   1.811   9.482 -0.2750 -0.5642 -0.6893
  668MOL0     H88165   9.198   1.731   9.386  0.6312  1.9356  1.5611
  668MOL0     H88166   9.511   1.467   9.499 -0.1586  1.3354 -1.1372
  668MOL0     H88167   9.393   1.498   9.639 -2.1104 -0.2425  0.0651
  668MOL0     H88168   9.390   1.739   9.570 -1.4464 -0.7345 -0.9340
  668MOL0     H88169   9.553   1.680   9.615  0.0384  1.0405  0.0221
  668MOL0     H88170   9.435   1.722   9.345 -0.8009 -2.1787  0.8412
  668MOL0     H88171   9.587   1.634   9.361 -2.7194 -1.4446  0.4936
  668MOL0     H88172   9.599   1.883   9.312  1.5650 -2.5482 -0.2363
  668MOL0     H88173   9.548   1.918   9.480 -1.9001  0.3537 -0.7126
  668MOL0     H88174   9.902   1.749   9.595 -0.2988  0.2559 -1.1165
  668MOL0     H88175   9.173   1.384   9.615  1.2118  1.7305  0.3098
  668MOL0     H88176   8.958   1.459   9.730  0.4183 -0.9037 -1.2958
  669MOL0     O88177   8.500   2.846   4.124 -0.1935  0.2541 -0.5601
  669MOL0     C88178   8.595   2.773   4.103  0.6469  0.7459 -0.3816
  669MOL0     O88179   8.586   2.632   4.091 -0.4267  0.1695 -0.1961
  669MOL0     C88180   8.466   2.564   4.099 -0.4892  0.6689 -0.0418
  669MOL0     C88181   8.428   2.475   4.001 -0.3006 -0.5239  0.7010
  669MOL0     C88182   8.304   2.413   3.993  0.1401 -0.9039 -1.3816
  669MOL0     C88183   8.208   2.437   4.095  0.6171  0.2148  0.1213
  669MOL0     O88184   8.088   2.374   4.088  0.7592  0.5700 -0.1929
  669MOL0     C88185   8.001   2.409   3.980 -0.8231  0.7449  0.1090
  669MOL0     C88186   7.870   2.347   4.009 -0.3268  0.7206  0.0363
  669MOL0     C88187   7.760   2.417   3.928 -0.1669  0.3961  1.0220
  669MOL0     C88188   7.619   2.361   3.964 -0.1362  0.1094  0.8527
  669MOL0     C88189   7.602   2.218   3.925  0.4524 -0.1834 -0.2254
  669MOL0     C88190   7.574   2.188   3.778  0.1945 -0.5740  0.0994
  669MOL0     C88191   7.530   2.051   3.728  0.2280 -0.0807  0.6413
  669MOL0     C88192   7.617   1.928   3.773 -0.1482 -0.6228  0.4957
  669MOL0     N88193   7.549   1.805   3.762 -0.0601 -0.0199 -0.2128
  669MOL0     C88194   7.607   1.688   3.734  0.3016 -0.2872  0.2501
  669MOL0     C88195   7.507   1.593   3.740  0.4892  0.3817 -0.0354
  669MOL0     C88196   7.523   1.449   3.702  0.7425  0.4564 -0.7292
  669MOL0     C88197   7.587   1.358   3.803  0.5165 -0.5738  0.0905
  669MOL0     C88198   7.561   1.212   3.772 -0.0377  0.1412  0.8059
  669MOL0     C88199   7.416   1.155   3.787  0.8257  0.0429 -0.2315
  669MOL0     O88200   7.428   1.040   3.712  0.0334 -0.4247  0.9125
  669MOL0     C88201   7.373   0.919   3.758  0.3317 -0.5484  1.0421
  669MOL0     C88202   7.309   0.837   3.667  0.3204 -0.2529 -0.7119
  669MOL0     C88203   7.237   0.718   3.712 -0.8105 -0.2363 -0.7175
  669MOL0     C88204   7.245   0.687   3.852 -0.2067 -0.7031  0.8952
  669MOL0     C88205   7.161   0.575   3.894 -0.5839  0.5141  0.5027
  669MOL0     O88206   7.055   0.538   3.811 -0.2602  0.4811  0.3775
  669MOL0     C88207   6.965   0.439   3.851  0.0676 -0.0568 -0.6202
  669MOL0     C88208   7.001   0.319   3.918 -0.0073  0.4219  0.4157
  669MOL0     C88209   6.903   0.236   3.970 -0.2759 -0.0598 -0.5058
  669MOL0     C88210   6.763   0.274   3.970 -0.2892 -0.8407  0.2891
  669MOL0     O88211   6.669   0.190   4.026  0.1062  0.0350  0.1665
  669MOL0     C88212   6.557   0.233   4.109 -0.7792  0.7312  0.2447
  669MOL0     C88213   6.487   0.103   4.155  0.6433  0.0541 -0.1509
  669MOL0     C88214   6.455   0.004   4.041 -1.0522 -0.5109  0.0916
  669MOL0     C88215   6.402  -0.142   4.101  0.6103  0.2187  0.3387
  669MOL0     C88216   6.296  -0.129   4.213 -0.4137 -0.8944 -0.4191
  669MOL0     C88217   6.179  -0.057   4.152 -0.6873 -0.3357 -0.2498
  669MOL0     C88218   6.050  -0.038   4.236  1.3264  0.3938 -0.5640
  669MOL0     C88219   5.962  -0.163   4.234  0.2390 -0.4338  0.0706
  669MOL0    Cl88220   5.781  -0.122   4.234  0.0192 -0.3737  0.4848
  669MOL0     C88221   6.729   0.394   3.902  0.4864  0.0266  0.7996
  669MOL0     C88222   6.830   0.471   3.833  0.1320 -0.9564  1.1518
  669MOL0     O88223   7.183   0.523   4.000 -0.3276  0.7043 -0.2948
  669MOL0     C88224   7.331   0.757   3.940  0.4221  0.0494  0.6945
  669MOL0     C88225   7.385   0.879   3.892  0.5163  0.4458 -0.1922
  669MOL0     N88226   7.396   1.664   3.782 -0.5632  0.4534  0.9966
  669MOL0     N88227   7.414   1.788   3.778  0.4573 -0.1980  0.0555
  669MOL0     C88228   8.247   2.515   4.205  0.0907  0.1754 -0.0667
  669MOL0     C88229   8.379   2.577   4.205  0.6359  0.0664 -0.4518
  669MOL0     C88230   8.737   2.832   4.131  0.2851  0.4383 -0.5236
  669MOL0     C88231   8.765   2.970   4.149  0.1111 -0.0989  1.2345
  669MOL0     C88232   8.890   3.025   4.181 -0.2749  0.2920  0.0265
  669MOL0     C88233   8.995   2.934   4.201 -0.7155  0.1473 -0.2503
  669MOL0     O88234   9.114   2.995   4.231  0.3815  0.3831  0.0497
  669MOL0     C88235   9.209   2.905   4.289  0.0360 -0.6589 -0.6110
  669MOL0     C88236   9.343   2.974   4.320 -0.0233 -0.0036  0.2000
  669MOL0     C88237   9.382   3.063   4.204  0.5125  0.8207 -0.5489
  669MOL0     C88238   9.503   3.154   4.233 -0.3746  0.4108 -1.0841
  669MOL0     C88239   9.543   3.245   4.125 -0.8176  0.5179  0.2077
  669MOL0     C88240   9.606   3.321   4.058 -0.3893 -0.6335  0.1760
  669MOL0     C88241   8.969   2.799   4.179  0.0994  0.0410 -0.1449
  669MOL0     C88242   8.841   2.748   4.162  0.1070  0.0143 -0.0267
  669MOL0     H88243   8.508   2.458   3.929  0.8119  1.0658  1.5021
  669MOL0     H88244   8.286   2.340   3.915  1.7261 -0.9877 -1.7053
  669MOL0     H88245   8.045   2.370   3.888 -0.1116  0.6114  0.4973
  669MOL0     H88246   7.993   2.518   3.972  4.1405  1.2978 -0.2569
  669MOL0     H88247   7.838   2.364   4.112  1.5570 -2.3993  1.2812
  669MOL0     H88248   7.880   2.239   3.995 -0.8786  0.7282 -0.4682
  669MOL0     H88249   7.772   2.416   3.819 -0.2226  2.3103  0.9548
  669MOL0     H88250   7.761   2.522   3.958  0.5301 -0.0439  2.6364
  669MOL0     H88251   7.593   2.387   4.067 -0.2473  3.0182  0.1855
  669MOL0     H88252   7.541   2.416   3.910  0.2930 -0.2429 -0.1538
  669MOL0     H88253   7.518   2.176   3.982  0.7818 -2.7015 -1.4771
  669MOL0     H88254   7.694   2.167   3.955  0.7181  0.9009  0.8959
  669MOL0     H88255   7.668   2.207   3.724  0.3470 -0.0178  0.5504
  669MOL0     H88256   7.498   2.259   3.744 -1.0993 -2.4365 -1.0954
  669MOL0     H88257   7.436   2.034   3.783  0.5256  1.7360  1.8013
  669MOL0     H88258   7.508   2.048   3.621  0.3050 -1.2816  0.6475
  669MOL0     H88259   7.627   1.952   3.879 -1.6836  0.2922  0.4587
  669MOL0     H88260   7.717   1.930   3.728 -0.4519 -1.8307 -0.2754
  669MOL0     H88261   7.708   1.674   3.696  0.6063  1.6183  0.2505
  669MOL0     H88262   7.584   1.437   3.611 -0.1157 -1.2881 -1.1168
  669MOL0     H88263   7.424   1.413   3.672  0.6779 -1.9086  1.9093
  669MOL0     H88264   7.544   1.387   3.899  0.8617  0.4814 -0.0597
  669MOL0     H88265   7.694   1.382   3.804  0.4025 -0.0663  1.6257
  669MOL0     H88266   7.598   1.195   3.670 -2.9618  2.2157 -0.7484
  669MOL0     H88267   7.625   1.166   3.848  0.3577  2.6077  2.0820
  669MOL0     H88268   7.337   1.216   3.741  0.6005 -0.5744 -0.6628
  669MOL0     H88269   7.400   1.147   3.895  1.3053 -1.6865 -0.2643
  669MOL0     H88270   7.322   0.872   3.565  3.0184  3.5352  0.6836
  669MOL0     H88271   7.194   0.642   3.648 -0.0044  1.3428 -3.3036
  669MOL0     H88272   7.102   0.286   3.941  1.1934  2.2820 -1.6935
  669MOL0     H88273   6.924   0.151   4.034 -1.6103  0.5867  0.8612
  669MOL0     H88274   6.486   0.299   4.058 -1.0875  0.2818  0.0855
  669MOL0     H88275   6.598   0.284   4.196 -1.7023  1.3238  0.3536
  669MOL0     H88276   6.388   0.137   4.186 -0.0358 -0.7653 -1.3692
  669MOL0     H88277   6.546   0.055   4.234  2.5356 -1.4860 -2.3576
  669MOL0     H88278   6.538  -0.016   3.972 -2.0862 -0.1930 -1.3002
  669MOL0     H88279   6.379   0.058   3.985  0.2182  1.3399  0.0509
  669MOL0     H88280   6.352  -0.184   4.013 -0.9943 -0.6718  1.6112
  669MOL0     H88281   6.484  -0.208   4.131  0.6543 -2.0766 -4.0781
  669MOL0     H88282   6.325  -0.075   4.304  0.7732 -5.4829  2.2373
  669MOL0     H88283   6.272  -0.230   4.248 -0.2112 -0.3368  1.3895
  669MOL0     H88284   6.152  -0.115   4.063 -1.2299 -1.6555  0.7361
  669MOL0     H88285   6.210   0.046   4.133  1.0721 -0.9145 -0.7686
  669MOL0     H88286   6.070  -0.017   4.341  4.7155 -1.3039 -0.7349
  669MOL0     H88287   5.999   0.047   4.190 -2.5671 -0.5747  1.5580
  669MOL0     H88288   5.989  -0.214   4.326 -2.3022  2.5223  2.6781
  669MOL0     H88289   5.977  -0.213   4.138  1.2656 -0.6715  0.3470
  669MOL0     H88290   6.625   0.427   3.900  1.0090  1.8580  1.5164
  669MOL0     H88291   6.810   0.561   3.777 -1.7740 -2.5238 -0.8736
  669MOL0     H88292   7.337   0.722   4.042  0.8178 -0.2272  0.5756
  669MOL0     H88293   7.440   0.937   3.966 -1.8495  0.2816  1.8037
  669MOL0     H88294   8.185   2.524   4.293  0.2474 -0.1139  0.0736
  669MOL0     H88295   8.417   2.629   4.293 -2.9452  0.9180  0.7527
  669MOL0     H88296   8.685   3.043   4.143 -0.2125 -0.4522  1.1339
  669MOL0     H88297   8.903   3.132   4.182 -1.5030  0.4684 -0.4989
  669MOL0     H88298   9.222   2.821   4.220  0.4987 -0.9140 -0.2112
  669MOL0     H88299   9.172   2.857   4.380  1.6285  1.3303  1.2005
  669MOL0     H88300   9.337   3.032   4.413 -1.3733 -2.0704  1.5013
  669MOL0     H88301   9.419   2.896   4.332  3.7540  3.3801  0.3890
  669MOL0     H88302   9.297   3.122   4.167  0.3671  1.6595  1.0530
  669MOL0     H88303   9.402   3.002   4.115  0.0778  0.4025 -0.3606
  669MOL0     H88304   9.474   3.218   4.317  0.7677 -0.2456 -0.1465
  669MOL0     H88305   9.586   3.088   4.262 -0.5754  0.1477 -1.1017
  669MOL0     H88306   9.648   3.395   3.992 -1.8250 -1.8970 -2.3099
  669MOL0     H88307   9.053   2.732   4.164  0.6644  0.7517 -0.1775
  669MOL0     H88308   8.831   2.642   4.144  0.7544  0.1066 -1.0421
  670MOL0     O88309   1.983   9.062   7.272 -0.1715  0.5313 -0.7284
  670MOL0     C88310   1.959   9.012   7.164  0.1702 -1.3909  0.5039
  670MOL0     O88311   2.045   8.925   7.103 -0.2377 -0.5048 -0.4302
  670MOL0     C88312   2.174   8.889   7.152  0.7956  0.3713 -0.4590
  670MOL0     C88313   2.208   8.758   7.157  0.4669  0.2521  0.5194
  670MOL0     C88314   2.329   8.706   7.210  0.2309 -0.0598  0.3499
  670MOL0     C88315   2.429   8.799   7.255 -0.2134 -0.4538  0.3165
  670MOL0     O88316   2.541   8.774   7.321 -0.0365  0.1155 -0.2125
  670MOL0     C88317   2.559   8.659   7.400  0.3675 -0.0656 -0.1453
  670MOL0     C88318   2.709   8.665   7.456  0.3317  0.4679 -0.1209
  670MOL0     C88319   2.805   8.591   7.363 -0.3939  0.5569 -0.0811
  670MOL0     C88320   2.949   8.625   7.406 -0.4333 -0.4221  0.2202
  670MOL0     C88321   3.043   8.522   7.351  0.6441 -0.5613 -0.0792
  670MOL0     C88322   3.051   8.527   7.195 -0.2671 -0.4915 -0.4101
  670MOL0     C88323   3.140   8.405   7.148  0.4712 -0.6417  0.4722
  670MOL0     C88324   3.140   8.407   6.995 -0.5441 -0.4208  0.9513
  670MOL0     N88325   3.174   8.265   6.947  0.3415  0.4869 -0.6738
  670MOL0     C88326   3.309   8.219   6.958  0.7214  0.5526  0.5288
  670MOL0     C88327   3.309   8.079   6.969 -0.4834  0.5681  0.2527
  670MOL0     C88328   3.421   7.975   6.978 -0.7429 -0.0771 -0.5006
  670MOL0     C88329   3.448   7.902   6.840  0.1192 -0.0863 -0.0249
  670MOL0     C88330   3.539   7.968   6.740  0.1771 -0.9329  0.0093
  670MOL0     C88331   3.613   7.870   6.643 -0.0632  0.4698 -0.8044
  670MOL0     O88332   3.699   7.780   6.703  0.4784 -0.5995 -0.4949
  670MOL0     C88333   3.835   7.807   6.714  0.1415  0.0976 -0.0898
  670MOL0     C88334   3.916   7.699   6.727 -0.5694 -0.8500  0.2931
  670MOL0     C88335   4.056   7.715   6.743  0.6477 -0.8516  0.7713
  670MOL0     C88336   4.106   7.850   6.749  0.2870 -0.5603  0.0903
  670MOL0     C88337   4.254   7.864   6.782  0.7082  0.0009  0.6631
  670MOL0     O88338   4.322   7.758   6.752 -0.1347  0.0077  0.3413
  670MOL0     C88339   4.453   7.762   6.782  0.0647 -0.2910  0.6381
  670MOL0     C88340   4.499   7.727   6.909  0.6091 -0.0809  0.2195
  670MOL0     C88341   4.634   7.743   6.945 -0.0310  0.3872  0.2384
  670MOL0     C88342   4.720   7.780   6.843  0.0634 -0.1755  0.1821
  670MOL0     O88343   4.847   7.746   6.873 -0.1595 -0.0845 -0.3145
  670MOL0     C88344   4.951   7.832   6.828 -0.2959  0.3291  1.3405
  670MOL0     C88345   5.084   7.753   6.853 -0.7736 -0.0830  0.0425
  670MOL0     C88346   5.204   7.840   6.825 -0.3606  0.5868  0.9646
  670MOL0     C88347   5.324   7.739   6.809 -0.6300 -0.2091  0.3892
  670MOL0     C88348   5.445   7.804   6.745 -0.0087 -0.8557  0.1138
  670MOL0     C88349   5.565   7.710   6.734  1.3623  0.8328 -0.1009
  670MOL0     C88350   5.691   7.784   6.692  0.3217  1.2748 -0.4441
  670MOL0     C88351   5.813   7.691   6.679  0.1282  0.1543  0.3537
  670MOL0    Cl88352   5.977   7.785   6.649 -0.3152  0.1802  0.0412
  670MOL0     C88353   4.673   7.805   6.711 -0.5300 -0.2157  0.6289
  670MOL0     C88354   4.538   7.794   6.686  0.5415 -0.3259 -0.0777
  670MOL0     O88355   4.300   7.978   6.796  0.1938 -0.3469 -0.1425
  670MOL0     C88356   4.033   7.956   6.722 -0.2390  0.5321 -0.0744
  670MOL0     C88357   3.895   7.937   6.711 -0.8063  0.7876  0.7990
  670MOL0     N88358   3.169   8.049   6.975 -0.3199 -0.4776 -0.0973
  670MOL0     N88359   3.094   8.158   6.958  0.6000  0.1959  0.7237
  670MOL0     C88360   2.398   8.935   7.247  0.0568 -0.2195  0.7396
  670MOL0     C88361   2.273   8.978   7.202  0.6998 -0.5837 -0.1451
  670MOL0     C88362   1.828   9.049   7.098  1.0696 -0.0887  0.4442
  670MOL0     C88363   1.728   9.106   7.179  0.2114 -0.7711 -0.0643
  670MOL0     C88364   1.606   9.139   7.131 -0.2211 -0.1123 -0.0192
  670MOL0     C88365   1.577   9.110   6.998 -0.5411  0.1458  0.7304
  670MOL0     O88366   1.458   9.146   6.943 -0.1357 -0.1370 -0.3301
  670MOL0     C88367   1.371   9.220   7.030  0.1052 -0.2262  0.0478
  670MOL0     C88368   1.255   9.274   6.955 -0.3956  0.9110  0.4402
  670MOL0     C88369   1.131   9.273   7.037 -0.0315 -0.3107  0.2490
  670MOL0     C88370   1.012   9.346   6.973 -0.0902  0.2488 -0.8752
  670MOL0     C88371   0.940   9.268   6.871  0.6305  0.8675 -0.7190
  670MOL0     C88372   0.872   9.198   6.794 -0.5808  0.4894  0.4064
  670MOL0     C88373   1.667   9.038   6.910  0.1226 -0.5702 -0.0527
  670MOL0     C88374   1.791   9.018   6.969 -0.0541 -0.1371 -0.3748
  670MOL0     H88375   2.145   8.678   7.120  1.8451 -0.0267 -1.3488
  670MOL0     H88376   2.340   8.601   7.236 -2.3246  0.1979  3.1243
  670MOL0     H88377   2.545   8.568   7.343 -1.5289  0.0291  0.1128
  670MOL0     H88378   2.492   8.658   7.486  1.2287  1.4941  0.6037
  670MOL0     H88379   2.705   8.619   7.555 -2.1456 -1.3331 -0.9553
  670MOL0     H88380   2.751   8.766   7.461  1.9326 -0.0491 -2.1934
  670MOL0     H88381   2.792   8.628   7.261 -1.6735 -1.5214 -0.7525
  670MOL0     H88382   2.794   8.483   7.348 -1.2946  0.5426  0.5773
  670MOL0     H88383   2.969   8.730   7.381 -1.6883  0.6206  3.1229
  670MOL0     H88384   2.963   8.610   7.513  1.5104  2.2395  0.4450
  670MOL0     H88385   3.019   8.418   7.376 -1.5852 -0.5365 -1.8147
  670MOL0     H88386   3.131   8.541   7.413 -0.7261 -1.1891  2.1556
  670MOL0     H88387   3.085   8.625   7.161 -3.3943  1.7073  2.2485
  670MOL0     H88388   2.957   8.531   7.140  1.0858  0.8567 -2.7993
  670MOL0     H88389   3.239   8.425   7.192 -0.5449  4.8421  0.9720
  670MOL0     H88390   3.092   8.317   7.192 -4.0384  1.7899  1.0055
  670MOL0     H88391   3.211   8.483   6.963 -0.2255 -0.8039  0.7508
  670MOL0     H88392   3.046   8.438   6.947  0.7770  1.0147 -0.8444
  670MOL0     H88393   3.403   8.273   6.947  0.7608  0.1362 -1.8418
  670MOL0     H88394   3.401   7.896   7.050  2.0132 -0.0889  0.3933
  670MOL0     H88395   3.512   8.025   7.013 -1.1163  0.0956  0.2412
  670MOL0     H88396   3.355   7.891   6.785  0.6521 -0.3475 -0.8915
  670MOL0     H88397   3.482   7.802   6.868  2.2124  0.3572 -0.7907
  670MOL0     H88398   3.473   8.040   6.690 -1.5444  0.3378  3.6894
  670MOL0     H88399   3.608   8.033   6.794 -0.6910 -0.2545  0.3311
  670MOL0     H88400   3.675   7.928   6.574 -0.2892  1.9832  0.2240
  670MOL0     H88401   3.543   7.814   6.581  2.9706 -3.3864 -1.1924
  670MOL0     H88402   3.879   7.597   6.729 -0.1991 -1.0451 -1.3123
  670MOL0     H88403   4.123   7.631   6.761 -0.0091 -1.7289 -0.7367
  670MOL0     H88404   4.428   7.683   6.978  3.0106 -3.7620  0.6305
  670MOL0     H88405   4.676   7.727   7.044 -3.5508  1.7633  2.1386
  670MOL0     H88406   4.949   7.930   6.876  1.0075  1.4923 -0.8494
  670MOL0     H88407   4.933   7.855   6.723  1.8028  0.5626  0.9885
  670MOL0     H88408   5.092   7.656   6.804  1.0609  1.7222 -3.5640
  670MOL0     H88409   5.096   7.740   6.961  0.6993 -1.7034 -0.2813
  670MOL0     H88410   5.212   7.908   6.910 -2.7607  0.7113  1.1570
  670MOL0     H88411   5.191   7.898   6.733 -4.2040 -1.8123 -0.2704
  670MOL0     H88412   5.334   7.687   6.904 -2.5134  0.4635  0.9975
  670MOL0     H88413   5.296   7.663   6.735  0.2996  0.7904 -1.0508
  670MOL0     H88414   5.474   7.894   6.801 -1.7795 -2.1587  3.3430
  670MOL0     H88415   5.425   7.835   6.642  0.0860 -2.5598 -0.4419
  670MOL0     H88416   5.540   7.634   6.659  0.7827  0.7802  0.1421
  670MOL0     H88417   5.592   7.654   6.823 -0.2375 -0.4721 -0.3895
  670MOL0     H88418   5.673   7.836   6.597 -4.6705 -1.1522 -1.1913
  670MOL0     H88419   5.719   7.862   6.763 -2.2721  0.9465  1.0553
  670MOL0     H88420   5.804   7.641   6.582  1.0749 -0.1774  0.4238
  670MOL0     H88421   5.816   7.612   6.754 -0.8693  3.7382  4.5507
  670MOL0     H88422   4.732   7.820   6.622 -0.0974 -1.1913  0.7393
  670MOL0     H88423   4.499   7.802   6.585  3.1595 -1.9872 -1.3386
  670MOL0     H88424   4.084   8.051   6.714  2.0440 -0.5516  0.7544
  670MOL0     H88425   3.837   8.023   6.681 -0.6976 -0.5787 -4.3911
  670MOL0     H88426   2.473   9.006   7.282  0.2059 -0.4785  0.9479
  670MOL0     H88427   2.263   9.086   7.197 -1.1954 -0.7736 -1.7063
  670MOL0     H88428   1.731   9.122   7.287 -2.3459 -2.0818  0.2826
  670MOL0     H88429   1.546   9.187   7.208  3.4224  2.0549  1.7788
  670MOL0     H88430   1.419   9.309   7.072 -0.7365 -0.0202  0.5998
  670MOL0     H88431   1.351   9.149   7.110  1.1537 -1.0431 -0.3988
  670MOL0     H88432   1.275   9.373   6.914 -1.1556  1.0271  0.3363
  670MOL0     H88433   1.238   9.212   6.867 -2.1560  0.2188  1.2237
  670MOL0     H88434   1.144   9.321   7.134 -1.4646  3.2432 -1.1122
  670MOL0     H88435   1.103   9.171   7.064  1.4393 -0.5911  0.7955
  670MOL0     H88436   0.944   9.367   7.056  1.9147  2.9772  0.1907
  670MOL0     H88437   1.042   9.441   6.929 -1.7155  1.5184  0.6267
  670MOL0     H88438   0.803   9.136   6.740  0.4116 -0.0411 -0.2842
  670MOL0     H88439   1.638   9.039   6.806  0.7242  3.1825 -0.3081
  670MOL0     H88440   1.862   8.958   6.913 -0.4415  1.3320 -2.5896
  671MOL0     O88441   9.114   0.170   8.917  0.6079  0.3896 -0.5552
  671MOL0     C88442   9.185   0.264   8.908 -0.0259  0.0796 -0.3939
  671MOL0     O88443   9.152   0.397   8.885 -0.5326  0.4577  0.4688
  671MOL0     C88444   9.025   0.438   8.892  0.1339 -0.7110 -0.2252
  671MOL0     C88445   8.985   0.526   8.800 -0.3745  0.2522  0.1811
  671MOL0     C88446   8.852   0.575   8.793 -0.3112 -0.3980  0.6681
  671MOL0     C88447   8.746   0.514   8.875 -0.2033 -0.0944  1.1421
  671MOL0     O88448   8.610   0.543   8.862  0.2821  0.6674  0.6874
  671MOL0     C88449   8.590   0.534   8.716 -0.9701 -0.6035 -0.9637
  671MOL0     C88450   8.445   0.508   8.688  0.7253 -0.4778 -0.2037
  671MOL0     C88451   8.387   0.397   8.767  0.5332  0.1601 -0.7093
  671MOL0     C88452   8.231   0.396   8.757 -0.5480  1.0420  0.9202
  671MOL0     C88453   8.169   0.276   8.818  0.1839  0.0896 -0.0021
  671MOL0     C88454   8.014   0.278   8.850 -0.4728 -0.3374 -1.1507
  671MOL0     C88455   7.973   0.140   8.898  0.5952  0.0404  0.3147
  671MOL0     C88456   7.983   0.110   9.039 -0.3918 -0.1586 -0.3539
  671MOL0     N88457   7.890   0.169   9.131  0.8301 -0.0275 -0.1494
  671MOL0     C88458   7.752   0.151   9.138  0.7001 -0.0116 -0.2911
  671MOL0     C88459   7.704   0.222   9.248 -0.0663 -0.3249 -0.7201
  671MOL0     C88460   7.560   0.240   9.301  0.9253 -0.0031  0.0770
  671MOL0     C88461   7.512   0.098   9.348 -0.3031  0.0365  0.5383
  671MOL0     C88462   7.442   0.100   9.482  0.5418  0.7826  0.4700
  671MOL0     C88463   7.381  -0.044   9.509  0.9244  0.7743 -0.0195
  671MOL0     O88464   7.332  -0.049   9.642 -0.0543  0.5965  0.2709
  671MOL0     C88465   7.208  -0.098   9.659  0.0917  0.8692 -0.2407
  671MOL0     C88466   7.174  -0.225   9.612 -0.1546 -0.0142 -0.6623
  671MOL0     C88467   7.049  -0.273   9.637 -1.1305  0.8482 -0.0749
  671MOL0     C88468   6.949  -0.206   9.704  0.6422 -0.1796  0.7140
  671MOL0     C88469   6.818  -0.271   9.732  0.5383  0.1817  0.5686
  671MOL0     O88470   6.811  -0.409   9.708 -0.1895  0.1188 -0.5644
  671MOL0     C88471   6.705  -0.486   9.730  0.5986 -0.3866  0.0953
  671MOL0     C88472   6.576  -0.440   9.778  0.4353 -0.2811  0.5064
  671MOL0     C88473   6.476  -0.532   9.815  0.1227  0.4306  0.1587
  671MOL0     C88474   6.502  -0.668   9.810  0.9709 -0.0656 -0.5731
  671MOL0     O88475   6.392  -0.755   9.846 -1.1252  0.3390 -1.0306
  671MOL0     C88476   6.406  -0.895   9.827  1.1187  0.4088  0.5381
  671MOL0     C88477   6.285  -0.967   9.885 -0.9519  0.7553 -0.1811
  671MOL0     C88478   6.152  -0.940   9.812 -0.7377  0.4404  0.4735
  671MOL0     C88479   6.042  -1.041   9.854 -0.5734 -0.7004  0.5002
  671MOL0     C88480   5.905  -0.999   9.802 -0.8628 -0.6232 -0.0604
  671MOL0     C88481   5.789  -1.089   9.818 -0.0662 -0.0965  0.2296
  671MOL0     C88482   5.765  -1.116   9.978  0.7046  0.4915 -0.8679
  671MOL0     C88483   5.838  -1.241  10.034  0.1571 -0.5531  0.9089
  671MOL0    Cl88484   5.775  -1.393   9.956 -0.2010 -0.3830  0.0519
  671MOL0     C88485   6.624  -0.714   9.769  0.2844 -0.6294 -0.6347
  671MOL0     C88486   6.730  -0.622   9.725  0.6257  0.2157 -0.0690
  671MOL0     O88487   6.731  -0.199   9.785  0.6182  0.3132 -0.3142
  671MOL0     C88488   6.983  -0.075   9.746 -0.6091  0.2457  0.1865
  671MOL0     C88489   7.112  -0.022   9.732 -0.0483  0.4741  0.1168
  671MOL0     N88490   7.811   0.267   9.316 -0.3274 -1.0026  0.1112
  671MOL0     N88491   7.914   0.243   9.248 -0.1647 -0.4672 -0.1225
  671MOL0     C88492   8.796   0.430   8.979  0.6212  1.2481  0.1507
  671MOL0     C88493   8.934   0.398   8.994 -0.2529 -0.3885 -0.4225
  671MOL0     C88494   9.333   0.237   8.894 -0.4935  0.1943  0.4989
  671MOL0     C88495   9.394   0.110   8.923  0.4741  0.5713 -0.1747
  671MOL0     C88496   9.528   0.084   8.903  0.3566 -0.3599  0.3315
  671MOL0     C88497   9.616   0.188   8.860 -0.0153  0.3047  0.2079
  671MOL0     O88498   9.750   0.169   8.838 -0.6057 -0.4581 -0.2058
  671MOL0     C88499   9.812   0.049   8.894  0.6285 -0.2499  0.0365
  671MOL0     C88500   9.955   0.068   8.889 -0.9249 -0.2580 -0.2175
  671MOL0     C88501  10.026  -0.042   8.987  1.0623 -1.3411 -1.0333
  671MOL0     C88502  10.180  -0.040   8.978 -0.8125  1.5200  0.6679
  671MOL0     C88503  10.238   0.073   9.048  0.8529 -0.2896 -0.2169
  671MOL0     C88504  10.297   0.168   9.100  0.1254  0.7909  0.8326
  671MOL0     C88505   9.560   0.313   8.844 -0.4048 -0.6793 -0.2642
  671MOL0     C88506   9.423   0.338   8.856  0.0048 -0.1557  0.5043
  671MOL0     H88507   9.066   0.562   8.736  1.0222  0.2730  1.8889
  671MOL0     H88508   8.826   0.637   8.708  2.0295 -0.2551  0.0027
  671MOL0     H88509   8.645   0.450   8.673 -0.5801 -0.1292 -1.3984
  671MOL0     H88510   8.629   0.627   8.675  0.5563 -0.7021  0.2007
  671MOL0     H88511   8.435   0.497   8.579 -0.3530  4.5495 -0.8802
  671MOL0     H88512   8.391   0.600   8.712 -1.7772 -1.2705 -2.3375
  671MOL0     H88513   8.413   0.412   8.872  0.2753 -1.4802 -0.3886
  671MOL0     H88514   8.424   0.299   8.733  0.7665  0.6316 -1.8533
  671MOL0     H88515   8.210   0.489   8.810  2.5442  1.9005  0.8194
  671MOL0     H88516   8.195   0.406   8.654 -0.7997  3.2008  1.1893
  671MOL0     H88517   8.219   0.267   8.915 -0.8509 -2.2821  0.3838
  671MOL0     H88518   8.194   0.183   8.766 -0.7083 -0.6113  0.7744
  671MOL0     H88519   7.955   0.296   8.760  0.1903  2.5207 -1.1168
  671MOL0     H88520   7.989   0.358   8.920  0.1901  0.1284 -1.4285
  671MOL0     H88521   7.865   0.139   8.880  0.5626 -1.1746  0.4975
  671MOL0     H88522   8.027   0.065   8.840 -1.4585 -3.2799  2.4050
  671MOL0     H88523   8.083   0.139   9.075 -0.5674 -0.6330  0.5413
  671MOL0     H88524   7.977   0.001   9.040 -0.2505 -0.2093 -2.2312
  671MOL0     H88525   7.690   0.113   9.058 -0.6256 -3.2111  2.0170
  671MOL0     H88526   7.493   0.289   9.230 -0.1619  1.6354  2.0971
  671MOL0     H88527   7.558   0.306   9.388 -2.5217  0.1724 -0.0050
  671MOL0     H88528   7.602   0.038   9.361  2.5502  3.9120  0.5625
  671MOL0     H88529   7.455   0.060   9.263  1.3398 -1.8800  0.2298
  671MOL0     H88530   7.521   0.114   9.557  1.4760 -3.1100  0.4114
  671MOL0     H88531   7.365   0.177   9.485 -0.7717 -0.4963  0.5979
  671MOL0     H88532   7.451  -0.125   9.488 -1.9305 -1.4424 -1.8068
  671MOL0     H88533   7.296  -0.074   9.447  1.6802 -2.4357  0.3336
  671MOL0     H88534   7.247  -0.287   9.560  0.3711  0.6923 -0.7876
  671MOL0     H88535   7.031  -0.374   9.603 -2.6943  1.5715 -1.5187
  671MOL0     H88536   6.550  -0.335   9.786 -0.0627 -0.2419 -1.2336
  671MOL0     H88537   6.377  -0.496   9.841 -1.2031 -3.7076  1.7319
  671MOL0     H88538   6.489  -0.932   9.888  0.5363 -4.4541 -1.1828
  671MOL0     H88539   6.417  -0.923   9.722 -2.9310  1.4168 -0.3497
  671MOL0     H88540   6.275  -0.936   9.989 -1.6942 -0.2576  0.0712
  671MOL0     H88541   6.312  -1.073   9.885  0.1169  1.0184  0.0725
  671MOL0     H88542   6.166  -0.950   9.704  3.7243 -0.8154  0.9711
  671MOL0     H88543   6.130  -0.840   9.850 -0.7462 -0.3214  2.6049
  671MOL0     H88544   6.055  -1.145   9.822  0.0498 -0.2175 -0.9041
  671MOL0     H88545   6.044  -1.044   9.963 -2.1154 -0.9651  0.5430
  671MOL0     H88546   5.923  -0.975   9.697  1.3552 -0.7707  0.2247
  671MOL0     H88547   5.883  -0.908   9.857  3.8749  0.0065  1.3046
  671MOL0     H88548   5.797  -1.186   9.768 -1.9211  1.0033 -2.4054
  671MOL0     H88549   5.699  -1.041   9.779 -1.7043 -2.1306  1.3364
  671MOL0     H88550   5.785  -1.029  10.042  1.0868 -0.8214  0.8863
  671MOL0     H88551   5.661  -1.143   9.994  1.7735 -1.6906  4.1716
  671MOL0     H88552   5.825  -1.244  10.143  1.4758  0.0202  1.1098
  671MOL0     H88553   5.946  -1.231  10.017  0.3841 -0.7214  2.1058
  671MOL0     H88554   6.651  -0.819   9.761 -1.7459 -1.0981 -2.3744
  671MOL0     H88555   6.822  -0.671   9.697  1.2063  2.3158 -2.1185
  671MOL0     H88556   6.898  -0.019   9.784 -2.0063 -0.1377 -2.1691
  671MOL0     H88557   7.134   0.076   9.773  2.4891 -1.1600  3.2049
  671MOL0     H88558   8.711   0.390   9.034 -2.1400  0.0967 -4.4138
  671MOL0     H88559   8.969   0.326   9.066 -1.3104  0.5828  1.1213
  671MOL0     H88560   9.334   0.026   8.957  2.4585  0.0274  2.2789
  671MOL0     H88561   9.551  -0.021   8.919 -0.3472 -0.1170  3.6209
  671MOL0     H88562   9.796  -0.042   8.835  0.6477 -0.7138  0.7413
  671MOL0     H88563   9.776   0.032   8.996 -0.0562  1.7001  0.1685
  671MOL0     H88564   9.988   0.067   8.784  2.6525 -0.3166  0.7623
  671MOL0     H88565   9.992   0.165   8.924  2.0807 -0.0906 -3.2010
  671MOL0     H88566   9.991  -0.136   8.944 -0.4608 -0.5367 -1.6184
  671MOL0     H88567   9.990  -0.025   9.089  3.1377 -0.6183 -0.3675
  671MOL0     H88568  10.218  -0.132   9.022 -1.3469  0.1643 -1.5358
  671MOL0     H88569  10.210  -0.032   8.873  0.0058 -1.3490  0.6144
  671MOL0     H88570  10.332   0.256   9.150  1.8515 -0.5320  2.0670
  671MOL0     H88571   9.630   0.388   8.808 -2.3265  0.2897 -2.2372
  671MOL0     H88572   9.378   0.435   8.841 -2.1491 -1.3811 -1.6984
  672MOL0     O88573  11.276   4.098   1.573  0.2810  0.2751  0.5383
  672MOL0     C88574  11.285   4.019   1.663 -0.4171  0.0920 -0.6589
  672MOL0     O88575  11.181   3.953   1.716  0.7570 -0.5915 -0.3298
  672MOL0     C88576  11.058   3.984   1.680 -0.1351  0.2914 -0.5508
  672MOL0     C88577  10.953   4.044   1.758  0.3241  0.0139 -0.3899
  672MOL0     C88578  10.821   4.062   1.700 -0.6843  0.4874  0.7663
  672MOL0     C88579  10.807   4.041   1.562 -0.1914  0.3105  0.2466
  672MOL0     O88580  10.685   4.068   1.497 -0.9008  0.1562  0.0954
  672MOL0     C88581  10.689   4.109   1.351  0.3714  0.4753 -0.5215
  672MOL0     C88582  10.750   4.245   1.338 -0.8706 -0.3406 -0.4911
  672MOL0     C88583  10.683   4.347   1.426  0.3003  0.2418  0.3614
  672MOL0     C88584  10.724   4.497   1.415  0.2919 -1.0758  0.2618
  672MOL0     C88585  10.747   4.543   1.266  0.3806  0.1948 -0.1074
  672MOL0     C88586  10.743   4.700   1.260  1.0139 -0.3038  0.6634
  672MOL0     C88587  10.876   4.745   1.323  0.8121 -0.3982 -0.2789
  672MOL0     C88588  10.997   4.729   1.219 -0.2578 -1.0030  0.4497
  672MOL0     N88589  11.048   4.592   1.204 -0.4822  0.9631  0.4722
  672MOL0     C88590  11.140   4.531   1.284 -0.3296  0.1246 -0.8562
  672MOL0     C88591  11.195   4.444   1.195  0.3128  0.1460 -0.1740
  672MOL0     C88592  11.328   4.375   1.219  0.3937  0.0214  0.2099
  672MOL0     C88593  11.311   4.220   1.196  0.4261  0.3666 -0.4901
  672MOL0     C88594  11.437   4.142   1.237  0.7259 -0.1322  0.3634
  672MOL0     C88595  11.569   4.175   1.162 -0.8529 -0.8357  0.4153
  672MOL0     O88596  11.668   4.225   1.263  0.8680 -0.0253 -0.2131
  672MOL0     C88597  11.787   4.268   1.212 -0.7418 -0.5144  0.1961
  672MOL0     C88598  11.889   4.299   1.304  0.2991  0.6505 -0.1583
  672MOL0     C88599  12.013   4.348   1.261 -1.3635  0.7989 -0.2382
  672MOL0     C88600  12.054   4.357   1.131  0.4901 -1.1607 -0.0656
  672MOL0     C88601  12.187   4.397   1.100 -0.0873  0.0972 -0.3319
  672MOL0     O88602  12.274   4.406   1.209 -1.4061 -0.0901 -0.4197
  672MOL0     C88603  12.391   4.458   1.190  0.0382 -0.6264  0.4676
  672MOL0     C88604  12.497   4.381   1.220 -0.1423 -0.2960  0.4532
  672MOL0     C88605  12.629   4.428   1.206  0.5207  0.4997  0.0355
  672MOL0     C88606  12.654   4.569   1.193  0.6903 -0.2328  1.0609
  672MOL0     O88607  12.787   4.601   1.165 -0.2173  0.4891 -0.1855
  672MOL0     C88608  12.820   4.730   1.121  0.2672 -0.9731  0.9499
  672MOL0     C88609  12.829   4.836   1.229  0.4971  0.5758  0.6374
  672MOL0     C88610  12.873   4.970   1.181 -0.1971  0.4159 -0.5037
  672MOL0     C88611  12.887   5.072   1.292 -0.2883 -0.9488 -0.0730
  672MOL0     C88612  12.875   5.221   1.243  0.1388 -0.2121 -0.6144
  672MOL0     C88613  12.969   5.258   1.126  0.0472  0.0671  0.2789
  672MOL0     C88614  13.113   5.252   1.171  0.1905  0.0927  0.0955
  672MOL0     C88615  13.210   5.151   1.116 -0.7217 -0.0667 -0.5926
  672MOL0    Cl88616  13.377   5.179   1.171 -0.1261  0.2161 -0.0499
  672MOL0     C88617  12.542   4.657   1.187 -0.6260 -0.1707  0.1097
  672MOL0     C88618  12.406   4.602   1.176 -0.8568  0.2434 -0.5051
  672MOL0     O88619  12.215   4.418   0.984  0.6484  0.0070 -0.8494
  672MOL0     C88620  11.959   4.316   1.041 -0.4454  0.1204 -0.3965
  672MOL0     C88621  11.829   4.268   1.074  0.3222 -0.1991 -0.5304
  672MOL0     N88622  11.133   4.442   1.072 -1.0254 -0.4603 -0.0793
  672MOL0     N88623  11.045   4.535   1.078 -0.0028 -0.1628  0.4216
  672MOL0     C88624  10.913   3.989   1.491  0.8028  0.9670 -0.7049
  672MOL0     C88625  11.031   3.950   1.548  0.1901 -0.1715  0.0315
  672MOL0     C88626  11.421   3.999   1.706 -0.1562  0.0557 -0.0246
  672MOL0     C88627  11.531   4.076   1.667 -0.9588  0.0044 -0.5890
  672MOL0     C88628  11.661   4.061   1.708 -0.0920  0.3294  0.0655
  672MOL0     C88629  11.689   3.957   1.796  0.0890 -0.2159  0.2625
  672MOL0     O88630  11.826   3.940   1.825 -0.3076  0.3332  0.2637
  672MOL0     C88631  11.868   3.806   1.879  0.4696  0.0775  0.1976
  672MOL0     C88632  12.026   3.800   1.863  0.9902  0.4414 -0.8767
  672MOL0     C88633  12.096   3.924   1.921  0.2392  0.5404  0.5529
  672MOL0     C88634  12.036   3.965   2.056  0.2128  0.4664  0.5850
  672MOL0     C88635  12.119   4.069   2.112 -0.4999 -0.4304  0.5207
  672MOL0     C88636  12.186   4.157   2.146  0.1749 -0.0162 -0.5543
  672MOL0     C88637  11.591   3.866   1.837  0.8881  0.3076 -0.2131
  672MOL0     C88638  11.456   3.892   1.796 -0.3370  0.0574 -0.2012
  672MOL0     H88639  10.966   4.058   1.865  0.0771  2.0604 -0.5891
  672MOL0     H88640  10.738   4.093   1.763 -0.9231  0.5556  0.4144
  672MOL0     H88641  10.587   4.110   1.311 -0.6310  0.9434  1.8784
  672MOL0     H88642  10.739   4.039   1.283 -1.4122  1.0933 -2.5911
  672MOL0     H88643  10.770   4.269   1.233  1.3597  1.8842  0.3401
  672MOL0     H88644  10.852   4.245   1.379 -0.6233  0.1648 -1.0852
  672MOL0     H88645  10.691   4.315   1.530 -0.7454 -2.3785 -0.2870
  672MOL0     H88646  10.576   4.347   1.405  0.5785 -0.9050 -1.2103
  672MOL0     H88647  10.644   4.554   1.462 -0.8081 -0.7366 -1.8869
  672MOL0     H88648  10.819   4.498   1.470  0.2078  0.5304  0.4269
  672MOL0     H88649  10.658   4.501   1.217  0.5610 -1.9256  1.2096
  672MOL0     H88650  10.830   4.497   1.212  0.1686  0.2207 -0.4615
  672MOL0     H88651  10.659   4.737   1.321  2.0045 -1.3745  2.8054
  672MOL0     H88652  10.727   4.723   1.155  1.2298 -2.9732 -0.0278
  672MOL0     H88653  10.857   4.851   1.342  0.9561  0.0236 -2.2236
  672MOL0     H88654  10.908   4.695   1.414 -0.0903 -0.6869 -0.1172
  672MOL0     H88655  11.087   4.785   1.244  0.3357 -0.6363 -2.2123
  672MOL0     H88656  10.958   4.766   1.123  1.8878  3.2827  1.0188
  672MOL0     H88657  11.181   4.554   1.382 -0.4017  0.1189 -0.8246
  672MOL0     H88658  11.358   4.394   1.322  2.9565 -0.4181 -0.3801
  672MOL0     H88659  11.414   4.412   1.161  1.5030  0.3112  1.9691
  672MOL0     H88660  11.292   4.213   1.089  0.4186 -0.5151 -0.4393
  672MOL0     H88661  11.228   4.182   1.255  0.2956  0.7472 -0.4249
  672MOL0     H88662  11.446   4.153   1.345  4.0376  1.6014  0.0773
  672MOL0     H88663  11.410   4.041   1.206  1.4575  1.1298 -5.8796
  672MOL0     H88664  11.544   4.243   1.080  0.5721  2.0096  2.1554
  672MOL0     H88665  11.598   4.087   1.105 -0.0784  0.0688 -0.6314
  672MOL0     H88666  11.864   4.305   1.410  1.2891 -0.5435  0.1694
  672MOL0     H88667  12.076   4.366   1.348  1.6411  0.1006 -2.1043
  672MOL0     H88668  12.478   4.277   1.246  0.9575 -0.0016  2.7354
  672MOL0     H88669  12.712   4.359   1.199 -0.2576 -0.7531  2.2674
  672MOL0     H88670  12.749   4.753   1.040  1.3646 -0.1512  0.1872
  672MOL0     H88671  12.915   4.722   1.068 -0.1301 -1.7037  0.3218
  672MOL0     H88672  12.893   4.803   1.310  1.8689  4.1576  1.1903
  672MOL0     H88673  12.734   4.860   1.278 -0.1783  1.9321 -1.2190
  672MOL0     H88674  12.799   5.014   1.114 -1.3662 -1.6056 -0.6242
  672MOL0     H88675  12.965   4.955   1.124  0.0532 -0.1667  0.0301
  672MOL0     H88676  12.801   5.051   1.355  0.7128 -3.4985  0.5538
  672MOL0     H88677  12.977   5.049   1.349  0.0304 -1.8160 -0.8990
  672MOL0     H88678  12.910   5.279   1.329 -0.3217  0.0847 -0.6273
  672MOL0     H88679  12.775   5.249   1.210  1.1231 -0.2983 -4.1377
  672MOL0     H88680  12.953   5.360   1.090  0.1513 -0.2901 -0.7984
  672MOL0     H88681  12.951   5.204   1.033  4.2645  3.6273 -3.0490
  672MOL0     H88682  13.153   5.344   1.127  0.3370  0.7509  1.5708
  672MOL0     H88683  13.112   5.252   1.280  0.2004 -1.1669  0.1114
  672MOL0     H88684  13.210   5.154   1.006  0.6431  0.7474 -0.5963
  672MOL0     H88685  13.179   5.049   1.142 -3.3959  0.0414 -2.7908
  672MOL0     H88686  12.551   4.763   1.166  0.1005 -1.1844 -7.5318
  672MOL0     H88687  12.321   4.669   1.172 -0.6074  0.5837 -0.1987
  672MOL0     H88688  11.997   4.322   0.940  2.9940  1.1327  0.7798
  672MOL0     H88689  11.762   4.239   0.994 -1.3451  0.9239  0.3910
  672MOL0     H88690  10.889   3.953   1.391 -3.0245  0.1326  0.3163
  672MOL0     H88691  11.110   3.902   1.490  0.3970  3.0950 -2.6740
  672MOL0     H88692  11.511   4.155   1.595 -2.6665  1.3414  1.2483
  672MOL0     H88693  11.731   4.128   1.661  2.3203 -2.4414 -0.5973
  672MOL0     H88694  11.820   3.727   1.820 -0.7889 -0.4012  1.8188
  672MOL0     H88695  11.825   3.798   1.979  1.3345 -0.7362  0.5187
  672MOL0     H88696  12.065   3.713   1.918 -3.4254 -1.1579  0.1919
  672MOL0     H88697  12.055   3.786   1.759 -0.3124 -2.1117 -0.9887
  672MOL0     H88698  12.087   4.007   1.850  3.2608 -1.2359 -2.2126
  672MOL0     H88699  12.203   3.900   1.928  1.8140  5.3106 -2.4779
  672MOL0     H88700  11.935   4.004   2.044  1.3105  2.9528 -1.3455
  672MOL0     H88701  12.042   3.884   2.130 -0.7600  0.9989  1.2626
  672MOL0     H88702  12.234   4.245   2.183  0.7605  1.1076 -3.7250
  672MOL0     H88703  11.618   3.778   1.895  0.9787 -0.8710 -1.9816
  672MOL0     H88704  11.371   3.827   1.812  0.3145 -1.3472 -2.0668
  673MOL0     O88705  10.089   0.769  10.869  0.6404  0.4123  0.8719
  673MOL0     C88706  10.119   0.709  10.763 -0.0442  1.2368 -0.7942
  673MOL0     O88707  10.040   0.664  10.667  0.8549  0.4592  0.7789
  673MOL0     C88708   9.903   0.659  10.681  0.2105  0.6892  1.0813
  673MOL0     C88709   9.831   0.558  10.751 -0.1790 -0.1503 -1.1616
  673MOL0     C88710   9.691   0.559  10.743 -0.1341  0.1808 -0.0566
  673MOL0     C88711   9.622   0.659  10.676 -0.4415 -0.3709 -0.7774
  673MOL0     O88712   9.495   0.644  10.648  0.3697 -0.0397  0.3663
  673MOL0     C88713   9.439   0.516  10.632  0.1999 -0.7221 -0.3644
  673MOL0     C88714   9.366   0.472  10.765  0.0969 -0.5511  0.2573
  673MOL0     C88715   9.284   0.338  10.737 -0.6988 -0.2455 -0.0163
  673MOL0     C88716   9.221   0.293  10.863 -0.5859  0.5172 -0.3873
  673MOL0     C88717   9.125   0.171  10.844 -0.3033 -0.4265  0.9351
  673MOL0     C88718   9.032   0.137  10.963 -0.2808 -1.2159  0.4292
  673MOL0     C88719   8.924   0.245  10.979  0.5319 -0.2688 -0.9685
  673MOL0     C88720   8.833   0.269  10.859 -0.3084 -1.2107 -0.4280
  673MOL0     N88721   8.731   0.372  10.902  0.2546  0.1507 -0.0116
  673MOL0     C88722   8.753   0.510  10.885  0.5060  1.1012  0.0946
  673MOL0     C88723   8.664   0.554  10.972 -0.0088 -0.2878  0.3645
  673MOL0     C88724   8.640   0.698  11.001 -0.0998  0.6871 -0.0077
  673MOL0     C88725   8.685   0.740  11.138  0.2009 -0.3520 -0.8824
  673MOL0     C88726   8.689   0.896  11.154  0.4522  0.3404 -0.7046
  673MOL0     C88727   8.814   0.970  11.096  0.8508 -0.2342  1.0316
  673MOL0     O88728   8.788   1.003  10.960 -0.7640 -0.1679 -0.0441
  673MOL0     C88729   8.762   1.136  10.923 -0.4260 -0.1035  0.8260
  673MOL0     C88730   8.637   1.191  10.937 -0.3100 -0.1197  0.1504
  673MOL0     C88731   8.633   1.326  10.925  0.4200 -0.0451 -0.0359
  673MOL0     C88732   8.736   1.400  10.864 -0.2155  0.2673  0.0726
  673MOL0     C88733   8.733   1.547  10.855 -0.8539  0.0283  0.5309
  673MOL0     O88734   8.625   1.605  10.912  0.4410  0.2737 -0.1812
  673MOL0     C88735   8.616   1.743  10.934  0.0242  0.5772 -0.2720
  673MOL0     C88736   8.490   1.796  10.921 -0.5203  0.7603 -0.0521
  673MOL0     C88737   8.458   1.925  10.949 -0.3609  0.1456  0.1326
  673MOL0     C88738   8.567   2.012  10.995  0.3686  0.7805  0.5372
  673MOL0     O88739   8.553   2.150  11.006  0.0568  0.1217  0.4628
  673MOL0     C88740   8.427   2.204  10.986  0.7072 -0.8852 -0.0440
  673MOL0     C88741   8.429   2.353  11.002 -1.3142 -0.9987 -0.0361
  673MOL0     C88742   8.503   2.422  10.883  0.3626 -0.1558 -0.3944
  673MOL0     C88743   8.538   2.562  10.910  0.3432  0.3559  1.0023
  673MOL0     C88744   8.595   2.636  10.788  0.5119  0.6573  0.0243
  673MOL0     C88745   8.706   2.558  10.716  0.2202  0.5085 -0.3523
  673MOL0     C88746   8.724   2.617  10.586 -0.4004 -0.9407  0.2510
  673MOL0     C88747   8.830   2.550  10.481  0.2664  0.3199  0.5486
  673MOL0    Cl88748   8.758   2.422  10.381 -0.0445  0.0457 -0.0419
  673MOL0     C88749   8.694   1.956  11.019  0.4703  0.6975  0.9277
  673MOL0     C88750   8.714   1.819  10.991 -0.3620  0.0329  0.5405
  673MOL0     O88751   8.839   1.607  10.818 -0.3138 -0.5352 -0.3816
  673MOL0     C88752   8.858   1.339  10.830  0.4309  0.2447 -1.0260
  673MOL0     C88753   8.876   1.209  10.873  0.5091 -0.4663  0.5898
  673MOL0     N88754   8.588   0.459  11.027 -0.5192  0.5595 -0.2438
  673MOL0     N88755   8.626   0.350  10.978  0.6875 -0.2277  0.7480
  673MOL0     C88756   9.689   0.768  10.637 -0.0560  0.3916 -0.6859
  673MOL0     C88757   9.830   0.766  10.632 -0.2974  0.0681 -0.4237
  673MOL0     C88758  10.259   0.670  10.748 -0.0577 -0.6412 -1.5129
  673MOL0     C88759  10.332   0.626  10.856 -1.5044 -0.2861  0.6428
  673MOL0     C88760  10.455   0.563  10.837 -0.5817 -0.8328 -0.0960
  673MOL0     C88761  10.512   0.575  10.708 -0.6651 -0.0199 -0.2471
  673MOL0     O88762  10.635   0.526  10.676 -0.6621 -0.1111 -0.4090
  673MOL0     C88763  10.732   0.495  10.785  0.3623 -0.1991 -0.4875
  673MOL0     C88764  10.872   0.474  10.725 -0.3854 -0.6435 -0.6414
  673MOL0     C88765  10.938   0.600  10.647  0.5663  0.2721  0.2105
  673MOL0     C88766  11.090   0.594  10.658 -0.4384 -1.2336 -0.6730
  673MOL0     C88767  11.153   0.476  10.605  0.3999 -0.0606  0.2700
  673MOL0     C88768  11.215   0.384  10.559  0.9870  0.1215  0.0493
  673MOL0     C88769  10.453   0.639  10.607 -0.0318  0.1086  0.4886
  673MOL0     C88770  10.321   0.683  10.623 -0.7506  0.6299  0.7012
  673MOL0     H88771   9.885   0.474  10.794 -0.2656 -0.1801 -1.1128
  673MOL0     H88772   9.630   0.483  10.791  1.0669  0.1321  1.4729
  673MOL0     H88773   9.513   0.444  10.597  0.4651 -1.0776  0.8775
  673MOL0     H88774   9.370   0.531  10.548 -0.8324 -1.6244  0.2828
  673MOL0     H88775   9.302   0.555  10.796  2.1609  1.0545  0.4154
  673MOL0     H88776   9.441   0.462  10.844  1.6962  2.4920 -0.7152
  673MOL0     H88777   9.350   0.258  10.703  1.2151  1.6720 -1.1015
  673MOL0     H88778   9.207   0.355  10.661 -0.5478  2.9067  0.3839
  673MOL0     H88779   9.296   0.270  10.939 -1.6646 -1.5351  0.1148
  673MOL0     H88780   9.161   0.378  10.899 -4.2497 -0.4750 -3.4305
  673MOL0     H88781   9.188   0.083  10.829  1.4049  0.7780  0.8337
  673MOL0     H88782   9.071   0.187  10.751  0.2402  0.6100  0.7914
  673MOL0     H88783   9.095   0.132  11.052  1.4845  1.9293 -0.4741
  673MOL0     H88784   8.975   0.045  10.946 -1.9759  0.1590 -2.0814
  673MOL0     H88785   8.862   0.211  11.062  1.5189  1.8056  0.6791
  673MOL0     H88786   8.975   0.338  11.002  0.9124 -0.4898 -0.9120
  673MOL0     H88787   8.787   0.175  10.826 -1.4899 -0.2544 -1.6254
  673MOL0     H88788   8.901   0.312  10.784  0.6967 -0.6713  0.7590
  673MOL0     H88789   8.817   0.570  10.822  1.0766  0.0941 -0.3152
  673MOL0     H88790   8.537   0.733  10.988  0.5931  2.2135 -2.0575
  673MOL0     H88791   8.711   0.740  10.929  2.7877 -2.6403  0.6136
  673MOL0     H88792   8.783   0.703  11.170 -0.8003 -1.2810  1.3159
  673MOL0     H88793   8.616   0.689  11.205  1.7814 -0.8189  0.4341
  673MOL0     H88794   8.590   0.943  11.143 -1.2664 -1.6667  3.8335
  673MOL0     H88795   8.690   0.916  11.262 -3.5001 -1.4081 -0.1768
  673MOL0     H88796   8.910   0.917  11.106  3.3330  3.3625 -1.2334
  673MOL0     H88797   8.822   1.065  11.149 -0.2885 -0.2403  1.2355
  673MOL0     H88798   8.561   1.132  10.987 -1.3643  2.4180  1.7277
  673MOL0     H88799   8.535   1.368  10.944 -0.7953 -1.6595 -2.3167
  673MOL0     H88800   8.410   1.735  10.878  0.3585  0.6535 -1.6315
  673MOL0     H88801   8.360   1.964  10.922  1.4276  3.2842 -2.5558
  673MOL0     H88802   8.368   2.163  11.069 -0.4726 -1.2644 -1.0501
  673MOL0     H88803   8.391   2.173  10.888  2.9042  2.7133 -2.2214
  673MOL0     H88804   8.474   2.381  11.098 -0.4493  2.3080 -1.2474
  673MOL0     H88805   8.328   2.394  11.003 -1.1739 -0.5688 -1.2488
  673MOL0     H88806   8.443   2.411  10.792  1.0899 -0.4804 -0.8490
  673MOL0     H88807   8.586   2.355  10.858 -1.7657 -3.2950  0.3403
  673MOL0     H88808   8.445   2.615  10.935 -1.2345 -1.5781 -0.4480
  673MOL0     H88809   8.610   2.567  10.993 -1.1450  1.7926  2.2681
  673MOL0     H88810   8.628   2.736  10.818  0.7883  1.4452 -2.6944
  673MOL0     H88811   8.510   2.661  10.723 -1.5627  1.0032  2.6730
  673MOL0     H88812   8.675   2.453  10.707  0.5177  0.2055  1.7890
  673MOL0     H88813   8.794   2.563  10.780 -0.9897 -0.7029  1.5094
  673MOL0     H88814   8.627   2.619  10.536  0.7152 -1.8775 -2.1177
  673MOL0     H88815   8.770   2.715  10.600  2.0767 -1.1602 -4.3645
  673MOL0     H88816   8.918   2.518  10.539  0.6132  2.2393  1.1471
  673MOL0     H88817   8.862   2.616  10.400  0.3614 -0.7085 -0.2853
  673MOL0     H88818   8.779   2.015  11.051  0.4319  0.4372  1.5346
  673MOL0     H88819   8.806   1.766  11.016 -0.2362  0.3805  0.8178
  673MOL0     H88820   8.940   1.387  10.778  1.6748 -0.3899  0.2817
  673MOL0     H88821   8.963   1.147  10.857  0.7717 -0.2135  1.0176
  673MOL0     H88822   9.631   0.850  10.594 -0.2282  1.4788  1.5007
  673MOL0     H88823   9.876   0.844  10.573 -0.9115  0.0608 -0.9315
  673MOL0     H88824  10.295   0.622  10.959  0.0102 -2.4111  1.1783
  673MOL0     H88825  10.498   0.527  10.930 -1.7729  1.8514  1.6232
  673MOL0     H88826  10.702   0.413  10.851 -3.0192  1.4254  0.2418
  673MOL0     H88827  10.739   0.587  10.843  0.1341  0.5012 -1.5232
  673MOL0     H88828  10.925   0.446  10.816 -2.5200 -2.6365  0.0992
  673MOL0     H88829  10.853   0.389  10.658 -0.8636 -1.3429  0.3620
  673MOL0     H88830  10.889   0.692  10.679  0.1826  0.4310 -0.8053
  673MOL0     H88831  10.916   0.590  10.540  2.9937  2.5611 -0.6009
  673MOL0     H88832  11.134   0.678  10.604  2.3278 -2.8426 -1.1467
  673MOL0     H88833  11.113   0.607  10.764  2.5061  2.1775 -1.5224
  673MOL0     H88834  11.280   0.311  10.515  3.1084  2.0310 -0.1364
  673MOL0     H88835  10.498   0.641  10.508 -1.6026  1.8660 -0.2620
  673MOL0     H88836  10.275   0.724  10.534  3.4275  0.3170 -1.8507
  674MOL0     O88837   7.128   7.464   9.707  0.2222 -0.2688 -0.4740
  674MOL0     C88838   7.165   7.491   9.592 -0.1467  0.8283  0.7638
  674MOL0     O88839   7.093   7.481   9.482  0.1551 -0.3513  0.0377
  674MOL0     C88840   6.964   7.441   9.470  0.1506 -0.1271  0.3688
  674MOL0     C88841   6.913   7.441   9.338  0.1933  1.0789 -0.0935
  674MOL0     C88842   6.774   7.401   9.312  0.1706  0.1540  0.0641
  674MOL0     C88843   6.682   7.386   9.411 -0.4840  0.1119  0.1763
  674MOL0     O88844   6.555   7.363   9.358 -0.6944  0.3871 -0.3602
  674MOL0     C88845   6.453   7.358   9.456 -0.6173 -1.0439  0.5675
  674MOL0     C88846   6.324   7.324   9.385 -0.6295  0.7791 -0.4225
  674MOL0     C88847   6.214   7.366   9.484  0.5165 -0.0615  0.6526
  674MOL0     C88848   6.079   7.293   9.446 -0.2626  0.1188 -0.7460
  674MOL0     C88849   5.957   7.305   9.537 -0.2935  0.3780  0.2654
  674MOL0     C88850   5.912   7.446   9.538 -0.5606 -0.9363 -0.3959
  674MOL0     C88851   5.791   7.478   9.621  0.5858 -0.6321 -0.4895
  674MOL0     C88852   5.751   7.399   9.752 -0.0209 -0.7244  0.5345
  674MOL0     N88853   5.835   7.455   9.861 -0.1888  0.2040 -0.0681
  674MOL0     C88854   5.792   7.561   9.943 -0.6705  0.4788 -0.8746
  674MOL0     C88855   5.906   7.598  10.003 -0.2715 -0.0752  0.0546
  674MOL0     C88856   5.908   7.715  10.101 -0.2030 -0.3746  0.2572
  674MOL0     C88857   5.974   7.697  10.236 -0.4568 -0.4493  0.5109
  674MOL0     C88858   5.869   7.644  10.345 -0.2796 -0.2581  0.2333
  674MOL0     C88859   5.952   7.616  10.469  0.2382  0.1693  0.0244
  674MOL0     O88860   6.036   7.492  10.456 -0.4255 -0.0973 -0.2390
  674MOL0     C88861   6.127   7.487  10.559 -0.0390  1.3973 -0.3666
  674MOL0     C88862   6.249   7.544  10.534  0.0246  0.0812  0.0186
  674MOL0     C88863   6.348   7.545  10.633 -0.3699 -0.6614  0.4181
  674MOL0     C88864   6.330   7.469  10.747  0.8230 -0.2494  0.2259
  674MOL0     C88865   6.441   7.457  10.847 -0.2876 -0.8976  0.7065
  674MOL0     O88866   6.567   7.509  10.801 -0.4145 -0.6212 -0.1963
  674MOL0     C88867   6.685   7.480  10.872 -0.2036 -0.3063 -0.7191
  674MOL0     C88868   6.725   7.350  10.914  0.0106 -0.1334  1.0296
  674MOL0     C88869   6.861   7.324  10.956 -0.0988  1.0140  0.6564
  674MOL0     C88870   6.956   7.423  10.959 -0.3503  0.1415 -0.1323
  674MOL0     O88871   7.084   7.394  11.003 -0.3902 -0.3090  0.1563
  674MOL0     C88872   7.193   7.464  10.948  0.3487  0.3972 -0.9498
  674MOL0     C88873   7.243   7.574  11.044 -0.0849 -0.5498 -0.3637
  674MOL0     C88874   7.346   7.668  10.973  0.1818 -0.1267  0.1580
  674MOL0     C88875   7.480   7.589  10.943  0.1012 -0.0292 -0.1305
  674MOL0     C88876   7.600   7.685  10.927  0.1149 -0.0058 -0.0063
  674MOL0     C88877   7.682   7.684  11.066  0.3221  0.0105  0.5782
  674MOL0     C88878   7.770   7.569  11.096 -1.2751  0.4375 -0.5341
  674MOL0     C88879   7.891   7.566  10.993 -0.1341  0.1514 -0.0769
  674MOL0    Cl88880   8.051   7.517  11.056  0.0043 -0.2044  0.2125
  674MOL0     C88881   6.910   7.557  10.927 -0.4457 -0.5211  0.6521
  674MOL0     C88882   6.778   7.576  10.890  0.0376  0.5027 -0.6416
  674MOL0     O88883   6.422   7.406  10.953 -0.3626 -0.3642  0.9540
  674MOL0     C88884   6.199   7.413  10.775  0.7449 -0.2597 -0.0809
  674MOL0     C88885   6.092   7.432  10.683 -0.3974  0.4184  0.0451
  674MOL0     N88886   6.005   7.522   9.957 -0.6110 -0.3159  0.0277
  674MOL0     N88887   5.970   7.439   9.874  0.7988  0.5035  0.2607
  674MOL0     C88888   6.726   7.398   9.544 -0.6465 -0.2313  0.3345
  674MOL0     C88889   6.867   7.422   9.571 -0.2594 -0.1153 -0.4481
  674MOL0     C88890   7.295   7.559   9.590 -0.0741 -0.2683  1.5288
  674MOL0     C88891   7.351   7.568   9.461 -0.2171 -1.0142 -0.5487
  674MOL0     C88892   7.471   7.614   9.446  0.1249  0.6357 -0.1317
  674MOL0     C88893   7.551   7.675   9.554  0.6103  0.1897 -1.0895
  674MOL0     O88894   7.677   7.711   9.520 -0.2756  0.1622  0.8903
  674MOL0     C88895   7.775   7.713   9.624  0.7319 -0.5515 -0.9196
  674MOL0     C88896   7.912   7.748   9.556  0.9747  0.5156 -0.9796
  674MOL0     C88897   7.910   7.889   9.499  0.4876  0.1866 -0.7475
  674MOL0     C88898   8.049   7.945   9.474 -0.5523 -0.1773  0.4204
  674MOL0     C88899   8.044   8.092   9.458 -0.1630  0.0618 -0.4681
  674MOL0     C88900   8.063   8.216   9.461  0.0416  0.4906 -0.2126
  674MOL0     C88901   7.491   7.674   9.682  0.6224 -0.2195  0.4429
  674MOL0     C88902   7.367   7.612   9.701 -0.2311 -0.4643 -0.2308
  674MOL0     H88903   6.984   7.455   9.257 -1.8332  1.7954 -1.8634
  674MOL0     H88904   6.739   7.380   9.211 -0.5538 -1.8383  0.6797
  674MOL0     H88905   6.446   7.456   9.504  2.2973 -1.0737  1.2466
  674MOL0     H88906   6.470   7.282   9.533 -0.2523 -1.7654 -0.2144
  674MOL0     H88907   6.312   7.219   9.358 -1.2865  1.1522 -1.6467
  674MOL0     H88908   6.311   7.390   9.299 -0.5120  0.7855 -0.4355
  674MOL0     H88909   6.208   7.475   9.481 -1.4270 -0.1220  1.1558
  674MOL0     H88910   6.236   7.324   9.582 -0.5668 -0.9363  0.5383
  674MOL0     H88911   6.037   7.321   9.349 -1.1890 -2.0074 -1.0119
  674MOL0     H88912   6.101   7.186   9.445  0.5537  0.2807 -1.0513
  674MOL0     H88913   5.986   7.266   9.635  2.3335 -0.3347 -0.6967
  674MOL0     H88914   5.875   7.244   9.499 -1.1752  2.2607 -0.9996
  674MOL0     H88915   5.885   7.477   9.436  2.2277 -0.2957 -1.0361
  674MOL0     H88916   5.984   7.527   9.557 -0.6317 -1.6199  3.4563
  674MOL0     H88917   5.794   7.583   9.654 -0.5221 -1.7356  3.8376
  674MOL0     H88918   5.707   7.461   9.553 -0.2172  0.7526  0.1131
  674MOL0     H88919   5.762   7.292   9.736 -0.1884 -0.6693  0.0302
  674MOL0     H88920   5.646   7.408   9.781 -1.1387 -1.3384 -2.9215
  674MOL0     H88921   5.693   7.601   9.962 -0.0423  2.1964 -0.9602
  674MOL0     H88922   5.815   7.772  10.108  0.1840  0.1078  1.9088
  674MOL0     H88923   5.984   7.783  10.061 -0.0305 -0.4702  0.4174
  674MOL0     H88924   6.013   7.794  10.269 -0.0853 -0.6785  0.7502
  674MOL0     H88925   6.061   7.633  10.218  0.7309  0.9251  1.1347
  674MOL0     H88926   5.795   7.720  10.371  0.1962 -0.5345  2.6125
  674MOL0     H88927   5.821   7.552  10.310 -0.4047  0.4215 -1.4374
  674MOL0     H88928   5.896   7.602  10.562 -2.5814 -2.1419 -1.8367
  674MOL0     H88929   6.014   7.705  10.486 -1.2317  1.3498 -0.5604
  674MOL0     H88930   6.272   7.583  10.435 -1.2576 -0.8031 -0.6558
  674MOL0     H88931   6.445   7.588  10.613  1.5250 -4.2848  1.0556
  674MOL0     H88932   6.648   7.276  10.896  0.4383 -0.6517  1.3168
  674MOL0     H88933   6.883   7.218  10.961  2.6733  1.2056 -3.2393
  674MOL0     H88934   7.168   7.496  10.846  0.0892  0.1660 -0.9616
  674MOL0     H88935   7.270   7.387  10.948 -0.7889 -0.8323  0.6758
  674MOL0     H88936   7.292   7.545  11.137  0.9815 -1.4149 -1.1668
  674MOL0     H88937   7.154   7.626  11.079 -0.1587 -1.3992  0.7632
  674MOL0     H88938   7.351   7.757  11.036 -1.5411 -1.2557  2.0179
  674MOL0     H88939   7.303   7.697  10.877  0.6499  1.9124  0.5014
  674MOL0     H88940   7.502   7.514  11.020  0.3705 -0.3280 -0.4976
  674MOL0     H88941   7.464   7.529  10.853  0.0697 -0.0723 -0.0967
  674MOL0     H88942   7.565   7.785  10.902  3.6073  1.8251  1.7575
  674MOL0     H88943   7.663   7.650  10.844 -0.1132 -1.0436  0.2382
  674MOL0     H88944   7.612   7.699  11.148  0.9825  1.0807  0.9725
  674MOL0     H88945   7.741   7.776  11.068 -1.6117  1.3036  1.1582
  674MOL0     H88946   7.796   7.586  11.201  2.6149 -0.6450 -1.1532
  674MOL0     H88947   7.718   7.473  11.105  0.3550 -0.6148 -1.7547
  674MOL0     H88948   7.898   7.671  10.961  1.3997  0.1525  0.2022
  674MOL0     H88949   7.870   7.511  10.901 -0.4815  1.0660 -0.5626
  674MOL0     H88950   6.972   7.646  10.940 -1.4746  0.7619 -2.3625
  674MOL0     H88951   6.750   7.676  10.858  0.2823  1.1678  1.1433
  674MOL0     H88952   6.196   7.356  10.867  3.8553 -0.3862  0.0402
  674MOL0     H88953   5.992   7.390  10.693 -0.6827  1.0076 -0.3223
  674MOL0     H88954   6.650   7.392   9.622 -2.2411  1.7088 -0.9934
  674MOL0     H88955   6.900   7.420   9.675 -0.8996  0.4522 -0.2261
  674MOL0     H88956   7.293   7.553   9.370  0.5370  0.3129 -1.2812
  674MOL0     H88957   7.509   7.635   9.346 -2.1721  1.7301 -0.8268
  674MOL0     H88958   7.783   7.614   9.669  0.7350 -0.2968 -0.3488
  674MOL0     H88959   7.762   7.784   9.706 -0.1862  0.5552 -1.9702
  674MOL0     H88960   7.991   7.739   9.631  1.0418  0.3539 -1.0684
  674MOL0     H88961   7.922   7.676   9.474  1.1546 -1.8964  1.0391
  674MOL0     H88962   7.856   7.951   9.570 -1.1173 -1.8813 -0.0481
  674MOL0     H88963   7.868   7.888   9.398  1.1278 -1.3971 -1.0395
  674MOL0     H88964   8.108   7.920   9.562  0.2475  0.0167 -0.0524
  674MOL0     H88965   8.103   7.901   9.390  0.2897 -1.2972  1.5127
  674MOL0     H88966   8.067   8.323   9.462 -0.6229  0.5124  0.2845
  674MOL0     H88967   7.533   7.722   9.770  0.2374  1.3336 -0.1694
  674MOL0     H88968   7.319   7.615   9.798  0.6416 -2.0179  0.2837
  675MOL0     O88969   7.710   4.495   3.366 -0.2495  0.1942 -0.1829
  675MOL0     C88970   7.800   4.425   3.419 -0.6630 -0.2476  0.0822
  675MOL0     O88971   7.785   4.303   3.470  0.3330 -0.8182  0.3853
  675MOL0     C88972   7.650   4.264   3.485 -0.0411 -0.5688 -0.0234
  675MOL0     C88973   7.578   4.276   3.595  0.1257 -0.0104 -0.1785
  675MOL0     C88974   7.440   4.239   3.599 -0.1676 -0.2223  0.4844
  675MOL0     C88975   7.380   4.173   3.493 -0.0297 -0.4367 -0.2420
  675MOL0     O88976   7.248   4.138   3.486 -0.1545 -0.2873  0.8985
  675MOL0     C88977   7.170   4.139   3.604  0.1780 -0.1582 -0.1340
  675MOL0     C88978   7.038   4.068   3.571 -0.9794  1.1334 -0.0599
  675MOL0     C88979   6.938   4.143   3.489  0.7734  0.0728  0.2236
  675MOL0     C88980   6.840   4.041   3.432  0.2297 -0.6472  0.1312
  675MOL0     C88981   6.701   4.112   3.400 -0.8145  0.5188  0.9628
  675MOL0     C88982   6.635   4.015   3.296 -0.8191 -0.4864  0.4596
  675MOL0     C88983   6.492   4.059   3.251  0.3640  0.3403  0.5676
  675MOL0     C88984   6.437   3.969   3.140  0.2228  0.3128  0.9151
  675MOL0     N88985   6.295   3.967   3.107  0.2326 -0.0659  0.5414
  675MOL0     C88986   6.234   3.888   3.014  0.6675 -0.0246 -0.1940
  675MOL0     C88987   6.117   3.936   2.992  0.8191 -0.2645 -0.2101
  675MOL0     C88988   6.028   3.871   2.882 -0.6351  0.0211 -0.4073
  675MOL0     C88989   6.004   3.977   2.771  0.2945 -0.0504 -0.6610
  675MOL0     C88990   5.925   3.911   2.654 -0.5034 -0.2940  0.5336
  675MOL0     C88991   5.779   3.870   2.697 -0.7439 -0.6053 -0.2506
  675MOL0     O88992   5.696   3.993   2.710 -0.0525  0.4037 -0.2048
  675MOL0     C88993   5.558   3.987   2.680 -0.3946  1.2127 -0.2698
  675MOL0     C88994   5.483   3.876   2.671 -0.1711  0.6800  0.1942
  675MOL0     C88995   5.337   3.886   2.663 -0.4919  0.5000  0.1749
  675MOL0     C88996   5.272   4.010   2.670 -0.4713  0.1086  1.2424
  675MOL0     C88997   5.127   4.021   2.674  0.0928  0.0889 -0.1009
  675MOL0     O88998   5.072   4.143   2.699  0.0113 -0.1133 -0.4498
  675MOL0     C88999   4.940   4.171   2.687  0.2185  0.2869 -0.3415
  675MOL0     C89000   4.890   4.206   2.562 -0.5364 -0.0736  0.6414
  675MOL0     C89001   4.756   4.225   2.551  0.5701 -1.1627 -0.5642
  675MOL0     C89002   4.669   4.232   2.663 -0.1686  0.9870 -0.5263
  675MOL0     O89003   4.540   4.286   2.668  0.6142 -0.2178  0.6010
  675MOL0     C89004   4.442   4.241   2.758  0.1530  0.4496  0.6340
  675MOL0     C89005   4.309   4.301   2.724 -0.3990  0.0800 -0.4940
  675MOL0     C89006   4.191   4.280   2.838 -0.1788  0.7241  0.1875
  675MOL0     C89007   4.063   4.342   2.799 -0.1225 -0.4261 -0.1718
  675MOL0     C89008   3.956   4.255   2.867  0.1913  0.1766 -0.2821
  675MOL0     C89009   3.819   4.303   2.813 -1.2795 -0.7067 -0.5341
  675MOL0     C89010   3.707   4.267   2.904 -0.1173  0.2237  0.2102
  675MOL0     C89011   3.572   4.312   2.854  0.3494 -0.2706 -0.7977
  675MOL0    Cl89012   3.544   4.208   2.700  0.2146 -0.0326  0.1392
  675MOL0     C89013   4.722   4.205   2.789  0.4739  0.6429 -0.6278
  675MOL0     C89014   4.860   4.166   2.801  0.6468 -0.1124 -0.5258
  675MOL0     O89015   5.055   3.925   2.660 -0.4764  0.3394 -0.1838
  675MOL0     C89016   5.351   4.125   2.672  0.2951  0.7316 -0.1795
  675MOL0     C89017   5.489   4.111   2.676  0.2605  0.2748 -0.0486
  675MOL0     N89018   6.100   4.052   3.073 -0.4127  1.1136 -0.3820
  675MOL0     N89019   6.212   4.072   3.140  0.2354  0.1282 -0.7089
  675MOL0     C89020   7.459   4.142   3.376  0.3172 -0.3516 -0.0733
  675MOL0     C89021   7.592   4.199   3.368 -0.6777  0.2218 -0.1372
  675MOL0     C89022   7.937   4.487   3.430 -0.0700  0.7450  0.5024
  675MOL0     C89023   7.985   4.590   3.349 -0.5167  0.5204  0.1346
  675MOL0     C89024   8.116   4.644   3.370  0.3811  0.1752  0.0097
  675MOL0     C89025   8.211   4.572   3.451  0.5313 -0.5267  0.0060
  675MOL0     O89026   8.340   4.612   3.455  0.4229  0.0291 -0.4723
  675MOL0     C89027   8.372   4.748   3.444 -0.7232 -0.8923  0.4908
  675MOL0     C89028   8.528   4.758   3.472  0.2628  0.1752  0.2627
  675MOL0     C89029   8.573   4.762   3.619 -0.5267  0.1553 -0.5822
  675MOL0     C89030   8.691   4.845   3.631  0.1788 -0.5298  0.1436
  675MOL0     C89031   8.810   4.789   3.568  0.2693  0.8563  0.3733
  675MOL0     C89032   8.903   4.719   3.531  0.3284  0.5668  0.2814
  675MOL0     C89033   8.160   4.464   3.525  0.2719  0.3360  0.2299
  675MOL0     C89034   8.028   4.423   3.509 -0.0557  0.2154 -0.8472
  675MOL0     H89035   7.622   4.317   3.685 -0.6794  0.6416 -0.0766
  675MOL0     H89036   7.385   4.279   3.683 -1.5160  1.9971 -1.3317
  675MOL0     H89037   7.153   4.241   3.638  1.6629  0.0398  0.1041
  675MOL0     H89038   7.225   4.083   3.681 -2.9123 -2.4066  0.6174
  675MOL0     H89039   6.997   4.023   3.662 -1.1232  0.2834 -0.5325
  675MOL0     H89040   7.070   3.989   3.503 -1.1769  0.7457  0.2966
  675MOL0     H89041   6.983   4.209   3.415 -1.5430  3.0026  1.2644
  675MOL0     H89042   6.882   4.210   3.555 -2.3092  0.0556 -2.1663
  675MOL0     H89043   6.893   4.006   3.344  0.5900  2.4270 -1.0138
  675MOL0     H89044   6.816   3.964   3.506 -0.0980  1.7754  2.7128
  675MOL0     H89045   6.710   4.212   3.357  0.4698 -0.4918 -1.2773
  675MOL0     H89046   6.643   4.122   3.492 -1.6940  0.0098  0.4832
  675MOL0     H89047   6.632   3.911   3.330  0.3810 -0.5797  0.3357
  675MOL0     H89048   6.698   4.025   3.207 -1.2112 -0.6901  0.1583
  675MOL0     H89049   6.433   4.051   3.343 -1.2221 -0.2904 -0.4550
  675MOL0     H89050   6.490   4.160   3.210 -0.8021  0.7144  1.4705
  675MOL0     H89051   6.461   3.866   3.169  3.9966 -0.1254 -2.7485
  675MOL0     H89052   6.492   3.983   3.047 -0.4307  1.1414  0.6488
  675MOL0     H89053   6.279   3.811   2.952 -1.9473 -0.2880 -1.9223
  675MOL0     H89054   5.929   3.856   2.926  0.8586  1.0731  3.7049
  675MOL0     H89055   6.079   3.776   2.863  0.3034 -0.0908  2.2791
  675MOL0     H89056   6.100   4.003   2.725  0.4162 -1.2842 -1.1381
  675MOL0     H89057   5.957   4.062   2.821  3.1571  0.5871  1.2003
  675MOL0     H89058   5.932   3.980   2.569  3.2509 -2.0877 -0.8644
  675MOL0     H89059   5.974   3.827   2.604 -2.9347 -1.2198 -0.4040
  675MOL0     H89060   5.771   3.806   2.785 -0.6247 -1.3706 -0.7840
  675MOL0     H89061   5.740   3.802   2.621 -2.7279 -3.0525  2.6961
  675MOL0     H89062   5.532   3.779   2.668  0.8060  1.0586  2.1203
  675MOL0     H89063   5.276   3.796   2.664  1.4757 -0.8895 -0.0746
  675MOL0     H89064   4.954   4.200   2.474 -1.0551  0.4536  0.2162
  675MOL0     H89065   4.713   4.245   2.453  2.6994 -2.0109 -1.7189
  675MOL0     H89066   4.467   4.267   2.861  4.6998  1.5847 -0.5141
  675MOL0     H89067   4.429   4.133   2.757 -0.4020  0.5152  0.8768
  675MOL0     H89068   4.288   4.264   2.624  0.9972  2.1284 -1.6437
  675MOL0     H89069   4.317   4.410   2.713 -2.4584  0.0702 -2.7888
  675MOL0     H89070   4.225   4.325   2.931 -1.3328 -2.6106  2.3977
  675MOL0     H89071   4.187   4.172   2.855  2.7614  0.7434  1.4618
  675MOL0     H89072   4.056   4.446   2.832 -2.0980 -0.6453  0.2379
  675MOL0     H89073   4.055   4.334   2.691  4.3933 -3.1529 -0.5465
  675MOL0     H89074   3.946   4.278   2.974 -1.5269 -1.3418 -0.0680
  675MOL0     H89075   3.969   4.147   2.851  0.6022  0.4598 -2.0343
  675MOL0     H89076   3.814   4.267   2.710  1.3536 -1.7140 -0.3903
  675MOL0     H89077   3.815   4.412   2.821 -2.9153 -0.8113  0.4420
  675MOL0     H89078   3.699   4.158   2.910  0.1269  0.2341  0.8198
  675MOL0     H89079   3.733   4.304   3.004 -0.0252 -2.2817  1.1980
  675MOL0     H89080   3.570   4.421   2.854  1.4590  0.0565  4.5911
  675MOL0     H89081   3.507   4.283   2.937 -2.9472  2.0553 -2.3794
  675MOL0     H89082   4.668   4.195   2.883  0.0260  0.0195 -0.9438
  675MOL0     H89083   4.887   4.142   2.904 -1.0944  2.7377  0.7256
  675MOL0     H89084   5.300   4.220   2.659 -0.3622  0.0158 -3.8738
  675MOL0     H89085   5.551   4.199   2.693 -1.4861  1.4585  0.4793
  675MOL0     H89086   7.408   4.103   3.288 -1.6058  0.5189  0.6036
  675MOL0     H89087   7.642   4.199   3.272 -1.2998 -0.8665 -0.4771
  675MOL0     H89088   7.919   4.637   3.276 -0.2752  3.0557  1.4340
  675MOL0     H89089   8.151   4.730   3.315 -0.2330 -0.0201 -0.7020
  675MOL0     H89090   8.318   4.815   3.512 -0.7581 -0.7453  0.3183
  675MOL0     H89091   8.359   4.780   3.341  4.7266 -2.3572 -0.9864
  675MOL0     H89092   8.587   4.676   3.427 -0.1435  0.4445 -0.7911
  675MOL0     H89093   8.557   4.850   3.420  0.3963  0.0624  0.1340
  675MOL0     H89094   8.609   4.663   3.649  2.7068  1.4513  0.2715
  675MOL0     H89095   8.487   4.789   3.681 -0.1225 -2.1252  1.1010
  675MOL0     H89096   8.673   4.940   3.579  0.6633 -0.4552  0.1006
  675MOL0     H89097   8.714   4.860   3.737  0.4909 -1.4633  0.2132
  675MOL0     H89098   8.989   4.659   3.509  0.3264  0.7811 -0.3115
  675MOL0     H89099   8.223   4.429   3.607  1.8161  0.0243 -1.0366
  675MOL0     H89100   8.002   4.331   3.559  0.6975  0.9571  1.0070
  676MOL0     O89101   8.492   4.632   2.612  0.3726  0.7098  0.4658
  676MOL0     C89102   8.578   4.609   2.534  0.2267 -0.7256 -0.6070
  676MOL0     O89103   8.585   4.653   2.410  0.4158  0.6015  0.1401
  676MOL0     C89104   8.478   4.717   2.356  0.1587  0.0807  1.0000
  676MOL0     C89105   8.394   4.634   2.285  0.1446  0.0082  0.2703
  676MOL0     C89106   8.268   4.681   2.244 -0.7077 -0.7792  0.3178
  676MOL0     C89107   8.227   4.811   2.262  0.1949 -0.1202 -1.0669
  676MOL0     O89108   8.097   4.841   2.232 -0.2720 -0.2276  0.4748
  676MOL0     C89109   8.066   4.970   2.185 -0.3413  0.0983  0.1851
  676MOL0     C89110   7.980   4.959   2.062  0.4696  0.0621 -1.3771
  676MOL0     C89111   7.864   4.854   2.078  0.4060 -0.3453 -0.7447
  676MOL0     C89112   7.796   4.810   1.954 -0.3107 -0.4371 -0.5048
  676MOL0     C89113   7.661   4.735   1.975 -0.0510  0.2543 -0.6537
  676MOL0     C89114   7.537   4.814   2.043 -0.1663 -0.5899  0.6124
  676MOL0     C89115   7.407   4.734   2.019  0.3693  0.6606 -0.0548
  676MOL0     C89116   7.284   4.800   2.088  0.4587 -0.7866 -0.2274
  676MOL0     N89117   7.170   4.705   2.078  0.0280 -0.9211  0.4828
  676MOL0     C89118   7.117   4.651   1.963 -0.8860 -0.3588  0.4567
  676MOL0     C89119   7.031   4.559   2.004  0.7893 -0.4142  0.1837
  676MOL0     C89120   6.943   4.482   1.906 -0.6902  0.4591 -0.0350
  676MOL0     C89121   6.968   4.330   1.929 -0.0747  0.8518  0.1312
  676MOL0     C89122   7.107   4.289   1.867  1.0235  0.9986  0.1805
  676MOL0     C89123   7.135   4.135   1.861  0.4314  1.8071 -0.8533
  676MOL0     O89124   7.086   4.093   1.730  0.6137  0.0232 -0.3456
  676MOL0     C89125   6.954   4.063   1.704 -0.7335 -0.8616 -0.6669
  676MOL0     C89126   6.923   4.106   1.578  0.3831  0.4223  0.4442
  676MOL0     C89127   6.785   4.103   1.540 -1.0871  0.3425 -0.8133
  676MOL0     C89128   6.688   4.044   1.625  0.2348  0.7179  0.1931
  676MOL0     C89129   6.545   4.040   1.586 -0.2537 -0.2602 -0.1558
  676MOL0     O89130   6.518   4.051   1.452 -0.2151 -0.4425  0.3884
  676MOL0     C89131   6.393   4.037   1.405 -0.1044 -0.8846 -0.1202
  676MOL0     C89132   6.301   4.139   1.406 -0.1985 -0.5217 -0.1854
  676MOL0     C89133   6.169   4.132   1.360 -0.4726 -0.0868 -0.5801
  676MOL0     C89134   6.121   4.013   1.304  0.7551  0.3490  0.5047
  676MOL0     O89135   5.988   4.005   1.251 -0.3678  0.1749  0.0361
  676MOL0     C89136   5.888   4.094   1.309  0.6706  0.4326  0.5089
  676MOL0     C89137   5.742   4.060   1.272 -0.1047 -0.5694  0.1259
  676MOL0     C89138   5.647   4.151   1.362 -1.1278  0.2832 -0.3969
  676MOL0     C89139   5.503   4.106   1.329 -1.2105  0.4114 -1.0325
  676MOL0     C89140   5.407   4.131   1.441 -0.5649  0.1484 -0.3823
  676MOL0     C89141   5.275   4.066   1.398  0.3058 -0.9255  0.0158
  676MOL0     C89142   5.181   4.079   1.522 -0.3294 -0.7155 -0.6862
  676MOL0     C89143   5.034   4.082   1.470 -1.1625  0.5396 -0.6083
  676MOL0    Cl89144   4.930   4.074   1.616  0.3852  0.3249  0.0058
  676MOL0     C89145   6.219   3.909   1.297  0.0789 -1.5700  0.1749
  676MOL0     C89146   6.354   3.919   1.349  0.0605  0.7391 -0.5109
  676MOL0     O89147   6.465   4.021   1.674  0.2697  0.0813  0.2522
  676MOL0     C89148   6.730   3.996   1.756 -0.0199  0.3782  0.4682
  676MOL0     C89149   6.862   4.013   1.792 -0.2724  0.1351 -0.2511
  676MOL0     N89150   7.013   4.567   2.143  0.1904 -0.6421  0.0203
  676MOL0     N89151   7.103   4.654   2.188 -0.0279  0.0198 -0.3532
  676MOL0     C89152   8.317   4.903   2.323 -1.7718 -0.6425  1.1412
  676MOL0     C89153   8.442   4.852   2.378  0.4547 -1.0529 -0.0897
  676MOL0     C89154   8.707   4.549   2.583  0.5855  0.6962 -0.9784
  676MOL0     C89155   8.835   4.551   2.514 -0.3711 -0.1341  0.3685
  676MOL0     C89156   8.940   4.488   2.572 -0.9606  0.2055 -0.5899
  676MOL0     C89157   8.945   4.425   2.703  0.8128 -0.2167  0.6908
  676MOL0     O89158   9.061   4.379   2.753  0.0640  0.4164  0.5122
  676MOL0     C89159   9.048   4.274   2.847  0.1781 -0.3102 -0.3778
  676MOL0     C89160   9.201   4.216   2.870  0.8942 -0.3867 -0.7398
  676MOL0     C89161   9.218   4.126   2.994 -0.3779 -0.3581 -0.1124
  676MOL0     C89162   9.138   3.995   2.992 -0.7109  0.5516  0.3901
  676MOL0     C89163   9.165   3.898   3.098 -0.1282 -0.9252  0.7045
  676MOL0     C89164   9.179   3.843   3.200  0.4901  0.0586  0.5709
  676MOL0     C89165   8.819   4.430   2.764  0.4421 -0.6832 -0.5568
  676MOL0     C89166   8.703   4.493   2.712 -0.3571  0.0928  0.0179
  676MOL0     H89167   8.431   4.533   2.270  0.3467  0.4490 -2.9047
  676MOL0     H89168   8.200   4.610   2.196  0.8741 -2.1707  0.0365
  676MOL0     H89169   8.159   5.024   2.164 -0.0586 -0.2305  0.5763
  676MOL0     H89170   8.003   5.026   2.255  1.2737  0.3111  1.5266
  676MOL0     H89171   8.041   4.923   1.978 -0.1980 -1.9833 -1.0255
  676MOL0     H89172   7.936   5.057   2.041 -1.6657 -0.4036  0.5996
  676MOL0     H89173   7.797   4.904   2.149 -1.5946 -2.0414 -1.3235
  676MOL0     H89174   7.898   4.760   2.122 -0.1370 -0.2254 -0.0304
  676MOL0     H89175   7.770   4.899   1.895  1.7509  1.7580  1.6704
  676MOL0     H89176   7.857   4.733   1.906  0.8896 -1.1351  1.9951
  676MOL0     H89177   7.680   4.641   2.028 -4.9793 -0.8612 -0.4001
  676MOL0     H89178   7.626   4.708   1.875 -2.0933 -0.7545  0.2693
  676MOL0     H89179   7.540   4.918   2.010  1.0125 -1.5981 -2.9017
  676MOL0     H89180   7.548   4.826   2.151 -0.1747  1.6588  0.4140
  676MOL0     H89181   7.382   4.735   1.913 -3.2958  1.8685  0.6570
  676MOL0     H89182   7.429   4.630   2.045  1.6437  1.4576  2.3874
  676MOL0     H89183   7.248   4.889   2.036  1.0118 -0.4147  0.0255
  676MOL0     H89184   7.308   4.831   2.190  2.5504 -0.7260 -0.7061
  676MOL0     H89185   7.147   4.672   1.860 -1.9633  1.0391  0.3951
  676MOL0     H89186   6.956   4.508   1.800 -0.7850  0.6454 -0.0010
  676MOL0     H89187   6.836   4.500   1.920 -0.6000  0.8879  0.1048
  676MOL0     H89188   6.888   4.270   1.886  0.5689 -1.0164  1.4175
  676MOL0     H89189   6.958   4.315   2.037 -3.5184 -2.7247 -0.4581
  676MOL0     H89190   7.110   4.337   1.768 -3.8644  1.3589 -0.0189
  676MOL0     H89191   7.194   4.326   1.923 -0.0348  1.5552  1.5011
  676MOL0     H89192   7.092   4.067   1.935  2.1468 -2.1692 -3.1436
  676MOL0     H89193   7.242   4.113   1.869 -0.4430 -4.4118 -1.0002
  676MOL0     H89194   6.997   4.155   1.515 -1.7062  4.1762  0.5618
  676MOL0     H89195   6.757   4.134   1.440 -1.5390  1.1190 -0.4597
  676MOL0     H89196   6.330   4.231   1.455  4.6902  0.2435 -3.8503
  676MOL0     H89197   6.108   4.220   1.375  1.5824  1.3642 -0.2565
  676MOL0     H89198   5.909   4.197   1.279 -1.5617  1.6926  2.8010
  676MOL0     H89199   5.896   4.087   1.418  1.3732 -0.7837  0.3991
  676MOL0     H89200   5.723   3.954   1.292 -1.3479  0.0938  3.1202
  676MOL0     H89201   5.720   4.077   1.167 -0.0492 -3.0047 -0.3452
  676MOL0     H89202   5.666   4.255   1.337 -1.7814 -0.0990 -2.6894
  676MOL0     H89203   5.679   4.128   1.464 -0.6990 -0.2306 -0.6348
  676MOL0     H89204   5.485   4.163   1.237  1.4656  1.5582 -0.9485
  676MOL0     H89205   5.496   3.999   1.311 -0.6591 -0.0343  1.1156
  676MOL0     H89206   5.405   4.235   1.474 -1.0335  0.4967 -1.4423
  676MOL0     H89207   5.441   4.070   1.525 -3.4450 -0.5636  0.4105
  676MOL0     H89208   5.277   3.960   1.370 -1.8270 -1.0399  0.1356
  676MOL0     H89209   5.239   4.131   1.318  1.6064 -0.8069 -0.5103
  676MOL0     H89210   5.188   3.997   1.594 -1.9245  1.5791  2.3427
  676MOL0     H89211   5.200   4.166   1.585  0.8665  0.0119 -1.9981
  676MOL0     H89212   5.020   3.990   1.412  1.2806  0.8873 -1.8963
  676MOL0     H89213   5.008   4.158   1.396  1.5765  0.3419 -1.9030
  676MOL0     H89214   6.198   3.818   1.242 -3.0731 -0.1659 -1.1983
  676MOL0     H89215   6.412   3.827   1.350  1.1185  1.3806  1.4427
  676MOL0     H89216   6.663   3.950   1.828 -0.1990 -0.0343  0.0446
  676MOL0     H89217   6.882   3.968   1.889 -3.3513 -2.0253 -0.4666
  676MOL0     H89218   8.281   5.004   2.332 -0.7270 -0.1785  0.3681
  676MOL0     H89219   8.505   4.917   2.437 -0.4184  0.6157 -0.9157
  676MOL0     H89220   8.839   4.592   2.414  4.6846 -2.2911 -0.6460
  676MOL0     H89221   9.035   4.476   2.520  0.3069  0.6979  1.4882
  676MOL0     H89222   8.979   4.195   2.817  1.6977 -1.4975 -0.8950
  676MOL0     H89223   9.011   4.303   2.946 -2.4587 -1.9379 -0.8010
  676MOL0     H89224   9.233   4.143   2.796  1.5960 -0.8828  0.0324
  676MOL0     H89225   9.272   4.299   2.882 -3.8020  4.2817 -1.2928
  676MOL0     H89226   9.189   4.188   3.079 -2.0834  0.0048 -0.9264
  676MOL0     H89227   9.323   4.102   3.014 -0.5385  0.3421  1.7359
  676MOL0     H89228   9.036   4.034   2.995 -0.5826  0.8805  0.4719
  676MOL0     H89229   9.147   3.944   2.895 -3.7087 -1.4308  0.9912
  676MOL0     H89230   9.187   3.790   3.293 -1.6613  0.4116  1.0112
  676MOL0     H89231   8.803   4.397   2.866  0.9766  1.2395  0.1998
  676MOL0     H89232   8.610   4.509   2.764  0.4253  0.3469  1.3874
  677MOL0     O89233   7.612   6.021   4.776 -0.2599 -0.6132  0.3372
  677MOL0     C89234   7.659   6.065   4.673 -0.7946  0.1660 -1.0608
  677MOL0     O89235   7.618   6.041   4.549 -0.1376  0.1187  0.0908
  677MOL0     C89236   7.488   6.023   4.520  0.7049  0.1933 -0.1388
  677MOL0     C89237   7.380   6.081   4.595 -0.7638 -0.1461  0.6273
  677MOL0     C89238   7.252   6.043   4.568 -1.2003  0.6925  0.0966
  677MOL0     C89239   7.219   5.959   4.457 -0.4322  0.6589 -0.2877
  677MOL0     O89240   7.091   5.915   4.436  0.2157 -0.5540  0.0517
  677MOL0     C89241   7.038   5.924   4.304  0.6132 -0.3055  0.0935
  677MOL0     C89242   6.883   5.893   4.300 -0.2118 -0.5916 -0.1876
  677MOL0     C89243   6.820   5.926   4.159  0.7547 -0.5885  0.0530
  677MOL0     C89244   6.683   5.865   4.118 -0.0019 -0.5770 -0.1380
  677MOL0     C89245   6.650   5.877   3.969  0.0295 -0.6114 -0.4462
  677MOL0     C89246   6.576   6.009   3.946 -0.8818  0.2581 -0.6617
  677MOL0     C89247   6.536   6.019   3.800  0.4509  0.5396  0.2931
  677MOL0     C89248   6.451   6.146   3.767  0.4078 -0.7343  0.4163
  677MOL0     N89249   6.303   6.146   3.802  0.6287 -0.3354 -0.0150
  677MOL0     C89250   6.238   6.108   3.917 -0.6100 -1.2671  0.4637
  677MOL0     C89251   6.103   6.140   3.905  0.1577 -0.2290  0.6812
  677MOL0     C89252   6.001   6.113   4.005  0.6782 -0.0451 -0.4882
  677MOL0     C89253   5.890   6.222   4.009  0.4192  0.0097  0.3196
  677MOL0     C89254   5.936   6.366   4.041 -1.0707 -0.1378 -0.0156
  677MOL0     C89255   5.846   6.456   4.126  0.3183 -0.6080 -1.3294
  677MOL0     O89256   5.793   6.393   4.246 -0.7845  1.0514 -0.6651
  677MOL0     C89257   5.675   6.436   4.303  0.2537 -0.1959 -0.0432
  677MOL0     C89258   5.654   6.569   4.340 -0.0966 -0.6329  1.0858
  677MOL0     C89259   5.540   6.618   4.401  0.0917  0.8723  0.5585
  677MOL0     C89260   5.430   6.530   4.419  0.4038  0.4059 -1.0715
  677MOL0     C89261   5.305   6.569   4.485 -1.5505 -0.5312 -0.3365
  677MOL0     O89262   5.265   6.694   4.461 -0.1665 -0.9542 -0.6023
  677MOL0     C89263   5.178   6.751   4.550  0.2765  0.0003  0.4033
  677MOL0     C89264   5.107   6.853   4.492 -0.0527  0.2871 -0.1154
  677MOL0     C89265   5.004   6.912   4.555  0.0698 -0.2289 -0.5875
  677MOL0     C89266   4.976   6.878   4.683  0.2609 -0.1167  0.4253
  677MOL0     O89267   4.868   6.933   4.743 -0.3161  0.2883  0.8068
  677MOL0     C89268   4.827   6.884   4.873  0.4867 -0.0067  0.6324
  677MOL0     C89269   4.693   6.943   4.918  0.5469  0.0520 -0.2182
  677MOL0     C89270   4.577   6.887   4.837 -0.2287 -0.6450 -0.6593
  677MOL0     C89271   4.438   6.960   4.850 -0.3508 -0.7979  0.4894
  677MOL0     C89272   4.441   7.115   4.838 -0.5331 -0.5300 -0.0967
  677MOL0     C89273   4.297   7.179   4.815 -0.1178  0.3992  0.7306
  677MOL0     C89274   4.197   7.120   4.907 -0.2966  0.5196  0.2851
  677MOL0     C89275   4.221   7.138   5.054 -0.6753  0.3640 -0.7239
  677MOL0    Cl89276   4.103   7.046   5.154  0.5463  0.0748  0.0296
  677MOL0     C89277   5.054   6.777   4.747  0.7185 -0.0739 -0.1864
  677MOL0     C89278   5.151   6.710   4.684  0.0005 -0.4936 -0.0261
  677MOL0     O89279   5.243   6.481   4.543  0.4249  0.4813  0.1276
  677MOL0     C89280   5.450   6.397   4.383  0.3936  0.1648  0.5211
  677MOL0     C89281   5.568   6.356   4.315  1.1131  0.0644  1.1776
  677MOL0     N89282   6.087   6.190   3.775  0.3602  0.7817 -0.5961
  677MOL0     N89283   6.205   6.196   3.723 -0.9200  0.6100 -0.1605
  677MOL0     C89284   7.325   5.920   4.373  0.1632  0.2307  0.3774
  677MOL0     C89285   7.456   5.954   4.399 -0.3248 -1.0959  0.1448
  677MOL0     C89286   7.793   6.132   4.681 -0.5388 -0.1118 -0.5654
  677MOL0     C89287   7.847   6.158   4.812 -0.2616  0.1439  0.3906
  677MOL0     C89288   7.968   6.222   4.816  0.1456 -0.5234 -0.1562
  677MOL0     C89289   8.041   6.262   4.705 -0.0396  0.4442  0.0923
  677MOL0     O89290   8.159   6.333   4.708  0.4839  0.0499 -0.2863
  677MOL0     C89291   8.213   6.371   4.836  0.1946 -0.1883 -0.3389
  677MOL0     C89292   8.348   6.441   4.812  0.3019 -0.4459 -0.2898
  677MOL0     C89293   8.437   6.432   4.934  0.8587  0.4867  0.0078
  677MOL0     C89294   8.577   6.496   4.905 -0.7832 -0.0702 -0.0557
  677MOL0     C89295   8.670   6.462   5.015  0.4376  0.2612  0.7547
  677MOL0     C89296   8.752   6.426   5.094 -0.5696  1.0783  0.2637
  677MOL0     C89297   7.982   6.231   4.583 -0.8572 -0.0112  0.8520
  677MOL0     C89298   7.860   6.178   4.568  0.1571  0.5178  0.1978
  677MOL0     H89299   7.394   6.152   4.676 -0.4491  0.7681 -0.2011
  677MOL0     H89300   7.172   6.073   4.635 -1.8058  2.0614 -1.1705
  677MOL0     H89301   7.083   5.844   4.244 -2.1038 -2.4954  0.7635
  677MOL0     H89302   7.060   6.022   4.260  1.9759  0.4451  2.2789
  677MOL0     H89303   6.827   5.953   4.372  0.5674 -0.9472  0.7317
  677MOL0     H89304   6.860   5.789   4.324  1.2577 -0.9182 -0.1017
  677MOL0     H89305   6.902   5.896   4.093  2.5712 -0.3934  2.0994
  677MOL0     H89306   6.819   6.034   4.142 -2.0596 -0.1267  2.3579
  677MOL0     H89307   6.692   5.756   4.113  2.6673 -0.4731  0.9049
  677MOL0     H89308   6.601   5.900   4.181 -0.9195 -0.9883 -1.0648
  677MOL0     H89309   6.579   5.796   3.948  0.6729 -1.6838  1.3243
  677MOL0     H89310   6.738   5.864   3.906  0.9683  2.1463  0.1820
  677MOL0     H89311   6.632   6.102   3.962 -0.0307 -0.3472 -0.0342
  677MOL0     H89312   6.476   6.000   3.991 -0.7019 -2.0003 -0.6171
  677MOL0     H89313   6.623   6.022   3.734 -0.0592 -3.4063 -0.8781
  677MOL0     H89314   6.481   5.930   3.767  0.9535  0.9450 -1.8384
  677MOL0     H89315   6.481   6.170   3.665 -0.1204 -2.6532 -0.2156
  677MOL0     H89316   6.499   6.231   3.817  0.0758 -1.3391  1.8072
  677MOL0     H89317   6.288   6.083   4.010  0.3197  0.9733  0.6301
  677MOL0     H89318   6.040   6.113   4.108 -1.9245  1.1132  0.5680
  677MOL0     H89319   5.960   6.015   3.979 -2.2089  0.5333  1.4641
  677MOL0     H89320   5.809   6.201   4.079 -2.7990  4.3122 -1.5968
  677MOL0     H89321   5.836   6.230   3.914 -0.4029  0.6638  0.8282
  677MOL0     H89322   6.029   6.369   4.100 -2.5971  1.1592  2.5103
  677MOL0     H89323   5.954   6.412   3.943  1.4082 -0.1030  0.3819
  677MOL0     H89324   5.756   6.475   4.067  0.8775  3.1038 -1.2763
  677MOL0     H89325   5.900   6.549   4.148 -1.9834  1.2358 -2.8918
  677MOL0     H89326   5.735   6.640   4.328  0.5303 -1.5768 -0.8426
  677MOL0     H89327   5.541   6.723   4.427 -2.9829  1.7219 -2.1001
  677MOL0     H89328   5.133   6.878   4.389  1.1178 -1.3845 -0.2556
  677MOL0     H89329   4.948   6.997   4.517  2.2225  1.5975  0.0757
  677MOL0     H89330   4.902   6.911   4.948  2.6860  3.5558 -2.4639
  677MOL0     H89331   4.804   6.777   4.864 -2.8242  0.6852 -0.5898
  677MOL0     H89332   4.698   7.051   4.898  2.0744  0.2053  0.8580
  677MOL0     H89333   4.664   6.921   5.021 -1.2597 -0.3602 -0.7822
  677MOL0     H89334   4.567   6.786   4.877  0.4142 -1.7818 -3.1923
  677MOL0     H89335   4.614   6.871   4.736 -1.8183 -3.2792 -0.9047
  677MOL0     H89336   4.376   6.920   4.770  1.6940  0.8423 -2.0757
  677MOL0     H89337   4.388   6.923   4.941 -1.6722  0.5078  0.3235
  677MOL0     H89338   4.493   7.146   4.747 -0.4318  1.7181  0.6607
  677MOL0     H89339   4.498   7.142   4.928  1.0137 -2.3779 -0.4439
  677MOL0     H89340   4.266   7.169   4.710 -1.3075  1.1633  0.9946
  677MOL0     H89341   4.285   7.287   4.828  0.4083  0.4722  0.6174
  677MOL0     H89342   4.098   7.166   4.900 -3.5876 -5.3451  1.5807
  677MOL0     H89343   4.159   7.023   4.874 -0.1321  0.8602 -0.9634
  677MOL0     H89344   4.206   7.244   5.075  0.6261  0.1971  1.2742
  677MOL0     H89345   4.318   7.104   5.090 -0.9638 -2.1174 -2.0241
  677MOL0     H89346   5.014   6.736   4.839 -3.9241  1.8172 -1.0823
  677MOL0     H89347   5.203   6.627   4.731 -1.1125 -0.6791  0.9418
  677MOL0     H89348   5.367   6.327   4.386 -1.2400  1.7050 -3.2806
  677MOL0     H89349   5.574   6.252   4.284  2.2993  0.3895  0.2254
  677MOL0     H89350   7.311   5.876   4.275  0.9732  2.7073 -0.9503
  677MOL0     H89351   7.531   5.901   4.341  1.1220 -1.6570  2.4204
  677MOL0     H89352   7.798   6.139   4.907 -1.4200  2.4659  0.3272
  677MOL0     H89353   8.009   6.242   4.914  0.5327  0.0035 -0.4175
  677MOL0     H89354   8.245   6.285   4.896  2.0120  0.7329  0.0901
  677MOL0     H89355   8.144   6.435   4.891  0.3465 -0.9070  0.7317
  677MOL0     H89356   8.404   6.387   4.734 -1.2214 -0.6272 -1.3094
  677MOL0     H89357   8.339   6.544   4.776  0.1224 -0.5923 -0.6772
  677MOL0     H89358   8.446   6.327   4.965 -1.8632 -0.8812 -3.2531
  677MOL0     H89359   8.386   6.477   5.020  2.3844 -2.4309  2.6596
  677MOL0     H89360   8.615   6.452   4.812 -2.8746 -4.0086  0.7438
  677MOL0     H89361   8.570   6.605   4.909  0.2218  0.0102 -0.2005
  677MOL0     H89362   8.820   6.389   5.168  0.8114  0.9060 -1.0300
  677MOL0     H89363   8.035   6.253   4.491 -1.7651  0.2538  0.3830
  677MOL0     H89364   7.812   6.159   4.473  1.7745  0.6051 -0.6692
  678MOL0     O89365   3.432   1.376   2.836 -0.3061  1.0054 -0.3584
  678MOL0     C89366   3.461   1.356   2.955  0.7798  0.1917 -0.8073
  678MOL0     O89367   3.371   1.312   3.050  0.0220  0.4966 -1.0801
  678MOL0     C89368   3.237   1.288   3.020 -0.1060  0.0794 -1.0479
  678MOL0     C89369   3.190   1.155   3.000  0.9874 -0.0873 -0.4086
  678MOL0     C89370   3.059   1.126   2.960 -0.0864  0.0165  0.3108
  678MOL0     C89371   2.968   1.235   2.946 -0.4909 -0.0500  0.4522
  678MOL0     O89372   2.848   1.208   2.884  0.1183 -0.2400  0.5869
  678MOL0     C89373   2.751   1.123   2.947  0.0580 -0.7649 -0.3375
  678MOL0     C89374   2.608   1.150   2.909  0.6819  0.2019 -0.2278
  678MOL0     C89375   2.559   1.290   2.960  0.3842 -0.3342  0.1922
  678MOL0     C89376   2.422   1.326   2.894  0.2991  0.1424 -0.2612
  678MOL0     C89377   2.304   1.274   2.980  0.0123 -0.9291  0.4024
  678MOL0     C89378   2.169   1.338   2.916 -0.1480 -1.0311  0.7627
  678MOL0     C89379   2.052   1.301   2.999  0.3392  0.3605 -0.0549
  678MOL0     C89380   2.027   1.148   3.003 -0.7089  0.5159 -0.5454
  678MOL0     N89381   1.890   1.113   2.989 -0.4091  0.1346  0.0320
  678MOL0     C89382   1.785   1.158   3.070  0.4276 -0.3416  0.1663
  678MOL0     C89383   1.668   1.096   3.030 -0.4303 -0.5429  0.9069
  678MOL0     C89384   1.517   1.130   3.052 -0.3861  0.0747 -0.5475
  678MOL0     C89385   1.449   1.022   3.129  0.5476 -0.3101  0.3437
  678MOL0     C89386   1.308   1.073   3.161  0.3330 -0.2950 -0.8212
  678MOL0     C89387   1.230   0.975   3.251 -0.0458  0.0176  0.0845
  678MOL0     O89388   1.118   1.048   3.295  0.5188 -0.1654 -0.2084
  678MOL0     C89389   0.989   1.001   3.265  0.2341 -0.2623  0.3287
  678MOL0     C89390   0.931   1.069   3.164 -0.0332  0.2998  0.6042
  678MOL0     C89391   0.796   1.054   3.128 -0.5191  0.7089 -0.9248
  678MOL0     C89392   0.717   0.970   3.205 -0.3779  0.2046 -0.6022
  678MOL0     C89393   0.576   0.970   3.168 -0.0275 -0.0556 -0.2634
  678MOL0     O89394   0.503   0.850   3.217 -0.6741 -0.1801  0.0340
  678MOL0     C89395   0.368   0.831   3.202 -0.8608  0.0787  0.7653
  678MOL0     C89396   0.320   0.748   3.294 -0.8735 -0.9023 -0.1256
  678MOL0     C89397   0.180   0.721   3.295  0.2167  0.2540  0.4152
  678MOL0     C89398   0.091   0.772   3.193 -0.3356 -0.5406 -0.2998
  678MOL0     O89399  -0.043   0.748   3.214 -0.2909 -0.0112 -0.9316
  678MOL0     C89400  -0.143   0.800   3.123 -0.4642  0.3025  0.1575
  678MOL0     C89401  -0.274   0.750   3.173 -0.2167  0.5408  0.6451
  678MOL0     C89402  -0.393   0.817   3.112 -0.0076 -0.1439 -1.1142
  678MOL0     C89403  -0.526   0.747   3.151 -0.3825 -0.2068  0.7441
  678MOL0     C89404  -0.638   0.857   3.140  0.6411 -0.0867 -0.5236
  678MOL0     C89405  -0.775   0.798   3.179 -0.4293  0.2057  0.2362
  678MOL0     C89406  -0.861   0.895   3.264  0.0468 -0.0532 -0.2228
  678MOL0     C89407  -0.955   0.833   3.364 -1.0244  0.6057 -0.0505
  678MOL0    Cl89408  -1.094   0.776   3.274 -0.0287  0.0260 -0.1999
  678MOL0     C89409   0.144   0.847   3.098 -1.2050  0.3921  0.1225
  678MOL0     C89410   0.285   0.881   3.095  0.3996  0.4194  0.8157
  678MOL0     O89411   0.531   1.060   3.107 -0.1784 -0.3546  0.8852
  678MOL0     C89412   0.780   0.898   3.304  0.6999  0.3605  0.1191
  678MOL0     C89413   0.921   0.900   3.332  0.8951 -0.8013 -0.4682
  678MOL0     N89414   1.706   0.987   2.947 -0.3668 -0.1035  1.3370
  678MOL0     N89415   1.839   0.999   2.932  0.4180  0.1959 -0.7200
  678MOL0     C89416   3.009   1.361   2.983  0.4024 -0.2184  0.7709
  678MOL0     C89417   3.145   1.387   3.015  0.0007 -0.3339 -0.0389
  678MOL0     C89418   3.601   1.386   3.006 -0.1390  1.2728  0.5478
  678MOL0     C89419   3.713   1.388   2.928  0.1461  0.7316 -0.4476
  678MOL0     C89420   3.838   1.406   2.979 -0.4998  0.7759  0.2174
  678MOL0     C89421   3.861   1.433   3.115  0.3801 -1.0288  0.8516
  678MOL0     O89422   3.981   1.461   3.170  0.0419 -0.6916 -0.2061
  678MOL0     C89423   4.072   1.543   3.096  0.0597 -0.7280  0.1460
  678MOL0     C89424   4.177   1.603   3.192 -0.2703  0.0997 -0.9187
  678MOL0     C89425   4.114   1.672   3.319 -0.2573 -0.3821 -0.7134
  678MOL0     C89426   4.017   1.785   3.285  0.4520 -0.4782 -0.6849
  678MOL0     C89427   4.089   1.899   3.233  0.2978 -0.1387 -0.1173
  678MOL0     C89428   4.144   2.010   3.205 -1.1392 -0.4011 -0.5682
  678MOL0     C89429   3.743   1.443   3.195  0.2501  0.4572 -0.3070
  678MOL0     C89430   3.621   1.410   3.136 -0.4440 -0.8315 -0.2016
  678MOL0     H89431   3.255   1.068   2.996  1.4091  0.0871  1.5952
  678MOL0     H89432   3.028   1.030   2.921 -2.4422  1.0710 -0.5845
  678MOL0     H89433   2.761   1.136   3.055  0.2248 -0.6274 -0.3688
  678MOL0     H89434   2.775   1.021   2.916 -0.5349 -0.8997 -0.3547
  678MOL0     H89435   2.544   1.069   2.943 -1.3026  2.4244  1.7807
  678MOL0     H89436   2.603   1.139   2.800  1.6281 -1.7470 -0.1160
  678MOL0     H89437   2.636   1.360   2.928 -0.7473 -0.4675 -3.2110
  678MOL0     H89438   2.555   1.293   3.070 -0.9903  0.6224  0.1433
  678MOL0     H89439   2.414   1.432   2.867  0.7566  0.0966 -0.5813
  678MOL0     H89440   2.406   1.283   2.795  0.5639  0.7864 -0.5902
  678MOL0     H89441   2.311   1.308   3.084  1.5200  2.5725 -0.6738
  678MOL0     H89442   2.301   1.165   2.985  0.2065 -0.9366  0.3846
  678MOL0     H89443   2.156   1.304   2.813 -2.4852 -1.4922  1.1696
  678MOL0     H89444   2.178   1.447   2.923 -0.0792 -1.1291  2.6766
  678MOL0     H89445   2.055   1.351   3.096 -2.1393  2.1239 -0.7725
  678MOL0     H89446   1.964   1.346   2.952 -1.9058 -2.5338  1.0996
  678MOL0     H89447   2.060   1.110   3.100  1.9832  0.6627 -1.3392
  678MOL0     H89448   2.085   1.097   2.926 -0.9890 -2.8238  1.2609
  678MOL0     H89449   1.796   1.242   3.139  3.5722 -1.2531  0.9754
  678MOL0     H89450   1.465   1.142   2.956  0.4922 -1.3527 -1.2336
  678MOL0     H89451   1.508   1.226   3.104 -0.9202  0.1810 -0.8204
  678MOL0     H89452   1.500   1.008   3.224 -0.2650  0.6965  0.9493
  678MOL0     H89453   1.461   0.930   3.071  0.4275  0.9754 -1.8591
  678MOL0     H89454   1.307   1.169   3.214  3.0162 -0.5485 -0.1671
  678MOL0     H89455   1.258   1.092   3.066 -1.4198  1.3527  0.3663
  678MOL0     H89456   1.301   0.958   3.333  2.3000  1.0393 -1.5992
  678MOL0     H89457   1.211   0.882   3.197  0.0803 -0.9126  1.5857
  678MOL0     H89458   1.003   1.133   3.114 -0.1276  2.2117  2.8016
  678MOL0     H89459   0.748   1.115   3.052 -2.8040  1.0085  0.6623
  678MOL0     H89460   0.384   0.712   3.374 -1.8258 -2.4010  0.0069
  678MOL0     H89461   0.136   0.659   3.372 -0.9446 -0.1974 -0.5861
  678MOL0     H89462  -0.129   0.771   3.019 -2.4571  0.3774 -0.1828
  678MOL0     H89463  -0.143   0.909   3.132  0.8473  0.3758 -0.6414
  678MOL0     H89464  -0.281   0.744   3.282 -0.8102 -2.8464  0.5304
  678MOL0     H89465  -0.281   0.644   3.148 -2.5584  0.3754  1.7570
  678MOL0     H89466  -0.385   0.829   3.004 -1.1086 -0.4365 -1.2397
  678MOL0     H89467  -0.388   0.917   3.156  0.3995 -0.1202 -1.2098
  678MOL0     H89468  -0.542   0.672   3.073 -1.9477  0.5526  0.2870
  678MOL0     H89469  -0.523   0.698   3.248  1.2141 -0.7262  0.4677
  678MOL0     H89470  -0.641   0.896   3.038 -3.6007  1.7415  0.0577
  678MOL0     H89471  -0.610   0.938   3.208  2.6746 -0.7203 -0.5598
  678MOL0     H89472  -0.767   0.704   3.233 -2.2203  0.2825  0.6951
  678MOL0     H89473  -0.830   0.771   3.088  0.0120  0.7306 -0.1968
  678MOL0     H89474  -0.790   0.950   3.326 -0.0186 -0.5086  0.2624
  678MOL0     H89475  -0.916   0.967   3.203 -3.2797 -1.6516  0.6745
  678MOL0     H89476  -0.991   0.904   3.440  3.1537  1.9966  0.9116
  678MOL0     H89477  -0.888   0.762   3.413  0.3342  2.4233  0.8714
  678MOL0     H89478   0.084   0.890   3.019  2.9442 -1.1137 -4.3382
  678MOL0     H89479   0.320   0.946   3.016 -0.0438  1.5101  1.5011
  678MOL0     H89480   0.713   0.839   3.366  0.0342  0.3495 -0.5970
  678MOL0     H89481   0.963   0.844   3.415 -1.5351  2.7070  3.5562
  678MOL0     H89482   2.927   1.433   2.981  2.3230  2.1281  0.8114
  678MOL0     H89483   3.182   1.488   3.030  0.6929 -0.7130  0.9275
  678MOL0     H89484   3.708   1.383   2.820  1.9969  1.5189 -0.6087
  678MOL0     H89485   3.924   1.395   2.915 -1.3429  0.5462 -0.8990
  678MOL0     H89486   4.022   1.627   3.047  3.8761  2.0710  0.6203
  678MOL0     H89487   4.107   1.481   3.013 -0.4457  0.4723 -0.9991
  678MOL0     H89488   4.238   1.513   3.207 -0.3784 -0.3485 -2.9050
  678MOL0     H89489   4.230   1.684   3.143  0.4399 -1.3502 -2.6319
  678MOL0     H89490   4.195   1.714   3.379  0.6403 -0.4814 -1.8043
  678MOL0     H89491   4.055   1.595   3.369 -0.6783 -0.3601 -1.1630
  678MOL0     H89492   3.938   1.742   3.223 -0.1889 -2.6785  1.4987
  678MOL0     H89493   3.966   1.816   3.377  0.4719  2.0339 -1.4337
  678MOL0     H89494   4.200   2.095   3.172 -1.6084 -0.6971 -2.2068
  678MOL0     H89495   3.747   1.466   3.301 -4.8790 -2.0957  0.7588
  678MOL0     H89496   3.537   1.407   3.205 -0.3989  1.8005  0.0526
  679MOL0     O89497   9.929  10.387   0.514 -0.1649  0.1935  0.4186
  679MOL0     C89498   9.922  10.294   0.599 -0.3829  0.0586  1.3609
  679MOL0     O89499   9.806  10.244   0.648 -0.0755  0.2017  0.0775
  679MOL0     C89500   9.697  10.323   0.645  0.1651 -0.3152 -1.3968
  679MOL0     C89501   9.675  10.396   0.759 -0.4279 -0.8149 -0.5332
  679MOL0     C89502   9.562  10.471   0.768 -0.3229 -0.3759  0.0378
  679MOL0     C89503   9.466  10.473   0.660  0.5282 -0.1021  0.4309
  679MOL0     O89504   9.342  10.540   0.674  0.9896 -0.1971 -0.3506
  679MOL0     C89505   9.300  10.626   0.573  0.1196 -0.4417 -0.5225
  679MOL0     C89506   9.159  10.684   0.609 -0.8113  0.4745 -0.1708
  679MOL0     C89507   9.115  10.787   0.503 -0.7590  0.1753  0.1407
  679MOL0     C89508   8.993  10.870   0.547  0.1747  0.9698  0.3814
  679MOL0     C89509   8.872  10.784   0.566 -0.3955 -0.1813 -0.1332
  679MOL0     C89510   8.843  10.684   0.450  0.0434  0.0664 -0.4532
  679MOL0     C89511   8.782  10.745   0.331  0.5129 -0.1961  0.2971
  679MOL0     C89512   8.755  10.633   0.231  0.3669  0.1746  0.5485
  679MOL0     N89513   8.677  10.688   0.107 -0.5564  0.1722  0.9909
  679MOL0     C89514   8.535  10.671   0.085  0.3317 -0.3990  0.2102
  679MOL0     C89515   8.515  10.728  -0.040  0.6212 -0.0702 -0.0074
  679MOL0     C89516   8.386  10.751  -0.115 -0.5782 -0.0568  0.0698
  679MOL0     C89517   8.316  10.879  -0.087  0.5774 -1.3062 -0.2064
  679MOL0     C89518   8.209  10.936  -0.189  1.3905 -0.0913  0.6501
  679MOL0     C89519   8.089  10.838  -0.170  0.3090 -0.0796  0.5030
  679MOL0     O89520   7.981  10.879  -0.256 -0.4193  0.1808  0.1422
  679MOL0     C89521   7.854  10.826  -0.238 -0.3569  0.0517 -0.2330
  679MOL0     C89522   7.836  10.713  -0.166 -0.1942 -0.9709  0.1412
  679MOL0     C89523   7.710  10.658  -0.143 -0.5189 -0.1642  0.5173
  679MOL0     C89524   7.597  10.718  -0.196 -0.1416 -0.6511 -0.2639
  679MOL0     C89525   7.462  10.646  -0.168 -0.1400 -0.1068 -0.0134
  679MOL0     O89526   7.356  10.715  -0.218 -0.1242 -0.1483  0.3194
  679MOL0     C89527   7.236  10.652  -0.200  0.8678  0.1077  0.9873
  679MOL0     C89528   7.206  10.549  -0.293 -0.4608 -0.0506 -0.3926
  679MOL0     C89529   7.077  10.487  -0.286 -0.5545  0.5245 -0.0803
  679MOL0     C89530   6.977  10.532  -0.195  0.0977 -0.3975 -0.3203
  679MOL0     O89531   6.855  10.480  -0.198  0.0657 -0.0661 -0.0851
  679MOL0     C89532   6.853  10.341  -0.165  0.0457  0.1877  1.7274
  679MOL0     C89533   6.723  10.313  -0.101  0.1227 -0.2135 -0.0315
  679MOL0     C89534   6.701  10.166  -0.068 -0.3296 -0.1749 -0.2332
  679MOL0     C89535   6.559  10.149  -0.008 -0.9969  0.5289  0.4618
  679MOL0     C89536   6.569  10.073   0.124  0.9406 -0.4277  0.1166
  679MOL0     C89537   6.440  10.093   0.207  0.2760  0.1804  0.7647
  679MOL0     C89538   6.436  10.020   0.343  0.7218 -0.0529 -0.6604
  679MOL0     C89539   6.518  10.079   0.452  0.3828  0.4393 -0.7556
  679MOL0    Cl89540   6.448  10.237   0.509 -0.1931  0.1859 -0.2509
  679MOL0     C89541   7.005  10.631  -0.107 -0.1910  0.4063  0.7699
  679MOL0     C89542   7.140  10.700  -0.105 -0.0943 -0.9092  0.6695
  679MOL0     O89543   7.464  10.539  -0.101 -0.2618 -0.8495  0.2668
  679MOL0     C89544   7.611  10.834  -0.280 -0.3154 -0.1729  0.1190
  679MOL0     C89545   7.734  10.884  -0.305 -1.1689 -0.5968 -0.2879
  679MOL0     N89546   8.636  10.782  -0.089 -0.4137 -0.2878  0.2630
  679MOL0     N89547   8.725  10.753  -0.003 -0.1324 -0.2873 -0.0092
  679MOL0     C89548   9.493  10.400   0.541 -1.0542  0.3402 -0.4985
  679MOL0     C89549   9.613  10.331   0.535  0.2389 -0.3888 -0.6847
  679MOL0     C89550  10.043  10.225   0.644  0.3462  0.6017 -1.2369
  679MOL0     C89551  10.158  10.229   0.564  0.9566 -0.1524  0.0692
  679MOL0     C89552  10.271  10.154   0.601 -0.6564 -0.6087 -0.4409
  679MOL0     C89553  10.259  10.067   0.717 -1.1502 -0.2896  0.0419
  679MOL0     O89554  10.369   9.985   0.746  0.2872  0.4406  0.4521
  679MOL0     C89555  10.500  10.027   0.722  0.0478  0.5657  0.1809
  679MOL0     C89556  10.589   9.966   0.830 -0.1208  1.1172  0.2746
  679MOL0     C89557  10.732   9.999   0.812 -0.8347  0.3311  0.2567
  679MOL0     C89558  10.780  10.135   0.877  0.6315 -0.4171 -1.0559
  679MOL0     C89559  10.924  10.128   0.862  0.0180 -0.1058  0.3861
  679MOL0     C89560  11.040  10.121   0.837 -1.3791  0.6566 -0.4382
  679MOL0     C89561  10.150  10.066   0.799 -0.5052 -0.3386  0.1762
  679MOL0     C89562  10.041  10.143   0.759  0.8143 -0.0822 -0.3450
  679MOL0     H89563   9.743  10.387   0.843 -1.8662 -2.2650  0.5410
  679MOL0     H89564   9.548  10.528   0.860  0.3832  0.2158 -0.2075
  679MOL0     H89565   9.282  10.568   0.481 -2.0474  0.0908 -0.4941
  679MOL0     H89566   9.371  10.704   0.544  0.1054 -0.4129 -0.4792
  679MOL0     H89567   9.161  10.738   0.704 -0.4648  0.5732 -0.2301
  679MOL0     H89568   9.091  10.599   0.617  0.2923 -0.2764  2.6184
  679MOL0     H89569   9.104  10.737   0.406 -4.6308  1.2995 -0.1451
  679MOL0     H89570   9.191  10.864   0.484  1.8400 -2.1430  0.5745
  679MOL0     H89571   9.022  10.910   0.645 -0.7037 -0.4079  1.2389
  679MOL0     H89572   8.957  10.946   0.478  1.6721 -1.5238 -3.4413
  679MOL0     H89573   8.787  10.847   0.596  1.5025  2.8007 -0.5040
  679MOL0     H89574   8.885  10.734   0.662  2.5386  0.0566 -0.3282
  679MOL0     H89575   8.767  10.621   0.497 -1.1202  2.4612  1.0827
  679MOL0     H89576   8.928  10.621   0.422  0.4448  1.2509 -2.0061
  679MOL0     H89577   8.694  10.799   0.367  3.0436  3.6842  1.2350
  679MOL0     H89578   8.851  10.819   0.291  1.6714 -0.1587  2.2460
  679MOL0     H89579   8.684  10.560   0.270 -1.2522  2.4222  2.0305
  679MOL0     H89580   8.851  10.588   0.203  0.1030 -0.5144  0.7347
  679MOL0     H89581   8.456  10.626   0.145  0.2691  0.2846  0.6571
  679MOL0     H89582   8.305  10.683  -0.088 -1.5840  1.3243  0.6319
  679MOL0     H89583   8.412  10.732  -0.219 -0.7023  2.1754 -0.4176
  679MOL0     H89584   8.384  10.964  -0.084  0.3980 -1.1828  1.1990
  679MOL0     H89585   8.265  10.886   0.010  0.5015  2.3937 -0.3735
  679MOL0     H89586   8.182  11.039  -0.163  0.2465 -0.7711  2.3175
  679MOL0     H89587   8.244  10.937  -0.293 -0.5203  1.1134 -0.0291
  679MOL0     H89588   8.067  10.845  -0.063  1.2676  3.2652  0.6062
  679MOL0     H89589   8.120  10.735  -0.186 -1.8682 -1.0304  2.0229
  679MOL0     H89590   7.913  10.661  -0.111 -0.1885  0.1487  1.2359
  679MOL0     H89591   7.699  10.576  -0.073  2.6078  0.1123  1.4962
  679MOL0     H89592   7.291  10.522  -0.354  0.3661  2.4497 -0.4473
  679MOL0     H89593   7.042  10.405  -0.348 -0.9246 -0.6992  1.6699
  679MOL0     H89594   6.938  10.302  -0.108  0.2867  0.3857  1.5051
  679MOL0     H89595   6.850  10.289  -0.261 -3.7953  2.7205  0.2415
  679MOL0     H89596   6.648  10.362  -0.164 -0.4405 -0.5760  0.3528
  679MOL0     H89597   6.728  10.361  -0.003  0.2874  0.1054 -0.1919
  679MOL0     H89598   6.778  10.130   0.000 -0.2072  0.3225 -0.1013
  679MOL0     H89599   6.713  10.105  -0.158  0.4272 -0.2678 -0.0754
  679MOL0     H89600   6.518  10.246   0.021 -2.8494  0.3004 -1.1489
  679MOL0     H89601   6.491  10.104  -0.082  0.1907 -1.5799  0.5708
  679MOL0     H89602   6.649  10.115   0.187  0.1334  4.6887 -1.7455
  679MOL0     H89603   6.595   9.970   0.097  1.7582 -0.3688  0.6428
  679MOL0     H89604   6.352  10.060   0.150 -0.0904 -0.0991  1.4721
  679MOL0     H89605   6.422  10.201   0.215 -1.2081  0.0154  0.0472
  679MOL0     H89606   6.331  10.011   0.371  0.6369  0.1449 -0.9189
  679MOL0     H89607   6.467   9.917   0.326 -2.3511 -1.0529 -0.8595
  679MOL0     H89608   6.622  10.092   0.423  0.6799  0.0659  0.0979
  679MOL0     H89609   6.516  10.009   0.537  2.8141 -2.7854 -3.1103
  679MOL0     H89610   6.919  10.657  -0.045 -0.4736 -0.5098  0.7729
  679MOL0     H89611   7.177  10.775  -0.036  1.0440 -0.9192  0.0853
  679MOL0     H89612   7.521  10.880  -0.320  0.8237  2.5429  0.4611
  679MOL0     H89613   7.757  10.968  -0.370  0.1310 -1.4172 -0.9372
  679MOL0     H89614   9.436  10.391   0.450  0.8293 -2.6024 -1.5003
  679MOL0     H89615   9.630  10.273   0.445  0.5590  2.1244 -2.3354
  679MOL0     H89616  10.150  10.295   0.478  1.5447 -2.0603 -1.5297
  679MOL0     H89617  10.360  10.155   0.540  1.2297 -0.8777  2.1575
  679MOL0     H89618  10.513  10.136   0.725  0.0656  0.5513  0.9730
  679MOL0     H89619  10.537   9.995   0.624  0.1312  0.2665  0.3109
  679MOL0     H89620  10.558   9.982   0.933 -1.7925  2.5513 -0.3982
  679MOL0     H89621  10.568   9.861   0.806 -1.4377  1.3792  0.2359
  679MOL0     H89622  10.766   9.994   0.709 -0.3545 -1.5874  0.4659
  679MOL0     H89623  10.782   9.914   0.860  1.9348  1.7562  0.1322
  679MOL0     H89624  10.744  10.225   0.826  1.0411  1.7985  2.2856
  679MOL0     H89625  10.739  10.143   0.977  4.8486 -1.0416  0.9451
  679MOL0     H89626  11.140  10.093   0.810 -1.0098  1.4536  0.0550
  679MOL0     H89627  10.153   9.991   0.878  0.5560 -1.0073 -0.4774
  679MOL0     H89628   9.949  10.125   0.814  1.0350 -0.2342 -0.0286
  680MOL0     O89629   7.085  10.244   2.759  0.0536 -1.0815  0.1017
  680MOL0     C89630   7.106  10.232   2.637 -0.7486  0.0799 -0.3050
  680MOL0     O89631   7.029  10.161   2.554 -0.2487  0.2284  1.2357
  680MOL0     C89632   6.912  10.119   2.616 -0.2295 -0.7829  0.2587
  680MOL0     C89633   6.810  10.207   2.652 -0.3080 -0.7910 -0.4733
  680MOL0     C89634   6.698  10.150   2.721 -0.3715 -0.2857  0.2818
  680MOL0     C89635   6.684  10.012   2.743  0.1585  0.9177  0.0076
  680MOL0     O89636   6.557   9.975   2.788  0.4534  0.1543  0.0745
  680MOL0     C89637   6.537   9.830   2.792 -1.3758  1.1327 -0.4201
  680MOL0     C89638   6.386   9.799   2.810 -0.4790  0.4579  0.5638
  680MOL0     C89639   6.308   9.829   2.680  0.7215 -0.7687 -0.7191
  680MOL0     C89640   6.169   9.892   2.702  1.1198 -0.1600 -0.0533
  680MOL0     C89641   6.055   9.809   2.768 -0.2390  0.7895 -0.2507
  680MOL0     C89642   5.916   9.872   2.793  0.0956 -0.1999  0.8207
  680MOL0     C89643   5.818   9.769   2.829  0.0137 -0.5973  0.3484
  680MOL0     C89644   5.822   9.725   2.982  0.5432  0.2592  0.0257
  680MOL0     N89645   5.713   9.633   3.016  0.3652 -0.0688 -0.5312
  680MOL0     C89646   5.683   9.602   3.143  0.0426 -0.4146 -0.1202
  680MOL0     C89647   5.627   9.480   3.143  0.8712  0.5915 -0.1189
  680MOL0     C89648   5.595   9.386   3.253  0.1902  0.0376  0.1599
  680MOL0     C89649   5.723   9.354   3.330  0.0605  0.8604  0.2422
  680MOL0     C89650   5.827   9.276   3.249 -0.3087  0.2097 -0.9336
  680MOL0     C89651   5.959   9.260   3.323 -0.0404  0.0214 -0.3931
  680MOL0     O89652   6.027   9.393   3.309 -0.7140 -0.2247  0.1867
  680MOL0     C89653   6.149   9.418   3.247  0.3100  1.1079  0.1213
  680MOL0     C89654   6.210   9.324   3.169 -0.1876 -0.0535  0.3984
  680MOL0     C89655   6.330   9.358   3.101 -0.1489  0.1498  0.4773
  680MOL0     C89656   6.396   9.481   3.115  0.0165 -0.1028  0.2413
  680MOL0     C89657   6.524   9.512   3.046 -0.3236  0.8794  0.2089
  680MOL0     O89658   6.584   9.398   2.979  0.2256  0.8021 -0.4567
  680MOL0     C89659   6.713   9.418   2.934  0.9564  0.7573 -0.4576
  680MOL0     C89660   6.740   9.472   2.811 -0.2758  0.0026  0.0147
  680MOL0     C89661   6.875   9.489   2.775  0.1143 -1.3286 -0.6217
  680MOL0     C89662   6.974   9.480   2.865 -0.2132  0.2121  0.9892
  680MOL0     O89663   7.102   9.509   2.829 -0.5677  0.5609 -0.0416
  680MOL0     C89664   7.138   9.608   2.741 -0.6421 -0.5624  0.7196
  680MOL0     C89665   7.292   9.637   2.747  0.4312 -0.0314  0.3899
  680MOL0     C89666   7.322   9.779   2.707  1.2836 -0.5250 -0.3336
  680MOL0     C89667   7.466   9.826   2.729  0.6710 -0.2899 -0.5309
  680MOL0     C89668   7.511   9.956   2.665 -0.7851  0.2304  0.1447
  680MOL0     C89669   7.664   9.957   2.684  0.4241 -0.1111  0.2376
  680MOL0     C89670   7.704  10.097   2.653  0.0530  0.8124  0.2787
  680MOL0     C89671   7.854  10.111   2.646 -0.1085 -0.1120 -0.1350
  680MOL0    Cl89672   7.914  10.241   2.530  0.2093 -0.3643  0.5832
  680MOL0     C89673   6.949   9.439   2.991 -0.3967  0.3513  0.2748
  680MOL0     C89674   6.813   9.414   3.031  0.1592  0.4351  0.3413
  680MOL0     O89675   6.566   9.621   3.044  0.5339  0.2004  0.3212
  680MOL0     C89676   6.329   9.569   3.199  0.3240 -0.7229  0.1705
  680MOL0     C89677   6.214   9.539   3.266  0.1832  0.3959 -0.5411
  680MOL0     N89678   5.623   9.434   3.013  0.1478 -0.1534  0.2948
  680MOL0     N89679   5.681   9.525   2.934  0.3317 -0.4400 -0.1176
  680MOL0     C89680   6.794   9.923   2.705 -0.4018 -0.7367  0.1134
  680MOL0     C89681   6.906   9.984   2.640 -0.2824 -0.8586  0.0710
  680MOL0     C89682   7.231  10.286   2.578 -0.5558  0.6690  1.0030
  680MOL0     C89683   7.232  10.316   2.441  0.1465  0.8674 -0.8110
  680MOL0     C89684   7.340  10.365   2.368  1.0159 -0.2825 -0.3417
  680MOL0     C89685   7.464  10.377   2.441 -0.1189 -0.9221 -0.0387
  680MOL0     O89686   7.568  10.412   2.365  0.4507 -0.0987  0.5299
  680MOL0     C89687   7.684  10.468   2.424  0.2691 -0.9714 -0.2385
  680MOL0     C89688   7.805  10.496   2.334  0.2814 -0.4191 -1.3041
  680MOL0     C89689   7.835  10.388   2.224  1.0796  1.1247  0.4433
  680MOL0     C89690   7.978  10.371   2.168 -0.1266 -0.3048  0.2909
  680MOL0     C89691   7.992  10.267   2.060 -0.4042  0.0706  0.6073
  680MOL0     C89692   7.988  10.175   1.984  0.7136 -0.3984  0.7947
  680MOL0     C89693   7.459  10.362   2.580  0.0848  0.4507  0.4960
  680MOL0     C89694   7.350  10.316   2.644  0.4219 -0.6220 -0.0270
  680MOL0     H89695   6.793  10.313   2.637 -1.2182 -1.0673 -1.5400
  680MOL0     H89696   6.614  10.214   2.747 -0.4965 -0.5549  0.5476
  680MOL0     H89697   6.596   9.792   2.876  0.7697 -0.6398 -2.5857
  680MOL0     H89698   6.566   9.774   2.703  1.4712 -0.1364  1.1567
  680MOL0     H89699   6.355   9.862   2.894 -1.4752 -2.7164  2.7218
  680MOL0     H89700   6.385   9.695   2.843  3.0680  0.1446  0.0938
  680MOL0     H89701   6.311   9.737   2.621 -0.6305 -1.8656  0.8148
  680MOL0     H89702   6.359   9.906   2.622 -1.4659  0.1628 -1.4886
  680MOL0     H89703   6.190   9.969   2.777  0.0002  0.9959 -0.8800
  680MOL0     H89704   6.127   9.942   2.615  1.8784 -0.6241 -0.6947
  680MOL0     H89705   6.085   9.783   2.870 -1.5279  1.6673  0.3749
  680MOL0     H89706   6.037   9.722   2.705 -1.0454  0.3815  0.5168
  680MOL0     H89707   5.883   9.924   2.702 -0.3319  1.7141  2.0169
  680MOL0     H89708   5.916   9.948   2.872  0.6921 -0.0783  0.7037
  680MOL0     H89709   5.724   9.826   2.828  0.3980  0.0782  1.6425
  680MOL0     H89710   5.811   9.680   2.765  1.1846 -0.7290  0.3965
  680MOL0     H89711   5.823   9.809   3.052 -1.2967 -0.3439  0.8358
  680MOL0     H89712   5.921   9.680   2.988  1.2192  1.5586 -0.8207
  680MOL0     H89713   5.713   9.673   3.220  1.5575  0.0548 -1.0922
  680MOL0     H89714   5.539   9.301   3.215 -2.1996  1.3226  0.5922
  680MOL0     H89715   5.530   9.441   3.321  2.0683  1.7208  0.6836
  680MOL0     H89716   5.697   9.288   3.413 -1.1819  0.5497 -0.3641
  680MOL0     H89717   5.768   9.434   3.389 -0.5400 -0.5840  2.8022
  680MOL0     H89718   5.793   9.173   3.231 -0.0246 -0.5986  2.3334
  680MOL0     H89719   5.857   9.322   3.155 -0.1337  0.1025 -0.9308
  680MOL0     H89720   6.008   9.174   3.276 -1.3420 -1.2247  0.4392
  680MOL0     H89721   5.943   9.219   3.424 -1.0308 -2.0679 -1.3350
  680MOL0     H89722   6.166   9.226   3.153 -2.2934  1.0189 -0.7394
  680MOL0     H89723   6.377   9.276   3.048  0.2331 -1.3734  3.0136
  680MOL0     H89724   6.662   9.498   2.740 -0.3254 -0.1658  0.0058
  680MOL0     H89725   6.891   9.525   2.674  0.2634 -1.1875 -0.5472
  680MOL0     H89726   7.074   9.696   2.755  1.5321  0.8836  2.1597
  680MOL0     H89727   7.133   9.575   2.637  2.7238 -3.1472  1.2131
  680MOL0     H89728   7.355   9.574   2.683 -0.5029 -1.3169  0.6724
  680MOL0     H89729   7.325   9.622   2.850  0.7885  2.8230  0.7556
  680MOL0     H89730   7.258   9.840   2.772  1.3237 -0.6441 -0.1823
  680MOL0     H89731   7.294   9.798   2.603  1.8731 -1.8638 -0.7548
  680MOL0     H89732   7.472   9.839   2.837 -1.6887  1.9164 -0.5677
  680MOL0     H89733   7.534   9.745   2.703  1.8733  0.5954 -0.2433
  680MOL0     H89734   7.453  10.038   2.708 -1.5291  0.7917 -1.7849
  680MOL0     H89735   7.491   9.957   2.557  1.8692  1.8524 -0.4141
  680MOL0     H89736   7.700   9.877   2.619 -2.5428 -2.9001  1.7204
  680MOL0     H89737   7.688   9.911   2.780 -0.4252 -5.2487 -1.7113
  680MOL0     H89738   7.667  10.130   2.556  2.1811  1.2632 -0.4312
  680MOL0     H89739   7.659  10.157   2.733 -2.2815 -1.9915  1.2554
  680MOL0     H89740   7.906  10.023   2.607  0.7310 -0.2106  1.1571
  680MOL0     H89741   7.883  10.116   2.751 -1.7315  0.8604  0.3109
  680MOL0     H89742   7.034   9.438   3.059 -0.5397 -2.0176  0.5062
  680MOL0     H89743   6.782   9.395   3.133 -0.7747  0.7142  0.1215
  680MOL0     H89744   6.376   9.666   3.208  0.4260 -0.6985 -0.5427
  680MOL0     H89745   6.182   9.621   3.329 -1.1113 -0.3250 -0.2254
  680MOL0     H89746   6.797   9.818   2.733 -0.5957 -0.8376 -0.2449
  680MOL0     H89747   6.986   9.929   2.592 -0.6823  0.2772 -2.0560
  680MOL0     H89748   7.142  10.299   2.382  0.7251  3.5540 -2.7263
  680MOL0     H89749   7.337  10.380   2.261  1.8161  1.5924 -0.1330
  680MOL0     H89750   7.708  10.415   2.517 -2.1074  1.4652  1.9332
  680MOL0     H89751   7.657  10.569   2.456 -1.9711 -0.7168 -2.6768
  680MOL0     H89752   7.807  10.595   2.289 -1.7898 -0.0276 -0.6633
  680MOL0     H89753   7.889  10.496   2.403  1.8121  0.2859 -3.0911
  680MOL0     H89754   7.767  10.407   2.141 -1.3174 -0.0901  1.9825
  680MOL0     H89755   7.817  10.291   2.271 -1.5147  0.7015 -1.2594
  680MOL0     H89756   8.012  10.463   2.119 -1.8935 -1.4732 -3.4914
  680MOL0     H89757   8.050  10.358   2.249 -0.3801 -0.1245  0.5503
  680MOL0     H89758   7.980  10.093   1.916 -0.1987  0.4290 -0.1106
  680MOL0     H89759   7.550  10.390   2.632  1.2440  2.7603 -2.5139
  680MOL0     H89760   7.343  10.306   2.752 -1.0629 -1.0783 -0.1385
  681MOL0     O89761   0.058   6.026   3.653  0.0252  0.2563  0.1294
  681MOL0     C89762   0.184   6.033   3.659 -0.1505 -0.9507  0.0209
  681MOL0     O89763   0.251   6.085   3.766 -0.0982 -0.4231  0.3731
  681MOL0     C89764   0.187   6.100   3.884 -0.1719 -0.9380 -0.2884
  681MOL0     C89765   0.243   6.028   3.990  0.3724  0.4668  0.0165
  681MOL0     C89766   0.187   6.043   4.117  1.0817  0.2055  0.6270
  681MOL0     C89767   0.071   6.120   4.140  0.3703  0.5115  0.3041
  681MOL0     O89768   0.026   6.134   4.272 -0.0987  0.0914  0.0001
  681MOL0     C89769  -0.103   6.086   4.301 -0.5054  0.1049 -0.6453
  681MOL0     C89770  -0.114   6.087   4.452 -0.7362 -0.0074  0.0293
  681MOL0     C89771  -0.255   6.037   4.489 -0.1003  0.0088  1.1727
  681MOL0     C89772  -0.269   6.032   4.639  0.6401  0.0083 -0.6285
  681MOL0     C89773  -0.357   5.921   4.694  0.3092  0.1229 -0.5750
  681MOL0     C89774  -0.513   5.967   4.697 -0.5481 -0.0415 -1.0848
  681MOL0     C89775  -0.596   5.845   4.751  0.3623 -0.9698  0.2349
  681MOL0     C89776  -0.741   5.873   4.770  0.5070 -0.1070  0.6391
  681MOL0     N89777  -0.814   5.760   4.823  0.5770 -0.8528  0.3570
  681MOL0     C89778  -0.887   5.665   4.759 -0.9475  0.1543 -0.0776
  681MOL0     C89779  -0.950   5.597   4.858  0.5026  0.4164  0.8074
  681MOL0     C89780  -1.069   5.505   4.848  0.3511  0.3329  0.3007
  681MOL0     C89781  -1.044   5.362   4.802 -0.6047  0.2966  0.7632
  681MOL0     C89782  -1.133   5.265   4.872 -0.7693 -0.5526  0.2503
  681MOL0     C89783  -1.285   5.266   4.829  0.6489 -0.4665  0.0479
  681MOL0     O89784  -1.301   5.237   4.690  0.0685 -0.3844  0.9092
  681MOL0     C89785  -1.427   5.242   4.630 -0.0365 -0.9261 -0.7752
  681MOL0     C89786  -1.426   5.192   4.498  0.5395  0.1321 -0.4469
  681MOL0     C89787  -1.550   5.184   4.429 -0.0535  0.2797 -0.9430
  681MOL0     C89788  -1.674   5.215   4.486 -0.5427 -0.5719  0.2674
  681MOL0     C89789  -1.804   5.176   4.420 -0.6888 -0.4915 -0.5023
  681MOL0     O89790  -1.921   5.191   4.492 -0.1329 -0.1668  0.5154
  681MOL0     C89791  -2.035   5.162   4.424  0.3915  0.0863  0.0222
  681MOL0     C89792  -2.075   5.260   4.330 -0.0599  0.1064 -0.6276
  681MOL0     C89793  -2.187   5.236   4.251 -0.7697 -0.6000 -0.5731
  681MOL0     C89794  -2.260   5.118   4.266  0.3043  0.5638  0.2313
  681MOL0     O89795  -2.358   5.095   4.171  0.3546  0.0029  0.3528
  681MOL0     C89796  -2.440   4.976   4.188 -0.9440  0.0939 -0.1541
  681MOL0     C89797  -2.551   4.957   4.092 -0.2131 -0.3083  0.4498
  681MOL0     C89798  -2.649   4.862   4.156 -0.0376 -0.3366  0.0967
  681MOL0     C89799  -2.739   4.805   4.044 -0.3419 -0.0299  0.1537
  681MOL0     C89800  -2.824   4.692   4.098 -0.1515  0.2498  1.0197
  681MOL0     C89801  -2.927   4.659   3.983 -0.6299 -0.5223 -1.3592
  681MOL0     C89802  -2.996   4.538   4.027  1.0591 -0.1040  0.4100
  681MOL0     C89803  -2.917   4.420   3.993 -0.3099  0.4809 -0.0489
  681MOL0    Cl89804  -3.029   4.286   4.022 -0.2477 -0.0277  0.1586
  681MOL0     C89805  -2.227   5.034   4.380 -0.3291  0.6654  0.8211
  681MOL0     C89806  -2.114   5.056   4.452 -0.6281  0.1557 -0.7478
  681MOL0     O89807  -1.798   5.132   4.306  0.2631  0.0962  0.1133
  681MOL0     C89808  -1.665   5.264   4.617  0.1359 -0.8806  0.0592
  681MOL0     C89809  -1.549   5.275   4.689  0.2885 -0.6881 -0.7580
  681MOL0     N89810  -0.922   5.649   4.979 -1.0317 -0.5676  0.7360
  681MOL0     N89811  -0.832   5.742   4.960 -0.3325 -0.1223  0.2378
  681MOL0     C89812   0.017   6.190   4.029  0.0624  1.0267  0.5997
  681MOL0     C89813   0.075   6.185   3.904 -0.4610 -0.2273 -0.6273
  681MOL0     C89814   0.259   6.002   3.535  0.3373 -1.2163 -0.9767
  681MOL0     C89815   0.185   5.955   3.425  0.0464 -0.2803  0.9533
  681MOL0     C89816   0.263   5.907   3.319  0.1646  0.3451  0.2827
  681MOL0     C89817   0.401   5.929   3.312 -0.8296 -0.5449  0.3536
  681MOL0     O89818   0.462   5.891   3.197 -0.8561  0.4041  0.0473
  681MOL0     C89819   0.533   5.768   3.207 -0.0636 -0.3727  0.6464
  681MOL0     C89820   0.685   5.812   3.193  0.6984  0.1162 -0.3367
  681MOL0     C89821   0.767   5.690   3.161 -0.2098  0.8477  0.1842
  681MOL0     C89822   0.912   5.717   3.174  0.5540 -0.3941  0.3681
  681MOL0     C89823   1.003   5.599   3.165  0.3462  0.3284  1.0548
  681MOL0     C89824   1.080   5.504   3.154 -0.1549 -0.0489 -0.4274
  681MOL0     C89825   0.464   5.986   3.416  0.5033 -0.0516 -0.6984
  681MOL0     C89826   0.397   6.021   3.529  0.4498 -0.3782 -0.4877
  681MOL0     H89827   0.321   5.957   3.965  1.0950  0.5632  1.8720
  681MOL0     H89828   0.242   5.996   4.199  1.4568  0.1255  0.3342
  681MOL0     H89829  -0.126   5.985   4.267 -1.7013  0.0797  0.2003
  681MOL0     H89830  -0.177   6.160   4.268 -1.0563  0.7527  1.8585
  681MOL0     H89831  -0.105   6.185   4.498 -1.1577  0.7523 -1.4434
  681MOL0     H89832  -0.037   6.019   4.491 -0.0120  1.8318  1.9555
  681MOL0     H89833  -0.285   5.941   4.447  2.0740 -0.6901  1.1055
  681MOL0     H89834  -0.327   6.112   4.454  0.3211 -0.4462 -0.7962
  681MOL0     H89835  -0.172   6.034   4.689 -0.9994 -0.3442  2.9005
  681MOL0     H89836  -0.305   6.132   4.666 -0.6650  0.6869 -4.2704
  681MOL0     H89837  -0.338   5.900   4.800  1.6634  3.8365  0.0535
  681MOL0     H89838  -0.327   5.839   4.628 -0.3225  0.4330 -1.2587
  681MOL0     H89839  -0.542   5.999   4.597  1.5451  2.0327 -1.1185
  681MOL0     H89840  -0.523   6.051   4.766  4.2904  0.8430 -1.0931
  681MOL0     H89841  -0.590   5.758   4.685 -2.8521 -0.4855 -0.8695
  681MOL0     H89842  -0.548   5.829   4.848  2.2216  1.3557 -0.1951
  681MOL0     H89843  -0.776   5.900   4.670  0.9163  0.2449  0.5892
  681MOL0     H89844  -0.767   5.950   4.843 -2.2897  0.5105 -0.8814
  681MOL0     H89845  -0.906   5.649   4.653 -1.5755 -0.3206  0.1035
  681MOL0     H89846  -1.145   5.544   4.779 -1.7509 -1.0489  1.7102
  681MOL0     H89847  -1.121   5.504   4.944  0.4814  2.0701  0.4165
  681MOL0     H89848  -0.944   5.329   4.828  0.4844  0.7345 -2.4304
  681MOL0     H89849  -1.046   5.359   4.693  2.1762  0.6756  0.6336
  681MOL0     H89850  -1.083   5.169   4.857 -1.0908 -0.7084  0.1660
  681MOL0     H89851  -1.113   5.275   4.979 -0.3353 -4.5101  0.6921
  681MOL0     H89852  -1.336   5.359   4.858  0.5722 -0.4862 -0.0235
  681MOL0     H89853  -1.332   5.184   4.885 -0.2686  0.2508  0.3684
  681MOL0     H89854  -1.334   5.155   4.453 -0.9765 -1.6817 -2.2474
  681MOL0     H89855  -1.541   5.123   4.340 -2.1928 -2.6019  0.6362
  681MOL0     H89856  -2.018   5.351   4.316 -0.4613  0.4457 -0.0781
  681MOL0     H89857  -2.217   5.305   4.173 -0.7036 -1.4546 -1.3672
  681MOL0     H89858  -2.478   4.975   4.290  0.0582  1.9862  0.2666
  681MOL0     H89859  -2.365   4.899   4.169  0.1573  1.7698 -3.5758
  681MOL0     H89860  -2.517   4.922   3.994 -0.7433  2.2665 -0.7126
  681MOL0     H89861  -2.604   5.052   4.086 -1.8093 -0.9276  3.0544
  681MOL0     H89862  -2.708   4.917   4.230  0.0218 -1.1639  0.7716
  681MOL0     H89863  -2.599   4.779   4.206  0.5257  0.7150  1.3374
  681MOL0     H89864  -2.802   4.884   4.002 -3.3991 -1.8526  1.0130
  681MOL0     H89865  -2.678   4.761   3.964 -0.7842 -0.4651  0.0532
  681MOL0     H89866  -2.884   4.737   4.178 -2.5387  0.8124 -0.9721
  681MOL0     H89867  -2.753   4.615   4.130  1.7433  2.0446  1.3571
  681MOL0     H89868  -2.881   4.635   3.887  1.5132  0.3031 -0.5791
  681MOL0     H89869  -2.998   4.742   3.976  2.7452  2.9290  1.1183
  681MOL0     H89870  -3.034   4.557   4.128 -4.0258  0.8377 -1.3730
  681MOL0     H89871  -3.090   4.522   3.973  1.6547 -1.6034 -0.2545
  681MOL0     H89872  -2.825   4.419   4.052  0.2396 -3.3063 -0.7212
  681MOL0     H89873  -2.880   4.424   3.890 -0.4266  2.6362 -0.0663
  681MOL0     H89874  -2.275   4.942   4.410  0.7564 -0.1729  0.0688
  681MOL0     H89875  -2.091   4.987   4.533 -0.8576 -0.5234 -1.2472
  681MOL0     H89876  -1.764   5.276   4.659  0.2711  2.3480 -0.3403
  681MOL0     H89877  -1.548   5.301   4.794  0.1757  1.7997 -1.3152
  681MOL0     H89878  -0.064   6.258   4.055 -3.0237 -2.5498  1.2606
  681MOL0     H89879   0.064   6.250   3.817  1.4307  0.9095 -0.0609
  681MOL0     H89880   0.077   5.950   3.422  0.0736 -0.4512  0.0241
  681MOL0     H89881   0.201   5.887   3.233 -0.1205  4.4004 -0.6856
  681MOL0     H89882   0.497   5.692   3.137 -0.5686  0.3116  0.1460
  681MOL0     H89883   0.521   5.724   3.307 -1.5197  1.3533  1.2860
  681MOL0     H89884   0.701   5.874   3.105  0.0341  2.2830  0.9940
  681MOL0     H89885   0.719   5.867   3.281 -0.5454  1.4616 -0.6591
  681MOL0     H89886   0.743   5.646   3.064 -1.3790 -2.0735  1.6696
  681MOL0     H89887   0.738   5.612   3.232  0.4123  1.7166  1.4124
  681MOL0     H89888   0.930   5.787   3.092 -0.6289 -1.9883 -1.3542
  681MOL0     H89889   0.927   5.765   3.271 -1.9999 -1.8030  1.5807
  681MOL0     H89890   1.158   5.432   3.135 -0.4853  0.1440 -2.8787
  681MOL0     H89891   0.572   6.002   3.420  0.2265  1.9581  0.1092
  681MOL0     H89892   0.456   6.062   3.611 -1.0468 -0.1467  0.5211
  682MOL0     O89893  11.158   7.324   1.410  0.2691 -0.7275  0.2381
  682MOL0     C89894  11.130   7.442   1.398 -0.1278 -0.1989 -0.5554
  682MOL0     O89895  11.001   7.492   1.384  0.3272 -0.0469  0.2660
  682MOL0     C89896  10.893   7.408   1.409 -0.2242 -0.2031 -0.0905
  682MOL0     C89897  10.775   7.433   1.350  0.2823  0.1626  0.9508
  682MOL0     C89898  10.649   7.357   1.365 -0.4594 -0.6906  0.5308
  682MOL0     C89899  10.654   7.243   1.444  0.2203 -0.3872  0.5223
  682MOL0     O89900  10.541   7.170   1.479 -0.2641 -0.3324 -0.2341
  682MOL0     C89901  10.444   7.157   1.376 -0.7048 -0.4379  0.0245
  682MOL0     C89902  10.354   7.041   1.418 -0.1851 -0.3001  1.1533
  682MOL0     C89903  10.205   7.054   1.374  0.3236  0.1572  0.9350
  682MOL0     C89904  10.128   7.191   1.384 -0.1904  1.0154 -0.0717
  682MOL0     C89905   9.976   7.164   1.387  1.0215  0.4435  0.5613
  682MOL0     C89906   9.891   7.293   1.376  0.4725 -0.0370 -0.6736
  682MOL0     C89907   9.742   7.264   1.347  1.1140  0.4708 -0.1645
  682MOL0     C89908   9.671   7.215   1.468 -0.5783  0.1033  0.0540
  682MOL0     N89909   9.533   7.238   1.455 -0.4682  0.1084 -0.2082
  682MOL0     C89910   9.468   7.329   1.526 -0.0515  0.2831 -0.1288
  682MOL0     C89911   9.345   7.325   1.474 -0.5348 -0.9820 -0.6117
  682MOL0     C89912   9.236   7.427   1.505  0.4590  0.0194  0.1653
  682MOL0     C89913   9.143   7.378   1.626  0.0653 -0.1154  0.5135
  682MOL0     C89914   9.037   7.287   1.569 -0.4934  0.0481 -0.0243
  682MOL0     C89915   8.944   7.234   1.692 -0.5568  0.3086  0.4435
  682MOL0     O89916   8.912   7.355   1.764 -0.5889 -0.0627 -0.6312
  682MOL0     C89917   8.788   7.392   1.740  0.4330 -0.4037  0.2505
  682MOL0     C89918   8.681   7.322   1.787 -0.1595  0.0606  0.4531
  682MOL0     C89919   8.545   7.364   1.763 -0.4568  0.0545 -0.7879
  682MOL0     C89920   8.524   7.491   1.692  0.8560 -0.2881 -0.0236
  682MOL0     C89921   8.381   7.540   1.663  0.0920  0.1866  0.8821
  682MOL0     O89922   8.290   7.443   1.669  0.6696 -0.3698 -0.3955
  682MOL0     C89923   8.165   7.491   1.633  0.4427  0.5959 -0.3366
  682MOL0     C89924   8.082   7.550   1.727  0.4699  0.7829 -0.6670
  682MOL0     C89925   7.958   7.605   1.690  0.1025 -0.3854 -0.9057
  682MOL0     C89926   7.917   7.607   1.559 -0.4579 -0.0971  0.5018
  682MOL0     O89927   7.797   7.665   1.515  0.5850 -0.3368 -0.1266
  682MOL0     C89928   7.694   7.705   1.611  0.6105 -0.1630 -0.1122
  682MOL0     C89929   7.567   7.746   1.537 -0.2362 -0.3146 -0.4573
  682MOL0     C89930   7.494   7.628   1.478 -0.3838  0.2542 -0.5017
  682MOL0     C89931   7.376   7.677   1.399  0.9192 -0.3538  0.4098
  682MOL0     C89932   7.345   7.573   1.292  0.1997  0.3348 -0.8422
  682MOL0     C89933   7.218   7.595   1.215  0.2113  0.2685  1.0633
  682MOL0     C89934   7.191   7.491   1.106  0.5215  0.2810  0.1992
  682MOL0     C89935   7.190   7.341   1.157 -0.0995 -0.1236 -0.6504
  682MOL0    Cl89936   7.027   7.318   1.239  0.2907 -0.0428 -0.2342
  682MOL0     C89937   7.996   7.536   1.472 -0.8439  0.6543  0.2983
  682MOL0     C89938   8.116   7.477   1.504  0.1639  0.0700  1.2289
  682MOL0     O89939   8.363   7.664   1.635 -0.2177  0.0902 -0.2781
  682MOL0     C89940   8.640   7.566   1.650 -0.6214 -0.0968  0.3156
  682MOL0     C89941   8.766   7.517   1.663 -0.4168 -0.1117 -0.2836
  682MOL0     N89942   9.334   7.229   1.378 -0.1598  0.2390  0.0258
  682MOL0     N89943   9.450   7.171   1.378  0.4285  0.0525 -0.3357
  682MOL0     C89944  10.777   7.218   1.497  0.4647  0.7057 -0.8742
  682MOL0     C89945  10.898   7.291   1.492  0.3467 -0.7189 -0.8622
  682MOL0     C89946  11.242   7.538   1.393 -0.0419 -0.6638  0.3519
  682MOL0     C89947  11.232   7.670   1.442 -0.1020  1.3833 -0.2735
  682MOL0     C89948  11.335   7.754   1.439  0.3288  0.4544 -0.1518
  682MOL0     C89949  11.455   7.723   1.377  0.6510  0.3694  0.0730
  682MOL0     O89950  11.554   7.809   1.359 -0.0573 -0.2155  0.4515
  682MOL0     C89951  11.546   7.939   1.422 -1.0437  0.0454  0.2639
  682MOL0     C89952  11.672   8.023   1.392  0.6871  0.4571 -0.5818
  682MOL0     C89953  11.787   7.957   1.460 -0.4193  0.2346  0.4653
  682MOL0     C89954  11.798   7.985   1.617  0.0563  0.4413 -0.1603
  682MOL0     C89955  11.788   8.130   1.645 -0.2411  0.1913  1.3416
  682MOL0     C89956  11.784   8.246   1.658  0.7525  0.4367 -0.7847
  682MOL0     C89957  11.470   7.597   1.324 -0.9135  0.0799  0.6926
  682MOL0     C89958  11.368   7.501   1.340 -0.8290 -0.6877  0.4405
  682MOL0     H89959  10.771   7.520   1.284  0.3807 -0.0480  0.6637
  682MOL0     H89960  10.561   7.375   1.304 -2.9285 -0.8901  3.7280
  682MOL0     H89961  10.496   7.141   1.281  1.3195  0.1190  0.9748
  682MOL0     H89962  10.392   7.253   1.376  1.0157  0.5488 -0.0477
  682MOL0     H89963  10.361   7.031   1.527 -0.3635  0.0793  1.2025
  682MOL0     H89964  10.388   6.948   1.372 -1.6090 -0.1783 -0.2286
  682MOL0     H89965  10.149   6.987   1.440 -0.6684 -0.1649 -0.1877
  682MOL0     H89966  10.196   7.025   1.269 -1.0132  1.4828  0.6512
  682MOL0     H89967  10.169   7.250   1.467  1.1818  3.3458 -2.2335
  682MOL0     H89968  10.163   7.253   1.300  0.6150  0.1597 -0.3865
  682MOL0     H89969   9.943   7.108   1.476  0.9825  0.3717  0.5023
  682MOL0     H89970   9.939   7.117   1.295  0.2991 -0.0597  1.0960
  682MOL0     H89971   9.920   7.356   1.291 -0.6662 -0.7755 -1.6354
  682MOL0     H89972   9.901   7.335   1.477  2.0330 -3.8154  0.9105
  682MOL0     H89973   9.699   7.361   1.322  3.8456  0.8748 -4.2174
  682MOL0     H89974   9.720   7.201   1.260 -0.5156  2.4271 -1.2608
  682MOL0     H89975   9.710   7.260   1.560  0.0143  3.4754 -1.7061
  682MOL0     H89976   9.674   7.106   1.480 -1.1019  0.1641  0.8259
  682MOL0     H89977   9.512   7.395   1.600 -1.4332  0.0269  0.9602
  682MOL0     H89978   9.179   7.450   1.415  0.6092  0.3733  0.1574
  682MOL0     H89979   9.287   7.521   1.527 -0.7502  0.3574  1.6679
  682MOL0     H89980   9.097   7.467   1.670  2.5728  0.6344  1.8559
  682MOL0     H89981   9.200   7.316   1.696 -2.5308 -1.9438  1.1249
  682MOL0     H89982   8.982   7.341   1.492 -0.4836  0.7018  0.4231
  682MOL0     H89983   9.086   7.200   1.524 -0.4962 -0.0862  0.2313
  682MOL0     H89984   9.009   7.172   1.755 -1.6732 -0.2279  1.0921
  682MOL0     H89985   8.867   7.163   1.662 -0.7510  0.4579  0.5854
  682MOL0     H89986   8.703   7.241   1.856 -2.9747 -1.3494 -0.1569
  682MOL0     H89987   8.468   7.302   1.807  1.9507 -2.8110 -0.2356
  682MOL0     H89988   8.109   7.554   1.832  0.6673  0.5910 -0.7104
  682MOL0     H89989   7.904   7.668   1.760  0.6037 -0.7531 -0.1795
  682MOL0     H89990   7.732   7.787   1.672  2.2261 -1.0023  0.0610
  682MOL0     H89991   7.676   7.622   1.681  4.1154 -3.0048 -2.1833
  682MOL0     H89992   7.589   7.810   1.451  0.6338  2.1442  1.4663
  682MOL0     H89993   7.497   7.796   1.604 -0.7021 -0.6014 -0.7300
  682MOL0     H89994   7.461   7.551   1.549  0.9522  0.3288  0.2265
  682MOL0     H89995   7.550   7.570   1.404 -0.8106 -2.6189  1.2635
  682MOL0     H89996   7.296   7.714   1.465  0.9011 -0.7225  0.5951
  682MOL0     H89997   7.401   7.766   1.340  0.6478 -0.6167 -0.1054
  682MOL0     H89998   7.340   7.474   1.339  0.8808 -0.3986 -2.2721
  682MOL0     H89999   7.429   7.572   1.222  2.6060 -0.6239  1.8228
  682MOL0     H90000   7.218   7.693   1.166 -3.8006  1.3092  2.7331
  682MOL0     H90001   7.133   7.599   1.284  0.8208 -1.1539  1.9308
  682MOL0     H90002   7.095   7.510   1.056  2.1146 -0.6415 -3.5780
  682MOL0     H90003   7.269   7.505   1.030  2.1481  3.4588  2.2164
  682MOL0     H90004   7.264   7.317   1.234  0.3738 -0.1760 -1.1180
  682MOL0     H90005   7.210   7.275   1.071 -0.4445 -0.2917 -0.6048
  682MOL0     H90006   7.961   7.547   1.370 -0.0913 -2.1211 -0.3470
  682MOL0     H90007   8.176   7.435   1.425 -0.6843  2.0107 -0.5499
  682MOL0     H90008   8.625   7.664   1.606 -2.2385 -1.0859 -1.4782
  682MOL0     H90009   8.857   7.568   1.631  1.8901 -3.0258  1.1874
  682MOL0     H90010  10.786   7.121   1.546  1.7526  2.5943  2.9788
  682MOL0     H90011  10.978   7.253   1.554 -2.0642 -0.5545  2.6797
  682MOL0     H90012  11.141   7.715   1.484 -0.0770  0.5615  0.7076
  682MOL0     H90013  11.329   7.850   1.490  0.0529  0.1588  0.3813
  682MOL0     H90014  11.526   7.934   1.529  0.6316 -0.9433  0.5509
  682MOL0     H90015  11.471   7.993   1.362 -0.4399 -0.3279 -0.8532
  682MOL0     H90016  11.675   8.022   1.282 -1.5456 -2.5744 -0.7649
  682MOL0     H90017  11.647   8.121   1.433 -1.8198  0.2408 -1.4242
  682MOL0     H90018  11.881   7.994   1.417 -0.5371 -0.9644 -0.8942
  682MOL0     H90019  11.784   7.849   1.442 -3.7872  0.0183  1.6192
  682MOL0     H90020  11.724   7.922   1.667  2.7185 -3.6939 -0.9354
  682MOL0     H90021  11.897   7.954   1.650  0.6178 -1.9077 -3.5752
  682MOL0     H90022  11.781   8.344   1.700 -3.7940  0.1760  0.0562
  682MOL0     H90023  11.571   7.580   1.288 -0.9654 -1.0898  1.0400
  682MOL0     H90024  11.384   7.405   1.291 -0.2182  0.1039 -0.9707
  683MOL0     O90025   2.254   5.590   9.612 -0.2265 -0.3582 -0.2305
  683MOL0     C90026   2.329   5.635   9.697  0.6261  1.0236  0.0477
  683MOL0     O90027   2.326   5.604   9.823 -0.3742  0.6118  0.2505
  683MOL0     C90028   2.207   5.550   9.877  0.0349  0.0873 -0.2978
  683MOL0     C90029   2.110   5.641   9.932 -0.6727  0.9904  0.3989
  683MOL0     C90030   2.005   5.588   9.997  0.7847  0.2792  0.5786
  683MOL0     C90031   1.980   5.454  10.002  0.6559  0.2663  0.0383
  683MOL0     O90032   1.877   5.413  10.082  0.0147 -0.1268 -0.0643
  683MOL0     C90033   1.842   5.273  10.093  0.1375 -0.2893  0.1254
  683MOL0     C90034   1.723   5.275  10.188 -0.9570  0.1016  0.6660
  683MOL0     C90035   1.606   5.352  10.134 -0.1629  0.5920  0.6813
  683MOL0     C90036   1.484   5.349  10.219 -0.5422  0.1745 -0.9727
  683MOL0     C90037   1.361   5.406  10.146  0.0743  0.0385  0.2000
  683MOL0     C90038   1.256   5.455  10.249 -0.2457  0.3192 -0.0082
  683MOL0     C90039   1.197   5.332  10.326  0.4346  0.3111 -0.0268
  683MOL0     C90040   1.089   5.377  10.429  1.3723  0.1003  0.2306
  683MOL0     N90041   0.961   5.421  10.376  0.0624 -0.1018  0.7475
  683MOL0     C90042   0.892   5.365  10.271  0.0594 -0.6065  0.3081
  683MOL0     C90043   0.813   5.460  10.223  0.8142 -0.3725  0.2584
  683MOL0     C90044   0.724   5.436  10.106  0.7345  0.1846 -0.5381
  683MOL0     C90045   0.577   5.438  10.157 -0.5501 -0.5451 -0.0206
  683MOL0     C90046   0.523   5.586  10.177 -0.2032  0.0305 -0.0218
  683MOL0     C90047   0.493   5.643  10.036 -0.5652 -0.4289  0.1705
  683MOL0     O90048   0.407   5.565   9.944 -0.7676  0.1104  0.0355
  683MOL0     C90049   0.285   5.546   9.995 -0.8860 -0.5849 -0.7117
  683MOL0     C90050   0.237   5.423  10.040 -0.4094  0.7243 -0.1023
  683MOL0     C90051   0.111   5.405  10.093  0.0701 -0.3813  0.5741
  683MOL0     C90052   0.029   5.520  10.109  1.2126  0.7565  0.3175
  683MOL0     C90053  -0.110   5.505  10.169  0.2751 -0.3744  0.3931
  683MOL0     O90054  -0.144   5.381  10.215 -0.6043  0.4313  0.5031
  683MOL0     C90055  -0.279   5.364  10.247  0.5915  0.1616 -0.4211
  683MOL0     C90056  -0.316   5.379  10.386 -0.9112 -0.6500 -0.7358
  683MOL0     C90057  -0.451   5.353  10.419  0.6440  0.4633 -0.2320
  683MOL0     C90058  -0.550   5.327  10.315  0.0723  0.1546 -1.2084
  683MOL0     O90059  -0.677   5.305  10.345  1.0088 -0.1785 -0.1761
  683MOL0     C90060  -0.718   5.169  10.389 -0.3894  0.1352  0.7702
  683MOL0     C90061  -0.727   5.074  10.262  0.1820 -0.3867 -0.0991
  683MOL0     C90062  -0.835   5.119  10.161  0.2085  1.0135  0.7484
  683MOL0     C90063  -0.970   5.162  10.218  0.0454 -0.1466  0.3701
  683MOL0     C90064  -1.083   5.202  10.122  0.3821  0.1148  0.5409
  683MOL0     C90065  -1.110   5.108  10.003  0.9639  0.0561  0.3251
  683MOL0     C90066  -1.135   4.960  10.038  0.6620  0.6480  0.1213
  683MOL0     C90067  -1.209   4.892   9.927  0.7669 -0.0805 -0.4270
  683MOL0    Cl90068  -1.231   4.720   9.984  0.2971 -0.1458  0.3418
  683MOL0     C90069  -0.510   5.324  10.183 -0.3161  0.3061 -0.9610
  683MOL0     C90070  -0.373   5.342  10.144  0.5379 -0.0690  0.4420
  683MOL0     O90071  -0.188   5.601  10.168 -0.4234  1.1435  0.1826
  683MOL0     C90072   0.074   5.644  10.059  0.3067  0.5949  0.9435
  683MOL0     C90073   0.200   5.659  10.011  0.1376  0.0151 -0.6440
  683MOL0     N90074   0.819   5.572  10.308  0.3897  0.6250  0.1917
  683MOL0     N90075   0.914   5.545  10.392  0.1631 -0.0593 -0.3532
  683MOL0     C90076   2.057   5.361   9.922  0.0141 -0.9114  0.4435
  683MOL0     C90077   2.179   5.410   9.869  0.4638 -1.1600 -0.1345
  683MOL0     C90078   2.442   5.728   9.648  0.5103  0.6479 -0.3041
  683MOL0     C90079   2.426   5.787   9.523 -0.5889  0.1978 -0.4088
  683MOL0     C90080   2.525   5.878   9.476 -0.2198  0.1488  0.4449
  683MOL0     C90081   2.640   5.903   9.550  0.1543 -0.5544  0.3117
  683MOL0     O90082   2.746   5.980   9.495  0.4666 -0.3878 -0.4565
  683MOL0     C90083   2.858   6.018   9.579 -0.1690  0.5327  0.0746
  683MOL0     C90084   2.938   6.116   9.496  0.0201 -0.9241  0.1026
  683MOL0     C90085   3.080   6.144   9.552  1.3358  0.0541 -0.7673
  683MOL0     C90086   3.155   6.235   9.456 -0.4709  0.7506 -0.3958
  683MOL0     C90087   3.261   6.294   9.536 -0.7391 -1.2574  1.0744
  683MOL0     C90088   3.352   6.364   9.575 -0.0176 -0.4181  0.3073
  683MOL0     C90089   2.648   5.835   9.679 -0.7697  0.1287  0.4157
  683MOL0     C90090   2.549   5.748   9.727 -0.8284  0.6079  0.2522
  683MOL0     H90091   2.122   5.749   9.924 -0.5519  0.8881 -0.9977
  683MOL0     H90092   1.933   5.653  10.047 -2.8456 -0.9977 -2.4294
  683MOL0     H90093   1.923   5.215  10.138  0.1419 -0.2029  0.2313
  683MOL0     H90094   1.811   5.227   9.999 -0.2666  1.5069 -0.6577
  683MOL0     H90095   1.760   5.306  10.286  1.1592 -2.0355  0.6342
  683MOL0     H90096   1.695   5.169  10.195  1.3998 -0.5654  1.1353
  683MOL0     H90097   1.581   5.315  10.033  0.9061  1.9773 -0.1233
  683MOL0     H90098   1.645   5.452  10.115  2.1004 -0.7429 -2.7230
  683MOL0     H90099   1.467   5.242  10.232 -0.8109  0.4263  1.1788
  683MOL0     H90100   1.509   5.394  10.316  3.8159  0.4443 -2.0046
  683MOL0     H90101   1.314   5.329  10.084  1.1240 -1.0522  0.7023
  683MOL0     H90102   1.401   5.489  10.088  0.9768 -0.9642 -0.6560
  683MOL0     H90103   1.182   5.510  10.190  0.6498  1.8286  0.2335
  683MOL0     H90104   1.299   5.530  10.316 -1.6881  0.7847  0.4277
  683MOL0     H90105   1.164   5.256  10.256 -4.3523 -0.2803  2.4562
  683MOL0     H90106   1.279   5.289  10.385 -0.2761  0.6304  1.2406
  683MOL0     H90107   1.119   5.457  10.497 -2.6885  1.9260  0.1731
  683MOL0     H90108   1.075   5.288  10.491 -1.1891  0.7212  0.6502
  683MOL0     H90109   0.902   5.268  10.223 -0.8706  1.1671 -3.9722
  683MOL0     H90110   0.734   5.333  10.070  1.8055  0.3896 -0.8628
  683MOL0     H90111   0.748   5.505  10.025  1.0712  1.9161  0.9547
  683MOL0     H90112   0.571   5.398  10.258 -2.3719 -0.9090 -0.2263
  683MOL0     H90113   0.523   5.370  10.090  1.3553 -1.8403 -0.3030
  683MOL0     H90114   0.428   5.590  10.230 -1.9388  0.8831 -2.9746
  683MOL0     H90115   0.597   5.655  10.218  0.6801 -0.4629 -0.7442
  683MOL0     H90116   0.594   5.649   9.995 -0.8213 -0.7632 -0.5131
  683MOL0     H90117   0.455   5.743  10.063  1.3626  0.3722  0.0468
  683MOL0     H90118   0.305   5.340  10.026 -0.6030 -0.7671  5.6624
  683MOL0     H90119   0.077   5.306  10.123  0.5357 -0.0480  2.3504
  683MOL0     H90120  -0.251   5.407  10.469 -0.5459  0.3722 -1.3508
  683MOL0     H90121  -0.483   5.365  10.522  0.5227 -4.1096  0.4829
  683MOL0     H90122  -0.813   5.162  10.442 -0.3119  0.7879  1.0064
  683MOL0     H90123  -0.644   5.141  10.465 -1.1235 -2.9510  0.4849
  683MOL0     H90124  -0.754   4.970  10.287 -1.4095 -0.1392 -0.6766
  683MOL0     H90125  -0.634   5.072  10.205 -0.8308 -0.9964 -1.8113
  683MOL0     H90126  -0.853   5.028  10.103  0.7985  1.2979  0.1006
  683MOL0     H90127  -0.799   5.195  10.092 -1.1800  2.1591  1.2462
  683MOL0     H90128  -1.005   5.089  10.291 -0.7152 -0.9118 -0.7379
  683MOL0     H90129  -0.954   5.255  10.274  0.3892 -1.0455  1.8115
  683MOL0     H90130  -1.055   5.294  10.070 -0.2286  1.0001  1.7362
  683MOL0     H90131  -1.171   5.220  10.184  1.2174  4.6846  0.7144
  683MOL0     H90132  -1.032   5.101   9.926  1.0993 -0.2885  0.4902
  683MOL0     H90133  -1.197   5.152   9.954 -1.4184 -3.8026  0.6445
  683MOL0     H90134  -1.046   4.897  10.052 -0.5891 -1.7217 -1.7443
  683MOL0     H90135  -1.195   4.953  10.129 -1.2699 -2.1508 -1.2112
  683MOL0     H90136  -1.149   4.901   9.836 -0.7693  0.9804 -1.3920
  683MOL0     H90137  -1.305   4.941   9.910  0.3925  0.2586  2.3340
  683MOL0     H90138  -0.590   5.308  10.111 -0.5892  1.5946 -0.9644
  683MOL0     H90139  -0.340   5.335  10.041 -3.3754  2.4377 -1.1886
  683MOL0     H90140   0.014   5.734  10.050 -0.5915 -0.0440  0.2536
  683MOL0     H90141   0.236   5.752   9.966  0.9968 -1.0103 -2.1525
  683MOL0     H90142   2.035   5.256   9.905 -3.6744 -0.1999 -0.1723
  683MOL0     H90143   2.245   5.347   9.810  0.5933 -1.1194 -0.0352
  683MOL0     H90144   2.334   5.777   9.467 -1.0576  2.7317 -0.2242
  683MOL0     H90145   2.512   5.934   9.384  0.1839  1.4790  1.1787
  683MOL0     H90146   2.916   5.927   9.593 -1.5375 -0.0845  2.1546
  683MOL0     H90147   2.838   6.054   9.680  1.4562 -2.4875  1.5818
  683MOL0     H90148   2.946   6.077   9.395  0.1665  0.0882 -0.2878
  683MOL0     H90149   2.891   6.215   9.493  2.7965  0.6349  2.6673
  683MOL0     H90150   3.139   6.052   9.559  0.5625 -0.3382  4.3062
  683MOL0     H90151   3.065   6.198   9.646 -2.1955  0.1459 -1.2731
  683MOL0     H90152   3.192   6.170   9.376 -0.1805 -1.4648  1.4420
  683MOL0     H90153   3.093   6.313   9.411 -0.9622  1.7944  1.9489
  683MOL0     H90154   3.439   6.418   9.606  0.3524  0.7552 -2.5028
  683MOL0     H90155   2.738   5.854   9.737  1.2593 -1.0780 -2.1334
  683MOL0     H90156   2.560   5.687   9.816 -2.2690  3.4478  2.5673
  684MOL0     O90157   7.570   8.024   8.034 -0.5480 -0.2589  0.3932
  684MOL0     C90158   7.572   8.121   7.958 -0.3552 -0.0105  0.1016
  684MOL0     O90159   7.480   8.219   7.946 -0.1334  0.2966 -0.2907
  684MOL0     C90160   7.374   8.228   8.023 -0.4767  0.2125 -0.0536
  684MOL0     C90161   7.303   8.123   8.083  0.8902  0.7173 -0.6520
  684MOL0     C90162   7.192   8.147   8.166 -0.9085  0.0341  0.2612
  684MOL0     C90163   7.143   8.275   8.174  0.6233  0.4784  0.1428
  684MOL0     O90164   7.026   8.294   8.251  0.4823  0.4292 -0.3668
  684MOL0     C90165   6.984   8.431   8.286 -0.0728  0.3165  0.9399
  684MOL0     C90166   6.852   8.428   8.373 -0.2085 -0.5304  0.6773
  684MOL0     C90167   6.805   8.567   8.398  0.2293 -0.4970  1.0049
  684MOL0     C90168   6.704   8.588   8.281  0.4395 -1.5479 -0.4911
  684MOL0     C90169   6.661   8.732   8.272  1.3619  0.1104  0.2649
  684MOL0     C90170   6.761   8.831   8.220 -0.2534  0.2027  1.1838
  684MOL0     C90171   6.730   8.972   8.243  1.3476 -0.4253 -0.2422
  684MOL0     C90172   6.599   9.014   8.163  0.1675 -0.3249  1.2985
  684MOL0     N90173   6.547   9.152   8.175 -0.3988  0.0597 -0.7167
  684MOL0     C90174   6.609   9.259   8.114  0.7831 -0.6431  0.5868
  684MOL0     C90175   6.545   9.361   8.175  0.2153 -0.0958 -0.1742
  684MOL0     C90176   6.586   9.506   8.149  0.3072 -0.6153 -0.5289
  684MOL0     C90177   6.722   9.523   8.201 -0.9757  0.6656 -1.1669
  684MOL0     C90178   6.776   9.644   8.135  0.2184 -0.2191  0.4982
  684MOL0     C90179   6.920   9.672   8.179 -0.3402 -0.6652  0.1274
  684MOL0     O90180   6.975   9.779   8.110 -0.4047 -1.4830  0.4015
  684MOL0     C90181   7.104   9.816   8.153 -0.6285 -0.4608  0.2836
  684MOL0     C90182   7.123   9.943   8.186 -0.1343 -0.3326 -0.1056
  684MOL0     C90183   7.250   9.994   8.208  0.1995 -0.0919 -0.0342
  684MOL0     C90184   7.359   9.915   8.218 -0.3640  0.1147  0.6816
  684MOL0     C90185   7.493   9.971   8.234 -0.2274 -0.7182  0.3586
  684MOL0     O90186   7.596   9.886   8.208 -0.2463  0.0469  0.0152
  684MOL0     C90187   7.721   9.920   8.260  0.0606  0.3089 -0.8776
  684MOL0     C90188   7.776   9.844   8.363  0.6266  0.8953  1.1130
  684MOL0     C90189   7.902   9.867   8.402 -0.1389  0.4555 -0.0428
  684MOL0     C90190   7.978   9.977   8.355  0.0954  0.0123 -0.3779
  684MOL0     O90191   8.115   9.989   8.397  0.6076 -0.1483 -0.3037
  684MOL0     C90192   8.132   9.947   8.537 -0.0152  0.2364  0.4052
  684MOL0     C90193   8.289   9.960   8.562  0.9381 -0.4493  0.0950
  684MOL0     C90194   8.363   9.852   8.486 -0.2686  0.0617  0.0437
  684MOL0     C90195   8.515   9.888   8.494 -0.5394 -0.2277 -0.4418
  684MOL0     C90196   8.596   9.772   8.455  0.6614  0.6154 -0.2135
  684MOL0     C90197   8.732   9.787   8.519 -0.5816 -0.3554  0.1161
  684MOL0     C90198   8.823   9.695   8.439 -0.1393  1.1689 -0.8078
  684MOL0     C90199   8.969   9.706   8.477 -0.8637  0.2062 -0.2173
  684MOL0    Cl90200   9.032   9.849   8.395 -0.0079  0.2164  0.2371
  684MOL0     C90201   7.918  10.066   8.257  1.1426 -0.3384 -0.1370
  684MOL0     C90202   7.793  10.033   8.216  0.9844 -0.2908  0.2536
  684MOL0     O90203   7.503  10.072   8.306 -0.0595 -0.0713  0.5960
  684MOL0     C90204   7.339   9.779   8.192 -0.5521  0.6682  0.0030
  684MOL0     C90205   7.215   9.732   8.152  0.5634  0.2672  0.4828
  684MOL0     N90206   6.446   9.314   8.265 -0.3127 -0.4380 -0.3680
  684MOL0     N90207   6.448   9.185   8.261  0.3185 -0.2110  0.1840
  684MOL0     C90208   7.216   8.382   8.124 -0.8831  0.1924 -0.0427
  684MOL0     C90209   7.339   8.364   8.065 -0.3420  0.8611  0.2641
  684MOL0     C90210   7.684   8.141   7.867  0.7297 -0.6689  0.1877
  684MOL0     C90211   7.691   8.248   7.775 -0.3379  0.6067 -0.5524
  684MOL0     C90212   7.809   8.275   7.702 -0.1452  0.0807 -0.4283
  684MOL0     C90213   7.918   8.194   7.713 -0.2278 -0.6615  0.1335
  684MOL0     O90214   8.025   8.225   7.640  0.0039 -0.1560  1.1153
  684MOL0     C90215   8.089   8.349   7.680  0.2689 -0.0730 -0.2877
  684MOL0     C90216   8.244   8.347   7.659 -0.2105  0.2874 -0.4575
  684MOL0     C90217   8.297   8.305   7.517 -0.5629  1.0110  0.2918
  684MOL0     C90218   8.442   8.333   7.502 -0.2708 -0.2071  0.3539
  684MOL0     C90219   8.531   8.289   7.610 -0.4932 -0.6966 -0.8827
  684MOL0     C90220   8.615   8.267   7.698  0.1816  0.1840 -0.2969
  684MOL0     C90221   7.914   8.086   7.797 -0.0006 -1.2402 -0.4292
  684MOL0     C90222   7.803   8.058   7.873  0.3325  0.4218 -0.4407
  684MOL0     H90223   7.333   8.022   8.057  0.9143  0.9579 -1.5891
  684MOL0     H90224   7.130   8.069   8.208  0.0300 -0.0093  1.6367
  684MOL0     H90225   6.964   8.489   8.195 -1.3153 -0.0201  0.9805
  684MOL0     H90226   7.066   8.476   8.343 -0.5370  0.4413  1.5120
  684MOL0     H90227   6.886   8.369   8.458  1.3810 -2.3371 -1.0967
  684MOL0     H90228   6.773   8.366   8.331 -0.4050 -0.5672  1.1054
  684MOL0     H90229   6.869   8.656   8.396  1.2937 -1.1482  3.0618
  684MOL0     H90230   6.751   8.567   8.493  0.7288 -0.3077  1.2890
  684MOL0     H90231   6.746   8.560   8.184 -1.7143 -1.0349 -1.6286
  684MOL0     H90232   6.612   8.533   8.301 -0.4184 -0.0126  0.0061
  684MOL0     H90233   6.630   8.755   8.374  0.0811 -1.3612  0.2573
  684MOL0     H90234   6.575   8.728   8.205 -0.5424 -2.5271  2.6040
  684MOL0     H90235   6.750   8.809   8.113 -4.1986  0.1453  1.4509
  684MOL0     H90236   6.862   8.812   8.257  1.5649 -0.8105 -3.6151
  684MOL0     H90237   6.714   8.993   8.349  1.3811  2.0021 -0.6572
  684MOL0     H90238   6.813   9.031   8.202  2.2960 -2.3785 -1.2370
  684MOL0     H90239   6.519   8.944   8.188  0.2837 -1.4967 -1.2878
  684MOL0     H90240   6.626   8.992   8.059 -0.1988 -2.0479  1.5324
  684MOL0     H90241   6.687   9.274   8.041  0.9024  2.7665  1.2495
  684MOL0     H90242   6.518   9.564   8.212  2.0080 -1.8410  2.6527
  684MOL0     H90243   6.567   9.539   8.046 -1.9010  3.9575  1.0798
  684MOL0     H90244   6.786   9.435   8.186  0.6127  1.6264 -0.3315
  684MOL0     H90245   6.721   9.539   8.310  0.2435  1.2925 -1.2349
  684MOL0     H90246   6.781   9.644   8.026 -0.6683  0.7733  0.4384
  684MOL0     H90247   6.713   9.730   8.161  0.6778  0.4276 -0.4392
  684MOL0     H90248   6.987   9.588   8.166  2.0410  1.4291 -2.1770
  684MOL0     H90249   6.922   9.687   8.288 -0.7326 -0.3869  0.1020
  684MOL0     H90250   7.034  10.006   8.191 -1.3167 -1.8837 -0.7107
  684MOL0     H90251   7.262  10.100   8.229  1.7681 -0.4821  1.2354
  684MOL0     H90252   7.713   9.760   8.391  1.3428 -0.5345 -1.2667
  684MOL0     H90253   7.934   9.798   8.480  1.4501 -1.2842 -2.0919
  684MOL0     H90254   8.110   9.843   8.559  0.0025 -0.5292 -2.8029
  684MOL0     H90255   8.075  10.016   8.600  0.8893  0.1353  1.3585
  684MOL0     H90256   8.311   9.937   8.666 -0.2293 -0.2318  0.3981
  684MOL0     H90257   8.314  10.060   8.527 -0.8737  0.6715  1.8236
  684MOL0     H90258   8.338   9.850   8.380  1.0809 -2.9221 -0.3298
  684MOL0     H90259   8.332   9.751   8.515 -3.2562  0.0289 -2.7779
  684MOL0     H90260   8.537   9.978   8.436  0.4710 -0.7713 -0.9304
  684MOL0     H90261   8.534   9.904   8.600  0.8755  0.2519 -0.7545
  684MOL0     H90262   8.601   9.758   8.346 -0.7417 -0.4772 -0.1812
  684MOL0     H90263   8.553   9.679   8.493  2.6141  0.1989  1.1050
  684MOL0     H90264   8.732   9.781   8.628  2.3709  0.8282  0.2815
  684MOL0     H90265   8.771   9.889   8.512 -0.7238 -0.2526  0.7220
  684MOL0     H90266   8.792   9.590   8.446  1.0725  0.8097 -0.5811
  684MOL0     H90267   8.807   9.708   8.331 -0.2101  0.4162 -0.8923
  684MOL0     H90268   9.015   9.613   8.444 -3.5184 -1.7921  1.3084
  684MOL0     H90269   8.990   9.707   8.585 -3.5994  2.9703  0.4405
  684MOL0     H90270   7.966  10.150   8.208 -2.0729  1.0157 -1.2358
  684MOL0     H90271   7.747  10.102   8.146 -1.0975 -2.3023 -0.4873
  684MOL0     H90272   7.417   9.704   8.184 -1.8276 -0.6003 -0.9536
  684MOL0     H90273   7.200   9.629   8.124  0.7857  0.8863 -2.1399
  684MOL0     H90274   7.199   8.487   8.147  0.0909 -0.1057  2.3075
  684MOL0     H90275   7.390   8.457   8.042  0.7557  0.4481  0.9910
  684MOL0     H90276   7.600   8.301   7.749 -1.9283 -2.4102 -1.7157
  684MOL0     H90277   7.802   8.354   7.628  1.3402  1.5358  0.9156
  684MOL0     H90278   8.070   8.349   7.787  0.0876 -2.4577 -0.2477
  684MOL0     H90279   8.033   8.430   7.633 -0.5988 -2.2799 -3.3930
  684MOL0     H90280   8.288   8.443   7.687 -0.1290  0.0592  0.1939
  684MOL0     H90281   8.290   8.273   7.724  1.2615 -0.5184 -2.3164
  684MOL0     H90282   8.247   8.355   7.433 -0.1483 -1.4997 -1.5700
  684MOL0     H90283   8.284   8.199   7.492  0.5150  1.7437 -4.4441
  684MOL0     H90284   8.491   8.302   7.409  0.7910  2.5205 -0.0898
  684MOL0     H90285   8.459   8.439   7.483  4.6180 -0.9914 -1.0623
  684MOL0     H90286   8.682   8.231   7.774 -0.1757 -1.5751 -0.7639
  684MOL0     H90287   8.002   8.028   7.822 -0.2473 -0.5658  2.2041
  684MOL0     H90288   7.813   7.979   7.946 -2.3243 -0.1831 -0.6212
  685MOL0     O90289  10.085   1.396   0.084  0.2953  0.6314 -0.2012
  685MOL0     C90290  10.148   1.412   0.191 -0.5544  0.0003  0.5688
  685MOL0     O90291  10.121   1.501   0.292  0.4691  0.1628  0.9334
  685MOL0     C90292  10.021   1.591   0.254 -0.0595  0.8065  0.3538
  685MOL0     C90293  10.053   1.730   0.258 -0.7130 -0.5333  0.9794
  685MOL0     C90294   9.950   1.822   0.233  0.3649  0.3771 -0.6617
  685MOL0     C90295   9.810   1.787   0.201 -0.9083 -0.3881 -0.1882
  685MOL0     O90296   9.712   1.884   0.171  0.1840 -0.0905 -1.0485
  685MOL0     C90297   9.745   2.024   0.174 -0.2596  0.1794 -0.1780
  685MOL0     C90298   9.609   2.104   0.182 -0.3533 -0.4098  0.2714
  685MOL0     C90299   9.545   2.079   0.318 -0.5696  0.8957  0.0317
  685MOL0     C90300   9.612   2.171   0.429 -0.4046 -0.1566  0.7070
  685MOL0     C90301   9.564   2.142   0.568 -0.5638  0.8721  0.0459
  685MOL0     C90302   9.618   2.240   0.664  0.3644 -0.8815  0.8210
  685MOL0     C90303   9.570   2.200   0.804 -0.1855 -0.0783 -0.3821
  685MOL0     C90304   9.665   2.112   0.878  0.5332 -0.4083  0.1449
  685MOL0     N90305   9.593   2.040   0.980 -0.4044 -0.3841  0.6805
  685MOL0     C90306   9.512   2.093   1.078 -0.5121  0.6569  0.7300
  685MOL0     C90307   9.458   1.983   1.149  0.3774 -0.5978 -0.7007
  685MOL0     C90308   9.362   2.003   1.260  0.2947  0.1554  0.3321
  685MOL0     C90309   9.217   2.041   1.222 -0.4682 -0.1061  0.9625
  685MOL0     C90310   9.121   1.925   1.195 -0.7821 -0.3233  0.1816
  685MOL0     C90311   9.004   1.984   1.112 -0.1941  0.7828  0.0729
  685MOL0     O90312   8.893   1.894   1.110  0.0671 -0.0902 -0.5005
  685MOL0     C90313   8.780   1.915   1.043 -0.9159 -0.2445  0.6634
  685MOL0     C90314   8.702   1.803   1.028 -0.4919 -0.7505  0.7559
  685MOL0     C90315   8.597   1.803   0.933 -0.7139  0.0575 -0.0446
  685MOL0     C90316   8.557   1.914   0.861 -0.1235 -0.6338 -0.3262
  685MOL0     C90317   8.450   1.917   0.766 -0.0175  0.8893  0.2620
  685MOL0     O90318   8.402   1.794   0.724  0.2532 -0.1598  0.0746
  685MOL0     C90319   8.318   1.783   0.618  0.4072 -0.0862  1.0346
  685MOL0     C90320   8.303   1.872   0.509 -0.7928  0.0757  0.4215
  685MOL0     C90321   8.226   1.832   0.400  0.3515  0.4758  0.1954
  685MOL0     C90322   8.151   1.712   0.400 -0.0122 -0.0637 -0.2581
  685MOL0     O90323   8.057   1.689   0.299  0.2810 -1.1834 -0.0327
  685MOL0     C90324   7.943   1.612   0.338 -0.3263  0.8210 -0.4549
  685MOL0     C90325   7.825   1.612   0.243  0.1025 -0.5946 -0.6911
  685MOL0     C90326   7.756   1.473   0.232 -0.3656 -0.5965  0.2821
  685MOL0     C90327   7.634   1.481   0.135 -0.6178 -0.5111  0.7323
  685MOL0     C90328   7.648   1.574   0.007 -0.2492  0.4010  0.1985
  685MOL0     C90329   7.517   1.560  -0.077 -0.0513 -0.1126  0.5852
  685MOL0     C90330   7.538   1.574  -0.230 -0.0662 -0.5531  0.2533
  685MOL0     C90331   7.430   1.656  -0.308  0.5944  0.0608 -0.0978
  685MOL0    Cl90332   7.259   1.639  -0.254  0.2349  0.1218 -0.4573
  685MOL0     C90333   8.173   1.625   0.506 -0.6229 -0.0952 -0.8491
  685MOL0     C90334   8.260   1.659   0.614 -0.2533  0.8594  1.1291
  685MOL0     O90335   8.408   2.024   0.726 -0.0724  0.1277 -0.5006
  685MOL0     C90336   8.639   2.032   0.888  1.0152  0.3338  0.3459
  685MOL0     C90337   8.748   2.034   0.974 -0.1278 -0.0457  0.0112
  685MOL0     N90338   9.518   1.868   1.092 -0.0767 -1.0077  0.2833
  685MOL0     N90339   9.593   1.901   0.994  0.2933  0.6335  0.4760
  685MOL0     C90340   9.790   1.652   0.188 -0.4757  0.4324  0.6244
  685MOL0     C90341   9.894   1.558   0.212 -0.1808  0.6498 -0.6481
  685MOL0     C90342  10.250   1.303   0.221  1.4229  0.6087 -0.2893
  685MOL0     C90343  10.334   1.300   0.334 -0.1810 -0.2286  0.2794
  685MOL0     C90344  10.424   1.205   0.354  0.7239  0.3438  0.0709
  685MOL0     C90345  10.431   1.101   0.266 -0.8700  0.6804 -0.0163
  685MOL0     O90346  10.510   0.991   0.267 -0.3220  0.4671 -0.0466
  685MOL0     C90347  10.634   0.989   0.346  0.0871 -0.8698  0.2964
  685MOL0     C90348  10.612   0.909   0.478 -0.5939  0.2693  0.2704
  685MOL0     C90349  10.538   0.772   0.457 -0.1333  0.1428 -0.4967
  685MOL0     C90350  10.577   0.696   0.328  0.4110 -0.3912 -0.6013
  685MOL0     C90351  10.489   0.588   0.312  0.7567 -0.1004 -0.3290
  685MOL0     C90352  10.412   0.491   0.307 -0.4095  0.3934  0.3162
  685MOL0     C90353  10.341   1.086   0.165 -0.0882  0.1940  0.1188
  685MOL0     C90354  10.261   1.196   0.131  0.6372 -0.2232  0.0274
  685MOL0     H90355  10.148   1.759   0.302  0.2488  0.0672 -1.3625
  685MOL0     H90356   9.982   1.926   0.238  3.2048 -0.3297 -2.4903
  685MOL0     H90357   9.800   2.051   0.083 -1.0151 -0.7883 -0.9414
  685MOL0     H90358   9.809   2.047   0.260 -0.2136 -4.4645  1.3431
  685MOL0     H90359   9.540   2.078   0.102 -0.7603 -0.6565  0.6987
  685MOL0     H90360   9.627   2.209   0.157 -0.0440 -0.6597 -0.5935
  685MOL0     H90361   9.562   1.973   0.336  1.7055  1.0029 -1.0677
  685MOL0     H90362   9.441   2.106   0.298  0.1618  3.2346 -1.0080
  685MOL0     H90363   9.720   2.156   0.436 -0.1652  0.7064 -0.6608
  685MOL0     H90364   9.604   2.279   0.409  1.4374  0.6889  3.8773
  685MOL0     H90365   9.602   2.045   0.603 -3.0336  0.1270  0.8735
  685MOL0     H90366   9.457   2.119   0.564  0.0837 -2.7648 -0.6258
  685MOL0     H90367   9.595   2.343   0.635 -0.1702 -1.6222 -1.5331
  685MOL0     H90368   9.727   2.243   0.665  0.5282 -3.2805 -0.6151
  685MOL0     H90369   9.549   2.292   0.860 -3.0379 -0.0034 -1.4423
  685MOL0     H90370   9.476   2.144   0.800 -0.1175 -0.7423  3.2849
  685MOL0     H90371   9.747   2.167   0.925  2.1032 -1.1628 -1.5667
  685MOL0     H90372   9.704   2.033   0.813  1.1917  0.4447 -0.5182
  685MOL0     H90373   9.496   2.200   1.087  4.8406  1.7446  0.6158
  685MOL0     H90374   9.403   2.090   1.312  1.8835 -0.2907 -0.1022
  685MOL0     H90375   9.361   1.911   1.320 -4.0580 -1.1149 -1.3165
  685MOL0     H90376   9.227   2.098   1.129  0.6843 -0.0085  1.1347
  685MOL0     H90377   9.180   2.110   1.299  2.5044  1.6657  0.9521
  685MOL0     H90378   9.178   1.843   1.148 -2.3857 -1.4102  0.0582
  685MOL0     H90379   9.084   1.894   1.293  2.6370  1.3293  2.2093
  685MOL0     H90380   9.024   2.011   1.008 -0.9368 -1.4334 -0.6999
  685MOL0     H90381   8.973   2.075   1.164  1.9563  0.3720  2.3015
  685MOL0     H90382   8.724   1.709   1.077  1.5050 -1.3244 -1.1144
  685MOL0     H90383   8.536   1.714   0.920 -2.3211  1.1239  0.0008
  685MOL0     H90384   8.357   1.966   0.514 -2.4432  1.2325 -1.6835
  685MOL0     H90385   8.184   1.891   0.318 -3.4839  0.4486  1.9318
  685MOL0     H90386   7.907   1.645   0.436 -3.2039 -1.0921 -0.7396
  685MOL0     H90387   7.989   1.512   0.343  0.2990  1.0307 -1.6509
  685MOL0     H90388   7.868   1.647   0.148 -0.8874  2.4197 -0.1295
  685MOL0     H90389   7.754   1.685   0.282 -0.0270 -2.1100  2.1473
  685MOL0     H90390   7.713   1.445   0.329 -4.0207  1.9196 -0.4213
  685MOL0     H90391   7.825   1.394   0.201 -0.1925 -0.6337  0.7548
  685MOL0     H90392   7.613   1.381   0.097  0.2601  0.0369 -1.3502
  685MOL0     H90393   7.545   1.523   0.182 -0.4315 -1.2644  1.7951
  685MOL0     H90394   7.740   1.541  -0.044  2.3283  2.6851  2.9716
  685MOL0     H90395   7.666   1.678   0.035 -1.0371 -0.2851  3.8096
  685MOL0     H90396   7.455   1.643  -0.042  0.8997  0.2786  1.4027
  685MOL0     H90397   7.468   1.464  -0.059 -3.1657  1.0189 -1.0708
  685MOL0     H90398   7.631   1.629  -0.246  0.3281 -1.4498 -0.5940
  685MOL0     H90399   7.555   1.482  -0.286  0.1415  0.1560 -0.8736
  685MOL0     H90400   7.445   1.624  -0.411  0.8966  1.5968 -0.5564
  685MOL0     H90401   7.459   1.762  -0.303  2.8659 -0.5068  4.4540
  685MOL0     H90402   8.127   1.527   0.503  3.1303 -2.0434 -0.2255
  685MOL0     H90403   8.279   1.590   0.696 -0.9739 -0.0842  0.5219
  685MOL0     H90404   8.613   2.119   0.828 -0.5379 -1.3821 -1.6115
  685MOL0     H90405   8.791   2.128   1.007  0.8269 -1.4067  3.0678
  685MOL0     H90406   9.694   1.615   0.153 -0.3285  1.3304 -0.8134
  685MOL0     H90407   9.866   1.455   0.193 -1.2693  0.5727  1.1775
  685MOL0     H90408  10.327   1.375   0.413 -0.3263  0.5762 -0.4809
  685MOL0     H90409  10.490   1.219   0.438  1.5048  3.5772 -0.9536
  685MOL0     H90410  10.663   1.094   0.362  1.0552 -1.3183  1.7734
  685MOL0     H90411  10.712   0.933   0.294 -0.4420 -0.8838 -0.4955
  685MOL0     H90412  10.712   0.892   0.519 -1.4114 -2.3292  1.4048
  685MOL0     H90413  10.562   0.971   0.553 -2.2786  2.5317 -2.5073
  685MOL0     H90414  10.431   0.793   0.464 -0.2463 -1.0193  2.7892
  685MOL0     H90415  10.562   0.710   0.544  0.6796  2.6634  1.2089
  685MOL0     H90416  10.572   0.752   0.234 -2.4030  1.5461  0.5945
  685MOL0     H90417  10.685   0.677   0.338  1.0144  2.6554 -0.4125
  685MOL0     H90418  10.362   0.398   0.289  0.6217  0.1118 -1.2794
  685MOL0     H90419  10.332   1.002   0.098 -0.8987  1.6437 -1.6900
  685MOL0     H90420  10.194   1.183   0.047  0.2659  0.4140  0.2202
  686MOL0     O90421   1.525   8.803   3.560 -0.0874  0.0473 -0.7689
  686MOL0     C90422   1.586   8.905   3.600  0.1489  0.2552  1.0714
  686MOL0     O90423   1.557   8.964   3.715  0.6169 -0.6815 -1.4215
  686MOL0     C90424   1.444   8.943   3.786  0.2265  0.2007  0.0910
  686MOL0     C90425   1.351   9.037   3.804 -0.6320  1.1258 -0.8548
  686MOL0     C90426   1.252   9.008   3.895  0.1925 -0.4352 -0.7775
  686MOL0     C90427   1.234   8.887   3.958  0.7886 -0.6899  0.7445
  686MOL0     O90428   1.119   8.879   4.031 -0.2035  1.0617 -0.5773
  686MOL0     C90429   1.090   8.762   4.117  0.6406 -0.4289 -0.1089
  686MOL0     C90430   0.963   8.798   4.203 -0.1611 -0.4219  0.1746
  686MOL0     C90431   0.927   8.691   4.309 -0.1362  0.0843  0.7629
  686MOL0     C90432   0.804   8.745   4.394 -0.3282  0.2584 -0.0551
  686MOL0     C90433   0.668   8.739   4.317  0.3005 -0.4297 -0.4116
  686MOL0     C90434   0.556   8.772   4.415 -0.8049  0.2886  0.4665
  686MOL0     C90435   0.421   8.780   4.347  0.4602 -0.0762  0.2524
  686MOL0     C90436   0.381   8.649   4.273  0.3939 -0.5039  0.4060
  686MOL0     N90437   0.247   8.669   4.222  0.1428 -0.7267  0.2013
  686MOL0     C90438   0.130   8.670   4.291  0.3874  0.1272  0.2207
  686MOL0     C90439   0.034   8.658   4.198 -0.2077  0.0981  0.6529
  686MOL0     C90440  -0.114   8.618   4.217  1.0839 -1.0381 -0.4913
  686MOL0     C90441  -0.154   8.505   4.123  0.0518 -0.1148 -0.1049
  686MOL0     C90442  -0.299   8.453   4.148  0.1053 -1.2572 -0.4444
  686MOL0     C90443  -0.345   8.455   4.299  0.1388 -1.1652 -0.2414
  686MOL0     O90444  -0.462   8.380   4.309  0.3237  0.1380 -0.6814
  686MOL0     C90445  -0.573   8.402   4.232  0.0498  0.8443 -0.8012
  686MOL0     C90446  -0.654   8.290   4.215 -0.6086  0.2143  0.1369
  686MOL0     C90447  -0.782   8.296   4.153  0.2484  0.7367 -0.3564
  686MOL0     C90448  -0.829   8.428   4.117 -0.2834 -0.1625  0.6012
  686MOL0     C90449  -0.958   8.444   4.061  1.0564 -0.4860 -0.8048
  686MOL0     O90450  -1.033   8.333   4.043 -0.1314 -0.2083 -0.4604
  686MOL0     C90451  -1.148   8.337   3.972  0.6714 -0.2081  0.2105
  686MOL0     C90452  -1.244   8.439   3.983 -0.3734 -0.0508 -0.0018
  686MOL0     C90453  -1.360   8.447   3.910 -0.5904  0.1268 -0.1958
  686MOL0     C90454  -1.388   8.347   3.824 -0.7176  0.0779  0.3808
  686MOL0     O90455  -1.496   8.340   3.747  0.5409  0.8089  0.6879
  686MOL0     C90456  -1.620   8.302   3.812 -0.0527  0.2584  0.3907
  686MOL0     C90457  -1.739   8.325   3.710 -0.1859  0.1022  0.3702
  686MOL0     C90458  -1.863   8.246   3.764 -0.0584  0.1813 -0.7510
  686MOL0     C90459  -1.853   8.096   3.733 -0.3452  0.2606 -0.2653
  686MOL0     C90460  -1.978   8.007   3.775 -0.3917  0.6558  0.4221
  686MOL0     C90461  -1.938   7.858   3.778 -1.0633 -0.8203  0.8466
  686MOL0     C90462  -2.060   7.779   3.835 -0.7636  0.5423 -0.6280
  686MOL0     C90463  -2.036   7.629   3.822  0.4077  0.5040 -0.0510
  686MOL0    Cl90464  -2.198   7.546   3.848 -0.0998  0.1388 -0.0162
  686MOL0     C90465  -1.291   8.257   3.798  0.5745  0.0337  0.2401
  686MOL0     C90466  -1.173   8.244   3.875 -0.1199  0.4263  0.7063
  686MOL0     O90467  -0.990   8.558   4.037 -0.4865 -0.7433  0.1478
  686MOL0     C90468  -0.746   8.543   4.151 -0.6509  0.6329  0.7598
  686MOL0     C90469  -0.616   8.532   4.202  0.1022  1.1627  0.6178
  686MOL0     N90470   0.079   8.682   4.074  0.4924 -0.2886 -0.5910
  686MOL0     N90471   0.212   8.686   4.091  0.3998 -0.0729  0.2068
  686MOL0     C90472   1.332   8.786   3.940 -0.5186  0.2012  0.3332
  686MOL0     C90473   1.441   8.826   3.863 -0.5591 -0.1132 -0.9365
  686MOL0     C90474   1.698   8.956   3.518  0.1503 -0.0010  0.7427
  686MOL0     C90475   1.761   9.068   3.553 -0.3477 -0.9598 -1.1343
  686MOL0     C90476   1.854   9.133   3.476  0.3827  0.2765  0.1019
  686MOL0     C90477   1.876   9.096   3.341  0.1681  0.2218  0.4882
  686MOL0     O90478   1.946   9.181   3.254 -0.3909 -0.0683 -0.7027
  686MOL0     C90479   2.084   9.189   3.275  0.4617  0.1958  0.0417
  686MOL0     C90480   2.156   9.208   3.140 -0.9634 -0.4429  0.3161
  686MOL0     C90481   2.128   9.343   3.062  0.1518  0.1235 -0.2265
  686MOL0     C90482   2.233   9.447   3.107 -0.2369  0.5806  0.0310
  686MOL0     C90483   2.198   9.570   3.036  0.3036 -0.8316  0.3736
  686MOL0     C90484   2.164   9.669   2.974  0.8381 -0.6131 -0.2657
  686MOL0     C90485   1.812   8.979   3.308  0.0166  0.3899 -0.5782
  686MOL0     C90486   1.733   8.906   3.398  0.0358  0.4758  0.9966
  686MOL0     H90487   1.354   9.138   3.763 -1.0851  1.9346  0.9972
  686MOL0     H90488   1.179   9.087   3.912 -0.9311 -1.7355  0.7428
  686MOL0     H90489   1.175   8.738   4.181 -0.2952 -0.6508  1.0892
  686MOL0     H90490   1.059   8.673   4.060 -0.2228 -0.5338  0.4896
  686MOL0     H90491   0.881   8.803   4.131  0.3566  0.3874 -0.3679
  686MOL0     H90492   0.963   8.898   4.248  0.0778 -0.1816 -0.3514
  686MOL0     H90493   1.019   8.679   4.366  2.7804 -2.3697 -3.8064
  686MOL0     H90494   0.910   8.594   4.261  2.5246 -0.9367  1.7066
  686MOL0     H90495   0.808   8.684   4.485  3.5600 -2.6620 -1.9039
  686MOL0     H90496   0.823   8.849   4.420  0.7332  0.2241 -0.6265
  686MOL0     H90497   0.665   8.643   4.266  0.9948  0.8302 -2.9621
  686MOL0     H90498   0.659   8.814   4.238 -2.1836  1.3098  1.3509
  686MOL0     H90499   0.569   8.859   4.480  1.3131  0.4208 -0.0608
  686MOL0     H90500   0.569   8.692   4.489  2.6657  2.3246  2.3348
  686MOL0     H90501   0.333   8.806   4.407 -0.6628  1.4358 -1.8852
  686MOL0     H90502   0.422   8.866   4.279  2.6551 -2.6646 -3.3713
  686MOL0     H90503   0.382   8.561   4.338  0.6794 -1.3273 -0.6798
  686MOL0     H90504   0.453   8.619   4.196 -2.2287 -3.6824 -1.0312
  686MOL0     H90505   0.106   8.656   4.396  1.1636 -0.1719  0.3626
  686MOL0     H90506  -0.176   8.705   4.197  1.7524 -0.9637 -2.4183
  686MOL0     H90507  -0.121   8.587   4.322  0.0505 -1.3546 -0.6470
  686MOL0     H90508  -0.097   8.413   4.137  0.3097  0.0752  0.1052
  686MOL0     H90509  -0.129   8.532   4.020 -3.9661 -1.1618 -1.5479
  686MOL0     H90510  -0.362   8.533   4.108 -1.4245 -0.4982  3.1418
  686MOL0     H90511  -0.321   8.364   4.089  0.5589 -0.7703 -1.3844
  686MOL0     H90512  -0.359   8.559   4.332 -0.2408 -1.1810 -0.3433
  686MOL0     H90513  -0.271   8.416   4.370  3.0192 -1.6247 -3.2616
  686MOL0     H90514  -0.621   8.195   4.256 -2.6172 -0.1335  1.0933
  686MOL0     H90515  -0.837   8.207   4.125 -1.8576  1.4631  1.2220
  686MOL0     H90516  -1.230   8.512   4.063 -3.6809  0.5373  0.1504
  686MOL0     H90517  -1.428   8.531   3.924 -0.9393 -0.1743 -0.0529
  686MOL0     H90518  -1.626   8.350   3.909  1.8516 -0.7489  1.0551
  686MOL0     H90519  -1.617   8.194   3.829  1.1164  0.1320 -0.5271
  686MOL0     H90520  -1.714   8.281   3.613  0.5465 -0.2597  0.7178
  686MOL0     H90521  -1.753   8.433   3.717 -1.6233 -0.1514  3.6580
  686MOL0     H90522  -1.956   8.284   3.722 -0.8955  1.1983  1.8468
  686MOL0     H90523  -1.868   8.269   3.870  0.0915  0.0880 -0.7230
  686MOL0     H90524  -1.846   8.088   3.625 -0.4573  1.1091 -0.3453
  686MOL0     H90525  -1.771   8.048   3.787  0.2798 -0.2696 -1.6636
  686MOL0     H90526  -2.054   8.037   3.703  1.8462 -1.6831 -3.2461
  686MOL0     H90527  -2.003   8.034   3.878  0.0109 -0.7921  0.9272
  686MOL0     H90528  -1.851   7.839   3.842  0.4653 -3.1784 -1.6897
  686MOL0     H90529  -1.906   7.830   3.678  0.6206  3.0978  0.1100
  686MOL0     H90530  -2.082   7.809   3.938  0.4236  1.4775 -0.6284
  686MOL0     H90531  -2.148   7.804   3.774  1.0774  1.8537 -2.9213
  686MOL0     H90532  -1.956   7.582   3.879  0.8972 -2.7066 -3.1039
  686MOL0     H90533  -2.003   7.613   3.720 -1.8507 -2.5151 -0.4416
  686MOL0     H90534  -1.298   8.184   3.717  2.0214 -2.8897  2.5470
  686MOL0     H90535  -1.106   8.168   3.836 -2.2806 -0.8897 -0.6859
  686MOL0     H90536  -0.782   8.644   4.139 -0.6887  0.3738 -1.9281
  686MOL0     H90537  -0.550   8.616   4.223  1.4491  0.6281 -1.1160
  686MOL0     H90538   1.322   8.685   3.978 -1.8799  0.8800  1.8902
  686MOL0     H90539   1.522   8.755   3.852 -1.3608 -0.9069 -1.8343
  686MOL0     H90540   1.725   9.113   3.644  1.0455 -4.6277  1.4708
  686MOL0     H90541   1.885   9.230   3.512  1.1438  1.1922 -2.7885
  686MOL0     H90542   2.115   9.103   3.335 -0.9415 -0.1571  0.2983
  686MOL0     H90543   2.106   9.272   3.343  2.9635 -1.8214  1.8759
  686MOL0     H90544   2.264   9.201   3.156 -0.5871  1.7650 -0.8257
  686MOL0     H90545   2.121   9.131   3.071 -0.3842 -0.7145  0.3215
  686MOL0     H90546   2.028   9.386   3.071  0.2707  0.7576 -1.6600
  686MOL0     H90547   2.142   9.319   2.956 -1.1371 -1.8701  0.0044
  686MOL0     H90548   2.215   9.454   3.215 -1.0211  0.7041 -0.0982
  686MOL0     H90549   2.336   9.419   3.085 -1.0827 -1.2158 -2.0241
  686MOL0     H90550   2.136   9.741   2.899  2.0987 -0.5515 -0.7033
  686MOL0     H90551   1.834   8.942   3.208  1.6317 -1.6705  0.4666
  686MOL0     H90552   1.682   8.814   3.369 -0.3727  0.9235  0.2784
  687MOL0     O90553   5.727   3.121  10.257 -0.4387  0.3555 -0.0997
  687MOL0     C90554   5.761   3.095  10.372  0.0256  0.1648 -0.3591
  687MOL0     O90555   5.675   3.060  10.467  0.1520  0.6960 -0.0467
  687MOL0     C90556   5.545   3.036  10.452 -0.3701  0.4805  0.0454
  687MOL0     C90557   5.478   2.973  10.338 -0.8059 -0.1656  0.5778
  687MOL0     C90558   5.349   2.927  10.361 -0.6859 -0.7720 -0.1016
  687MOL0     C90559   5.284   2.940  10.480 -1.8742 -0.1870  0.0970
  687MOL0     O90560   5.163   2.870  10.498 -0.5569  0.4147 -0.2945
  687MOL0     C90561   5.061   2.929  10.577 -0.0243  0.1083 -0.0225
  687MOL0     C90562   4.939   2.940  10.485  0.1263  0.1610  0.7266
  687MOL0     C90563   4.870   2.814  10.458 -0.5637  0.3080  0.1005
  687MOL0     C90564   4.787   2.817  10.330 -0.1339  0.4417  0.2850
  687MOL0     C90565   4.691   2.691  10.321 -0.7063 -0.1201  1.0028
  687MOL0     C90566   4.761   2.554  10.289 -0.1238 -0.3351 -1.9356
  687MOL0     C90567   4.802   2.529  10.147 -0.2470  0.7448  0.3644
  687MOL0     C90568   4.890   2.402  10.122  0.2662  0.3782  1.0218
  687MOL0     N90569   4.824   2.290  10.053  0.1027 -0.0353  0.3606
  687MOL0     C90570   4.774   2.179  10.116 -0.2940  0.5400 -0.6646
  687MOL0     C90571   4.743   2.085  10.022  0.3367  0.1110 -0.1629
  687MOL0     C90572   4.679   1.954  10.046  0.0610  0.4775  0.2328
  687MOL0     C90573   4.528   1.953  10.009 -0.2100  0.7793  1.2455
  687MOL0     C90574   4.457   1.824  10.039  0.4509  0.5498  0.3966
  687MOL0     C90575   4.446   1.778  10.186  1.2161 -0.4028  0.1292
  687MOL0     O90576   4.387   1.645  10.194 -0.4444 -0.1633 -0.1320
  687MOL0     C90577   4.256   1.630  10.183 -0.1245  1.2925 -0.3607
  687MOL0     C90578   4.145   1.717  10.171  0.0581 -0.5856  0.5564
  687MOL0     C90579   4.018   1.672  10.163  0.0933 -0.0907  0.6989
  687MOL0     C90580   3.981   1.533  10.190 -1.1054 -1.4234 -0.0384
  687MOL0     C90581   3.849   1.485  10.201  0.1996  0.8968  0.0518
  687MOL0     O90582   3.752   1.579  10.171 -0.4257  0.0994  0.7970
  687MOL0     C90583   3.617   1.566  10.161 -0.2451  0.2269  1.1561
  687MOL0     C90584   3.543   1.467  10.220  0.6471 -0.2097 -0.8780
  687MOL0     C90585   3.407   1.473  10.214  0.5521 -0.7477 -0.4289
  687MOL0     C90586   3.341   1.573  10.139 -0.6161  0.5040 -0.3552
  687MOL0     O90587   3.204   1.577  10.127  0.0556  0.4488  0.1422
  687MOL0     C90588   3.128   1.589  10.249 -0.0187  0.1550 -0.0060
  687MOL0     C90589   2.976   1.586  10.220 -0.4825  0.3329 -1.2506
  687MOL0     C90590   2.880   1.614  10.340 -0.1683  0.2964 -0.6215
  687MOL0     C90591   2.738   1.627  10.280 -0.2066  0.6364  0.2188
  687MOL0     C90592   2.631   1.615  10.387 -0.6801 -0.0693 -0.3792
  687MOL0     C90593   2.486   1.629  10.327 -1.3163 -0.1156 -0.6836
  687MOL0     C90594   2.387   1.642  10.441  0.7759 -0.2666  1.0579
  687MOL0     C90595   2.241   1.628  10.389  0.6104 -0.7748 -0.3508
  687MOL0    Cl90596   2.153   1.628  10.546 -0.2073 -0.0618 -0.4947
  687MOL0     C90597   3.418   1.672  10.079  0.8185 -0.9755  0.2116
  687MOL0     C90598   3.555   1.670  10.086  0.0380 -0.3123 -0.5480
  687MOL0     O90599   3.830   1.369  10.241  0.5000 -0.3962  0.5404
  687MOL0     C90600   4.090   1.450  10.218 -1.6548  0.6843  1.0411
  687MOL0     C90601   4.224   1.495  10.199  0.6157  0.0719 -0.3285
  687MOL0     N90602   4.766   2.151   9.901  0.2909  0.3699 -0.1479
  687MOL0     N90603   4.829   2.258   9.917 -0.5897 -0.0038 -0.5008
  687MOL0     C90604   5.340   3.013  10.580  0.1713  0.2479 -0.1521
  687MOL0     C90605   5.475   3.051  10.564  0.3100  0.5265 -0.6622
  687MOL0     C90606   5.908   3.085  10.408 -0.6434 -0.1906 -0.4214
  687MOL0     C90607   6.003   3.090  10.308 -0.5514 -0.1252 -0.5271
  687MOL0     C90608   6.142   3.081  10.339  0.3938 -0.7558 -0.3157
  687MOL0     C90609   6.182   3.060  10.474  0.0864 -0.9858  0.4653
  687MOL0     O90610   6.309   3.024  10.508 -0.3712  0.1458 -0.1434
  687MOL0     C90611   6.418   3.074  10.420  0.1247 -0.4688  0.7053
  687MOL0     C90612   6.546   3.095  10.493 -0.6395 -0.3658  0.4078
  687MOL0     C90613   6.622   2.968  10.501 -0.7776  0.0663 -0.3800
  687MOL0     C90614   6.754   2.976  10.574 -1.1832  0.2670 -0.8345
  687MOL0     C90615   6.859   3.055  10.502  0.7747 -0.4632  0.1777
  687MOL0     C90616   6.933   3.136  10.445  0.0065 -0.2938  0.4765
  687MOL0     C90617   6.089   3.066  10.576  1.0747  0.3788 -0.0925
  687MOL0     C90618   5.946   3.087  10.545 -1.0946 -0.1501 -1.1111
  687MOL0     H90619   5.527   2.960  10.242 -2.1866  0.3046 -0.2151
  687MOL0     H90620   5.292   2.876  10.284 -0.5290 -1.0997 -0.0023
  687MOL0     H90621   5.088   3.028  10.615  1.0860 -1.5669  4.0673
  687MOL0     H90622   5.033   2.865  10.660  1.6892  0.2997  0.7433
  687MOL0     H90623   4.968   2.977  10.386 -0.0637 -0.2948  0.4962
  687MOL0     H90624   4.874   3.015  10.531 -0.2816  0.2556  0.0069
  687MOL0     H90625   4.807   2.777  10.539 -0.3468 -0.7793 -0.2127
  687MOL0     H90626   4.947   2.738  10.446  0.2228  0.6125  2.6989
  687MOL0     H90627   4.726   2.907  10.339 -0.9822 -0.2515  2.0320
  687MOL0     H90628   4.859   2.817  10.248  0.0448  0.2922  0.4398
  687MOL0     H90629   4.613   2.696  10.244 -1.3428 -0.2971  1.6156
  687MOL0     H90630   4.631   2.681  10.412 -1.6968  1.1956  0.5272
  687MOL0     H90631   4.686   2.476  10.303 -0.9643  0.2297 -3.1716
  687MOL0     H90632   4.847   2.541  10.356 -2.0175  0.3692  0.8335
  687MOL0     H90633   4.703   2.521  10.101 -0.0684  0.1994  0.0732
  687MOL0     H90634   4.863   2.614  10.115  0.9565 -0.4192 -0.5421
  687MOL0     H90635   4.938   2.370  10.215  0.7360  1.1057  1.0351
  687MOL0     H90636   4.963   2.446  10.053 -0.7863  1.0354  0.3051
  687MOL0     H90637   4.748   2.161  10.219 -0.0038  1.3682 -0.4411
  687MOL0     H90638   4.695   1.929  10.151 -0.8703 -1.3388 -0.0109
  687MOL0     H90639   4.730   1.872   9.994 -1.4082  2.0672 -4.1546
  687MOL0     H90640   4.535   1.987   9.905  2.0117 -1.6442  0.4858
  687MOL0     H90641   4.488   2.038  10.065 -0.5603  2.5717 -1.5373
  687MOL0     H90642   4.359   1.826   9.990  0.1191  0.8129  1.0529
  687MOL0     H90643   4.511   1.742   9.992  0.7899  0.7151  0.4935
  687MOL0     H90644   4.400   1.856  10.247  0.3572 -0.4278 -0.4750
  687MOL0     H90645   4.548   1.776  10.226  1.8005 -0.8166 -1.2786
  687MOL0     H90646   4.153   1.826  10.167  1.3899 -0.6896 -0.7708
  687MOL0     H90647   3.943   1.746  10.136 -0.9670 -1.4751 -0.3430
  687MOL0     H90648   3.602   1.408  10.289  0.7611  0.4266 -0.4274
  687MOL0     H90649   3.343   1.396  10.256 -1.1303 -0.2657 -1.9669
  687MOL0     H90650   3.153   1.683  10.299 -1.1310  1.3871 -1.6453
  687MOL0     H90651   3.152   1.522  10.332  1.9713 -0.5779 -1.1096
  687MOL0     H90652   2.964   1.482  10.188  0.7301 -1.3160  2.9549
  687MOL0     H90653   2.957   1.660  10.141  0.7721 -0.3194 -2.1925
  687MOL0     H90654   2.910   1.702  10.397 -0.1600 -0.9027  1.3340
  687MOL0     H90655   2.886   1.527  10.407 -0.7492  1.5363  1.0944
  687MOL0     H90656   2.731   1.720  10.223  0.3779 -1.5583 -3.7954
  687MOL0     H90657   2.733   1.542  10.211  2.2980 -2.3426  3.3524
  687MOL0     H90658   2.628   1.703  10.452  1.0286 -1.8432  2.3076
  687MOL0     H90659   2.652   1.521  10.437  4.1544  1.1520  0.3994
  687MOL0     H90660   2.471   1.545  10.258  0.8757 -0.9527 -0.2098
  687MOL0     H90661   2.479   1.719  10.265  1.5487  1.1757  0.6639
  687MOL0     H90662   2.400   1.564  10.517  0.4352  0.8784  2.3375
  687MOL0     H90663   2.416   1.738  10.485  0.1397 -0.0060  0.9235
  687MOL0     H90664   2.235   1.532  10.338 -1.2029 -2.6118  2.9979
  687MOL0     H90665   2.221   1.714  10.324  2.2704 -1.0783 -1.3226
  687MOL0     H90666   3.369   1.760  10.039  0.5754 -0.4957  1.5488
  687MOL0     H90667   3.607   1.755  10.043  0.4574 -0.0803  0.3975
  687MOL0     H90668   4.069   1.345  10.234 -1.8331  0.9900  3.1187
  687MOL0     H90669   4.305   1.429  10.227  2.7581  3.2073  1.4610
  687MOL0     H90670   5.285   3.039  10.670 -2.0773  0.0973 -1.3953
  687MOL0     H90671   5.531   3.097  10.645 -0.3205  0.7977 -0.3770
  687MOL0     H90672   5.975   3.103  10.204  1.5055 -0.1738 -1.1305
  687MOL0     H90673   6.213   3.087  10.258  0.7938 -1.3889 -0.0205
  687MOL0     H90674   6.384   3.169  10.377  0.2734 -1.3182 -1.4155
  687MOL0     H90675   6.438   3.017  10.328  1.1624  2.0789 -0.7686
  687MOL0     H90676   6.593   3.178  10.440 -1.4853  0.8493  1.5102
  687MOL0     H90677   6.517   3.131  10.592 -0.6267  3.3329 -0.7759
  687MOL0     H90678   6.652   2.936  10.401  0.0234  1.3151 -0.5620
  687MOL0     H90679   6.557   2.897  10.552  0.6695 -0.4311  0.8698
  687MOL0     H90680   6.751   3.037  10.665  1.3418 -3.1191  1.8272
  687MOL0     H90681   6.784   2.871  10.586  2.3295  0.9671 -2.5180
  687MOL0     H90682   6.995   3.193  10.378  0.4385 -1.8900 -0.5174
  687MOL0     H90683   6.124   3.050  10.678  1.7906  0.7954 -0.2714
  687MOL0     H90684   5.875   3.116  10.623 -1.5083  0.5972 -1.7538
  688MOL0     O90685   3.123   0.924   5.160 -0.5263 -0.3947 -0.1972
  688MOL0     C90686   3.043   0.831   5.163  1.0021  0.3404  0.5411
  688MOL0     O90687   2.915   0.840   5.113 -0.0159 -0.0438 -0.2410
  688MOL0     C90688   2.860   0.955   5.059 -0.0113 -0.3837 -0.7608
  688MOL0     C90689   2.727   0.973   5.086  0.4289 -0.6284 -0.5251
  688MOL0     C90690   2.659   1.088   5.039  0.3052  0.1866 -0.2106
  688MOL0     C90691   2.721   1.183   4.955 -0.0471  0.8436  0.1234
  688MOL0     O90692   2.660   1.288   4.904  0.3594  0.4187 -0.2668
  688MOL0     C90693   2.520   1.278   4.876 -0.4728  0.4958  0.3694
  688MOL0     C90694   2.486   1.343   4.741 -0.2412 -0.3829 -0.2303
  688MOL0     C90695   2.336   1.336   4.716 -0.0306 -0.0428 -1.1489
  688MOL0     C90696   2.308   1.404   4.580  0.5273 -0.0538  0.5703
  688MOL0     C90697   2.183   1.360   4.513  0.2421  0.1358 -0.2371
  688MOL0     C90698   2.199   1.290   4.373  0.1769  0.3380  0.0614
  688MOL0     C90699   2.076   1.263   4.293 -0.5586  0.3062 -0.0044
  688MOL0     C90700   2.103   1.136   4.196  0.1596 -0.4690 -0.4182
  688MOL0     N90701   1.973   1.094   4.140 -0.5721 -0.4050  0.4147
  688MOL0     C90702   1.874   1.020   4.193  0.2710  0.4080 -0.6743
  688MOL0     C90703   1.780   0.993   4.095 -0.6506 -0.9863  0.3097
  688MOL0     C90704   1.652   0.927   4.095 -0.2209  0.3592  0.5692
  688MOL0     C90705   1.650   0.798   4.011  0.1654  0.0795 -0.4113
  688MOL0     C90706   1.520   0.762   3.947  0.6777  0.2079  0.1146
  688MOL0     C90707   1.519   0.615   3.903 -1.3026 -0.1458 -0.0501
  688MOL0     O90708   1.471   0.540   4.019  0.6018 -0.4794 -0.4713
  688MOL0     C90709   1.546   0.452   4.093 -0.4593  0.2061  0.1087
  688MOL0     C90710   1.495   0.391   4.212 -0.0231 -0.5805 -0.8303
  688MOL0     C90711   1.582   0.315   4.294 -0.0960 -0.0440 -0.2486
  688MOL0     C90712   1.714   0.286   4.260 -0.1602  0.1946  0.3531
  688MOL0     C90713   1.814   0.243   4.358 -0.7552  0.4711 -0.1226
  688MOL0     O90714   1.947   0.244   4.316 -0.0537  0.0135  0.0706
  688MOL0     C90715   2.042   0.234   4.418 -0.6123 -0.9321 -0.1753
  688MOL0     C90716   2.096   0.111   4.457 -0.1497  0.4347  0.4406
  688MOL0     C90717   2.192   0.106   4.560  0.1400 -1.0332 -0.0280
  688MOL0     C90718   2.225   0.215   4.637  0.3707  0.3408  0.7924
  688MOL0     O90719   2.307   0.224   4.746 -0.0483  0.3270  0.2342
  688MOL0     C90720   2.379   0.113   4.788 -0.5486  0.3369  0.3379
  688MOL0     C90721   2.472   0.162   4.899  0.1371  0.5808  0.4648
  688MOL0     C90722   2.389   0.221   5.013  0.2247 -0.6102 -0.3770
  688MOL0     C90723   2.268   0.124   5.059  0.1912  0.3900 -0.0224
  688MOL0     C90724   2.188   0.184   5.182  0.3116  0.5534  0.6561
  688MOL0     C90725   2.065   0.090   5.215 -0.0153 -0.0538 -0.2989
  688MOL0     C90726   1.974   0.191   5.306  0.4257  0.6347  0.6684
  688MOL0     C90727   1.858   0.124   5.380 -0.7538 -1.0443  1.6626
  688MOL0    Cl90728   1.755   0.033   5.261  0.0523  0.2291 -0.1832
  688MOL0     C90729   2.160   0.335   4.605  0.2296  0.2493 -0.5250
  688MOL0     C90730   2.083   0.349   4.484  0.1427 -0.4756  0.1779
  688MOL0     O90731   1.774   0.223   4.469  0.4811  0.5904  0.0679
  688MOL0     C90732   1.761   0.339   4.147 -0.4612 -0.5077  0.5590
  688MOL0     C90733   1.682   0.423   4.067 -0.4178 -0.5746 -0.9865
  688MOL0     N90734   1.828   1.066   3.989 -0.3713 -0.2782 -1.0111
  688MOL0     N90735   1.938   1.136   4.015 -0.5453 -0.6864  0.0104
  688MOL0     C90736   2.852   1.149   4.914  0.5510  0.5273  0.3526
  688MOL0     C90737   2.919   1.037   4.972  0.1581 -0.8428  0.4866
  688MOL0     C90738   3.083   0.688   5.199  0.7267 -0.4491 -0.0921
  688MOL0     C90739   3.216   0.657   5.242 -0.8695 -0.0485 -0.2279
  688MOL0     C90740   3.245   0.524   5.279 -0.2656 -0.4885 -0.9678
  688MOL0     C90741   3.142   0.435   5.293  0.1375  0.0380 -0.6803
  688MOL0     O90742   3.174   0.300   5.322 -1.2399 -0.4009  0.1681
  688MOL0     C90743   3.073   0.187   5.341  0.1572  0.4790 -0.4369
  688MOL0     C90744   3.126   0.059   5.406  0.8413 -0.8300  0.8129
  688MOL0     C90745   3.195   0.079   5.540 -0.2067  0.5082 -0.4289
  688MOL0     C90746   3.257  -0.047   5.606 -0.2445 -0.2990 -0.5026
  688MOL0     C90747   3.161  -0.158   5.629 -0.1711 -0.2872 -0.4137
  688MOL0     C90748   3.064  -0.232   5.636  0.3131  0.3747 -0.0363
  688MOL0     C90749   3.011   0.466   5.261  1.0108 -0.6477  1.0608
  688MOL0     C90750   2.979   0.592   5.208 -0.1197  0.0061  0.1222
  688MOL0     H90751   2.668   0.909   5.151  3.2678 -0.1883  2.7031
  688MOL0     H90752   2.552   1.091   5.056 -0.0771  2.4773 -2.4518
  688MOL0     H90753   2.474   1.347   4.947  0.1248  1.4934 -0.1813
  688MOL0     H90754   2.477   1.180   4.895  2.2192 -0.8771 -0.1727
  688MOL0     H90755   2.544   1.300   4.659 -0.9226 -0.6562 -0.5721
  688MOL0     H90756   2.521   1.446   4.754  0.7188 -0.5761 -1.1551
  688MOL0     H90757   2.281   1.392   4.792  3.2207 -1.8849  2.9153
  688MOL0     H90758   2.300   1.233   4.724  0.4293 -0.3240 -2.4492
  688MOL0     H90759   2.305   1.513   4.595 -1.2343  0.7317 -3.9139
  688MOL0     H90760   2.386   1.381   4.507  0.7576  0.6481  0.5855
  688MOL0     H90761   2.119   1.449   4.510 -2.7771 -1.7762  1.7890
  688MOL0     H90762   2.127   1.293   4.579  0.7809  0.4237  0.5294
  688MOL0     H90763   2.253   1.196   4.388  0.0976  0.1199 -0.9242
  688MOL0     H90764   2.251   1.370   4.320 -1.8124  1.3411 -0.4796
  688MOL0     H90765   2.002   1.226   4.365  0.1361 -1.4875 -0.1478
  688MOL0     H90766   2.034   1.354   4.249 -0.1210 -0.7038 -2.7175
  688MOL0     H90767   2.153   1.058   4.254  2.7360  0.0752 -1.7220
  688MOL0     H90768   2.180   1.152   4.120 -0.0071 -0.5538 -0.6055
  688MOL0     H90769   1.872   0.998   4.299 -0.1668  0.7407 -0.6094
  688MOL0     H90770   1.572   0.991   4.054  1.3189  1.3393 -1.0607
  688MOL0     H90771   1.637   0.905   4.201  3.5006 -0.9127  0.9544
  688MOL0     H90772   1.680   0.716   4.076 -2.2446 -0.3875  0.2335
  688MOL0     H90773   1.716   0.810   3.925  1.9716  1.4045  1.0657
  688MOL0     H90774   1.444   0.775   4.024  1.3532  1.4248  0.6131
  688MOL0     H90775   1.491   0.825   3.862  2.9461  0.2487 -0.6999
  688MOL0     H90776   1.617   0.583   3.865 -0.1581  1.3197  1.5049
  688MOL0     H90777   1.453   0.600   3.817 -1.0626  0.8794 -0.4200
  688MOL0     H90778   1.395   0.424   4.235 -0.1253 -0.9229 -0.7821
  688MOL0     H90779   1.556   0.278   4.392 -0.4166  0.6497 -0.0694
  688MOL0     H90780   2.067   0.019   4.408  1.5367  0.8837 -1.5383
  688MOL0     H90781   2.231   0.012   4.598  1.3298 -0.3708  0.4365
  688MOL0     H90782   2.434   0.072   4.702 -0.5429  3.4819 -1.3165
  688MOL0     H90783   2.322   0.034   4.838 -2.7641  1.2106 -0.6634
  688MOL0     H90784   2.551   0.228   4.862  1.1702 -0.3467  0.9286
  688MOL0     H90785   2.531   0.077   4.935  0.9857 -0.0791 -2.2505
  688MOL0     H90786   2.335   0.309   4.978 -2.2310 -2.3826 -1.3260
  688MOL0     H90787   2.451   0.253   5.097  0.1333 -1.6801  0.1196
  688MOL0     H90788   2.203   0.096   4.975  0.5622 -3.0912  0.6840
  688MOL0     H90789   2.302   0.028   5.100 -4.0117 -1.0386  0.6754
  688MOL0     H90790   2.154   0.277   5.136  3.1911  1.7559  0.7422
  688MOL0     H90791   2.249   0.219   5.266  2.1031 -3.6187  1.3234
  688MOL0     H90792   2.090   0.001   5.273 -2.2093 -2.4491 -2.7720
  688MOL0     H90793   2.010   0.058   5.126  0.5155  1.1226 -1.0847
  688MOL0     H90794   2.034   0.235   5.385  3.9075 -1.0634 -0.8207
  688MOL0     H90795   1.937   0.270   5.240 -0.2106 -0.7455 -0.7239
  688MOL0     H90796   1.796   0.203   5.425 -0.6501 -0.8408  1.4518
  688MOL0     H90797   1.901   0.060   5.457  3.6477 -2.5611 -1.6833
  688MOL0     H90798   2.193   0.418   4.666 -1.6654  0.6962 -0.0225
  688MOL0     H90799   2.060   0.448   4.447  1.9503 -0.6626 -1.6310
  688MOL0     H90800   1.866   0.337   4.118  0.1211  1.7062  2.2047
  688MOL0     H90801   1.744   0.476   3.995  1.7893 -0.1801  1.0698
  688MOL0     H90802   2.906   1.224   4.857  0.5837  0.2458  0.0093
  688MOL0     H90803   3.019   1.021   4.932 -0.5738  0.8978 -2.3207
  688MOL0     H90804   3.291   0.734   5.249 -2.2386  1.1931  2.2163
  688MOL0     H90805   3.347   0.492   5.295  0.9050  3.3706  0.4825
  688MOL0     H90806   3.023   0.151   5.251  0.2080 -0.4923 -0.0857
  688MOL0     H90807   2.985   0.220   5.397  0.8292  2.1981 -0.3386
  688MOL0     H90808   3.050  -0.020   5.408  2.0343 -2.0914 -0.4949
  688MOL0     H90809   3.209   0.031   5.341  0.8041 -0.1430  0.4672
  688MOL0     H90810   3.115   0.120   5.602 -1.2154  1.1171 -2.0734
  688MOL0     H90811   3.282   0.145   5.529  0.2058  0.1503  0.6261
  688MOL0     H90812   3.340  -0.074   5.540 -1.4397  1.1485 -2.7689
  688MOL0     H90813   3.317  -0.020   5.693  0.1994  0.0842 -0.9172
  688MOL0     H90814   2.982  -0.302   5.640 -1.4319  2.3905  1.4332
  688MOL0     H90815   2.927   0.399   5.273  0.4281  0.1251  1.4116
  688MOL0     H90816   2.874   0.609   5.182  0.4148 -1.3024 -3.5899
  689MOL0     O90817   6.972   5.683   3.277 -0.8363  0.3299  0.2685
  689MOL0     C90818   6.978   5.807   3.291  0.7462  1.0203  0.1348
  689MOL0     O90819   6.885   5.896   3.243 -0.3981  0.1143  0.1057
  689MOL0     C90820   6.797   5.846   3.152  0.2000 -0.3026  0.3794
  689MOL0     C90821   6.689   5.782   3.203  0.7936 -0.0787 -0.4359
  689MOL0     C90822   6.607   5.704   3.122 -0.0653  0.2929 -0.1915
  689MOL0     C90823   6.625   5.688   2.984 -0.2492 -0.4135  1.0507
  689MOL0     O90824   6.548   5.600   2.902  0.1690  0.2037 -0.4056
  689MOL0     C90825   6.438   5.522   2.962 -0.8964 -0.1003 -0.9619
  689MOL0     C90826   6.362   5.439   2.856 -0.2709 -1.0464 -0.7282
  689MOL0     C90827   6.234   5.379   2.922  0.9401  0.5005  0.4567
  689MOL0     C90828   6.138   5.331   2.815 -0.1577 -0.5773  1.3078
  689MOL0     C90829   5.992   5.285   2.865 -0.3511  0.6116  0.0020
  689MOL0     C90830   5.902   5.383   2.940 -0.1344  0.3719 -0.0336
  689MOL0     C90831   5.888   5.521   2.871 -0.3144 -0.0219  0.4717
  689MOL0     C90832   5.835   5.520   2.725  0.8646  0.3805 -0.2116
  689MOL0     N90833   5.689   5.479   2.708  0.1235  0.2778 -0.9254
  689MOL0     C90834   5.643   5.351   2.725  0.7943 -0.0776 -0.2130
  689MOL0     C90835   5.508   5.368   2.717 -0.0991  0.1306  0.2700
  689MOL0     C90836   5.403   5.261   2.716  0.5878  0.4200 -0.7830
  689MOL0     C90837   5.373   5.207   2.863  0.2987 -0.3664 -0.0207
  689MOL0     C90838   5.265   5.099   2.859  0.1391 -0.1567 -0.6423
  689MOL0     C90839   5.234   5.038   2.989 -0.2652  0.4103  0.0168
  689MOL0     O90840   5.196   5.132   3.094  0.5149  0.1246 -0.3813
  689MOL0     C90841   5.071   5.191   3.078  0.7569  0.7321  0.2932
  689MOL0     C90842   4.955   5.115   3.069  0.3804 -0.4639  0.3874
  689MOL0     C90843   4.829   5.177   3.070 -0.2998 -0.2689 -0.3543
  689MOL0     C90844   4.823   5.314   3.057 -0.5991  0.4815  0.7757
  689MOL0     C90845   4.680   5.369   3.058 -0.7448  0.0603  0.1128
  689MOL0     O90846   4.682   5.499   3.098 -0.8875 -0.2643 -0.4476
  689MOL0     C90847   4.570   5.577   3.109  0.0869  0.0943 -0.3635
  689MOL0     C90848   4.567   5.669   3.215  0.0799 -0.2258 -0.1865
  689MOL0     C90849   4.455   5.748   3.225 -0.7000  0.1663 -0.1507
  689MOL0     C90850   4.340   5.727   3.144 -0.4532 -0.4276 -0.2114
  689MOL0     O90851   4.217   5.783   3.158  1.1183  0.2492 -0.2801
  689MOL0     C90852   4.205   5.900   3.250 -0.0999  0.1488 -0.0447
  689MOL0     C90853   4.066   5.959   3.255  1.0464 -0.6068 -0.9371
  689MOL0     C90854   3.957   5.868   3.305  0.3907 -0.4441  0.3230
  689MOL0     C90855   3.821   5.948   3.332 -0.7173 -0.3161 -0.2081
  689MOL0     C90856   3.709   5.907   3.248  0.7966  0.5317  0.3164
  689MOL0     C90857   3.659   5.762   3.233  0.1990 -1.3468  0.3155
  689MOL0     C90858   3.595   5.713   3.365  0.9057  0.0331  0.0352
  689MOL0     C90859   3.657   5.584   3.420  0.2687  0.9334  0.4084
  689MOL0    Cl90860   3.584   5.443   3.333  0.4307 -0.0562  0.0944
  689MOL0     C90861   4.342   5.638   3.043 -0.2322  0.4964 -0.1023
  689MOL0     C90862   4.456   5.557   3.028 -0.5525  0.4358  0.1966
  689MOL0     O90863   4.588   5.313   2.992 -0.7139  0.2750  0.5392
  689MOL0     C90864   4.940   5.394   3.058 -0.1107  0.1233  0.0732
  689MOL0     C90865   5.062   5.324   3.073  0.5559 -0.6602 -0.1980
  689MOL0     N90866   5.481   5.501   2.698  0.0398  0.7585  0.4290
  689MOL0     N90867   5.587   5.558   2.685 -0.2662  0.2280  0.2860
  689MOL0     C90868   6.744   5.753   2.927  1.1637 -0.9626 -0.8566
  689MOL0     C90869   6.824   5.831   3.008 -0.3849  0.2936 -1.1110
  689MOL0     C90870   7.080   5.860   3.381 -0.3340  0.1252 -0.1905
  689MOL0     C90871   7.209   5.785   3.391 -0.2904 -0.5956  0.4708
  689MOL0     C90872   7.314   5.836   3.480 -0.2229  0.0383  0.2794
  689MOL0     C90873   7.301   5.960   3.551  0.0787 -0.1407  0.0195
  689MOL0     O90874   7.410   6.000   3.635  0.2520 -0.4218  0.6225
  689MOL0     C90875   7.453   6.142   3.621 -0.3224 -0.6738 -0.1340
  689MOL0     C90876   7.573   6.178   3.529  0.6818  0.6284  1.3260
  689MOL0     C90877   7.706   6.098   3.554 -0.0625  0.7406 -0.2810
  689MOL0     C90878   7.766   6.132   3.693 -0.0128  0.4377  0.0807
  689MOL0     C90879   7.909   6.098   3.708  0.0487  0.2803 -0.0014
  689MOL0     C90880   8.032   6.100   3.716  0.1875 -0.6194 -0.5685
  689MOL0     C90881   7.176   6.024   3.530 -0.0689  0.3193 -0.2694
  689MOL0     C90882   7.068   5.980   3.448  0.5085 -0.2807 -0.0850
  689MOL0     H90883   6.674   5.780   3.310 -0.6316 -2.1981 -0.6072
  689MOL0     H90884   6.526   5.648   3.168 -0.8465  0.5055 -1.2717
  689MOL0     H90885   6.358   5.576   3.014 -1.0168 -2.3685  1.3731
  689MOL0     H90886   6.489   5.454   3.031  0.6998  1.9944  0.0171
  689MOL0     H90887   6.413   5.368   2.791  3.8606  2.1848 -1.5072
  689MOL0     H90888   6.331   5.519   2.788 -0.3081 -0.8874 -0.5289
  689MOL0     H90889   6.180   5.459   2.975  0.1041  0.5815 -0.4839
  689MOL0     H90890   6.259   5.303   2.997  0.3374  1.4468  1.6533
  689MOL0     H90891   6.126   5.399   2.730  0.4513 -2.6217 -0.4831
  689MOL0     H90892   6.184   5.243   2.769  0.2423  1.4460 -2.6181
  689MOL0     H90893   6.017   5.204   2.934  0.2567  2.9457  2.7005
  689MOL0     H90894   5.936   5.233   2.787 -1.2068 -1.7200  2.0347
  689MOL0     H90895   5.936   5.383   3.044 -2.1781  0.2593  0.6824
  689MOL0     H90896   5.802   5.337   2.942  0.1789 -0.3029  0.6965
  689MOL0     H90897   5.826   5.587   2.932 -1.6467 -3.4574  3.1497
  689MOL0     H90898   5.987   5.569   2.873 -0.3237  0.0596 -0.4216
  689MOL0     H90899   5.894   5.462   2.654 -1.0634 -1.5129 -0.3758
  689MOL0     H90900   5.840   5.624   2.692  0.6468  0.4822  0.0710
  689MOL0     H90901   5.693   5.257   2.745 -0.5937 -0.3224  2.6465
  689MOL0     H90902   5.435   5.171   2.664  0.6352 -2.2205  3.3277
  689MOL0     H90903   5.315   5.302   2.667  0.5797  1.3034 -0.0663
  689MOL0     H90904   5.341   5.294   2.922  3.1763  1.4006 -0.8297
  689MOL0     H90905   5.467   5.179   2.912  0.8686  1.7791  0.2343
  689MOL0     H90906   5.170   5.143   2.825  0.0724 -0.2792 -0.6174
  689MOL0     H90907   5.289   5.024   2.783 -1.6867 -3.0813  1.4327
  689MOL0     H90908   5.329   4.992   3.017 -0.2469 -0.9691 -2.0860
  689MOL0     H90909   5.168   4.951   2.979  2.9886 -2.0588 -2.5552
  689MOL0     H90910   4.963   5.007   3.083  1.3017 -0.7368 -1.8541
  689MOL0     H90911   4.735   5.127   3.089 -0.4530  1.0239  2.8056
  689MOL0     H90912   4.660   5.677   3.270  0.3972  1.0771 -0.8727
  689MOL0     H90913   4.458   5.827   3.300  3.5945 -2.3998  2.7652
  689MOL0     H90914   4.272   5.973   3.205  1.8699 -1.3730  0.2553
  689MOL0     H90915   4.234   5.884   3.354  0.5947  1.8113  0.0442
  689MOL0     H90916   4.032   5.990   3.156  0.1175 -0.2029 -0.5076
  689MOL0     H90917   4.067   6.051   3.314 -1.0303  2.0702 -4.6582
  689MOL0     H90918   3.990   5.813   3.394  2.0038 -0.9995 -0.5798
  689MOL0     H90919   3.936   5.792   3.229  2.3983 -1.1793  0.4469
  689MOL0     H90920   3.804   5.938   3.439  1.2009  0.8936  0.2542
  689MOL0     H90921   3.832   6.053   3.304 -0.3255 -0.5959 -1.1539
  689MOL0     H90922   3.738   5.932   3.145  0.8006  3.0186  0.8667
  689MOL0     H90923   3.625   5.973   3.271  1.0965  1.2384 -0.5358
  689MOL0     H90924   3.738   5.688   3.213 -2.3681 -3.8782 -1.3100
  689MOL0     H90925   3.578   5.754   3.159 -1.1463  2.5066  1.1641
  689MOL0     H90926   3.615   5.785   3.445  3.1658  0.6556 -1.0040
  689MOL0     H90927   3.487   5.707   3.352  1.2285 -0.0737 -3.6181
  689MOL0     H90928   3.647   5.556   3.525 -0.6158 -1.5064 -0.2535
  689MOL0     H90929   3.764   5.599   3.402  0.0899  0.9823 -0.7134
  689MOL0     H90930   4.265   5.625   2.968  0.2549 -1.6711 -0.2872
  689MOL0     H90931   4.455   5.488   2.945  0.9285  1.6349 -0.8853
  689MOL0     H90932   4.934   5.502   3.057 -0.9676  0.0927  1.1305
  689MOL0     H90933   5.155   5.380   3.082 -0.6732  1.2884  1.1699
  689MOL0     H90934   6.778   5.737   2.826  1.1966  3.5162 -1.7622
  689MOL0     H90935   6.916   5.872   2.968  0.3160 -1.4053 -1.3269
  689MOL0     H90936   7.215   5.696   3.330 -2.0123 -1.3943  1.3880
  689MOL0     H90937   7.402   5.775   3.497  0.7223  1.6315  1.5186
  689MOL0     H90938   7.475   6.180   3.721  1.1872  2.0893 -1.3853
  689MOL0     H90939   7.365   6.205   3.606 -0.7619 -0.5792  2.4646
  689MOL0     H90940   7.539   6.154   3.428  0.9054 -0.2134  1.4488
  689MOL0     H90941   7.584   6.287   3.526 -0.5152  0.7334 -0.2355
  689MOL0     H90942   7.773   6.129   3.474  1.9986 -0.1673  1.0200
  689MOL0     H90943   7.685   5.990   3.549 -0.8486  0.8600  0.2050
  689MOL0     H90944   7.757   6.240   3.712  0.4033  0.4367  0.3010
  689MOL0     H90945   7.718   6.076   3.773  3.5067 -0.2482  1.9503
  689MOL0     H90946   8.138   6.092   3.704  0.1156  0.1893 -1.9956
  689MOL0     H90947   7.160   6.124   3.572  0.0083  1.8757 -3.6418
  689MOL0     H90948   6.973   6.032   3.436  0.0917 -0.6503  1.4188
  690MOL0     O90949   6.564   4.043   0.184 -0.1899 -0.5699  0.0238
  690MOL0     C90950   6.537   4.165   0.151  0.3360  0.4925  0.1058
  690MOL0     O90951   6.416   4.218   0.141  0.1908  0.1323  0.2548
  690MOL0     C90952   6.308   4.146   0.190 -0.1951 -0.4044 -0.1540
  690MOL0     C90953   6.255   4.162   0.320 -0.0143  0.4745 -0.6191
  690MOL0     C90954   6.150   4.079   0.354 -0.3012  0.4724  0.7737
  690MOL0     C90955   6.098   3.983   0.264  0.7354  1.0358 -0.4357
  690MOL0     O90956   6.010   3.906   0.330  0.4293  0.2920 -1.3425
  690MOL0     C90957   5.990   3.771   0.280  0.4054 -0.1432  0.7921
  690MOL0     C90958   5.883   3.685   0.352  0.0691 -0.7350 -0.2674
  690MOL0     C90959   5.738   3.760   0.328 -0.1534  0.4086 -0.7601
  690MOL0     C90960   5.631   3.722   0.419 -0.2130  0.1571  0.4724
  690MOL0     C90961   5.490   3.790   0.412 -0.8570  0.4621  0.0901
  690MOL0     C90962   5.423   3.785   0.547  0.7466 -0.4806  0.4768
  690MOL0     C90963   5.292   3.863   0.551 -0.5971  0.3248 -0.1559
  690MOL0     C90964   5.175   3.780   0.495 -0.6067 -0.0595 -1.6896
  690MOL0     N90965   5.042   3.862   0.514  0.3448 -0.0555 -0.4838
  690MOL0     C90966   4.968   3.905   0.403  0.0746  0.9458  1.0781
  690MOL0     C90967   4.870   3.978   0.466 -0.0478 -0.3970 -0.3943
  690MOL0     C90968   4.745   4.025   0.397 -1.2577 -0.7233  0.2109
  690MOL0     C90969   4.666   3.904   0.332 -0.9197  0.2578  0.3110
  690MOL0     C90970   4.577   3.840   0.450  0.2507 -0.8114  0.5850
  690MOL0     C90971   4.447   3.906   0.479  0.1740 -0.0177 -0.6702
  690MOL0     O90972   4.362   3.922   0.361 -0.3418 -0.3481 -0.2033
  690MOL0     C90973   4.244   3.862   0.367  0.1685  0.0190 -0.5113
  690MOL0     C90974   4.222   3.725   0.392  0.4255 -0.8605  0.8655
  690MOL0     C90975   4.100   3.660   0.392  0.4443 -0.6095 -0.7819
  690MOL0     C90976   3.987   3.735   0.359 -0.5243 -0.5473 -0.9911
  690MOL0     C90977   3.852   3.669   0.385 -0.3875 -0.4211  0.9783
  690MOL0     O90978   3.744   3.753   0.381 -0.3260  0.0897 -0.4171
  690MOL0     C90979   3.624   3.696   0.413  0.1288  0.4954  0.0193
  690MOL0     C90980   3.572   3.573   0.360  0.0696 -0.0372  0.2794
  690MOL0     C90981   3.442   3.544   0.387  0.1866 -0.2967  1.0534
  690MOL0     C90982   3.363   3.619   0.469 -0.0809 -0.4424 -0.1481
  690MOL0     O90983   3.231   3.571   0.485  0.1365  0.0779 -1.0506
  690MOL0     C90984   3.128   3.661   0.538 -0.8169 -0.4888  0.2048
  690MOL0     C90985   2.987   3.595   0.529 -0.0533  0.0953  0.0528
  690MOL0     C90986   2.877   3.698   0.567 -0.9417  0.5248 -0.4822
  690MOL0     C90987   2.908   3.793   0.686 -0.1551  0.0215 -0.7770
  690MOL0     C90988   2.781   3.870   0.732 -0.1489 -0.0871  0.1670
  690MOL0     C90989   2.665   3.789   0.802 -0.0899  0.9276  0.0791
  690MOL0     C90990   2.706   3.676   0.894  0.4596  0.7114 -1.3466
  690MOL0     C90991   2.577   3.629   0.980 -0.1888 -0.1273  0.8690
  690MOL0    Cl90992   2.517   3.768   1.076  0.2885 -0.1379  0.1387
  690MOL0     C90993   3.411   3.731   0.540 -0.5175  1.1720  0.0621
  690MOL0     C90994   3.545   3.771   0.503 -0.5843 -0.1032 -0.4830
  690MOL0     O90995   3.850   3.552   0.426  0.1324  0.9264  0.0477
  690MOL0     C90996   4.004   3.875   0.343  0.0960  0.5039  0.0734
  690MOL0     C90997   4.125   3.938   0.357  0.0910 -0.1752  0.8977
  690MOL0     N90998   4.903   3.988   0.599  0.3460  0.7869 -0.1344
  690MOL0     N90999   4.998   3.914   0.631  0.3172  0.3937  0.3928
  690MOL0     C91000   6.142   3.983   0.132 -0.8300  0.6765  0.4408
  690MOL0     C91001   6.242   4.069   0.101  0.0828  0.1670  0.4031
  690MOL0     C91002   6.659   4.249   0.129 -0.0872  0.8288 -0.0121
  690MOL0     C91003   6.631   4.375   0.074  0.7320 -0.1835  0.3021
  690MOL0     C91004   6.735   4.457   0.041  0.3342 -0.3540 -0.2939
  690MOL0     C91005   6.866   4.421   0.065 -0.0127 -0.0502 -0.8232
  690MOL0     O91006   6.970   4.515   0.028  0.6798 -0.0684 -1.0584
  690MOL0     C91007   7.096   4.480   0.077 -1.0350 -0.3703 -0.1713
  690MOL0     C91008   7.189   4.604   0.079 -0.3598  0.2394 -0.0093
  690MOL0     C91009   7.149   4.720  -0.022 -1.0485 -0.0850 -0.0272
  690MOL0     C91010   7.172   4.666  -0.167 -0.0244 -0.7997  0.1999
  690MOL0     C91011   7.140   4.777  -0.260  0.0799  0.3851 -0.1830
  690MOL0     C91012   7.096   4.856  -0.345  0.0087  0.1284  0.5092
  690MOL0     C91013   6.892   4.297   0.120  0.9901 -0.3430  0.2388
  690MOL0     C91014   6.790   4.209   0.156 -0.0960  0.1747  0.4721
  690MOL0     H91015   6.301   4.224   0.397  0.6916 -1.3016  0.4643
  690MOL0     H91016   6.115   4.081   0.457 -0.4765  0.9458  0.7046
  690MOL0     H91017   6.082   3.721   0.310  1.3285  0.8182 -0.3469
  690MOL0     H91018   5.975   3.774   0.172  0.1683  2.8162  0.8325
  690MOL0     H91019   5.917   3.685   0.456 -0.7403 -1.9104  0.0174
  690MOL0     H91020   5.872   3.588   0.304 -2.2774  0.1663 -1.7694
  690MOL0     H91021   5.721   3.734   0.224  1.0843 -1.7395 -0.4872
  690MOL0     H91022   5.755   3.866   0.350 -0.7137  0.3559 -0.0255
  690MOL0     H91023   5.606   3.615   0.417  1.6839 -0.3945 -3.1833
  690MOL0     H91024   5.672   3.730   0.520  1.0616 -2.7281  0.2868
  690MOL0     H91025   5.428   3.735   0.341  0.0890 -1.5732  0.7689
  690MOL0     H91026   5.506   3.893   0.379  2.2183 -0.1930 -0.8531
  690MOL0     H91027   5.493   3.832   0.617  1.7096  0.1147 -0.8494
  690MOL0     H91028   5.393   3.687   0.584 -1.8601  0.9551  2.5605
  690MOL0     H91029   5.265   3.893   0.653  0.0782 -6.5509  2.6003
  690MOL0     H91030   5.306   3.946   0.481 -0.8743 -1.9479 -3.0628
  690MOL0     H91031   5.176   3.687   0.551  3.5942  1.9415  2.2274
  690MOL0     H91032   5.196   3.749   0.392 -0.4087 -2.1454 -1.0540
  690MOL0     H91033   4.978   3.881   0.298 -1.4719 -0.6548  1.2562
  690MOL0     H91034   4.780   4.080   0.310  1.3037 -2.0630  0.2957
  690MOL0     H91035   4.693   4.095   0.464 -0.4755  0.5507 -0.4919
  690MOL0     H91036   4.727   3.825   0.289 -1.9869  0.4710 -1.7315
  690MOL0     H91037   4.597   3.922   0.249 -0.0137  1.3627 -0.2226
  690MOL0     H91038   4.551   3.738   0.420  1.9225 -1.8337  2.3927
  690MOL0     H91039   4.639   3.827   0.539 -0.8125 -1.0429  1.3070
  690MOL0     H91040   4.471   4.007   0.514  2.0489 -0.8555  0.6144
  690MOL0     H91041   4.400   3.839   0.551 -2.1633  1.6242 -0.5580
  690MOL0     H91042   4.307   3.664   0.420  0.6188 -0.1545  1.8725
  690MOL0     H91043   4.090   3.557   0.425 -0.1643 -1.0979 -2.3769
  690MOL0     H91044   3.632   3.505   0.299 -0.9825  1.7740 -3.0398
  690MOL0     H91045   3.402   3.459   0.332  2.7990 -0.4832 -0.7380
  690MOL0     H91046   3.132   3.747   0.471  2.1462  0.0945  0.9540
  690MOL0     H91047   3.158   3.685   0.640 -1.0508  1.5413 -0.1715
  690MOL0     H91048   2.992   3.519   0.608  1.5237  1.4117  1.2711
  690MOL0     H91049   2.973   3.543   0.433 -0.6174 -2.0128  1.1949
  690MOL0     H91050   2.784   3.641   0.576 -0.3237 -0.4982 -0.3972
  690MOL0     H91051   2.855   3.753   0.476 -2.5453  1.0032  0.1633
  690MOL0     H91052   2.944   3.726   0.765  1.6975 -1.5552 -2.8513
  690MOL0     H91053   2.991   3.857   0.655 -0.0984 -0.6589 -2.1007
  690MOL0     H91054   2.730   3.904   0.641 -0.3578 -1.3992 -0.2270
  690MOL0     H91055   2.798   3.952   0.802  2.5589  0.6641 -1.2330
  690MOL0     H91056   2.602   3.751   0.721 -1.3574  2.9659  0.0331
  690MOL0     H91057   2.605   3.867   0.851  0.0483  2.3058 -1.8369
  690MOL0     H91058   2.753   3.596   0.837 -0.9670 -0.6538 -0.6787
  690MOL0     H91059   2.772   3.724   0.968  0.7574 -1.1382 -0.3393
  690MOL0     H91060   2.602   3.542   1.040  1.4162  1.2275  2.2741
  690MOL0     H91061   2.501   3.585   0.916 -1.3851 -1.7775  3.3025
  690MOL0     H91062   3.358   3.764   0.629  1.2256  3.3998  0.3964
  690MOL0     H91063   3.590   3.852   0.559  0.2595 -0.7617 -0.2098
  690MOL0     H91064   3.920   3.944   0.344 -0.5485 -0.1145 -2.5678
  690MOL0     H91065   4.140   4.044   0.369  1.7243 -0.4530  1.7174
  690MOL0     H91066   6.094   3.918   0.060  1.1617  1.4152 -1.6701
  690MOL0     H91067   6.278   4.069  -0.002 -3.6883 -1.3124 -1.1074
  690MOL0     H91068   6.533   4.418   0.054  1.4896  1.2738 -0.5103
  690MOL0     H91069   6.716   4.553  -0.006  2.0897 -0.4137 -1.1834
  690MOL0     H91070   7.145   4.408   0.010  0.4890  0.8486 -0.4392
  690MOL0     H91071   7.093   4.448   0.182 -0.9752 -0.6555 -0.2533
  690MOL0     H91072   7.176   4.649   0.178 -4.1046 -3.3576  1.4385
  690MOL0     H91073   7.285   4.556   0.064 -0.1696  1.0827 -1.7172
  690MOL0     H91074   7.206   4.811  -0.004 -1.2539 -0.1026  0.7683
  690MOL0     H91075   7.042   4.742  -0.022 -1.0212  0.5355 -3.1523
  690MOL0     H91076   7.275   4.631  -0.176 -0.2803 -1.8104  1.0863
  690MOL0     H91077   7.112   4.577  -0.185  0.0008 -0.9139  0.6816
  690MOL0     H91078   7.070   4.938  -0.409  1.5241  0.6436  0.5099
  690MOL0     H91079   6.993   4.268   0.147  0.7699 -1.6543 -0.2743
  690MOL0     H91080   6.827   4.118   0.203 -1.5826 -1.1938 -0.8696
  691MOL0     O91081  10.501   9.809   3.584 -0.0916  0.2061 -0.7016
  691MOL0     C91082  10.404   9.881   3.605  0.3847 -0.7668 -1.0892
  691MOL0     O91083  10.405  10.021   3.629 -0.3403 -0.7599 -0.6395
  691MOL0     C91084  10.513  10.107   3.641 -0.0585  0.2977 -0.9074
  691MOL0     C91085  10.489  10.236   3.709 -1.2896  0.0724  0.4342
  691MOL0     C91086  10.590  10.330   3.727 -0.4063  0.1473  0.1271
  691MOL0     C91087  10.726  10.290   3.696  0.3181  0.2020 -0.5020
  691MOL0     O91088  10.815  10.386   3.747  0.6134  0.5738 -0.2740
  691MOL0     C91089  10.953  10.378   3.709  0.0616 -0.1351 -1.4921
  691MOL0     C91090  11.004  10.520   3.714  0.2891 -0.1086  0.9484
  691MOL0     C91091  11.137  10.545   3.641  0.5096  0.2059  0.6542
  691MOL0     C91092  11.245  10.515   3.743  0.0265 -0.3401 -1.3392
  691MOL0     C91093  11.385  10.552   3.721 -0.8458  0.3172 -0.2656
  691MOL0     C91094  11.436  10.505   3.577  0.3328  0.3654 -0.4846
  691MOL0     C91095  11.590  10.513   3.560  0.2053 -0.3117 -0.0553
  691MOL0     C91096  11.673  10.404   3.627 -0.2996  0.5206 -0.2011
  691MOL0     N91097  11.815  10.431   3.601  0.1389  0.0550  0.8978
  691MOL0     C91098  11.900  10.368   3.501  0.6748 -0.2379  0.6275
  691MOL0     C91099  12.025  10.418   3.530 -0.3444 -0.3898  0.1644
  691MOL0     C91100  12.156  10.382   3.464 -0.2692  0.6025 -0.3195
  691MOL0     C91101  12.187  10.238   3.501  0.3525  0.6877  0.2010
  691MOL0     C91102  12.343  10.213   3.508  0.4325  1.4265  0.0328
  691MOL0     C91103  12.409  10.217   3.375 -0.4758  0.1424  0.2025
  691MOL0     O91104  12.354  10.134   3.268  0.4493  0.4385 -0.1455
  691MOL0     C91105  12.420  10.139   3.148 -1.1398  0.0217 -1.0743
  691MOL0     C91106  12.347  10.099   3.044  0.5571 -0.4770 -0.2483
  691MOL0     C91107  12.400  10.086   2.925 -0.7876 -1.0909  0.5686
  691MOL0     C91108  12.536  10.115   2.901  0.0397  0.7443  0.9604
  691MOL0     C91109  12.590  10.090   2.760 -0.1978  0.0761 -0.2532
  691MOL0     O91110  12.710  10.150   2.742 -0.7768  0.5396  0.1269
  691MOL0     C91111  12.789  10.117   2.638  0.3573  0.0655 -0.2512
  691MOL0     C91112  12.757  10.115   2.500 -0.0890  0.3354 -0.4251
  691MOL0     C91113  12.849  10.095   2.406  1.0831  0.4516 -0.1904
  691MOL0     C91114  12.979  10.082   2.438 -0.8381  0.0516 -0.4807
  691MOL0     O91115  13.061  10.064   2.335 -0.8302 -0.6913  1.1581
  691MOL0     C91116  13.206  10.033   2.349 -0.7460  0.2372  0.5152
  691MOL0     C91117  13.283  10.072   2.217  0.2100 -0.3623 -0.7762
  691MOL0     C91118  13.430  10.068   2.220 -0.1669  0.1402 -1.3206
  691MOL0     C91119  13.476   9.920   2.212  0.4021  0.0036  0.7792
  691MOL0     C91120  13.621   9.890   2.189 -0.4706 -0.3493  0.0710
  691MOL0     C91121  13.697   9.933   2.315 -0.3652  0.1082  0.2978
  691MOL0     C91122  13.833   9.989   2.258  0.5141  0.8281  0.3944
  691MOL0     C91123  13.904  10.032   2.387  0.0603  0.2671 -0.0584
  691MOL0    Cl91124  13.827  10.196   2.437  0.0597  0.2371  0.1152
  691MOL0     C91125  13.029  10.082   2.567  0.4767  0.1741  0.4622
  691MOL0     C91126  12.928  10.109   2.663 -0.5377 -0.6279 -0.9245
  691MOL0     O91127  12.533  10.009   2.683 -0.4686  0.4819 -0.0307
  691MOL0     C91128  12.618  10.164   3.006  0.2521 -1.1778 -0.3808
  691MOL0     C91129  12.555  10.177   3.129  0.1724  0.4630  1.0076
  691MOL0     N91130  12.023  10.507   3.632  0.7920  0.6275 -0.1399
  691MOL0     N91131  11.899  10.509   3.676 -0.3242  0.0246  0.0633
  691MOL0     C91132  10.749  10.167   3.638  0.3327  0.5576  0.0069
  691MOL0     C91133  10.644  10.081   3.610 -0.7983  0.5163 -0.5758
  691MOL0     C91134  10.273   9.812   3.600  0.8223 -0.2872  0.6953
  691MOL0     C91135  10.166   9.883   3.661  0.5968  0.9330 -0.7552
  691MOL0     C91136  10.041   9.827   3.661  0.1774 -0.0294  0.0314
  691MOL0     C91137  10.014   9.696   3.616  0.3139 -0.0555 -0.7180
  691MOL0     O91138   9.893   9.628   3.615 -0.3429 -0.1965 -0.5150
  691MOL0     C91139   9.776   9.684   3.673  0.8964 -0.1574 -0.1708
  691MOL0     C91140   9.658   9.624   3.606  0.3232  0.1196  0.3663
  691MOL0     C91141   9.522   9.646   3.679  0.0016  0.9021  0.2239
  691MOL0     C91142   9.410   9.598   3.591  0.7099  0.0741 -0.2680
  691MOL0     C91143   9.385   9.694   3.479  1.3951  1.0781 -0.7440
  691MOL0     C91144   9.357   9.752   3.377 -0.7254  0.1275 -0.4191
  691MOL0     C91145  10.118   9.627   3.558  0.1321 -0.4029 -0.7474
  691MOL0     C91146  10.250   9.680   3.559  0.7777 -0.5214 -0.4449
  691MOL0     H91147  10.387  10.263   3.736 -1.3035 -0.8815  1.4237
  691MOL0     H91148  10.558  10.431   3.753 -2.5486  0.0440 -1.7143
  691MOL0     H91149  10.965  10.335   3.610 -3.4547  0.9254 -2.5364
  691MOL0     H91150  11.006  10.323   3.787 -0.3409 -0.2781 -1.3151
  691MOL0     H91151  11.000  10.554   3.818  0.4022  1.0675  0.5798
  691MOL0     H91152  10.937  10.577   3.649  0.8483  2.1599  2.2443
  691MOL0     H91153  11.160  10.643   3.598 -0.9546  0.7994  1.1495
  691MOL0     H91154  11.149  10.475   3.558  2.2247  1.2318 -0.0082
  691MOL0     H91155  11.201  10.553   3.836 -1.2988 -0.5105 -1.8733
  691MOL0     H91156  11.253  10.407   3.755  3.0770 -0.0140  1.0401
  691MOL0     H91157  11.456  10.509   3.792 -0.4798  0.3482 -0.6088
  691MOL0     H91158  11.394  10.661   3.724 -2.0491  0.4696 -1.3380
  691MOL0     H91159  11.389  10.549   3.489  1.6201 -1.9721 -2.4875
  691MOL0     H91160  11.423  10.397   3.564  0.2906  0.4484 -1.1659
  691MOL0     H91161  11.616  10.515   3.454 -0.9852 -1.1953 -0.3950
  691MOL0     H91162  11.626  10.605   3.606 -0.8743  0.9545 -1.6015
  691MOL0     H91163  11.644  10.304   3.593 -1.0471  0.5308  0.3789
  691MOL0     H91164  11.655  10.411   3.735 -1.2950 -1.1287 -0.2274
  691MOL0     H91165  11.865  10.288   3.436 -0.6494 -0.1782  1.2307
  691MOL0     H91166  12.237  10.445   3.501 -0.0535 -0.1803  0.5899
  691MOL0     H91167  12.149  10.389   3.355 -0.7057 -0.9070 -0.4132
  691MOL0     H91168  12.146  10.173   3.423 -0.9911  1.2399  0.4130
  691MOL0     H91169  12.137  10.206   3.593 -1.8263  1.8530 -0.5033
  691MOL0     H91170  12.386  10.288   3.575 -1.8461 -0.2104  3.6575
  691MOL0     H91171  12.373  10.117   3.551 -0.8034  1.9071  2.0829
  691MOL0     H91172  12.508  10.174   3.396 -0.1567  0.1378 -1.2108
  691MOL0     H91173  12.420  10.320   3.339  2.4154 -0.4745 -0.9984
  691MOL0     H91174  12.242  10.076   3.058 -1.0147  3.2227 -3.7637
  691MOL0     H91175  12.338  10.043   2.847  0.4443  0.6897 -1.4967
  691MOL0     H91176  12.657  10.134   2.462 -2.4462  1.2306  5.1968
  691MOL0     H91177  12.832  10.103   2.299  3.2346  2.3793 -0.4610
  691MOL0     H91178  13.219   9.929   2.380 -3.1669  0.0395  1.0800
  691MOL0     H91179  13.248  10.105   2.419  2.2000 -0.0932 -0.7733
  691MOL0     H91180  13.230  10.164   2.191 -2.8850 -2.2414 -1.6307
  691MOL0     H91181  13.250  10.013   2.131 -0.7233  1.5839 -1.8118
  691MOL0     H91182  13.468  10.101   2.317  1.3518  1.1803 -2.2160
  691MOL0     H91183  13.485  10.131   2.150  2.7746 -0.8872 -0.1002
  691MOL0     H91184  13.438   9.871   2.302  0.2736  1.0214  1.2931
  691MOL0     H91185  13.418   9.880   2.128  1.5080  1.9680 -1.0133
  691MOL0     H91186  13.653   9.925   2.091 -1.9579  0.6342 -0.0866
  691MOL0     H91187  13.640   9.783   2.180  0.2571 -0.4589  2.2246
  691MOL0     H91188  13.710   9.843   2.375  0.0532 -1.2537 -1.7322
  691MOL0     H91189  13.648  10.010   2.376 -0.2725  0.1266  0.3505
  691MOL0     H91190  13.897   9.916   2.208  0.9794  2.1167 -0.9211
  691MOL0     H91191  13.821  10.078   2.196  2.1066  0.3792 -0.6143
  691MOL0     H91192  14.012  10.038   2.368 -0.2777  1.5724 -1.8686
  691MOL0     H91193  13.901   9.965   2.473  2.0396  0.5998  0.3358
  691MOL0     H91194  13.133  10.074   2.594  0.7652  0.3112 -0.5872
  691MOL0     H91195  12.972  10.101   2.762  1.9024 -0.3916 -1.9168
  691MOL0     H91196  12.724  10.175   2.989  0.6747 -1.7036  1.5924
  691MOL0     H91197  12.610  10.217   3.214  0.4377 -0.5565  1.3350
  691MOL0     H91198  10.851  10.132   3.629  0.8742  2.1848 -0.6184
  691MOL0     H91199  10.667   9.981   3.574  0.0051 -1.0195  3.5884
  691MOL0     H91200  10.160   9.984   3.701 -0.8462  1.1937 -1.5624
  691MOL0     H91201   9.954   9.887   3.686  0.2617  1.0730 -2.1170
  691MOL0     H91202   9.769   9.791   3.652 -1.6568 -0.1779  0.2010
  691MOL0     H91203   9.782   9.683   3.783  4.8652 -0.0655 -0.2374
  691MOL0     H91204   9.658   9.661   3.503  1.5873 -0.3289  0.1818
  691MOL0     H91205   9.675   9.517   3.589  2.0033  0.4285 -0.1485
  691MOL0     H91206   9.504   9.753   3.693 -3.1872  0.3676  0.9385
  691MOL0     H91207   9.527   9.583   3.769 -2.8054 -0.6711 -0.5822
  691MOL0     H91208   9.443   9.505   3.543  2.8598  0.3699  0.4872
  691MOL0     H91209   9.316   9.589   3.646 -0.8220 -1.1315 -2.9119
  691MOL0     H91210   9.317   9.788   3.285  0.9270  0.4844 -1.0345
  691MOL0     H91211  10.109   9.525   3.520  1.6305 -2.2194  3.1535
  691MOL0     H91212  10.325   9.612   3.520 -0.9772 -2.5793 -0.4330
  692MOL0     O91213   9.825   9.325   1.949  1.0484  0.0982 -1.2279
  692MOL0     C91214   9.866   9.304   1.834 -0.0310 -0.4760  1.0218
  692MOL0     O91215   9.987   9.322   1.780  0.1954 -0.4423  0.2837
  692MOL0     C91216  10.089   9.369   1.853 -0.3821  0.6489  0.8042
  692MOL0     C91217  10.188   9.444   1.793  0.2827 -0.9785  0.3099
  692MOL0     C91218  10.288   9.513   1.862 -0.5190  0.5811 -0.2481
  692MOL0     C91219  10.314   9.485   1.997  0.6031 -0.3908 -1.0530
  692MOL0     O91220  10.417   9.546   2.063  0.5814  0.7431  0.8959
  692MOL0     C91221  10.546   9.493   2.037 -0.5224  0.3906 -0.0417
  692MOL0     C91222  10.620   9.519   2.163  0.0042 -0.1154 -0.3085
  692MOL0     C91223  10.721   9.631   2.145  0.0543  0.9303 -0.2413
  692MOL0     C91224  10.782   9.681   2.283  0.7302  0.4062  1.4258
  692MOL0     C91225  10.870   9.809   2.241  0.6585  0.8909 -0.3701
  692MOL0     C91226  10.933   9.869   2.361 -0.5590 -0.4746 -0.0609
  692MOL0     C91227  11.073   9.941   2.330  0.3712  0.0724  0.8354
  692MOL0     C91228  11.096  10.070   2.416 -0.1478 -0.2053  0.6725
  692MOL0     N91229  10.994  10.179   2.404 -0.3925  0.2637  0.4954
  692MOL0     C91230  10.889  10.212   2.490 -0.3357 -0.0979  0.0922
  692MOL0     C91231  10.836  10.325   2.431  0.2929  0.3865 -0.0778
  692MOL0     C91232  10.714  10.402   2.494  0.4613  0.4133 -0.1639
  692MOL0     C91233  10.644  10.485   2.375  0.2030  0.3134 -0.4607
  692MOL0     C91234  10.542  10.586   2.443  0.0182 -0.1183  0.9457
  692MOL0     C91235  10.412  10.513   2.491 -1.4834  0.3427  0.1096
  692MOL0     O91236  10.299  10.508   2.402 -0.3887 -0.0830 -0.5097
  692MOL0     C91237  10.191  10.426   2.437  0.8150 -0.7744  0.4989
  692MOL0     C91238  10.086  10.424   2.350  0.2254  0.4674 -0.1540
  692MOL0     C91239   9.973  10.338   2.371 -0.3185 -1.0739 -0.1496
  692MOL0     C91240   9.967  10.272   2.492  0.7281 -0.3126 -0.6982
  692MOL0     C91241   9.853  10.184   2.540 -0.9461  0.0257 -0.5516
  692MOL0     O91242   9.768  10.133   2.445  0.1174 -0.7011 -0.5964
  692MOL0     C91243   9.648  10.070   2.487  0.2262 -0.1310 -0.2594
  692MOL0     C91244   9.566  10.100   2.601  0.7534  0.6524 -0.0154
  692MOL0     C91245   9.435  10.050   2.599 -0.3211  0.2506  0.4342
  692MOL0     C91246   9.396   9.942   2.513  0.6568 -0.3331  0.5732
  692MOL0     O91247   9.274   9.885   2.543  0.4834  0.2291  0.0303
  692MOL0     C91248   9.234   9.770   2.460  0.3881  0.1141  0.0977
  692MOL0     C91249   9.109   9.726   2.526 -0.2999  0.3367  1.0448
  692MOL0     C91250   9.044   9.603   2.462 -0.3072 -0.1221  0.0042
  692MOL0     C91251   8.902   9.585   2.508  0.2961 -0.2616 -0.1420
  692MOL0     C91252   8.818   9.514   2.395  0.6512  0.5139  0.1186
  692MOL0     C91253   8.882   9.383   2.327  0.4199 -0.4805 -0.3811
  692MOL0     C91254   8.788   9.293   2.249  0.2502  0.3688 -0.7149
  692MOL0     C91255   8.650   9.270   2.303 -0.1833  0.0198  0.2285
  692MOL0    Cl91256   8.589   9.128   2.227 -0.1141  0.2060  0.3010
  692MOL0     C91257   9.482   9.912   2.406 -0.2981  0.8194  0.2632
  692MOL0     C91258   9.607   9.975   2.393 -0.9709  0.8811 -0.3169
  692MOL0     O91259   9.826  10.168   2.656 -0.0221  0.3403 -0.6554
  692MOL0     C91260  10.076  10.284   2.581 -0.9528 -0.5009  0.2208
  692MOL0     C91261  10.181  10.375   2.561 -0.5060  1.2147 -0.5350
  692MOL0     N91262  10.911  10.363   2.326 -0.2322  0.6261 -0.5631
  692MOL0     N91263  10.995  10.265   2.300 -0.5173 -0.5484 -0.1226
  692MOL0     C91264  10.223   9.403   2.064 -0.2468  1.0139  1.1163
  692MOL0     C91265  10.119   9.344   1.993 -0.1663  0.1024 -0.4480
  692MOL0     C91266   9.756   9.242   1.745 -0.2767 -0.3420  0.1558
  692MOL0     C91267   9.651   9.173   1.800  0.4136 -0.3283  0.6033
  692MOL0     C91268   9.546   9.118   1.720  0.0802  0.1076 -0.3008
  692MOL0     C91269   9.556   9.125   1.584 -0.6546 -0.3783  0.4520
  692MOL0     O91270   9.463   9.079   1.493 -0.1782 -0.7875 -0.3417
  692MOL0     C91271   9.337   9.016   1.533  0.8070 -0.1027  0.0693
  692MOL0     C91272   9.259   9.030   1.402  1.1623  0.2098  0.5480
  692MOL0     C91273   9.121   8.967   1.415 -0.6541  0.2825 -0.0779
  692MOL0     C91274   9.050   8.946   1.280  0.3675  0.2722 -0.8671
  692MOL0     C91275   9.123   8.854   1.194 -0.4536 -0.4197  0.0373
  692MOL0     C91276   9.206   8.807   1.117 -0.3719  0.4306  0.3846
  692MOL0     C91277   9.663   9.192   1.527  0.0511 -0.8703 -0.0347
  692MOL0     C91278   9.759   9.255   1.605  0.1403 -0.8113  0.5785
  692MOL0     H91279  10.194   9.451   1.685  2.6037 -2.8010  0.2674
  692MOL0     H91280  10.364   9.564   1.804 -0.3857  2.3446  1.3831
  692MOL0     H91281  10.601   9.538   1.954  1.3711 -1.7251 -0.0484
  692MOL0     H91282  10.552   9.384   2.031 -3.5077 -0.2093  3.7569
  692MOL0     H91283  10.680   9.432   2.193 -0.1239  0.0917  0.5660
  692MOL0     H91284  10.554   9.514   2.250  1.2085  0.5096  0.6926
  692MOL0     H91285  10.665   9.704   2.087 -0.2513  1.7321  1.0370
  692MOL0     H91286  10.797   9.585   2.081 -1.9194 -1.9391 -0.7225
  692MOL0     H91287  10.704   9.714   2.352 -1.9213 -0.2630 -1.0851
  692MOL0     H91288  10.848   9.605   2.325  2.4866 -0.4929 -2.5604
  692MOL0     H91289  10.809   9.881   2.186  0.8821  0.8139 -0.7177
  692MOL0     H91290  10.951   9.779   2.174  1.2446  0.4025  0.5337
  692MOL0     H91291  10.953   9.789   2.433  4.0618  0.6207  0.2405
  692MOL0     H91292  10.871   9.947   2.405  0.8597 -0.6812  2.5060
  692MOL0     H91293  11.150   9.866   2.352  1.6297  0.3045 -2.2838
  692MOL0     H91294  11.093   9.972   2.227  2.8951  1.4704  1.6461
  692MOL0     H91295  11.196  10.101   2.387 -0.1319 -0.2498  0.6770
  692MOL0     H91296  11.101  10.051   2.523 -3.2051  2.8778  1.5356
  692MOL0     H91297  10.840  10.157   2.569 -1.7421 -1.2779 -1.5246
  692MOL0     H91298  10.747  10.466   2.576  0.2902  1.7781 -1.1029
  692MOL0     H91299  10.646  10.328   2.536  0.3947 -0.0502 -1.0529
  692MOL0     H91300  10.610  10.417   2.296  2.2155 -3.3001  1.5206
  692MOL0     H91301  10.718  10.543   2.319  0.7597  0.2917  0.2429
  692MOL0     H91302  10.586  10.637   2.530 -1.0671 -1.6563  2.4847
  692MOL0     H91303  10.535  10.664   2.367 -0.5014 -1.1202 -0.0538
  692MOL0     H91304  10.379  10.564   2.581 -2.5386 -0.3076  0.1012
  692MOL0     H91305  10.443  10.413   2.524 -1.1367  1.0388  2.0067
  692MOL0     H91306  10.082  10.466   2.251 -3.7881  0.9812  0.0629
  692MOL0     H91307   9.887  10.333   2.305 -1.1166 -1.6622  0.9107
  692MOL0     H91308   9.582  10.174   2.679  0.9751  0.9363 -0.3265
  692MOL0     H91309   9.361  10.078   2.673  0.8713  0.4583  1.5947
  692MOL0     H91310   9.302   9.685   2.471 -0.1089 -0.5544 -1.6736
  692MOL0     H91311   9.214   9.789   2.354 -2.6986  2.5795  0.9580
  692MOL0     H91312   9.042   9.813   2.519  2.2976  2.3430 -0.8234
  692MOL0     H91313   9.130   9.701   2.630 -0.8561 -1.1554  0.8197
  692MOL0     H91314   9.112   9.523   2.494  0.0385  0.4983  0.8434
  692MOL0     H91315   9.052   9.605   2.353 -1.7570  2.0288 -0.1193
  692MOL0     H91316   8.893   9.526   2.600 -1.2579  3.0131  1.9823
  692MOL0     H91317   8.854   9.682   2.522 -0.5419 -0.7286  0.3178
  692MOL0     H91318   8.801   9.590   2.318 -2.2263 -1.3548 -1.2727
  692MOL0     H91319   8.723   9.488   2.443  0.8894  0.8976  0.8147
  692MOL0     H91320   8.928   9.323   2.406  0.5380  1.9632  1.5592
  692MOL0     H91321   8.963   9.415   2.261 -1.2467 -0.1779 -2.3567
  692MOL0     H91322   8.770   9.331   2.148 -2.8952  0.2866 -0.2939
  692MOL0     H91323   8.841   9.198   2.237 -0.3383  0.2916 -3.3582
  692MOL0     H91324   8.581   9.355   2.291  1.6035  1.5210  0.1503
  692MOL0     H91325   8.653   9.241   2.409  0.7520 -2.4610 -0.4239
  692MOL0     H91326   9.461   9.829   2.340  1.6568  1.2213 -0.9536
  692MOL0     H91327   9.681   9.943   2.320 -1.4377  1.0108 -0.8547
  692MOL0     H91328  10.060  10.236   2.676  2.0461 -0.2951  0.9262
  692MOL0     H91329  10.254  10.397   2.639 -0.0500 -0.8095 -0.3508
  692MOL0     H91330  10.229   9.387   2.171  6.4203  0.0985  0.9908
  692MOL0     H91331  10.057   9.275   2.049  1.6385  0.0514  1.6371
  692MOL0     H91332   9.648   9.163   1.908 -0.1053  2.1891  0.8706
  692MOL0     H91333   9.457   9.065   1.752  0.3853  0.2959  0.8968
  692MOL0     H91334   9.274   9.072   1.603 -0.8871 -0.7185 -0.8802
  692MOL0     H91335   9.341   8.909   1.554  0.1221 -0.5594 -1.8997
  692MOL0     H91336   9.249   9.136   1.380 -2.5254  0.1393  1.2105
  692MOL0     H91337   9.320   8.982   1.325 -0.6770 -2.0279  0.3767
  692MOL0     H91338   9.053   9.022   1.481 -0.0194 -0.7605  1.5138
  692MOL0     H91339   9.141   8.871   1.465  2.0990  0.8797  0.1293
  692MOL0     H91340   8.958   8.892   1.305 -0.1845  1.6937  0.3031
  692MOL0     H91341   9.017   9.040   1.234 -2.9917 -0.6682 -0.6628
  692MOL0     H91342   9.263   8.753   1.044 -2.2426  1.4918 -2.0228
  692MOL0     H91343   9.658   9.213   1.420  1.7456  2.1610  0.3656
  692MOL0     H91344   9.836   9.310   1.552 -1.0394 -0.4288 -0.8044
  693MOL0     O91345   7.484  11.287  10.354  0.0579 -0.0184  0.7050
  693MOL0     C91346   7.551  11.256  10.255 -0.1244 -0.1309  0.4571
  693MOL0     O91347   7.500  11.174  10.163 -0.5133 -0.1174  0.0092
  693MOL0     C91348   7.368  11.131  10.167 -0.0789  0.3570  0.2243
  693MOL0     C91349   7.282  11.153  10.054 -0.7645 -0.4689  0.2831
  693MOL0     C91350   7.156  11.093  10.035  0.2985 -0.0467  0.5265
  693MOL0     C91351   7.114  11.002  10.135 -1.2462 -0.4636 -0.3194
  693MOL0     O91352   7.000  10.934  10.111 -0.0948 -0.0043  0.3557
  693MOL0     C91353   6.892  10.936  10.204  0.0426  0.3040  0.2318
  693MOL0     C91354   6.766  10.908  10.127 -1.0125 -1.2374 -0.1964
  693MOL0     C91355   6.645  10.898  10.227  0.1460  0.1876 -1.2848
  693MOL0     C91356   6.512  10.860  10.161  0.5116 -0.1366  0.1272
  693MOL0     C91357   6.395  10.844  10.257  0.1618  0.3250 -0.0115
  693MOL0     C91358   6.267  10.831  10.175  0.1509 -0.7966  0.1067
  693MOL0     C91359   6.145  10.767  10.245 -0.8250 -0.0405 -0.3959
  693MOL0     C91360   6.025  10.762  10.158  0.0182 -0.7235  0.3067
  693MOL0     N91361   5.918  10.685  10.223 -0.2530  0.0977 -0.1341
  693MOL0     C91362   5.925  10.547  10.227  0.3316 -0.2168 -0.1780
  693MOL0     C91363   5.802  10.512  10.285 -0.5607  0.0260  0.0456
  693MOL0     C91364   5.751  10.377  10.314  0.0875  0.5661  0.2100
  693MOL0     C91365   5.798  10.332  10.452 -0.0213  0.1161 -0.0972
  693MOL0     C91366   5.779  10.184  10.486 -0.4071  0.3341  0.5797
  693MOL0     C91367   5.634  10.139  10.469 -0.3505  0.5335 -0.4169
  693MOL0     O91368   5.604  10.105  10.337 -0.4450  0.0612 -0.2220
  693MOL0     C91369   5.486  10.044  10.305 -0.7251  0.6561  1.4073
  693MOL0     C91370   5.382  10.007  10.384 -0.6357  0.3284 -0.4572
  693MOL0     C91371   5.261   9.966  10.322 -0.0082 -0.0548  0.1948
  693MOL0     C91372   5.247   9.944  10.186 -0.5975  1.4253  0.6536
  693MOL0     C91373   5.122   9.916  10.128 -1.1305  0.3862 -0.0739
  693MOL0     O91374   5.118   9.927   9.992 -0.2902 -0.3143 -0.3255
  693MOL0     C91375   5.021   9.873   9.912  0.6779  0.5562  0.2973
  693MOL0     C91376   5.024   9.899   9.771  1.2554  0.6785 -0.2452
  693MOL0     C91377   4.945   9.847   9.669  0.1075  0.1167  0.1443
  693MOL0     C91378   4.842   9.764   9.714 -0.6212  0.4761 -0.2868
  693MOL0     O91379   4.759   9.716   9.617 -0.4289  0.3763  0.2125
  693MOL0     C91380   4.648   9.792   9.593  0.4853 -0.9288 -1.0124
  693MOL0     C91381   4.553   9.736   9.497  0.4024  0.4683 -0.4182
  693MOL0     C91382   4.619   9.719   9.359  0.3561 -0.2795 -0.0973
  693MOL0     C91383   4.556   9.605   9.284  0.0271 -0.1836 -1.2498
  693MOL0     C91384   4.642   9.546   9.167  0.1667  0.2995 -0.2813
  693MOL0     C91385   4.652   9.634   9.051  0.6118 -0.2436 -0.1312
  693MOL0     C91386   4.752   9.583   8.951  0.4137 -0.5405 -0.5850
  693MOL0     C91387   4.707   9.471   8.867  0.6327 -0.3364 -0.4722
  693MOL0    Cl91388   4.834   9.397   8.762 -0.3283  0.1214 -0.3357
  693MOL0     C91389   4.818   9.755   9.848  0.1149  0.7944  0.1576
  693MOL0     C91390   4.905   9.805   9.951  0.1693 -0.0679  0.1344
  693MOL0     O91391   5.036   9.871  10.206  0.3558  0.4349 -0.1490
  693MOL0     C91392   5.361   9.962  10.104  1.0200 -0.4323 -0.3760
  693MOL0     C91393   5.481  10.015  10.163 -0.9199  0.5211  1.2872
  693MOL0     N91394   5.732  10.629  10.307 -0.3387 -0.2861  0.1917
  693MOL0     N91395   5.807  10.731  10.282  1.1540  0.4166  0.3696
  693MOL0     C91396   7.183  10.987  10.257  0.0773  0.0047  0.6274
  693MOL0     C91397   7.314  11.043  10.271  0.6523  0.7578 -0.3118
  693MOL0     C91398   7.687  11.310  10.242  0.0724 -0.0382  0.3366
  693MOL0     C91399   7.772  11.255  10.144 -0.7751 -0.3544  0.7819
  693MOL0     C91400   7.900  11.307  10.114  0.1679  0.5621 -0.4827
  693MOL0     C91401   7.937  11.422  10.183  0.3497  0.4090 -0.4597
  693MOL0     O91402   8.059  11.489  10.160  0.7101  0.9132 -0.2890
  693MOL0     C91403   8.167  11.439  10.226  0.5515  0.3896  0.2540
  693MOL0     C91404   8.278  11.497  10.139  0.3408 -0.4378  0.0913
  693MOL0     C91405   8.408  11.445  10.192 -0.2660  0.6463  0.9675
  693MOL0     C91406   8.532  11.489  10.118  0.1696  0.7541  0.0161
  693MOL0     C91407   8.551  11.631  10.142 -1.2047  0.0374 -0.0390
  693MOL0     C91408   8.572  11.744  10.178  0.7483 -1.5962 -0.1510
  693MOL0     C91409   7.853  11.477  10.284  0.5243 -0.5459 -0.7483
  693MOL0     C91410   7.730  11.422  10.310  0.6480  0.4829 -1.0120
  693MOL0     H91411   7.320  11.206   9.968  1.4155 -3.0599 -0.4413
  693MOL0     H91412   7.095  11.110   9.947  1.7253  3.4957  0.0486
  693MOL0     H91413   6.885  11.039  10.240 -3.4369  0.3518 -0.2607
  693MOL0     H91414   6.900  10.873  10.293 -2.4107  2.2276  1.9640
  693MOL0     H91415   6.782  10.826  10.058  1.5354 -0.2901 -0.8204
  693MOL0     H91416   6.755  11.001  10.070  0.6629 -0.9773 -0.1310
  693MOL0     H91417   6.632  10.997  10.272 -2.3741 -1.1938  1.3884
  693MOL0     H91418   6.674  10.827  10.305 -2.2242 -0.1283 -0.6176
  693MOL0     H91419   6.493  10.942  10.091  0.3163  1.1139  1.5755
  693MOL0     H91420   6.514  10.773  10.095  0.3990  0.5258 -0.7653
  693MOL0     H91421   6.391  10.933  10.320 -1.9652  1.4044 -1.5073
  693MOL0     H91422   6.405  10.756  10.320  0.6169  0.6865  0.4254
  693MOL0     H91423   6.281  10.767  10.087  0.7918 -1.5997  0.7822
  693MOL0     H91424   6.230  10.930  10.144 -1.0480 -1.2827 -0.0991
  693MOL0     H91425   6.178  10.668  10.278  1.9673  2.0333  3.8491
  693MOL0     H91426   6.121  10.821  10.337  0.6411 -1.2051  0.7261
  693MOL0     H91427   6.050  10.716  10.062 -0.8108  2.3479 -1.5419
  693MOL0     H91428   5.988  10.862  10.133 -4.3942 -2.2986 -0.1550
  693MOL0     H91429   6.005  10.493  10.176  1.9571  1.9610 -0.0407
  693MOL0     H91430   5.784  10.297  10.248 -0.4565  1.0321 -0.6481
  693MOL0     H91431   5.642  10.377  10.305 -0.2737 -2.4614  2.9349
  693MOL0     H91432   5.741  10.387  10.528 -0.0437 -2.2144  1.6866
  693MOL0     H91433   5.903  10.361  10.458  0.2325 -0.8034 -0.0613
  693MOL0     H91434   5.847  10.117  10.432 -4.4829 -2.0985 -2.1138
  693MOL0     H91435   5.799  10.182  10.593 -2.3945  0.8008  0.9997
  693MOL0     H91436   5.573  10.225  10.499  1.3449  2.4449 -2.0722
  693MOL0     H91437   5.617  10.055  10.537 -2.5757  1.0610 -0.2614
  693MOL0     H91438   5.402  10.032  10.487 -0.8894  2.2262 -0.8410
  693MOL0     H91439   5.178   9.949  10.389  1.3102 -1.7581  1.4912
  693MOL0     H91440   5.108   9.965   9.751 -0.4575  2.6547 -1.3682
  693MOL0     H91441   4.966   9.877   9.566  0.6191  2.0876  0.7758
  693MOL0     H91442   4.671   9.889   9.549  0.5481 -0.1349  0.6738
  693MOL0     H91443   4.591   9.822   9.681  0.2866  1.3224 -1.8564
  693MOL0     H91444   4.466   9.802   9.494  2.1095  2.9236  0.7858
  693MOL0     H91445   4.521   9.643   9.543  2.1051  0.2955  0.4855
  693MOL0     H91446   4.725   9.710   9.383  0.0757  1.2986  2.0075
  693MOL0     H91447   4.600   9.808   9.298 -1.5056 -0.8954 -0.4637
  693MOL0     H91448   4.535   9.520   9.349  0.0641  0.1099 -0.8519
  693MOL0     H91449   4.455   9.633   9.255 -1.5201 -1.6743  2.2042
  693MOL0     H91450   4.590   9.453   9.141 -3.0901  0.3821  4.5777
  693MOL0     H91451   4.742   9.512   9.196 -0.5873 -0.7244  1.2836
  693MOL0     H91452   4.694   9.728   9.089 -1.2142 -0.5988  3.0871
  693MOL0     H91453   4.557   9.647   8.999  2.3227  1.5601 -3.1372
  693MOL0     H91454   4.776   9.663   8.880  0.8681 -0.5188 -0.4112
  693MOL0     H91455   4.842   9.543   8.999  0.1749 -3.0723 -2.0236
  693MOL0     H91456   4.622   9.507   8.808  0.4724 -1.1971 -0.7863
  693MOL0     H91457   4.670   9.396   8.938  1.2860  1.1071  1.4539
  693MOL0     H91458   4.725   9.702   9.865  0.3796  0.4225  0.4508
  693MOL0     H91459   4.872   9.793  10.053 -1.4659 -2.3511 -0.5735
  693MOL0     H91460   5.355   9.954   9.996 -0.9861  1.2132 -0.4450
  693MOL0     H91461   5.560  10.040  10.094 -0.3915 -3.0257  0.3782
  693MOL0     H91462   7.149  10.920  10.335 -2.8615 -0.4481 -0.8984
  693MOL0     H91463   7.382  11.027  10.355 -0.4329  0.8188  0.5940
  693MOL0     H91464   7.728  11.172  10.089  1.0897 -1.9588  1.5870
  693MOL0     H91465   7.966  11.262  10.040 -0.4210  1.2695 -1.4563
  693MOL0     H91466   8.158  11.330  10.228 -1.7544  0.5007 -0.7207
  693MOL0     H91467   8.170  11.476  10.329  0.6213 -0.3032  0.5055
  693MOL0     H91468   8.260  11.490  10.032 -1.2045  1.4213  0.1856
  693MOL0     H91469   8.268  11.601  10.169 -1.5488 -0.8913  1.2035
  693MOL0     H91470   8.415  11.338  10.172  3.9971  1.1965 -1.5530
  693MOL0     H91471   8.397  11.455  10.300  1.3925 -1.6136  1.4209
  693MOL0     H91472   8.621  11.429  10.144 -0.1952 -1.6385 -3.4777
  693MOL0     H91473   8.520  11.463  10.012  0.4823 -4.2214  0.9474
  693MOL0     H91474   8.590  11.849  10.192 -2.9224 -0.9835  1.0058
  693MOL0     H91475   7.898  11.560  10.338 -1.6463  0.4498 -0.3897
  693MOL0     H91476   7.666  11.480  10.375 -1.2268 -1.1413 -1.3321
  694MOL0     O91477   0.002   7.968   5.177 -0.9427 -0.0657  0.5359
  694MOL0     C91478   0.115   7.975   5.226  0.3249  0.0091  1.3732
  694MOL0     O91479   0.164   7.900   5.330 -0.2919 -0.4721  0.1454
  694MOL0     C91480   0.072   7.825   5.394 -0.1352 -0.6960  0.1736
  694MOL0     C91481   0.001   7.872   5.501 -0.1654  0.0958  0.4800
  694MOL0     C91482  -0.084   7.782   5.568  0.2493 -0.4196 -0.6882
  694MOL0     C91483  -0.108   7.655   5.531  0.4912  0.1216 -0.0388
  694MOL0     O91484  -0.202   7.593   5.611  0.1574  0.3041  0.5728
  694MOL0     C91485  -0.226   7.452   5.581  0.0557 -0.0539  0.2490
  694MOL0     C91486  -0.129   7.347   5.632  0.1523  0.6543 -0.3362
  694MOL0     C91487  -0.148   7.208   5.561  0.8038  0.1536  0.2884
  694MOL0     C91488  -0.279   7.152   5.579 -0.4218 -0.1486  0.7594
  694MOL0     C91489  -0.300   7.036   5.490 -0.3509 -0.4380 -0.3648
  694MOL0     C91490  -0.428   6.971   5.525 -0.4028 -0.6741 -0.0322
  694MOL0     C91491  -0.442   6.840   5.440 -0.2028 -0.3403  0.1550
  694MOL0     C91492  -0.534   6.746   5.492 -0.0058  0.3100  0.5834
  694MOL0     N91493  -0.669   6.802   5.518  0.1774  0.3571  0.0446
  694MOL0     C91494  -0.761   6.845   5.423 -0.2270 -0.5092 -0.4453
  694MOL0     C91495  -0.866   6.883   5.498 -0.0223  0.2787  0.7067
  694MOL0     C91496  -0.980   6.962   5.442 -0.5345 -0.2553 -0.1058
  694MOL0     C91497  -1.112   6.943   5.510 -0.0787  0.5159  1.0045
  694MOL0     C91498  -1.213   7.045   5.464 -0.2392 -0.2201  0.0468
  694MOL0     C91499  -1.358   7.005   5.497  0.0155  0.1516 -0.0036
  694MOL0     O91500  -1.443   7.091   5.423  0.4735 -0.5658 -0.3209
  694MOL0     C91501  -1.580   7.088   5.454  0.2548  0.0643 -0.3727
  694MOL0     C91502  -1.646   7.006   5.542 -0.2519  1.2055  0.4013
  694MOL0     C91503  -1.792   7.016   5.557  0.0125  0.2339  0.9320
  694MOL0     C91504  -1.867   7.098   5.469  0.1341 -0.0095  0.3286
  694MOL0     C91505  -2.011   7.106   5.486  0.5437  0.3113  0.7889
  694MOL0     O91506  -2.073   7.194   5.404  0.5227  0.1501  0.6392
  694MOL0     C91507  -2.206   7.198   5.407  0.8500 -0.3995  0.3077
  694MOL0     C91508  -2.268   7.126   5.307  0.4657 -0.8316  0.7981
  694MOL0     C91509  -2.403   7.136   5.284 -0.2480  1.1914  0.4906
  694MOL0     C91510  -2.483   7.208   5.362  0.3924  0.2710  0.0361
  694MOL0     O91511  -2.622   7.204   5.341 -0.4025 -0.0037  0.6013
  694MOL0     C91512  -2.707   7.252   5.446  0.1776 -0.4319  0.1631
  694MOL0     C91513  -2.847   7.209   5.411  0.2517  0.4844 -0.2751
  694MOL0     C91514  -2.956   7.300   5.462  0.6332  0.4610 -0.7142
  694MOL0     C91515  -3.077   7.297   5.377  0.2936  0.6095  0.0209
  694MOL0     C91516  -3.196   7.361   5.438 -0.1246  0.0352 -0.4677
  694MOL0     C91517  -3.314   7.313   5.354 -0.0649  0.4284  0.0081
  694MOL0     C91518  -3.440   7.406   5.360  0.2567  0.3605  0.2907
  694MOL0     C91519  -3.555   7.352   5.262 -0.1259 -1.0108  0.3337
  694MOL0    Cl91520  -3.540   7.393   5.087 -0.2906  0.2383 -0.1159
  694MOL0     C91521  -2.428   7.296   5.457 -0.6420  0.1167 -0.4925
  694MOL0     C91522  -2.284   7.290   5.482  0.1363  0.3561  0.6480
  694MOL0     O91523  -2.064   7.015   5.561  0.0683 -0.4668 -0.2887
  694MOL0     C91524  -1.793   7.182   5.391 -0.7404  0.0935 -0.9772
  694MOL0     C91525  -1.652   7.176   5.383 -0.2212 -0.2211  0.1572
  694MOL0     N91526  -0.847   6.860   5.633 -1.7112  0.2596  0.1855
  694MOL0     N91527  -0.732   6.808   5.642 -0.0029 -0.7642 -0.1728
  694MOL0     C91528  -0.041   7.611   5.413  0.5798 -0.2587 -0.1711
  694MOL0     C91529   0.057   7.694   5.346  0.4035  0.9665  0.0926
  694MOL0     C91530   0.200   8.053   5.137 -0.4403  0.5952 -0.3153
  694MOL0     C91531   0.160   8.100   5.006 -0.0939  0.3768  0.1178
  694MOL0     C91532   0.237   8.167   4.921  0.2263 -1.0364  1.0413
  694MOL0     C91533   0.371   8.188   4.957  0.4422 -0.1196 -0.4554
  694MOL0     O91534   0.467   8.230   4.874 -0.3126  0.0403  0.0958
  694MOL0     C91535   0.452   8.240   4.735 -0.5842  0.0476 -0.7442
  694MOL0     C91536   0.578   8.309   4.678  0.3643 -0.1627  0.4943
  694MOL0     C91537   0.581   8.312   4.519  0.2453 -0.0238  0.8551
  694MOL0     C91538   0.700   8.391   4.461  0.1254  0.4576 -0.4315
  694MOL0     C91539   0.775   8.297   4.369 -0.7571  0.7433  0.3536
  694MOL0     C91540   0.821   8.212   4.290  0.2224  0.0603 -0.3030
  694MOL0     C91541   0.416   8.173   5.087 -0.2052  0.2044 -0.0974
  694MOL0     C91542   0.326   8.106   5.174 -0.4558 -0.2459 -0.3910
  694MOL0     H91543   0.032   7.971   5.536  3.7675 -1.7637  2.9913
  694MOL0     H91544  -0.138   7.815   5.656 -0.5025 -1.7097 -0.6433
  694MOL0     H91545  -0.242   7.443   5.474 -1.9503  3.0431  0.1662
  694MOL0     H91546  -0.328   7.431   5.617 -0.8959 -0.3951 -2.4507
  694MOL0     H91547  -0.097   7.346   5.737  3.9429 -0.4447 -1.3354
  694MOL0     H91548  -0.031   7.380   5.595 -0.0051  1.1755 -0.2996
  694MOL0     H91549  -0.058   7.149   5.579 -0.1029 -1.3730 -0.0623
  694MOL0     H91550  -0.142   7.220   5.453 -3.4120  0.0516 -0.1213
  694MOL0     H91551  -0.288   7.119   5.683  0.4265  1.0406  1.2307
  694MOL0     H91552  -0.354   7.229   5.560  1.4733  1.5802 -0.0854
  694MOL0     H91553  -0.218   6.964   5.499  1.0287  0.9167 -1.5701
  694MOL0     H91554  -0.298   7.060   5.383  0.8634 -1.1784 -0.5218
  694MOL0     H91555  -0.513   7.038   5.504 -0.8874 -1.7228 -1.5615
  694MOL0     H91556  -0.437   6.939   5.630 -0.6374  0.4853  0.3259
  694MOL0     H91557  -0.475   6.868   5.339  1.5849  1.3132 -0.0287
  694MOL0     H91558  -0.347   6.788   5.423 -0.1607 -0.1609 -0.1706
  694MOL0     H91559  -0.499   6.705   5.588  3.5147 -0.3396 -0.8299
  694MOL0     H91560  -0.552   6.666   5.420  1.1981 -0.7773  1.4254
  694MOL0     H91561  -0.752   6.852   5.315 -3.1023  0.6320 -0.6898
  694MOL0     H91562  -1.003   6.931   5.340  0.9609  2.3449 -1.3302
  694MOL0     H91563  -0.947   7.066   5.427 -2.5645  0.5386  0.5459
  694MOL0     H91564  -1.084   6.948   5.615  4.0496  0.6986  0.0776
  694MOL0     H91565  -1.159   6.849   5.480 -2.7260  2.6475 -2.2908
  694MOL0     H91566  -1.203   7.142   5.512  0.4004 -0.4278  0.3469
  694MOL0     H91567  -1.206   7.069   5.357 -0.2448  0.8975  0.2884
  694MOL0     H91568  -1.378   7.029   5.602  0.1921 -0.7288  0.2381
  694MOL0     H91569  -1.391   6.903   5.475 -1.3203  0.8326 -1.3223
  694MOL0     H91570  -1.600   6.926   5.599 -1.4126 -1.2622 -1.9274
  694MOL0     H91571  -1.835   6.953   5.634  0.6997 -2.5988 -0.8567
  694MOL0     H91572  -2.210   7.054   5.250  1.1445  0.0540  0.3418
  694MOL0     H91573  -2.442   7.081   5.200  1.5944  1.6846 -0.7577
  694MOL0     H91574  -2.698   7.359   5.470  3.4618 -0.4265 -0.6289
  694MOL0     H91575  -2.678   7.210   5.543 -0.6389 -2.4911 -0.4335
  694MOL0     H91576  -2.869   7.104   5.432  0.6039 -0.0117 -2.1578
  694MOL0     H91577  -2.855   7.212   5.302 -1.6562 -3.4833 -0.4195
  694MOL0     H91578  -2.921   7.404   5.458  0.1774  0.5767 -1.7713
  694MOL0     H91579  -2.978   7.274   5.566 -1.2370 -2.2504 -1.6713
  694MOL0     H91580  -3.045   7.341   5.282  1.2378 -1.1963 -0.5459
  694MOL0     H91581  -3.103   7.195   5.348 -0.2071  1.6746 -3.8970
  694MOL0     H91582  -3.181   7.469   5.446  0.3455 -0.1762  3.5112
  694MOL0     H91583  -3.217   7.336   5.542  2.0648 -0.6275 -0.1396
  694MOL0     H91584  -3.341   7.214   5.391  1.3803 -0.5529 -1.4139
  694MOL0     H91585  -3.289   7.310   5.247 -0.5061 -0.7018 -0.0806
  694MOL0     H91586  -3.478   7.397   5.463  2.4536 -1.7359  1.0099
  694MOL0     H91587  -3.422   7.508   5.325 -0.6966  0.6670  0.6302
  694MOL0     H91588  -3.650   7.404   5.281 -0.6583 -1.5188 -0.8904
  694MOL0     H91589  -3.560   7.243   5.270  0.4247 -1.3335 -2.7802
  694MOL0     H91590  -2.487   7.371   5.507 -3.8849 -3.0924  0.9935
  694MOL0     H91591  -2.234   7.356   5.552  0.5620 -1.1196  1.7737
  694MOL0     H91592  -1.849   7.259   5.337 -0.9728  0.3922 -0.3187
  694MOL0     H91593  -1.587   7.246   5.332 -0.0667 -0.6820 -0.2828
  694MOL0     H91594  -0.061   7.514   5.369  1.5004  1.0630 -3.8253
  694MOL0     H91595   0.123   7.647   5.274  0.5871 -0.5760  1.2356
  694MOL0     H91596   0.057   8.081   4.977  0.7239 -1.6855 -1.7247
  694MOL0     H91597   0.192   8.200   4.828  0.5478  0.8843  1.5219
  694MOL0     H91598   0.362   8.293   4.701  0.0729  1.6097 -0.1542
  694MOL0     H91599   0.453   8.133   4.712  1.8670 -0.2404  0.4039
  694MOL0     H91600   0.588   8.414   4.706 -0.7119  0.3088 -0.8068
  694MOL0     H91601   0.657   8.242   4.715 -0.7510 -1.2307  1.0159
  694MOL0     H91602   0.486   8.354   4.484 -0.0900 -2.1437 -1.0443
  694MOL0     H91603   0.576   8.216   4.467  2.2109  1.7330 -2.9781
  694MOL0     H91604   0.667   8.476   4.400  1.5801  1.6835  0.4216
  694MOL0     H91605   0.766   8.413   4.545 -0.5243  1.6059 -0.2089
  694MOL0     H91606   0.853   8.130   4.229  0.6990 -1.0139  1.3248
  694MOL0     H91607   0.505   8.209   5.136 -1.2056 -0.1100  2.0786
  694MOL0     H91608   0.353   8.094   5.279  2.3301 -0.5507 -1.0746
  695MOL0     O91609   0.122   3.950  10.828  0.4902  0.6255 -0.3930
  695MOL0     C91610   0.085   3.831  10.836  0.3730  0.3755  0.6251
  695MOL0     O91611  -0.024   3.779  10.773  0.1403  1.2606  0.0307
  695MOL0     C91612  -0.124   3.872  10.745 -0.1255 -0.0214 -0.2501
  695MOL0     C91613  -0.231   3.873  10.832  0.5476 -0.1679  0.1002
  695MOL0     C91614  -0.342   3.950  10.801 -0.5493 -0.1017  0.6963
  695MOL0     C91615  -0.345   4.041  10.685  0.6110  0.9512 -0.3663
  695MOL0     O91616  -0.447   4.124  10.647  0.3558  0.0596 -0.5745
  695MOL0     C91617  -0.568   4.128  10.730 -0.1821 -0.8939  0.0856
  695MOL0     C91618  -0.642   4.257  10.675  1.4403  0.4707 -0.5758
  695MOL0     C91619  -0.791   4.235  10.680  0.1726  0.4405 -0.5294
  695MOL0     C91620  -0.852   4.347  10.598 -0.6991 -0.5191  0.1009
  695MOL0     C91621  -1.007   4.362  10.634  0.7048  0.8780 -0.0284
  695MOL0     C91622  -1.017   4.458  10.752  0.2214 -0.8957  0.4608
  695MOL0     C91623  -1.153   4.469  10.824 -0.3275  0.2832  0.1306
  695MOL0     C91624  -1.263   4.541  10.741  0.3202  0.3661 -0.1784
  695MOL0     N91625  -1.391   4.555  10.813 -0.6995 -0.6562 -0.1305
  695MOL0     C91626  -1.487   4.649  10.779 -0.5163 -0.0096  0.3771
  695MOL0     C91627  -1.590   4.618  10.856  0.1080  0.3341 -0.0443
  695MOL0     C91628  -1.724   4.691  10.853  0.4488 -0.0977  0.4913
  695MOL0     C91629  -1.737   4.797  10.959 -0.2625 -0.5680  0.9330
  695MOL0     C91630  -1.613   4.891  10.957  0.2677  0.0076 -0.4323
  695MOL0     C91631  -1.628   4.988  10.840  0.0835 -0.4547  0.0824
  695MOL0     O91632  -1.750   5.044  10.824 -0.1256  0.2901  0.7591
  695MOL0     C91633  -1.775   5.165  10.890 -0.1967 -0.9468  0.6237
  695MOL0     C91634  -1.702   5.230  10.982  0.1419  0.5806 -0.2614
  695MOL0     C91635  -1.742   5.345  11.050  0.4010  0.3913 -0.7298
  695MOL0     C91636  -1.872   5.391  11.036  0.0107 -0.2968  0.2676
  695MOL0     C91637  -1.918   5.494  11.122 -0.6141  0.0897 -0.0020
  695MOL0     O91638  -2.055   5.494  11.154 -0.1459 -0.7045  0.3596
  695MOL0     C91639  -2.111   5.588  11.230 -0.3307 -0.7126  0.4466
  695MOL0     C91640  -2.044   5.638  11.345 -0.0661 -1.1303 -0.6983
  695MOL0     C91641  -2.102   5.749  11.402 -0.4422  0.4090  1.2850
  695MOL0     C91642  -2.228   5.798  11.363  0.0533  0.7687 -0.0772
  695MOL0     O91643  -2.287   5.904  11.435  0.9293 -0.2082 -0.2424
  695MOL0     C91644  -2.257   6.038  11.388 -0.4576  0.4925 -0.0799
  695MOL0     C91645  -2.321   6.116  11.507  0.6771 -0.3424 -0.7236
  695MOL0     C91646  -2.308   6.264  11.497 -0.8245  0.1738  0.1068
  695MOL0     C91647  -2.389   6.332  11.606  0.2816 -0.3574 -0.2243
  695MOL0     C91648  -2.344   6.477  11.632  0.3843  0.0141 -0.6419
  695MOL0     C91649  -2.342   6.571  11.512 -0.2633  0.1730  0.0238
  695MOL0     C91650  -2.295   6.714  11.535  0.2135 -0.1460 -0.7320
  695MOL0     C91651  -2.303   6.796  11.405  0.4374  0.4049  0.0705
  695MOL0    Cl91652  -2.217   6.946  11.428 -0.2205 -0.3538  0.2277
  695MOL0     C91653  -2.299   5.730  11.259 -0.6208  0.1260 -0.4760
  695MOL0     C91654  -2.239   5.622  11.195 -0.6490 -0.8373 -0.2541
  695MOL0     O91655  -1.828   5.566  11.164 -0.3498 -0.4068  0.0747
  695MOL0     C91656  -1.952   5.329  10.945 -0.2379 -0.2402  0.1657
  695MOL0     C91657  -1.902   5.219  10.872  0.1711  0.4816 -1.0380
  695MOL0     N91658  -1.558   4.504  10.926  0.2226 -0.0558  0.2465
  695MOL0     N91659  -1.437   4.468  10.903  0.1321 -0.5859  0.1506
  695MOL0     C91660  -0.227   4.050  10.618  0.1582  1.1779  0.6099
  695MOL0     C91661  -0.118   3.970  10.645  0.1752  0.7650 -0.2661
  695MOL0     C91662   0.190   3.731  10.869  0.7600 -0.2415 -0.7678
  695MOL0     C91663   0.153   3.602  10.905 -0.1167  0.9029  0.5951
  695MOL0     C91664   0.252   3.511  10.940 -0.0187  0.2974 -0.2622
  695MOL0     C91665   0.392   3.543  10.932  0.2278 -0.3970 -0.3369
  695MOL0     O91666   0.494   3.451  10.950 -0.5761  0.4603 -0.5662
  695MOL0     C91667   0.473   3.313  10.920 -0.2999 -0.4367 -0.7710
  695MOL0     C91668   0.614   3.262  10.913 -0.5441  0.1345 -0.6660
  695MOL0     C91669   0.602   3.112  10.868  0.3254 -0.4028 -0.3511
  695MOL0     C91670   0.742   3.065  10.836 -0.3856  1.1899 -0.5744
  695MOL0     C91671   0.757   2.920  10.872  0.7749 -0.1674  0.6935
  695MOL0     C91672   0.762   2.807  10.910  0.2111 -0.6624  0.6515
  695MOL0     C91673   0.422   3.672  10.898 -0.9632 -0.7921  0.3004
  695MOL0     C91674   0.324   3.762  10.867  1.0109  0.4192  0.8689
  695MOL0     H91675  -0.233   3.802  10.914 -1.9824  0.9069  1.1162
  695MOL0     H91676  -0.435   3.933  10.854 -0.5990 -3.8189 -0.2929
  695MOL0     H91677  -0.542   4.155  10.833  0.3405  1.5846 -0.6391
  695MOL0     H91678  -0.637   4.043  10.724 -1.8871  0.3341  1.1246
  695MOL0     H91679  -0.618   4.272  10.570 -0.9189 -2.3164 -1.6598
  695MOL0     H91680  -0.610   4.339  10.741 -2.3350  3.4865 -2.1010
  695MOL0     H91681  -0.819   4.245  10.785  3.4496 -1.5088  0.6813
  695MOL0     H91682  -0.814   4.129  10.660  2.3087 -0.5452  1.7161
  695MOL0     H91683  -0.797   4.439  10.619  0.1323 -1.6547  3.5949
  695MOL0     H91684  -0.849   4.317  10.493  3.6965  0.2942 -0.1913
  695MOL0     H91685  -1.047   4.263  10.656  4.6492 -0.8542  0.2228
  695MOL0     H91686  -1.055   4.404  10.545 -1.0303 -0.5258  0.1895
  695MOL0     H91687  -0.998   4.562  10.723 -0.8498 -0.1884  2.1266
  695MOL0     H91688  -0.947   4.429  10.830  0.9820  0.4665  0.3055
  695MOL0     H91689  -1.177   4.364  10.847 -0.7985  0.1894 -0.7487
  695MOL0     H91690  -1.143   4.518  10.921 -0.0985 -1.0607  0.8178
  695MOL0     H91691  -1.280   4.491  10.645 -0.4620 -1.0087  0.6363
  695MOL0     H91692  -1.232   4.640  10.706  1.2148 -0.5912 -2.2420
  695MOL0     H91693  -1.473   4.723  10.701  2.1015 -0.5583  0.2065
  695MOL0     H91694  -1.783   4.604  10.884  2.1699 -1.1205  1.0635
  695MOL0     H91695  -1.740   4.723  10.750  1.0678  1.5949  0.8757
  695MOL0     H91696  -1.751   4.750  11.057  2.0829  0.8914  2.0556
  695MOL0     H91697  -1.832   4.847  10.939 -1.3395 -3.0246 -0.5616
  695MOL0     H91698  -1.599   4.941  11.054  3.5918 -0.6794 -0.4555
  695MOL0     H91699  -1.521   4.832  10.962 -2.0799 -3.9564  1.6357
  695MOL0     H91700  -1.601   4.932  10.750  0.2985  1.2777 -0.9950
  695MOL0     H91701  -1.560   5.074  10.842 -2.8681  2.0481  1.1026
  695MOL0     H91702  -1.600   5.198  10.998  0.0096 -0.4294 -1.3154
  695MOL0     H91703  -1.670   5.387  11.120 -0.4530  1.0030 -0.2100
  695MOL0     H91704  -1.947   5.598  11.370  1.8458  1.5757 -3.0957
  695MOL0     H91705  -2.054   5.809  11.479  2.5166 -0.3164  0.1521
  695MOL0     H91706  -2.312   6.056  11.295  1.1152 -0.2889 -1.1960
  695MOL0     H91707  -2.149   6.043  11.374 -0.2113 -3.2287 -0.5145
  695MOL0     H91708  -2.277   6.082  11.601 -1.3055 -0.0043  0.3733
  695MOL0     H91709  -2.429   6.100  11.500  0.3795  1.7887 -1.8033
  695MOL0     H91710  -2.338   6.296  11.396 -0.1925 -0.3308 -0.2495
  695MOL0     H91711  -2.200   6.279  11.498 -0.5874 -1.0368 -1.9219
  695MOL0     H91712  -2.492   6.333  11.571  0.5004  1.9084 -0.9905
  695MOL0     H91713  -2.374   6.276  11.698 -1.7621 -0.4432  0.1058
  695MOL0     H91714  -2.244   6.467  11.675  1.0576 -0.0606 -2.1827
  695MOL0     H91715  -2.399   6.525  11.714  2.0456  1.9941 -0.6212
  695MOL0     H91716  -2.441   6.572  11.466 -0.2893 -3.0820 -0.2324
  695MOL0     H91717  -2.270   6.532  11.440  2.0999  0.8984  1.8686
  695MOL0     H91718  -2.344   6.765  11.619  0.7327  0.4235 -0.7683
  695MOL0     H91719  -2.189   6.709  11.562  0.7632 -1.0835 -2.8837
  695MOL0     H91720  -2.399   6.842  11.380  1.6300  1.5980 -2.8025
  695MOL0     H91721  -2.284   6.730  11.320 -0.4607  0.4037 -0.1422
  695MOL0     H91722  -2.392   5.766  11.216  0.5351 -1.6352 -5.1060
  695MOL0     H91723  -2.269   5.574  11.102 -0.9544 -1.4830  0.1770
  695MOL0     H91724  -2.053   5.359  10.919  0.9580  1.9755 -2.5133
  695MOL0     H91725  -1.968   5.176  10.798 -0.0062  0.1783 -0.7068
  695MOL0     H91726  -0.227   4.113  10.530 -0.5578 -1.8350 -1.7130
  695MOL0     H91727  -0.043   3.948  10.570 -0.7617  0.1952 -1.0607
  695MOL0     H91728   0.047   3.576  10.906 -0.5450  2.5616  0.1353
  695MOL0     H91729   0.225   3.411  10.973  2.3682 -0.4075 -0.2315
  695MOL0     H91730   0.421   3.303  10.825  1.7406  0.3158 -2.0350
  695MOL0     H91731   0.415   3.264  10.999 -1.2616 -0.4548 -1.4754
  695MOL0     H91732   0.676   3.318  10.843 -3.0934 -0.1197 -3.3104
  695MOL0     H91733   0.656   3.272  11.014  0.6990 -0.3743 -1.1164
  695MOL0     H91734   0.533   3.103  10.784 -2.2491 -0.8419  1.6841
  695MOL0     H91735   0.553   3.052  10.946  2.2643  0.2924  1.5183
  695MOL0     H91736   0.754   3.080  10.728 -3.4034  3.1241 -0.7690
  695MOL0     H91737   0.819   3.123  10.889 -1.6644  1.4036  1.1545
  695MOL0     H91738   0.765   2.707  10.948  3.1678 -1.4512 -1.3720
  695MOL0     H91739   0.528   3.691  10.887 -0.8847 -2.1932 -2.2693
  695MOL0     H91740   0.356   3.864  10.849  3.2698 -0.2002  1.1009
  696MOL0     O91741   5.665   0.693   8.198  0.0350  0.0212 -0.2102
  696MOL0     C91742   5.734   0.796   8.160  0.8558  1.0965  0.5390
  696MOL0     O91743   5.689   0.885   8.074 -0.0504 -0.4711 -0.3080
  696MOL0     C91744   5.566   0.869   8.029  0.2760 -0.4441  0.2015
  696MOL0     C91745   5.547   0.844   7.897 -0.4205 -0.8031  0.4873
  696MOL0     C91746   5.421   0.846   7.833  0.3344  0.4283 -1.0711
  696MOL0     C91747   5.308   0.867   7.907 -0.3238 -0.6419  0.3946
  696MOL0     O91748   5.180   0.853   7.857 -0.0769  0.9776  0.2708
  696MOL0     C91749   5.142   0.709   7.862 -0.4970  0.2136  0.2939
  696MOL0     C91750   5.029   0.676   7.766  0.6570 -0.0288 -0.1153
  696MOL0     C91751   4.896   0.737   7.821 -0.1300  0.5457  0.4594
  696MOL0     C91752   4.784   0.652   7.760 -0.4956  1.0125 -0.4398
  696MOL0     C91753   4.643   0.700   7.795 -0.7015 -0.8452  0.7330
  696MOL0     C91754   4.538   0.648   7.692  0.4431 -0.3557  0.6836
  696MOL0     C91755   4.388   0.673   7.737  0.1120  0.1508  0.2301
  696MOL0     C91756   4.346   0.820   7.707  0.9097  0.0249 -0.1374
  696MOL0     N91757   4.208   0.830   7.651  0.1542  0.1591  0.6566
  696MOL0     C91758   4.166   0.910   7.549 -0.9559  0.7455 -0.4262
  696MOL0     C91759   4.034   0.899   7.547  0.4622 -0.5010 -1.0661
  696MOL0     C91760   3.940   0.989   7.462 -0.2851  0.0958  0.4702
  696MOL0     C91761   3.938   0.949   7.313 -1.0692  0.0938  1.1257
  696MOL0     C91762   3.842   1.027   7.225  0.2535  0.7603  0.3517
  696MOL0     C91763   3.697   1.014   7.266  1.3962  0.5205  1.0135
  696MOL0     O91764   3.613   1.089   7.178 -0.3830  0.6866  0.0762
  696MOL0     C91765   3.487   1.053   7.161  0.9262 -0.4317  0.5528
  696MOL0     C91766   3.426   1.086   7.047  0.3444 -0.1682 -0.7644
  696MOL0     C91767   3.291   1.064   7.029 -0.3491  0.0978  0.3859
  696MOL0     C91768   3.202   1.003   7.119  0.0981  0.8205 -0.1707
  696MOL0     C91769   3.064   0.986   7.070  0.3849 -0.2919 -0.7165
  696MOL0     O91770   2.979   0.951   7.177  0.1222  0.0773 -0.3795
  696MOL0     C91771   2.864   1.021   7.191  0.7729 -0.4348  0.2063
  696MOL0     C91772   2.813   1.127   7.102  0.6255 -0.4804 -0.8658
  696MOL0     C91773   2.694   1.197   7.137 -0.2444 -0.4913 -0.5695
  696MOL0     C91774   2.624   1.175   7.257 -0.2825 -0.3112  0.8164
  696MOL0     O91775   2.509   1.242   7.289  0.3936 -0.5614  0.0534
  696MOL0     C91776   2.437   1.217   7.406 -0.3726  0.6063  0.4972
  696MOL0     C91777   2.325   1.316   7.386  0.6034  0.4704  0.1414
  696MOL0     C91778   2.267   1.355   7.533 -0.3565 -0.3404  0.8962
  696MOL0     C91779   2.190   1.495   7.510 -0.7691 -0.7356 -0.1441
  696MOL0     C91780   2.086   1.532   7.626 -0.4014 -0.5080 -0.8008
  696MOL0     C91781   2.061   1.681   7.637 -0.4959  0.5684  0.6971
  696MOL0     C91782   1.978   1.711   7.758  0.2996 -0.4764 -0.1494
  696MOL0     C91783   1.919   1.856   7.747 -0.7223  0.0718 -0.1874
  696MOL0    Cl91784   2.038   1.970   7.692 -0.8205 -0.2806 -0.0501
  696MOL0     C91785   2.678   1.076   7.346  0.4681 -0.2897  0.2950
  696MOL0     C91786   2.793   1.008   7.307 -0.0769 -0.1455 -0.3322
  696MOL0     O91787   3.032   1.012   6.953  0.7094 -0.2811  0.0197
  696MOL0     C91788   3.264   0.973   7.242 -0.5442 -0.5731  0.7536
  696MOL0     C91789   3.405   1.000   7.256 -0.1745 -0.5052 -0.2208
  696MOL0     N91790   4.003   0.812   7.655 -0.1696  0.1961  0.7098
  696MOL0     N91791   4.103   0.784   7.717  0.9018  0.1499 -0.3590
  696MOL0     C91792   5.323   0.898   8.043 -0.1188  0.4960  0.4421
  696MOL0     C91793   5.450   0.887   8.110  0.7923 -0.6426  0.3578
  696MOL0     C91794   5.872   0.804   8.203 -0.2762  0.2789  0.2025
  696MOL0     C91795   5.945   0.706   8.269  0.5102 -0.1024  0.2762
  696MOL0     C91796   6.083   0.720   8.306 -0.4818 -0.6018  0.1366
  696MOL0     C91797   6.142   0.844   8.295  0.4183  0.3678 -0.4975
  696MOL0     O91798   6.269   0.881   8.331  0.2577  0.3384  0.0172
  696MOL0     C91799   6.376   0.781   8.320  0.6530 -0.2336 -0.7220
  696MOL0     C91800   6.462   0.786   8.198 -0.2347 -0.0283  0.4999
  696MOL0     C91801   6.521   0.927   8.172  0.0447 -0.2451 -0.4274
  696MOL0     C91802   6.579   0.988   8.305 -0.5718  0.9018 -0.4242
  696MOL0     C91803   6.668   1.091   8.264  0.4155 -0.0797  0.0216
  696MOL0     C91804   6.737   1.165   8.207  0.1358 -0.5147  0.7436
  696MOL0     C91805   6.056   0.949   8.257 -0.7275  0.1036  0.9499
  696MOL0     C91806   5.927   0.929   8.202  0.1107  0.2048 -0.6260
  696MOL0     H91807   5.633   0.825   7.835 -0.6501  0.0319 -0.1077
  696MOL0     H91808   5.414   0.813   7.730  3.5454  1.1222 -1.6092
  696MOL0     H91809   5.111   0.668   7.958  0.6690  1.8098  1.4128
  696MOL0     H91810   5.233   0.651   7.844 -1.7142 -0.9498 -2.6759
  696MOL0     H91811   5.029   0.570   7.740 -1.6907 -0.5345  1.5211
  696MOL0     H91812   5.056   0.735   7.678 -3.4187  2.2315 -0.0879
  696MOL0     H91813   4.884   0.843   7.797 -0.5835  0.1399 -1.2416
  696MOL0     H91814   4.902   0.714   7.927  1.8088 -4.8061 -0.4989
  696MOL0     H91815   4.782   0.656   7.650 -2.4060 -0.5567 -0.5296
  696MOL0     H91816   4.801   0.549   7.792 -0.6238  0.4297 -2.1420
  696MOL0     H91817   4.642   0.809   7.787 -0.7513 -0.9427 -0.9627
  696MOL0     H91818   4.633   0.666   7.898  1.1005  1.3354  1.7246
  696MOL0     H91819   4.552   0.540   7.698  0.2372 -0.3062  4.6565
  696MOL0     H91820   4.534   0.694   7.592 -1.7279  2.4098  1.8809
  696MOL0     H91821   4.319   0.608   7.682 -0.8297  3.5465 -2.9652
  696MOL0     H91822   4.369   0.662   7.844  0.2537  0.8145  0.3233
  696MOL0     H91823   4.416   0.857   7.632  2.8610 -2.0934  0.4956
  696MOL0     H91824   4.345   0.879   7.799  0.9632 -2.2130  1.3752
  696MOL0     H91825   4.233   0.963   7.483  1.5560 -0.7332  0.7987
  696MOL0     H91826   3.979   1.091   7.467 -0.7828  0.2970  0.3483
  696MOL0     H91827   3.839   0.987   7.504  0.8736 -0.3456  3.5027
  696MOL0     H91828   3.927   0.840   7.314  0.7490 -0.1347  0.4114
  696MOL0     H91829   4.037   0.965   7.268 -1.5061 -2.7002 -1.0857
  696MOL0     H91830   3.869   1.132   7.239 -1.5577  1.0647  1.9671
  696MOL0     H91831   3.860   1.002   7.120  4.0901  3.5702  0.0951
  696MOL0     H91832   3.682   1.059   7.365 -0.9059 -0.0963  1.0015
  696MOL0     H91833   3.667   0.909   7.261  1.6718  0.4867 -0.1004
  696MOL0     H91834   3.479   1.127   6.961  1.5923 -2.5993 -1.2420
  696MOL0     H91835   3.259   1.077   6.926  2.0392 -1.1145 -0.5699
  696MOL0     H91836   2.857   1.164   7.010 -0.5075  1.9691 -0.5085
  696MOL0     H91837   2.641   1.254   7.061 -1.3633 -0.9244 -0.1402
  696MOL0     H91838   2.493   1.236   7.498  1.1766  0.4140 -0.3734
  696MOL0     H91839   2.392   1.117   7.404 -1.5009  1.1086 -1.4396
  696MOL0     H91840   2.242   1.272   7.331  1.5299  1.0287 -1.7834
  696MOL0     H91841   2.355   1.404   7.328  1.3721  0.8870  1.1466
  696MOL0     H91842   2.342   1.362   7.611  0.3327 -1.5658  0.3716
  696MOL0     H91843   2.197   1.277   7.566  0.6162 -0.7044  2.1909
  696MOL0     H91844   2.267   1.572   7.502 -0.5332 -0.6698  2.1581
  696MOL0     H91845   2.137   1.489   7.414 -0.0708 -0.6748 -0.5423
  696MOL0     H91846   2.120   1.495   7.724 -0.9207 -1.9672 -1.1534
  696MOL0     H91847   1.997   1.474   7.601 -1.0015  1.2514 -3.0768
  696MOL0     H91848   2.007   1.716   7.548  1.0854 -2.5283 -1.6684
  696MOL0     H91849   2.160   1.726   7.649 -0.0191 -0.2416 -0.0712
  696MOL0     H91850   1.882   1.660   7.747 -1.2466  2.3380 -0.5427
  696MOL0     H91851   2.031   1.693   7.852  0.9759  2.4862  0.1414
  696MOL0     H91852   1.887   1.893   7.845  0.6999  2.6507 -0.6244
  696MOL0     H91853   1.830   1.859   7.684 -0.2277  0.5434 -0.8666
  696MOL0     H91854   2.630   1.047   7.438 -1.6330  0.0943 -0.6313
  696MOL0     H91855   2.822   0.924   7.371  3.6708 -0.5682 -2.2944
  696MOL0     H91856   3.203   0.930   7.321  0.2377 -0.5073  1.4084
  696MOL0     H91857   3.448   0.967   7.349  1.1827  1.0506 -0.2488
  696MOL0     H91858   5.229   0.907   8.097 -1.7434 -1.0466 -1.9311
  696MOL0     H91859   5.452   0.899   8.218  3.3939 -2.8606  0.6676
  696MOL0     H91860   5.901   0.607   8.274  0.4927 -0.3139 -2.3058
  696MOL0     H91861   6.146   0.639   8.343 -0.5552 -1.1731 -0.9743
  696MOL0     H91862   6.336   0.679   8.329 -0.3598  0.2880  1.2614
  696MOL0     H91863   6.437   0.794   8.409  1.8514 -1.7691 -1.2688
  696MOL0     H91864   6.547   0.722   8.224  0.0786 -0.0459 -0.5079
  696MOL0     H91865   6.404   0.755   8.111  2.2831  2.0195 -2.0889
  696MOL0     H91866   6.433   0.986   8.145 -0.2928  0.3796  1.7893
  696MOL0     H91867   6.592   0.935   8.090  0.9067  5.3900  0.4568
  696MOL0     H91868   6.498   1.040   8.356  2.4805  3.8941  1.8269
  696MOL0     H91869   6.633   0.920   8.373  1.4356  2.7936 -0.0123
  696MOL0     H91870   6.784   1.245   8.153 -3.4162  0.1755 -1.6411
  696MOL0     H91871   6.095   1.050   8.267 -0.8081  0.1521  0.7807
  696MOL0     H91872   5.872   1.022   8.189 -1.2372 -0.3977  0.5321
  697MOL0     O91873   6.528   4.744   1.263  0.4228 -0.8499 -0.1089
  697MOL0     C91874   6.548   4.625   1.268  0.3426  0.1932 -0.8902
  697MOL0     O91875   6.460   4.523   1.302 -0.8215 -0.2538  0.2098
  697MOL0     C91876   6.340   4.566   1.350  0.4785 -0.0164 -0.4211
  697MOL0     C91877   6.308   4.604   1.479  0.1334 -0.3811  0.1201
  697MOL0     C91878   6.182   4.629   1.521  0.6211  0.8271  0.1450
  697MOL0     C91879   6.077   4.596   1.433 -0.1898 -0.1083 -0.1079
  697MOL0     O91880   5.952   4.631   1.480 -0.2748  0.5782 -0.2451
  697MOL0     C91881   5.867   4.688   1.382  0.6247  0.2383  0.3097
  697MOL0     C91882   5.732   4.610   1.368 -0.0014 -0.3364  0.4548
  697MOL0     C91883   5.626   4.700   1.297  0.5859 -0.1903 -0.5647
  697MOL0     C91884   5.488   4.638   1.259  0.7673  0.0058  0.4404
  697MOL0     C91885   5.433   4.528   1.362 -0.2640 -0.2405  0.0406
  697MOL0     C91886   5.293   4.484   1.319 -0.1149 -0.2970  0.1412
  697MOL0     C91887   5.180   4.588   1.347 -0.2070  0.0490  0.1009
  697MOL0     C91888   5.128   4.596   1.492  0.4008 -0.6459 -0.8422
  697MOL0     N91889   5.002   4.672   1.492  0.2058  0.3838  0.2966
  697MOL0     C91890   4.876   4.621   1.480 -0.3365  0.9622 -0.8071
  697MOL0     C91891   4.793   4.719   1.512  2.1167 -0.2290 -0.4697
  697MOL0     C91892   4.646   4.717   1.496  0.5712 -1.0209  0.0295
  697MOL0     C91893   4.594   4.825   1.399 -0.4155 -0.0866  0.3270
  697MOL0     C91894   4.443   4.814   1.397  0.5991 -0.9833 -0.1413
  697MOL0     C91895   4.371   4.947   1.412  0.6043  0.0757 -0.8496
  697MOL0     O91896   4.233   4.922   1.388 -0.7561 -0.4758  0.5098
  697MOL0     C91897   4.148   5.031   1.390  0.5865  0.9480 -0.1951
  697MOL0     C91898   4.015   4.991   1.384  0.8072  0.0039 -0.9362
  697MOL0     C91899   3.914   5.082   1.383 -0.5395 -0.2434 -0.4684
  697MOL0     C91900   3.941   5.216   1.379  1.2913  0.4404  0.2494
  697MOL0     C91901   3.826   5.316   1.380  0.2307  0.6669  0.2004
  697MOL0     O91902   3.695   5.269   1.378 -0.0134 -0.0833 -0.4201
  697MOL0     C91903   3.586   5.346   1.382 -0.5475  0.3710  0.3996
  697MOL0     C91904   3.573   5.469   1.441 -0.5598 -0.2848 -0.1252
  697MOL0     C91905   3.464   5.551   1.430 -0.5190  0.0909 -0.2039
  697MOL0     C91906   3.349   5.499   1.373 -0.1245  0.1417  0.2132
  697MOL0     O91907   3.226   5.564   1.372  0.5908 -0.0846  0.2891
  697MOL0     C91908   3.202   5.698   1.430 -0.0803  0.2847  0.2560
  697MOL0     C91909   3.057   5.725   1.436 -0.5033  0.5252 -0.2171
  697MOL0     C91910   3.003   5.731   1.295  1.1274  0.3597  0.1310
  697MOL0     C91911   2.848   5.745   1.309  1.0812 -0.1967 -0.2911
  697MOL0     C91912   2.786   5.757   1.168  0.5684  0.1666  0.3630
  697MOL0     C91913   2.818   5.638   1.077  0.4532  0.8879  0.7765
  697MOL0     C91914   2.739   5.634   0.952  0.9919  0.2455 -0.5469
  697MOL0     C91915   2.584   5.618   0.966 -0.2767  0.3428  0.9036
  697MOL0    Cl91916   2.523   5.574   0.804 -0.6748 -0.1812 -0.1497
  697MOL0     C91917   3.358   5.366   1.323  1.4082 -0.0421 -0.0757
  697MOL0     C91918   3.470   5.287   1.319  0.4899 -0.5186 -0.1214
  697MOL0     O91919   3.861   5.432   1.389 -0.8680  0.6482  0.6626
  697MOL0     C91920   4.074   5.256   1.385 -0.5775 -0.0576 -0.4449
  697MOL0     C91921   4.183   5.161   1.380  0.4048 -0.5681  0.8706
  697MOL0     N91922   4.870   4.828   1.558  0.1988 -0.5910  0.4191
  697MOL0     N91923   4.998   4.803   1.542  0.2842 -0.3646  0.2986
  697MOL0     C91924   6.101   4.537   1.310 -0.1806  0.0705  0.5695
  697MOL0     C91925   6.233   4.535   1.268 -0.1374 -0.7224 -0.5050
  697MOL0     C91926   6.683   4.589   1.222  0.3062 -0.8255 -0.4822
  697MOL0     C91927   6.717   4.449   1.207 -1.4486 -0.3007 -0.3657
  697MOL0     C91928   6.845   4.426   1.158 -0.2921  0.1614 -0.9313
  697MOL0     C91929   6.938   4.524   1.146  0.2021 -0.4228 -0.4415
  697MOL0     O91930   7.058   4.476   1.103  0.3451 -0.5524  0.1486
  697MOL0     C91931   7.171   4.572   1.088 -0.0059 -0.3626 -0.5643
  697MOL0     C91932   7.162   4.623   0.940 -0.1443 -0.0202 -0.4558
  697MOL0     C91933   7.257   4.745   0.910 -0.0720  0.5212  0.0663
  697MOL0     C91934   7.402   4.702   0.940 -0.5799 -0.4307 -0.0856
  697MOL0     C91935   7.482   4.808   0.886 -0.2070  0.6029 -0.0960
  697MOL0     C91936   7.573   4.887   0.853  0.1722  0.2660 -0.0421
  697MOL0     C91937   6.906   4.657   1.160  0.4012 -0.5908 -0.6498
  697MOL0     C91938   6.776   4.692   1.192  0.0834 -0.4458 -1.0821
  697MOL0     H91939   6.394   4.616   1.544  1.7736 -0.4569 -1.9329
  697MOL0     H91940   6.170   4.677   1.618  1.5502  1.0452  0.1568
  697MOL0     H91941   5.923   4.708   1.291  1.3921  2.9788  1.2940
  697MOL0     H91942   5.838   4.788   1.416 -1.9906  0.5262 -2.3517
  697MOL0     H91943   5.692   4.575   1.464 -1.1500 -1.0269 -0.2505
  697MOL0     H91944   5.748   4.527   1.298 -2.2650  0.6016 -1.2849
  697MOL0     H91945   5.665   4.751   1.208 -1.9965  1.0436 -1.1122
  697MOL0     H91946   5.604   4.786   1.361  2.5416 -0.3255  0.3529
  697MOL0     H91947   5.419   4.720   1.237  0.1603 -0.5362  0.2904
  697MOL0     H91948   5.496   4.581   1.166 -0.8058 -0.5507  0.6040
  697MOL0     H91949   5.429   4.574   1.461  1.5161 -0.6605  0.3566
  697MOL0     H91950   5.502   4.444   1.357 -2.2508 -1.9261 -0.1908
  697MOL0     H91951   5.270   4.390   1.369  1.1557 -0.0290  1.2928
  697MOL0     H91952   5.291   4.463   1.212  2.2302  0.0030 -0.0262
  697MOL0     H91953   5.203   4.688   1.308  1.6355  0.3629  1.7901
  697MOL0     H91954   5.103   4.547   1.281 -0.8155 -1.3984  1.6461
  697MOL0     H91955   5.192   4.647   1.565 -0.7924 -0.5415  0.1629
  697MOL0     H91956   5.102   4.497   1.531 -1.4002  0.2584  0.3853
  697MOL0     H91957   4.848   4.529   1.431 -2.1754  0.2114  1.4527
  697MOL0     H91958   4.608   4.746   1.594  0.8219 -0.8713  0.0827
  697MOL0     H91959   4.600   4.621   1.470 -0.6892 -0.6749  0.8823
  697MOL0     H91960   4.625   4.823   1.295  0.2099  1.6414  0.4425
  697MOL0     H91961   4.622   4.926   1.431  0.1018 -0.2440  0.3686
  697MOL0     H91962   4.408   4.783   1.298 -3.0487 -1.8955  1.2755
  697MOL0     H91963   4.407   4.745   1.474 -0.3270 -2.4546 -1.8280
  697MOL0     H91964   4.412   5.020   1.342  0.3147 -0.2505 -1.3650
  697MOL0     H91965   4.377   4.986   1.514 -0.9080 -0.6806 -0.4463
  697MOL0     H91966   3.997   4.884   1.389 -1.7814  0.4279  2.1718
  697MOL0     H91967   3.815   5.039   1.370  0.4667 -2.7267 -0.3700
  697MOL0     H91968   3.661   5.502   1.496  0.5644  0.3437 -2.1883
  697MOL0     H91969   3.460   5.652   1.470  2.0149  0.3486 -0.4751
  697MOL0     H91970   3.249   5.781   1.376  0.6095 -0.4784 -0.3296
  697MOL0     H91971   3.246   5.695   1.530  0.6591  0.9769 -0.0318
  697MOL0     H91972   3.048   5.823   1.484 -0.2260  1.2004 -1.5147
  697MOL0     H91973   3.008   5.640   1.485  1.3171 -0.1663  0.5020
  697MOL0     H91974   3.039   5.647   1.235 -0.4519  1.0162 -1.8553
  697MOL0     H91975   3.041   5.820   1.245 -0.7835  1.0069 -0.2361
  697MOL0     H91976   2.802   5.669   1.373  3.3657 -2.8105 -1.5315
  697MOL0     H91977   2.840   5.842   1.359  3.8561  0.2609 -0.5755
  697MOL0     H91978   2.822   5.851   1.124 -0.0408  0.3072  0.1502
  697MOL0     H91979   2.678   5.763   1.184  0.5721  2.9887 -0.0890
  697MOL0     H91980   2.796   5.554   1.144 -1.8349  2.5488  2.2678
  697MOL0     H91981   2.925   5.637   1.058  0.2918 -0.1839 -0.2295
  697MOL0     H91982   2.765   5.721   0.890 -1.1961  1.5357  0.1977
  697MOL0     H91983   2.772   5.544   0.900  0.7730 -0.7893  1.0414
  697MOL0     H91984   2.535   5.712   0.991  3.4962  2.3337  1.6920
  697MOL0     H91985   2.568   5.534   1.033  2.7855 -1.4862 -0.4352
  697MOL0     H91986   3.268   5.327   1.275  1.4913  0.0465 -0.3011
  697MOL0     H91987   3.482   5.188   1.276 -0.0283  0.0592 -1.6741
  697MOL0     H91988   4.093   5.363   1.382 -0.0382 -0.1451 -0.3279
  697MOL0     H91989   4.287   5.191   1.389 -0.0471  1.7737 -0.8589
  697MOL0     H91990   6.014   4.509   1.252  0.8876  1.3037 -1.7511
  697MOL0     H91991   6.266   4.484   1.178 -1.1622 -1.5187 -0.4359
  697MOL0     H91992   6.652   4.363   1.213 -1.2857 -0.4511 -0.7046
  697MOL0     H91993   6.879   4.324   1.141 -0.9185 -0.1233 -0.5468
  697MOL0     H91994   7.266   4.519   1.099 -0.7978 -2.0729 -1.5490
  697MOL0     H91995   7.155   4.657   1.155 -1.3846 -0.6691 -0.4728
  697MOL0     H91996   7.174   4.542   0.867 -1.1124  0.6704 -1.4223
  697MOL0     H91997   7.062   4.661   0.922  0.6489  1.5948 -1.7303
  697MOL0     H91998   7.228   4.826   0.978 -0.9036  1.9041 -1.8371
  697MOL0     H91999   7.249   4.779   0.806  2.2094  2.3957  0.4156
  697MOL0     H92000   7.419   4.684   1.047  0.9219 -2.1172 -0.5504
  697MOL0     H92001   7.427   4.610   0.886 -1.5140 -1.5246  1.2824
  697MOL0     H92002   7.653   4.958   0.845 -0.6655  1.1422 -0.8660
  697MOL0     H92003   6.981   4.734   1.142  3.1838 -3.2584 -1.2303
  697MOL0     H92004   6.756   4.799   1.199  1.6860 -0.2461  2.1914
  698MOL0     O92005   1.943  10.837   3.180  0.3213 -0.3086 -0.2559
  698MOL0     C92006   1.947  10.928   3.100  1.5851  0.6501  0.1615
  698MOL0     O92007   1.904  11.054   3.125 -0.1965 -0.9023 -0.2521
  698MOL0     C92008   1.814  11.077   3.225  0.8892  0.6768  0.1631
  698MOL0     C92009   1.681  11.012   3.230 -0.0971  0.3768 -0.5706
  698MOL0     C92010   1.593  11.058   3.317  0.5464  0.4695 -0.3936
  698MOL0     C92011   1.610  11.175   3.392  0.2843  0.3901  0.4242
  698MOL0     O92012   1.503  11.233   3.456 -0.3283  0.6526 -0.4705
  698MOL0     C92013   1.401  11.286   3.374  0.6637 -0.2822 -0.2937
  698MOL0     C92014   1.327  11.412   3.454  0.0763  0.2154  0.3789
  698MOL0     C92015   1.273  11.360   3.593 -0.2089 -0.2839  0.2954
  698MOL0     C92016   1.144  11.426   3.638  0.3418 -0.8166 -0.3595
  698MOL0     C92017   1.014  11.383   3.570 -0.0229  0.9098  0.6064
  698MOL0     C92018   0.898  11.459   3.622 -0.5014 -0.0458  0.7939
  698MOL0     C92019   0.779  11.422   3.526  0.7396 -0.3530 -0.0280
  698MOL0     C92020   0.680  11.533   3.524  0.5678 -0.1815  0.2171
  698MOL0     N92021   0.631  11.572   3.661 -0.1556  1.1084  0.4429
  698MOL0     C92022   0.510  11.544   3.716 -0.1975 -0.0413  0.3116
  698MOL0     C92023   0.505  11.607   3.840  0.6810  0.0235  0.4939
  698MOL0     C92024   0.398  11.593   3.945 -0.3534 -0.0549 -0.1764
  698MOL0     C92025   0.263  11.645   3.902 -0.1222  0.3087 -0.3632
  698MOL0     C92026   0.157  11.593   3.997 -0.3524  0.9257 -0.4590
  698MOL0     C92027   0.014  11.615   3.938  0.7878 -0.6783 -0.4336
  698MOL0     O92028  -0.091  11.543   3.998 -0.1199  0.2833  0.2191
  698MOL0     C92029  -0.221  11.565   3.958  1.2926  0.1524  0.4077
  698MOL0     C92030  -0.261  11.642   3.851  0.1181 -0.1218 -0.8652
  698MOL0     C92031  -0.395  11.646   3.815  0.8247  0.4700 -0.6350
  698MOL0     C92032  -0.494  11.573   3.890 -0.9013  1.1151 -0.1669
  698MOL0     C92033  -0.637  11.588   3.848 -0.9788  0.5981  0.7639
  698MOL0     O92034  -0.718  11.490   3.860 -0.4580 -0.3809 -0.1202
  698MOL0     C92035  -0.850  11.514   3.877  0.1087  0.1009  0.5191
  698MOL0     C92036  -0.909  11.627   3.947  0.0354 -0.1186  0.0468
  698MOL0     C92037  -1.048  11.635   3.949 -0.2834  0.2065  0.2012
  698MOL0     C92038  -1.130  11.535   3.895  0.7286 -0.2419  0.6195
  698MOL0     O92039  -1.265  11.538   3.906 -0.3924  0.6298  0.2031
  698MOL0     C92040  -1.309  11.582   4.035  0.0860  0.3863 -0.8852
  698MOL0     C92041  -1.455  11.569   4.048 -0.2150  0.5144  0.4063
  698MOL0     C92042  -1.495  11.572   4.193  0.5246  0.0110 -0.8313
  698MOL0     C92043  -1.648  11.553   4.210  0.4822 -0.5411 -0.1680
  698MOL0     C92044  -1.681  11.576   4.361  1.5839 -0.5723  0.8146
  698MOL0     C92045  -1.833  11.540   4.386  0.1990 -0.6209  0.1161
  698MOL0     C92046  -1.873  11.595   4.525  0.1158 -0.4579  0.8354
  698MOL0     C92047  -2.016  11.596   4.544  0.1994 -0.6970 -0.0650
  698MOL0    Cl92048  -2.078  11.436   4.590 -0.2639 -0.1302  0.4721
  698MOL0     C92049  -1.073  11.434   3.827 -0.4397 -0.1674 -0.4049
  698MOL0     C92050  -0.938  11.418   3.820 -1.0299  0.1469  0.2138
  698MOL0     O92051  -0.657  11.701   3.811  0.4345 -1.0390 -0.6862
  698MOL0     C92052  -0.449  11.485   3.993 -0.0226 -0.7741 -0.2026
  698MOL0     C92053  -0.311  11.484   4.025  0.2728  0.0257 -0.0579
  698MOL0     N92054   0.621  11.676   3.855 -0.1493 -0.0520  1.0645
  698MOL0     N92055   0.695  11.655   3.753  0.2193 -0.6712  0.2205
  698MOL0     C92056   1.739  11.215   3.414  0.2349 -0.1517  0.1973
  698MOL0     C92057   1.837  11.173   3.325 -0.0309  0.5947  0.0535
  698MOL0     C92058   1.983  10.892   2.957  0.5776  0.3287  0.0842
  698MOL0     C92059   2.065  10.785   2.920  0.0145  0.4034 -0.0241
  698MOL0     C92060   2.117  10.767   2.786  0.0679  0.6275  1.1073
  698MOL0     C92061   2.067  10.850   2.687  0.8176  0.5895 -0.2658
  698MOL0     O92062   2.102  10.837   2.555  0.3941 -0.5379 -0.1137
  698MOL0     C92063   2.160  10.706   2.510 -0.0703  0.0035  0.5181
  698MOL0     C92064   2.088  10.661   2.377  0.2322  0.0023  0.4967
  698MOL0     C92065   2.110  10.512   2.323 -0.5539  0.5890 -0.3169
  698MOL0     C92066   2.193  10.490   2.192  0.1353  0.1333 -0.6085
  698MOL0     C92067   2.328  10.551   2.179  0.1702  0.4446  0.1382
  698MOL0     C92068   2.432  10.608   2.162 -0.9421 -0.4064 -0.0024
  698MOL0     C92069   1.981  10.955   2.727  0.1037 -0.2092  0.1557
  698MOL0     C92070   1.942  10.977   2.851  0.4776  0.6979  0.6915
  698MOL0     H92071   1.660  10.929   3.163  1.7339 -1.2780  0.7948
  698MOL0     H92072   1.495  11.010   3.314  0.9949 -0.6644  1.4387
  698MOL0     H92073   1.332  11.210   3.337 -0.1665  0.6249 -0.6700
  698MOL0     H92074   1.443  11.335   3.285  0.6200 -2.3082 -1.4887
  698MOL0     H92075   1.242  11.456   3.403 -2.4352 -1.5893  2.7064
  698MOL0     H92076   1.390  11.501   3.464  2.0765 -0.5984 -3.3150
  698MOL0     H92077   1.350  11.392   3.664  0.7868  3.3165 -2.0976
  698MOL0     H92078   1.265  11.251   3.588  1.0535 -0.4232  0.8937
  698MOL0     H92079   1.139  11.416   3.747 -3.2505 -0.3438 -0.3608
  698MOL0     H92080   1.148  11.534   3.619 -2.0995 -0.7853 -1.1089
  698MOL0     H92081   0.988  11.277   3.575  1.6131  0.4223 -0.2478
  698MOL0     H92082   1.028  11.405   3.463  0.4784  0.4051  0.5627
  698MOL0     H92083   0.919  11.567   3.618 -2.0944  0.2657  0.0936
  698MOL0     H92084   0.873  11.434   3.725  0.1916  1.6177  1.3964
  698MOL0     H92085   0.799  11.416   3.418  0.9346 -0.2775  0.0031
  698MOL0     H92086   0.724  11.331   3.553 -2.9843  1.2807 -1.4333
  698MOL0     H92087   0.595  11.507   3.462  2.2784 -2.9107 -1.1953
  698MOL0     H92088   0.712  11.626   3.477 -2.1483  0.6148 -0.1908
  698MOL0     H92089   0.444  11.475   3.665  1.3463 -1.7010  0.4485
  698MOL0     H92090   0.418  11.654   4.033 -1.8214  1.0351 -0.5626
  698MOL0     H92091   0.390  11.487   3.971 -0.4496 -0.0964 -0.3724
  698MOL0     H92092   0.235  11.605   3.804 -2.1311  0.0323  0.2572
  698MOL0     H92093   0.252  11.753   3.894  0.8420  0.6834  2.3418
  698MOL0     H92094   0.162  11.484   4.005 -1.3052  1.0003  2.0647
  698MOL0     H92095   0.162  11.624   4.101 -0.1466 -3.4629  1.0409
  698MOL0     H92096   0.012  11.583   3.834 -1.0580 -0.4649 -0.4967
  698MOL0     H92097   0.004  11.724   3.942 -0.0736 -0.7801  1.3252
  698MOL0     H92098  -0.191  11.709   3.802  0.6981 -1.3657 -1.7834
  698MOL0     H92099  -0.429  11.703   3.729  0.6346 -0.7278 -1.3687
  698MOL0     H92100  -0.852  11.709   3.989 -0.0295 -0.4056  0.7123
  698MOL0     H92101  -1.090  11.731   3.976 -1.0247 -0.2476  0.7036
  698MOL0     H92102  -1.289  11.685   4.067 -0.4601  0.4725 -0.8114
  698MOL0     H92103  -1.266  11.517   4.111 -2.4841  1.0005  1.2562
  698MOL0     H92104  -1.480  11.468   4.012  0.6999 -0.1147  1.4591
  698MOL0     H92105  -1.513  11.642   3.991 -1.9081 -2.2955 -1.7590
  698MOL0     H92106  -1.466  11.670   4.233  0.9971  0.8191 -2.9669
  698MOL0     H92107  -1.454  11.489   4.251  0.1141 -0.8738 -1.7834
  698MOL0     H92108  -1.703  11.629   4.154 -1.4249 -0.2627  1.9066
  698MOL0     H92109  -1.684  11.453   4.182  1.1578 -0.7788 -0.2121
  698MOL0     H92110  -1.669  11.682   4.385 -1.9450  0.1963 -0.2020
  698MOL0     H92111  -1.616  11.524   4.432 -0.1959 -1.1308  2.1246
  698MOL0     H92112  -1.851  11.432   4.382  1.3605 -0.8906  1.5063
  698MOL0     H92113  -1.879  11.602   4.309 -1.8848 -0.0593  1.7094
  698MOL0     H92114  -1.824  11.525   4.593  0.5915 -0.0639  0.9009
  698MOL0     H92115  -1.836  11.695   4.552 -1.0673  0.0125  0.7803
  698MOL0     H92116  -2.069  11.649   4.464  1.3904 -0.4379 -0.6994
  698MOL0     H92117  -2.035  11.653   4.635 -1.5018 -0.4061 -0.5570
  698MOL0     H92118  -1.132  11.351   3.791 -0.8019  0.2473 -0.7811
  698MOL0     H92119  -0.888  11.328   3.784  2.2715  0.9990  2.2597
  698MOL0     H92120  -0.511  11.404   4.029  0.2352 -0.0233  2.1047
  698MOL0     H92121  -0.264  11.415   4.095 -2.2657 -2.4340 -0.6230
  698MOL0     H92122   1.755  11.294   3.486 -1.2000  0.4318 -0.0956
  698MOL0     H92123   1.932  11.225   3.326  1.1006 -1.3889  1.1321
  698MOL0     H92124   2.086  10.704   2.990  0.9689  0.2284 -0.4937
  698MOL0     H92125   2.187  10.685   2.784 -0.4637  0.1801  0.6049
  698MOL0     H92126   2.135  10.624   2.577  1.0885 -0.8648 -0.0842
  698MOL0     H92127   2.269  10.706   2.503 -0.1159 -1.7178 -0.9591
  698MOL0     H92128   1.981  10.674   2.396  0.6253 -0.5706  3.6397
  698MOL0     H92129   2.115  10.725   2.292 -1.4963 -1.4874 -1.2746
  698MOL0     H92130   2.017  10.455   2.318 -0.7553  0.9828 -1.3963
  698MOL0     H92131   2.173  10.472   2.403  1.7249  0.0983 -2.2405
  698MOL0     H92132   2.201  10.381   2.188  0.5723  0.0751  0.9789
  698MOL0     H92133   2.128  10.519   2.109  1.3385 -1.0120 -2.0237
  698MOL0     H92134   2.527  10.656   2.149  0.6033 -2.9329  1.0724
  698MOL0     H92135   1.942  11.019   2.649  3.0868  1.6279  0.0231
  698MOL0     H92136   1.882  11.065   2.870  2.5762  1.9356  1.9888
  699MOL0     O92137   9.141   9.273  10.547 -0.0205 -0.0831  0.1624
  699MOL0     C92138   9.156   9.155  10.536 -0.2927  0.6028 -0.0861
  699MOL0     O92139   9.059   9.064  10.522  0.0772  0.0538 -0.8309
  699MOL0     C92140   8.927   9.112  10.538 -0.4263  0.0902  0.1907
  699MOL0     C92141   8.831   9.098  10.442 -0.6918  0.6748  0.9023
  699MOL0     C92142   8.699   9.151  10.459 -0.8352  0.4583  0.0300
  699MOL0     C92143   8.669   9.214  10.576  0.5662 -0.5845 -0.7456
  699MOL0     O92144   8.539   9.256  10.611 -0.4858 -1.1425  0.7628
  699MOL0     C92145   8.427   9.194  10.562 -0.1894 -0.1646 -0.8115
  699MOL0     C92146   8.371   9.113  10.681 -0.3537 -0.4640 -0.1435
  699MOL0     C92147   8.244   9.052  10.636  1.0927  0.3811 -0.5283
  699MOL0     C92148   8.171   8.967  10.737  0.4913  0.0915  0.3987
  699MOL0     C92149   8.044   8.915  10.678  0.7012  0.0475  0.8801
  699MOL0     C92150   7.954   8.823  10.764 -1.1740 -0.2458 -0.4926
  699MOL0     C92151   7.813   8.800  10.708  0.3074 -0.2778 -0.3599
  699MOL0     C92152   7.735   8.692  10.776  0.3987  0.6848 -0.1169
  699MOL0     N92153   7.598   8.708  10.809 -0.0736 -0.2081 -0.2589
  699MOL0     C92154   7.553   8.796  10.903 -0.0834 -0.7507  0.2426
  699MOL0     C92155   7.417   8.770  10.905 -0.4662 -0.1932 -0.3975
  699MOL0     C92156   7.316   8.842  10.985  0.3380 -0.2939 -0.0243
  699MOL0     C92157   7.215   8.927  10.910 -0.8198  0.0677 -0.0819
  699MOL0     C92158   7.106   8.841  10.856  0.3194  0.1290 -0.6133
  699MOL0     C92159   7.022   8.915  10.755  0.1829  0.1039 -0.3007
  699MOL0     O92160   6.922   8.824  10.703 -0.4352  0.6052 -0.1117
  699MOL0     C92161   6.814   8.866  10.639  0.3248 -0.0869 -0.3191
  699MOL0     C92162   6.698   8.780  10.628 -0.4371 -0.6031 -0.6396
  699MOL0     C92163   6.589   8.827  10.557 -0.4523 -0.2202 -0.5206
  699MOL0     C92164   6.588   8.947  10.485 -0.2534  0.6671 -0.9464
  699MOL0     C92165   6.463   8.985  10.426  0.6711  0.3378 -0.2382
  699MOL0     O92166   6.367   8.878  10.395 -0.1004  0.2207 -0.8117
  699MOL0     C92167   6.244   8.910  10.353  0.3726  1.1801  0.8311
  699MOL0     C92168   6.167   9.024  10.362  1.1472 -0.1021 -0.0775
  699MOL0     C92169   6.034   9.022  10.315  0.4092  0.4572 -0.6959
  699MOL0     C92170   5.976   8.919  10.251  0.4796 -0.2074 -0.7892
  699MOL0     O92171   5.847   8.941  10.203 -0.0830 -0.5629 -0.2920
  699MOL0     C92172   5.752   8.847  10.253  0.2569  0.8569 -0.4620
  699MOL0     C92173   5.625   8.895  10.174  0.2086  0.4230 -1.0461
  699MOL0     C92174   5.569   9.025  10.220 -0.1083 -0.5833 -1.6554
  699MOL0     C92175   5.464   9.084  10.129 -0.2694 -0.4471 -0.6201
  699MOL0     C92176   5.344   8.993  10.124  0.0692 -0.1236 -0.3680
  699MOL0     C92177   5.232   9.070  10.057  0.5034  0.3269  1.0417
  699MOL0     C92178   5.114   8.973  10.022  0.3381 -0.4302 -0.0879
  699MOL0     C92179   5.017   9.044   9.931  0.1465 -0.6152  0.9091
  699MOL0    Cl92180   4.857   8.961   9.968 -0.6470 -0.4488  0.1749
  699MOL0     C92181   6.053   8.809  10.231  0.4504  0.1705  0.3613
  699MOL0     C92182   6.187   8.805  10.266  0.3024 -0.4346  0.0494
  699MOL0     O92183   6.456   9.099  10.383 -0.7624 -0.2726  1.0526
  699MOL0     C92184   6.707   9.033  10.497  0.4875 -0.2583 -1.1422
  699MOL0     C92185   6.822   8.995  10.569 -0.2564 -0.2528  0.8036
  699MOL0     N92186   7.387   8.665  10.823  0.3423 -0.1465 -0.2600
  699MOL0     N92187   7.496   8.634  10.762  0.2977 -0.0370  0.8568
  699MOL0     C92188   8.762   9.232  10.680 -0.3390 -0.2776  0.5851
  699MOL0     C92189   8.891   9.187  10.657  0.1680  0.7239  0.5470
  699MOL0     C92190   9.299   9.119  10.517 -0.5823  0.3759 -0.2962
  699MOL0     C92191   9.341   8.996  10.464 -0.1695 -0.0177  1.0989
  699MOL0     C92192   9.474   8.958  10.449 -0.0656  0.6271 -0.4315
  699MOL0     C92193   9.576   9.046  10.488 -0.1338  0.4545  0.5734
  699MOL0     O92194   9.709   9.017  10.468  0.0972 -0.1361  0.9931
  699MOL0     C92195   9.753   8.934  10.570  0.2100  0.0515 -0.7044
  699MOL0     C92196   9.835   9.021  10.677 -0.3581 -0.3042  0.7179
  699MOL0     C92197   9.935   8.935  10.753  0.2563  0.4579 -0.2231
  699MOL0     C92198  10.019   9.007  10.861 -0.7921 -1.3814 -0.9325
  699MOL0     C92199  10.114   9.103  10.808 -0.5776 -0.3093  0.3754
  699MOL0     C92200  10.204   9.170  10.761  0.6181  0.2011  0.0192
  699MOL0     C92201   9.540   9.161  10.554  0.7661  0.2165  0.2089
  699MOL0     C92202   9.406   9.192  10.567 -0.4362  0.3559 -0.2849
  699MOL0     H92203   8.857   9.028  10.363  0.9663  0.8225  1.2896
  699MOL0     H92204   8.620   9.127  10.389 -0.1176 -0.6925 -0.4288
  699MOL0     H92205   8.448   9.128  10.477  0.1123 -0.4283 -0.5285
  699MOL0     H92206   8.354   9.273  10.540  0.6256  0.3001 -1.9412
  699MOL0     H92207   8.347   9.169  10.771  2.1544 -1.0240  0.9702
  699MOL0     H92208   8.449   9.036  10.692  0.0673 -0.1591 -0.8677
  699MOL0     H92209   8.256   8.977  10.557 -0.4419  0.8109 -1.2045
  699MOL0     H92210   8.173   9.128  10.602  0.1739  0.1978  0.8963
  699MOL0     H92211   8.239   8.891  10.778  0.0010 -0.0687  0.9275
  699MOL0     H92212   8.135   9.022  10.824 -0.4653 -0.3505  0.2964
  699MOL0     H92213   8.068   8.855  10.590 -0.7439 -0.3367  0.7156
  699MOL0     H92214   7.979   9.000  10.658 -1.7488 -1.5702  1.4837
  699MOL0     H92215   7.954   8.860  10.866  0.4224  0.6905 -0.7973
  699MOL0     H92216   8.016   8.732  10.772 -0.8171 -0.0387 -0.8547
  699MOL0     H92217   7.771   8.900  10.725  2.8146  1.4761 -3.4408
  699MOL0     H92218   7.816   8.784  10.600  1.9058  0.1368 -0.4074
  699MOL0     H92219   7.792   8.670  10.867 -0.2990  1.4750  0.5297
  699MOL0     H92220   7.740   8.601  10.715  0.9970  1.7963 -1.8166
  699MOL0     H92221   7.610   8.877  10.948 -3.0505  1.2412  0.6977
  699MOL0     H92222   7.366   8.912  11.053 -0.7763  1.0877 -0.5967
  699MOL0     H92223   7.270   8.768  11.051  0.7539  1.7258  2.6946
  699MOL0     H92224   7.254   8.978  10.822  1.9812 -3.7881 -1.3713
  699MOL0     H92225   7.182   9.000  10.984 -0.6957  0.6318 -0.5716
  699MOL0     H92226   7.147   8.747  10.819  1.8292  0.0913  1.0322
  699MOL0     H92227   7.047   8.819  10.946  2.6628  0.6301  1.1347
  699MOL0     H92228   7.088   8.953  10.676  0.8128  1.4193  0.8082
  699MOL0     H92229   6.980   9.010  10.790  1.0423  1.0146 -1.6221
  699MOL0     H92230   6.711   8.675  10.650  0.1435 -0.6937 -1.3616
  699MOL0     H92231   6.507   8.756  10.551  0.2238 -0.9695 -0.9516
  699MOL0     H92232   6.207   9.103  10.425 -0.0058  1.8086 -1.6190
  699MOL0     H92233   5.974   9.113  10.315  0.3510  0.4181 -0.0000
  699MOL0     H92234   5.736   8.851  10.361 -2.4479 -2.7695 -0.5399
  699MOL0     H92235   5.771   8.742  10.230  0.4182 -0.3616  4.2395
  699MOL0     H92236   5.550   8.815  10.178  0.1187  0.4954 -1.2346
  699MOL0     H92237   5.643   8.889  10.067  0.5832 -3.1225 -0.9138
  699MOL0     H92238   5.646   9.103  10.234 -2.5566  1.6622  0.3670
  699MOL0     H92239   5.527   9.023  10.321  0.4427  0.4064 -1.3882
  699MOL0     H92240   5.440   9.179  10.177  1.7629  0.1565 -0.7221
  699MOL0     H92241   5.500   9.104  10.028  1.1723 -2.4376 -0.5488
  699MOL0     H92242   5.314   8.971  10.227  2.1806  0.8706  0.5018
  699MOL0     H92243   5.368   8.904  10.064 -0.9743 -0.9521  0.4093
  699MOL0     H92244   5.267   9.129   9.973 -0.0167  1.2154  1.4268
  699MOL0     H92245   5.195   9.152  10.120  0.0386  0.6261  0.3840
  699MOL0     H92246   5.147   8.876   9.983  0.5488 -1.0298  1.4869
  699MOL0     H92247   5.062   8.941  10.113 -1.0523  1.5647 -0.1145
  699MOL0     H92248   5.054   9.045   9.828 -2.0270 -1.4895  0.0624
  699MOL0     H92249   5.001   9.148   9.957  0.7299  0.6927 -3.1466
  699MOL0     H92250   6.005   8.726  10.181  1.1065  0.2388 -0.4235
  699MOL0     H92251   6.238   8.716  10.231 -1.0297 -0.4515 -1.9928
  699MOL0     H92252   6.701   9.120  10.432  1.7344  1.0756  0.4431
  699MOL0     H92253   6.914   9.047  10.548  1.3223 -3.9221 -2.7571
  699MOL0     H92254   8.741   9.278  10.777  1.4189 -1.7267  1.7177
  699MOL0     H92255   8.961   9.192  10.740 -0.3456 -1.1372  1.1356
  699MOL0     H92256   9.265   8.928  10.427 -0.2085  0.8601 -0.5111
  699MOL0     H92257   9.494   8.861  10.405 -1.9840 -0.9191  1.8214
  699MOL0     H92258   9.812   8.849  10.532  3.1158  2.6953 -2.6136
  699MOL0     H92259   9.677   8.884  10.631  0.9617  1.9925  1.9798
  699MOL0     H92260   9.903   9.087  10.622 -1.1618 -0.9121 -1.0512
  699MOL0     H92261   9.770   9.082  10.741 -1.5605  1.5409 -2.0483
  699MOL0     H92262  10.007   8.886  10.687  0.3737 -0.8408  0.8136
  699MOL0     H92263   9.874   8.861  10.807  1.0100  0.2498  0.3697
  699MOL0     H92264   9.946   9.056  10.926  2.6300 -0.5138  2.6741
  699MOL0     H92265  10.073   8.943  10.930  0.5816  2.5560  2.0201
  699MOL0     H92266  10.289   9.221  10.721  2.0438 -1.5130  0.7431
  699MOL0     H92267   9.623   9.227  10.578  2.2185 -1.2648 -0.5339
  699MOL0     H92268   9.397   9.282  10.626 -1.0114 -0.3367  0.7137
  700MOL0     O92269   5.079   5.960   1.591 -0.4148  0.0141  0.2213
  700MOL0     C92270   5.166   5.957   1.497 -0.0011 -0.5882  0.0410
  700MOL0     O92271   5.143   5.978   1.357  0.5614 -0.3072  0.1555
  700MOL0     C92272   5.012   6.000   1.319 -0.0564 -0.1015 -0.7812
  700MOL0     C92273   4.935   6.098   1.382  0.3345  0.4656  0.2213
  700MOL0     C92274   4.799   6.103   1.356  0.8561 -0.4441 -0.0169
  700MOL0     C92275   4.742   6.019   1.266 -1.0971  0.3330 -0.1156
  700MOL0     O92276   4.610   6.028   1.254 -0.4659  0.6557  0.7420
  700MOL0     C92277   4.548   5.913   1.223  0.2168 -0.0709  0.3705
  700MOL0     C92278   4.396   5.943   1.229  1.0912  0.1666  1.3853
  700MOL0     C92279   4.341   6.013   1.093 -1.4550  0.0670 -0.1178
  700MOL0     C92280   4.210   6.091   1.101  0.1572 -0.5865  0.5144
  700MOL0     C92281   4.154   6.101   0.960 -0.2805  1.0675 -0.2324
  700MOL0     C92282   4.077   6.236   0.927  0.0381  0.6711  0.4591
  700MOL0     C92283   4.016   6.240   0.782  0.7478  0.2939  0.6995
  700MOL0     C92284   3.928   6.360   0.764 -0.3255  1.0322 -0.7137
  700MOL0     N92285   3.781   6.333   0.737 -0.2254 -0.3718  0.2753
  700MOL0     C92286   3.708   6.233   0.792 -0.4139 -0.0842  0.7595
  700MOL0     C92287   3.583   6.265   0.760 -0.8503 -0.2270  0.3841
  700MOL0     C92288   3.467   6.168   0.778 -0.0264  0.3873  0.2477
  700MOL0     C92289   3.463   6.073   0.656  0.0093  0.1613  0.1223
  700MOL0     C92290   3.363   5.952   0.670  0.5070  0.7649 -0.4156
  700MOL0     C92291   3.220   6.006   0.628 -0.3820 -0.5678 -0.7074
  700MOL0     O92292   3.128   5.895   0.634 -0.1232  0.8762  0.0235
  700MOL0     C92293   3.001   5.926   0.675  1.2638 -0.1246 -0.7913
  700MOL0     C92294   2.884   5.899   0.592  0.1983 -0.2229  0.1502
  700MOL0     C92295   2.755   5.922   0.638 -0.4109 -0.0081  0.1202
  700MOL0     C92296   2.732   5.983   0.767 -0.4857  0.4015  0.2197
  700MOL0     C92297   2.597   6.012   0.818  0.4740  0.3668  0.5332
  700MOL0     O92298   2.507   6.002   0.717  0.3192 -0.6328 -0.0073
  700MOL0     C92299   2.380   6.043   0.751  1.0985 -0.6282 -0.3674
  700MOL0     C92300   2.336   6.164   0.702 -0.1903 -0.1704 -0.0984
  700MOL0     C92301   2.203   6.215   0.718 -0.1135 -0.1207 -0.3133
  700MOL0     C92302   2.108   6.131   0.785  0.1322  0.2484 -0.5145
  700MOL0     O92303   1.976   6.149   0.793 -0.7665  0.1987  0.5898
  700MOL0     C92304   1.931   6.228   0.682  0.7717  0.4777 -0.7321
  700MOL0     C92305   1.787   6.213   0.669  0.1787  0.2910  0.5912
  700MOL0     C92306   1.729   6.284   0.545 -0.4394 -0.0043 -0.3386
  700MOL0     C92307   1.759   6.442   0.557  0.5760  0.4013  1.4358
  700MOL0     C92308   1.701   6.507   0.422  0.5797 -0.0204 -0.6593
  700MOL0     C92309   1.776   6.623   0.367  0.7620 -0.4650 -0.5779
  700MOL0     C92310   1.697   6.701   0.263 -0.3624  0.2804 -1.0641
  700MOL0     C92311   1.749   6.838   0.231  0.5638 -0.1374  0.6497
  700MOL0    Cl92312   1.699   6.868   0.069  0.1803  0.4712 -0.2460
  700MOL0     C92313   2.154   6.013   0.842 -0.3044 -0.1371 -0.0812
  700MOL0     C92314   2.291   5.964   0.828  1.0588 -0.0405  1.0570
  700MOL0     O92315   2.572   6.035   0.937 -0.2995 -0.4982 -0.5211
  700MOL0     C92316   2.842   6.012   0.845 -0.3723  0.0956  0.1530
  700MOL0     C92317   2.972   5.988   0.802 -0.9046  0.5141 -0.2369
  700MOL0     N92318   3.583   6.373   0.674  0.4611 -0.3616 -0.0085
  700MOL0     N92319   3.704   6.406   0.653  0.1890 -0.4158  0.5281
  700MOL0     C92320   4.823   5.932   1.196 -0.5810  0.4494 -0.4454
  700MOL0     C92321   4.958   5.912   1.227 -0.5742 -0.4155  0.6241
  700MOL0     C92322   5.308   5.925   1.536  0.4583  0.0641  0.1841
  700MOL0     C92323   5.419   5.938   1.449  0.9073  0.0260  0.9674
  700MOL0     C92324   5.549   5.916   1.480  0.5948 -0.3529 -0.7806
  700MOL0     C92325   5.587   5.861   1.600  0.7365  0.3491 -0.2964
  700MOL0     O92326   5.719   5.851   1.612  0.3616  0.1319  0.2044
  700MOL0     C92327   5.759   5.737   1.688  0.8144 -0.3739  0.6460
  700MOL0     C92328   5.891   5.690   1.634 -0.7243  0.7208 -0.1650
  700MOL0     C92329   5.921   5.543   1.683 -0.4280  1.2352 -0.0712
  700MOL0     C92330   6.064   5.502   1.650  0.2897  0.5599 -0.7027
  700MOL0     C92331   6.103   5.379   1.701  0.4408  0.5555 -0.0468
  700MOL0     C92332   6.128   5.267   1.732  0.6068 -0.4518  1.1657
  700MOL0     C92333   5.485   5.834   1.690  0.0543 -0.1028 -0.6549
  700MOL0     C92334   5.347   5.871   1.667  0.5181  0.1252  0.3316
  700MOL0     H92335   4.991   6.156   1.455  1.9755 -1.3376  0.5107
  700MOL0     H92336   4.729   6.166   1.408  0.3457 -2.1725  1.5009
  700MOL0     H92337   4.566   5.821   1.279 -2.3449  0.1273  1.6628
  700MOL0     H92338   4.572   5.892   1.118  0.6547  2.7624 -0.1792
  700MOL0     H92339   4.377   6.003   1.319  0.3313  1.6370  0.2986
  700MOL0     H92340   4.335   5.853   1.237 -3.1152  2.4481 -1.1481
  700MOL0     H92341   4.332   5.938   1.015  1.5112 -0.5341  0.0333
  700MOL0     H92342   4.424   6.082   1.073 -1.3778  0.4678  1.3980
  700MOL0     H92343   4.141   6.051   1.175 -0.5849 -2.9483 -1.3139
  700MOL0     H92344   4.235   6.196   1.120  2.3425 -0.5925 -1.6759
  700MOL0     H92345   4.094   6.010   0.953  1.9948 -1.2374  5.1094
  700MOL0     H92346   4.240   6.088   0.894  0.8341  0.0130  1.3533
  700MOL0     H92347   4.144   6.321   0.946  0.6789  0.4771 -0.8678
  700MOL0     H92348   4.001   6.245   1.005 -0.9375  0.5679 -0.4644
  700MOL0     H92349   4.095   6.243   0.706  0.7613  0.8427  0.7333
  700MOL0     H92350   3.954   6.153   0.759  0.3119  0.2854  1.8239
  700MOL0     H92351   3.971   6.412   0.678  1.5565 -1.2203 -1.2428
  700MOL0     H92352   3.936   6.425   0.852 -1.7553  0.5589 -0.1970
  700MOL0     H92353   3.760   6.156   0.847  0.9237 -3.3004 -4.2822
  700MOL0     H92354   3.372   6.215   0.804 -1.5106 -3.0328  1.6944
  700MOL0     H92355   3.484   6.119   0.874  3.9619 -1.2712 -1.0642
  700MOL0     H92356   3.564   6.033   0.644  1.1622  2.6536  0.9753
  700MOL0     H92357   3.433   6.128   0.567  1.6297  1.8047  0.5512
  700MOL0     H92358   3.388   5.865   0.608  2.0067  1.1695 -0.4271
  700MOL0     H92359   3.370   5.914   0.772  1.8403 -0.0596 -0.7888
  700MOL0     H92360   3.213   6.035   0.523 -3.1726 -0.1393 -0.4655
  700MOL0     H92361   3.185   6.086   0.693 -0.9677  0.5558 -2.3558
  700MOL0     H92362   2.880   5.857   0.492  2.2786 -1.0463  0.3653
  700MOL0     H92363   2.671   5.890   0.576 -0.7549  3.5025 -1.5207
  700MOL0     H92364   2.406   6.236   0.661 -1.0195  0.3995 -0.5357
  700MOL0     H92365   2.182   6.314   0.679  0.2263 -0.2968 -0.9587
  700MOL0     H92366   1.974   6.195   0.587  2.5449 -1.5708  0.6630
  700MOL0     H92367   1.945   6.335   0.698 -0.9994  0.7838 -1.0468
  700MOL0     H92368   1.741   6.249   0.761  0.4593 -3.1622  2.2343
  700MOL0     H92369   1.754   6.111   0.647 -0.0189  0.6582 -0.9665
  700MOL0     H92370   1.621   6.265   0.539 -0.6681  1.6295 -3.1708
  700MOL0     H92371   1.773   6.247   0.452 -0.7300  0.4167 -0.6499
  700MOL0     H92372   1.704   6.492   0.638 -0.4928  2.4954 -0.4580
  700MOL0     H92373   1.867   6.459   0.557  1.0023 -1.0615 -2.8742
  700MOL0     H92374   1.593   6.519   0.431  0.5861 -0.4518  0.0931
  700MOL0     H92375   1.716   6.431   0.346 -0.8898 -1.7063  0.6619
  700MOL0     H92376   1.873   6.588   0.333  0.8545  0.1894 -1.0057
  700MOL0     H92377   1.799   6.681   0.457  2.5881 -0.2278 -1.1550
  700MOL0     H92378   1.697   6.637   0.175  2.3174 -2.3451  0.6240
  700MOL0     H92379   1.593   6.711   0.295  0.6258  0.1071  2.7975
  700MOL0     H92380   1.857   6.851   0.237  0.3024  1.5690  2.6406
  700MOL0     H92381   1.709   6.910   0.303  4.6075  1.2631  1.7364
  700MOL0     H92382   2.075   5.956   0.891  0.3924  0.7409  2.2387
  700MOL0     H92383   2.321   5.863   0.853 -1.3112 -1.2867 -0.6998
  700MOL0     H92384   2.831   6.074   0.934 -1.3602  1.1062 -0.6430
  700MOL0     H92385   3.053   6.033   0.858  0.4733 -1.1543 -0.8098
  700MOL0     H92386   4.789   5.865   1.118 -0.2727 -2.2615  1.5948
  700MOL0     H92387   5.022   5.841   1.175  0.3308  1.1704 -0.5294
  700MOL0     H92388   5.403   5.988   1.354  0.0417 -1.9656  0.0002
  700MOL0     H92389   5.629   5.917   1.406  2.3098  1.2250  1.0006
  700MOL0     H92390   5.682   5.660   1.682  0.2296  0.1784  0.9067
  700MOL0     H92391   5.772   5.766   1.792 -2.3185  4.2562  0.1157
  700MOL0     H92392   5.882   5.690   1.525 -0.3424 -0.3432 -0.2109
  700MOL0     H92393   5.979   5.746   1.665 -0.0512  0.0509 -0.8218
  700MOL0     H92394   5.854   5.470   1.636 -0.2567  1.5666 -0.8470
  700MOL0     H92395   5.906   5.531   1.791 -1.1113 -0.5326 -0.3205
  700MOL0     H92396   6.060   5.489   1.542  1.0482  1.6667 -0.8803
  700MOL0     H92397   6.119   5.586   1.694 -1.8609  0.9641  1.4485
  700MOL0     H92398   6.153   5.169   1.768 -2.6383 -0.9286  2.4828
  700MOL0     H92399   5.507   5.805   1.792 -2.5361 -2.5129 -0.6752
  700MOL0     H92400   5.270   5.842   1.738 -0.5428  2.8877  0.4292
  701MOL0     O92401   8.554   1.336   8.625  0.8871  0.2565  0.2702
  701MOL0     C92402   8.597   1.358   8.733 -0.5781 -0.5369  0.7315
  701MOL0     O92403   8.535   1.412   8.837 -0.1418  0.4067  0.0836
  701MOL0     C92404   8.403   1.398   8.857  0.9240 -0.4417  0.3921
  701MOL0     C92405   8.303   1.318   8.784 -0.1077 -0.3815  0.2832
  701MOL0     C92406   8.173   1.328   8.815  0.6054 -0.1725 -0.9514
  701MOL0     C92407   8.132   1.418   8.915  0.9479  0.1665  0.5920
  701MOL0     O92408   7.996   1.442   8.940  0.3693 -0.2587 -0.5195
  701MOL0     C92409   7.888   1.363   8.876 -0.3799  0.9902 -0.3988
  701MOL0     C92410   7.758   1.412   8.931 -0.5730 -0.0985  0.6497
  701MOL0     C92411   7.645   1.306   8.912  0.7955  0.0462  0.5058
  701MOL0     C92412   7.508   1.369   8.965 -0.5879  0.2460  0.7683
  701MOL0     C92413   7.407   1.259   8.948 -0.2860 -0.0113  0.3597
  701MOL0     C92414   7.268   1.289   9.003  0.5146  0.5441  1.2443
  701MOL0     C92415   7.204   1.415   8.948 -0.0488 -0.2538  0.7938
  701MOL0     C92416   7.045   1.419   8.980  0.1520 -0.6459  0.2540
  701MOL0     N92417   7.002   1.460   9.116  0.7569 -0.1720 -0.0697
  701MOL0     C92418   6.889   1.534   9.144 -0.2499 -0.1048 -0.0695
  701MOL0     C92419   6.871   1.521   9.273  0.2843 -0.1678  0.8544
  701MOL0     C92420   6.760   1.587   9.351  0.6036 -0.8605 -0.3251
  701MOL0     C92421   6.659   1.679   9.272 -0.0802 -0.1867  0.6302
  701MOL0     C92422   6.570   1.740   9.372  0.7739 -0.1408  0.0582
  701MOL0     C92423   6.480   1.843   9.303 -0.4769  0.0707 -0.3645
  701MOL0     O92424   6.375   1.860   9.399  0.1616 -0.1096  0.1229
  701MOL0     C92425   6.269   1.781   9.388  0.5018 -0.0743  0.0245
  701MOL0     C92426   6.204   1.731   9.502  0.2777  0.1691  0.2893
  701MOL0     C92427   6.076   1.674   9.499  1.1451 -0.3024 -0.5839
  701MOL0     C92428   6.013   1.648   9.378 -0.1676  0.7248 -0.0749
  701MOL0     C92429   5.878   1.584   9.365  0.2468  0.4371 -0.2758
  701MOL0     O92430   5.805   1.555   9.474  0.2923 -1.2726  0.3443
  701MOL0     C92431   5.677   1.507   9.455  0.4514 -0.1200  0.5926
  701MOL0     C92432   5.654   1.368   9.461 -0.6564 -0.2054 -0.1767
  701MOL0     C92433   5.525   1.323   9.469 -0.0709 -0.1734  1.3273
  701MOL0     C92434   5.423   1.410   9.448  0.3430 -0.1124  0.0772
  701MOL0     O92435   5.296   1.351   9.441 -0.6001 -0.2529  0.1440
  701MOL0     C92436   5.218   1.388   9.554 -0.3458 -0.2367 -0.1456
  701MOL0     C92437   5.099   1.488   9.519  0.4572  0.5677 -0.2255
  701MOL0     C92438   4.981   1.435   9.438 -0.2540  0.2062  0.3057
  701MOL0     C92439   4.914   1.315   9.501  0.0311  0.6017  1.1826
  701MOL0     C92440   4.806   1.265   9.408  0.3096 -0.2803  0.4968
  701MOL0     C92441   4.687   1.363   9.373  0.1746 -0.3749 -0.3693
  701MOL0     C92442   4.581   1.305   9.287 -0.0545 -0.9109 -0.6916
  701MOL0     C92443   4.511   1.205   9.366  0.4524  0.3687  0.4217
  701MOL0    Cl92444   4.455   1.250   9.536  0.2443  0.3432  0.5037
  701MOL0     C92445   5.441   1.549   9.436  0.0321 -0.1335 -0.3150
  701MOL0     C92446   5.569   1.599   9.442 -0.2786 -0.0415  0.2448
  701MOL0     O92447   5.851   1.556   9.248  0.1178  0.3844  1.0063
  701MOL0     C92448   6.069   1.704   9.264 -0.3965  0.1339 -0.3588
  701MOL0     C92449   6.189   1.775   9.271 -0.1820  0.0269  0.1640
  701MOL0     N92450   6.966   1.436   9.331  0.6382 -0.7747  0.3598
  701MOL0     N92451   7.047   1.405   9.233  0.0023  0.3148 -0.2986
  701MOL0     C92452   8.219   1.501   8.979  0.5989  1.3200  0.2836
  701MOL0     C92453   8.355   1.475   8.959 -0.3100  0.0897 -0.5007
  701MOL0     C92454   8.750   1.359   8.736  0.1380  0.2563  0.0581
  701MOL0     C92455   8.816   1.420   8.844 -0.0465  0.0258  0.2819
  701MOL0     C92456   8.951   1.438   8.833 -1.0506 -0.7235  0.4106
  701MOL0     C92457   9.033   1.394   8.730 -0.0161 -0.1118  0.4799
  701MOL0     O92458   9.164   1.426   8.727  0.0501  0.2359  0.1871
  701MOL0     C92459   9.253   1.352   8.641 -0.0222 -0.1086  0.3113
  701MOL0     C92460   9.406   1.355   8.678 -0.8260 -0.4364  0.0060
  701MOL0     C92461   9.498   1.252   8.612  0.7601 -0.0734 -0.6342
  701MOL0     C92462   9.466   1.248   8.456  0.3416 -0.6661 -0.0577
  701MOL0     C92463   9.569   1.163   8.398 -0.2038  0.0785 -0.6242
  701MOL0     C92464   9.651   1.092   8.338 -0.4446  0.5750  0.3423
  701MOL0     C92465   8.967   1.321   8.626 -0.8868  0.4884 -0.7276
  701MOL0     C92466   8.830   1.303   8.632 -1.4029 -0.3789  0.6252
  701MOL0     H92467   8.323   1.251   8.700 -3.1002 -1.4355  0.2876
  701MOL0     H92468   8.109   1.276   8.744  1.5877  3.4699 -4.8912
  701MOL0     H92469   7.903   1.259   8.907 -0.0364  1.2455  0.3370
  701MOL0     H92470   7.882   1.360   8.767 -1.5282 -1.0705 -0.3416
  701MOL0     H92471   7.734   1.499   8.869 -0.7128 -0.8106 -0.3035
  701MOL0     H92472   7.771   1.431   9.038  2.8638  1.4627  0.0952
  701MOL0     H92473   7.668   1.215   8.968 -2.0678 -0.9299  0.2843
  701MOL0     H92474   7.641   1.270   8.809  0.7168 -1.3351  0.9712
  701MOL0     H92475   7.527   1.398   9.069 -1.5565 -1.3142  1.4122
  701MOL0     H92476   7.474   1.452   8.902  1.9102  1.4640  0.9030
  701MOL0     H92477   7.440   1.162   8.987  1.9500  0.8646  0.7590
  701MOL0     H92478   7.394   1.240   8.841  0.3299 -1.5424  0.5274
  701MOL0     H92479   7.273   1.281   9.112  0.8905 -1.3355  1.1265
  701MOL0     H92480   7.206   1.206   8.968  0.7105  0.7121  0.4951
  701MOL0     H92481   7.248   1.501   8.998  1.3810 -1.5374  1.8329
  701MOL0     H92482   7.212   1.425   8.839 -2.1238  0.6332  0.6663
  701MOL0     H92483   7.006   1.318   8.963  0.2380 -0.4029 -1.6667
  701MOL0     H92484   6.982   1.471   8.907 -0.2528  0.0320  1.0734
  701MOL0     H92485   6.826   1.591   9.076  1.5322 -0.5415 -2.2335
  701MOL0     H92486   6.813   1.647   9.425 -0.8553  0.3676 -0.2300
  701MOL0     H92487   6.713   1.509   9.411  0.1571 -1.2226 -1.1370
  701MOL0     H92488   6.608   1.620   9.195  0.1164 -0.3862  0.6498
  701MOL0     H92489   6.717   1.755   9.219  1.0811 -1.7085 -0.3743
  701MOL0     H92490   6.511   1.655   9.406  0.4453  0.4222  0.9108
  701MOL0     H92491   6.624   1.782   9.457  0.7448 -2.5461  1.3379
  701MOL0     H92492   6.453   1.811   9.202  1.1966  2.2349 -1.5843
  701MOL0     H92493   6.529   1.939   9.286  3.3519 -1.9057 -1.9042
  701MOL0     H92494   6.241   1.748   9.602  0.4966 -0.0560  0.2488
  701MOL0     H92495   6.023   1.656   9.592  0.3829  1.0445 -0.7227
  701MOL0     H92496   5.742   1.309   9.486  0.5144  1.0799 -1.0981
  701MOL0     H92497   5.500   1.218   9.485 -0.9597 -0.7506 -2.7112
  701MOL0     H92498   5.275   1.423   9.640 -1.1175 -1.4453  0.8907
  701MOL0     H92499   5.171   1.292   9.580  3.8566 -1.7379  3.0523
  701MOL0     H92500   5.135   1.567   9.453  0.9222  1.2731  0.8481
  701MOL0     H92501   5.060   1.531   9.611 -3.1525  0.7015 -1.6741
  701MOL0     H92502   5.028   1.404   9.343  1.2612 -1.8264  1.6298
  701MOL0     H92503   4.909   1.514   9.418 -0.1425  0.0556 -0.7589
  701MOL0     H92504   4.983   1.232   9.519 -1.5712 -0.2138  4.1682
  701MOL0     H92505   4.872   1.346   9.597  4.9219 -0.0502  3.8777
  701MOL0     H92506   4.760   1.178   9.456 -2.6411  0.7291 -0.2595
  701MOL0     H92507   4.858   1.228   9.319  1.2338 -0.0693  0.9350
  701MOL0     H92508   4.727   1.450   9.321  0.8077 -0.0055  0.6940
  701MOL0     H92509   4.638   1.404   9.462 -1.5331  0.3635 -1.6071
  701MOL0     H92510   4.513   1.376   9.241  0.9986  1.5838  1.3619
  701MOL0     H92511   4.631   1.256   9.202  0.2783 -1.9560  0.0922
  701MOL0     H92512   4.572   1.115   9.372 -0.5866 -0.8294 -3.8444
  701MOL0     H92513   4.421   1.172   9.313  0.4735  1.7791 -0.5355
  701MOL0     H92514   5.356   1.615   9.422 -1.2500 -1.4970  0.7720
  701MOL0     H92515   5.590   1.706   9.442  0.7532 -0.1639  3.2367
  701MOL0     H92516   6.030   1.721   9.164  1.2485  1.4625 -0.8296
  701MOL0     H92517   6.222   1.823   9.180  1.5778 -1.5991 -0.1079
  701MOL0     H92518   8.183   1.564   9.060 -1.7550 -0.1625  0.5163
  701MOL0     H92519   8.438   1.527   9.006 -0.5970 -0.5879  0.7893
  701MOL0     H92520   8.762   1.464   8.928 -4.0351  0.1727 -2.1000
  701MOL0     H92521   8.990   1.502   8.911  1.6762 -0.8602 -0.7341
  701MOL0     H92522   9.246   1.405   8.546 -1.9346  0.1099  0.5424
  701MOL0     H92523   9.222   1.247   8.631  2.2655 -0.6278 -3.6170
  701MOL0     H92524   9.453   1.450   8.651  0.5178 -1.1920 -0.3420
  701MOL0     H92525   9.409   1.342   8.787 -2.2253 -6.0198 -0.3416
  701MOL0     H92526   9.489   1.150   8.651  2.7258 -0.9109 -2.1962
  701MOL0     H92527   9.599   1.285   8.634  0.2711  1.6123 -0.7748
  701MOL0     H92528   9.365   1.209   8.441  0.4633 -1.1612  0.3677
  701MOL0     H92529   9.469   1.346   8.408 -2.4116 -0.5009 -0.0941
  701MOL0     H92530   9.714   1.017   8.295 -0.5050  1.7106 -1.8865
  701MOL0     H92531   9.009   1.287   8.532 -1.9390  0.7350 -1.3031
  701MOL0     H92532   8.775   1.248   8.556 -3.8052  1.3601  0.9591
  702MOL0     O92533   3.372   0.329   1.778  0.2018  0.3274 -0.0903
  702MOL0     C92534   3.385   0.452   1.759 -0.4239 -0.1684 -0.7908
  702MOL0     O92535   3.287   0.530   1.729 -0.0010 -0.0933  0.1322
  702MOL0     C92536   3.166   0.471   1.713  0.2033  0.2357  0.3930
  702MOL0     C92537   3.101   0.404   1.812 -0.2418  0.4486 -0.6799
  702MOL0     C92538   2.964   0.366   1.797 -0.3645 -0.0025  0.6045
  702MOL0     C92539   2.893   0.397   1.681  0.5545 -0.4386 -0.1516
  702MOL0     O92540   2.766   0.355   1.664 -0.0533 -0.0850 -0.5222
  702MOL0     C92541   2.685   0.439   1.567 -0.7005  0.0342  0.0919
  702MOL0     C92542   2.550   0.408   1.569  0.2076  0.6082  0.1858
  702MOL0     C92543   2.470   0.482   1.672 -0.3665  0.4144  0.8331
  702MOL0     C92544   2.326   0.437   1.698 -0.0209  0.2013  0.2334
  702MOL0     C92545   2.249   0.519   1.800 -0.5943 -0.0635 -0.6614
  702MOL0     C92546   2.096   0.501   1.780 -0.3429  1.2790  0.7703
  702MOL0     C92547   2.010   0.584   1.878  0.0884  0.0178 -0.5779
  702MOL0     C92548   1.990   0.730   1.826 -0.7922 -0.3561 -0.2891
  702MOL0     N92549   1.890   0.798   1.908  1.1231  0.8449  0.2420
  702MOL0     C92550   1.752   0.802   1.878  0.4244 -0.0908  0.8854
  702MOL0     C92551   1.693   0.895   1.959 -1.2645  0.4395 -0.9522
  702MOL0     C92552   1.550   0.914   1.995 -0.3619  0.0539  0.6210
  702MOL0     C92553   1.467   0.781   1.993 -0.3117  0.3136  0.3862
  702MOL0     C92554   1.316   0.806   2.049  1.0176  0.6985 -0.0225
  702MOL0     C92555   1.241   0.665   2.069 -0.7664  0.1084 -0.0736
  702MOL0     O92556   1.219   0.619   1.935  0.7638  0.6351 -0.7439
  702MOL0     C92557   1.105   0.641   1.868  0.9758 -0.8072 -0.1000
  702MOL0     C92558   1.114   0.693   1.739 -0.5879  0.0457  0.0275
  702MOL0     C92559   0.992   0.705   1.663 -0.8160 -0.5633 -1.1552
  702MOL0     C92560   0.876   0.660   1.704  0.2061  0.0191 -0.4888
  702MOL0     C92561   0.755   0.660   1.612 -0.1597  0.8213 -0.6944
  702MOL0     O92562   0.655   0.583   1.659  0.0018  0.5375  0.1013
  702MOL0     C92563   0.538   0.568   1.590 -0.2855 -0.9060  0.7189
  702MOL0     C92564   0.525   0.577   1.453  0.6930 -0.3154  0.3360
  702MOL0     C92565   0.403   0.569   1.386 -0.1833  0.4801  0.0214
  702MOL0     C92566   0.278   0.553   1.453  0.3460 -0.1672 -0.4078
  702MOL0     O92567   0.149   0.551   1.397 -0.5415 -0.4977 -0.3946
  702MOL0     C92568   0.149   0.597   1.264  0.8101  0.1001  0.1502
  702MOL0     C92569   0.014   0.611   1.207  1.1839 -0.1790 -0.0561
  702MOL0     C92570  -0.059   0.735   1.264  1.1911 -0.8093  0.6180
  702MOL0     C92571  -0.210   0.705   1.237 -0.6675 -0.1150  0.3621
  702MOL0     C92572  -0.293   0.841   1.254 -0.7805 -0.6601 -0.4312
  702MOL0     C92573  -0.432   0.820   1.306 -0.5376 -0.5673  0.4240
  702MOL0     C92574  -0.511   0.745   1.198 -1.5597 -0.0038  0.0155
  702MOL0     C92575  -0.658   0.767   1.199 -0.2910 -0.0182 -0.7198
  702MOL0    Cl92576  -0.709   0.717   1.368 -0.2617 -0.3872  0.4479
  702MOL0     C92577   0.295   0.546   1.595  0.2755  0.1309  0.0167
  702MOL0     C92578   0.418   0.554   1.660  0.9089 -0.3169  0.0424
  702MOL0     O92579   0.744   0.741   1.517  0.1342  0.6255  0.0517
  702MOL0     C92580   0.871   0.613   1.836  1.1067  0.1495  0.5285
  702MOL0     C92581   0.981   0.596   1.912 -0.3577  0.6448  0.0860
  702MOL0     N92582   1.791   0.930   2.049 -0.1203 -0.4163  0.0925
  702MOL0     N92583   1.905   0.878   2.020 -0.1201 -0.4294  0.3259
  702MOL0     C92584   2.963   0.464   1.586  0.1062 -0.3194  0.1675
  702MOL0     C92585   3.094   0.509   1.599 -0.3488  0.9297  0.1861
  702MOL0     C92586   3.518   0.510   1.781  0.9025 -0.2283 -0.0095
  702MOL0     C92587   3.630   0.436   1.808 -0.3587  0.4628 -0.2847
  702MOL0     C92588   3.748   0.493   1.853 -0.0936 -0.7142  0.0756
  702MOL0     C92589   3.755   0.629   1.871 -0.0810 -0.5002 -0.1791
  702MOL0     O92590   3.869   0.687   1.927 -0.4901  0.3458  0.2908
  702MOL0     C92591   3.894   0.836   1.929  0.5073  0.2578 -0.3561
  702MOL0     C92592   3.956   0.892   1.803  1.1209 -0.0560 -0.1572
  702MOL0     C92593   3.933   1.043   1.787  0.2427 -1.4321 -0.3612
  702MOL0     C92594   4.026   1.137   1.871 -0.1482  1.0262  0.1279
  702MOL0     C92595   4.004   1.116   2.013  0.0971 -0.5587 -0.3547
  702MOL0     C92596   3.985   1.113   2.133 -0.1673  0.7128  0.7659
  702MOL0     C92597   3.656   0.714   1.832  0.1172 -0.0025 -0.1890
  702MOL0     C92598   3.537   0.659   1.786 -0.0695  0.9228 -0.9408
  702MOL0     H92599   3.171   0.387   1.894 -1.5416 -0.3619  0.3028
  702MOL0     H92600   2.900   0.324   1.875 -3.2256  1.4302 -0.8059
  702MOL0     H92601   2.700   0.385   1.473 -1.9660 -2.2484  1.1203
  702MOL0     H92602   2.711   0.546   1.565  2.1464 -0.5706 -0.7329
  702MOL0     H92603   2.534   0.302   1.595 -0.0120  1.0707  2.1331
  702MOL0     H92604   2.510   0.431   1.470  1.5404  1.5871 -0.1412
  702MOL0     H92605   2.479   0.583   1.630 -1.8180  0.2632  0.1294
  702MOL0     H92606   2.513   0.494   1.772  0.6890 -1.0132  0.5860
  702MOL0     H92607   2.269   0.448   1.605 -1.9310 -0.0513  1.3315
  702MOL0     H92608   2.335   0.331   1.724  0.0933 -0.0326 -0.7178
  702MOL0     H92609   2.275   0.625   1.786 -1.9375  0.3134 -0.4477
  702MOL0     H92610   2.277   0.494   1.903 -1.4784  1.2627 -0.0739
  702MOL0     H92611   2.074   0.397   1.805  0.5322  0.2039 -2.4873
  702MOL0     H92612   2.061   0.514   1.677 -1.5844 -2.8731  0.4747
  702MOL0     H92613   1.910   0.545   1.902 -1.6823  1.9765 -3.9547
  702MOL0     H92614   2.051   0.594   1.979  1.0053  2.0527 -1.0919
  702MOL0     H92615   1.956   0.725   1.722  1.7092 -1.1712 -1.1304
  702MOL0     H92616   2.082   0.788   1.823  1.7125 -4.0141 -1.0762
  702MOL0     H92617   1.688   0.742   1.814 -2.1508  3.0443  0.2470
  702MOL0     H92618   1.508   0.977   1.915  2.6527  1.5490  0.0839
  702MOL0     H92619   1.535   0.965   2.090  1.5034 -1.0578  1.5561
  702MOL0     H92620   1.513   0.697   2.044 -0.1766 -1.2052 -2.0656
  702MOL0     H92621   1.448   0.736   1.895  0.7842 -1.1340  0.8077
  702MOL0     H92622   1.335   0.852   2.147  0.2261  2.4891 -0.6667
  702MOL0     H92623   1.263   0.872   1.980  0.9538  0.7521  0.0782
  702MOL0     H92624   1.155   0.668   2.137 -0.2388 -1.4363  0.7083
  702MOL0     H92625   1.313   0.606   2.126 -1.1667 -0.0496  0.2759
  702MOL0     H92626   1.214   0.720   1.707 -0.2652  1.8394  2.2810
  702MOL0     H92627   0.987   0.769   1.575  0.7993 -0.0553 -0.9258
  702MOL0     H92628   0.613   0.577   1.390  0.5907  0.7144  0.1813
  702MOL0     H92629   0.414   0.569   1.278  1.6808 -0.2689  0.1612
  702MOL0     H92630   0.196   0.512   1.213  1.3067  0.9959 -0.9308
  702MOL0     H92631   0.204   0.688   1.237  1.9686  0.1455  2.4307
  702MOL0     H92632  -0.041   0.518   1.224  1.2373 -0.1594  0.2329
  702MOL0     H92633   0.022   0.621   1.099  0.1483  0.4180 -0.0891
  702MOL0     H92634  -0.019   0.820   1.206  0.1176  0.5742  1.8207
  702MOL0     H92635  -0.042   0.751   1.371 -1.4204  2.3946  0.7184
  702MOL0     H92636  -0.226   0.687   1.130 -2.4951  0.7127  0.4481
  702MOL0     H92637  -0.256   0.630   1.302 -1.9995  0.3660  0.0200
  702MOL0     H92638  -0.305   0.887   1.155 -0.4115  2.1035  0.7219
  702MOL0     H92639  -0.244   0.912   1.321  1.5967 -3.8477  1.5240
  702MOL0     H92640  -0.490   0.911   1.322  0.8800  0.3638  0.4152
  702MOL0     H92641  -0.443   0.763   1.399 -2.1720  0.6153  0.9944
  702MOL0     H92642  -0.478   0.758   1.094 -1.4187  0.1026  0.0739
  702MOL0     H92643  -0.482   0.639   1.207  0.8698  0.5617 -0.3543
  702MOL0     H92644  -0.715   0.707   1.127 -0.5424  1.2057 -1.5702
  702MOL0     H92645  -0.680   0.872   1.179  1.1202 -0.1684 -3.4625
  702MOL0     H92646   0.200   0.544   1.648 -0.1407 -0.2447 -0.7366
  702MOL0     H92647   0.406   0.545   1.767  0.6376 -1.0247 -0.0413
  702MOL0     H92648   0.782   0.558   1.865  1.8830 -2.2548 -1.3632
  702MOL0     H92649   0.968   0.563   2.015  1.9860 -2.5077 -0.4593
  702MOL0     H92650   2.927   0.483   1.485  0.1638  1.1168  0.4014
  702MOL0     H92651   3.143   0.570   1.524  1.2705  0.2543  0.6462
  702MOL0     H92652   3.638   0.328   1.798  3.3618  0.1067  3.6891
  702MOL0     H92653   3.837   0.440   1.884 -1.7386 -2.4655  2.1062
  702MOL0     H92654   3.956   0.860   2.016 -1.3103 -3.6104  2.2823
  702MOL0     H92655   3.800   0.886   1.955  0.2785 -1.2791  2.0566
  702MOL0     H92656   4.059   0.853   1.801  0.5670 -1.5610 -1.3135
  702MOL0     H92657   3.901   0.842   1.723 -0.4980 -0.6749  1.2778
  702MOL0     H92658   3.827   1.067   1.798  0.2529  0.3173 -3.0495
  702MOL0     H92659   3.950   1.070   1.682  0.0530 -1.5440 -0.4217
  702MOL0     H92660   4.131   1.128   1.843  0.1086 -0.5435  1.4288
  702MOL0     H92661   4.003   1.241   1.845 -0.5522  0.9610  0.2233
  702MOL0     H92662   3.971   1.115   2.239  2.0441  2.5374  1.0870
  702MOL0     H92663   3.644   0.822   1.836 -1.0718 -0.0749 -1.2048
  702MOL0     H92664   3.446   0.717   1.784 -0.7340 -0.0693 -0.4159
  703MOL0     O92665   1.453   6.861   6.057 -0.1865  0.5931 -0.4955
  703MOL0     C92666   1.524   6.830   6.147 -1.0462 -0.5651  0.3807
  703MOL0     O92667   1.498   6.836   6.275  0.7911 -0.5700  0.0219
  703MOL0     C92668   1.369   6.863   6.303  0.3835  0.6950 -0.8579
  703MOL0     C92669   1.279   6.756   6.309 -0.0060  0.6123 -0.6045
  703MOL0     C92670   1.145   6.780   6.341  0.4289  0.0819 -0.0775
  703MOL0     C92671   1.099   6.909   6.362 -0.5898 -0.9994 -0.4319
  703MOL0     O92672   0.980   6.924   6.416 -0.0134 -0.0032 -0.3325
  703MOL0     C92673   0.905   7.037   6.385  0.4953  0.9882 -0.2853
  703MOL0     C92674   0.775   7.012   6.454  1.1109  0.3981 -1.2894
  703MOL0     C92675   0.697   7.138   6.448 -0.1072 -0.1339 -0.1619
  703MOL0     C92676   0.569   7.126   6.529 -0.3424  0.0650  0.7672
  703MOL0     C92677   0.470   7.245   6.499 -0.7593 -0.3350  0.3243
  703MOL0     C92678   0.345   7.228   6.573  0.1776 -0.4892 -0.2327
  703MOL0     C92679   0.251   7.120   6.510  0.6004 -0.0766  0.0811
  703MOL0     C92680   0.101   7.143   6.529  0.0333 -0.0810  0.1392
  703MOL0     N92681   0.058   7.246   6.443  0.1123 -0.4782 -0.6652
  703MOL0     C92682   0.022   7.232   6.311 -0.4368 -0.7893  0.3884
  703MOL0     C92683  -0.033   7.353   6.274 -0.3129 -0.4379 -0.5935
  703MOL0     C92684  -0.086   7.415   6.146  0.0421  0.6288 -0.3472
  703MOL0     C92685  -0.219   7.340   6.109 -0.6365 -0.2478  0.4145
  703MOL0     C92686  -0.281   7.369   5.978 -0.1513  0.8474 -0.2477
  703MOL0     C92687  -0.434   7.351   5.996  0.6316  0.6800 -1.0084
  703MOL0     O92688  -0.498   7.356   5.863  0.7363 -0.1554 -0.0107
  703MOL0     C92689  -0.631   7.337   5.860 -0.4694  0.4988  0.1704
  703MOL0     C92690  -0.715   7.444   5.883 -0.1576 -0.3007  0.3175
  703MOL0     C92691  -0.853   7.423   5.870 -0.0931 -0.0056 -0.0370
  703MOL0     C92692  -0.903   7.300   5.822 -0.7854 -0.2198  0.5146
  703MOL0     C92693  -1.035   7.293   5.768 -0.6601 -0.8732 -0.0835
  703MOL0     O92694  -1.094   7.407   5.722  0.2582  0.0391 -0.2641
  703MOL0     C92695  -1.234   7.398   5.713  0.1128  0.5074 -0.3191
  703MOL0     C92696  -1.295   7.425   5.594  0.0812 -0.3024  0.4529
  703MOL0     C92697  -1.433   7.434   5.577 -0.6305 -0.7631  0.4729
  703MOL0     C92698  -1.511   7.420   5.691 -0.6254 -0.3563 -1.1532
  703MOL0     O92699  -1.646   7.398   5.678 -0.4615  0.0340 -0.0607
  703MOL0     C92700  -1.726   7.513   5.680  0.1365 -0.3918 -0.2298
  703MOL0     C92701  -1.754   7.564   5.540 -0.6302  0.0562 -1.3011
  703MOL0     C92702  -1.857   7.680   5.517 -1.0938  1.0360  0.6195
  703MOL0     C92703  -2.001   7.637   5.551  0.0272  0.2297 -0.6878
  703MOL0     C92704  -2.098   7.750   5.526  0.6606  0.2413 -0.1109
  703MOL0     C92705  -2.228   7.680   5.509  0.4614  0.6265  0.2955
  703MOL0     C92706  -2.345   7.783   5.519  0.2862 -0.4630  0.1124
  703MOL0     C92707  -2.460   7.762   5.420 -0.0936 -0.6102  0.2516
  703MOL0    Cl92708  -2.546   7.608   5.434  0.0007  0.0197 -0.2757
  703MOL0     C92709  -1.451   7.400   5.816  0.2517 -0.3460  0.9660
  703MOL0     C92710  -1.314   7.390   5.829 -0.3483 -0.2837  0.4197
  703MOL0     O92711  -1.092   7.186   5.784  0.3164 -0.6671  0.0842
  703MOL0     C92712  -0.812   7.192   5.808  0.3250 -0.5483  0.1246
  703MOL0     C92713  -0.672   7.211   5.828  0.0074  0.4265  0.5814
  703MOL0     N92714  -0.024   7.438   6.388 -0.8186  0.1144  0.0688
  703MOL0     N92715   0.034   7.371   6.484  0.2350 -0.6671  0.0021
  703MOL0     C92716   1.195   7.015   6.360 -0.3956 -0.1564  0.2177
  703MOL0     C92717   1.324   6.991   6.324  0.5923  0.4247 -0.6468
  703MOL0     C92718   1.663   6.803   6.103  0.2395 -0.8874 -0.6876
  703MOL0     C92719   1.703   6.812   5.972  1.1093 -0.6599  0.0495
  703MOL0     C92720   1.822   6.768   5.919  0.4032 -0.1481  0.1201
  703MOL0     C92721   1.916   6.719   6.016  0.3775 -0.3949  0.7028
  703MOL0     O92722   2.034   6.668   5.981 -0.1732 -0.3321  0.4715
  703MOL0     C92723   2.080   6.683   5.848  0.2841 -0.6120 -0.2295
  703MOL0     C92724   2.195   6.600   5.832  0.0087 -0.7201  0.0803
  703MOL0     C92725   2.326   6.679   5.876  0.1065  0.0216 -0.1767
  703MOL0     C92726   2.345   6.678   6.024  0.0041 -0.0436 -0.3539
  703MOL0     C92727   2.425   6.563   6.080  0.2658  0.1842  0.0411
  703MOL0     C92728   2.497   6.469   6.110 -0.2089  0.0046 -0.0150
  703MOL0     C92729   1.884   6.715   6.145 -0.7187  0.3581 -0.7471
  703MOL0     C92730   1.763   6.748   6.195  0.7522  0.0649  0.0762
  703MOL0     H92731   1.303   6.653   6.283  3.5743  0.8616  1.1464
  703MOL0     H92732   1.083   6.691   6.348  2.1914 -1.2851 -1.0056
  703MOL0     H92733   0.885   7.061   6.280  2.0937 -0.0146 -0.8488
  703MOL0     H92734   0.943   7.127   6.435 -0.6068  2.3071 -1.7002
  703MOL0     H92735   0.793   6.992   6.560 -1.6808 -3.2920 -1.2755
  703MOL0     H92736   0.703   6.933   6.429  0.7456 -0.1084  1.1076
  703MOL0     H92737   0.649   7.147   6.350 -1.1891 -2.5882  0.0747
  703MOL0     H92738   0.758   7.226   6.470 -2.5234  1.4154  0.7898
  703MOL0     H92739   0.508   7.036   6.514  1.7401 -0.9160 -3.0443
  703MOL0     H92740   0.584   7.132   6.638 -1.0738 -1.4250  0.9755
  703MOL0     H92741   0.448   7.267   6.394 -0.0700  1.8439  0.5960
  703MOL0     H92742   0.520   7.337   6.529 -1.9335 -0.0486  1.4848
  703MOL0     H92743   0.292   7.323   6.561  1.7587  0.0190 -5.2237
  703MOL0     H92744   0.361   7.219   6.681  1.2979  2.5800 -0.0340
  703MOL0     H92745   0.274   7.109   6.404  1.9808 -0.9705  0.4516
  703MOL0     H92746   0.258   7.026   6.565 -1.1174 -1.8958 -2.5488
  703MOL0     H92747   0.084   7.177   6.631  1.7679 -1.8525  1.0879
  703MOL0     H92748   0.051   7.047   6.512  0.2865 -0.0422 -0.8835
  703MOL0     H92749   0.050   7.141   6.259 -1.4360 -0.9306  0.0826
  703MOL0     H92750  -0.023   7.403   6.057 -1.1448 -2.5815 -0.9107
  703MOL0     H92751  -0.106   7.522   6.152 -1.3574  0.5822 -2.7325
  703MOL0     H92752  -0.293   7.383   6.177 -0.5854  3.6497 -1.7016
  703MOL0     H92753  -0.202   7.233   6.126 -0.4018 -0.4969 -1.2056
  703MOL0     H92754  -0.265   7.475   5.957 -0.8252  0.7782 -1.1737
  703MOL0     H92755  -0.235   7.314   5.896  0.5229  2.9076 -1.2880
  703MOL0     H92756  -0.482   7.429   6.056 -0.2370  0.7073 -1.7075
  703MOL0     H92757  -0.447   7.252   6.040  0.1648  1.1864  0.0202
  703MOL0     H92758  -0.662   7.526   5.931  1.3314 -0.3931 -1.0669
  703MOL0     H92759  -0.931   7.494   5.895 -1.8671 -2.1317  0.8310
  703MOL0     H92760  -1.238   7.414   5.502 -1.3406  3.1292 -1.0146
  703MOL0     H92761  -1.471   7.415   5.477  0.8670  0.2154 -0.3197
  703MOL0     H92762  -1.686   7.588   5.750 -0.1805 -0.3617 -0.0806
  703MOL0     H92763  -1.824   7.492   5.725  0.3607  0.6161  0.7873
  703MOL0     H92764  -1.774   7.477   5.478  2.2897 -1.5646 -0.1979
  703MOL0     H92765  -1.659   7.611   5.512 -0.7227 -0.7292 -3.0615
  703MOL0     H92766  -1.842   7.710   5.413 -3.0582  0.3888  0.1183
  703MOL0     H92767  -1.834   7.771   5.575  0.4637  2.6875 -2.3307
  703MOL0     H92768  -2.028   7.547   5.495 -5.6242  1.3839 -0.4678
  703MOL0     H92769  -1.998   7.615   5.658  1.1133  1.3608 -0.4743
  703MOL0     H92770  -2.083   7.796   5.428  0.5388 -0.6600 -0.5606
  703MOL0     H92771  -2.096   7.815   5.614  1.2931 -0.5768  0.4958
  703MOL0     H92772  -2.244   7.610   5.592  1.4127  1.5583  1.2943
  703MOL0     H92773  -2.236   7.636   5.409 -1.0682  0.5991  0.4094
  703MOL0     H92774  -2.375   7.780   5.625 -0.8971  2.5563 -0.0451
  703MOL0     H92775  -2.308   7.885   5.504  3.5634 -1.7300 -1.1592
  703MOL0     H92776  -2.421   7.771   5.318  0.4874 -3.0583  0.2034
  703MOL0     H92777  -2.536   7.839   5.436  0.3543  1.3163 -4.8689
  703MOL0     H92778  -1.520   7.384   5.899 -1.0077 -1.2499 -0.2199
  703MOL0     H92779  -1.269   7.386   5.927  1.3058  0.2934 -0.2795
  703MOL0     H92780  -0.852   7.097   5.775  0.8377 -0.3817 -1.0110
  703MOL0     H92781  -0.600   7.130   5.825 -4.8211 -4.5330  2.5849
  703MOL0     H92782   1.164   7.118   6.374 -2.5460 -0.3716 -2.2174
  703MOL0     H92783   1.397   7.070   6.309  0.4003  0.8463  0.5336
  703MOL0     H92784   1.630   6.855   5.904  1.8608  0.4290 -0.0887
  703MOL0     H92785   1.850   6.776   5.815  1.0575 -1.6606  0.1561
  703MOL0     H92786   2.092   6.778   5.794  0.5484  1.0370  2.5389
  703MOL0     H92787   2.010   6.636   5.778 -1.3611  0.5691  0.5629
  703MOL0     H92788   2.188   6.499   5.874 -2.3133 -1.0779 -0.9981
  703MOL0     H92789   2.193   6.579   5.724  0.8098  1.3891 -0.3802
  703MOL0     H92790   2.315   6.784   5.850 -0.3735  0.3194  1.1536
  703MOL0     H92791   2.416   6.634   5.834  1.5102  1.9984  0.6042
  703MOL0     H92792   2.407   6.764   6.051  0.2192 -0.5379  0.7680
  703MOL0     H92793   2.255   6.688   6.084 -0.1323  0.0505 -0.5726
  703MOL0     H92794   2.569   6.397   6.140  0.0584 -0.1808 -1.0701
  703MOL0     H92795   1.964   6.688   6.212 -0.4678  0.0428 -1.1706
  703MOL0     H92796   1.737   6.732   6.299 -2.6119 -1.5239 -0.8586
  704MOL0     O92797   6.491   2.626   6.347  0.1729 -0.0313  0.3037
  704MOL0     C92798   6.557   2.725   6.303 -0.8440  0.6040  0.9469
  704MOL0     O92799   6.522   2.799   6.194  0.0055 -0.1359  0.5142
  704MOL0     C92800   6.422   2.763   6.111 -0.0353 -0.5103 -0.2796
  704MOL0     C92801   6.434   2.638   6.038  0.0520  0.7778  0.6063
  704MOL0     C92802   6.336   2.618   5.936 -1.2448  0.4345  0.2364
  704MOL0     C92803   6.233   2.703   5.910  0.3784 -0.2663  0.4551
  704MOL0     O92804   6.130   2.671   5.818 -0.3291 -0.2743  0.3160
  704MOL0     C92805   6.034   2.595   5.878  0.4673 -0.6793 -0.8433
  704MOL0     C92806   5.903   2.661   5.831 -0.4313  0.3918 -1.2758
  704MOL0     C92807   5.784   2.589   5.875  0.4175  0.6757  0.1419
  704MOL0     C92808   5.654   2.671   5.851  1.2646  0.9251 -0.1676
  704MOL0     C92809   5.532   2.606   5.914 -0.4037  0.1572 -0.7587
  704MOL0     C92810   5.396   2.659   5.863  0.5097  0.7554 -0.0475
  704MOL0     C92811   5.326   2.745   5.973 -0.3442  0.2222 -0.6247
  704MOL0     C92812   5.322   2.681   6.108 -0.0839  0.6698 -0.9744
  704MOL0     N92813   5.274   2.545   6.105 -0.1686 -0.3322 -0.2118
  704MOL0     C92814   5.140   2.527   6.077  0.6283 -0.0322 -0.4331
  704MOL0     C92815   5.102   2.411   6.143  0.9161 -0.1346  0.7034
  704MOL0     C92816   4.948   2.377   6.143 -0.9716  0.7155  0.8256
  704MOL0     C92817   4.890   2.381   6.005 -0.0183  0.5747 -0.1731
  704MOL0     C92818   4.766   2.301   5.999 -0.7774  0.0907 -0.0221
  704MOL0     C92819   4.720   2.282   5.852  0.5488 -0.4277  0.3364
  704MOL0     O92820   4.659   2.411   5.815  0.2264  0.5934  0.2414
  704MOL0     C92821   4.565   2.410   5.717 -0.4897  1.0294  0.0665
  704MOL0     C92822   4.489   2.523   5.710  0.3689  0.5321  0.0332
  704MOL0     C92823   4.386   2.529   5.612 -0.6451  0.0217  0.8241
  704MOL0     C92824   4.373   2.430   5.514  0.1545  0.7978  0.3760
  704MOL0     C92825   4.264   2.438   5.410  0.7360  0.4041  0.0372
  704MOL0     O92826   4.161   2.515   5.446 -1.1267  0.3870  0.4746
  704MOL0     C92827   4.036   2.514   5.384 -0.2423  0.9333 -1.1176
  704MOL0     C92828   3.925   2.446   5.438  0.9001  0.2446  0.8016
  704MOL0     C92829   3.803   2.451   5.367  0.4619  0.1423 -0.0656
  704MOL0     C92830   3.786   2.510   5.239 -0.4810  0.4255 -0.1764
  704MOL0     O92831   3.665   2.510   5.167 -0.4808  0.1826  0.4562
  704MOL0     C92832   3.580   2.391   5.185  0.3458 -0.1018  0.3642
  704MOL0     C92833   3.480   2.371   5.064 -0.2857 -0.6602 -0.1569
  704MOL0     C92834   3.382   2.486   5.041  0.9996 -0.0784  0.2045
  704MOL0     C92835   3.271   2.456   4.937  0.7912 -0.1564 -0.7396
  704MOL0     C92836   3.320   2.459   4.797 -0.3591  0.1972  0.0479
  704MOL0     C92837   3.214   2.414   4.687  0.5780 -0.3837  0.3430
  704MOL0     C92838   3.256   2.452   4.537  0.0759  0.5366 -1.2123
  704MOL0     C92839   3.253   2.597   4.499  0.0526 -0.5950 -0.2828
  704MOL0    Cl92840   3.086   2.651   4.479 -0.0706  0.3326 -0.3175
  704MOL0     C92841   3.889   2.594   5.204  0.4050  1.0089 -0.4140
  704MOL0     C92842   4.009   2.591   5.271  0.0668 -0.0522  0.3850
  704MOL0     O92843   4.269   2.367   5.314  0.6939 -0.3690 -0.0127
  704MOL0     C92844   4.466   2.330   5.504  0.0633  0.4247  0.1641
  704MOL0     C92845   4.559   2.317   5.607 -0.2112 -0.2759  0.6737
  704MOL0     N92846   5.212   2.368   6.214  0.0910 -0.4952  0.7832
  704MOL0     N92847   5.309   2.451   6.192 -0.0316  0.1297 -0.5744
  704MOL0     C92848   6.223   2.819   5.982  0.2778 -0.1294 -0.2829
  704MOL0     C92849   6.320   2.863   6.076 -0.3179 -0.6440  0.0450
  704MOL0     C92850   6.684   2.752   6.384  0.6894 -0.2086  0.2808
  704MOL0     C92851   6.769   2.646   6.400  0.1016  1.2085 -0.5629
  704MOL0     C92852   6.889   2.662   6.457  1.0573 -0.6317 -0.1958
  704MOL0     C92853   6.931   2.792   6.505 -0.7204  0.1182  0.8198
  704MOL0     O92854   7.056   2.797   6.555  0.1062  0.2419  0.3055
  704MOL0     C92855   7.097   2.698   6.664 -0.2267  0.1494  0.0715
  704MOL0     C92856   7.134   2.769   6.799  0.7385  0.1120  0.6184
  704MOL0     C92857   7.198   2.908   6.780 -0.5136 -0.1212  0.3594
  704MOL0     C92858   7.323   2.916   6.702 -0.2805 -0.1113 -0.4425
  704MOL0     C92859   7.408   2.802   6.719 -0.8968 -0.2252  0.1055
  704MOL0     C92860   7.490   2.714   6.742 -0.1501  0.0042 -0.4755
  704MOL0     C92861   6.845   2.904   6.491  0.4632  0.6814  0.3425
  704MOL0     C92862   6.723   2.881   6.425  0.5452 -0.2669 -0.8954
  704MOL0     H92863   6.509   2.562   6.055 -1.2178 -0.5751  0.3902
  704MOL0     H92864   6.326   2.527   5.878 -2.4761 -0.7790  2.2334
  704MOL0     H92865   6.035   2.600   5.987  0.1961  3.8814 -0.8310
  704MOL0     H92866   6.042   2.495   5.837 -2.2327 -1.5584  0.5016
  704MOL0     H92867   5.914   2.660   5.722  3.3802 -2.8563 -1.1000
  704MOL0     H92868   5.901   2.763   5.870 -3.0882 -0.2279  0.4570
  704MOL0     H92869   5.801   2.553   5.976  0.4426  1.0924  0.2872
  704MOL0     H92870   5.773   2.495   5.821  1.0713  2.3665 -3.2370
  704MOL0     H92871   5.671   2.774   5.883  0.4672  0.6071  1.4365
  704MOL0     H92872   5.640   2.666   5.743  4.3975  1.1651 -0.6824
  704MOL0     H92873   5.549   2.600   6.022  3.4729  1.0437 -1.1878
  704MOL0     H92874   5.542   2.504   5.877  1.6817  0.6877 -1.8104
  704MOL0     H92875   5.338   2.567   5.850 -0.7959  1.3940  1.0441
  704MOL0     H92876   5.406   2.703   5.763  3.4806 -0.5981 -0.4685
  704MOL0     H92877   5.380   2.839   5.984 -1.6317  1.3042 -2.8791
  704MOL0     H92878   5.222   2.766   5.944 -0.3561 -0.5756 -1.1925
  704MOL0     H92879   5.253   2.730   6.178 -0.9426 -3.0331  1.0212
  704MOL0     H92880   5.415   2.680   6.164 -1.2613  0.4026  1.0610
  704MOL0     H92881   5.087   2.599   6.016  2.1910 -0.4679 -2.4018
  704MOL0     H92882   4.898   2.440   6.217 -1.2742  0.9161  0.4502
  704MOL0     H92883   4.945   2.275   6.183 -2.4138  0.4262  0.0200
  704MOL0     H92884   4.964   2.343   5.933  0.9685  2.3016 -0.1390
  704MOL0     H92885   4.868   2.486   5.985  4.6944  1.5156 -1.8629
  704MOL0     H92886   4.776   2.201   6.041 -2.6718 -0.5968 -1.0694
  704MOL0     H92887   4.679   2.347   6.047  1.1143  3.5534  0.4231
  704MOL0     H92888   4.646   2.202   5.844 -1.0145  1.0186 -0.3163
  704MOL0     H92889   4.811   2.269   5.794  1.1327 -2.3261  1.5991
  704MOL0     H92890   4.492   2.609   5.776 -0.6725  1.0252 -0.5275
  704MOL0     H92891   4.325   2.617   5.595 -1.5241 -0.7037  0.1133
  704MOL0     H92892   3.921   2.385   5.528 -2.0082  1.0020  1.2973
  704MOL0     H92893   3.723   2.383   5.394  0.3399  0.3346  0.0616
  704MOL0     H92894   3.526   2.395   5.280  1.9563 -0.8188  1.3657
  704MOL0     H92895   3.645   2.303   5.189 -3.0141 -3.0614 -2.5626
  704MOL0     H92896   3.430   2.276   5.088 -0.1370 -0.0728  2.8998
  704MOL0     H92897   3.525   2.378   4.965 -0.4256  3.9111 -0.1017
  704MOL0     H92898   3.435   2.578   5.016  1.5906  0.6539  3.5877
  704MOL0     H92899   3.338   2.507   5.139 -0.9708 -4.8040  0.6286
  704MOL0     H92900   3.237   2.354   4.955 -2.6271  1.1914  1.2829
  704MOL0     H92901   3.188   2.527   4.939 -0.2068 -1.2476 -1.7048
  704MOL0     H92902   3.406   2.391   4.786 -0.2770  0.6712 -4.3285
  704MOL0     H92903   3.357   2.560   4.777 -0.0448  0.9868  3.9221
  704MOL0     H92904   3.119   2.455   4.724  1.6220  0.7506  1.8962
  704MOL0     H92905   3.204   2.305   4.691 -2.6352 -0.1876 -0.0143
  704MOL0     H92906   3.359   2.415   4.528 -0.2956 -0.9580  0.1122
  704MOL0     H92907   3.200   2.396   4.462 -0.7762 -0.8591  0.4097
  704MOL0     H92908   3.318   2.629   4.418 -0.9089  0.9914 -0.4660
  704MOL0     H92909   3.306   2.649   4.579  3.0408  0.7075 -2.9034
  704MOL0     H92910   3.871   2.657   5.117 -2.2828 -0.6464 -1.2177
  704MOL0     H92911   4.093   2.646   5.228 -1.8200 -0.1688 -3.9603
  704MOL0     H92912   4.465   2.259   5.422  0.0589 -1.3076  1.6039
  704MOL0     H92913   4.618   2.226   5.613  1.3416  0.7813  2.1929
  704MOL0     H92914   6.138   2.884   5.969  3.0793  4.5499  2.1231
  704MOL0     H92915   6.308   2.959   6.124 -1.2896 -1.1332  0.8211
  704MOL0     H92916   6.740   2.545   6.371  2.8374  0.3718 -0.6054
  704MOL0     H92917   6.965   2.585   6.449  3.3508  1.4762 -0.1787
  704MOL0     H92918   7.186   2.645   6.629 -1.5510 -1.2951 -1.2713
  704MOL0     H92919   7.029   2.620   6.700  0.0712  0.4775  1.4024
  704MOL0     H92920   7.041   2.779   6.854  1.0198  0.8045  0.9693
  704MOL0     H92921   7.200   2.699   6.852  2.3505  0.7829 -0.4057
  704MOL0     H92922   7.216   2.940   6.883  0.8655 -2.2662  0.8577
  704MOL0     H92923   7.119   2.975   6.746 -1.7320 -0.6578  2.0507
  704MOL0     H92924   7.283   2.906   6.600  0.4832  1.6704 -0.9469
  704MOL0     H92925   7.365   3.017   6.703 -2.8447  1.0704  2.3824
  704MOL0     H92926   7.566   2.641   6.764  0.5546  0.5715 -0.9770
  704MOL0     H92927   6.881   3.002   6.521  0.5779  0.3458  1.3699
  704MOL0     H92928   6.672   2.973   6.396  1.8721  0.3518 -1.3965
  705MOL0     O92929   1.990   0.175   5.849 -0.4627  0.5333  0.3255
  705MOL0     C92930   2.106   0.195   5.814  0.3495  0.7622 -0.0031
  705MOL0     O92931   2.167   0.315   5.827  1.2131 -0.5215 -1.2180
  705MOL0     C92932   2.107   0.423   5.891 -0.5389  0.2119  0.0100
  705MOL0     C92933   1.977   0.465   5.872 -0.0647 -0.1597  0.1046
  705MOL0     C92934   1.943   0.593   5.911 -0.4428  0.1762 -0.5548
  705MOL0     C92935   2.030   0.675   5.983 -0.9682  0.2437  1.4156
  705MOL0     O92936   2.006   0.803   6.016  0.2334  0.1233 -0.5640
  705MOL0     C92937   1.879   0.866   5.978  0.2281 -0.1112 -0.3370
  705MOL0     C92938   1.875   1.005   6.040  0.1502 -0.8318 -0.2298
  705MOL0     C92939   1.767   1.086   5.967  0.5965 -0.7703  0.8929
  705MOL0     C92940   1.807   1.123   5.815 -0.4224 -0.1959 -0.1783
  705MOL0     C92941   1.723   1.224   5.752  0.2009  0.4205  0.5732
  705MOL0     C92942   1.781   1.267   5.611  0.0780 -0.7315 -0.1473
  705MOL0     C92943   1.696   1.381   5.543  0.4508  0.2382 -0.4662
  705MOL0     C92944   1.772   1.442   5.424  0.3285  0.4752  0.9912
  705MOL0     N92945   1.668   1.516   5.343  0.2963  1.1251  0.2853
  705MOL0     C92946   1.549   1.463   5.294  0.4120 -0.5476  1.2412
  705MOL0     C92947   1.478   1.569   5.241  0.6245 -0.2988  0.9607
  705MOL0     C92948   1.346   1.560   5.172  0.0223  0.3051  0.1286
  705MOL0     C92949   1.362   1.494   5.032 -1.0561 -0.1438  0.8540
  705MOL0     C92950   1.236   1.427   4.981 -0.4105  0.6697 -0.3176
  705MOL0     C92951   1.125   1.521   4.942  0.3234 -0.5620 -1.3498
  705MOL0     O92952   1.164   1.635   4.862  0.2413 -0.0674  0.4975
  705MOL0     C92953   1.072   1.703   4.789  0.3013 -0.0224  0.2601
  705MOL0     C92954   0.935   1.668   4.789 -0.0069 -0.6722  0.3599
  705MOL0     C92955   0.853   1.749   4.709  0.1179  0.2431 -0.4742
  705MOL0     C92956   0.902   1.858   4.635 -0.2611 -0.2579  0.3629
  705MOL0     C92957   0.818   1.930   4.531  0.1002 -1.0388 -0.5064
  705MOL0     O92958   0.697   1.878   4.523 -0.3615  0.4684 -0.1618
  705MOL0     C92959   0.615   1.886   4.416 -0.0396  0.1186 -0.6356
  705MOL0     C92960   0.483   1.840   4.424 -0.3156  0.1868  0.0077
  705MOL0     C92961   0.400   1.846   4.307  0.0997 -0.6743 -0.7141
  705MOL0     C92962   0.451   1.925   4.198  0.7950  0.3747 -0.6006
  705MOL0     O92963   0.364   1.930   4.086 -0.3851 -0.2243 -0.1475
  705MOL0     C92964   0.353   2.063   4.030 -0.6383  1.1011 -0.4005
  705MOL0     C92965   0.250   2.060   3.915  0.5733  1.3161 -0.4857
  705MOL0     C92966   0.225   2.197   3.853  0.1030  0.4028 -0.3973
  705MOL0     C92967   0.127   2.203   3.739 -0.2830  0.2225 -0.0094
  705MOL0     C92968   0.113   2.341   3.667 -0.6850  0.5583 -0.0517
  705MOL0     C92969   0.017   2.351   3.547 -0.7616 -1.0558 -1.1227
  705MOL0     C92970  -0.014   2.499   3.504  0.2644  0.2703 -0.1687
  705MOL0     C92971  -0.074   2.489   3.365 -0.0889  0.1760 -0.2991
  705MOL0    Cl92972  -0.225   2.398   3.388  0.2792 -0.3450  0.0707
  705MOL0     C92973   0.581   1.953   4.185 -0.6260 -0.4879  0.1764
  705MOL0     C92974   0.663   1.934   4.295 -0.1449  0.4961  0.0173
  705MOL0     O92975   0.854   2.040   4.473 -0.0742  0.6826  0.6197
  705MOL0     C92976   1.036   1.887   4.632  0.1532 -0.1351 -0.4413
  705MOL0     C92977   1.112   1.807   4.707  0.4654 -0.1032  0.0029
  705MOL0     N92978   1.557   1.681   5.251 -0.1826 -0.4485  0.3035
  705MOL0     N92979   1.661   1.650   5.324  0.4677  0.2662  0.0290
  705MOL0     C92980   2.152   0.624   6.029  0.3865  0.1425 -0.6653
  705MOL0     C92981   2.192   0.503   5.977 -0.9498 -0.0007 -0.0421
  705MOL0     C92982   2.182   0.080   5.764 -0.7907 -0.3297 -0.2750
  705MOL0     C92983   2.122  -0.033   5.705 -0.1164  0.8865 -0.2876
  705MOL0     C92984   2.201  -0.137   5.649  0.1136  0.2906 -0.3648
  705MOL0     C92985   2.344  -0.129   5.649  0.0266 -0.1712  0.6847
  705MOL0     O92986   2.426  -0.225   5.598 -0.3472  0.3943  0.3179
  705MOL0     C92987   2.381  -0.324   5.499 -0.3279  0.2130 -0.1870
  705MOL0     C92988   2.500  -0.393   5.431 -0.1230  0.6481 -0.8575
  705MOL0     C92989   2.570  -0.310   5.319  0.4256  0.2768  1.5184
  705MOL0     C92990   2.635  -0.196   5.382 -0.0831 -0.4825 -0.4193
  705MOL0     C92991   2.685  -0.115   5.276 -0.2437  0.6476 -0.3281
  705MOL0     C92992   2.708  -0.043   5.184  0.1234  0.4956  0.1784
  705MOL0     C92993   2.400  -0.022   5.716  0.1543 -0.5502  0.7368
  705MOL0     C92994   2.321   0.081   5.765 -0.9087  0.0458 -0.3621
  705MOL0     H92995   1.905   0.407   5.815  0.3009  0.6783 -1.2569
  705MOL0     H92996   1.850   0.644   5.887 -0.7112  1.6919  3.0400
  705MOL0     H92997   1.799   0.801   6.015  1.3247 -3.6667 -3.5535
  705MOL0     H92998   1.872   0.866   5.869 -2.0806 -1.0816 -0.2397
  705MOL0     H92999   1.969   1.061   6.028 -0.9298  2.2149  3.6750
  705MOL0     H93000   1.845   1.005   6.145  0.1525  2.7683 -0.1054
  705MOL0     H93001   1.766   1.182   6.020  1.0060  0.1202 -0.6563
  705MOL0     H93002   1.677   1.026   5.980  2.5854 -3.6860  2.4227
  705MOL0     H93003   1.908   1.162   5.829 -0.4174 -1.1512  3.6988
  705MOL0     H93004   1.803   1.036   5.749  0.2788 -1.4239  1.3353
  705MOL0     H93005   1.709   1.314   5.813  0.5315  1.2601 -0.5483
  705MOL0     H93006   1.623   1.184   5.733  0.7651 -1.1713  0.8610
  705MOL0     H93007   1.785   1.181   5.543  0.9343 -0.3617 -0.5697
  705MOL0     H93008   1.880   1.312   5.620 -0.1064  0.5594 -3.2050
  705MOL0     H93009   1.595   1.339   5.536  0.3820  0.0899  1.0688
  705MOL0     H93010   1.673   1.469   5.603 -1.5724  1.2654 -2.5828
  705MOL0     H93011   1.811   1.364   5.357  0.0313 -2.0491  3.5384
  705MOL0     H93012   1.859   1.504   5.446 -1.7514  3.1316  2.2250
  705MOL0     H93013   1.507   1.364   5.308 -0.5078 -0.6888 -1.8323
  705MOL0     H93014   1.299   1.659   5.163  1.2671  1.1798  2.4539
  705MOL0     H93015   1.274   1.502   5.231  1.2138 -1.1372  0.2145
  705MOL0     H93016   1.438   1.415   5.033  1.4065  2.1027  0.7480
  705MOL0     H93017   1.400   1.570   4.964 -1.2669 -0.0405  0.8488
  705MOL0     H93018   1.265   1.372   4.891 -0.8467  0.2527 -0.2046
  705MOL0     H93019   1.198   1.363   5.061 -1.7398  2.5811  0.6769
  705MOL0     H93020   1.086   1.572   5.030  3.8310  1.1513 -0.6275
  705MOL0     H93021   1.041   1.464   4.901 -0.8626 -0.2584  0.5507
  705MOL0     H93022   0.897   1.583   4.845  2.4822 -1.6681  0.6597
  705MOL0     H93023   0.749   1.716   4.708  0.7265 -1.8370  0.2986
  705MOL0     H93024   0.454   1.788   4.515 -0.6717 -2.4473 -1.5023
  705MOL0     H93025   0.301   1.803   4.297 -0.3654  0.0872  0.4395
  705MOL0     H93026   0.453   2.092   3.995  0.2225  1.3620  2.0217
  705MOL0     H93027   0.322   2.130   4.111  0.3624 -0.6020  1.4834
  705MOL0     H93028   0.157   2.025   3.960  0.7118  0.2552 -1.0001
  705MOL0     H93029   0.272   1.988   3.836 -0.2099  0.0088  0.4387
  705MOL0     H93030   0.320   2.234   3.813  1.0765  2.6672  3.4354
  705MOL0     H93031   0.178   2.260   3.930 -0.2862 -0.9994  0.5491
  705MOL0     H93032   0.164   2.149   3.651  0.3929  1.2642 -0.3786
  705MOL0     H93033   0.027   2.163   3.758  0.8848 -2.1404  1.7097
  705MOL0     H93034   0.215   2.368   3.638 -0.5051  1.6584  1.4672
  705MOL0     H93035   0.080   2.402   3.751 -2.3918 -2.1683  1.3979
  705MOL0     H93036  -0.084   2.318   3.574 -1.5585  0.5523 -1.9742
  705MOL0     H93037   0.063   2.301   3.461  1.0450  2.5069 -2.4268
  705MOL0     H93038  -0.084   2.545   3.575 -1.0105 -1.3880 -0.2977
  705MOL0     H93039   0.077   2.559   3.492  0.2516  0.2526 -0.3570
  705MOL0     H93040  -0.017   2.437   3.288  1.0717  0.7145  0.1727
  705MOL0     H93041  -0.087   2.596   3.345 -2.7598 -0.5336 -3.1711
  705MOL0     H93042   0.620   1.992   4.092 -0.0172  2.7308  1.6432
  705MOL0     H93043   0.769   1.950   4.274 -0.0148 -1.6114 -1.2557
  705MOL0     H93044   1.091   1.951   4.564  2.1438 -1.0950  0.2139
  705MOL0     H93045   1.214   1.843   4.699 -0.2071  1.7124 -0.9740
  705MOL0     H93046   2.201   0.678   6.110  0.5435  0.0017 -0.6667
  705MOL0     H93047   2.293   0.476   6.007 -0.1636  2.7862  0.1002
  705MOL0     H93048   2.013  -0.037   5.711 -0.1775 -2.4804 -1.5079
  705MOL0     H93049   2.143  -0.224   5.619 -2.9166  2.7377 -2.1706
  705MOL0     H93050   2.311  -0.281   5.428  0.0536  3.9712  1.4585
  705MOL0     H93051   2.318  -0.394   5.554 -0.1267  0.2630  0.1115
  705MOL0     H93052   2.572  -0.419   5.509 -0.0038  0.9830 -0.8577
  705MOL0     H93053   2.449  -0.484   5.397  0.2466  0.4475 -0.8758
  705MOL0     H93054   2.493  -0.282   5.247  1.2964 -0.3596  0.3143
  705MOL0     H93055   2.639  -0.363   5.253 -0.8897  3.6633 -3.0406
  705MOL0     H93056   2.568  -0.133   5.441 -0.4034 -1.3318  0.1434
  705MOL0     H93057   2.720  -0.226   5.445 -0.0586 -1.6345 -0.9809
  705MOL0     H93058   2.731   0.022   5.102 -1.2633  1.1805  0.3032
  705MOL0     H93059   2.508  -0.025   5.715  0.1939  0.5434  0.5804
  705MOL0     H93060   2.365   0.175   5.797 -0.2183  1.1217 -3.9609
  706MOL0     O93061  10.228   9.838   0.183  0.1906  0.2008  0.5856
  706MOL0     C93062  10.200   9.957   0.185 -0.4671 -0.1024 -0.5274
  706MOL0     O93063  10.294  10.058   0.204  0.1351 -0.4815  0.3517
  706MOL0     C93064  10.425  10.027   0.180  0.5130  0.0935  0.5230
  706MOL0     C93065  10.517   9.991   0.278  1.2332 -0.4455  0.5412
  706MOL0     C93066  10.645   9.976   0.254 -0.2967  0.8829 -0.5540
  706MOL0     C93067  10.688   9.972   0.124  0.1937 -0.1049 -0.3698
  706MOL0     O93068  10.819   9.955   0.101  0.4118 -0.6677 -0.4916
  706MOL0     C93069  10.862   9.874  -0.005  0.2149 -0.2492  0.3819
  706MOL0     C93070  10.918   9.959  -0.122  0.5655  0.2453  0.2903
  706MOL0     C93071  11.045  10.035  -0.094  0.2026 -0.0977 -0.5473
  706MOL0     C93072  11.099  10.110  -0.218 -0.0144  0.9107  0.1761
  706MOL0     C93073  11.251  10.131  -0.173 -0.2471 -0.1221 -0.1888
  706MOL0     C93074  11.337  10.218  -0.266  0.3326  0.4957 -0.6390
  706MOL0     C93075  11.451  10.267  -0.184  0.3618  0.0356 -0.9051
  706MOL0     C93076  11.548  10.362  -0.254  0.4719  0.2518 -0.0826
  706MOL0     N93077  11.600  10.288  -0.368 -0.0581 -0.3303 -0.4613
  706MOL0     C93078  11.564  10.305  -0.494 -0.1392 -0.2099  1.0282
  706MOL0     C93079  11.636  10.211  -0.560 -0.8217  0.2709 -0.5457
  706MOL0     C93080  11.655  10.189  -0.708 -1.0657 -0.6061  0.3683
  706MOL0     C93081  11.636  10.039  -0.754  0.2916 -0.2980  0.3222
  706MOL0     C93082  11.479  10.005  -0.767 -0.8881  0.3425  0.1002
  706MOL0     C93083  11.437   9.912  -0.650  0.8323  0.5756  0.6634
  706MOL0     O93084  11.298   9.876  -0.653  0.1117  0.3616  0.3037
  706MOL0     C93085  11.199   9.958  -0.619 -0.1814  0.8472  0.6068
  706MOL0     C93086  11.071   9.903  -0.606  0.2290 -1.1010  1.0347
  706MOL0     C93087  10.963   9.984  -0.568  0.0885  0.1616 -0.5567
  706MOL0     C93088  10.973  10.119  -0.547  0.1699 -1.5351  0.6467
  706MOL0     C93089  10.865  10.201  -0.492  0.2269 -0.3724  0.1190
  706MOL0     O93090  10.750  10.134  -0.460  0.0102  0.2685  0.3670
  706MOL0     C93091  10.650  10.211  -0.418  0.0925 -0.0872  0.2062
  706MOL0     C93092  10.643  10.262  -0.287 -0.3557 -0.2019  0.3067
  706MOL0     C93093  10.540  10.341  -0.233 -0.7546  0.3575  0.5231
  706MOL0     C93094  10.441  10.365  -0.322 -0.1344  0.2346 -0.0165
  706MOL0     O93095  10.321  10.435  -0.285 -0.3653  0.1087  0.9572
  706MOL0     C93096  10.274  10.423  -0.155 -0.5560 -0.6876  0.1953
  706MOL0     C93097  10.140  10.478  -0.144  0.0623 -0.0225 -0.2178
  706MOL0     C93098  10.145  10.634  -0.179 -0.1485 -0.0053 -1.0526
  706MOL0     C93099  10.007  10.705  -0.202  0.0351 -0.8268  0.0067
  706MOL0     C93100  10.032  10.844  -0.276 -0.5281 -0.1075 -0.2897
  706MOL0     C93101  10.064  10.954  -0.180  0.4064  0.5572  0.2480
  706MOL0     C93102  10.034  11.088  -0.240 -0.3470  0.6431  1.0006
  706MOL0     C93103   9.891  11.130  -0.232 -0.4871 -0.2068  0.0053
  706MOL0    Cl93104   9.850  11.176  -0.061  0.3516  0.1126 -0.3102
  706MOL0     C93105  10.450  10.323  -0.457  0.9442  0.3370  0.0091
  706MOL0     C93106  10.556  10.247  -0.512  0.4419  0.4709 -1.0169
  706MOL0     O93107  10.891  10.316  -0.461 -0.1707 -0.0047  0.6369
  706MOL0     C93108  11.105  10.175  -0.554  0.2515  0.4401 -1.2089
  706MOL0     C93109  11.216  10.094  -0.585  0.9333  0.4923 -0.1190
  706MOL0     N93110  11.728  10.147  -0.467  0.4975 -0.0388  0.3884
  706MOL0     N93111  11.696  10.202  -0.356  0.0173 -0.2930  0.1884
  706MOL0     C93112  10.611  10.005   0.013  0.2304 -0.2980  0.3827
  706MOL0     C93113  10.475  10.029   0.046  0.0544 -0.7723  0.0223
  706MOL0     C93114  10.057  10.011   0.194 -0.4272  0.0546  0.0080
  706MOL0     C93115   9.947   9.927   0.183 -0.5529 -0.0991 -0.1162
  706MOL0     C93116   9.821   9.970   0.171  0.2753 -0.7098 -0.2209
  706MOL0     C93117   9.783  10.106   0.192 -0.3393  0.6701  0.4948
  706MOL0     O93118   9.646  10.141   0.188  0.0158  0.0294  0.4197
  706MOL0     C93119   9.551  10.031   0.168 -0.2049 -0.3207 -0.4013
  706MOL0     C93120   9.418  10.098   0.178 -0.0358 -0.2702  0.8167
  706MOL0     C93121   9.311  10.009   0.146 -0.1985 -0.3590 -0.2676
  706MOL0     C93122   9.186  10.097   0.117  0.5358  0.4553  0.3936
  706MOL0     C93123   9.066  10.029   0.082 -0.0167  1.0620 -0.3418
  706MOL0     C93124   8.963   9.971   0.052 -0.5474  0.4889  0.0064
  706MOL0     C93125   9.894  10.190   0.212 -0.0255  0.2168 -0.5873
  706MOL0     C93126  10.021  10.146   0.217  0.0981  0.0116 -0.1902
  706MOL0     H93127  10.491   9.966   0.380  2.6675  0.9886  1.3044
  706MOL0     H93128  10.713   9.952   0.336 -1.1226 -0.3771 -0.2018
  706MOL0     H93129  10.786   9.819  -0.060 -1.1293  1.8679  0.0035
  706MOL0     H93130  10.937   9.803   0.031 -0.8455 -2.3435 -1.3328
  706MOL0     H93131  10.839  10.029  -0.149 -1.9994 -1.9317  1.6885
  706MOL0     H93132  10.926   9.891  -0.208  1.3151  0.0123  0.5372
  706MOL0     H93133  11.123   9.978  -0.042 -2.4989 -2.2767  1.4110
  706MOL0     H93134  11.019  10.111  -0.020  0.2518 -0.5642 -0.0422
  706MOL0     H93135  11.094  10.054  -0.312  2.0006 -2.4714  1.8647
  706MOL0     H93136  11.042  10.202  -0.229  1.0840  1.4811 -1.1054
  706MOL0     H93137  11.300  10.033  -0.167 -0.8093 -0.4230 -0.4273
  706MOL0     H93138  11.261  10.179  -0.076 -0.8336 -0.0822 -0.1453
  706MOL0     H93139  11.278  10.298  -0.312  1.5190  2.1112  0.5295
  706MOL0     H93140  11.380  10.150  -0.340  1.1463  1.5877 -1.2094
  706MOL0     H93141  11.412  10.316  -0.095  1.7457 -0.1010 -0.1954
  706MOL0     H93142  11.508  10.190  -0.131 -1.5037 -1.5118 -1.0399
  706MOL0     H93143  11.629  10.404  -0.194 -0.6624  3.5903 -0.6416
  706MOL0     H93144  11.484  10.448  -0.278  0.0019  0.1583  0.8265
  706MOL0     H93145  11.488  10.372  -0.532  1.7660  1.3601 -0.2264
  706MOL0     H93146  11.754  10.220  -0.741 -0.1234  0.2066  3.6181
  706MOL0     H93147  11.587  10.261  -0.755  2.3129  2.5482 -0.1390
  706MOL0     H93148  11.680   9.979  -0.673 -0.6916  0.9556  1.8415
  706MOL0     H93149  11.692  10.009  -0.843 -0.7507  1.8126 -1.1152
  706MOL0     H93150  11.419  10.096  -0.780 -1.0969  0.2540  0.4345
  706MOL0     H93151  11.461   9.947  -0.859 -3.4567  0.9520  0.1369
  706MOL0     H93152  11.448   9.963  -0.554 -0.5392  1.3929  0.4160
  706MOL0     H93153  11.504   9.825  -0.648  1.1333  0.7917  0.0534
  706MOL0     H93154  11.041   9.799  -0.618  0.3765 -0.9711 -0.7967
  706MOL0     H93155  10.865   9.937  -0.562  0.5728 -0.7550  0.5568
  706MOL0     H93156  10.727  10.251  -0.219 -0.0821  2.0996  0.3909
  706MOL0     H93157  10.540  10.370  -0.129  0.2434  1.3205  0.2748
  706MOL0     H93158  10.333  10.482  -0.084  0.4674 -0.7835 -0.5428
  706MOL0     H93159  10.276  10.317  -0.128  0.5452 -0.9345 -0.7476
  706MOL0     H93160  10.110  10.459  -0.041  1.2354  1.0132  0.3557
  706MOL0     H93161  10.069  10.427  -0.209 -0.1061  1.3387 -1.1390
  706MOL0     H93162  10.191  10.642  -0.278 -0.1353  0.6642 -1.0021
  706MOL0     H93163  10.204  10.695  -0.109  0.1302  0.9532 -2.0960
  706MOL0     H93164   9.941  10.635  -0.254  0.0048 -2.6647  2.3995
  706MOL0     H93165   9.966  10.718  -0.101  0.7336 -0.2941  0.2307
  706MOL0     H93166   9.943  10.878  -0.329 -1.5591  1.1056  2.1061
  706MOL0     H93167  10.117  10.839  -0.346 -0.4489 -0.1495 -0.1919
  706MOL0     H93168  10.165  10.959  -0.139  0.3529 -2.1140  0.8925
  706MOL0     H93169   9.996  10.947  -0.095  0.3195  1.5041  0.2705
  706MOL0     H93170  10.101  11.167  -0.206  0.9272  0.7304 -1.4768
  706MOL0     H93171  10.062  11.075  -0.345  0.1311 -3.0801  1.4384
  706MOL0     H93172   9.811  11.062  -0.263 -0.6849 -0.7960  1.7004
  706MOL0     H93173   9.870  11.208  -0.306 -2.8370 -0.9086 -0.1557
  706MOL0     H93174  10.366  10.344  -0.522  1.7324 -0.5023 -1.3430
  706MOL0     H93175  10.574  10.207  -0.611  1.0703 -1.8067 -0.0535
  706MOL0     H93176  11.120  10.281  -0.535  0.4574  0.0539  1.0810
  706MOL0     H93177  11.310  10.148  -0.593  0.2154  1.9029  0.7124
  706MOL0     H93178  10.629  10.006  -0.094  0.7006  0.2790  0.4639
  706MOL0     H93179  10.398  10.050  -0.027  0.6951  4.9855  0.5478
  706MOL0     H93180   9.959   9.822   0.158 -1.8615  0.0583 -1.6383
  706MOL0     H93181   9.740   9.904   0.142 -1.4429  1.3532 -0.3765
  706MOL0     H93182   9.560   9.955   0.246 -2.5051 -0.9813 -0.7010
  706MOL0     H93183   9.562   9.995   0.066 -0.8485  1.8234 -1.2933
  706MOL0     H93184   9.403  10.136   0.280  0.8132  1.5590  0.3102
  706MOL0     H93185   9.417  10.185   0.111  2.2039 -0.9783 -0.2345
  706MOL0     H93186   9.280   9.935   0.220 -0.2986 -0.3670 -0.3165
  706MOL0     H93187   9.337   9.952   0.057 -0.2752 -1.4242  0.3798
  706MOL0     H93188   9.170  10.156   0.207 -1.4088  1.4723 -0.5401
  706MOL0     H93189   9.198  10.167   0.034  0.2634  1.4563  1.1882
  706MOL0     H93190   8.867   9.938   0.019  0.2719 -0.0230 -1.9454
  706MOL0     H93191   9.884  10.297   0.223  0.8957  0.3924 -1.3543
  706MOL0     H93192  10.097  10.223   0.224 -0.0996  0.3187 -1.2956
  707MOL0     O93193   6.571   3.472  11.309 -0.3327  0.5344  0.5569
  707MOL0     C93194   6.602   3.551  11.221 -0.4728  1.4507 -0.8122
  707MOL0     O93195   6.523   3.653  11.177  0.2541 -0.0888  1.1058
  707MOL0     C93196   6.387   3.651  11.202 -0.7348  0.4099  0.6728
  707MOL0     C93197   6.332   3.773  11.160  0.5957  0.0270 -0.3400
  707MOL0     C93198   6.188   3.790  11.155 -0.8772 -0.1552 -0.6855
  707MOL0     C93199   6.117   3.694  11.229  1.2788  1.2045 -0.0752
  707MOL0     O93200   5.983   3.712  11.269 -0.4479 -0.4316 -0.0047
  707MOL0     C93201   5.916   3.819  11.192 -0.8283 -0.1270  0.3434
  707MOL0     C93202   5.774   3.846  11.249  0.4443  0.1103  0.6765
  707MOL0     C93203   5.748   3.972  11.327 -0.6554 -0.7361 -1.0831
  707MOL0     C93204   5.596   3.973  11.358  0.4705  0.7820  0.5379
  707MOL0     C93205   5.552   4.098  11.424  0.2128 -0.1187 -0.3512
  707MOL0     C93206   5.398   4.085  11.453  0.0874 -0.5728 -0.5394
  707MOL0     C93207   5.323   4.215  11.472 -0.5952  0.1444 -0.1043
  707MOL0     C93208   5.190   4.204  11.540 -0.6155  0.1245 -1.0183
  707MOL0     N93209   5.099   4.137  11.454  1.0297 -0.0096  0.1770
  707MOL0     C93210   5.013   4.205  11.365 -0.3017 -0.6603 -0.1558
  707MOL0     C93211   4.943   4.105  11.312 -0.0646 -0.8178  0.3901
  707MOL0     C93212   4.846   4.111  11.204 -0.0650  0.7726 -0.2838
  707MOL0     C93213   4.719   4.165  11.249  0.2357  0.5424  0.8818
  707MOL0     C93214   4.629   4.076  11.334 -0.0199 -0.5356 -0.1194
  707MOL0     C93215   4.525   4.157  11.412  0.4411 -0.9133  0.7547
  707MOL0     O93216   4.418   4.214  11.329  0.1988  0.7156  0.4018
  707MOL0     C93217   4.294   4.148  11.323 -0.1685 -0.0822 -0.1566
  707MOL0     C93218   4.177   4.211  11.276  0.8862 -0.6979  0.0291
  707MOL0     C93219   4.057   4.157  11.281 -0.4069  0.4931 -0.0209
  707MOL0     C93220   4.037   4.021  11.326 -0.5857  0.6990 -0.4425
  707MOL0     C93221   3.906   3.958  11.316  0.1686  0.0439 -0.2438
  707MOL0     O93222   3.799   4.043  11.311  0.4506 -0.3668  0.8628
  707MOL0     C93223   3.675   3.979  11.314  0.2802  0.3607 -0.5324
  707MOL0     C93224   3.571   4.009  11.228 -0.5234 -0.4241  0.6120
  707MOL0     C93225   3.439   3.957  11.237  0.3967  0.2696  0.3973
  707MOL0     C93226   3.416   3.868  11.339 -0.9546 -0.2182  0.2235
  707MOL0     O93227   3.289   3.807  11.334 -0.5694 -0.1189  0.2290
  707MOL0     C93228   3.251   3.764  11.466 -0.5259  0.1094  0.0363
  707MOL0     C93229   3.103   3.739  11.487  0.4911  0.0839 -0.2757
  707MOL0     C93230   3.057   3.608  11.417 -0.4265  0.2141 -0.3797
  707MOL0     C93231   2.903   3.591  11.429 -0.0223  0.3597 -0.7318
  707MOL0     C93232   2.844   3.455  11.386  1.0936 -0.4227 -0.5671
  707MOL0     C93233   2.904   3.392  11.268  0.6783  0.7065  0.4195
  707MOL0     C93234   2.823   3.268  11.214 -0.3277 -0.3086  0.0817
  707MOL0     C93235   2.714   3.315  11.131  0.0971 -1.1712  0.4608
  707MOL0    Cl93236   2.657   3.165  11.045 -0.2075 -0.4057 -0.0242
  707MOL0     C93237   3.512   3.855  11.441 -0.0553  0.0922 -0.2730
  707MOL0     C93238   3.637   3.907  11.433 -0.6822  0.8986  0.1263
  707MOL0     O93239   3.903   3.835  11.321  1.4350 -0.9610 -0.0307
  707MOL0     C93240   4.153   3.955  11.367 -0.0344  1.0066  0.0900
  707MOL0     C93241   4.280   4.014  11.366  0.5401  0.8149 -0.4407
  707MOL0     N93242   4.986   3.980  11.361 -0.5540  0.1820  0.3969
  707MOL0     N93243   5.086   4.003  11.437 -0.4756 -0.0912 -0.3956
  707MOL0     C93244   6.163   3.572  11.277 -0.2545 -0.4463  0.1363
  707MOL0     C93245   6.300   3.544  11.253  0.0529  0.1466  1.4560
  707MOL0     C93246   6.748   3.545  11.184 -0.0575  0.7237 -0.3850
  707MOL0     C93247   6.810   3.653  11.134  0.9242 -0.4971  0.2754
  707MOL0     C93248   6.947   3.656  11.108  1.0953  0.4310  0.4123
  707MOL0     C93249   7.027   3.540  11.135  0.2694  0.0055 -1.0191
  707MOL0     O93250   7.159   3.526  11.117  1.1138 -0.5807 -0.7561
  707MOL0     C93251   7.224   3.630  11.041 -0.0530 -0.5857 -0.1137
  707MOL0     C93252   7.270   3.744  11.139 -0.6761  0.1838 -0.1185
  707MOL0     C93253   7.406   3.740  11.204  0.8670  0.2036  1.0554
  707MOL0     C93254   7.453   3.868  11.273 -0.4363  0.8672 -0.5691
  707MOL0     C93255   7.586   3.843  11.339  0.3738  0.8919  0.4030
  707MOL0     C93256   7.690   3.838  11.398  0.6844  0.7719 -0.2998
  707MOL0     C93257   6.967   3.428  11.197  1.0632  0.3447  0.9394
  707MOL0     C93258   6.825   3.440  11.218 -1.1295 -0.1337  0.3267
  707MOL0     H93259   6.390   3.844  11.102  0.0964 -1.5129 -2.8588
  707MOL0     H93260   6.156   3.886  11.117 -0.3791 -0.5204 -2.0671
  707MOL0     H93261   5.902   3.800  11.085  0.4536  1.1397 -0.0819
  707MOL0     H93262   5.962   3.917  11.206 -1.8646  0.2085  1.6170
  707MOL0     H93263   5.766   3.762  11.318 -0.4036 -0.1249  0.3143
  707MOL0     H93264   5.695   3.843  11.172 -0.4365 -0.6317  1.5784
  707MOL0     H93265   5.776   4.062  11.271  1.4489 -0.1094  0.8219
  707MOL0     H93266   5.809   3.983  11.417 -0.1425 -0.1608 -1.4944
  707MOL0     H93267   5.543   3.951  11.265 -0.5888  0.2949  1.2380
  707MOL0     H93268   5.553   3.890  11.415 -1.1867  1.3600  0.1757
  707MOL0     H93269   5.572   4.186  11.362 -0.3365  1.6290  1.8337
  707MOL0     H93270   5.603   4.113  11.520  1.8300 -0.2166 -1.1502
  707MOL0     H93271   5.393   4.034  11.549 -0.1636  0.3357 -0.0595
  707MOL0     H93272   5.352   4.027  11.373 -1.5803  2.2423 -1.7815
  707MOL0     H93273   5.383   4.292  11.521  2.6819 -2.0782 -0.2890
  707MOL0     H93274   5.308   4.263  11.375  1.7099  0.3322 -0.4316
  707MOL0     H93275   5.146   4.303  11.559 -0.3094 -0.1392  1.3005
  707MOL0     H93276   5.194   4.139  11.628 -2.4694  0.6463 -0.4969
  707MOL0     H93277   5.008   4.311  11.344  0.0556 -0.7448 -0.6798
  707MOL0     H93278   4.820   4.012  11.167  1.4171 -0.4508  1.7581
  707MOL0     H93279   4.891   4.158  11.116  0.9828 -2.2466 -1.4851
  707MOL0     H93280   4.669   4.190  11.154  2.4215  0.2055 -0.4159
  707MOL0     H93281   4.728   4.258  11.307  1.9276 -0.2265  1.9069
  707MOL0     H93282   4.581   4.008  11.264  0.4200 -1.8525  0.8188
  707MOL0     H93283   4.685   4.013  11.404 -1.0600 -1.6990 -0.3012
  707MOL0     H93284   4.578   4.247  11.443  0.9498 -0.0234 -2.4056
  707MOL0     H93285   4.502   4.102  11.504 -1.2036 -4.0453 -1.3331
  707MOL0     H93286   4.171   4.311  11.235  0.9846 -0.5530  0.3694
  707MOL0     H93287   3.973   4.212  11.239 -0.3997  1.3240  1.0014
  707MOL0     H93288   3.599   4.078  11.149  0.9688  0.0759  1.5481
  707MOL0     H93289   3.358   3.975  11.167 -1.6223  0.4552  2.6460
  707MOL0     H93290   3.279   3.836  11.543  0.0072 -1.3091  1.2022
  707MOL0     H93291   3.303   3.669  11.481  0.5930  0.5560 -0.8732
  707MOL0     H93292   3.046   3.825  11.450 -0.3454 -0.0851  0.6043
  707MOL0     H93293   3.089   3.730  11.595 -0.1051  3.3694  0.0336
  707MOL0     H93294   3.120   3.526  11.453  1.0874  0.1775 -2.8664
  707MOL0     H93295   3.071   3.610  11.308 -3.0230 -3.0518 -0.9424
  707MOL0     H93296   2.880   3.609  11.534  3.0575 -2.2831  0.5763
  707MOL0     H93297   2.857   3.670  11.369  1.1442  1.5016 -0.1709
  707MOL0     H93298   2.736   3.465  11.376  0.8587  0.2004  1.9383
  707MOL0     H93299   2.852   3.387  11.471  1.9183  1.1948  0.6991
  707MOL0     H93300   3.003   3.348  11.286  0.8261  0.9052  0.1095
  707MOL0     H93301   2.913   3.458  11.181 -2.7445  0.2179 -0.4476
  707MOL0     H93302   2.885   3.207  11.148 -0.9432  0.4588 -1.2375
  707MOL0     H93303   2.789   3.204  11.296  0.4269 -0.7305  0.0774
  707MOL0     H93304   2.760   3.380  11.056  1.3494 -2.4395  0.0873
  707MOL0     H93305   2.635   3.363  11.189 -1.9585  1.0556 -3.7370
  707MOL0     H93306   3.492   3.807  11.537  0.4053  2.4262  1.0781
  707MOL0     H93307   3.704   3.905  11.518 -1.0255  0.8926  0.4000
  707MOL0     H93308   4.145   3.852  11.401 -0.7010  1.0233 -0.0216
  707MOL0     H93309   4.356   3.950  11.409  0.2591 -0.3510 -1.6194
  707MOL0     H93310   6.100   3.512  11.342  1.1885 -2.3643 -0.1399
  707MOL0     H93311   6.337   3.445  11.278 -2.7312 -1.5710 -0.5941
  707MOL0     H93312   6.760   3.748  11.119  0.5649 -0.2857  2.5434
  707MOL0     H93313   6.979   3.757  11.082  1.1464  0.8582  2.0401
  707MOL0     H93314   7.157   3.663  10.961 -1.4472  0.0691  1.2592
  707MOL0     H93315   7.311   3.594  10.986  1.5446  4.0347 -1.0920
  707MOL0     H93316   7.270   3.833  11.076  0.7890  0.9659  0.9326
  707MOL0     H93317   7.188   3.759  11.210 -2.2257  1.0893 -2.0048
  707MOL0     H93318   7.484   3.710  11.133 -1.6813 -1.0966 -1.3903
  707MOL0     H93319   7.404   3.652  11.269 -2.5641 -0.1349  0.7041
  707MOL0     H93320   7.459   3.958  11.210 -1.2163  1.1335 -0.2697
  707MOL0     H93321   7.389   3.883  11.360  1.2299 -1.4442  1.1830
  707MOL0     H93322   7.781   3.837  11.455 -0.0621  1.7055  0.9514
  707MOL0     H93323   7.021   3.348  11.247  2.5129  0.8918  0.2999
  707MOL0     H93324   6.788   3.361  11.282  4.3366 -3.2767  0.2245
  708MOL0     O93325   7.240   9.839   7.005 -0.0866 -0.0683 -0.1817
  708MOL0     C93326   7.249   9.740   7.081  0.2440  0.0631  0.4284
  708MOL0     O93327   7.160   9.641   7.078 -0.4856  0.7173 -0.1021
  708MOL0     C93328   7.061   9.637   6.985 -0.5999  0.1789 -0.0892
  708MOL0     C93329   6.946   9.714   7.019 -0.1245 -0.1328  0.3464
  708MOL0     C93330   6.837   9.723   6.926  0.6593  0.4917 -0.3558
  708MOL0     C93331   6.833   9.651   6.807  0.3352 -0.3721 -0.4696
  708MOL0     O93332   6.718   9.672   6.728 -0.0410 -0.3937  0.5625
  708MOL0     C93333   6.717   9.598   6.603 -0.0876  0.6031 -1.3465
  708MOL0     C93334   6.602   9.642   6.527  0.2122 -0.0945 -0.4242
  708MOL0     C93335   6.469   9.614   6.589  0.6350  0.6269  0.4399
  708MOL0     C93336   6.361   9.622   6.490  0.6205 -0.4410 -0.1144
  708MOL0     C93337   6.232   9.610   6.565  0.4697 -0.2636  0.6990
  708MOL0     C93338   6.127   9.544   6.477  0.4877 -0.6610  1.1570
  708MOL0     C93339   5.990   9.532   6.553  0.4375  0.1137  0.3575
  708MOL0     C93340   5.898   9.452   6.476  0.8759  0.0259 -0.5412
  708MOL0     N93341   5.771   9.431   6.550  0.6522 -0.5283 -0.3356
  708MOL0     C93342   5.692   9.529   6.593  0.7796  0.8315  0.3983
  708MOL0     C93343   5.621   9.487   6.700 -0.0723 -0.4612  0.7635
  708MOL0     C93344   5.529   9.578   6.778 -0.0924  0.2859 -0.0839
  708MOL0     C93345   5.390   9.514   6.789 -0.5087 -0.1151  0.1142
  708MOL0     C93346   5.278   9.614   6.839  0.5669  0.8491  0.7945
  708MOL0     C93347   5.141   9.550   6.807 -0.1897  0.2836  0.4988
  708MOL0     O93348   5.029   9.640   6.821 -0.0063  0.0718  0.2966
  708MOL0     C93349   4.900   9.599   6.787 -2.0251  0.6955 -0.8005
  708MOL0     C93350   4.875   9.471   6.741 -0.4371 -0.0344 -0.2576
  708MOL0     C93351   4.751   9.420   6.708  0.2032  0.6018  0.2451
  708MOL0     C93352   4.640   9.510   6.711  0.1749  0.5762  0.1615
  708MOL0     C93353   4.496   9.477   6.688 -0.1445 -0.1153  0.0090
  708MOL0     O93354   4.407   9.585   6.669 -0.2932 -0.4418 -0.0399
  708MOL0     C93355   4.277   9.551   6.693 -0.1354  0.3998  0.1213
  708MOL0     C93356   4.231   9.474   6.801 -0.5684  0.4603 -0.5776
  708MOL0     C93357   4.101   9.437   6.828 -0.1210  0.0027  0.0192
  708MOL0     C93358   3.997   9.479   6.741  0.3396  0.4425  0.0792
  708MOL0     O93359   3.868   9.429   6.742  0.1872  0.1642  0.6164
  708MOL0     C93360   3.797   9.425   6.868 -0.1526 -0.5362 -0.4586
  708MOL0     C93361   3.756   9.564   6.922 -0.1968 -0.0178  0.0539
  708MOL0     C93362   3.620   9.578   7.002  0.0620 -0.7318  0.0414
  708MOL0     C93363   3.604   9.485   7.126 -2.0214  0.2433 -0.2120
  708MOL0     C93364   3.471   9.514   7.194  0.1673  0.4715 -0.3449
  708MOL0     C93365   3.473   9.429   7.328  0.5515 -0.6610  0.2067
  708MOL0     C93366   3.339   9.437   7.395  0.0102  0.7621 -0.0548
  708MOL0     C93367   3.309   9.332   7.507 -0.1038 -0.2344  0.0347
  708MOL0    Cl93368   3.179   9.383   7.618 -0.3204 -0.2706  0.2064
  708MOL0     C93369   4.038   9.569   6.640 -0.0245 -0.3907 -0.6190
  708MOL0     C93370   4.174   9.606   6.612 -0.5293  0.3155 -0.6119
  708MOL0     O93371   4.467   9.354   6.680 -0.2290 -1.0007  0.7357
  708MOL0     C93372   4.667   9.641   6.761  0.0890  0.4682 -0.0412
  708MOL0     C93373   4.794   9.684   6.794  0.0035 -0.7128  0.5271
  708MOL0     N93374   5.657   9.355   6.721  0.4594  0.7813  0.0328
  708MOL0     N93375   5.745   9.325   6.633  0.2530  0.1423 -0.0339
  708MOL0     C93376   6.946   9.578   6.780  0.2905  0.5682 -1.1712
  708MOL0     C93377   7.061   9.568   6.865 -0.8156 -0.2147 -0.5952
  708MOL0     C93378   7.368   9.735   7.166 -0.9563  0.1357  0.3495
  708MOL0     C93379   7.462   9.845   7.180 -0.9103  0.1667 -0.2222
  708MOL0     C93380   7.570   9.841   7.272 -0.7354  1.0357  0.4847
  708MOL0     C93381   7.610   9.717   7.342 -0.7298  0.1769  0.5706
  708MOL0     O93382   7.719   9.689   7.426  0.6335 -0.0340  0.7524
  708MOL0     C93383   7.796   9.806   7.467 -0.2681 -0.5308 -0.1475
  708MOL0     C93384   7.889   9.775   7.584  0.6610 -0.5628  1.1233
  708MOL0     C93385   7.977   9.654   7.550 -0.9246  0.7752 -0.5158
  708MOL0     C93386   8.078   9.692   7.450 -0.4330 -0.2186  0.9024
  708MOL0     C93387   8.162   9.574   7.423 -0.3215 -0.8565  0.1253
  708MOL0     C93388   8.224   9.468   7.405 -0.0720 -0.5198 -1.1526
  708MOL0     C93389   7.525   9.604   7.318  0.1434  0.0959  0.0020
  708MOL0     C93390   7.402   9.610   7.234 -1.2110 -0.1789  0.4501
  708MOL0     H93391   6.950   9.777   7.108 -0.9881  0.7737 -0.2290
  708MOL0     H93392   6.759   9.791   6.960  0.2244 -1.0393  1.9224
  708MOL0     H93393   6.716   9.493   6.633  2.8390  1.0488  0.6651
  708MOL0     H93394   6.807   9.617   6.544  1.2321  0.7072  0.6125
  708MOL0     H93395   6.616   9.583   6.436  1.0167  2.6999 -2.2577
  708MOL0     H93396   6.616   9.744   6.492  1.7817 -0.2121 -0.2100
  708MOL0     H93397   6.445   9.681   6.673 -1.8279 -0.4725  0.7030
  708MOL0     H93398   6.474   9.515   6.635 -2.3263  1.1321  2.1390
  708MOL0     H93399   6.361   9.706   6.421  1.3613  0.0253  0.4430
  708MOL0     H93400   6.375   9.536   6.424  1.3646 -0.8279  0.5258
  708MOL0     H93401   6.205   9.711   6.597  0.1029  0.2560 -1.1287
  708MOL0     H93402   6.248   9.549   6.654  1.1461  0.4222  1.0614
  708MOL0     H93403   6.163   9.445   6.446  2.2802  0.4108 -0.3636
  708MOL0     H93404   6.117   9.605   6.387  0.7360 -0.3935  1.3093
  708MOL0     H93405   6.001   9.482   6.649  1.8124  2.2511  1.3663
  708MOL0     H93406   5.955   9.632   6.577 -1.2807  0.0732 -1.5993
  708MOL0     H93407   5.947   9.359   6.446  0.4882  0.2412 -1.8869
  708MOL0     H93408   5.876   9.512   6.388 -0.0638 -2.7829 -2.3615
  708MOL0     H93409   5.691   9.630   6.553 -2.7985  0.7114 -0.1980
  708MOL0     H93410   5.513   9.673   6.727  1.0665 -0.9699 -2.9881
  708MOL0     H93411   5.576   9.607   6.873  0.0939  0.5679 -0.2641
  708MOL0     H93412   5.401   9.436   6.864 -1.1512 -0.3314 -0.0142
  708MOL0     H93413   5.367   9.459   6.697  5.7585  0.4257 -2.2939
  708MOL0     H93414   5.293   9.629   6.946  0.0559  0.3134  0.9410
  708MOL0     H93415   5.281   9.709   6.785 -2.0516  0.1978 -0.6612
  708MOL0     H93416   5.129   9.458   6.866 -0.3425  0.7663  1.2333
  708MOL0     H93417   5.149   9.516   6.703  2.2051 -1.0921  1.0553
  708MOL0     H93418   4.961   9.406   6.732  1.8670  1.9292  4.3930
  708MOL0     H93419   4.751   9.318   6.669  0.4795 -0.1956  2.2392
  708MOL0     H93420   4.305   9.432   6.869 -2.6766 -1.6747  0.5698
  708MOL0     H93421   4.083   9.376   6.915  4.2903 -0.2207  0.9772
  708MOL0     H93422   3.854   9.372   6.945  0.2481  0.7191  0.1335
  708MOL0     H93423   3.704   9.370   6.849  0.6992 -4.0814  3.8968
  708MOL0     H93424   3.748   9.646   6.850 -3.6197  1.0743  1.4484
  708MOL0     H93425   3.836   9.589   6.992 -0.0148  2.6753 -0.9818
  708MOL0     H93426   3.550   9.569   6.919  1.2172  3.2829 -1.6257
  708MOL0     H93427   3.618   9.684   7.027  0.4133 -0.9633  1.0985
  708MOL0     H93428   3.630   9.385   7.093  0.7799  1.4746 -2.1266
  708MOL0     H93429   3.686   9.522   7.189 -0.4004  3.3234 -3.7142
  708MOL0     H93430   3.389   9.471   7.136 -1.3969  0.5581  1.6933
  708MOL0     H93431   3.448   9.620   7.211 -3.1125 -0.2588  0.4877
  708MOL0     H93432   3.556   9.472   7.384  1.2104  0.4639 -1.5450
  708MOL0     H93433   3.482   9.323   7.306  1.9484 -0.1756 -1.8754
  708MOL0     H93434   3.346   9.540   7.432  2.1759  0.5446  0.2982
  708MOL0     H93435   3.264   9.439   7.316  0.7341  1.1703 -0.7510
  708MOL0     H93436   3.401   9.306   7.562 -0.5190 -2.4792 -0.2536
  708MOL0     H93437   3.274   9.242   7.456 -0.6034 -0.3498  0.5772
  708MOL0     H93438   3.960   9.617   6.583 -2.2022 -1.0405  1.6039
  708MOL0     H93439   4.189   9.680   6.534 -1.1550  1.9346  0.7544
  708MOL0     H93440   4.583   9.709   6.774 -0.3716 -0.1863  0.4988
  708MOL0     H93441   4.819   9.785   6.825 -1.2976  0.1057 -0.9615
  708MOL0     H93442   6.941   9.520   6.688 -0.3517 -0.4393 -0.5218
  708MOL0     H93443   7.142   9.501   6.839 -1.3787 -2.0322  1.9861
  708MOL0     H93444   7.431   9.940   7.137  0.6833  0.1729 -1.4446
  708MOL0     H93445   7.636   9.926   7.286  3.1726 -1.6204 -0.1072
  708MOL0     H93446   7.724   9.876   7.511  0.1861  0.3628 -0.7946
  708MOL0     H93447   7.848   9.850   7.382  0.6135  0.6687  0.9787
  708MOL0     H93448   7.938   9.864   7.624 -1.2020  1.8338 -1.5318
  708MOL0     H93449   7.825   9.734   7.663 -1.5130  0.3083 -0.0840
  708MOL0     H93450   7.910   9.570   7.526  1.6465 -1.5491 -0.0999
  708MOL0     H93451   8.031   9.627   7.642  0.4235  0.3385 -1.4111
  708MOL0     H93452   8.030   9.708   7.353  1.5981 -3.1372 -0.7543
  708MOL0     H93453   8.132   9.784   7.473 -1.8751  0.8882  0.0049
  708MOL0     H93454   8.281   9.378   7.417 -1.7729 -1.7461 -1.9055
  708MOL0     H93455   7.561   9.511   7.363  0.5634  0.2101 -0.0978
  708MOL0     H93456   7.339   9.521   7.227 -0.8731 -0.4952  1.3513
  709MOL0     O93457   5.196   4.264   7.295  0.2800  1.0010  0.0403
  709MOL0     C93458   5.160   4.180   7.380  0.4769 -0.1205 -0.6023
  709MOL0     O93459   5.044   4.188   7.459 -0.2729 -0.4339 -0.0484
  709MOL0     C93460   4.969   4.309   7.461  0.0701 -0.0198 -0.3978
  709MOL0     C93461   5.031   4.424   7.512 -0.1914 -0.6479  0.1217
  709MOL0     C93462   4.964   4.552   7.514  0.3788  0.5560  0.9398
  709MOL0     C93463   4.830   4.561   7.463 -0.5643 -0.2077  0.3100
  709MOL0     O93464   4.766   4.683   7.480  0.2568 -0.3181  0.1699
  709MOL0     C93465   4.630   4.688   7.444 -0.1434  0.2491  0.0400
  709MOL0     C93466   4.565   4.816   7.499  0.7002 -0.5354 -0.1409
  709MOL0     C93467   4.417   4.819   7.455  0.5638 -0.2152 -0.2572
  709MOL0     C93468   4.364   4.966   7.454  0.8435  0.2393 -0.3597
  709MOL0     C93469   4.216   4.967   7.398 -0.1712 -0.4115 -0.9576
  709MOL0     C93470   4.152   5.106   7.435  0.3520  0.5176 -0.7360
  709MOL0     C93471   4.007   5.101   7.389 -0.2858 -0.3379 -0.5919
  709MOL0     C93472   3.924   5.224   7.435 -0.2871  0.5031  0.1911
  709MOL0     N93473   3.778   5.210   7.435  0.4405  1.0842 -0.9747
  709MOL0     C93474   3.679   5.311   7.423 -0.9553  0.3052 -0.5378
  709MOL0     C93475   3.558   5.245   7.398  0.2410 -0.0773 -1.3001
  709MOL0     C93476   3.434   5.308   7.387  0.5374 -0.9063  0.1798
  709MOL0     C93477   3.336   5.254   7.499 -0.0520 -0.6118  0.4137
  709MOL0     C93478   3.187   5.276   7.451  0.0056  1.1856  0.0669
  709MOL0     C93479   3.090   5.198   7.543  0.4435 -0.1849  0.7913
  709MOL0     O93480   2.951   5.237   7.525  0.0458 -0.1307  0.0305
  709MOL0     C93481   2.854   5.161   7.460 -0.0348 -0.6524 -0.4891
  709MOL0     C93482   2.884   5.059   7.372  0.3360 -0.3973  0.7809
  709MOL0     C93483   2.795   5.011   7.283 -0.1115  0.9607 -0.5521
  709MOL0     C93484   2.660   5.068   7.284  0.6261  0.5016 -0.7046
  709MOL0     C93485   2.548   5.019   7.198 -0.1380 -0.0170  0.3753
  709MOL0     O93486   2.592   4.992   7.079  0.0540 -0.3053 -0.0701
  709MOL0     C93487   2.510   4.916   6.999  0.0845 -0.3323 -0.3439
  709MOL0     C93488   2.432   4.973   6.892 -0.4045  0.4223  0.3009
  709MOL0     C93489   2.370   4.886   6.802 -0.1505  0.4963  0.5098
  709MOL0     C93490   2.376   4.746   6.825  0.5264  0.6960 -0.3371
  709MOL0     O93491   2.300   4.663   6.751  1.2022 -0.4677 -0.2512
  709MOL0     C93492   2.354   4.625   6.624 -0.7772 -0.1228 -0.6051
  709MOL0     C93493   2.240   4.614   6.524  0.0272 -0.4290  0.1286
  709MOL0     C93494   2.200   4.751   6.460  0.1228 -0.7108  0.7032
  709MOL0     C93495   2.085   4.749   6.370  0.2156  0.0991 -1.2793
  709MOL0     C93496   2.131   4.694   6.235 -0.7008  0.0421  0.3007
  709MOL0     C93497   2.023   4.698   6.126 -0.1827 -0.5241  0.2722
  709MOL0     C93498   1.927   4.578   6.160 -0.0485 -0.3950  0.5212
  709MOL0     C93499   1.864   4.528   6.031 -1.3728 -0.0832 -0.0628
  709MOL0    Cl93500   1.755   4.660   5.966 -0.2331  0.3509 -0.1710
  709MOL0     C93501   2.450   4.693   6.932  0.8839  0.1390 -0.5884
  709MOL0     C93502   2.525   4.778   7.008  0.6500  0.5440 -0.0264
  709MOL0     O93503   2.430   4.997   7.234  0.9825 -0.4430 -0.1556
  709MOL0     C93504   2.628   5.163   7.379 -0.3209 -0.0460 -0.2060
  709MOL0     C93505   2.726   5.212   7.460 -0.2602 -0.0462  0.7295
  709MOL0     N93506   3.582   5.114   7.414  0.2156  0.2158 -0.8310
  709MOL0     N93507   3.705   5.094   7.427  0.0109  0.7147 -0.6217
  709MOL0     C93508   4.768   4.446   7.416 -0.8576  0.9286  0.6878
  709MOL0     C93509   4.836   4.321   7.428 -0.4528 -0.4373 -0.2805
  709MOL0     C93510   5.240   4.051   7.398 -0.2263  0.1796 -0.2233
  709MOL0     C93511   5.186   3.937   7.468 -0.3921 -1.1373 -0.1766
  709MOL0     C93512   5.264   3.824   7.505 -0.2569  0.1783  0.8415
  709MOL0     C93513   5.405   3.823   7.475  0.1061 -0.6478 -0.2430
  709MOL0     O93514   5.484   3.714   7.480 -0.2382  0.4517 -0.2070
  709MOL0     C93515   5.482   3.660   7.617  1.0324  0.2345 -0.2000
  709MOL0     C93516   5.600   3.567   7.645 -0.1285 -0.5823 -0.0308
  709MOL0     C93517   5.639   3.574   7.793 -0.5145 -0.4662 -0.3994
  709MOL0     C93518   5.752   3.476   7.827 -0.1639  0.9791 -0.5030
  709MOL0     C93519   5.838   3.526   7.935  0.1996  0.5286 -0.0065
  709MOL0     C93520   5.889   3.589   8.025 -0.0079  0.0488 -0.0799
  709MOL0     C93521   5.462   3.928   7.404 -0.4309  0.2399 -0.6526
  709MOL0     C93522   5.382   4.037   7.365 -0.9024  0.0342  0.6658
  709MOL0     H93523   5.136   4.418   7.537  0.2471  1.6221 -0.8978
  709MOL0     H93524   5.017   4.635   7.561  0.3665  0.8039  0.5233
  709MOL0     H93525   4.578   4.607   7.497  4.2914 -2.0172  1.4143
  709MOL0     H93526   4.612   4.678   7.337 -2.9195  1.5371  0.2921
  709MOL0     H93527   4.624   4.900   7.459  0.1953 -0.4295 -0.6734
  709MOL0     H93528   4.570   4.820   7.608  0.8654 -0.9393 -0.1327
  709MOL0     H93529   4.358   4.762   7.528 -0.6308  2.6319  1.1633
  709MOL0     H93530   4.398   4.774   7.357  2.3174  0.5148 -0.9817
  709MOL0     H93531   4.375   5.019   7.549  1.7075  0.6011 -0.6544
  709MOL0     H93532   4.414   5.032   7.383 -0.6923  1.6774 -0.1751
  709MOL0     H93533   4.163   4.884   7.445 -2.0924  0.6260 -1.1510
  709MOL0     H93534   4.212   4.955   7.289 -1.2938  2.5581 -1.3378
  709MOL0     H93535   4.193   5.188   7.375 -0.1005  0.8619 -0.5831
  709MOL0     H93536   4.165   5.122   7.542 -0.2316  0.1969 -0.6120
  709MOL0     H93537   3.996   5.096   7.281 -0.2876 -3.2418 -0.5327
  709MOL0     H93538   3.955   5.013   7.430 -4.5277  2.0443 -0.2614
  709MOL0     H93539   3.937   5.314   7.375 -3.4503  2.3395  1.9855
  709MOL0     H93540   3.959   5.235   7.538 -1.0912 -2.4166  0.8782
  709MOL0     H93541   3.706   5.416   7.418  0.5129 -0.0212 -0.0244
  709MOL0     H93542   3.393   5.304   7.286  0.8405 -4.8541  0.0728
  709MOL0     H93543   3.441   5.413   7.419 -0.5801 -0.1325 -1.8913
  709MOL0     H93544   3.350   5.309   7.593  1.3117 -1.9432  1.0323
  709MOL0     H93545   3.347   5.148   7.525 -1.7137 -1.2986 -1.4602
  709MOL0     H93546   3.165   5.383   7.462 -1.5321  1.0138 -1.0002
  709MOL0     H93547   3.173   5.250   7.346  1.2839  1.4237 -0.1702
  709MOL0     H93548   3.117   5.199   7.649 -3.1554 -0.8617  1.8788
  709MOL0     H93549   3.105   5.091   7.526  2.7510  0.3450 -0.9837
  709MOL0     H93550   2.983   5.013   7.368  2.2319  3.3535  0.3695
  709MOL0     H93551   2.803   4.917   7.229  1.0779  0.5953  0.2120
  709MOL0     H93552   2.410   5.078   6.878 -0.0771  0.3054 -1.2654
  709MOL0     H93553   2.300   4.914   6.724 -0.1739 -0.4769  0.1683
  709MOL0     H93554   2.390   4.522   6.638 -0.1708 -0.1041 -1.8870
  709MOL0     H93555   2.434   4.690   6.590 -3.0128  2.7275 -0.7757
  709MOL0     H93556   2.157   4.558   6.568 -0.3387  1.7243  2.3362
  709MOL0     H93557   2.280   4.557   6.439  1.2617 -1.6066  1.4440
  709MOL0     H93558   2.300   4.774   6.421  0.9516 -2.6531  1.5331
  709MOL0     H93559   2.175   4.818   6.543 -0.0798  0.4180 -0.2471
  709MOL0     H93560   2.004   4.691   6.413  1.7404  0.5678  2.6928
  709MOL0     H93561   2.050   4.851   6.349 -0.9336 -0.5203 -2.4653
  709MOL0     H93562   2.170   4.592   6.237 -0.1388  0.1616 -2.0435
  709MOL0     H93563   2.205   4.764   6.195  1.4536 -2.5688 -0.5865
  709MOL0     H93564   2.087   4.679   6.039 -2.0725 -1.1828 -1.0263
  709MOL0     H93565   1.971   4.793   6.114  1.4777  0.2486 -1.3808
  709MOL0     H93566   1.975   4.487   6.197  0.4281 -1.7059 -2.9276
  709MOL0     H93567   1.844   4.609   6.224 -0.1557 -2.2166  1.3331
  709MOL0     H93568   1.789   4.451   6.052 -3.4569  1.9155  0.1650
  709MOL0     H93569   1.931   4.485   5.956 -2.0703 -0.7411 -0.3213
  709MOL0     H93570   2.457   4.585   6.942 -0.8229  0.0174 -0.4920
  709MOL0     H93571   2.595   4.736   7.078 -0.7514 -1.1960  0.4035
  709MOL0     H93572   2.533   5.217   7.378 -0.9441 -1.0445  1.3824
  709MOL0     H93573   2.702   5.304   7.512 -2.8151  0.7209 -1.5659
  709MOL0     H93574   4.668   4.435   7.374 -0.4751 -0.2612  0.0458
  709MOL0     H93575   4.785   4.231   7.396  1.3134 -2.0471  1.1569
  709MOL0     H93576   5.085   3.929   7.507  1.1188  0.2569  4.6848
  709MOL0     H93577   5.221   3.738   7.555  1.6368 -0.0684  2.1539
  709MOL0     H93578   5.388   3.605   7.628  0.5291  0.6498 -2.0052
  709MOL0     H93579   5.490   3.744   7.686  3.1669  0.7172 -0.9503
  709MOL0     H93580   5.564   3.467   7.621 -0.6568 -0.2268 -0.7818
  709MOL0     H93581   5.681   3.600   7.578  2.2094 -3.1760  1.3327
  709MOL0     H93582   5.557   3.556   7.864  2.3627  1.3213  3.8353
  709MOL0     H93583   5.660   3.681   7.806  1.7833 -0.5338 -2.7460
  709MOL0     H93584   5.724   3.371   7.842  1.0547  1.0283  2.9042
  709MOL0     H93585   5.818   3.470   7.739 -0.2784 -1.0202 -0.4960
  709MOL0     H93586   5.921   3.647   8.109 -0.8422 -0.1502  0.3848
  709MOL0     H93587   5.564   3.928   7.367  0.2975  2.6145  1.1001
  709MOL0     H93588   5.421   4.120   7.306 -2.4834  0.6350  0.4193
  710MOL0     O93589   0.623   2.910   8.545  0.3255  0.2933  0.2945
  710MOL0     C93590   0.636   2.836   8.446 -0.0786  0.5613 -0.4790
  710MOL0     O93591   0.536   2.791   8.366 -0.1112  0.2393  0.1547
  710MOL0     C93592   0.415   2.856   8.360 -0.1241  0.0855 -0.6327
  710MOL0     C93593   0.347   2.868   8.233 -0.7755  0.6759  0.6351
  710MOL0     C93594   0.215   2.909   8.228 -1.3363 -0.3833  0.4188
  710MOL0     C93595   0.150   2.957   8.348  0.1353 -0.5873 -0.4065
  710MOL0     O93596   0.029   3.021   8.346 -0.0597  0.0753  0.2181
  710MOL0     C93597  -0.074   2.990   8.253  0.3995 -0.9654  0.4937
  710MOL0     C93598  -0.202   2.992   8.339 -0.9290  0.1768  0.0027
  710MOL0     C93599  -0.324   3.007   8.251  0.3876 -0.0430  0.0734
  710MOL0     C93600  -0.455   3.023   8.330 -0.2121  0.5312  0.3650
  710MOL0     C93601  -0.583   3.003   8.246  0.6572  0.2553  0.3567
  710MOL0     C93602  -0.695   3.080   8.314  0.3879  0.3253 -0.0037
  710MOL0     C93603  -0.831   3.047   8.257 -0.1787  0.5496  0.4926
  710MOL0     C93604  -0.930   3.081   8.377 -0.7183  0.1462  0.0677
  710MOL0     N93605  -1.071   3.090   8.345 -0.1691 -0.0554  0.2205
  710MOL0     C93606  -1.163   3.185   8.381  0.2155 -0.6230 -0.5158
  710MOL0     C93607  -1.290   3.120   8.353 -0.2478  0.2662 -0.5861
  710MOL0     C93608  -1.426   3.188   8.347 -1.0471 -0.6341  0.4489
  710MOL0     C93609  -1.425   3.339   8.351 -0.3758  0.5091  0.3108
  710MOL0     C93610  -1.569   3.389   8.382  0.0016 -0.2972 -0.7689
  710MOL0     C93611  -1.656   3.364   8.258 -0.1394 -0.3971  0.5492
  710MOL0     O93612  -1.775   3.429   8.273  0.5364  0.4565  0.2280
  710MOL0     C93613  -1.871   3.404   8.183  0.8530 -0.6089  0.4227
  710MOL0     C93614  -1.877   3.331   8.067 -0.5614 -0.1277 -0.3189
  710MOL0     C93615  -1.992   3.313   7.983  0.3578 -0.9491 -0.2101
  710MOL0     C93616  -2.120   3.354   8.034  0.2703  0.6096  0.3945
  710MOL0     C93617  -2.247   3.338   7.954  1.2376 -0.4799 -0.2551
  710MOL0     O93618  -2.350   3.421   7.999 -0.1868 -0.0247  0.1510
  710MOL0     C93619  -2.469   3.417   7.936  1.1055  0.3203  0.5968
  710MOL0     C93620  -2.484   3.452   7.792 -0.7183 -0.6632  0.4227
  710MOL0     C93621  -2.606   3.436   7.725 -0.0132 -0.3747  0.2855
  710MOL0     C93622  -2.718   3.399   7.796  0.5369 -1.1536 -0.0709
  710MOL0     O93623  -2.838   3.392   7.725  0.0311 -0.1860  0.6712
  710MOL0     C93624  -2.950   3.330   7.783 -0.2481 -0.0465  0.2259
  710MOL0     C93625  -3.063   3.349   7.681  0.5049  0.4996 -0.1776
  710MOL0     C93626  -3.097   3.504   7.678  0.2524  0.5895  0.4296
  710MOL0     C93627  -3.238   3.528   7.615  0.1010 -0.3341  0.0661
  710MOL0     C93628  -3.294   3.666   7.645  0.4673  0.1190 -0.5333
  710MOL0     C93629  -3.390   3.710   7.540 -0.2599 -0.6529  0.0267
  710MOL0     C93630  -3.427   3.862   7.544 -0.2652  0.1695  0.3692
  710MOL0     C93631  -3.346   3.935   7.432 -0.1273 -0.6415 -0.3391
  710MOL0    Cl93632  -3.169   3.919   7.455 -0.5470  0.2664  0.1770
  710MOL0     C93633  -2.708   3.378   7.940  0.0452  0.5502  1.1697
  710MOL0     C93634  -2.585   3.375   7.998 -0.2082  0.9743  0.1563
  710MOL0     O93635  -2.259   3.240   7.891  0.5111  0.8761 -0.2555
  710MOL0     C93636  -2.114   3.432   8.154 -0.2618 -0.2499 -0.4840
  710MOL0     C93637  -1.999   3.472   8.216  0.3711 -0.5798  0.5676
  710MOL0     N93638  -1.263   2.990   8.312 -0.3426  0.0641  0.9711
  710MOL0     N93639  -1.138   2.984   8.296 -0.0518 -0.8557  0.5320
  710MOL0     C93640   0.214   2.942   8.471  0.8747  0.3909 -0.3983
  710MOL0     C93641   0.340   2.883   8.475  0.0553 -0.0011 -0.6875
  710MOL0     C93642   0.757   2.765   8.443 -0.8248  0.3164 -0.3780
  710MOL0     C93643   0.873   2.818   8.497 -1.3128 -0.4119 -0.6509
  710MOL0     C93644   0.996   2.749   8.475 -0.5139  0.2455  0.0228
  710MOL0     C93645   0.992   2.622   8.412  0.1268  0.1063  0.6709
  710MOL0     O93646   1.099   2.543   8.390  0.1934  0.4647 -0.6042
  710MOL0     C93647   1.231   2.593   8.382 -0.4486 -0.7230  0.4274
  710MOL0     C93648   1.321   2.558   8.507 -0.2985  0.1445 -0.9128
  710MOL0     C93649   1.391   2.430   8.499  0.1257 -0.4518 -0.6224
  710MOL0     C93650   1.518   2.413   8.413  0.7930 -0.2807  0.1033
  710MOL0     C93651   1.626   2.510   8.448  0.1120  0.3628  0.7176
  710MOL0     C93652   1.713   2.571   8.498 -0.0796 -0.2963  0.5338
  710MOL0     C93653   0.876   2.557   8.378 -0.2700  0.0441 -0.7745
  710MOL0     C93654   0.759   2.629   8.402 -0.0991 -0.2393 -0.6771
  710MOL0     H93655   0.388   2.818   8.146 -0.1310  0.2839  1.1546
  710MOL0     H93656   0.163   2.914   8.133  0.8920  0.7928 -0.8195
  710MOL0     H93657  -0.061   2.894   8.202  2.5463 -0.6983  0.4820
  710MOL0     H93658  -0.085   3.076   8.186 -1.6760  0.1316  2.0971
  710MOL0     H93659  -0.202   3.085   8.397 -0.2329 -0.1051  0.4800
  710MOL0     H93660  -0.211   2.914   8.416 -1.0194  1.7637  1.6671
  710MOL0     H93661  -0.333   2.908   8.205  1.7870 -0.2595  0.2109
  710MOL0     H93662  -0.329   3.089   8.180 -3.7599  0.7458  0.9970
  710MOL0     H93663  -0.456   2.963   8.421  1.8699 -0.5582 -0.2616
  710MOL0     H93664  -0.452   3.129   8.358  0.9412  0.5958  0.0543
  710MOL0     H93665  -0.612   2.898   8.241  0.7963  0.2737 -2.6758
  710MOL0     H93666  -0.583   3.022   8.138 -0.2260  0.8077  0.4396
  710MOL0     H93667  -0.670   3.185   8.292  1.8242 -0.4334 -2.3432
  710MOL0     H93668  -0.681   3.059   8.421 -1.7831 -0.4718  0.1697
  710MOL0     H93669  -0.869   3.107   8.174 -0.2656 -0.3193 -0.1044
  710MOL0     H93670  -0.838   2.943   8.226 -2.4667  0.7667  0.0668
  710MOL0     H93671  -0.902   3.183   8.406 -0.1191  0.3960 -1.3237
  710MOL0     H93672  -0.931   3.023   8.470 -1.7880  0.8146  0.4946
  710MOL0     H93673  -1.148   3.288   8.410 -2.1064 -0.8747  1.9362
  710MOL0     H93674  -1.471   3.137   8.433  2.9595  0.4206  3.4965
  710MOL0     H93675  -1.482   3.147   8.262 -1.5722 -1.1854  1.0470
  710MOL0     H93676  -1.399   3.379   8.253 -0.6879  0.4367  0.1991
  710MOL0     H93677  -1.345   3.371   8.419 -0.1310 -1.1734  0.8677
  710MOL0     H93678  -1.620   3.354   8.472  0.2273  0.5676 -0.3013
  710MOL0     H93679  -1.570   3.497   8.396  0.8346 -0.1428 -1.7329
  710MOL0     H93680  -1.678   3.258   8.243 -0.1380 -0.4251  0.7406
  710MOL0     H93681  -1.605   3.409   8.172 -1.6055  1.7947  0.7387
  710MOL0     H93682  -1.785   3.288   8.030  0.1845  0.9384  0.2673
  710MOL0     H93683  -1.968   3.269   7.887  3.1811  0.2890 -0.1821
  710MOL0     H93684  -2.395   3.475   7.734 -1.0996 -0.5387 -0.1173
  710MOL0     H93685  -2.605   3.455   7.618 -1.5650 -1.1536  0.0994
  710MOL0     H93686  -2.974   3.366   7.884  3.0795  0.8636  0.8121
  710MOL0     H93687  -2.924   3.225   7.801  2.5853  0.4577 -0.3932
  710MOL0     H93688  -3.153   3.289   7.702 -1.1348  2.6175 -0.8531
  710MOL0     H93689  -3.036   3.324   7.578  0.7973 -0.4003  0.1001
  710MOL0     H93690  -3.028   3.563   7.616  0.6141  1.2125  1.4024
  710MOL0     H93691  -3.086   3.547   7.778 -0.5807 -0.4631  0.9867
  710MOL0     H93692  -3.225   3.530   7.506 -0.2217  2.8831 -0.0146
  710MOL0     H93693  -3.310   3.454   7.651  0.3290 -1.0293 -0.8585
  710MOL0     H93694  -3.209   3.734   7.652  1.0028 -0.5913 -0.0520
  710MOL0     H93695  -3.342   3.664   7.744  0.4248 -1.8700 -0.5639
  710MOL0     H93696  -3.486   3.657   7.532  0.1130 -1.1690 -1.2953
  710MOL0     H93697  -3.341   3.697   7.444 -1.0133 -0.6668 -0.3681
  710MOL0     H93698  -3.531   3.879   7.515 -0.0611 -3.6378 -3.5653
  710MOL0     H93699  -3.401   3.902   7.642 -0.1333  0.6234  0.1507
  710MOL0     H93700  -3.379   4.040   7.434  1.8075  0.0698 -2.0448
  710MOL0     H93701  -3.366   3.905   7.329  2.9470 -1.2605 -0.8510
  710MOL0     H93702  -2.796   3.348   7.996  1.9942 -2.0594  3.0640
  710MOL0     H93703  -2.567   3.336   8.097  0.7907 -2.7846 -1.3238
  710MOL0     H93704  -2.207   3.469   8.197 -0.5737 -3.3698  1.8445
  710MOL0     H93705  -2.014   3.532   8.306 -3.2115 -1.2439  0.5512
  710MOL0     H93706   0.167   2.958   8.567  1.0600  2.5145 -0.6014
  710MOL0     H93707   0.393   2.857   8.566  0.8780 -0.4835 -1.2920
  710MOL0     H93708   0.869   2.912   8.552  3.7720  0.0370 -0.5385
  710MOL0     H93709   1.090   2.784   8.517  0.0344 -4.0562  2.9726
  710MOL0     H93710   1.225   2.701   8.368 -2.3438 -0.5454  2.1842
  710MOL0     H93711   1.280   2.552   8.293  1.9367  0.0013  1.3333
  710MOL0     H93712   1.390   2.642   8.515 -2.4483  1.8259  1.3176
  710MOL0     H93713   1.253   2.576   8.590  0.2843  0.8632 -0.5868
  710MOL0     H93714   1.322   2.359   8.453 -1.7500  2.5886 -2.8736
  710MOL0     H93715   1.419   2.404   8.601 -2.2587 -0.5650  0.0493
  710MOL0     H93716   1.555   2.311   8.428 -0.9616 -0.9814 -0.1681
  710MOL0     H93717   1.493   2.429   8.308  0.5501  3.6446  0.6050
  710MOL0     H93718   1.795   2.624   8.543 -0.2671  0.7536 -0.3089
  710MOL0     H93719   0.877   2.458   8.334 -1.2798 -1.7077  2.7394
  710MOL0     H93720   0.669   2.578   8.369 -1.2357  1.2259  0.0626
  711MOL0     O93721   8.867   9.819   9.232  0.1691 -1.3043  0.2566
  711MOL0     C93722   8.812   9.717   9.254  0.0695 -0.3165  0.7946
  711MOL0     O93723   8.878   9.603   9.297 -0.1102 -0.4367 -0.7991
  711MOL0     C93724   9.019   9.611   9.301  0.8627  0.5641 -0.9709
  711MOL0     C93725   9.097   9.674   9.200 -0.7931  0.7707 -0.0093
  711MOL0     C93726   9.242   9.652   9.197  0.8077 -0.2658 -0.3347
  711MOL0     C93727   9.310   9.571   9.288  0.5506  0.9231 -0.6861
  711MOL0     O93728   9.445   9.565   9.269 -0.1432 -0.8627 -1.0313
  711MOL0     C93729   9.498   9.451   9.336 -0.5004  0.1816 -0.6264
  711MOL0     C93730   9.646   9.440   9.315  0.4805  0.1230  0.4212
  711MOL0     C93731   9.677   9.345   9.194  0.4436 -0.2695  0.1746
  711MOL0     C93732   9.828   9.357   9.160  0.4699  0.7435 -0.5232
  711MOL0     C93733   9.882   9.494   9.120  0.0652 -0.3448  0.8190
  711MOL0     C93734  10.008   9.526   9.198 -0.3651  0.3752  1.2576
  711MOL0     C93735  10.119   9.422   9.179 -0.4754 -0.8209  0.0121
  711MOL0     C93736  10.245   9.477   9.255 -0.0452  0.6819  0.1447
  711MOL0     N93737  10.347   9.378   9.229 -0.0443 -0.7626  0.9852
  711MOL0     C93738  10.385   9.280   9.312 -0.8357  0.9241 -0.1309
  711MOL0     C93739  10.463   9.195   9.237 -0.2720  0.6241 -0.6642
  711MOL0     C93740  10.519   9.064   9.269 -0.8625 -0.3880 -0.2182
  711MOL0     C93741  10.668   9.078   9.330 -0.4894 -0.4593  0.3748
  711MOL0     C93742  10.702   8.940   9.387 -0.3351 -0.2633 -0.1217
  711MOL0     C93743  10.814   8.928   9.493 -0.8711 -0.1287 -0.2329
  711MOL0     O93744  10.935   8.958   9.424 -0.1184 -0.6815  0.2834
  711MOL0     C93745  11.012   8.859   9.374 -0.1944  0.0188 -0.2732
  711MOL0     C93746  10.970   8.730   9.350 -0.0483 -0.9228 -0.0877
  711MOL0     C93747  11.052   8.631   9.293 -0.1667  0.5135  0.2090
  711MOL0     C93748  11.181   8.657   9.262  0.0660  0.1854 -0.4294
  711MOL0     C93749  11.283   8.560   9.224  0.7898 -0.6451  0.3239
  711MOL0     O93750  11.407   8.595   9.180  0.2742  0.6373  0.6688
  711MOL0     C93751  11.503   8.514   9.146 -0.1540  0.1270  0.2627
  711MOL0     C93752  11.588   8.444   9.241  0.3420  0.5112  1.2639
  711MOL0     C93753  11.671   8.344   9.189 -0.7429  0.0161 -0.7206
  711MOL0     C93754  11.681   8.305   9.050  0.9633 -0.2920 -0.1773
  711MOL0     O93755  11.764   8.205   9.019  0.5102 -0.7472 -0.2274
  711MOL0     C93756  11.716   8.105   8.924 -0.1332 -0.0942 -0.6590
  711MOL0     C93757  11.826   8.006   8.875  0.4567 -0.7571 -0.1580
  711MOL0     C93758  11.951   8.080   8.830 -0.1409 -0.7023 -1.0669
  711MOL0     C93759  12.074   7.999   8.804 -0.2928 -0.0777 -0.4638
  711MOL0     C93760  12.200   8.074   8.845 -0.1047 -0.5311 -0.3239
  711MOL0     C93761  12.330   8.009   8.805  0.4304 -0.4847  0.4528
  711MOL0     C93762  12.359   7.877   8.880  0.8130  0.0135 -0.8167
  711MOL0     C93763  12.493   7.830   8.846 -1.0630  0.1577 -0.4474
  711MOL0    Cl93764  12.524   7.677   8.935 -0.4622 -0.3646 -0.0230
  711MOL0     C93765  11.599   8.389   8.958 -0.2834 -0.2021 -0.3819
  711MOL0     C93766  11.523   8.490   9.007 -0.1630  0.0105 -0.0037
  711MOL0     O93767  11.246   8.442   9.245  0.3120 -0.3115  0.4739
  711MOL0     C93768  11.221   8.792   9.268 -0.2334 -0.9208 -0.2059
  711MOL0     C93769  11.142   8.890   9.326 -0.0562 -0.0461  0.1996
  711MOL0     N93770  10.463   9.252   9.114  0.2546 -0.7126 -0.3338
  711MOL0     N93771  10.401   9.365   9.111 -1.0092  0.3081  0.0378
  711MOL0     C93772   9.227   9.527   9.397  0.1161 -1.1178 -0.0668
  711MOL0     C93773   9.090   9.543   9.406 -0.5920 -0.6092 -1.2191
  711MOL0     C93774   8.664   9.712   9.260 -0.5569  0.9706  1.2083
  711MOL0     C93775   8.594   9.834   9.245 -0.0071  0.3250  0.7641
  711MOL0     C93776   8.451   9.840   9.257  0.3501 -0.1818  0.1740
  711MOL0     C93777   8.377   9.727   9.288  0.0659 -1.0042 -0.7329
  711MOL0     O93778   8.242   9.725   9.305 -0.5437  0.0671  1.0258
  711MOL0     C93779   8.171   9.835   9.248  0.1841 -1.2375  0.5176
  711MOL0     C93780   8.022   9.791   9.213 -0.4060 -1.1033 -0.3361
  711MOL0     C93781   7.953   9.751   9.338  0.7864  0.1903 -0.5100
  711MOL0     C93782   7.799   9.717   9.321  0.3477  0.2638  0.3883
  711MOL0     C93783   7.778   9.608   9.217 -0.3074  0.3016 -0.0182
  711MOL0     C93784   7.793   9.517   9.132 -0.2179  0.3073 -1.4743
  711MOL0     C93785   8.449   9.609   9.300  0.0676 -0.9166  0.5965
  711MOL0     C93786   8.592   9.601   9.297  0.7988 -0.3856 -0.3610
  711MOL0     H93787   9.052   9.719   9.112  2.3570 -1.3682 -2.9479
  711MOL0     H93788   9.293   9.699   9.114  0.1734  0.1409 -0.5054
  711MOL0     H93789   9.441   9.361   9.311 -0.4373 -0.4085  1.1967
  711MOL0     H93790   9.492   9.458   9.445  0.7335 -0.7128 -0.4703
  711MOL0     H93791   9.705   9.412   9.402 -0.0110  1.9839  1.4099
  711MOL0     H93792   9.688   9.540   9.295  1.3017 -0.8618 -3.9431
  711MOL0     H93793   9.628   9.389   9.107  0.7750  0.2013  0.2194
  711MOL0     H93794   9.654   9.239   9.207  2.0462 -0.6218  0.2678
  711MOL0     H93795   9.872   9.311   9.249  1.2020  1.7998 -0.3232
  711MOL0     H93796   9.842   9.293   9.072  2.9158 -1.0705  1.0538
  711MOL0     H93797   9.812   9.574   9.146  0.2299  0.2948 -0.6069
  711MOL0     H93798   9.911   9.500   9.015 -1.1556  1.7959  0.5476
  711MOL0     H93799   9.979   9.550   9.300  1.4417  1.2090  1.6116
  711MOL0     H93800  10.059   9.608   9.147 -0.5300 -1.2349 -1.7332
  711MOL0     H93801  10.097   9.317   9.199 -0.4241 -0.3311  3.1842
  711MOL0     H93802  10.147   9.436   9.074  1.3576 -0.5714  0.5066
  711MOL0     H93803  10.225   9.486   9.362 -3.9928  1.0832 -0.4623
  711MOL0     H93804  10.275   9.579   9.232  0.7072  0.2433 -0.8915
  711MOL0     H93805  10.347   9.254   9.411 -2.0844  1.0512 -0.5646
  711MOL0     H93806  10.527   9.009   9.174 -1.2900 -3.9936  1.6568
  711MOL0     H93807  10.455   9.003   9.333 -0.9304 -0.6012 -0.4852
  711MOL0     H93808  10.669   9.160   9.403 -1.2677  0.8507 -1.0397
  711MOL0     H93809  10.734   9.118   9.253  1.1388 -0.2077  1.8292
  711MOL0     H93810  10.620   8.900   9.447 -1.0229  0.4545 -0.5780
  711MOL0     H93811  10.735   8.878   9.303  1.9945  2.1373 -1.1388
  711MOL0     H93812  10.818   8.828   9.538  3.0573  0.1794  0.4201
  711MOL0     H93813  10.766   8.990   9.569 -3.2745  0.3898 -2.0271
  711MOL0     H93814  10.871   8.703   9.384 -0.1557 -1.0210 -0.4723
  711MOL0     H93815  11.004   8.534   9.281 -2.7962  1.8321 -0.6131
  711MOL0     H93816  11.568   8.459   9.346 -0.5898 -0.6559  1.2819
  711MOL0     H93817  11.738   8.300   9.262 -1.1832  1.2486  0.4634
  711MOL0     H93818  11.669   8.150   8.836  0.5895  0.3762 -0.8079
  711MOL0     H93819  11.637   8.046   8.973 -1.8274  0.0926 -3.0068
  711MOL0     H93820  11.781   7.947   8.795 -1.9054  0.6834 -0.0028
  711MOL0     H93821  11.856   7.937   8.954  2.1413  1.6232  1.4165
  711MOL0     H93822  11.964   8.164   8.899  0.0241 -2.3949  1.0839
  711MOL0     H93823  11.938   8.133   8.735  1.0229  2.3287  0.3321
  711MOL0     H93824  12.072   7.909   8.867  0.4807  1.6285  2.1137
  711MOL0     H93825  12.077   7.962   8.701 -2.4290  1.0526 -0.9967
  711MOL0     H93826  12.201   8.090   8.953  2.2226 -3.0093  0.1293
  711MOL0     H93827  12.197   8.173   8.798  0.9834 -2.0238 -3.8594
  711MOL0     H93828  12.408   8.079   8.837 -0.1100  0.1912  0.2998
  711MOL0     H93829  12.349   7.989   8.699 -1.3818 -0.8297  0.1543
  711MOL0     H93830  12.355   7.899   8.988 -1.3200 -3.9713  0.1070
  711MOL0     H93831  12.281   7.801   8.869  2.3796 -1.3950 -2.7312
  711MOL0     H93832  12.569   7.904   8.872 -1.7880  0.7566  0.0101
  711MOL0     H93833  12.506   7.813   8.739 -0.7030  3.2862 -1.0039
  711MOL0     H93834  11.615   8.383   8.850 -3.6253  3.3054 -1.2960
  711MOL0     H93835  11.478   8.560   8.937 -2.2160  0.0778  1.2842
  711MOL0     H93836  11.321   8.819   9.238 -0.3205  1.1144  1.1212
  711MOL0     H93837  11.174   8.992   9.342 -2.3427  0.9865 -1.3508
  711MOL0     H93838   9.266   9.467   9.478 -2.4177  1.4129  3.2954
  711MOL0     H93839   9.046   9.498   9.494  0.2823 -0.4186 -0.6679
  711MOL0     H93840   8.639   9.931   9.223 -4.2340  2.3563 -0.0468
  711MOL0     H93841   8.393   9.932   9.256  0.7229  0.1269 -3.2332
  711MOL0     H93842   8.212   9.872   9.153 -1.9034  1.5065  0.5521
  711MOL0     H93843   8.168   9.927   9.307 -0.0324 -1.3948  0.7526
  711MOL0     H93844   7.971   9.870   9.158  0.6313  0.7109  1.1711
  711MOL0     H93845   8.026   9.704   9.146  2.5904  0.6380 -2.6976
  711MOL0     H93846   7.965   9.827   9.416 -1.1791 -1.2034  1.2888
  711MOL0     H93847   7.984   9.658   9.386 -1.7752 -0.0312  0.9370
  711MOL0     H93848   7.757   9.693   9.419  0.4433  4.2986  1.5659
  711MOL0     H93849   7.759   9.812   9.286 -0.0676  0.3161  0.9965
  711MOL0     H93850   7.827   9.435   9.073 -2.5393 -0.2189 -2.2006
  711MOL0     H93851   8.380   9.528   9.320 -0.1202 -1.3985 -1.6521
  711MOL0     H93852   8.629   9.499   9.300  3.5186  0.4986 -1.0665
  712MOL0     O93853   3.408  10.726   2.786 -0.8236  0.4332  0.4906
  712MOL0     C93854   3.365  10.818   2.715 -0.3301  0.1360  0.1233
  712MOL0     O93855   3.436  10.867   2.602 -0.3444 -0.6994 -0.0489
  712MOL0     C93856   3.576  10.872   2.601  0.0712 -0.3392 -0.2857
  712MOL0     C93857   3.660  10.772   2.654  0.7206  0.1134  0.1549
  712MOL0     C93858   3.800  10.798   2.662  0.0642 -0.7787 -0.2647
  712MOL0     C93859   3.856  10.912   2.604 -0.6888 -1.0593  0.4559
  712MOL0     O93860   3.991  10.934   2.601  0.0820  0.1838 -0.4393
  712MOL0     C93861   4.076  10.841   2.680 -0.8734  0.4855  0.0763
  712MOL0     C93862   4.220  10.887   2.681 -0.2970  0.1341 -0.8004
  712MOL0     C93863   4.279  10.903   2.543 -1.0070 -0.2793  0.7892
  712MOL0     C93864   4.420  10.938   2.549 -0.5436 -0.0880  0.8438
  712MOL0     C93865   4.510  10.879   2.437 -1.0619  0.3907  0.0617
  712MOL0     C93866   4.488  10.932   2.298 -0.3383  0.7265  0.1303
  712MOL0     C93867   4.567  10.849   2.190 -0.4045 -0.1312  0.0481
  712MOL0     C93868   4.491  10.830   2.058 -0.1541 -0.4549 -1.6713
  712MOL0     N93869   4.363  10.759   2.068 -0.2282 -0.4705 -0.2544
  712MOL0     C93870   4.249  10.801   2.016 -0.3945  0.2592  0.0940
  712MOL0     C93871   4.162  10.708   2.065  0.5966 -0.5961 -0.2085
  712MOL0     C93872   4.014  10.696   2.030 -0.7025  0.2772  0.7160
  712MOL0     C93873   3.929  10.789   2.126 -0.4873 -0.1659  0.3924
  712MOL0     C93874   3.963  10.753   2.274  0.0011  0.0016  0.2905
  712MOL0     C93875   3.934  10.609   2.310  0.0072  0.8442  0.5388
  712MOL0     O93876   3.787  10.589   2.299  0.1936  0.1556 -0.6443
  712MOL0     C93877   3.740  10.460   2.305 -0.1601 -0.6815  0.0490
  712MOL0     C93878   3.654  10.432   2.410 -0.4208 -0.3198  1.1112
  712MOL0     C93879   3.615  10.305   2.441 -0.5695  1.0714  0.0131
  712MOL0     C93880   3.670  10.192   2.366 -0.4942 -0.4271 -0.2558
  712MOL0     C93881   3.608  10.057   2.378  0.7833  0.0413 -0.0953
  712MOL0     O93882   3.475  10.058   2.432 -0.6956  0.6302 -0.1618
  712MOL0     C93883   3.410   9.943   2.475 -0.0181 -0.5592 -0.3033
  712MOL0     C93884   3.424   9.906   2.614  0.4994  0.1012  0.0655
  712MOL0     C93885   3.372   9.781   2.659 -0.1744 -0.8308 -0.1764
  712MOL0     C93886   3.300   9.703   2.568  0.2208  0.0918  0.4184
  712MOL0     O93887   3.241   9.584   2.603  0.3559  0.7011  0.0850
  712MOL0     C93888   3.308   9.497   2.694  0.1681  0.2079 -0.4166
  712MOL0     C93889   3.382   9.374   2.631  0.2203 -0.0983 -0.4311
  712MOL0     C93890   3.415   9.280   2.741 -0.0630  0.6446  0.3678
  712MOL0     C93891   3.463   9.151   2.693 -0.8843  0.6507 -1.0253
  712MOL0     C93892   3.475   9.033   2.788 -0.3400 -0.5478 -0.2714
  712MOL0     C93893   3.559   8.903   2.733  0.5229 -0.5919  0.2343
  712MOL0     C93894   3.551   8.787   2.839  0.0838 -0.0711  0.4170
  712MOL0     C93895   3.679   8.703   2.812 -0.1176  0.7166  0.3492
  712MOL0    Cl93896   3.733   8.647   2.972 -0.0662 -0.1604  0.4984
  712MOL0     C93897   3.289   9.735   2.431 -0.9035 -0.6558  0.0356
  712MOL0     C93898   3.342   9.856   2.382  0.0473  0.3656 -0.8060
  712MOL0     O93899   3.672   9.955   2.344  0.9584 -0.5574  0.1931
  712MOL0     C93900   3.775  10.215   2.275 -0.2896 -0.0822  0.1006
  712MOL0     C93901   3.809  10.352   2.244  0.7792 -0.0800 -0.3133
  712MOL0     N93902   4.225  10.615   2.149  0.2429  0.8716 -0.8596
  712MOL0     N93903   4.351  10.644   2.146  0.1742 -1.0416  0.6664
  712MOL0     C93904   3.779  10.999   2.536  0.2566  0.2652 -0.1575
  712MOL0     C93905   3.635  10.974   2.526  0.2252 -1.1471  0.5085
  712MOL0     C93906   3.216  10.857   2.727  0.3967  0.2842  0.2267
  712MOL0     C93907   3.126  10.788   2.811 -0.1350  0.0471 -0.7281
  712MOL0     C93908   2.992  10.834   2.816  1.0065 -0.8684  0.0249
  712MOL0     C93909   2.955  10.947   2.745  0.2044  0.2591 -0.5673
  712MOL0     O93910   2.818  10.980   2.737 -0.1370  0.0186 -0.6155
  712MOL0     C93911   2.804  11.122   2.716  0.6734 -0.1858  0.9832
  712MOL0     C93912   2.679  11.176   2.784  0.2414 -0.4052 -0.2568
  712MOL0     C93913   2.551  11.157   2.703 -0.2775 -0.2130 -0.2242
  712MOL0     C93914   2.428  11.206   2.781 -0.5991  0.1626 -0.9888
  712MOL0     C93915   2.316  11.193   2.682  0.0387 -0.2555 -0.3635
  712MOL0     C93916   2.229  11.190   2.601 -0.7225 -0.2202 -0.0875
  712MOL0     C93917   3.053  11.018   2.674  0.1671 -0.2047  0.5160
  712MOL0     C93918   3.184  10.978   2.670  0.6416  0.3248  0.4251
  712MOL0     H93919   3.621  10.677   2.690  2.6688 -0.5904  0.5600
  712MOL0     H93920   3.863  10.721   2.706  0.7169 -0.6064 -0.8816
  712MOL0     H93921   4.087  10.737   2.649  1.3926 -0.1337  2.6317
  712MOL0     H93922   4.037  10.836   2.782  1.3859 -2.0904  0.9256
  712MOL0     H93923   4.264  10.811   2.747 -2.1962  0.0748  0.4728
  712MOL0     H93924   4.228  10.987   2.725 -2.5353 -0.1086  0.2715
  712MOL0     H93925   4.219  10.976   2.488  0.8931  1.8924  1.4316
  712MOL0     H93926   4.267  10.809   2.488 -0.1807 -1.4872  2.5439
  712MOL0     H93927   4.426  11.047   2.555  0.5263 -0.2135  4.0156
  712MOL0     H93928   4.450  10.896   2.646 -0.9477 -0.6287  0.7386
  712MOL0     H93929   4.504  10.770   2.447  0.4132  0.1905 -1.0313
  712MOL0     H93930   4.609  10.900   2.477  0.1962 -1.3814 -1.9125
  712MOL0     H93931   4.511  11.038   2.288 -1.9768  1.0934 -0.0849
  712MOL0     H93932   4.379  10.933   2.283 -0.4506  0.0396  0.8600
  712MOL0     H93933   4.666  10.894   2.182  0.2377 -0.6451  3.3857
  712MOL0     H93934   4.585  10.751   2.237  2.1373  0.3937  0.3158
  712MOL0     H93935   4.559  10.771   1.996  1.4505 -0.6602  0.1816
  712MOL0     H93936   4.486  10.926   2.006 -2.2852 -0.0908 -0.9118
  712MOL0     H93937   4.244  10.882   1.944  1.5356  2.6706  2.4477
  712MOL0     H93938   3.980  10.593   2.045  1.5959 -0.3587  1.9439
  712MOL0     H93939   4.000  10.727   1.926 -1.6516 -0.9499  0.4544
  712MOL0     H93940   3.822  10.770   2.115 -0.9116  0.8154  2.2944
  712MOL0     H93941   3.946  10.897   2.127 -0.0760 -0.1965 -1.0345
  712MOL0     H93942   4.067  10.775   2.302  1.5706 -5.1996 -0.3474
  712MOL0     H93943   3.896  10.806   2.341 -0.1955  1.1036 -0.7362
  712MOL0     H93944   3.965  10.586   2.412 -1.9532  0.0042  1.0076
  712MOL0     H93945   4.001  10.533   2.269 -1.2302 -0.0561  0.0894
  712MOL0     H93946   3.614  10.516   2.467  0.3418  0.5766  0.3623
  712MOL0     H93947   3.548  10.283   2.523 -0.1457  1.9668  0.6048
  712MOL0     H93948   3.471   9.965   2.692 -0.5593  0.0453  0.7560
  712MOL0     H93949   3.380   9.765   2.765  0.6843  1.8485  0.2558
  712MOL0     H93950   3.222   9.466   2.754  0.6495  2.1927  1.4648
  712MOL0     H93951   3.378   9.549   2.761 -2.3477 -1.3930  3.8812
  712MOL0     H93952   3.479   9.413   2.597  0.7949  1.5968  2.8266
  712MOL0     H93953   3.318   9.328   2.555  0.2493  1.2248 -1.2779
  712MOL0     H93954   3.331   9.268   2.810  2.3089 -1.2001  3.2005
  712MOL0     H93955   3.495   9.328   2.798  3.0164 -2.2615 -1.2055
  712MOL0     H93956   3.388   9.119   2.620 -0.0135 -0.0102 -1.6565
  712MOL0     H93957   3.560   9.169   2.644  0.0925  0.2252  0.6612
  712MOL0     H93958   3.378   9.006   2.832 -1.4229 -1.7949 -3.1962
  712MOL0     H93959   3.536   9.065   2.873 -1.2559  3.0965 -0.8341
  712MOL0     H93960   3.658   8.948   2.719  0.8615 -0.9246  1.4437
  712MOL0     H93961   3.527   8.872   2.633  0.4376 -2.6141  0.8381
  712MOL0     H93962   3.566   8.834   2.936  0.3587 -0.3071  0.4919
  712MOL0     H93963   3.462   8.724   2.836 -0.5162  0.7735  0.1933
  712MOL0     H93964   3.754   8.766   2.762  1.4757 -0.3653  1.2734
  712MOL0     H93965   3.654   8.619   2.746  2.5121  0.3012 -0.2390
  712MOL0     H93966   3.246   9.661   2.363  0.0263 -1.4996  0.3501
  712MOL0     H93967   3.341   9.884   2.277  0.6470  1.6825 -0.4860
  712MOL0     H93968   3.822  10.134   2.220  1.9506 -0.9261  2.9898
  712MOL0     H93969   3.891  10.363   2.174  0.4333 -0.0855 -0.7297
  712MOL0     H93970   3.820  11.088   2.489 -1.8555  0.2902 -2.1561
  712MOL0     H93971   3.577  11.053   2.480 -1.1150 -0.8407  2.5675
  712MOL0     H93972   3.156  10.697   2.863 -0.9010  1.1989  1.8751
  712MOL0     H93973   2.918  10.765   2.855  0.7960 -1.3663 -1.1882
  712MOL0     H93974   2.807  11.140   2.609 -0.2152 -2.0783  0.6046
  712MOL0     H93975   2.885  11.180   2.761  0.7242 -0.1114  0.7942
  712MOL0     H93976   2.658  11.144   2.887 -0.9768 -0.2109 -0.4299
  712MOL0     H93977   2.712  11.280   2.788  2.0822 -0.3100 -6.9033
  712MOL0     H93978   2.542  11.052   2.674  1.3165 -0.2760 -0.5954
  712MOL0     H93979   2.562  11.215   2.611  3.3257 -2.6288 -1.5355
  712MOL0     H93980   2.413  11.134   2.862  1.6322  1.1639  0.3892
  712MOL0     H93981   2.439  11.306   2.824 -2.2194 -0.3534  0.7897
  712MOL0     H93982   2.158  11.192   2.520  0.4884  2.4344 -1.1947
  712MOL0     H93983   3.033  11.093   2.599 -1.6150 -0.1449  0.9950
  712MOL0     H93984   3.254  11.040   2.616 -0.2181  1.4415  0.5427
  713MOL0     O93985   8.724   4.942   2.544 -0.1058 -0.9964  0.1589
  713MOL0     C93986   8.771   4.998   2.643  0.2185 -0.3623 -0.5159
  713MOL0     O93987   8.695   5.071   2.725 -0.7022 -0.2731 -0.3771
  713MOL0     C93988   8.561   5.064   2.719 -0.5580 -0.2031 -0.0421
  713MOL0     C93989   8.488   5.184   2.725 -0.4174  0.2637  0.0850
  713MOL0     C93990   8.360   5.192   2.705 -0.3448  0.4013  0.8091
  713MOL0     C93991   8.286   5.075   2.687  0.6613 -0.2690  1.2005
  713MOL0     O93992   8.148   5.099   2.650 -0.4746  0.1071 -0.2585
  713MOL0     C93993   8.070   4.983   2.622  0.5757  0.3261  0.1543
  713MOL0     C93994   7.923   5.008   2.616  0.1382  0.0552  0.5119
  713MOL0     C93995   7.852   4.874   2.586 -0.3296  0.1555  0.3727
  713MOL0     C93996   7.711   4.903   2.566  0.2347  0.1237  0.1556
  713MOL0     C93997   7.612   4.784   2.590  0.3637  0.3491 -0.3314
  713MOL0     C93998   7.495   4.801   2.489 -1.3928 -0.2415 -0.3551
  713MOL0     C93999   7.395   4.690   2.494 -0.1432  0.6539 -0.1033
  713MOL0     C94000   7.323   4.702   2.620  1.4825 -0.0871  0.3389
  713MOL0     N94001   7.276   4.836   2.661 -0.1714  0.3821 -0.4436
  713MOL0     C94002   7.153   4.886   2.648  0.4197  0.0069  0.2737
  713MOL0     C94003   7.143   4.994   2.721  0.8378 -0.1449  0.7707
  713MOL0     C94004   7.008   5.052   2.769 -0.9053  0.0036  0.0582
  713MOL0     C94005   6.976   4.986   2.900  0.0965 -0.9219 -0.3733
  713MOL0     C94006   6.836   5.011   2.967  0.5757  0.3573 -0.2862
  713MOL0     C94007   6.719   4.976   2.876  0.6761 -1.3266  0.2416
  713MOL0     O94008   6.606   5.061   2.914  0.5147 -0.8172 -0.0190
  713MOL0     C94009   6.487   5.009   2.877  0.1156 -0.3467 -0.6349
  713MOL0     C94010   6.384   5.035   2.966 -1.0048  0.6689  0.3837
  713MOL0     C94011   6.254   4.991   2.936 -0.3277  0.0631 -0.7425
  713MOL0     C94012   6.221   4.920   2.819 -0.2254 -0.2390 -0.2274
  713MOL0     C94013   6.082   4.874   2.800 -0.0769  0.0772  0.0447
  713MOL0     O94014   5.992   4.936   2.872 -0.0959 -0.0266 -0.5867
  713MOL0     C94015   5.865   4.892   2.869  0.7079 -0.2180 -0.5201
  713MOL0     C94016   5.780   4.963   2.790  0.5449 -0.6430  0.0077
  713MOL0     C94017   5.640   4.939   2.792  0.7223  0.3932  0.1606
  713MOL0     C94018   5.587   4.834   2.878 -0.8059 -0.0536 -0.4222
  713MOL0     O94019   5.464   4.783   2.858  0.2628 -0.2902  0.8976
  713MOL0     C94020   5.423   4.662   2.907 -0.3272  0.2872 -0.4285
  713MOL0     C94021   5.321   4.608   2.815  0.1850  0.4808 -0.0848
  713MOL0     C94022   5.200   4.709   2.811  0.8741  0.4868 -0.3791
  713MOL0     C94023   5.064   4.666   2.754  0.8219 -0.7583  0.5480
  713MOL0     C94024   4.954   4.774   2.800  0.1561  0.1565 -0.8649
  713MOL0     C94025   4.813   4.734   2.753  0.2455  0.0958  0.8335
  713MOL0     C94026   4.704   4.821   2.823  0.4772  0.1197 -0.6101
  713MOL0     C94027   4.567   4.813   2.740 -0.2265 -0.6607 -0.2732
  713MOL0    Cl94028   4.503   4.644   2.733 -0.3007 -0.0233  0.3319
  713MOL0     C94029   5.682   4.772   2.963 -0.0355 -0.0509  0.0752
  713MOL0     C94030   5.817   4.800   2.959 -0.0049 -0.5707  0.4115
  713MOL0     O94031   6.058   4.791   2.709 -0.4453 -0.0912  0.4603
  713MOL0     C94032   6.325   4.908   2.723 -0.8821  0.9157 -0.5351
  713MOL0     C94033   6.457   4.944   2.753 -0.0354 -1.0408  0.1929
  713MOL0     N94034   7.268   5.019   2.777 -0.0533  0.0270  0.6622
  713MOL0     N94035   7.345   4.922   2.743 -0.3154  0.4271 -0.2618
  713MOL0     C94036   8.345   4.949   2.703 -0.8550  0.7851 -0.0023
  713MOL0     C94037   8.491   4.944   2.714  0.0289 -0.4778 -0.0770
  713MOL0     C94038   8.927   4.984   2.664  1.5158 -0.0720 -0.6602
  713MOL0     C94039   8.988   4.885   2.595  0.1166 -0.0635  0.3990
  713MOL0     C94040   9.122   4.856   2.616 -1.2940 -0.3412  0.3715
  713MOL0     C94041   9.198   4.927   2.703 -0.8337 -0.1794 -0.4784
  713MOL0     O94042   9.333   4.897   2.724 -0.2518  0.3304 -0.6939
  713MOL0     C94043   9.356   4.761   2.759 -0.0524 -0.4526 -1.5287
  713MOL0     C94044   9.501   4.732   2.793  0.0584 -0.1425  0.7669
  713MOL0     C94045   9.591   4.853   2.844  0.8562  0.1532  0.2404
  713MOL0     C94046   9.737   4.833   2.811  0.5671  1.2065 -0.0522
  713MOL0     C94047   9.813   4.894   2.918 -0.9224  0.5886 -0.1079
  713MOL0     C94048   9.875   4.932   3.013 -0.4208 -0.2712 -1.0742
  713MOL0     C94049   9.133   5.031   2.774 -0.3703 -0.1887  0.4178
  713MOL0     C94050   8.999   5.058   2.756  0.8797 -0.6675 -0.6023
  713MOL0     H94051   8.544   5.276   2.737 -0.8860  0.7050 -0.9943
  713MOL0     H94052   8.303   5.283   2.689  0.8383  1.0327  0.0264
  713MOL0     H94053   8.082   4.906   2.699  0.1135  0.5350  0.4437
  713MOL0     H94054   8.099   4.951   2.522 -2.5484 -0.7800 -0.5231
  713MOL0     H94055   7.888   5.075   2.537 -0.9978 -0.8539  0.2175
  713MOL0     H94056   7.892   5.052   2.711  0.4588  2.8363 -0.5751
  713MOL0     H94057   7.874   4.805   2.667  0.2503 -1.6110 -1.2334
  713MOL0     H94058   7.894   4.828   2.496 -2.2817  1.2099 -1.1778
  713MOL0     H94059   7.683   4.981   2.638  1.8684  0.1776  0.7801
  713MOL0     H94060   7.714   4.943   2.464  1.9653 -0.2690  0.0191
  713MOL0     H94061   7.578   4.786   2.694 -2.4881  2.6033 -1.1706
  713MOL0     H94062   7.654   4.685   2.570  1.9270  1.2008 -1.5415
  713MOL0     H94063   7.535   4.818   2.389 -0.3251  3.7801  0.5667
  713MOL0     H94064   7.447   4.896   2.515 -1.9725 -0.8695  0.9972
  713MOL0     H94065   7.327   4.705   2.409  0.4149 -0.6145 -0.7984
  713MOL0     H94066   7.436   4.588   2.491  1.2828  1.0815  2.4642
  713MOL0     H94067   7.388   4.677   2.704 -0.0867 -2.8943  0.8603
  713MOL0     H94068   7.243   4.629   2.635  0.2753  1.2264  0.5515
  713MOL0     H94069   7.066   4.842   2.599 -0.7695  1.8913  0.5734
  713MOL0     H94070   6.927   5.064   2.697 -2.3218  0.3727  1.6536
  713MOL0     H94071   7.009   5.158   2.795 -2.6789  0.5051 -1.6544
  713MOL0     H94072   7.054   5.025   2.966  0.1064 -1.5419 -0.0120
  713MOL0     H94073   6.988   4.878   2.892  0.3952 -0.8622 -0.7553
  713MOL0     H94074   6.825   4.948   3.056  1.3718  0.8346  0.1639
  713MOL0     H94075   6.818   5.117   2.990 -4.1522 -0.0154 -1.2805
  713MOL0     H94076   6.699   4.868   2.876 -0.8250 -1.2533 -4.0698
  713MOL0     H94077   6.745   5.002   2.773  1.3985 -2.0612  0.2188
  713MOL0     H94078   6.401   5.092   3.057  1.9282 -3.0433  2.4811
  713MOL0     H94079   6.179   5.015   3.011  0.8347  1.2211  0.0920
  713MOL0     H94080   5.824   5.034   2.721  3.6647 -2.1061  0.3546
  713MOL0     H94081   5.564   4.981   2.726  0.7980 -0.6587 -0.6202
  713MOL0     H94082   5.400   4.667   3.014  1.3040 -1.7576  0.0773
  713MOL0     H94083   5.504   4.589   2.898 -0.9226 -0.2138 -2.0767
  713MOL0     H94084   5.286   4.509   2.846  0.0578 -0.5493 -3.2357
  713MOL0     H94085   5.358   4.610   2.713  1.2225  0.7581  0.2863
  713MOL0     H94086   5.223   4.799   2.752 -1.3976  1.2526 -0.2052
  713MOL0     H94087   5.187   4.747   2.913 -0.7645  3.2486 -1.4985
  713MOL0     H94088   5.057   4.654   2.645 -1.0080 -1.4405  0.7054
  713MOL0     H94089   5.036   4.570   2.798  0.0099 -1.7342 -1.9098
  713MOL0     H94090   4.978   4.867   2.748 -0.8956  0.8292 -0.1867
  713MOL0     H94091   4.956   4.789   2.908 -3.1464  3.5497 -1.0920
  713MOL0     H94092   4.783   4.636   2.791 -2.7210  0.8722  0.8009
  713MOL0     H94093   4.810   4.734   2.644 -0.4249  0.7742  0.8376
  713MOL0     H94094   4.694   4.775   2.922 -0.7488  0.6581 -0.4716
  713MOL0     H94095   4.735   4.925   2.829 -0.3513  0.4003 -1.0230
  713MOL0     H94096   4.582   4.870   2.647 -0.7999  2.7250  1.5551
  713MOL0     H94097   4.493   4.865   2.801 -1.5334 -1.7651 -0.8791
  713MOL0     H94098   5.658   4.687   3.026  2.6113 -0.6542  0.4165
  713MOL0     H94099   5.889   4.754   3.026  0.9448 -2.2264 -1.5952
  713MOL0     H94100   6.298   4.855   2.633  1.1387  1.3273 -1.4377
  713MOL0     H94101   6.534   4.929   2.679 -1.7093  0.5219 -1.9849
  713MOL0     H94102   8.300   4.853   2.681  2.8258 -1.1556  0.1150
  713MOL0     H94103   8.546   4.850   2.714  0.3364 -0.3165  1.2236
  713MOL0     H94104   8.953   4.826   2.511  3.0490  1.4216 -2.0564
  713MOL0     H94105   9.168   4.776   2.559  1.2904  0.4515  1.2167
  713MOL0     H94106   9.323   4.689   2.683 -1.4999 -0.1467 -1.2103
  713MOL0     H94107   9.298   4.744   2.849  0.2331 -1.0764 -1.4530
  713MOL0     H94108   9.508   4.638   2.849 -1.4997 -0.6687  0.1169
  713MOL0     H94109   9.545   4.704   2.696 -5.2726  1.9231 -2.6477
  713MOL0     H94110   9.580   4.858   2.953  0.0196  1.8284  0.1196
  713MOL0     H94111   9.571   4.954   2.807 -0.1734 -1.2423 -3.3999
  713MOL0     H94112   9.759   4.726   2.806 -0.3731  0.9423  0.9713
  713MOL0     H94113   9.752   4.883   2.715 -0.1338  0.4667 -0.5722
  713MOL0     H94114   9.936   4.982   3.086 -0.1810  0.3869 -1.7177
  713MOL0     H94115   9.196   5.088   2.842  0.9642 -1.1050 -0.0213
  713MOL0     H94116   8.949   5.142   2.803 -0.0484  0.1109 -2.8221
  714MOL0     O94117   0.083   3.470   0.468 -0.6629  0.0120  0.3111
  714MOL0     C94118   0.125   3.392   0.386 -1.0686  0.8807  0.1090
  714MOL0     O94119   0.067   3.355   0.271  0.4729  0.8274  0.0539
  714MOL0     C94120  -0.063   3.372   0.252 -0.3563  0.3756  0.1291
  714MOL0     C94121  -0.150   3.285   0.312  0.1853  1.1991  0.7928
  714MOL0     C94122  -0.293   3.286   0.280 -0.0028  0.1578  0.8521
  714MOL0     C94123  -0.339   3.369   0.182 -0.1551  0.8416  0.1881
  714MOL0     O94124  -0.463   3.345   0.133  0.7326  0.4566  0.1054
  714MOL0     C94125  -0.509   3.398   0.009 -0.1845 -0.2225 -0.3423
  714MOL0     C94126  -0.650   3.339  -0.008  0.9138 -0.2555 -0.0786
  714MOL0     C94127  -0.678   3.336  -0.160  0.6615  0.5900 -0.0465
  714MOL0     C94128  -0.791   3.235  -0.193  0.6555 -0.2088  0.3345
  714MOL0     C94129  -0.742   3.092  -0.189 -0.2601 -0.3472 -0.8027
  714MOL0     C94130  -0.819   2.990  -0.268  0.1167 -0.3501 -0.0821
  714MOL0     C94131  -0.957   2.972  -0.225  0.0498  0.0607  0.1616
  714MOL0     C94132  -1.022   2.852  -0.291  0.5754  0.3558  0.3484
  714MOL0     N94133  -1.167   2.863  -0.265 -0.1810 -0.4923  0.5133
  714MOL0     C94134  -1.245   2.759  -0.239  0.8300  0.0287  0.4129
  714MOL0     C94135  -1.370   2.799  -0.277  0.1490 -0.4522  0.8037
  714MOL0     C94136  -1.493   2.711  -0.270  0.1098 -0.3921  0.5005
  714MOL0     C94137  -1.627   2.791  -0.259 -0.5627 -0.3702 -0.3392
  714MOL0     C94138  -1.635   2.888  -0.139  0.3072 -0.3999 -0.1902
  714MOL0     C94139  -1.780   2.935  -0.114 -0.0542 -0.1425 -0.2143
  714MOL0     O94140  -1.794   3.060  -0.183  0.2930  0.2014 -0.7688
  714MOL0     C94141  -1.885   3.154  -0.138  0.2634  0.1710 -0.8598
  714MOL0     C94142  -1.863   3.218  -0.011 -0.0574  0.6376 -0.8199
  714MOL0     C94143  -1.938   3.322   0.035  0.0217  0.2008 -0.1086
  714MOL0     C94144  -2.040   3.377  -0.045 -0.7473 -0.0994  0.1297
  714MOL0     C94145  -2.127   3.478   0.006  0.5028  0.4934 -0.3150
  714MOL0     O94146  -2.209   3.533  -0.083 -0.6923 -0.2582 -0.2211
  714MOL0     C94147  -2.287   3.641  -0.058 -0.1498 -0.1248  0.3926
  714MOL0     C94148  -2.389   3.646  -0.146  0.3375 -0.2393 -0.4537
  714MOL0     C94149  -2.489   3.740  -0.120  0.4528 -0.5180 -0.7642
  714MOL0     C94150  -2.471   3.848  -0.035  0.5600 -0.4667 -0.5316
  714MOL0     O94151  -2.580   3.925  -0.029  0.0901  0.3791 -0.3797
  714MOL0     C94152  -2.578   4.059   0.036  0.0090 -0.0666 -0.6862
  714MOL0     C94153  -2.725   4.112   0.030 -0.3841  0.2775 -0.0557
  714MOL0     C94154  -2.792   4.120  -0.115  0.1498 -0.3115  0.1008
  714MOL0     C94155  -2.944   4.150  -0.106  1.1524  0.7345 -0.3791
  714MOL0     C94156  -3.012   4.139  -0.240 -0.3474 -1.0398  0.4140
  714MOL0     C94157  -3.163   4.166  -0.236  0.3483  0.6825 -0.6540
  714MOL0     C94158  -3.237   4.120  -0.371  0.0410 -0.0169 -0.5525
  714MOL0     C94159  -3.382   4.172  -0.388 -0.6884 -0.4096 -0.3621
  714MOL0    Cl94160  -3.475   4.108  -0.251 -0.0806 -0.1537  0.4453
  714MOL0     C94161  -2.358   3.848   0.052  0.1748 -0.7034  1.0161
  714MOL0     C94162  -2.263   3.748   0.034 -0.8780  0.0615 -0.0020
  714MOL0     O94163  -2.143   3.485   0.125 -0.0649  0.0126  0.4600
  714MOL0     C94164  -2.055   3.319  -0.172  0.7736 -0.7981  0.5797
  714MOL0     C94165  -1.986   3.202  -0.221  0.1881  0.1916 -0.6749
  714MOL0     N94166  -1.358   2.923  -0.341  0.0427 -1.1308  0.0637
  714MOL0     N94167  -1.238   2.959  -0.335 -0.3463  0.6870  0.0723
  714MOL0     C94168  -0.255   3.461   0.130 -0.4350 -0.0479 -0.3059
  714MOL0     C94169  -0.120   3.460   0.162  0.6166  0.1962  0.2434
  714MOL0     C94170   0.263   3.333   0.410  0.1148  1.0230  0.8570
  714MOL0     C94171   0.317   3.312   0.540 -0.0706 -0.0285  0.1059
  714MOL0     C94172   0.448   3.250   0.559  0.2405  0.7021  0.0715
  714MOL0     C94173   0.530   3.214   0.462  0.0629  1.0441  1.0542
  714MOL0     O94174   0.652   3.156   0.482  0.5705  0.1246 -0.3796
  714MOL0     C94175   0.695   3.060   0.390 -0.5702  0.6013  0.4762
  714MOL0     C94176   0.812   2.980   0.456 -1.0242  0.4073  0.1441
  714MOL0     C94177   0.933   3.081   0.475 -0.5617  0.6267  0.7941
  714MOL0     C94178   1.035   3.019   0.561 -0.2412 -0.3396  1.1402
  714MOL0     C94179   1.157   3.102   0.578 -0.4750 -0.0537  0.2268
  714MOL0     C94180   1.250   3.177   0.599  0.1516 -0.0882  0.1166
  714MOL0     C94181   0.476   3.241   0.329 -0.1237 -0.4991 -0.4213
  714MOL0     C94182   0.349   3.299   0.302 -0.0315  0.6126 -0.7168
  714MOL0     H94183  -0.105   3.205   0.370 -1.9185  1.1900  2.5557
  714MOL0     H94184  -0.363   3.213   0.318 -0.8769  0.4151 -0.2282
  714MOL0     H94185  -0.447   3.355  -0.070  0.9605  1.5994 -0.4833
  714MOL0     H94186  -0.508   3.507   0.015  0.0595 -0.3033  2.4272
  714MOL0     H94187  -0.727   3.386   0.053 -0.3086 -2.2407  0.0066
  714MOL0     H94188  -0.652   3.234   0.023  2.4154 -1.0119 -2.2786
  714MOL0     H94189  -0.594   3.299  -0.220 -1.9081 -5.0378 -0.8430
  714MOL0     H94190  -0.709   3.435  -0.194 -0.5273 -0.1057 -1.1188
  714MOL0     H94191  -0.874   3.255  -0.124 -0.8872 -3.6667 -0.3044
  714MOL0     H94192  -0.820   3.251  -0.297 -2.8112 -1.2290  1.0187
  714MOL0     H94193  -0.733   3.063  -0.084 -0.4327 -2.0532 -1.2159
  714MOL0     H94194  -0.640   3.100  -0.226  0.3965  1.9877  1.2509
  714MOL0     H94195  -0.769   2.893  -0.264 -0.8998 -0.8469  1.9817
  714MOL0     H94196  -0.813   3.030  -0.369 -0.3557 -0.4375 -0.1439
  714MOL0     H94197  -0.968   2.945  -0.120  0.8745  0.7416  0.4323
  714MOL0     H94198  -1.010   3.067  -0.239  0.0769  0.2436  1.2279
  714MOL0     H94199  -0.980   2.756  -0.260 -2.3014 -1.8528 -1.9582
  714MOL0     H94200  -1.008   2.862  -0.399 -0.4031  0.8984  0.2557
  714MOL0     H94201  -1.234   2.656  -0.207 -0.7978 -0.1789  0.4227
  714MOL0     H94202  -1.490   2.634  -0.192  1.1564  1.0640  1.9572
  714MOL0     H94203  -1.495   2.662  -0.368 -1.5785  1.0109 -0.2089
  714MOL0     H94204  -1.704   2.714  -0.245  2.0657 -2.9556  0.8143
  714MOL0     H94205  -1.640   2.842  -0.355 -2.8413 -0.6611 -0.2397
  714MOL0     H94206  -1.619   2.828  -0.049 -1.2753  0.7039  0.8842
  714MOL0     H94207  -1.561   2.968  -0.144  0.3513 -0.5004 -1.4949
  714MOL0     H94208  -1.801   2.940  -0.007  0.5236 -1.4136 -0.0155
  714MOL0     H94209  -1.850   2.863  -0.157  4.5041 -2.8820 -4.1816
  714MOL0     H94210  -1.791   3.178   0.059 -0.5062  1.6251  0.2386
  714MOL0     H94211  -1.934   3.362   0.136 -0.4841  1.7329 -0.6619
  714MOL0     H94212  -2.413   3.570  -0.220 -0.5994 -0.4828  0.0778
  714MOL0     H94213  -2.583   3.730  -0.174  0.9653 -0.7149 -1.6214
  714MOL0     H94214  -2.519   4.134  -0.017 -1.6416  1.5403 -0.3696
  714MOL0     H94215  -2.559   4.056   0.143  0.6333  0.2778 -0.7860
  714MOL0     H94216  -2.725   4.201   0.094 -2.9686 -1.2351  2.3095
  714MOL0     H94217  -2.772   4.032   0.089  2.9158  0.3202  2.9942
  714MOL0     H94218  -2.789   4.018  -0.156 -0.9118 -0.8316  1.2452
  714MOL0     H94219  -2.739   4.188  -0.182  2.3930  2.1179  3.9908
  714MOL0     H94220  -2.972   4.084  -0.023  0.4305  0.7336 -0.6182
  714MOL0     H94221  -2.968   4.250  -0.070  1.1775  0.3630  0.7189
  714MOL0     H94222  -2.987   4.044  -0.290  1.3768 -0.3475 -0.1252
  714MOL0     H94223  -2.972   4.205  -0.317 -1.0892 -1.5025 -0.3915
  714MOL0     H94224  -3.184   4.271  -0.212  2.3048  0.8558  0.5460
  714MOL0     H94225  -3.207   4.119  -0.147  0.2099  1.8512 -0.0905
  714MOL0     H94226  -3.168   4.153  -0.449  1.2733 -0.0215  0.5026
  714MOL0     H94227  -3.250   4.011  -0.371  1.8613 -0.2932 -1.8314
  714MOL0     H94228  -3.418   4.134  -0.484  1.6283  1.9094 -2.3078
  714MOL0     H94229  -3.369   4.279  -0.372  4.4437 -1.0564  1.6680
  714MOL0     H94230  -2.347   3.934   0.117 -1.6432 -0.9743  1.7209
  714MOL0     H94231  -2.171   3.751   0.091  0.4759 -1.1705 -2.0067
  714MOL0     H94232  -2.131   3.351  -0.243  0.6454 -3.3569 -0.5912
  714MOL0     H94233  -2.021   3.158  -0.313 -2.9393  0.9409  0.0614
  714MOL0     H94234  -0.284   3.535   0.055  1.6944  2.5238  1.2196
  714MOL0     H94235  -0.050   3.520   0.105  0.3481  0.8212  0.5639
  714MOL0     H94236   0.253   3.329   0.626  0.2215  4.3292 -0.3556
  714MOL0     H94237   0.481   3.215   0.656 -2.1640  3.6295  2.1382
  714MOL0     H94238   0.727   3.108   0.297 -1.2842  1.5466  0.7077
  714MOL0     H94239   0.609   2.995   0.368 -0.7751  0.7339  0.8863
  714MOL0     H94240   0.777   2.950   0.555 -1.3309  1.0367  0.2335
  714MOL0     H94241   0.851   2.893   0.403  0.0909 -0.3264  2.0596
  714MOL0     H94242   0.897   3.177   0.513 -1.8704  2.4891 -4.3480
  714MOL0     H94243   0.993   3.098   0.386 -1.3889  0.6526  0.2314
  714MOL0     H94244   0.999   2.999   0.662 -1.7545 -1.0044  0.4898
  714MOL0     H94245   1.058   2.921   0.519  0.3780 -1.1672  3.3026
  714MOL0     H94246   1.321   3.251   0.632 -0.2791  0.3221  0.1385
  714MOL0     H94247   0.535   3.214   0.242  1.0956  2.8978 -0.8239
  714MOL0     H94248   0.311   3.311   0.200 -0.4071  3.5323 -0.3421
  715MOL0     O94249   2.809   5.896   3.770 -0.2220  0.0612 -0.0150
  715MOL0     C94250   2.845   5.901   3.886 -0.2964 -1.3678 -0.3847
  715MOL0     O94251   2.756   5.914   3.998  0.3414 -0.4910 -0.4421
  715MOL0     C94252   2.621   5.937   3.986 -0.6114  0.9224  0.1337
  715MOL0     C94253   2.565   6.006   3.878 -0.2228  0.3537  0.7246
  715MOL0     C94254   2.433   6.042   3.877  0.5851  0.3503  0.0070
  715MOL0     C94255   2.344   5.986   3.979 -0.6438 -0.4807  0.1689
  715MOL0     O94256   2.209   5.998   3.992  0.1812  0.1496  0.3574
  715MOL0     C94257   2.144   6.091   3.909 -0.6586 -0.8893  0.7666
  715MOL0     C94258   2.004   6.111   3.962  0.6102 -0.0235  0.3735
  715MOL0     C94259   1.994   6.124   4.114 -0.0161  0.2504  0.4932
  715MOL0     C94260   1.844   6.120   4.159  0.1891 -0.0349  0.8961
  715MOL0     C94261   1.782   6.258   4.145 -0.3258  1.1679  0.7576
  715MOL0     C94262   1.630   6.235   4.132  0.3183 -0.3544  0.6850
  715MOL0     C94263   1.552   6.376   4.122 -0.5407  0.7986 -0.3724
  715MOL0     C94264   1.406   6.370   4.168  0.1775  0.6053  0.2617
  715MOL0     N94265   1.379   6.333   4.305 -0.3692  0.9279  0.6948
  715MOL0     C94266   1.269   6.256   4.339  0.0245  0.1744 -0.6991
  715MOL0     C94267   1.271   6.249   4.475 -0.1712  0.3781  0.4754
  715MOL0     C94268   1.180   6.158   4.553  0.1112  0.0443 -0.4634
  715MOL0     C94269   1.253   6.035   4.608 -0.0807  0.5767 -0.5729
  715MOL0     C94270   1.143   5.943   4.673  0.4725 -0.6089  0.7436
  715MOL0     C94271   1.110   6.003   4.805  0.5167  0.3565  0.3854
  715MOL0     O94272   1.062   5.899   4.884  0.4799 -0.1482 -0.5149
  715MOL0     C94273   0.939   5.838   4.879 -0.7156  0.2464 -0.3664
  715MOL0     C94274   0.923   5.714   4.945  0.3960 -0.3946 -0.1857
  715MOL0     C94275   0.797   5.645   4.956  0.1825 -0.1110 -0.2445
  715MOL0     C94276   0.687   5.700   4.888 -0.4034 -0.6213  0.3921
  715MOL0     C94277   0.552   5.637   4.884  0.0396 -0.3357  0.2048
  715MOL0     O94278   0.546   5.512   4.940  0.0755 -0.2372 -0.1502
  715MOL0     C94279   0.432   5.436   4.947  0.7974 -0.8365 -0.2646
  715MOL0     C94280   0.438   5.337   5.036  1.4193 -0.3584  0.6357
  715MOL0     C94281   0.329   5.248   5.049  0.0627  0.3104  0.8726
  715MOL0     C94282   0.217   5.255   4.971  0.3327 -0.0825 -1.0240
  715MOL0     O94283   0.105   5.177   5.012 -0.5738 -0.5477  0.3584
  715MOL0     C94284   0.076   5.165   5.151  0.7383  0.0896  0.0370
  715MOL0     C94285   0.075   5.019   5.213  0.5977 -1.0767  0.7870
  715MOL0     C94286   0.001   4.911   5.121  0.1000  0.5025 -0.1730
  715MOL0     C94287  -0.142   4.927   5.063 -0.1421  0.7652 -0.1480
  715MOL0     C94288  -0.244   4.963   5.163  0.5457  0.4874 -0.6200
  715MOL0     C94289  -0.370   5.019   5.094 -0.6075  0.0996 -0.1425
  715MOL0     C94290  -0.500   5.036   5.178  0.2001  0.1416 -0.5687
  715MOL0     C94291  -0.630   5.034   5.099  0.0792 -0.1803  0.4729
  715MOL0    Cl94292  -0.777   5.107   5.188  0.0223 -0.0550 -0.0108
  715MOL0     C94293   0.212   5.351   4.874  0.6079  0.7567 -0.5238
  715MOL0     C94294   0.320   5.453   4.866  0.1166  0.9327  0.1701
  715MOL0     O94295   0.458   5.698   4.836  0.5926  0.6493  0.5831
  715MOL0     C94296   0.716   5.813   4.795  0.7110  0.4650 -0.0796
  715MOL0     C94297   0.834   5.880   4.798 -0.4898  0.0881 -0.3356
  715MOL0     N94298   1.386   6.315   4.516 -0.0254  0.5637  0.1717
  715MOL0     N94299   1.441   6.373   4.416 -0.1663 -0.3967 -0.9843
  715MOL0     C94300   2.395   5.903   4.076  0.0925 -0.8567  0.2382
  715MOL0     C94301   2.537   5.884   4.084 -0.5850  0.9940  0.0443
  715MOL0     C94302   2.994   5.890   3.907  0.4442  0.1019 -0.7674
  715MOL0     C94303   3.080   5.926   3.799 -0.2901  0.7583  0.4905
  715MOL0     C94304   3.216   5.917   3.818 -0.2352 -0.3904  0.0544
  715MOL0     C94305   3.268   5.880   3.948  0.4322 -0.0149  0.0810
  715MOL0     O94306   3.403   5.876   3.965 -1.1259  0.0816 -0.3270
  715MOL0     C94307   3.446   5.874   4.102 -0.8796  0.1830  0.7988
  715MOL0     C94308   3.598   5.904   4.105  0.5234  0.4092 -1.0887
  715MOL0     C94309   3.674   5.902   4.239  0.3531 -0.4794  0.5264
  715MOL0     C94310   3.636   6.022   4.322  0.7168 -0.8550  0.2687
  715MOL0     C94311   3.733   6.031   4.432  0.0210 -0.2626 -1.5106
  715MOL0     C94312   3.808   6.040   4.535 -0.3378  0.9212  0.2321
  715MOL0     C94313   3.179   5.833   4.050  0.8019 -0.2101  0.5615
  715MOL0     C94314   3.045   5.838   4.027  0.0275  0.1865  0.5094
  715MOL0     H94315   2.626   6.034   3.793  1.2443 -1.8590  0.9767
  715MOL0     H94316   2.397   6.097   3.791  1.0662 -2.3813 -2.0803
  715MOL0     H94317   2.131   6.049   3.808 -1.8891 -2.5119  1.5490
  715MOL0     H94318   2.201   6.184   3.906  0.5357 -1.6052  0.6205
  715MOL0     H94319   1.946   6.022   3.935  0.4090  0.1454  0.2508
  715MOL0     H94320   1.947   6.187   3.908 -0.2707 -0.8724  0.0814
  715MOL0     H94321   2.027   6.224   4.143 -1.3085  0.5786  0.8802
  715MOL0     H94322   2.053   6.047   4.164  2.8024  2.5327  0.9216
  715MOL0     H94323   1.791   6.045   4.100 -1.1266  2.4030 -1.2461
  715MOL0     H94324   1.846   6.093   4.265 -1.9572  0.2779  1.0625
  715MOL0     H94325   1.820   6.315   4.059 -0.5459  3.6449  2.2001
  715MOL0     H94326   1.792   6.318   4.236 -3.5446 -0.3863  2.2817
  715MOL0     H94327   1.589   6.185   4.219  1.5825  0.2216  1.6551
  715MOL0     H94328   1.608   6.180   4.040 -0.7255 -1.7341  1.7251
  715MOL0     H94329   1.592   6.453   4.188 -2.1621  1.9219 -0.6407
  715MOL0     H94330   1.559   6.404   4.017 -0.0205 -2.3673 -1.2720
  715MOL0     H94331   1.355   6.301   4.101  1.9065 -0.7259  0.2572
  715MOL0     H94332   1.377   6.476   4.166  1.0874  0.8987  1.5798
  715MOL0     H94333   1.193   6.227   4.267  1.9251 -2.8104 -1.6796
  715MOL0     H94334   1.096   6.120   4.494 -1.1722  0.1830  1.1818
  715MOL0     H94335   1.145   6.220   4.636  0.6938  0.1259 -0.2713
  715MOL0     H94336   1.334   6.068   4.673  2.3355 -2.1131 -1.9818
  715MOL0     H94337   1.298   5.981   4.524 -0.0507 -0.4153  0.0652
  715MOL0     H94338   1.053   5.926   4.612 -0.1220  0.9846  1.1449
  715MOL0     H94339   1.180   5.840   4.681 -1.7268 -1.5587 -0.2585
  715MOL0     H94340   1.033   6.081   4.799 -2.8269 -2.6874  0.1444
  715MOL0     H94341   1.206   6.038   4.843  1.2692 -0.3165 -0.8613
  715MOL0     H94342   1.018   5.683   4.987  1.1405 -1.3102 -2.3947
  715MOL0     H94343   0.794   5.549   5.007  1.5604 -1.0134 -1.7843
  715MOL0     H94344   0.517   5.339   5.111  0.7477 -0.4768  1.3503
  715MOL0     H94345   0.350   5.184   5.134 -1.0367 -1.6805 -0.2835
  715MOL0     H94346  -0.026   5.206   5.152  1.7837  2.9397  0.4698
  715MOL0     H94347   0.144   5.233   5.203  0.8549  0.6891 -0.8645
  715MOL0     H94348   0.018   5.023   5.306  4.3057 -2.6170  3.3599
  715MOL0     H94349   0.176   4.982   5.234  2.8817  1.4600 -3.9755
  715MOL0     H94350   0.001   4.824   5.187 -0.2355  2.2577  2.2550
  715MOL0     H94351   0.067   4.897   5.035 -0.7126 -0.5568 -0.6642
  715MOL0     H94352  -0.124   5.009   4.993  3.4719  0.1689 -0.0797
  715MOL0     H94353  -0.178   4.845   5.001 -0.9846  1.0878 -0.0980
  715MOL0     H94354  -0.206   5.035   5.236 -1.9664  1.1205  0.1927
  715MOL0     H94355  -0.274   4.874   5.220 -0.0851  0.4283 -1.0341
  715MOL0     H94356  -0.396   4.942   5.020 -3.2311  2.6162 -2.1017
  715MOL0     H94357  -0.341   5.110   5.041  1.0096 -0.3425 -0.0547
  715MOL0     H94358  -0.509   4.960   5.257  0.3170 -0.2976 -0.9726
  715MOL0     H94359  -0.492   5.137   5.219  3.2557 -1.4365  3.3919
  715MOL0     H94360  -0.659   4.935   5.062 -3.4670  1.6257 -2.2538
  715MOL0     H94361  -0.605   5.094   5.011 -1.8281  1.5469  1.0370
  715MOL0     H94362   0.134   5.377   4.804 -0.8710 -0.1445  0.7243
  715MOL0     H94363   0.311   5.538   4.799  2.1207 -0.0886 -1.5289
  715MOL0     H94364   0.637   5.843   4.727 -1.4390 -0.7693  1.7458
  715MOL0     H94365   0.847   5.960   4.726  1.5376 -0.4431 -0.6103
  715MOL0     H94366   2.328   5.877   4.157  1.9077 -0.3205  1.9967
  715MOL0     H94367   2.577   5.834   4.171  2.6220  0.6343 -1.5230
  715MOL0     H94368   3.048   5.955   3.699  0.1363 -2.2457 -0.6297
  715MOL0     H94369   3.293   5.955   3.752  1.3227  0.9471  2.4816
  715MOL0     H94370   3.422   5.781   4.155  2.7931 -0.6257  1.3596
  715MOL0     H94371   3.395   5.959   4.149  3.4724  2.7263  1.5322
  715MOL0     H94372   3.654   5.821   4.060  0.2198 -2.0533  2.5706
  715MOL0     H94373   3.628   5.993   4.049 -0.9065  1.7587  0.1975
  715MOL0     H94374   3.783   5.905   4.224  0.4726  1.3142  1.4456
  715MOL0     H94375   3.650   5.817   4.303  1.0151  0.1687  1.6702
  715MOL0     H94376   3.641   6.111   4.258  2.1662 -0.0277  1.4623
  715MOL0     H94377   3.537   6.001   4.364  0.4203  0.0050  0.0082
  715MOL0     H94378   3.881   6.043   4.614  1.9716 -2.8400 -1.4972
  715MOL0     H94379   3.205   5.784   4.143 -3.4657 -1.0064  1.5386
  715MOL0     H94380   2.981   5.814   4.112 -0.9623  3.2945  0.7674
  716MOL0     O94381   0.842   9.191   7.265  1.1003  0.4823 -0.0419
  716MOL0     C94382   0.881   9.270   7.350  0.6885 -0.0348  0.3210
  716MOL0     O94383   0.800   9.337   7.434 -0.4828  0.0853 -0.7136
  716MOL0     C94384   0.663   9.338   7.432 -0.4356  0.2053 -0.3320
  716MOL0     C94385   0.584   9.305   7.319 -0.1216  0.2867 -0.1328
  716MOL0     C94386   0.444   9.298   7.326  1.5254 -0.4697  0.0868
  716MOL0     C94387   0.371   9.332   7.441 -0.1887  1.0001  0.3986
  716MOL0     O94388   0.235   9.343   7.428 -0.0656  0.5051  1.0084
  716MOL0     C94389   0.156   9.382   7.538 -0.0484  0.9273 -0.3750
  716MOL0     C94390   0.008   9.375   7.485 -0.5104 -0.1446 -0.0862
  716MOL0     C94391  -0.028   9.495   7.402 -0.4499 -0.4795 -0.8619
  716MOL0     C94392  -0.176   9.498   7.376 -0.2487  0.2632  0.2959
  716MOL0     C94393  -0.225   9.634   7.326 -0.1852  1.3120 -0.6708
  716MOL0     C94394  -0.382   9.634   7.354 -0.6964 -0.0406  0.0802
  716MOL0     C94395  -0.457   9.746   7.265  0.0958  0.1648  0.3433
  716MOL0     C94396  -0.448   9.889   7.311 -0.9282 -0.7658 -0.7691
  716MOL0     N94397  -0.532   9.914   7.432  0.2322  0.0572 -0.4207
  716MOL0     C94398  -0.663   9.951   7.455  0.3342 -0.7467  0.1835
  716MOL0     C94399  -0.673   9.984   7.591 -0.6944 -0.5108 -0.1750
  716MOL0     C94400  -0.793  10.035   7.678 -0.3478  0.5619  0.7022
  716MOL0     C94401  -0.889   9.927   7.733 -0.9766  0.5132  0.5209
  716MOL0     C94402  -0.970   9.974   7.857 -0.4750  0.2810 -0.1225
  716MOL0     C94403  -1.060  10.087   7.809  0.3510 -0.0619 -0.6489
  716MOL0     O94404  -1.171  10.101   7.902  0.6574 -0.6782  0.2682
  716MOL0     C94405  -1.285  10.021   7.890  0.0692 -0.7358  0.3655
  716MOL0     C94406  -1.375  10.039   8.001 -0.2636  0.5172  0.5121
  716MOL0     C94407  -1.505   9.975   7.988 -0.1102 -0.3687  0.0545
  716MOL0     C94408  -1.530   9.880   7.883 -0.0095 -0.6275  1.2129
  716MOL0     C94409  -1.649   9.792   7.865 -0.3294  0.2460 -0.1560
  716MOL0     O94410  -1.653   9.704   7.764 -0.6862 -0.3213  0.1993
  716MOL0     C94411  -1.754   9.608   7.762  0.0898 -0.2766 -0.1221
  716MOL0     C94412  -1.861   9.610   7.677  0.7514  0.2222  0.6893
  716MOL0     C94413  -1.967   9.516   7.672 -0.7045 -0.5567  0.9605
  716MOL0     C94414  -1.968   9.406   7.759 -0.0659  0.0345  0.0946
  716MOL0     O94415  -2.072   9.316   7.750 -0.5185 -0.2728  1.0410
  716MOL0     C94416  -2.113   9.258   7.872  0.3532  0.6473  0.7861
  716MOL0     C94417  -2.263   9.228   7.856 -0.2189  0.2896  0.6643
  716MOL0     C94418  -2.353   9.349   7.845 -0.0110  0.8776  0.1393
  716MOL0     C94419  -2.493   9.332   7.781 -0.4996  0.0567 -0.5993
  716MOL0     C94420  -2.583   9.457   7.799  0.2053  0.0032  0.1092
  716MOL0     C94421  -2.636   9.438   7.940  0.7380 -0.2293 -0.1328
  716MOL0     C94422  -2.756   9.524   7.968 -0.9021  0.3165 -0.7070
  716MOL0     C94423  -2.810   9.478   8.107 -0.7551  0.1937 -0.4095
  716MOL0    Cl94424  -2.910   9.608   8.174  0.0288 -0.2903 -0.4160
  716MOL0     C94425  -1.861   9.409   7.853  0.3884 -0.4372  0.2438
  716MOL0     C94426  -1.752   9.498   7.854  0.2848 -0.3156  0.1661
  716MOL0     O94427  -1.728   9.800   7.951  0.1615  0.3750 -0.2432
  716MOL0     C94428  -1.440   9.869   7.781 -0.7565  1.2092 -1.1298
  716MOL0     C94429  -1.312   9.942   7.778  1.1768 -0.1102  0.9433
  716MOL0     N94430  -0.551   9.952   7.645 -0.3890  0.0943  0.5851
  716MOL0     N94431  -0.467   9.928   7.551 -0.0275  0.6000 -0.7160
  716MOL0     C94432   0.449   9.352   7.556  0.6843  0.0111  0.0293
  716MOL0     C94433   0.590   9.382   7.550 -0.2552  0.6901 -0.6265
  716MOL0     C94434   1.028   9.269   7.380 -0.3541  0.1361  0.5427
  716MOL0     C94435   1.103   9.386   7.410 -0.5052 -0.5848  0.7050
  716MOL0     C94436   1.235   9.382   7.443 -0.2007 -0.4333  0.6356
  716MOL0     C94437   1.305   9.259   7.431 -0.2608  0.1879 -0.6256
  716MOL0     O94438   1.440   9.245   7.448  0.7376  0.0789 -0.3301
  716MOL0     C94439   1.507   9.326   7.544 -1.5125  0.2720  0.0114
  716MOL0     C94440   1.653   9.276   7.553 -0.6811 -0.3528 -0.2790
  716MOL0     C94441   1.670   9.134   7.607 -0.6052 -0.1332 -0.0747
  716MOL0     C94442   1.810   9.104   7.664 -0.3305 -0.1999  0.3109
  716MOL0     C94443   1.831   8.957   7.659 -0.1620 -0.5159  0.2956
  716MOL0     C94444   1.845   8.839   7.650 -0.1924  0.7598 -0.5912
  716MOL0     C94445   1.238   9.146   7.385  1.3573 -0.0462  0.1414
  716MOL0     C94446   1.102   9.151   7.360  0.2142 -0.0718  0.2875
  716MOL0     H94447   0.632   9.281   7.225  0.3254  2.5020 -0.5278
  716MOL0     H94448   0.376   9.284   7.243 -1.3062  0.9756  1.9840
  716MOL0     H94449   0.184   9.478   7.582 -1.6239  0.6673  1.3155
  716MOL0     H94450   0.165   9.310   7.620  0.6873  0.3589 -0.9386
  716MOL0     H94451  -0.052   9.371   7.576 -0.6329 -1.0658 -0.2036
  716MOL0     H94452  -0.021   9.289   7.424 -1.4484 -0.0748  0.2493
  716MOL0     H94453   0.031   9.498   7.310  1.7326  2.8468  0.4600
  716MOL0     H94454   0.006   9.583   7.457  3.3403 -1.5170 -1.3174
  716MOL0     H94455  -0.205   9.418   7.307 -0.1238 -0.2966  0.8757
  716MOL0     H94456  -0.229   9.467   7.467 -1.8474  1.6187 -0.1229
  716MOL0     H94457  -0.200   9.634   7.219  0.4590 -0.3122 -0.5425
  716MOL0     H94458  -0.165   9.713   7.373  0.5989  0.5857 -0.4333
  716MOL0     H94459  -0.387   9.664   7.459  3.1787  1.1622  0.0637
  716MOL0     H94460  -0.420   9.533   7.336  0.8041 -0.7005  0.5064
  716MOL0     H94461  -0.412   9.744   7.165  0.9336 -1.1275  0.7288
  716MOL0     H94462  -0.558   9.708   7.247  0.5920 -0.9352 -0.2306
  716MOL0     H94463  -0.490   9.951   7.232 -2.0569  0.2024  0.5283
  716MOL0     H94464  -0.342   9.912   7.327 -1.0486  0.4350 -1.5892
  716MOL0     H94465  -0.745   9.956   7.384 -0.1050 -3.7596  0.3467
  716MOL0     H94466  -0.846  10.122   7.637 -1.3174 -0.2507  0.1742
  716MOL0     H94467  -0.736  10.075   7.762  3.4670 -2.3425 -0.2534
  716MOL0     H94468  -0.828   9.837   7.747 -1.9224  0.1135  2.6129
  716MOL0     H94469  -0.960   9.902   7.653 -0.7707 -0.7982  0.7209
  716MOL0     H94470  -1.029   9.898   7.909 -1.0847  0.3886 -0.6457
  716MOL0     H94471  -0.907  10.024   7.931  0.5912  0.2448 -0.9731
  716MOL0     H94472  -1.097  10.075   7.707  0.5363 -0.1506 -0.7066
  716MOL0     H94473  -0.993  10.173   7.815  0.2487 -0.0740  2.4866
  716MOL0     H94474  -1.333  10.093   8.085  4.6789  1.8357 -2.4044
  716MOL0     H94475  -1.584   9.996   8.060  0.2181  1.0119  0.0216
  716MOL0     H94476  -1.857   9.697   7.612  1.9660 -0.6099 -0.4207
  716MOL0     H94477  -2.046   9.526   7.599 -0.7920  0.1087  1.1371
  716MOL0     H94478  -2.100   9.329   7.955  0.6170  0.8990  0.5320
  716MOL0     H94479  -2.064   9.163   7.894  0.3447  0.1856 -1.0817
  716MOL0     H94480  -2.305   9.159   7.930 -0.7503 -1.4952 -1.2197
  716MOL0     H94481  -2.274   9.182   7.757 -1.1255  2.7921 -0.4669
  716MOL0     H94482  -2.303   9.419   7.778  0.0831  1.3429  0.6902
  716MOL0     H94483  -2.369   9.374   7.950  4.3300  0.3257  1.1079
  716MOL0     H94484  -2.480   9.327   7.672 -0.9399 -1.1862 -0.6070
  716MOL0     H94485  -2.535   9.243   7.828  0.2033  0.8701  1.6905
  716MOL0     H94486  -2.661   9.451   7.723 -0.2473  0.6931  0.5063
  716MOL0     H94487  -2.538   9.556   7.792 -0.3988  0.4786  2.2173
  716MOL0     H94488  -2.561   9.446   8.019  2.1040 -2.3999 -1.1008
  716MOL0     H94489  -2.678   9.338   7.952 -0.7955  0.5249  1.0796
  716MOL0     H94490  -2.733   9.631   7.969 -0.7371  0.2871  1.4417
  716MOL0     H94491  -2.836   9.503   7.896 -0.3403  1.1052 -1.5953
  716MOL0     H94492  -2.722   9.467   8.171 -0.7425  2.4238  0.0404
  716MOL0     H94493  -2.863   9.384   8.088 -1.2555  0.8615 -2.6750
  716MOL0     H94494  -1.873   9.331   7.929 -2.1372 -0.8221 -0.4712
  716MOL0     H94495  -1.667   9.499   7.921 -0.6062  1.5506  1.3470
  716MOL0     H94496  -1.454   9.806   7.694  1.8443  0.3695 -1.0217
  716MOL0     H94497  -1.234   9.926   7.705  0.7677 -0.6574  0.6106
  716MOL0     H94498   0.388   9.361   7.645 -1.7177  0.3525 -1.5417
  716MOL0     H94499   0.635   9.411   7.644  0.3293  0.3274 -0.7841
  716MOL0     H94500   1.046   9.475   7.435  0.2564 -0.6742  2.9643
  716MOL0     H94501   1.280   9.475   7.475 -2.1881  0.2787  1.5307
  716MOL0     H94502   1.460   9.312   7.641  1.8696 -2.1489  1.5430
  716MOL0     H94503   1.498   9.433   7.524 -3.0294 -0.0567 -1.2951
  716MOL0     H94504   1.689   9.274   7.449 -2.0360 -1.0176 -0.7523
  716MOL0     H94505   1.723   9.340   7.608 -0.2420 -2.3956  1.6545
  716MOL0     H94506   1.642   9.071   7.522 -4.1877  0.2190  0.6826
  716MOL0     H94507   1.601   9.107   7.688 -0.5730 -0.6562 -0.2186
  716MOL0     H94508   1.892   9.149   7.608 -0.8159 -0.4347 -0.6108
  716MOL0     H94509   1.820   9.137   7.768  3.2885 -0.4197  0.1362
  716MOL0     H94510   1.864   8.734   7.639 -0.8751  0.8487 -3.5873
  716MOL0     H94511   1.285   9.049   7.371 -0.6658 -1.1767  0.8687
  716MOL0     H94512   1.049   9.064   7.324 -1.6700  1.2783 -0.3426
  717MOL0     O94513   3.353   6.946   3.496  0.5990  0.3701 -0.4643
  717MOL0     C94514   3.274   6.936   3.597  1.5412 -0.6778 -0.3703
  717MOL0     O94515   3.147   6.879   3.594  1.0931  0.0408 -0.0967
  717MOL0     C94516   3.094   6.802   3.491  1.4702  0.4065 -0.7253
  717MOL0     C94517   2.955   6.782   3.495 -0.0212  0.2904 -0.2635
  717MOL0     C94518   2.896   6.690   3.404 -0.1809 -0.0379  0.6475
  717MOL0     C94519   2.978   6.612   3.317 -0.4204 -0.1709 -0.1335
  717MOL0     O94520   2.923   6.527   3.222  0.2048  0.6409 -0.3397
  717MOL0     C94521   2.784   6.492   3.223 -0.1259 -0.6179 -0.4042
  717MOL0     C94522   2.748   6.414   3.100  0.5758  0.7795 -0.0637
  717MOL0     C94523   2.596   6.409   3.072  0.4981 -0.1805  0.1718
  717MOL0     C94524   2.515   6.357   3.193 -0.7669  0.0569 -0.8419
  717MOL0     C94525   2.394   6.277   3.166  0.3166 -0.4791  0.8070
  717MOL0     C94526   2.285   6.370   3.104  0.1762  0.8322  0.5043
  717MOL0     C94527   2.168   6.289   3.035  0.5715 -0.8537 -0.5238
  717MOL0     C94528   2.091   6.194   3.138  0.1900 -0.0606  0.4679
  717MOL0     N94529   1.944   6.165   3.105 -0.0089  0.0315 -0.0287
  717MOL0     C94530   1.844   6.255   3.128  0.7114 -0.4712 -0.0450
  717MOL0     C94531   1.732   6.178   3.111 -0.0974  0.0356  0.1727
  717MOL0     C94532   1.586   6.218   3.084 -0.4045  0.0168  0.1805
  717MOL0     C94533   1.533   6.309   3.195 -0.2997  0.6327 -0.2671
  717MOL0     C94534   1.382   6.320   3.191 -0.4954  0.3156 -0.0612
  717MOL0     C94535   1.301   6.276   3.319 -0.8121  0.7764  0.7679
  717MOL0     O94536   1.373   6.342   3.427 -0.2063  0.4310 -1.1251
  717MOL0     C94537   1.324   6.346   3.554  0.1088 -0.6880  0.2565
  717MOL0     C94538   1.251   6.229   3.604 -0.4280 -0.2394  0.2953
  717MOL0     C94539   1.180   6.246   3.734  0.3443  0.3931 -0.1069
  717MOL0     C94540   1.193   6.366   3.812  0.8596  0.3992 -0.1974
  717MOL0     C94541   1.122   6.377   3.947 -0.8416 -0.6012  0.5971
  717MOL0     O94542   1.077   6.265   3.997 -0.2914  0.0978 -0.9373
  717MOL0     C94543   1.003   6.264   4.115 -0.2275  0.3118 -0.2040
  717MOL0     C94544   0.926   6.360   4.183 -0.2161 -0.7569 -0.9547
  717MOL0     C94545   0.841   6.327   4.292 -0.1259 -0.4502 -1.1580
  717MOL0     C94546   0.835   6.195   4.335  0.5106 -0.3371  1.1594
  717MOL0     O94547   0.756   6.154   4.435  0.8741 -0.2900  0.1903
  717MOL0     C94548   0.667   6.238   4.505 -0.2963  0.0834 -0.2118
  717MOL0     C94549   0.588   6.168   4.615 -0.2116 -0.3723 -0.7508
  717MOL0     C94550   0.498   6.060   4.562 -0.8412 -0.5041  0.3463
  717MOL0     C94551   0.393   6.017   4.670 -0.2920  0.4364  0.0408
  717MOL0     C94552   0.290   5.937   4.609 -0.0185 -0.1395 -0.3763
  717MOL0     C94553   0.194   5.859   4.705  0.4822 -0.3249 -0.0020
  717MOL0     C94554   0.115   5.944   4.800 -0.6686  0.6339 -0.4246
  717MOL0     C94555   0.193   5.996   4.924  0.1738  0.2702 -0.3835
  717MOL0    Cl94556   0.066   6.076   5.022 -0.1717  0.4021  0.1571
  717MOL0     C94557   0.902   6.100   4.266 -0.0309  0.6091 -1.0799
  717MOL0     C94558   0.978   6.136   4.158  0.1718  0.2814 -0.1261
  717MOL0     O94559   1.117   6.487   3.999 -0.8598 -0.0053 -0.6645
  717MOL0     C94560   1.278   6.468   3.759  1.2799  0.1488 -0.0005
  717MOL0     C94561   1.329   6.461   3.628  0.7705 -0.2251 -0.7860
  717MOL0     N94562   1.774   6.048   3.066  0.0007  0.3624  0.4569
  717MOL0     N94563   1.900   6.047   3.055  0.2090  0.2258 -0.1040
  717MOL0     C94564   3.118   6.627   3.324 -0.2626 -0.0325 -0.2910
  717MOL0     C94565   3.170   6.719   3.412 -0.3524 -0.3205 -1.3938
  717MOL0     C94566   3.331   6.958   3.734  0.2515 -0.5731  0.2261
  717MOL0     C94567   3.251   6.923   3.851  0.3613  0.2343 -0.3860
  717MOL0     C94568   3.313   6.920   3.983  0.3147 -0.8223 -0.2473
  717MOL0     C94569   3.437   6.975   4.003  0.1569 -0.0930  0.0432
  717MOL0     O94570   3.511   6.987   4.117 -0.4980 -0.6160  0.3906
  717MOL0     C94571   3.467   6.949   4.254  0.0536 -0.5255  0.2696
  717MOL0     C94572   3.559   7.009   4.362 -0.6461  0.6217 -0.2339
  717MOL0     C94573   3.549   7.157   4.398 -0.9474 -0.2037 -0.6552
  717MOL0     C94574   3.673   7.242   4.397  0.0754  0.0301 -0.0805
  717MOL0     C94575   3.756   7.217   4.277  0.6628 -0.1236 -1.0191
  717MOL0     C94576   3.830   7.210   4.188 -0.6975  0.3088 -0.0119
  717MOL0     C94577   3.512   7.007   3.889  0.6702 -0.1436  1.0289
  717MOL0     C94578   3.464   6.999   3.752  0.1903 -0.0686  0.7222
  717MOL0     H94579   2.881   6.833   3.556  1.2521  2.7679 -0.6455
  717MOL0     H94580   2.790   6.668   3.410  0.4439 -3.6672  0.5087
  717MOL0     H94581   2.725   6.584   3.237  1.4099 -0.0144  3.1524
  717MOL0     H94582   2.753   6.431   3.308  1.6630  0.5030  1.1216
  717MOL0     H94583   2.776   6.311   3.124 -0.3673  0.6945  0.7172
  717MOL0     H94584   2.799   6.444   3.007 -1.8778  0.6971 -1.5177
  717MOL0     H94585   2.580   6.349   2.982  1.8029  0.1235 -0.2761
  717MOL0     H94586   2.557   6.510   3.056 -3.8891 -1.6468  0.2837
  717MOL0     H94587   2.578   6.280   3.239 -1.3745  0.0508 -0.0092
  717MOL0     H94588   2.496   6.434   3.268  2.5893  0.9335 -0.6986
  717MOL0     H94589   2.352   6.208   3.240 -3.0561  0.5088 -0.0161
  717MOL0     H94590   2.426   6.208   3.087 -0.7160 -2.7060  2.2427
  717MOL0     H94591   2.332   6.436   3.031  1.3704 -0.0767  0.4167
  717MOL0     H94592   2.247   6.422   3.192  1.7718 -1.2266  2.5218
  717MOL0     H94593   2.106   6.364   2.986 -1.3691 -1.2292  1.2154
  717MOL0     H94594   2.216   6.227   2.959 -0.6204 -1.1193 -1.0878
  717MOL0     H94595   2.082   6.252   3.230 -2.2633  3.5201 -1.7568
  717MOL0     H94596   2.148   6.102   3.155 -1.1684 -0.8928  0.6492
  717MOL0     H94597   1.840   6.363   3.130 -2.3051 -0.4794 -0.5565
  717MOL0     H94598   1.526   6.127   3.081 -0.5461  0.1195 -2.6646
  717MOL0     H94599   1.580   6.268   2.987  0.2232  0.9307  0.5968
  717MOL0     H94600   1.565   6.413   3.182  2.2971 -0.1809 -0.9849
  717MOL0     H94601   1.561   6.291   3.300 -0.4913  0.3624 -0.2618
  717MOL0     H94602   1.364   6.428   3.187  0.4702  0.4468 -0.9661
  717MOL0     H94603   1.339   6.256   3.113  1.8944 -1.9712  0.3692
  717MOL0     H94604   1.296   6.167   3.323 -0.8255  0.6292 -1.9152
  717MOL0     H94605   1.198   6.313   3.316 -0.9680  0.2911 -0.0373
  717MOL0     H94606   1.255   6.142   3.540 -0.8472 -0.4556  0.5518
  717MOL0     H94607   1.123   6.165   3.779  1.2875 -0.3808 -0.2750
  717MOL0     H94608   0.921   6.459   4.139  2.3294 -0.0016  0.2424
  717MOL0     H94609   0.775   6.395   4.345  0.1206 -2.3802  1.8856
  717MOL0     H94610   0.593   6.278   4.434 -0.4768 -0.1197 -0.1404
  717MOL0     H94611   0.725   6.320   4.548 -0.0503  0.0585 -0.4965
  717MOL0     H94612   0.532   6.248   4.664  0.8449  1.5616 -2.5764
  717MOL0     H94613   0.649   6.125   4.695 -1.5639  0.6198  0.8805
  717MOL0     H94614   0.565   5.975   4.549  0.0730  0.0308  1.3887
  717MOL0     H94615   0.452   6.084   4.466 -1.0522 -0.8022  0.3716
  717MOL0     H94616   0.444   5.960   4.748  0.1029 -0.3695 -0.7999
  717MOL0     H94617   0.357   6.109   4.718  0.1273 -0.8557  3.0909
  717MOL0     H94618   0.342   5.865   4.544 -1.3375 -2.9343  1.4475
  717MOL0     H94619   0.230   6.007   4.552 -0.3177  0.1446  0.2759
  717MOL0     H94620   0.249   5.786   4.765  0.6487  0.8280  1.2922
  717MOL0     H94621   0.124   5.804   4.642 -0.1523 -1.9324  1.9876
  717MOL0     H94622   0.058   6.025   4.754 -2.0144  0.5917  1.1074
  717MOL0     H94623   0.038   5.883   4.847  0.0167  1.2499  1.5738
  717MOL0     H94624   0.276   6.066   4.910 -0.0078  1.3159  2.8261
  717MOL0     H94625   0.231   5.910   4.981  5.1326  1.9372 -0.6282
  717MOL0     H94626   0.896   5.996   4.296  0.7765  1.1019  1.0115
  717MOL0     H94627   1.031   6.053   4.112  1.1374  1.8302 -1.9841
  717MOL0     H94628   1.307   6.552   3.821  1.1830 -1.7350  2.7899
  717MOL0     H94629   1.387   6.546   3.594  0.4825  0.6309  0.7475
  717MOL0     H94630   3.186   6.570   3.261 -1.9959 -1.6515 -0.7983
  717MOL0     H94631   3.278   6.733   3.412 -0.4956  1.3734  0.7880
  717MOL0     H94632   3.149   6.887   3.856  0.3423  0.2697 -0.5486
  717MOL0     H94633   3.278   6.862   4.068  0.2168 -0.2026  0.1433
  717MOL0     H94634   3.445   6.842   4.259  0.6336 -0.7582 -1.5136
  717MOL0     H94635   3.368   6.991   4.279  1.2905  1.2002  2.7815
  717MOL0     H94636   3.530   6.958   4.454 -0.5177  0.2097 -0.4210
  717MOL0     H94637   3.662   6.980   4.340 -0.4063  1.0248  0.3068
  717MOL0     H94638   3.494   7.163   4.492  0.1513 -0.1888 -0.0055
  717MOL0     H94639   3.479   7.213   4.335  1.9783  2.4150 -1.8321
  717MOL0     H94640   3.639   7.346   4.391  0.4321  0.2492  1.3602
  717MOL0     H94641   3.731   7.236   4.489 -1.7791  1.8625  1.3195
  717MOL0     H94642   3.868   7.214   4.088 -0.1556  3.2083  0.2211
  717MOL0     H94643   3.615   7.039   3.895  0.5000  1.2453 -1.7522
  717MOL0     H94644   3.532   7.035   3.677 -0.0044  2.9010  1.8521
  718MOL0     O94645   7.717   6.001   1.112  0.1547  1.0299  0.0446
  718MOL0     C94646   7.709   5.977   1.234 -0.0861  0.3227  0.6173
  718MOL0     O94647   7.617   5.897   1.290 -0.3146 -0.5748  0.5779
  718MOL0     C94648   7.484   5.924   1.276 -0.7504  0.7272  0.0765
  718MOL0     C94649   7.429   6.043   1.230 -0.1004 -0.6880  0.3376
  718MOL0     C94650   7.290   6.053   1.209  0.0798 -0.2566 -0.2320
  718MOL0     C94651   7.207   5.950   1.257 -0.0551 -0.3039  0.4840
  718MOL0     O94652   7.075   5.979   1.256 -0.3049  0.1078  0.3440
  718MOL0     C94653   6.983   5.867   1.259  0.1864 -0.2627 -0.1283
  718MOL0     C94654   6.837   5.912   1.230 -0.3965 -0.4097  0.0814
  718MOL0     C94655   6.729   5.888   1.334 -0.9236 -0.0168  0.1106
  718MOL0     C94656   6.754   5.982   1.461 -0.1098 -1.3507 -1.3596
  718MOL0     C94657   6.698   6.122   1.451 -0.2776 -0.9904  0.0117
  718MOL0     C94658   6.690   6.196   1.587  0.6100  0.5034 -0.4475
  718MOL0     C94659   6.599   6.314   1.594 -0.2348 -0.6766  0.7045
  718MOL0     C94660   6.624   6.436   1.495 -0.3060 -0.0780 -0.5727
  718MOL0     N94661   6.514   6.532   1.494  0.4388 -0.3099  0.9855
  718MOL0     C94662   6.416   6.532   1.394 -0.1428  0.7382 -0.4100
  718MOL0     C94663   6.365   6.660   1.411  0.9097 -0.6904 -0.3359
  718MOL0     C94664   6.238   6.702   1.334  0.4298  0.3696 -0.1620
  718MOL0     C94665   6.106   6.674   1.404 -0.4146 -0.0496  0.0429
  718MOL0     C94666   5.999   6.731   1.323  0.4361 -0.4144  0.1649
  718MOL0     C94667   5.857   6.722   1.379  0.4854  0.1951 -0.2607
  718MOL0     O94668   5.764   6.789   1.293 -0.5113 -0.3555  0.1578
  718MOL0     C94669   5.627   6.765   1.308  0.3796  0.4787 -1.1286
  718MOL0     C94670   5.558   6.849   1.225 -0.1654  0.7174 -0.7498
  718MOL0     C94671   5.419   6.840   1.200  0.8614 -0.5858  0.1136
  718MOL0     C94672   5.351   6.741   1.274 -0.0075 -0.4589 -0.3541
  718MOL0     C94673   5.206   6.743   1.267  0.2919  0.3869  0.1696
  718MOL0     O94674   5.147   6.840   1.189  0.2101  0.3278 -0.4270
  718MOL0     C94675   5.012   6.846   1.188  0.0301 -0.4116 -0.0398
  718MOL0     C94676   4.941   6.854   1.310  0.5889  0.1584  0.5226
  718MOL0     C94677   4.808   6.905   1.311 -0.0239  1.2450  0.4267
  718MOL0     C94678   4.749   6.925   1.182 -0.2342 -0.1801 -1.0231
  718MOL0     O94679   4.617   6.951   1.180  0.5067 -0.5496 -0.1829
  718MOL0     C94680   4.581   7.095   1.164  0.4527  0.0575 -0.1273
  718MOL0     C94681   4.434   7.096   1.118 -0.4016 -0.6063 -0.5550
  718MOL0     C94682   4.388   7.230   1.060  0.9660  0.3672  0.4240
  718MOL0     C94683   4.239   7.214   1.005  0.7343  0.2622 -0.0316
  718MOL0     C94684   4.158   7.340   0.988 -0.9716  0.1667  0.1004
  718MOL0     C94685   4.020   7.321   1.058 -0.1128  0.2793  0.9205
  718MOL0     C94686   3.933   7.439   1.033 -0.3194  0.2039  0.4385
  718MOL0     C94687   3.977   7.573   1.102 -0.2408  0.2168 -0.7474
  718MOL0    Cl94688   3.875   7.713   1.050  0.2085  0.0007  0.1013
  718MOL0     C94689   4.825   6.920   1.067  0.2937  0.9070 -0.8093
  718MOL0     C94690   4.957   6.884   1.074  0.4015 -0.5240  0.8772
  718MOL0     O94691   5.142   6.660   1.331  0.2936  0.8422  0.1481
  718MOL0     C94692   5.427   6.650   1.363  0.0425 -0.3913 -0.1647
  718MOL0     C94693   5.564   6.666   1.387  0.2851  0.4435  0.9294
  718MOL0     N94694   6.439   6.734   1.506  0.0432 -0.0503  0.1090
  718MOL0     N94695   6.526   6.652   1.549 -0.7381  0.2235 -0.6042
  718MOL0     C94696   7.266   5.829   1.302 -0.1334 -1.1247  0.8743
  718MOL0     C94697   7.399   5.819   1.317  0.2848 -0.3291  0.3727
  718MOL0     C94698   7.806   6.042   1.323 -0.1962 -0.5299 -0.1928
  718MOL0     C94699   7.909   6.119   1.277 -0.9039 -0.1535  0.8312
  718MOL0     C94700   8.010   6.172   1.362 -0.3448 -0.5886  0.4756
  718MOL0     C94701   7.999   6.151   1.497 -0.7812  0.3836  0.5600
  718MOL0     O94702   8.090   6.189   1.597  0.2976  0.4199  0.4302
  718MOL0     C94703   8.226   6.206   1.553 -0.6951 -0.6183 -0.6076
  718MOL0     C94704   8.313   6.213   1.671 -0.4415 -0.5695  0.8773
  718MOL0     C94705   8.461   6.246   1.649  0.2206 -1.2825 -0.1360
  718MOL0     C94706   8.532   6.253   1.784 -0.8623 -0.5741 -0.1200
  718MOL0     C94707   8.519   6.135   1.877  0.0893 -0.7264  0.5824
  718MOL0     C94708   8.512   6.041   1.955 -0.6178  1.2071 -0.0874
  718MOL0     C94709   7.886   6.092   1.548 -0.0434 -1.0991 -0.4826
  718MOL0     C94710   7.790   6.031   1.464 -0.3881  0.6480  0.2874
  718MOL0     H94711   7.490   6.122   1.189 -0.5404 -0.7709 -0.4992
  718MOL0     H94712   7.229   6.140   1.187 -0.7933 -0.7121  0.3154
  718MOL0     H94713   6.990   5.802   1.347 -0.4059 -1.7578 -1.1509
  718MOL0     H94714   6.998   5.797   1.177  2.5324 -2.0675  1.7030
  718MOL0     H94715   6.797   5.857   1.145  0.5585  0.5603 -1.0328
  718MOL0     H94716   6.839   6.021   1.215  1.8637 -0.7723 -3.1022
  718MOL0     H94717   6.736   5.780   1.355  2.0822  0.1951  0.6332
  718MOL0     H94718   6.633   5.913   1.289 -0.4704 -0.0003 -0.8704
  718MOL0     H94719   6.711   5.927   1.545 -2.8021  0.4391 -1.4497
  718MOL0     H94720   6.859   5.982   1.493 -0.2841  2.3797 -0.2709
  718MOL0     H94721   6.594   6.115   1.417 -0.3193 -0.8941  0.1164
  718MOL0     H94722   6.756   6.182   1.380 -1.2363 -0.8188 -0.6513
  718MOL0     H94723   6.792   6.212   1.624  1.4036 -5.6936  1.2286
  718MOL0     H94724   6.643   6.140   1.668 -0.4763  1.1810 -0.5837
  718MOL0     H94725   6.496   6.279   1.581 -0.3328 -0.0456 -0.4556
  718MOL0     H94726   6.607   6.357   1.694 -1.1082  0.7674  0.1949
  718MOL0     H94727   6.637   6.398   1.393  1.3253 -0.6183 -0.2022
  718MOL0     H94728   6.721   6.479   1.522 -1.1463  1.0787  0.7057
  718MOL0     H94729   6.402   6.452   1.322 -0.0819 -1.2794  1.7014
  718MOL0     H94730   6.228   6.647   1.240 -0.1456  0.9841 -0.4661
  718MOL0     H94731   6.247   6.806   1.301  0.4878 -0.7220 -4.0632
  718MOL0     H94732   6.099   6.722   1.502 -1.4950 -2.0562  1.0127
  718MOL0     H94733   6.088   6.568   1.425  0.8212 -0.8038 -2.3739
  718MOL0     H94734   6.025   6.836   1.307 -0.2083  0.1360  2.4239
  718MOL0     H94735   5.990   6.686   1.223  0.3711 -1.2764  0.5529
  718MOL0     H94736   5.854   6.764   1.480  0.0614 -1.2935  0.3659
  718MOL0     H94737   5.832   6.616   1.389  2.5544 -0.4770 -1.5677
  718MOL0     H94738   5.615   6.926   1.175 -0.2408  1.0788 -0.2894
  718MOL0     H94739   5.375   6.907   1.127  1.5544 -0.5877 -0.3156
  718MOL0     H94740   4.997   6.835   1.400  1.7666 -0.4874 -0.3139
  718MOL0     H94741   4.751   6.930   1.400  1.3652  3.5595  0.7592
  718MOL0     H94742   4.634   7.148   1.085  1.7585 -0.0184  0.6651
  718MOL0     H94743   4.595   7.154   1.255  2.1431  1.7407 -1.4063
  718MOL0     H94744   4.375   7.075   1.208 -0.6389  0.8956 -0.3219
  718MOL0     H94745   4.427   7.016   1.044 -1.0308 -1.4444  0.3790
  718MOL0     H94746   4.446   7.277   0.980 -1.6561 -0.7697 -2.3505
  718MOL0     H94747   4.378   7.302   1.142 -0.3303  0.0148  0.6049
  718MOL0     H94748   4.241   7.160   0.910  0.1446  1.6122 -0.8351
  718MOL0     H94749   4.183   7.147   1.072  0.8751 -0.5264 -0.6946
  718MOL0     H94750   4.144   7.356   0.881  0.8514  1.8127  0.0540
  718MOL0     H94751   4.220   7.417   1.034  0.9840 -0.8190 -0.7689
  718MOL0     H94752   4.024   7.310   1.166  0.5632  0.3523  0.9130
  718MOL0     H94753   3.977   7.232   1.012  2.9757  0.0269 -1.8613
  718MOL0     H94754   3.910   7.456   0.927  0.1510 -2.7603 -0.2342
  718MOL0     H94755   3.834   7.412   1.071  0.3382 -2.2428  0.6375
  718MOL0     H94756   4.085   7.587   1.093  0.1594 -0.9921  1.3871
  718MOL0     H94757   3.959   7.565   1.210  1.6383 -0.8086 -0.4654
  718MOL0     H94758   4.774   6.950   0.976 -0.5076  0.0121 -0.6710
  718MOL0     H94759   5.028   6.884   0.991  1.7957 -2.2194  2.0095
  718MOL0     H94760   5.368   6.572   1.410  1.0802  0.2954  2.4429
  718MOL0     H94761   5.624   6.602   1.452 -0.2195  0.4190  1.3852
  718MOL0     H94762   7.193   5.756   1.336 -3.3607  1.7243  0.7206
  718MOL0     H94763   7.438   5.727   1.359  1.2971  1.1970  3.0316
  718MOL0     H94764   7.925   6.131   1.171 -1.5431  2.3022  0.9569
  718MOL0     H94765   8.098   6.222   1.323 -1.0119  0.8144  0.6863
  718MOL0     H94766   8.223   6.291   1.484 -2.3410 -0.6691 -0.6533
  718MOL0     H94767   8.266   6.126   1.490  2.1713 -0.9521  1.5019
  718MOL0     H94768   8.271   6.299   1.724 -1.2593 -0.9586  0.8753
  718MOL0     H94769   8.305   6.123   1.732  1.0501 -2.1684 -1.1745
  718MOL0     H94770   8.478   6.339   1.595  4.9222 -1.2798  0.8859
  718MOL0     H94771   8.504   6.173   1.580 -0.2639 -0.3248 -1.4997
  718MOL0     H94772   8.640   6.247   1.764 -0.4347 -1.5206  2.1170
  718MOL0     H94773   8.512   6.343   1.843  1.1843  1.1246 -1.8264
  718MOL0     H94774   8.520   5.950   2.011  0.8978  1.2770 -0.1662
  718MOL0     H94775   7.862   6.090   1.654  0.1811  0.3472 -0.3849
  718MOL0     H94776   7.718   5.959   1.501 -0.1412  0.2581  0.0116
  719MOL0     O94777  10.329   5.020   7.308  0.1037  0.7329 -0.1989
  719MOL0     C94778  10.382   5.098   7.384 -0.3379 -0.3371 -0.1844
  719MOL0     O94779  10.517   5.129   7.386  0.5564  0.1986 -0.2683
  719MOL0     C94780  10.610   5.084   7.293  0.1348  0.2340  0.9822
  719MOL0     C94781  10.589   5.062   7.154  0.1508 -0.0651 -0.5474
  719MOL0     C94782  10.701   5.039   7.075  0.1234 -0.5228 -0.2756
  719MOL0     C94783  10.828   5.032   7.130 -0.0586  0.6306  0.2898
  719MOL0     O94784  10.934   5.005   7.039  0.9078 -0.1431 -0.3486
  719MOL0     C94785  11.068   5.050   7.068  0.8918 -0.3667 -0.2582
  719MOL0     C94786  11.165   5.013   6.966  0.4366  0.7742  0.8780
  719MOL0     C94787  11.295   5.087   6.954 -0.2588 -0.8645  0.6464
  719MOL0     C94788  11.395   5.053   7.065  0.0740 -0.8421  0.2632
  719MOL0     C94789  11.510   5.153   7.078 -0.4559 -0.7445 -0.1168
  719MOL0     C94790  11.616   5.145   6.969 -0.1748 -0.2566  0.7920
  719MOL0     C94791  11.748   5.227   6.998 -1.1216  1.1880  0.2424
  719MOL0     C94792  11.751   5.383   6.990 -0.7007 -0.5209  0.4421
  719MOL0     N94793  11.683   5.443   6.873 -1.2088 -0.9749 -0.2709
  719MOL0     C94794  11.548   5.459   6.860 -0.4313  0.3192 -0.3591
  719MOL0     C94795  11.535   5.478   6.723  0.0613  0.6407 -0.7961
  719MOL0     C94796  11.396   5.496   6.661 -1.1459 -0.2882  0.2409
  719MOL0     C94797  11.290   5.412   6.723  0.8569 -0.3179  0.3826
  719MOL0     C94798  11.167   5.375   6.630  0.1698  0.8347 -0.1844
  719MOL0     C94799  11.079   5.256   6.686  0.0300 -0.3914  0.2673
  719MOL0     O94800  11.019   5.295   6.811  0.8964 -0.0669 -0.1281
  719MOL0     C94801  10.882   5.274   6.842 -0.1658 -0.0207 -0.2134
  719MOL0     C94802  10.837   5.321   6.960  0.3356 -0.1696  0.4873
  719MOL0     C94803  10.700   5.334   6.994 -0.9066  0.2191  0.0866
  719MOL0     C94804  10.604   5.298   6.893  0.1286 -0.3670 -0.0614
  719MOL0     C94805  10.464   5.321   6.920 -0.0329 -0.6440  0.6348
  719MOL0     O94806  10.421   5.336   7.042  0.0386  0.6465 -0.2091
  719MOL0     C94807  10.292   5.357   7.063 -0.1026  0.4844 -1.3314
  719MOL0     C94808  10.228   5.485   7.046  0.4930  0.6763 -0.8187
  719MOL0     C94809  10.088   5.497   7.074  0.7113  0.6447 -0.2741
  719MOL0     C94810  10.016   5.391   7.128 -0.2310  0.5698 -0.5596
  719MOL0     O94811   9.894   5.406   7.188 -0.1876 -0.6681  0.1110
  719MOL0     C94812   9.878   5.372   7.323 -0.3018  0.6706  0.2200
  719MOL0     C94813   9.761   5.454   7.379  0.4078 -1.0148 -0.2880
  719MOL0     C94814   9.733   5.435   7.529 -0.5954  1.2948  0.8779
  719MOL0     C94815   9.607   5.515   7.573  0.2961 -0.6453  0.0447
  719MOL0     C94816   9.545   5.448   7.700 -0.6539  1.0678 -0.2134
  719MOL0     C94817   9.418   5.524   7.750 -0.0149 -0.1916 -0.1872
  719MOL0     C94818   9.387   5.491   7.902  0.5214 -0.9010 -0.3446
  719MOL0     C94819   9.293   5.599   7.964  0.5990  0.5800  0.1728
  719MOL0    Cl94820   9.279   5.589   8.157  0.6232 -0.0829 -0.0135
  719MOL0     C94821  10.076   5.262   7.141  0.1822 -0.6184 -0.0125
  719MOL0     C94822  10.213   5.247   7.116 -0.4463 -0.6317 -0.4217
  719MOL0     O94823  10.388   5.317   6.817 -0.8177 -0.2210 -0.3244
  719MOL0     C94824  10.651   5.245   6.779  0.1884  0.0018  0.5823
  719MOL0     C94825  10.789   5.236   6.755  0.1210 -0.0638 -0.2997
  719MOL0     N94826  11.665   5.475   6.664 -0.4324 -0.4389 -0.5593
  719MOL0     N94827  11.753   5.467   6.758 -0.0980  0.0068  0.5154
  719MOL0     C94828  10.852   5.064   7.266  0.1278 -0.6858 -0.0876
  719MOL0     C94829  10.735   5.066   7.347 -1.2450 -0.5797 -0.3284
  719MOL0     C94830  10.283   5.150   7.484  0.4405 -0.0024  0.7596
  719MOL0     C94831  10.320   5.239   7.583 -0.8983 -0.3480  0.1934
  719MOL0     C94832  10.237   5.303   7.668  0.6514 -0.2614 -0.3881
  719MOL0     C94833  10.098   5.284   7.649  0.9030 -0.3926  0.5785
  719MOL0     O94834  10.001   5.334   7.729 -0.4439  0.2647  0.2009
  719MOL0     C94835  10.014   5.405   7.845  0.1111 -0.8076  0.0856
  719MOL0     C94836  10.000   5.304   7.957 -0.5434  0.6371 -0.1313
  719MOL0     C94837   9.861   5.243   7.970  0.0583 -0.2606 -0.2412
  719MOL0     C94838   9.838   5.124   7.878 -0.0761  0.1646  0.0292
  719MOL0     C94839   9.950   5.023   7.898 -0.1591 -0.4768  0.7772
  719MOL0     C94840  10.032   4.933   7.925  0.0253  0.1504  0.3710
  719MOL0     C94841  10.054   5.201   7.554  0.0344 -0.0151  0.6759
  719MOL0     C94842  10.143   5.133   7.471 -1.3536 -0.2349 -0.8806
  719MOL0     H94843  10.494   5.079   7.103  0.5230  3.6497 -0.3077
  719MOL0     H94844  10.673   5.034   6.970 -1.8866  3.3134 -0.0872
  719MOL0     H94845  11.098   5.009   7.165  2.1516  2.2687  0.5646
  719MOL0     H94846  11.066   5.160   7.072  1.4691 -0.2948 -1.4309
  719MOL0     H94847  11.106   5.022   6.874  1.1413 -0.5263  0.2600
  719MOL0     H94848  11.177   4.905   6.976 -1.9052  0.3605 -0.0734
  719MOL0     H94849  11.276   5.194   6.963  1.0625 -0.4263 -1.1767
  719MOL0     H94850  11.329   5.071   6.851  0.7977  0.3933  0.7721
  719MOL0     H94851  11.337   5.054   7.157  0.3820  0.9156  0.4743
  719MOL0     H94852  11.436   4.953   7.051  2.3114  0.1840 -1.0332
  719MOL0     H94853  11.560   5.123   7.171  0.5371  3.2484  0.8220
  719MOL0     H94854  11.465   5.253   7.082  1.4337  0.2798 -2.5021
  719MOL0     H94855  11.574   5.183   6.875 -0.2300  0.8828  1.2651
  719MOL0     H94856  11.651   5.045   6.941  0.5121  0.4376 -0.9846
  719MOL0     H94857  11.799   5.198   7.090 -0.0083  3.6027  0.4573
  719MOL0     H94858  11.818   5.205   6.918  0.3692  3.8947  0.6762
  719MOL0     H94859  11.857   5.406   7.001 -0.8093 -0.9142  2.6684
  719MOL0     H94860  11.706   5.425   7.080  0.2164  2.9010 -0.5426
  719MOL0     H94861  11.475   5.433   6.937  0.7920  0.6926  0.9724
  719MOL0     H94862  11.415   5.462   6.559 -1.4898  1.7436 -0.5552
  719MOL0     H94863  11.379   5.604   6.657  2.4336  0.3772 -1.3457
  719MOL0     H94864  11.267   5.461   6.818  2.9815 -0.5025  1.0410
  719MOL0     H94865  11.332   5.317   6.757  2.9427  1.2782  2.6302
  719MOL0     H94866  11.107   5.465   6.621  1.3345  1.7451  0.7086
  719MOL0     H94867  11.200   5.355   6.528  0.4432  0.2343  0.0159
  719MOL0     H94868  11.136   5.166   6.709  1.4861  0.8842  1.9472
  719MOL0     H94869  11.008   5.236   6.605  1.0833 -2.3127 -0.2439
  719MOL0     H94870  10.909   5.365   7.028  0.1391  1.6766 -0.4327
  719MOL0     H94871  10.671   5.365   7.094  1.9195  0.7144  0.8616
  719MOL0     H94872  10.295   5.565   7.017  3.9602 -1.0389  1.6902
  719MOL0     H94873  10.030   5.588   7.059 -1.7498 -0.8125 -0.1379
  719MOL0     H94874   9.971   5.395   7.377  1.3914  1.8908 -2.9570
  719MOL0     H94875   9.857   5.266   7.335  2.1700  0.2302  1.4266
  719MOL0     H94876   9.673   5.429   7.319  0.4904 -0.0490 -0.8317
  719MOL0     H94877   9.778   5.559   7.356 -1.7995 -0.8063 -1.2796
  719MOL0     H94878   9.818   5.469   7.589 -0.0934 -1.1654  1.6694
  719MOL0     H94879   9.726   5.326   7.534 -2.7539  1.3688  0.5861
  719MOL0     H94880   9.643   5.615   7.599 -2.6326  0.2763  0.9291
  719MOL0     H94881   9.526   5.520   7.500  2.3852  0.0459 -2.3821
  719MOL0     H94882   9.618   5.458   7.781 -2.3806 -0.1540  1.6069
  719MOL0     H94883   9.517   5.344   7.680 -0.7041  1.0735 -0.1718
  719MOL0     H94884   9.333   5.494   7.688  0.0661 -0.0110 -0.3879
  719MOL0     H94885   9.432   5.633   7.745 -2.7919  0.5693  3.6541
  719MOL0     H94886   9.353   5.388   7.919  2.5659 -2.0197 -2.5478
  719MOL0     H94887   9.477   5.495   7.964 -2.1933 -1.9564  4.2291
  719MOL0     H94888   9.195   5.595   7.915  1.8212  0.2955 -2.4075
  719MOL0     H94889   9.332   5.699   7.941  0.6831  0.2398 -1.2036
  719MOL0     H94890  10.008   5.181   7.166  1.9394 -1.6700  1.7074
  719MOL0     H94891  10.258   5.148   7.121  3.7374  1.0220 -0.9534
  719MOL0     H94892  10.582   5.213   6.702  1.0613 -0.1311 -0.1586
  719MOL0     H94893  10.807   5.206   6.652 -3.1915  1.0205 -1.3179
  719MOL0     H94894  10.953   5.077   7.303 -0.1262 -0.3413  0.5015
  719MOL0     H94895  10.746   5.078   7.454 -2.6594 -2.0650  0.0132
  719MOL0     H94896  10.425   5.255   7.605 -0.6483 -1.2270 -0.3063
  719MOL0     H94897  10.281   5.369   7.742  0.8232 -2.7792  1.8962
  719MOL0     H94898   9.936   5.480   7.863 -1.7822 -1.9463 -2.6012
  719MOL0     H94899  10.113   5.450   7.843  1.1533 -2.9225  1.0490
  719MOL0     H94900  10.073   5.223   7.951 -1.1902 -0.1494  1.8613
  719MOL0     H94901  10.024   5.359   8.049 -3.1319 -1.0962  1.7362
  719MOL0     H94902   9.779   5.311   7.949  0.5796  0.2419 -0.6942
  719MOL0     H94903   9.843   5.205   8.071  0.7450  0.7500  0.2836
  719MOL0     H94904   9.752   5.070   7.919  0.8872 -1.0235  0.5530
  719MOL0     H94905   9.832   5.153   7.772 -3.7146  0.0599  0.0687
  719MOL0     H94906  10.097   4.851   7.947  2.6090  2.1345  0.5854
  719MOL0     H94907   9.949   5.179   7.538  0.1076 -1.9216  2.3022
  719MOL0     H94908  10.096   5.064   7.403 -0.5127 -1.9671  0.2206
  720MOL0     O94909   2.474   0.169   6.078 -0.0746 -0.2293 -0.0449
  720MOL0     C94910   2.472   0.082   6.161 -0.6400  0.9626 -0.6236
  720MOL0     O94911   2.395   0.071   6.270 -0.3126 -0.1812  0.4306
  720MOL0     C94912   2.283   0.150   6.285  1.1515  0.6196 -0.1406
  720MOL0     C94913   2.263   0.212   6.410  0.6084  0.6410  0.4851
  720MOL0     C94914   2.142   0.287   6.428 -0.1809  0.2214  0.3512
  720MOL0     C94915   2.050   0.313   6.334  0.3491  0.3305  0.0760
  720MOL0     O94916   1.935   0.380   6.361  0.4960  0.0807 -0.2617
  720MOL0     C94917   1.868   0.455   6.268 -0.9134  0.0738  1.2696
  720MOL0     C94918   1.748   0.532   6.325  0.1710  0.9532  1.0935
  720MOL0     C94919   1.713   0.663   6.244 -1.3031 -0.7221  0.4976
  720MOL0     C94920   1.622   0.765   6.315  0.7824  1.0314  0.4249
  720MOL0     C94921   1.475   0.739   6.290  0.4213 -0.0806 -0.2621
  720MOL0     C94922   1.392   0.772   6.413  0.0229  0.0948 -0.3734
  720MOL0     C94923   1.252   0.806   6.371  0.9831  0.4088 -0.3398
  720MOL0     C94924   1.166   0.681   6.343  0.7996 -0.0756  0.0423
  720MOL0     N94925   1.039   0.716   6.289 -0.4892 -0.1256 -0.4235
  720MOL0     C94926   0.930   0.760   6.370  0.1689  0.1018  0.0135
  720MOL0     C94927   0.834   0.797   6.284  0.5314 -0.3223  0.1823
  720MOL0     C94928   0.698   0.848   6.303  0.0916  0.0900  0.5748
  720MOL0     C94929   0.694   1.003   6.290  0.4224 -0.4755 -0.3992
  720MOL0     C94930   0.562   1.059   6.332  0.2010  0.0652 -0.1662
  720MOL0     C94931   0.462   1.060   6.220 -0.8076 -0.2082  0.1687
  720MOL0     O94932   0.351   1.144   6.259  0.4554 -0.0443 -0.1283
  720MOL0     C94933   0.232   1.137   6.182  0.0645  0.2188  0.1698
  720MOL0     C94934   0.212   1.051   6.078  0.2982  0.9134 -0.6653
  720MOL0     C94935   0.087   1.056   6.005  0.1055 -0.2987  0.5788
  720MOL0     C94936   0.004   1.159   6.036  1.1048 -0.2077  0.3580
  720MOL0     C94937  -0.122   1.188   5.959 -0.2740 -0.7449  0.2070
  720MOL0     O94938  -0.133   1.116   5.848  0.2931 -0.6170 -0.1081
  720MOL0     C94939  -0.239   1.152   5.760 -0.7986 -0.1061 -0.7213
  720MOL0     C94940  -0.312   1.046   5.702  0.5532 -0.0236 -0.2444
  720MOL0     C94941  -0.429   1.071   5.621  0.2123 -0.3914 -0.4190
  720MOL0     C94942  -0.469   1.200   5.600 -0.2297 -0.4651  0.3532
  720MOL0     O94943  -0.575   1.216   5.509 -0.7866 -0.3170 -0.6789
  720MOL0     C94944  -0.646   1.337   5.506 -0.2777 -0.0220 -0.4818
  720MOL0     C94945  -0.716   1.358   5.370 -0.4921 -0.7737 -0.4950
  720MOL0     C94946  -0.764   1.495   5.324  0.2007  0.2323  0.1007
  720MOL0     C94947  -0.849   1.499   5.188  0.7250 -0.1873 -0.7708
  720MOL0     C94948  -0.891   1.646   5.155 -1.1802  0.3244 -0.2690
  720MOL0     C94949  -0.780   1.748   5.129  0.3267 -1.1213  1.0208
  720MOL0     C94950  -0.818   1.841   5.015  0.3841 -0.5159 -0.0384
  720MOL0     C94951  -0.730   1.960   5.013  0.3241  0.6929  0.5273
  720MOL0    Cl94952  -0.578   1.903   4.951 -0.3217  0.0728  0.1472
  720MOL0     C94953  -0.391   1.305   5.652  0.4348 -0.0261 -0.4746
  720MOL0     C94954  -0.279   1.274   5.732  0.4894 -0.7070 -0.2710
  720MOL0     O94955  -0.205   1.261   6.009  0.2671  0.2656 -0.1860
  720MOL0     C94956   0.030   1.244   6.154  0.3956 -0.4800 -0.3278
  720MOL0     C94957   0.148   1.236   6.219 -0.5664 -0.3403  0.4380
  720MOL0     N94958   0.884   0.770   6.151 -0.6493 -0.1373 -0.3121
  720MOL0     N94959   1.004   0.723   6.163  0.2978  0.0481  0.6687
  720MOL0     C94960   2.073   0.242   6.206  0.4336  0.2334  0.5867
  720MOL0     C94961   2.189   0.166   6.186  1.2894 -0.3920  0.2616
  720MOL0     C94962   2.566  -0.019   6.128 -0.5917 -0.3364 -0.8286
  720MOL0     C94963   2.616  -0.098   6.230  0.2078 -0.4798 -0.0824
  720MOL0     C94964   2.682  -0.213   6.204 -0.3069  0.0638  0.3967
  720MOL0     C94965   2.727  -0.245   6.068  0.2128  0.1391  0.7118
  720MOL0     O94966   2.820  -0.348   6.039 -0.2600  0.1142 -0.5439
  720MOL0     C94967   2.799  -0.474   6.107  0.8156  0.3813  0.4957
  720MOL0     C94968   2.913  -0.571   6.078 -0.2203 -0.3094 -1.4581
  720MOL0     C94969   3.044  -0.515   6.151 -0.2639  0.6591  1.2809
  720MOL0     C94970   3.159  -0.603   6.124  0.1190 -0.7974 -0.0329
  720MOL0     C94971   3.202  -0.570   5.987 -0.8520  1.0325  0.7685
  720MOL0     C94972   3.244  -0.533   5.878 -0.4451  0.4013 -0.3752
  720MOL0     C94973   2.693  -0.156   5.964 -0.3434  0.0390 -0.6368
  720MOL0     C94974   2.612  -0.046   5.996 -0.1073  0.4874  0.7810
  720MOL0     H94975   2.339   0.203   6.487  1.2328  4.8029  0.5729
  720MOL0     H94976   2.122   0.331   6.525  0.7261  1.6448 -0.0787
  720MOL0     H94977   1.840   0.401   6.177 -0.8575 -1.9440  2.3825
  720MOL0     H94978   1.942   0.530   6.237 -1.8359 -0.3257 -2.3424
  720MOL0     H94979   1.768   0.561   6.429 -1.7829  0.6622  1.6030
  720MOL0     H94980   1.660   0.469   6.311  0.3623  0.9227 -0.0699
  720MOL0     H94981   1.687   0.654   6.138 -0.0967  2.4912 -0.1898
  720MOL0     H94982   1.809   0.716   6.241 -3.5615  3.8733  1.3830
  720MOL0     H94983   1.658   0.763   6.419  1.6177 -0.1248  0.1399
  720MOL0     H94984   1.648   0.860   6.269 -2.2005  1.7996  0.1505
  720MOL0     H94985   1.456   0.639   6.250  3.0610 -0.6827 -0.1882
  720MOL0     H94986   1.450   0.815   6.215  0.5852  2.5449  2.1677
  720MOL0     H94987   1.430   0.857   6.472 -0.3862 -0.1663  0.2810
  720MOL0     H94988   1.384   0.683   6.477 -1.5299 -1.5361 -2.6828
  720MOL0     H94989   1.203   0.862   6.451  2.7661  0.6390  0.6453
  720MOL0     H94990   1.253   0.870   6.283  0.3259  1.4800  0.4029
  720MOL0     H94991   1.142   0.640   6.442  0.4332  0.4328  0.1712
  720MOL0     H94992   1.215   0.606   6.281  1.7389 -1.0643  1.8830
  720MOL0     H94993   0.933   0.756   6.479  1.0767 -3.7649 -0.0053
  720MOL0     H94994   0.665   0.816   6.402  3.9788 -1.3259  1.6100
  720MOL0     H94995   0.637   0.807   6.223  0.6919  0.1070  0.1005
  720MOL0     H94996   0.716   1.033   6.187  0.4500 -1.0066 -0.5518
  720MOL0     H94997   0.767   1.046   6.359  1.4094 -1.6147 -0.6912
  720MOL0     H94998   0.535   0.999   6.420 -1.8099  2.1152  0.7190
  720MOL0     H94999   0.571   1.159   6.377 -1.5204  0.2768 -0.2091
  720MOL0     H95000   0.440   0.955   6.197 -0.6508  0.1816 -2.0227
  720MOL0     H95001   0.510   1.105   6.133  2.2766  0.0534  1.8834
  720MOL0     H95002   0.289   0.978   6.057  0.7572  0.7172  1.4598
  720MOL0     H95003   0.067   0.986   5.925 -1.8217 -1.1520  1.7362
  720MOL0     H95004  -0.284   0.952   5.750 -1.1307  0.2047  1.2986
  720MOL0     H95005  -0.481   0.981   5.591 -0.0854 -0.8164  1.2579
  720MOL0     H95006  -0.578   1.422   5.512  2.9997 -2.5216  1.7268
  720MOL0     H95007  -0.715   1.342   5.591 -0.2654  0.9061 -0.5252
  720MOL0     H95008  -0.800   1.288   5.383 -1.3589  0.7667  4.0531
  720MOL0     H95009  -0.650   1.304   5.302  0.3225 -1.5569  0.8590
  720MOL0     H95010  -0.680   1.563   5.307 -0.6035  1.0124 -0.8238
  720MOL0     H95011  -0.826   1.535   5.405 -2.1190 -1.7654 -0.5837
  720MOL0     H95012  -0.791   1.465   5.102 -1.1341 -0.3049 -2.0420
  720MOL0     H95013  -0.934   1.432   5.204  2.0864 -1.4811  1.7311
  720MOL0     H95014  -0.950   1.682   5.241 -3.8787 -1.1942 -1.3546
  720MOL0     H95015  -0.944   1.647   5.060 -0.7362 -1.1893 -0.5521
  720MOL0     H95016  -0.702   1.677   5.099  1.1633 -0.9718  2.7372
  720MOL0     H95017  -0.753   1.808   5.217  1.4269 -1.4135  0.8992
  720MOL0     H95018  -0.814   1.787   4.920 -3.9792 -1.5067  0.1616
  720MOL0     H95019  -0.918   1.878   5.039  1.1308  0.4913  1.7237
  720MOL0     H95020  -0.708   2.006   5.110  2.4218  1.1334 -0.1177
  720MOL0     H95021  -0.771   2.033   4.943  0.5553 -0.5060 -0.9069
  720MOL0     H95022  -0.408   1.409   5.628  0.3793  0.4856  1.5989
  720MOL0     H95023  -0.230   1.366   5.765 -2.0554  1.9645 -3.2487
  720MOL0     H95024  -0.051   1.316   6.163 -1.2770 -1.9220 -2.6371
  720MOL0     H95025   0.187   1.291   6.304 -0.3053  1.8141 -1.0063
  720MOL0     H95026   1.997   0.256   6.130 -1.5918 -1.0429  2.2639
  720MOL0     H95027   2.199   0.108   6.095  0.3340 -0.3230  0.1080
  720MOL0     H95028   2.587  -0.086   6.334 -2.4893 -1.0219 -0.6797
  720MOL0     H95029   2.726  -0.271   6.285  1.2897  0.4370 -0.1760
  720MOL0     H95030   2.700  -0.515   6.085  1.9886 -3.5356  1.7245
  720MOL0     H95031   2.806  -0.460   6.216  2.7685 -5.1547  1.3799
  720MOL0     H95032   2.879  -0.669   6.114 -0.5512  0.2393 -0.2149
  720MOL0     H95033   2.926  -0.583   5.970  1.9854  1.8386 -1.5023
  720MOL0     H95034   3.042  -0.504   6.260  1.1560  3.2221  1.1338
  720MOL0     H95035   3.080  -0.419   6.111  2.0524 -1.2853 -1.7424
  720MOL0     H95036   3.237  -0.588   6.199 -0.0768  1.3005 -0.1841
  720MOL0     H95037   3.125  -0.707   6.127  1.9254 -1.3984  0.7591
  720MOL0     H95038   3.300  -0.500   5.792  1.8287 -0.5395  0.6499
  720MOL0     H95039   2.720  -0.187   5.864 -1.7800  2.2023 -1.7733
  720MOL0     H95040   2.571   0.011   5.914 -0.0785 -1.2964 -0.5318
  721MOL0     O95041   8.783   0.845   8.323  0.1044  0.3920 -0.4502
  721MOL0     C95042   8.827   0.753   8.392 -0.4004  0.5453  0.2512
  721MOL0     O95043   8.759   0.629   8.410 -0.0860 -0.1999 -0.0443
  721MOL0     C95044   8.639   0.622   8.348 -0.5065 -2.1636  0.4764
  721MOL0     C95045   8.537   0.706   8.391 -0.0097 -0.1352  0.4881
  721MOL0     C95046   8.402   0.686   8.345 -0.0055 -0.8078 -0.6590
  721MOL0     C95047   8.372   0.576   8.267  0.4110 -0.8768  1.1019
  721MOL0     O95048   8.249   0.549   8.230  0.7417 -0.5816 -0.6100
  721MOL0     C95049   8.164   0.469   8.315 -0.1669 -0.9847  0.4353
  721MOL0     C95050   8.047   0.541   8.387  0.1388  0.2688 -0.6779
  721MOL0     C95051   7.922   0.448   8.416 -1.0841  0.3986 -0.1015
  721MOL0     C95052   7.808   0.517   8.474  0.4209 -0.3401  0.0607
  721MOL0     C95053   7.839   0.572   8.618  0.5388 -0.5696 -1.1177
  721MOL0     C95054   7.717   0.639   8.681 -0.2132 -0.4531 -0.6722
  721MOL0     C95055   7.771   0.715   8.803  0.2578 -0.0998 -0.0005
  721MOL0     C95056   7.761   0.638   8.936 -0.6339 -0.8805 -0.4958
  721MOL0     N95057   7.636   0.572   8.941 -0.6064  0.0226 -0.1607
  721MOL0     C95058   7.520   0.616   8.971 -0.2808  0.6137  0.4466
  721MOL0     C95059   7.435   0.510   9.002 -0.6362 -1.0791 -1.6722
  721MOL0     C95060   7.297   0.517   9.069  0.1296 -0.4399  0.3089
  721MOL0     C95061   7.274   0.644   9.161  0.7365  0.3523 -0.0276
  721MOL0     C95062   7.128   0.667   9.196  0.5000  0.1077  0.4012
  721MOL0     C95063   7.047   0.541   9.248 -0.0558  0.4163  1.1963
  721MOL0     O95064   6.923   0.582   9.298  0.4338 -0.7917 -0.0452
  721MOL0     C95065   6.848   0.489   9.361  0.4529  0.8155 -0.7727
  721MOL0     C95066   6.716   0.528   9.399 -0.5344 -0.0171  0.8845
  721MOL0     C95067   6.634   0.447   9.469  0.5335  0.1557  0.3474
  721MOL0     C95068   6.677   0.320   9.523 -0.4076 -0.4416 -0.4245
  721MOL0     C95069   6.583   0.244   9.601  0.4726 -0.0882 -0.8320
  721MOL0     O95070   6.452   0.282   9.623  0.1596  0.2781  0.4182
  721MOL0     C95071   6.374   0.202   9.700  0.4886  0.6835 -0.6259
  721MOL0     C95072   6.349   0.064   9.673  0.7257 -0.2781 -0.2646
  721MOL0     C95073   6.260  -0.018   9.750  0.4902  0.2242  0.8069
  721MOL0     C95074   6.200   0.045   9.864 -1.0120  0.2554  0.1728
  721MOL0     O95075   6.146  -0.035   9.950  0.8307  0.4311 -0.4252
  721MOL0     C95076   6.007  -0.077   9.929 -0.5457 -0.2018  0.1151
  721MOL0     C95077   5.923   0.028   9.997  0.7904  1.0934  0.5573
  721MOL0     C95078   5.772   0.023   9.949 -0.7728  0.1203 -0.6509
  721MOL0     C95079   5.701  -0.093  10.016 -0.3763  0.5870  0.2118
  721MOL0     C95080   5.553  -0.074  10.010 -0.9280 -1.0736 -0.0628
  721MOL0     C95081   5.477  -0.203  10.024 -1.3851 -0.3746  0.5677
  721MOL0     C95082   5.344  -0.181  10.086  0.0045  0.5870  0.9676
  721MOL0     C95083   5.271  -0.315  10.091  0.7085  0.1297  0.4509
  721MOL0    Cl95084   5.120  -0.315  10.181  0.2883  0.2549  0.2233
  721MOL0     C95085   6.242   0.168   9.899  0.1852 -0.5007 -0.1533
  721MOL0     C95086   6.320   0.255   9.815 -0.1384 -0.1456 -0.3230
  721MOL0     O95087   6.640   0.141   9.643  0.1041  0.8784 -0.4184
  721MOL0     C95088   6.789   0.270   9.468 -0.7683 -0.3500 -0.2372
  721MOL0     C95089   6.881   0.355   9.398 -0.4855  0.3408  0.9007
  721MOL0     N95090   7.514   0.396   8.996 -1.2212 -0.3130 -0.0600
  721MOL0     N95091   7.636   0.437   8.948  0.7303  0.1063 -0.5235
  721MOL0     C95092   8.469   0.489   8.239 -0.8653  1.2138  0.8556
  721MOL0     C95093   8.601   0.519   8.275 -0.5769 -0.0926  0.4859
  721MOL0     C95094   8.967   0.771   8.432 -0.8464 -0.3618  0.5282
  721MOL0     C95095   9.022   0.644   8.480  0.5634  0.4556  0.5843
  721MOL0     C95096   9.155   0.640   8.513  1.0542  0.4766  0.5354
  721MOL0     C95097   9.239   0.747   8.471 -0.5130 -0.8749 -0.1904
  721MOL0     O95098   9.375   0.723   8.485  0.7930  0.1217  0.0499
  721MOL0     C95099   9.469   0.815   8.422  0.4476  0.3120 -0.7837
  721MOL0     C95100   9.475   0.782   8.270 -0.1370 -1.2204 -0.0741
  721MOL0     C95101   9.528   0.644   8.237  0.3528  0.1565 -0.6638
  721MOL0     C95102   9.681   0.634   8.200 -0.2285  0.2662  0.3122
  721MOL0     C95103   9.774   0.681   8.297 -0.2815  0.9954  0.1820
  721MOL0     C95104   9.857   0.702   8.385 -0.0685 -0.6715 -0.6071
  721MOL0     C95105   9.186   0.863   8.408  0.2316 -0.0065 -0.4565
  721MOL0     C95106   9.049   0.874   8.391 -0.0612 -0.3693  0.4533
  721MOL0     H95107   8.558   0.797   8.448  1.1724 -0.4708  0.6112
  721MOL0     H95108   8.333   0.755   8.394  2.3358  0.4642  1.0433
  721MOL0     H95109   8.213   0.412   8.395  3.4094  0.7147 -0.3519
  721MOL0     H95110   8.104   0.402   8.253 -3.3240  3.1589 -1.4452
  721MOL0     H95111   7.997   0.612   8.321 -1.8024 -0.4396 -0.0451
  721MOL0     H95112   8.088   0.595   8.472  0.6516  0.5446 -1.0933
  721MOL0     H95113   7.950   0.366   8.483 -1.7521  1.3645  1.3805
  721MOL0     H95114   7.901   0.410   8.315 -0.9136 -1.3173  0.4761
  721MOL0     H95115   7.783   0.600   8.407  1.9714  0.4137  0.3636
  721MOL0     H95116   7.729   0.442   8.470  0.4353 -0.4664  1.6389
  721MOL0     H95117   7.924   0.640   8.612  0.3497 -0.2952 -0.7065
  721MOL0     H95118   7.870   0.482   8.673  2.1874  0.2931 -0.5656
  721MOL0     H95119   7.645   0.561   8.708 -3.3318  2.1979 -0.7943
  721MOL0     H95120   7.667   0.706   8.611 -2.7669 -0.3730  1.0975
  721MOL0     H95121   7.868   0.757   8.774 -0.3431 -0.8273 -3.6161
  721MOL0     H95122   7.709   0.804   8.816 -1.2973 -1.2828  1.0472
  721MOL0     H95123   7.781   0.707   9.019 -0.7441 -1.1414 -0.2532
  721MOL0     H95124   7.846   0.569   8.942  2.6710  2.9153  1.7971
  721MOL0     H95125   7.501   0.723   8.969 -1.4126  0.5198  3.1809
  721MOL0     H95126   7.280   0.427   9.129  0.4118 -0.0540  0.9840
  721MOL0     H95127   7.238   0.517   8.977  1.5937  2.1646 -0.7423
  721MOL0     H95128   7.309   0.731   9.105 -0.5684  0.1131 -1.2672
  721MOL0     H95129   7.334   0.634   9.252  0.6168  5.5009  0.9304
  721MOL0     H95130   7.116   0.741   9.276 -1.1335  0.4387 -0.1228
  721MOL0     H95131   7.076   0.708   9.110  0.6208  2.8282  1.5308
  721MOL0     H95132   7.102   0.504   9.334 -2.1954 -1.5691  1.8094
  721MOL0     H95133   7.036   0.459   9.177 -0.6584 -1.7881  3.6813
  721MOL0     H95134   6.691   0.630   9.371 -1.9424 -0.8270 -1.0480
  721MOL0     H95135   6.536   0.487   9.491  0.2865  0.5438 -1.3789
  721MOL0     H95136   6.404   0.013   9.594 -1.0606 -2.9315  0.0647
  721MOL0     H95137   6.242  -0.125   9.746  1.2089 -0.0613  3.3595
  721MOL0     H95138   5.980  -0.165   9.988 -1.7763  0.7510  1.0227
  721MOL0     H95139   5.981  -0.091   9.824  0.9011 -2.0189 -0.0593
  721MOL0     H95140   5.966   0.122   9.961  0.3676  1.5694  1.2884
  721MOL0     H95141   5.933   0.014  10.105 -0.1370 -1.0707  0.4147
  721MOL0     H95142   5.765   0.009   9.841  1.5741 -0.9913 -0.7127
  721MOL0     H95143   5.730   0.119   9.982  1.8208  0.6702  1.3435
  721MOL0     H95144   5.736  -0.193   9.986 -1.2043  0.6081 -0.8724
  721MOL0     H95145   5.711  -0.094  10.125 -3.2591  2.6211  0.5978
  721MOL0     H95146   5.520  -0.030   9.916 -0.7940 -1.6579 -0.3920
  721MOL0     H95147   5.524   0.001  10.084 -1.6694  0.6341 -2.0195
  721MOL0     H95148   5.523  -0.248  10.113 -2.1710 -1.6502  0.3521
  721MOL0     H95149   5.485  -0.272   9.939  1.7091  2.5323 -1.7585
  721MOL0     H95150   5.351  -0.140  10.187  1.4975 -0.1452  1.1799
  721MOL0     H95151   5.278  -0.120  10.023  0.1816 -0.7289 -0.5698
  721MOL0     H95152   5.332  -0.396  10.131  0.2413  0.8106  2.6903
  721MOL0     H95153   5.246  -0.346   9.989  0.8080  0.2257  0.3974
  721MOL0     H95154   6.199   0.204   9.992 -3.5848  1.9200 -2.5201
  721MOL0     H95155   6.340   0.358   9.844 -4.2173  0.1676  2.1292
  721MOL0     H95156   6.827   0.169   9.479 -0.8923 -0.7885 -2.9948
  721MOL0     H95157   6.980   0.315   9.378  0.1950  1.5950  1.6352
  721MOL0     H95158   8.444   0.401   8.180  0.5313  1.8481 -0.7496
  721MOL0     H95159   8.668   0.438   8.248 -2.7111 -1.5778 -0.7531
  721MOL0     H95160   8.965   0.561   8.520  1.3532  0.0809  0.9685
  721MOL0     H95161   9.203   0.554   8.560 -1.0151  0.0841  2.0560
  721MOL0     H95162   9.569   0.800   8.464  0.8348 -0.3187 -1.8742
  721MOL0     H95163   9.439   0.916   8.451 -1.9346 -0.6493  0.3367
  721MOL0     H95164   9.374   0.792   8.228 -0.0533 -0.0712 -0.0250
  721MOL0     H95165   9.524   0.863   8.215 -2.8462 -0.4435 -1.5595
  721MOL0     H95166   9.470   0.601   8.155  0.9236  2.6874 -2.5159
  721MOL0     H95167   9.506   0.572   8.317  0.8898 -1.3457 -1.8119
  721MOL0     H95168   9.700   0.529   8.175 -1.2876  0.0254  0.4673
  721MOL0     H95169   9.692   0.700   8.113 -2.0067 -2.0594 -1.8214
  721MOL0     H95170   9.915   0.710   8.474 -1.5173  1.5540  0.2332
  721MOL0     H95171   9.247   0.941   8.364  2.0728  0.5160  2.7014
  721MOL0     H95172   9.007   0.956   8.334  3.3751  2.1198  1.1536
  722MOL0     O95173   3.847   9.178   4.342  0.2499 -0.2365 -0.5297
  722MOL0     C95174   3.958   9.151   4.401  0.1409  0.2987  0.0038
  722MOL0     O95175   4.041   9.243   4.459  0.8942  0.1583 -0.4362
  722MOL0     C95176   4.007   9.375   4.467 -0.6562 -0.2023  0.1429
  722MOL0     C95177   3.962   9.434   4.588 -0.1201 -0.1192  1.1458
  722MOL0     C95178   3.959   9.571   4.591  0.2617 -0.2673  1.1674
  722MOL0     C95179   3.980   9.650   4.476  0.1532 -0.4026 -0.2543
  722MOL0     O95180   3.965   9.789   4.487  0.2519  0.5548  0.0547
  722MOL0     C95181   4.048   9.846   4.595 -0.3554 -0.6122  0.3534
  722MOL0     C95182   4.059  10.001   4.582  0.3792 -0.3637  0.1155
  722MOL0     C95183   3.932  10.064   4.624 -0.4304 -0.0487 -0.1783
  722MOL0     C95184   3.959  10.217   4.635  0.9354  0.0017 -0.1460
  722MOL0     C95185   3.831  10.285   4.649  0.5330  0.6076 -0.6176
  722MOL0     C95186   3.754  10.278   4.517 -0.3792  0.2634 -0.2348
  722MOL0     C95187   3.691  10.416   4.473  0.1100  0.8361  0.4351
  722MOL0     C95188   3.627  10.504   4.576 -0.5705  1.0017  0.1599
  722MOL0     N95189   3.492  10.457   4.617 -0.8634  0.9000 -0.5950
  722MOL0     C95190   3.453  10.335   4.682 -0.2372  0.1772 -0.3883
  722MOL0     C95191   3.318  10.344   4.704  0.4133  0.0339  0.4196
  722MOL0     C95192   3.230  10.244   4.775 -1.4652  0.2577  0.9026
  722MOL0     C95193   3.142  10.180   4.665  0.4427 -0.8724  0.5513
  722MOL0     C95194   3.087  10.040   4.693 -0.3439 -0.3257 -0.8897
  722MOL0     C95195   3.161   9.947   4.792 -0.5298  0.2697 -0.5856
  722MOL0     O95196   3.301   9.925   4.745  1.2824  0.1390 -0.5331
  722MOL0     C95197   3.377   9.829   4.805 -0.6053 -0.7884  0.6279
  722MOL0     C95198   3.339   9.752   4.921  0.3185  0.1149 -0.2045
  722MOL0     C95199   3.416   9.638   4.961  0.0623 -1.0146 -0.8939
  722MOL0     C95200   3.535   9.597   4.890  0.4135 -0.5384  1.0521
  722MOL0     C95201   3.613   9.485   4.936 -0.3943  0.2658 -0.4709
  722MOL0     O95202   3.683   9.415   4.844 -0.0859 -0.0196 -0.4834
  722MOL0     C95203   3.758   9.304   4.880 -0.0200  0.7782 -0.4436
  722MOL0     C95204   3.821   9.266   5.079 -0.8762  0.5909 -0.5200
  722MOL0     C95205   3.920   9.085   5.126  0.4298 -0.5527 -0.1325
  722MOL0     C95206   3.948   8.943   4.977 -0.4138  0.9886  0.9715
  722MOL0     O95207   4.013   8.818   4.999  0.6163 -0.5378 -0.1272
  722MOL0     C95208   4.088   8.777   4.885 -0.6907 -1.3806 -0.7254
  722MOL0     C95209   4.182   8.666   4.926 -0.3153  0.1370  0.1156
  722MOL0     C95210   4.103   8.543   4.962  0.0671  0.0741  0.9288
  722MOL0     C95211   4.194   8.413   4.995 -0.8241 -0.3696  0.2950
  722MOL0     C95212   4.276   8.448   5.124  1.2320 -1.1073 -0.3877
  722MOL0     C95213   4.344   8.318   5.187 -0.0616  0.0655 -0.0435
  722MOL0     C95214   4.413   8.225   5.088 -0.3561 -0.1020  0.1457
  722MOL0     C95215   4.448   8.092   5.156 -0.3763  0.4182 -0.6267
  722MOL0    Cl95216   4.300   7.986   5.162  0.1886 -0.5469 -0.2962
  722MOL0     C95217   3.883   8.979   4.779  0.5770 -0.4988  0.4406
  722MOL0     C95218   3.783   9.158   4.732 -0.9193  0.8692 -0.1213
  722MOL0     O95219   3.598   9.439   5.052 -0.0071 -0.4804 -0.2842
  722MOL0     C95220   3.582   9.685   4.785  0.0007  0.1454  0.0505
  722MOL0     C95221   3.496   9.789   4.740 -1.8708  0.0274  0.2245
  722MOL0     N95222   3.280  10.464   4.651  0.1841 -0.8938 -0.5049
  722MOL0     N95223   3.382  10.526   4.602  0.6689 -0.3741  0.2255
  722MOL0     C95224   4.020   9.594   4.352  0.6767 -0.2395 -0.4494
  722MOL0     C95225   4.029   9.455   4.352 -0.0278  0.3472  0.0102
  722MOL0     C95226   4.004   9.020   4.394 -0.2579  0.1874 -2.0126
  722MOL0     C95227   4.105   8.983   4.492  0.6473  0.2177  0.1011
  722MOL0     C95228   4.167   8.859   4.481 -0.0457  1.0787  0.0048
  722MOL0     C95229   4.131   8.773   4.369  0.7070 -0.1218  1.0779
  722MOL0     O95230   4.175   8.648   4.349 -0.7189  1.1200  0.0200
  722MOL0     C95231   4.214   8.560   4.464 -0.3067  0.2324  0.4415
  722MOL0     C95232   4.097   8.463   4.490 -0.5515  0.0101  0.7745
  722MOL0     C95233   3.969   8.513   4.562  0.4821 -0.9313 -0.7132
  722MOL0     C95234   3.856   8.404   4.560  0.5770  0.2990 -0.8646
  722MOL0     C95235   3.813   8.358   4.693  0.2396 -0.4235 -1.2202
  722MOL0     C95236   3.783   8.317   4.804  0.6645  0.1490 -1.1600
  722MOL0     C95237   4.042   8.811   4.274  0.0579 -0.0700 -1.1615
  722MOL0     C95238   3.977   8.933   4.292  0.8652 -0.1989  0.0423
  722MOL0     H95239   3.948   9.378   4.680 -1.3524 -0.8432  0.5433
  722MOL0     H95240   3.932   9.618   4.685 -3.8020  0.5577 -0.1958
  722MOL0     H95241   4.148   9.802   4.594  0.2009  0.5656  1.3248
  722MOL0     H95242   4.007   9.820   4.693  1.2981 -3.6711  0.3701
  722MOL0     H95243   4.081  10.022   4.477 -0.9851 -6.4006 -1.7508
  722MOL0     H95244   4.139  10.032   4.650 -0.9836  0.8064  1.2563
  722MOL0     H95245   3.906  10.025   4.723  1.4647 -1.6053 -0.2334
  722MOL0     H95246   3.850  10.039   4.555 -0.8807  0.0735  0.3012
  722MOL0     H95247   4.024  10.236   4.721  2.7079  1.8969 -1.7632
  722MOL0     H95248   4.010  10.256   4.546 -1.0867  0.4017 -1.1797
  722MOL0     H95249   3.845  10.385   4.692  1.0797 -0.9134  3.2259
  722MOL0     H95250   3.774  10.233   4.727 -1.5724  0.8791 -1.9196
  722MOL0     H95251   3.677  10.200   4.527 -1.4250  1.3898  0.9420
  722MOL0     H95252   3.822  10.249   4.438 -1.1820  0.3909 -0.9879
  722MOL0     H95253   3.770  10.471   4.422  0.3555  1.2662  1.2648
  722MOL0     H95254   3.618  10.387   4.396 -1.6391  1.9467  1.5981
  722MOL0     H95255   3.613  10.598   4.522  1.9271  1.2796 -0.1283
  722MOL0     H95256   3.692  10.526   4.662  0.3001  1.6664 -0.6423
  722MOL0     H95257   3.522  10.256   4.710  0.6082  0.5674 -1.3245
  722MOL0     H95258   3.163  10.292   4.847 -0.5484  1.9531  0.6824
  722MOL0     H95259   3.299  10.171   4.819 -1.5276 -1.4013 -1.5131
  722MOL0     H95260   3.179  10.164   4.563 -1.4631 -3.8930  0.2239
  722MOL0     H95261   3.053  10.244   4.659 -0.2535 -0.3146  7.7375
  722MOL0     H95262   2.986  10.063   4.729 -0.4979 -0.0527 -1.4823
  722MOL0     H95263   3.072   9.987   4.598 -0.9586 -0.4177 -0.7436
  722MOL0     H95264   3.119   9.846   4.791  1.7063 -0.7333 -1.5993
  722MOL0     H95265   3.168   9.994   4.891  1.1483  0.3956 -0.7313
  722MOL0     H95266   3.251   9.768   4.982  0.8845 -1.6510  1.1551
  722MOL0     H95267   3.370   9.576   5.037  1.0407 -0.1573  0.4421
  722MOL0     H95268   3.794   9.331   5.162 -0.1798 -1.6028  1.5190
  722MOL0     H95269   3.954   9.064   5.226  0.3076 -0.1787 -0.0092
  722MOL0     H95270   4.135   8.863   4.836  0.4983 -1.2517  0.5725
  722MOL0     H95271   4.013   8.727   4.823  0.4288 -3.3203 -0.5965
  722MOL0     H95272   4.252   8.690   5.007  1.3026  0.0027 -1.1913
  722MOL0     H95273   4.242   8.654   4.835  0.7936  1.3352  0.6486
  722MOL0     H95274   4.032   8.522   4.882  0.4566  1.0751  0.3081
  722MOL0     H95275   4.050   8.571   5.054  0.2664  0.7917  0.8291
  722MOL0     H95276   4.125   8.331   5.018  0.2732 -2.0761 -2.0767
  722MOL0     H95277   4.256   8.390   4.908 -0.3393  0.5381  0.4003
  722MOL0     H95278   4.226   8.517   5.192 -1.7374 -1.3621 -2.1280
  722MOL0     H95279   4.362   8.504   5.086 -0.3804  1.7930 -0.0217
  722MOL0     H95280   4.258   8.266   5.230 -0.6570  1.1612  0.1303
  722MOL0     H95281   4.406   8.354   5.269 -0.3944  0.7940 -0.1067
  722MOL0     H95282   4.342   8.209   5.006 -0.5863 -0.1337  0.3494
  722MOL0     H95283   4.499   8.281   5.050 -1.9392  2.4620  0.1118
  722MOL0     H95284   4.489   8.116   5.255  2.7330 -0.4705 -1.5944
  722MOL0     H95285   4.526   8.039   5.101  0.0300  0.1500  0.1902
  722MOL0     H95286   3.905   8.900   4.708  1.0216 -0.7679  0.8693
  722MOL0     H95287   3.750   9.163   4.628 -0.6974 -2.6285 -0.4911
  722MOL0     H95288   3.682   9.684   4.742 -0.3424 -2.5103 -0.8993
  722MOL0     H95289   3.527   9.841   4.650  0.0536  0.0480  0.8345
  722MOL0     H95290   4.051   9.652   4.266 -3.2911  2.1716 -0.5193
  722MOL0     H95291   4.067   9.407   4.262  3.1657  0.4541  1.1701
  722MOL0     H95292   4.157   9.043   4.566 -0.0088 -0.0351  0.7791
  722MOL0     H95293   4.247   8.830   4.549  0.1615  1.1153 -0.2231
  722MOL0     H95294   4.235   8.618   4.554 -0.0731 -0.6076  0.9428
  722MOL0     H95295   4.302   8.498   4.441 -1.6406 -1.4502 -0.3610
  722MOL0     H95296   4.075   8.417   4.393  2.1748 -0.6445  0.3878
  722MOL0     H95297   4.146   8.393   4.559  1.8075  2.4120  1.6645
  722MOL0     H95298   3.941   8.594   4.495  0.0498 -2.6168 -2.6734
  722MOL0     H95299   3.992   8.554   4.660  0.6938  1.4220 -1.6908
  722MOL0     H95300   3.772   8.458   4.517 -1.0681  0.4742  2.2755
  722MOL0     H95301   3.881   8.315   4.500 -3.3300 -3.3708  2.3249
  722MOL0     H95302   3.753   8.293   4.904  0.7559  0.7485 -0.9853
  722MOL0     H95303   4.030   8.751   4.184  0.8139  2.1291 -2.8403
  722MOL0     H95304   3.911   8.959   4.210 -1.0622 -1.4857  1.0877
  723MOL0     O95305   5.349  10.965   6.115 -0.2362 -0.5334 -0.0491
  723MOL0     C95306   5.369  11.040   6.017  0.6797 -0.4970  0.5773
  723MOL0     O95307   5.281  11.134   5.964  0.2096 -0.1073 -0.0700
  723MOL0     C95308   5.155  11.146   6.024  0.2929  0.5949 -0.8996
  723MOL0     C95309   5.040  11.119   5.954  0.2472  1.3188 -0.1894
  723MOL0     C95310   4.915  11.137   6.003  1.0923 -0.0691 -0.3704
  723MOL0     C95311   4.901  11.173   6.139 -0.0781 -0.9500 -0.5865
  723MOL0     O95312   4.780  11.194   6.205  0.4014  0.9876  0.6212
  723MOL0     C95313   4.662  11.135   6.147 -0.3501 -0.1079  0.3438
  723MOL0     C95314   4.541  11.157   6.228 -0.3049 -0.1440  0.0526
  723MOL0     C95315   4.516  11.064   6.352  0.9475  0.5181 -0.3432
  723MOL0     C95316   4.498  10.917   6.301  0.7217  0.6760  0.7296
  723MOL0     C95317   4.426  10.819   6.395  0.7968 -0.1936  0.0925
  723MOL0     C95318   4.278  10.849   6.427 -1.2419 -0.1595  0.8143
  723MOL0     C95319   4.235  10.726   6.515  0.0352  0.1245  1.0894
  723MOL0     C95320   4.197  10.603   6.429  0.1119  1.3442  0.5072
  723MOL0     N95321   4.047  10.591   6.428  0.0846  0.6180 -0.5770
  723MOL0     C95322   3.955  10.680   6.384 -0.3104  0.5004 -0.1613
  723MOL0     C95323   3.834  10.631   6.388  0.2122 -0.0442 -0.2575
  723MOL0     C95324   3.705  10.687   6.337  0.7366  0.3835 -0.1076
  723MOL0     C95325   3.670  10.816   6.401  1.5077  0.0854 -0.1819
  723MOL0     C95326   3.567  10.891   6.312 -1.0545 -0.7684 -1.5737
  723MOL0     C95327   3.430  10.905   6.384  0.1825  0.1066  0.3362
  723MOL0     O95328   3.433  11.012   6.471  0.1240  0.8242 -0.0961
  723MOL0     C95329   3.324  11.069   6.531 -0.6311  0.3215  0.2193
  723MOL0     C95330   3.350  11.166   6.625  0.0322 -0.0861 -0.0816
  723MOL0     C95331   3.253  11.243   6.686  0.3123 -0.4928 -0.4938
  723MOL0     C95332   3.115  11.229   6.655 -1.0819  0.9819  0.5488
  723MOL0     C95333   3.016  11.308   6.728  0.9554  0.1944  0.3068
  723MOL0     O95334   2.887  11.259   6.712  0.0276 -0.6760  0.6305
  723MOL0     C95335   2.772  11.309   6.767 -0.2136 -1.2867 -0.0734
  723MOL0     C95336   2.745  11.315   6.904  0.0506  0.5012  0.2449
  723MOL0     C95337   2.621  11.352   6.954  0.5242 -0.8999  0.7337
  723MOL0     C95338   2.521  11.392   6.862  1.0433  0.1679 -0.9524
  723MOL0     O95339   2.397  11.423   6.906 -0.2530  0.3531 -0.6350
  723MOL0     C95340   2.386  11.546   6.985 -0.0410  0.0098  0.7203
  723MOL0     C95341   2.391  11.680   6.903  0.1711  0.3772 -0.1553
  723MOL0     C95342   2.337  11.798   6.987 -0.3677 -1.0295 -0.1849
  723MOL0     C95343   2.312  11.918   6.896  1.1654  0.3180 -0.5403
  723MOL0     C95344   2.270  12.044   6.982  0.1652  0.3747  1.0410
  723MOL0     C95345   2.290  12.166   6.890 -0.5460  0.2771 -0.1871
  723MOL0     C95346   2.245  12.295   6.950 -0.1139  0.1209  0.0106
  723MOL0     C95347   2.246  12.404   6.833 -0.1481 -0.0153  0.3610
  723MOL0    Cl95348   2.149  12.543   6.894 -0.3104 -0.0444  0.1073
  723MOL0     C95349   2.545  11.386   6.722  0.0841  0.0693  0.6149
  723MOL0     C95350   2.667  11.345   6.673 -0.1018  0.3507 -0.1345
  723MOL0     O95351   3.044  11.388   6.808 -0.4808  0.0323 -0.7674
  723MOL0     C95352   3.089  11.130   6.552  0.0103  0.4197 -0.3427
  723MOL0     C95353   3.192  11.042   6.499  0.6202  0.1954  0.2512
  723MOL0     N95354   3.852  10.502   6.454  0.1341 -0.3253  0.3682
  723MOL0     N95355   3.974  10.481   6.457 -0.1429 -0.5179 -0.4326
  723MOL0     C95356   5.012  11.193   6.216  0.1298 -0.6847 -1.0496
  723MOL0     C95357   5.141  11.171   6.164  0.3327 -0.2555 -0.1637
  723MOL0     C95358   5.509  11.046   5.962  0.8425 -0.7664 -0.1541
  723MOL0     C95359   5.543  11.151   5.873 -0.1182  0.6715 -0.3842
  723MOL0     C95360   5.678  11.147   5.817 -0.1652  0.7952 -0.1053
  723MOL0     C95361   5.775  11.062   5.875 -0.5676  0.9907  1.1404
  723MOL0     O95362   5.893  11.052   5.820 -0.5951  0.2472 -0.1948
  723MOL0     C95363   6.005  11.016   5.906 -0.6044 -0.1751  0.2585
  723MOL0     C95364   6.135  11.076   5.857  0.6127  0.4115 -0.1203
  723MOL0     C95365   6.260  11.042   5.935 -0.6243  0.4498 -0.0083
  723MOL0     C95366   6.258  11.122   6.068  0.7614 -0.7026  0.2654
  723MOL0     C95367   6.394  11.130   6.120 -0.6871 -0.0051 -0.4236
  723MOL0     C95368   6.511  11.154   6.147  0.0717 -0.3483 -0.0834
  723MOL0     C95369   5.726  10.960   5.964  0.0343 -0.2818  0.0612
  723MOL0     C95370   5.595  10.949   6.013 -1.3838  1.0024 -0.3368
  723MOL0     H95371   5.047  11.093   5.848  0.9098  0.9813 -0.0710
  723MOL0     H95372   4.829  11.111   5.944  0.6667 -1.7351  0.8987
  723MOL0     H95373   4.661  11.026   6.131 -0.6537 -0.1062  0.3495
  723MOL0     H95374   4.640  11.183   6.051  1.5407 -1.8167 -1.0478
  723MOL0     H95375   4.453  11.141   6.165 -2.0962  1.1141  2.0917
  723MOL0     H95376   4.523  11.262   6.252 -0.3824 -0.1583  0.0582
  723MOL0     H95377   4.430  11.100   6.410  1.3370 -0.3402  0.8214
  723MOL0     H95378   4.595  11.062   6.428 -2.1016  1.3054  3.1641
  723MOL0     H95379   4.444  10.921   6.206  1.1871  2.1401  0.5183
  723MOL0     H95380   4.598  10.873   6.291  1.5121  2.2048  1.5540
  723MOL0     H95381   4.481  10.825   6.489 -0.4355  3.2439  0.7344
  723MOL0     H95382   4.434  10.721   6.348  0.6446  0.3416 -1.0721
  723MOL0     H95383   4.216  10.862   6.338 -0.2201 -1.3808 -0.1014
  723MOL0     H95384   4.268  10.942   6.484 -0.5490  0.0418  0.6157
  723MOL0     H95385   4.318  10.702   6.582  1.1033 -1.9869 -0.8227
  723MOL0     H95386   4.142  10.756   6.564 -0.4337 -2.1575  1.7184
  723MOL0     H95387   4.247  10.518   6.477  0.5899  1.1706 -0.2859
  723MOL0     H95388   4.238  10.614   6.328  1.5167  0.7209  0.9800
  723MOL0     H95389   3.986  10.771   6.333  0.7254 -0.3284 -1.0589
  723MOL0     H95390   3.623  10.616   6.346  0.4120  0.7853  0.1703
  723MOL0     H95391   3.719  10.704   6.229 -1.3030 -2.0763 -0.8490
  723MOL0     H95392   3.761  10.875   6.409  2.1356 -0.7530 -0.9859
  723MOL0     H95393   3.627  10.799   6.500  1.4715  0.7992 -0.0670
  723MOL0     H95394   3.602  10.990   6.283  2.2697 -1.8673 -1.7075
  723MOL0     H95395   3.566  10.834   6.219  1.5945 -4.4053  0.3840
  723MOL0     H95396   3.399  10.814   6.436  1.0725 -0.4419 -0.0786
  723MOL0     H95397   3.365  10.922   6.298  3.4579 -0.0928 -2.3472
  723MOL0     H95398   3.457  11.171   6.647  0.2708 -1.1041 -0.9144
  723MOL0     H95399   3.287  11.312   6.762 -0.5606 -1.6712  1.0200
  723MOL0     H95400   2.824  11.284   6.972  1.9674 -0.3471 -2.1806
  723MOL0     H95401   2.606  11.337   7.060  2.2377 -4.5164  0.6304
  723MOL0     H95402   2.456  11.568   7.066  0.3369  2.1722 -0.1388
  723MOL0     H95403   2.285  11.535   7.023 -1.3870 -1.9794 -2.9298
  723MOL0     H95404   2.339  11.667   6.808  1.0014 -1.6789 -0.3657
  723MOL0     H95405   2.498  11.695   6.887  0.4172 -0.2990  0.7909
  723MOL0     H95406   2.420  11.830   7.052  0.8421 -1.0482 -1.6790
  723MOL0     H95407   2.247  11.775   7.045  0.7214 -0.1591  2.0026
  723MOL0     H95408   2.402  11.944   6.839  0.5225  1.9880 -0.8574
  723MOL0     H95409   2.243  11.898   6.814  1.5325 -0.7016 -0.6167
  723MOL0     H95410   2.343  12.055   7.063  1.6835  0.3218 -0.2764
  723MOL0     H95411   2.174  12.030   7.032  0.8245 -0.1220  2.2106
  723MOL0     H95412   2.234  12.146   6.799 -1.0031 -0.3820  0.2292
  723MOL0     H95413   2.396  12.178   6.866 -0.2082 -1.3130  0.3967
  723MOL0     H95414   2.148  12.287   7.000  0.7155  2.8242  2.2885
  723MOL0     H95415   2.322  12.331   7.019  0.7244  1.1381 -1.4199
  723MOL0     H95416   2.195  12.361   6.746  2.5608 -2.2796 -0.2713
  723MOL0     H95417   2.352  12.425   6.822 -0.1894 -1.1106 -3.5261
  723MOL0     H95418   2.472  11.416   6.647  1.6677  4.0151  0.4303
  723MOL0     H95419   2.699  11.346   6.570  2.1315  1.9247  0.4899
  723MOL0     H95420   2.992  11.113   6.507 -0.5605  3.9715 -0.7577
  723MOL0     H95421   3.146  10.965   6.438  0.4645 -0.7389  1.4965
  723MOL0     H95422   5.003  11.227   6.319 -0.6983 -3.3866 -0.1633
  723MOL0     H95423   5.230  11.189   6.224  1.8101  0.3094 -2.3686
  723MOL0     H95424   5.467  11.212   5.824 -0.1236  1.4273  0.5267
  723MOL0     H95425   5.706  11.217   5.740 -0.7293 -1.6199 -2.6562
  723MOL0     H95426   6.027  10.909   5.899 -3.5699 -1.0295  1.9793
  723MOL0     H95427   5.984  11.050   6.007  0.0176  0.3651  0.2068
  723MOL0     H95428   6.153  11.028   5.760  0.7983  2.1599 -1.0072
  723MOL0     H95429   6.117  11.183   5.837 -1.2203  0.2119  0.3700
  723MOL0     H95430   6.347  11.080   5.881  0.5054  1.1838  2.1829
  723MOL0     H95431   6.265  10.933   5.949 -1.0042  0.2548 -1.2918
  723MOL0     H95432   6.213  11.222   6.067  4.0556  0.9177  1.1487
  723MOL0     H95433   6.198  11.054   6.130 -3.2252  1.9557 -0.3035
  723MOL0     H95434   6.617  11.167   6.160  0.4112 -1.1176 -1.7874
  723MOL0     H95435   5.794  10.904   6.028  0.1957 -0.5953 -0.3788
  723MOL0     H95436   5.575  10.878   6.094  2.0764  0.9987  0.7026
  724MOL0     O95437   8.349   3.013   5.931 -0.1852 -0.4697  0.2977
  724MOL0     C95438   8.399   3.108   5.869 -1.0413  0.1053  0.1942
  724MOL0     O95439   8.353   3.239   5.876  0.1807 -0.1935  1.5112
  724MOL0     C95440   8.222   3.279   5.893  0.1300  1.2645 -0.0134
  724MOL0     C95441   8.117   3.188   5.883  0.5879 -0.0306  0.2524
  724MOL0     C95442   7.986   3.227   5.888 -0.0230  0.0286  0.7703
  724MOL0     C95443   7.956   3.364   5.908 -0.7901  0.8042 -0.0106
  724MOL0     O95444   7.829   3.403   5.937  0.0647  0.7687 -0.0643
  724MOL0     C95445   7.800   3.409   6.076 -0.4902  0.1167 -0.1510
  724MOL0     C95446   7.651   3.377   6.093 -0.5711  0.2642 -0.0927
  724MOL0     C95447   7.550   3.492   6.062 -0.1465  0.2363 -0.5277
  724MOL0     C95448   7.411   3.450   6.105 -0.5396 -0.2218  0.1062
  724MOL0     C95449   7.320   3.566   6.050  0.6184  0.1019  0.2652
  724MOL0     C95450   7.180   3.529   6.086 -0.5698  0.1996 -0.1420
  724MOL0     C95451   7.077   3.597   5.997  0.7624  0.9087 -0.1181
  724MOL0     C95452   7.066   3.750   6.022  0.5524  0.7731  0.1026
  724MOL0     N95453   6.946   3.814   5.966  0.1085 -0.1187  0.2542
  724MOL0     C95454   6.823   3.829   6.024  0.8256 -0.4145 -0.6592
  724MOL0     C95455   6.742   3.904   5.941  0.3471 -0.7927  0.7904
  724MOL0     C95456   6.593   3.917   5.965 -0.3770 -0.3432 -0.5229
  724MOL0     C95457   6.542   4.058   5.929  0.3841  0.4338  0.6229
  724MOL0     C95458   6.392   4.065   5.944  0.0556  0.1183 -0.2303
  724MOL0     C95459   6.343   4.197   5.887 -0.3495  0.0082  0.3113
  724MOL0     O95460   6.200   4.209   5.902  0.1865 -1.7855 -0.2626
  724MOL0     C95461   6.131   4.184   5.796 -0.0035  0.6424  0.3639
  724MOL0     C95462   6.011   4.250   5.793  0.3969 -1.0088  0.2756
  724MOL0     C95463   5.930   4.250   5.673 -1.0806 -0.1018 -0.6528
  724MOL0     C95464   5.975   4.169   5.565 -0.0617 -0.6722 -0.1783
  724MOL0     C95465   5.886   4.151   5.448  0.6761  0.2454  0.1469
  724MOL0     O95466   5.933   4.099   5.330  0.1694 -0.5027  0.0870
  724MOL0     C95467   5.847   4.065   5.226  0.1731 -0.0965 -0.3484
  724MOL0     C95468   5.851   4.138   5.111  1.6786 -0.3667 -0.2819
  724MOL0     C95469   5.751   4.131   5.012 -0.0816  0.4869  0.7234
  724MOL0     C95470   5.664   4.023   5.025  0.6485  0.9646 -0.3772
  724MOL0     O95471   5.587   3.991   4.921 -0.0916 -0.2005 -0.1032
  724MOL0     C95472   5.664   3.953   4.800 -0.0575 -0.7324 -0.0657
  724MOL0     C95473   5.572   3.904   4.691 -0.1376  0.4011  0.3678
  724MOL0     C95474   5.467   4.006   4.641  0.7939 -0.6817 -0.0592
  724MOL0     C95475   5.370   3.970   4.529  0.8233 -0.1500 -0.1431
  724MOL0     C95476   5.276   4.094   4.505 -0.3229 -1.0450 -0.0905
  724MOL0     C95477   5.176   4.083   4.390 -0.4051 -1.1471 -0.0763
  724MOL0     C95478   5.115   4.219   4.347  0.3358  0.4507 -0.1085
  724MOL0     C95479   4.994   4.212   4.261 -0.6390 -0.1810 -0.3788
  724MOL0    Cl95480   4.867   4.108   4.323 -0.1134  0.1913  0.0834
  724MOL0     C95481   5.659   3.945   5.139 -0.1482  0.1840 -0.5199
  724MOL0     C95482   5.751   3.961   5.242  0.0743 -0.0061 -0.1586
  724MOL0     O95483   5.767   4.175   5.477 -0.5755 -0.2712  0.3735
  724MOL0     C95484   6.090   4.089   5.574  0.3524 -0.1329 -0.2358
  724MOL0     C95485   6.162   4.094   5.685 -0.2830  0.0759  0.3533
  724MOL0     N95486   6.824   3.945   5.835  0.8216 -0.1750  0.4745
  724MOL0     N95487   6.936   3.896   5.856 -0.7168  0.0505  1.4056
  724MOL0     C95488   8.065   3.452   5.922  0.8427 -0.9746  0.2187
  724MOL0     C95489   8.193   3.408   5.916  0.7451 -0.1027  0.1179
  724MOL0     C95490   8.523   3.089   5.785  0.1219  0.4251  0.5151
  724MOL0     C95491   8.571   2.968   5.751 -0.6759 -0.0053 -0.1392
  724MOL0     C95492   8.673   2.944   5.660  1.6192  0.0522  1.0096
  724MOL0     C95493   8.721   3.047   5.585  0.1843  0.9663  1.6610
  724MOL0     O95494   8.823   3.011   5.496 -0.0133 -0.6245 -0.2431
  724MOL0     C95495   8.895   3.105   5.413  0.8844  0.8237 -0.5242
  724MOL0     C95496   8.918   3.037   5.279  0.1427  0.5116  0.5713
  724MOL0     C95497   8.969   3.126   5.166  0.5876 -0.5074 -0.7646
  724MOL0     C95498   8.886   3.126   5.037 -0.4653  0.4116  0.2091
  724MOL0     C95499   8.748   3.161   5.058  0.1207  0.4866  0.1992
  724MOL0     C95500   8.639   3.202   5.090  0.1953 -0.0554 -0.0185
  724MOL0     C95501   8.665   3.176   5.611  0.2952  0.8190  1.0689
  724MOL0     C95502   8.568   3.195   5.709 -0.7516  0.5525 -0.3860
  724MOL0     H95503   8.146   3.087   5.854 -1.0388  0.0196 -1.7556
  724MOL0     H95504   7.907   3.153   5.890 -0.8251  0.5925 -2.7599
  724MOL0     H95505   7.830   3.505   6.119  4.1428 -2.6033  3.6470
  724MOL0     H95506   7.853   3.331   6.130 -0.3197  0.1945 -0.2051
  724MOL0     H95507   7.638   3.355   6.200  0.3278 -0.6326 -0.1561
  724MOL0     H95508   7.624   3.291   6.031 -1.8885  1.4958 -1.3045
  724MOL0     H95509   7.550   3.511   5.954 -1.7124  0.8396 -0.4470
  724MOL0     H95510   7.579   3.585   6.109 -0.1094 -0.7835  1.5607
  724MOL0     H95511   7.394   3.349   6.068  3.0381 -0.0131 -2.5512
  724MOL0     H95512   7.406   3.457   6.214 -4.9650  0.8521  0.0209
  724MOL0     H95513   7.331   3.575   5.941  1.3736  0.4312  0.3645
  724MOL0     H95514   7.344   3.665   6.091  0.8097  0.5409 -0.8621
  724MOL0     H95515   7.152   3.561   6.187 -2.1012  1.3017 -0.8735
  724MOL0     H95516   7.176   3.421   6.069 -1.0686  0.1851  0.0446
  724MOL0     H95517   7.090   3.575   5.891  1.6210 -0.8172  0.3058
  724MOL0     H95518   6.979   3.554   6.019  1.1050 -0.5231 -1.2306
  724MOL0     H95519   7.158   3.797   5.985 -0.0987  0.2158 -2.4382
  724MOL0     H95520   7.071   3.757   6.131  1.1506 -0.2631  0.1574
  724MOL0     H95521   6.806   3.787   6.123  1.5690  0.6389 -0.0611
  724MOL0     H95522   6.580   3.903   6.072  1.6797  5.8734  0.9934
  724MOL0     H95523   6.546   3.837   5.908 -2.1891 -0.8391  1.5570
  724MOL0     H95524   6.568   4.077   5.825  0.7875  1.0086  0.8191
  724MOL0     H95525   6.589   4.134   5.993  0.8573  1.9350 -1.4122
  724MOL0     H95526   6.351   3.977   5.894 -0.7317  0.8021 -0.8141
  724MOL0     H95527   6.353   4.065   6.046 -1.4975  3.2089 -0.7042
  724MOL0     H95528   6.377   4.216   5.784  0.3190 -1.3895  0.2550
  724MOL0     H95529   6.397   4.274   5.943 -1.0819 -0.5216  1.7997
  724MOL0     H95530   5.977   4.309   5.877 -1.2569 -1.5465  0.0169
  724MOL0     H95531   5.845   4.318   5.665 -0.5809  0.5685 -0.2875
  724MOL0     H95532   5.930   4.213   5.114 -1.2613  2.9752  0.3257
  724MOL0     H95533   5.740   4.196   4.926  0.4756 -1.6964 -1.1201
  724MOL0     H95534   5.737   3.877   4.829  0.4413 -0.1101  0.3182
  724MOL0     H95535   5.715   4.037   4.753 -1.0037  0.8814  1.6578
  724MOL0     H95536   5.522   3.818   4.737  0.0905 -1.1319 -2.0500
  724MOL0     H95537   5.633   3.870   4.607 -1.1738 -0.9836  0.1414
  724MOL0     H95538   5.522   4.093   4.606 -0.5525 -0.2069 -1.0909
  724MOL0     H95539   5.414   4.035   4.732  1.0960 -0.8966  0.1873
  724MOL0     H95540   5.431   3.935   4.445  1.5254 -2.2649  1.1562
  724MOL0     H95541   5.301   3.890   4.554  0.3548 -0.2531 -1.6748
  724MOL0     H95542   5.323   4.193   4.500  0.0426 -1.2731 -3.2919
  724MOL0     H95543   5.218   4.100   4.597  1.2140  1.5919  0.8125
  724MOL0     H95544   5.104   4.007   4.421  1.6564 -3.1207  0.2271
  724MOL0     H95545   5.243   4.048   4.310  2.2667  3.5922 -0.2820
  724MOL0     H95546   5.068   4.239   4.444 -2.2606 -0.6565 -1.0692
  724MOL0     H95547   5.187   4.292   4.309  0.2034  0.1954 -0.8694
  724MOL0     H95548   5.021   4.196   4.156  1.3084 -2.1521  0.3358
  724MOL0     H95549   4.946   4.310   4.259 -0.9128 -0.2219  1.8666
  724MOL0     H95550   5.595   3.860   5.159 -0.1159  0.5301  1.2392
  724MOL0     H95551   5.740   3.901   5.332 -2.4297  0.6743  0.0763
  724MOL0     H95552   6.118   4.024   5.492  0.8300  1.5663 -1.4815
  724MOL0     H95553   6.252   4.033   5.689 -0.8284 -0.6822  1.6696
  724MOL0     H95554   8.041   3.555   5.945  0.6473 -0.6952 -1.1482
  724MOL0     H95555   8.268   3.486   5.926  0.0902  0.5008  0.4003
  724MOL0     H95556   8.523   2.881   5.795  3.2672 -2.4490 -0.1889
  724MOL0     H95557   8.703   2.840   5.653 -0.3137 -0.5273  0.9377
  724MOL0     H95558   8.991   3.119   5.463  0.2638  3.6578  0.0113
  724MOL0     H95559   8.854   3.206   5.400  0.4472  0.6284 -0.6960
  724MOL0     H95560   8.993   2.961   5.303 -2.5828 -2.4246  0.5569
  724MOL0     H95561   8.830   2.981   5.244  1.7525 -1.4331 -0.6288
  724MOL0     H95562   9.074   3.101   5.149  1.1480  1.1472 -0.0139
  724MOL0     H95563   8.965   3.230   5.201  0.7176 -0.2764 -1.4260
  724MOL0     H95564   8.934   3.193   4.965  2.6739 -1.0058  0.8021
  724MOL0     H95565   8.904   3.028   4.992 -0.1965  0.8380 -0.6378
  724MOL0     H95566   8.550   3.249   5.126 -0.1796  0.8600 -2.0305
  724MOL0     H95567   8.693   3.269   5.562  0.0788 -0.5364 -1.8303
  724MOL0     H95568   8.528   3.294   5.725 -5.7527 -1.1822 -0.4120
  725MOL0     O95569   1.843   0.094  10.125 -0.2937  0.5536 -0.6226
  725MOL0     C95570   1.724   0.072  10.142 -0.5450 -0.4815  0.3284
  725MOL0     O95571   1.639   0.036  10.049 -0.5297  0.5755 -0.3073
  725MOL0     C95572   1.682  -0.015   9.930  0.2556  0.1186 -0.3961
  725MOL0     C95573   1.640  -0.138   9.894 -0.9934 -0.3277 -0.7787
  725MOL0     C95574   1.692  -0.193   9.775  0.2589 -0.5452  0.1374
  725MOL0     C95575   1.786  -0.127   9.698 -0.4103 -0.2450 -0.0545
  725MOL0     O95576   1.828  -0.183   9.584 -0.5381 -0.4186 -0.4841
  725MOL0     C95577   1.974  -0.175   9.552 -0.2075 -0.2961 -0.1885
  725MOL0     C95578   2.011  -0.280   9.459 -0.4473  0.4746 -0.4773
  725MOL0     C95579   1.969  -0.264   9.316  0.2482 -0.2138 -0.7589
  725MOL0     C95580   2.028  -0.357   9.213 -0.4912 -0.0995 -1.1039
  725MOL0     C95581   1.974  -0.324   9.074  0.3880  0.0518  1.0251
  725MOL0     C95582   1.978  -0.448   8.986 -1.1267 -0.7410  0.0936
  725MOL0     C95583   1.870  -0.548   9.019 -0.5772  0.3194  0.6887
  725MOL0     C95584   1.888  -0.681   8.947 -0.0305 -0.8326  0.5568
  725MOL0     N95585   1.889  -0.658   8.798  0.3372 -0.0024  0.1204
  725MOL0     C95586   2.001  -0.637   8.723  0.4929 -0.5684  0.2989
  725MOL0     C95587   1.952  -0.624   8.593  0.5111 -0.7374 -0.1222
  725MOL0     C95588   2.022  -0.593   8.461 -0.8834 -0.0904  0.1131
  725MOL0     C95589   2.124  -0.700   8.432  0.9025 -0.6130  0.0916
  725MOL0     C95590   2.040  -0.812   8.377 -0.7840  0.7487 -0.2824
  725MOL0     C95591   2.121  -0.949   8.341  0.7097  0.2351 -0.7974
  725MOL0     O95592   2.037  -1.061   8.350 -0.5301  0.3276 -0.2019
  725MOL0     C95593   1.957  -1.096   8.243  0.3532  0.1653 -0.4048
  725MOL0     C95594   1.892  -1.221   8.262 -0.2078  0.2624  0.0045
  725MOL0     C95595   1.798  -1.264   8.170 -0.1312  0.2888 -1.7444
  725MOL0     C95596   1.769  -1.189   8.055  0.5270 -0.2617 -0.4559
  725MOL0     C95597   1.663  -1.236   7.958 -0.4724 -0.5736  0.3062
  725MOL0     O95598   1.654  -1.165   7.839  0.3780 -0.7021 -0.4180
  725MOL0     C95599   1.537  -1.171   7.773 -0.7094  0.1285  0.9282
  725MOL0     C95600   1.549  -1.153   7.629  0.7090  0.8138 -0.6152
  725MOL0     C95601   1.440  -1.125   7.545  0.2271 -0.5759  0.0889
  725MOL0     C95602   1.318  -1.105   7.610 -0.2575 -0.7677  0.6324
  725MOL0     O95603   1.221  -1.062   7.529  0.1319  0.4631 -0.3429
  725MOL0     C95604   1.101  -1.146   7.540 -0.8756  0.7829 -0.9460
  725MOL0     C95605   1.019  -1.156   7.412  0.7165 -0.4253  0.3751
  725MOL0     C95606   0.986  -1.016   7.363  0.1698 -0.1282 -0.1263
  725MOL0     C95607   0.914  -1.019   7.233  0.1438  0.5894  0.7759
  725MOL0     C95608   0.760  -1.005   7.258  0.2887 -0.0279 -0.8774
  725MOL0     C95609   0.681  -1.021   7.121  0.4476 -1.4153 -0.0957
  725MOL0     C95610   0.538  -1.059   7.147  0.6458  0.7910 -1.0372
  725MOL0     C95611   0.434  -1.003   7.048 -1.1291  0.4194 -0.2137
  725MOL0    Cl95612   0.436  -1.106   6.891 -0.2134  0.3413 -0.0874
  725MOL0     C95613   1.300  -1.133   7.744 -0.3406 -0.0955 -0.1453
  725MOL0     C95614   1.411  -1.162   7.826  0.9055 -0.6611  0.6361
  725MOL0     O95615   1.600  -1.338   7.992  0.0049 -0.7165  0.1779
  725MOL0     C95616   1.841  -1.063   8.035  1.3671 -0.1233 -0.3175
  725MOL0     C95617   1.929  -1.014   8.133 -0.1388  0.2347  0.5953
  725MOL0     N95618   1.807  -0.629   8.602 -0.8668 -0.0776  0.0770
  725MOL0     N95619   1.775  -0.651   8.720 -0.6028 -0.0136 -0.4770
  725MOL0     C95620   1.821   0.008   9.739 -0.5872 -0.0053  0.1466
  725MOL0     C95621   1.769   0.067   9.855  0.1573  0.3115  0.4849
  725MOL0     C95622   1.668   0.090  10.279 -0.1426  0.9911  0.0162
  725MOL0     C95623   1.752   0.122  10.395 -0.0993 -0.0437  0.3053
  725MOL0     C95624   1.697   0.116  10.522 -1.0333 -0.0360 -0.2756
  725MOL0     C95625   1.570   0.075  10.548  0.2920 -0.4694  0.4228
  725MOL0     O95626   1.523   0.042  10.676 -0.0430 -0.3952  0.1363
  725MOL0     C95627   1.621  -0.022  10.766  0.2754 -0.3784 -0.4755
  725MOL0     C95628   1.625  -0.175  10.738  0.5090  0.5964  0.1545
  725MOL0     C95629   1.729  -0.242  10.829 -0.7646  0.6360  0.1058
  725MOL0     C95630   1.696  -0.404  10.825  0.5848  0.3151  0.1879
  725MOL0     C95631   1.573  -0.426  10.902 -0.0021 -0.4137  0.5897
  725MOL0     C95632   1.485  -0.446  10.983 -0.3664 -0.5568  0.1363
  725MOL0     C95633   1.492   0.043  10.442  1.2378  0.7052  0.4515
  725MOL0     C95634   1.537   0.050  10.305  0.3673 -0.4219  0.1503
  725MOL0     H95635   1.563  -0.195   9.945 -2.0298 -0.9583 -2.9334
  725MOL0     H95636   1.668  -0.295   9.747  0.0191 -1.8185  4.3105
  725MOL0     H95637   2.031  -0.184   9.645  0.4897  1.3973 -0.3975
  725MOL0     H95638   1.990  -0.075   9.510 -1.0764  0.0515  0.2807
  725MOL0     H95639   1.962  -0.370   9.496  1.0616 -0.4642 -0.6894
  725MOL0     H95640   2.120  -0.287   9.466 -0.4848  0.0315 -0.3397
  725MOL0     H95641   1.995  -0.161   9.290  1.2059 -0.7003 -1.8156
  725MOL0     H95642   1.860  -0.265   9.319  0.1118  3.1558  1.4615
  725MOL0     H95643   2.137  -0.352   9.218 -0.5609  0.4907  0.3194
  725MOL0     H95644   1.994  -0.457   9.244  0.0772 -0.8532 -2.7642
  725MOL0     H95645   2.041  -0.244   9.044 -0.9076  0.8216  0.0879
  725MOL0     H95646   1.872  -0.286   9.084 -0.4850 -2.3684  2.3297
  725MOL0     H95647   2.081  -0.483   8.999 -0.5107  1.8400  4.0738
  725MOL0     H95648   1.977  -0.402   8.887  0.2900  2.0915  1.2539
  725MOL0     H95649   1.864  -0.575   9.125 -2.1772  1.2094  0.8529
  725MOL0     H95650   1.771  -0.507   8.997 -0.4987 -0.3540 -1.0419
  725MOL0     H95651   1.803  -0.744   8.973 -0.6088 -0.3054 -0.0036
  725MOL0     H95652   1.978  -0.734   8.979  1.8423  1.7491 -0.0619
  725MOL0     H95653   2.105  -0.651   8.750  0.9344 -3.0742 -2.2349
  725MOL0     H95654   2.080  -0.501   8.469 -2.1252  0.6659  0.9161
  725MOL0     H95655   1.952  -0.574   8.379  1.0345 -2.1693 -2.1570
  725MOL0     H95656   2.180  -0.719   8.524  0.9054 -0.1215  0.1944
  725MOL0     H95657   2.187  -0.658   8.352 -1.5901 -0.1019 -1.7133
  725MOL0     H95658   1.958  -0.838   8.445 -0.3280  2.1755  0.8607
  725MOL0     H95659   2.000  -0.779   8.280  1.5367  2.0090 -0.8754
  725MOL0     H95660   2.196  -0.952   8.420  0.8940  2.3055 -0.8467
  725MOL0     H95661   2.161  -0.936   8.240 -1.6619 -2.3727 -2.2112
  725MOL0     H95662   1.909  -1.290   8.344 -1.6070  0.4112  0.4531
  725MOL0     H95663   1.733  -1.349   8.191 -1.2861  1.5965  0.3367
  725MOL0     H95664   1.648  -1.169   7.589 -0.8234  2.5978 -6.0750
  725MOL0     H95665   1.434  -1.097   7.440 -0.0693  2.7912  0.9043
  725MOL0     H95666   1.037  -1.108   7.620 -1.2138  0.2828 -0.9714
  725MOL0     H95667   1.126  -1.246   7.579  1.9060  1.8739  0.3645
  725MOL0     H95668   0.938  -1.229   7.421  1.3811 -0.8683  4.4854
  725MOL0     H95669   1.085  -1.206   7.340 -0.0470 -0.6389 -0.1945
  725MOL0     H95670   1.088  -0.976   7.353  0.9496 -2.0092 -0.0337
  725MOL0     H95671   0.919  -0.967   7.433 -1.7099 -1.0425 -1.2089
  725MOL0     H95672   0.944  -0.926   7.185  0.1727  2.3929  4.0032
  725MOL0     H95673   0.942  -1.101   7.167  0.7384  3.5460 -2.9478
  725MOL0     H95674   0.743  -0.902   7.291 -0.3454  0.0561 -1.4422
  725MOL0     H95675   0.711  -1.078   7.323 -1.7654  0.4379 -1.8246
  725MOL0     H95676   0.731  -1.101   7.066  2.2931 -0.5793  0.2758
  725MOL0     H95677   0.688  -0.919   7.081 -1.6833 -0.8383  0.8740
  725MOL0     H95678   0.529  -1.165   7.170 -1.8401  1.5208  2.1741
  725MOL0     H95679   0.507  -1.005   7.237  0.5725  1.1528 -1.2727
  725MOL0     H95680   0.460  -0.899   7.026 -3.8117  1.6084  1.6611
  725MOL0     H95681   0.331  -0.999   7.085 -1.5432 -0.1305 -1.2809
  725MOL0     H95682   1.202  -1.121   7.790 -1.3343 -2.4404 -1.4751
  725MOL0     H95683   1.404  -1.160   7.934 -2.3828  5.9032  0.7742
  725MOL0     H95684   1.826  -1.003   7.947 -2.9852 -1.7726 -0.9463
  725MOL0     H95685   1.986  -0.925   8.111 -1.4632  0.9244 -0.1610
  725MOL0     H95686   1.900   0.062   9.689  1.1941 -1.7718  0.9059
  725MOL0     H95687   1.798   0.170   9.875 -1.4472  1.1538 -1.2506
  725MOL0     H95688   1.853   0.162  10.388 -0.0893 -0.3206 -1.6904
  725MOL0     H95689   1.765   0.157  10.596  0.8868 -0.5357 -1.6641
  725MOL0     H95690   1.600   0.002  10.871 -0.5123  1.4496 -1.0099
  725MOL0     H95691   1.727   0.006  10.762 -0.4312  2.5220 -3.7097
  725MOL0     H95692   1.530  -0.215  10.775  1.6437 -0.6153  1.9016
  725MOL0     H95693   1.639  -0.207  10.634  0.4344 -1.7284  0.8170
  725MOL0     H95694   1.716  -0.206  10.931  1.4571  0.5151  0.4886
  725MOL0     H95695   1.831  -0.220  10.797 -0.7731  4.3358  2.0637
  725MOL0     H95696   1.685  -0.451  10.727  0.1974  0.2883  0.2432
  725MOL0     H95697   1.783  -0.448  10.874 -1.0099  0.0618  3.0005
  725MOL0     H95698   1.409  -0.467  11.055  1.0390 -0.9752  1.5796
  725MOL0     H95699   1.392   0.015  10.475 -0.0543  2.0605 -2.0236
  725MOL0     H95700   1.464   0.027  10.228 -0.5274 -0.3709  0.9751
  726MOL0     O95701   0.175   5.120   9.860  0.4016  0.0323 -0.1239
  726MOL0     C95702   0.232   5.031   9.925 -0.6568 -0.0756  0.1983
  726MOL0     O95703   0.175   4.921   9.990  0.0249  1.0640 -1.0335
  726MOL0     C95704   0.041   4.897   9.967 -0.2750 -0.1252 -0.6677
  726MOL0     C95705   0.004   4.772   9.928 -0.1174  0.0766 -0.0639
  726MOL0     C95706  -0.133   4.740   9.909 -0.2165  0.3269 -0.2994
  726MOL0     C95707  -0.232   4.835   9.944  0.1619  0.1951  0.5152
  726MOL0     O95708  -0.356   4.800   9.914  0.7417  0.0475 -1.0140
  726MOL0     C95709  -0.430   4.771  10.036 -0.1720  0.2279  0.5994
  726MOL0     C95710  -0.575   4.755   9.997  0.6575  0.8353  0.1067
  726MOL0     C95711  -0.630   4.869   9.913  0.4351  0.3200  0.1532
  726MOL0     C95712  -0.781   4.838   9.855  1.1977 -0.3008 -0.8447
  726MOL0     C95713  -0.802   4.917   9.726  0.4974 -0.4769  1.2868
  726MOL0     C95714  -0.714   4.863   9.606  0.7437 -0.4913  0.7917
  726MOL0     C95715  -0.750   4.714   9.563 -0.7414  0.2231 -0.2379
  726MOL0     C95716  -0.638   4.610   9.604  0.3719  1.1148  0.2417
  726MOL0     N95717  -0.509   4.624   9.546 -0.0160 -0.7071 -0.9909
  726MOL0     C95718  -0.408   4.709   9.583 -0.0610  1.1125  0.5147
  726MOL0     C95719  -0.305   4.681   9.502  0.8887 -0.1736  0.1946
  726MOL0     C95720  -0.171   4.744   9.513  0.4048  0.4162 -0.3065
  726MOL0     C95721  -0.052   4.656   9.490  0.3307 -0.3878 -0.2802
  726MOL0     C95722   0.046   4.657   9.602 -0.7122 -0.1420 -0.3476
  726MOL0     C95723   0.194   4.639   9.553  0.3017  0.1475  0.6757
  726MOL0     O95724   0.285   4.700   9.639 -0.2685 -0.3502  0.2512
  726MOL0     C95725   0.416   4.686   9.627  0.2104  0.2851  0.1888
  726MOL0     C95726   0.484   4.642   9.509  0.6870  1.1072  0.2952
  726MOL0     C95727   0.618   4.595   9.515 -0.5288 -0.0364  0.1700
  726MOL0     C95728   0.690   4.605   9.638 -0.2246 -0.4816 -0.4239
  726MOL0     C95729   0.836   4.554   9.651  0.3358 -0.0312  0.2052
  726MOL0     O95730   0.880   4.474   9.555 -0.4274  0.1839 -0.5376
  726MOL0     C95731   1.010   4.424   9.566  0.5535  0.2075  0.4907
  726MOL0     C95732   1.118   4.491   9.499  0.2484  0.2816  0.6149
  726MOL0     C95733   1.249   4.462   9.527 -0.9927 -0.1909  0.9556
  726MOL0     C95734   1.274   4.371   9.636  0.2157 -0.5386  0.1957
  726MOL0     O95735   1.406   4.323   9.668  0.2303  0.8170  1.0197
  726MOL0     C95736   1.513   4.387   9.604 -0.5954  0.8635 -0.1620
  726MOL0     C95737   1.633   4.306   9.659 -0.5719  0.8476 -0.0664
  726MOL0     C95738   1.763   4.373   9.641 -0.3176  0.4388  1.1717
  726MOL0     C95739   1.872   4.282   9.711 -0.4505  0.1378  0.5216
  726MOL0     C95740   1.999   4.354   9.749  0.1158 -0.2214  0.3133
  726MOL0     C95741   2.090   4.258   9.826  0.0710  0.0149 -0.8427
  726MOL0     C95742   2.234   4.310   9.831 -0.5907 -0.0664 -0.0740
  726MOL0     C95743   2.345   4.205   9.854 -0.4818 -0.6603 -0.1592
  726MOL0    Cl95744   2.335   4.117  10.013  0.8063 -0.4039  0.3054
  726MOL0     C95745   1.162   4.309   9.697 -0.2637  0.2153 -0.5331
  726MOL0     C95746   1.031   4.319   9.651  0.1474 -1.6320  0.3911
  726MOL0     O95747   0.897   4.576   9.756 -0.3641  0.3965 -0.1364
  726MOL0     C95748   0.634   4.664   9.746  0.5135 -0.8885  0.3598
  726MOL0     C95749   0.495   4.706   9.745  0.3960  0.7836 -0.7782
  726MOL0     N95750  -0.346   4.570   9.419  0.5184 -0.6644  0.6971
  726MOL0     N95751  -0.471   4.545   9.441  0.1611 -0.4079 -0.6901
  726MOL0     C95752  -0.200   4.959   9.987  0.9539  0.2643 -0.4818
  726MOL0     C95753  -0.060   4.996   9.989  0.9323  0.1014 -0.1626
  726MOL0     C95754   0.379   5.047   9.944  0.2630 -0.8060 -0.3922
  726MOL0     C95755   0.456   5.143   9.878 -0.5013  0.0288 -1.7879
  726MOL0     C95756   0.594   5.153   9.898  0.5111  0.0631  0.7833
  726MOL0     C95757   0.659   5.055   9.979 -0.4480 -0.3181 -0.1775
  726MOL0     O95758   0.795   5.055  10.003 -0.2092 -0.7868 -0.3296
  726MOL0     C95759   0.877   5.089   9.887 -0.6655  0.1776 -0.1875
  726MOL0     C95760   0.894   4.971   9.798 -0.3166  0.5014  0.5937
  726MOL0     C95761   1.020   4.978   9.712 -0.7424 -0.0741 -0.4927
  726MOL0     C95762   1.046   4.839   9.657  0.5863 -0.1744  0.0220
  726MOL0     C95763   1.161   4.830   9.560  0.0621  0.2335 -0.7761
  726MOL0     C95764   1.255   4.811   9.486  0.0642 -0.0880 -0.6047
  726MOL0     C95765   0.577   4.979  10.058 -0.6201  0.2683  0.2718
  726MOL0     C95766   0.440   4.961  10.041 -0.3797 -0.4191 -0.0711
  726MOL0     H95767   0.072   4.694   9.895  0.0834 -0.6460  1.9059
  726MOL0     H95768  -0.156   4.639   9.875 -0.9956 -0.5178  2.4680
  726MOL0     H95769  -0.423   4.848  10.113 -0.2421 -1.1613  2.0387
  726MOL0     H95770  -0.397   4.675  10.077  1.7779  0.0844 -1.1427
  726MOL0     H95771  -0.634   4.745  10.088  2.6414 -1.5467  1.2740
  726MOL0     H95772  -0.568   4.657   9.947  2.1595  0.0935  1.6406
  726MOL0     H95773  -0.572   4.880   9.821 -0.4370  0.8435 -0.3448
  726MOL0     H95774  -0.608   4.969   9.951 -0.7081  0.9254 -0.7185
  726MOL0     H95775  -0.815   4.734   9.860 -1.7085  0.5983 -0.1204
  726MOL0     H95776  -0.845   4.885   9.930  0.5720 -1.8824 -0.3427
  726MOL0     H95777  -0.782   5.024   9.740 -2.1025  0.3063 -0.1663
  726MOL0     H95778  -0.905   4.893   9.696 -0.4464 -0.7612  4.4093
  726MOL0     H95779  -0.610   4.891   9.626  0.1440  0.3150  3.0376
  726MOL0     H95780  -0.735   4.920   9.515 -2.0111 -0.4244  1.3713
  726MOL0     H95781  -0.842   4.684   9.613 -0.6637 -1.9440 -1.2761
  726MOL0     H95782  -0.776   4.696   9.459  0.1532 -1.5250 -0.2084
  726MOL0     H95783  -0.666   4.507   9.580  0.1664  0.7401  1.9755
  726MOL0     H95784  -0.631   4.618   9.713  2.8036  1.4665  0.1168
  726MOL0     H95785  -0.403   4.779   9.666  5.6308 -1.4209  2.8250
  726MOL0     H95786  -0.160   4.791   9.611  1.8995  0.6418 -0.5634
  726MOL0     H95787  -0.162   4.827   9.442  0.9404 -0.2894 -1.0910
  726MOL0     H95788  -0.004   4.686   9.397 -1.4396  4.0809  0.0232
  726MOL0     H95789  -0.090   4.553   9.490 -1.2202  0.1423  1.2149
  726MOL0     H95790   0.051   4.753   9.654  1.4013 -0.6740  0.5355
  726MOL0     H95791   0.025   4.581   9.679  0.7879 -0.2211  0.0175
  726MOL0     H95792   0.196   4.689   9.456  0.3665 -0.9779  0.0780
  726MOL0     H95793   0.216   4.532   9.548  2.9701  0.6633 -0.2774
  726MOL0     H95794   0.422   4.630   9.421  0.2286  1.7215  0.5274
  726MOL0     H95795   0.658   4.531   9.437  2.1328  2.4680 -0.7288
  726MOL0     H95796   1.091   4.570   9.429 -2.4554 -1.5496 -0.5444
  726MOL0     H95797   1.320   4.516   9.465 -2.7016  4.4889  2.6794
  726MOL0     H95798   1.534   4.489   9.636 -0.3028  0.7594 -0.0145
  726MOL0     H95799   1.502   4.387   9.495  2.4845 -0.2281 -0.5861
  726MOL0     H95800   1.630   4.203   9.622 -2.9154  0.9058 -0.1727
  726MOL0     H95801   1.619   4.296   9.767 -2.7852 -1.1224 -0.4577
  726MOL0     H95802   1.760   4.476   9.678 -0.0646  0.6904  0.5189
  726MOL0     H95803   1.800   4.384   9.539 -0.2343 -1.9948  0.8756
  726MOL0     H95804   1.830   4.251   9.806 -0.8556  1.9762  0.9914
  726MOL0     H95805   1.901   4.191   9.658  0.6672  1.2716 -0.8962
  726MOL0     H95806   1.960   4.433   9.815 -3.4872  1.4819 -3.4096
  726MOL0     H95807   2.046   4.385   9.655  2.0998 -0.4653  1.1753
  726MOL0     H95808   2.093   4.159   9.779  3.4406  0.0915 -1.0425
  726MOL0     H95809   2.046   4.246   9.925 -2.7101 -1.6248 -2.1288
  726MOL0     H95810   2.243   4.362   9.735 -0.1233 -1.9105 -1.0884
  726MOL0     H95811   2.246   4.390   9.905  2.9421  1.2481 -1.8324
  726MOL0     H95812   2.445   4.246   9.838 -0.6644 -0.9829 -2.4650
  726MOL0     H95813   2.337   4.127   9.777 -1.7081 -0.5206 -0.1973
  726MOL0     H95814   1.185   4.237   9.775  0.0754  2.9564  2.0422
  726MOL0     H95815   0.947   4.269   9.698 -1.9615 -0.7226 -2.1500
  726MOL0     H95816   0.683   4.682   9.841 -0.2228  4.1004  0.0437
  726MOL0     H95817   0.453   4.750   9.835  1.9013 -1.3649  1.0946
  726MOL0     H95818  -0.273   5.035  10.014 -2.2159 -1.3669 -3.6304
  726MOL0     H95819  -0.033   5.098  10.016 -1.0904  0.1086  2.1279
  726MOL0     H95820   0.406   5.217   9.816 -0.4210  2.2778  0.6230
  726MOL0     H95821   0.638   5.224   9.830 -1.9452 -1.9352 -3.2530
  726MOL0     H95822   0.971   5.109   9.940 -1.8936 -0.5983  2.4633
  726MOL0     H95823   0.839   5.171   9.826 -2.8188  0.1849  1.0618
  726MOL0     H95824   0.896   4.880   9.859  2.7869  0.4748  0.6168
  726MOL0     H95825   0.807   4.976   9.732  0.7305  2.1014 -0.7667
  726MOL0     H95826   1.105   5.005   9.774 -0.4421 -3.5824  0.8056
  726MOL0     H95827   1.008   5.045   9.626  0.3323  0.3226 -0.3387
  726MOL0     H95828   1.053   4.764   9.737  3.3372 -0.3897 -0.3204
  726MOL0     H95829   0.959   4.814   9.597  1.2642 -3.0656  0.0610
  726MOL0     H95830   1.329   4.800   9.409  1.7301 -0.9620  1.0258
  726MOL0     H95831   0.638   4.918  10.124 -0.2392  0.3330 -0.0165
  726MOL0     H95832   0.391   4.900  10.116  3.3220 -0.1020  2.9091
  727MOL0     O95833   8.800   2.821   0.701  0.4563  0.4808 -0.1294
  727MOL0     C95834   8.904   2.868   0.660 -0.2590  0.2808 -0.1670
  727MOL0     O95835   8.915   2.930   0.535 -1.2204  0.4981 -0.1757
  727MOL0     C95836   8.811   2.933   0.444  0.2179 -0.0543  0.2698
  727MOL0     C95837   8.722   3.037   0.426  0.0859  0.3338 -0.7077
  727MOL0     C95838   8.628   3.039   0.320 -0.0710  0.4733  0.3599
  727MOL0     C95839   8.629   2.930   0.228 -0.2191 -1.0505  0.3857
  727MOL0     O95840   8.551   2.927   0.115  1.0118 -0.1484 -0.3190
  727MOL0     C95841   8.469   2.811   0.097 -0.1751 -0.1112 -0.7152
  727MOL0     C95842   8.383   2.752   0.214 -0.8921  0.4299  0.0131
  727MOL0     C95843   8.313   2.618   0.193 -0.0357  0.5747 -0.1836
  727MOL0     C95844   8.408   2.514   0.120  1.0343 -0.2851  0.6017
  727MOL0     C95845   8.336   2.388   0.088  0.0154  0.2275 -0.2079
  727MOL0     C95846   8.224   2.406  -0.011  0.7003  0.7120 -0.2770
  727MOL0     C95847   8.174   2.262  -0.046  0.1088 -0.2866 -0.0218
  727MOL0     C95848   8.028   2.282  -0.108 -0.2550 -0.2189  0.4961
  727MOL0     N95849   8.030   2.333  -0.247  0.6720  0.2713  0.2906
  727MOL0     C95850   7.986   2.457  -0.294  0.4513  0.8096 -0.3466
  727MOL0     C95851   8.002   2.447  -0.427  0.0784  0.2986 -0.5703
  727MOL0     C95852   7.995   2.567  -0.531  0.5850  0.6351 -0.1844
  727MOL0     C95853   8.033   2.695  -0.466 -0.1304  0.6250  0.6429
  727MOL0     C95854   8.177   2.698  -0.413  1.4150  0.5456  0.0819
  727MOL0     C95855   8.186   2.825  -0.323 -0.3333  0.3629  0.4160
  727MOL0     O95856   8.128   2.786  -0.196 -0.2593  0.0056 -0.5708
  727MOL0     C95857   8.127   2.889  -0.100  0.1016  0.2446  0.6732
  727MOL0     C95858   8.215   3.001  -0.094  0.3056  0.0186 -0.9938
  727MOL0     C95859   8.217   3.078   0.023  0.8711 -0.3869  0.3975
  727MOL0     C95860   8.127   3.057   0.119 -0.3411 -0.4532 -0.5448
  727MOL0     C95861   8.135   3.151   0.235  0.0481 -1.6805 -1.6792
  727MOL0     O95862   8.246   3.236   0.233 -0.0595  0.0396 -0.2916
  727MOL0     C95863   8.261   3.351   0.310 -0.4621 -0.4662 -0.4555
  727MOL0     C95864   8.167   3.443   0.309  0.4164 -0.6675  0.5847
  727MOL0     C95865   8.175   3.565   0.379  0.0792 -0.2781  0.1531
  727MOL0     C95866   8.292   3.594   0.451  0.9927  0.6987  0.1028
  727MOL0     O95867   8.317   3.719   0.490  0.1956  0.2749 -0.0174
  727MOL0     C95868   8.212   3.785   0.572 -0.2460  0.6849 -0.0366
  727MOL0     C95869   8.280   3.888   0.658 -0.5077  0.5940 -1.0744
  727MOL0     C95870   8.387   3.838   0.758 -0.1710 -0.2876  0.2030
  727MOL0     C95871   8.378   3.706   0.831  0.0279 -0.4270  0.0697
  727MOL0     C95872   8.510   3.627   0.852 -0.5486  0.2692 -0.1429
  727MOL0     C95873   8.591   3.715   0.942 -0.3250 -1.1781 -0.1700
  727MOL0     C95874   8.744   3.700   0.935 -0.4217  1.0263  0.6519
  727MOL0     C95875   8.806   3.787   0.834  1.5138 -0.7280  0.3238
  727MOL0    Cl95876   8.980   3.795   0.872 -0.2891  0.0842  0.4152
  727MOL0     C95877   8.392   3.498   0.456 -0.3390  0.5819 -0.3429
  727MOL0     C95878   8.380   3.369   0.386 -0.5697 -0.1938 -0.3293
  727MOL0     O95879   8.056   3.143   0.333  0.1269 -0.0308 -0.5804
  727MOL0     C95880   8.050   2.946   0.113 -1.0203 -0.8008  0.5012
  727MOL0     C95881   8.039   2.868   0.002 -0.3874  0.3182 -0.3192
  727MOL0     N95882   8.047   2.319  -0.458 -0.0271  0.7730 -0.3374
  727MOL0     N95883   8.062   2.248  -0.347  0.5019 -0.5321 -0.3203
  727MOL0     C95884   8.727   2.826   0.249  0.9288  0.1991 -0.5054
  727MOL0     C95885   8.814   2.831   0.353 -0.0059  0.0058 -0.1709
  727MOL0     C95886   9.028   2.852   0.736  0.0406  0.1424 -0.6304
  727MOL0     C95887   9.138   2.934   0.702  0.1927  0.5926 -0.3524
  727MOL0     C95888   9.251   2.933   0.785 -0.0214 -0.3689  0.0566
  727MOL0     C95889   9.266   2.840   0.884  0.3464  0.1082  0.7041
  727MOL0     O95890   9.381   2.841   0.958 -0.2696 -0.2612 -0.3335
  727MOL0     C95891   9.365   2.834   1.103  0.1380 -0.4487  0.5140
  727MOL0     C95892   9.282   2.952   1.154 -0.3579 -0.2847 -1.0470
  727MOL0     C95893   9.353   3.080   1.115  1.2941  0.1326 -0.0083
  727MOL0     C95894   9.285   3.204   1.174  0.6371 -0.3317  0.4169
  727MOL0     C95895   9.263   3.197   1.319 -0.8436 -0.3841  0.2329
  727MOL0     C95896   9.230   3.191   1.439 -0.2092 -0.2271  1.0529
  727MOL0     C95897   9.165   2.749   0.915 -0.1367  0.4280 -0.0054
  727MOL0     C95898   9.045   2.760   0.845 -0.2711  0.0428  0.6982
  727MOL0     H95899   8.718   3.110   0.506 -2.2876  0.2696 -0.7134
  727MOL0     H95900   8.545   3.107   0.304 -0.5395 -0.4563 -1.3929
  727MOL0     H95901   8.544   2.736   0.072  0.5735 -1.6663  4.7081
  727MOL0     H95902   8.410   2.839   0.009  1.1737 -0.7195 -1.8446
  727MOL0     H95903   8.309   2.832   0.217 -1.7535 -0.3483 -0.2204
  727MOL0     H95904   8.435   2.744   0.311  0.2449  0.9607 -0.5292
  727MOL0     H95905   8.226   2.639   0.131  0.2720  1.6905 -0.2665
  727MOL0     H95906   8.283   2.579   0.290  1.2153 -2.4495 -0.9108
  727MOL0     H95907   8.433   2.561   0.024 -0.2146 -0.1957  0.2983
  727MOL0     H95908   8.500   2.495   0.176  2.4387  1.0739 -1.0881
  727MOL0     H95909   8.290   2.364   0.184  2.0064  1.2797  1.0782
  727MOL0     H95910   8.399   2.307   0.052  0.2961 -0.8422  2.4222
  727MOL0     H95911   8.265   2.438  -0.108 -0.0133 -1.5102 -1.3719
  727MOL0     H95912   8.141   2.468   0.026  2.1772  1.7031  1.5552
  727MOL0     H95913   8.244   2.208  -0.110 -0.9585  0.5575 -2.0224
  727MOL0     H95914   8.159   2.220   0.054  1.6785 -1.0955 -0.0943
  727MOL0     H95915   7.972   2.355  -0.048 -0.2751 -0.5139  0.8417
  727MOL0     H95916   7.978   2.185  -0.100 -3.6476  1.2472 -0.7084
  727MOL0     H95917   7.974   2.549  -0.239  3.7270 -0.0074  2.0431
  727MOL0     H95918   7.891   2.569  -0.567 -1.1477  2.5712  4.1422
  727MOL0     H95919   8.061   2.560  -0.618 -1.4300  3.9808 -2.2234
  727MOL0     H95920   7.968   2.701  -0.378  0.4619  0.2078  1.1226
  727MOL0     H95921   8.024   2.783  -0.530 -1.5608  0.7152  0.9471
  727MOL0     H95922   8.203   2.609  -0.354 -1.4568 -0.7231 -0.4221
  727MOL0     H95923   8.253   2.700  -0.491  0.8815 -0.2302 -0.4711
  727MOL0     H95924   8.136   2.911  -0.366 -2.7429 -1.7782 -1.3398
  727MOL0     H95925   8.293   2.847  -0.311 -0.3017  0.0290  0.7953
  727MOL0     H95926   8.289   3.022  -0.171  0.7994  0.1668 -0.4813
  727MOL0     H95927   8.281   3.166   0.027  1.4385 -0.7538 -0.4431
  727MOL0     H95928   8.075   3.428   0.252  0.4026  3.4301 -0.7828
  727MOL0     H95929   8.089   3.628   0.363 -1.2805 -1.7731  1.2744
  727MOL0     H95930   8.156   3.713   0.632  0.5072 -0.9290 -1.2105
  727MOL0     H95931   8.137   3.836   0.511 -0.4182  1.4049  0.7601
  727MOL0     H95932   8.196   3.941   0.703 -1.1218 -0.1506 -1.3296
  727MOL0     H95933   8.320   3.968   0.595 -1.7555  0.4090 -2.1522
  727MOL0     H95934   8.400   3.909   0.840  0.2816  0.0840 -0.1855
  727MOL0     H95935   8.476   3.818   0.699  0.3502 -2.1184  1.5306
  727MOL0     H95936   8.339   3.725   0.932  0.2031  2.6849 -0.3580
  727MOL0     H95937   8.299   3.637   0.798 -0.3803  0.4986 -0.9595
  727MOL0     H95938   8.549   3.586   0.759 -0.7811 -0.5826  0.1249
  727MOL0     H95939   8.481   3.542   0.915  0.8969  0.0907  0.3133
  727MOL0     H95940   8.550   3.701   1.042 -1.4299 -3.6626 -0.8810
  727MOL0     H95941   8.578   3.823   0.929 -0.6553 -1.3296 -1.2364
  727MOL0     H95942   8.788   3.713   1.035 -1.5151  0.3458  1.2398
  727MOL0     H95943   8.769   3.596   0.912  0.8780  1.8758 -2.1823
  727MOL0     H95944   8.766   3.889   0.838 -1.9304 -2.0055  2.3229
  727MOL0     H95945   8.800   3.743   0.735  1.6032 -0.2542  0.1034
  727MOL0     H95946   8.473   3.534   0.518 -0.6748 -0.7926  0.9589
  727MOL0     H95947   8.457   3.293   0.389 -0.6043 -0.1839  1.8373
  727MOL0     H95948   7.982   2.932   0.196 -1.3204  1.7215  0.7619
  727MOL0     H95949   7.974   2.782   0.015 -0.9288  0.9982  1.7695
  727MOL0     H95950   8.718   2.738   0.186 -3.1736 -0.4208  0.6446
  727MOL0     H95951   8.878   2.746   0.376 -1.0557 -1.4004 -2.1032
  727MOL0     H95952   9.146   2.994   0.612 -1.3742  0.0119 -0.9118
  727MOL0     H95953   9.331   3.003   0.761 -2.7586  2.6701 -1.0665
  727MOL0     H95954   9.461   2.852   1.150  1.1342 -2.1274 -0.7578
  727MOL0     H95955   9.320   2.737   1.128  1.0044 -2.5165 -4.5339
  727MOL0     H95956   9.181   2.951   1.110 -0.5040 -1.8916 -0.7308
  727MOL0     H95957   9.285   2.953   1.263 -1.3410  2.1737 -0.9809
  727MOL0     H95958   9.350   3.083   1.005  2.1094  0.4469 -0.0289
  727MOL0     H95959   9.452   3.066   1.158  0.7426 -0.6461  1.0402
  727MOL0     H95960   9.325   3.303   1.149 -0.6079 -0.5465 -2.8342
  727MOL0     H95961   9.184   3.200   1.132 -0.3568  0.6549  2.5593
  727MOL0     H95962   9.208   3.203   1.543 -0.1846  2.1428  0.8336
  727MOL0     H95963   9.192   2.672   0.986 -0.4710  0.1322 -0.1980
  727MOL0     H95964   8.965   2.689   0.860  1.0394 -1.8134 -0.5978
  728MOL0     O95965   8.387   8.405  10.165 -0.7946 -0.7505  0.0667
  728MOL0     C95966   8.440   8.308  10.218  0.1431 -0.4724 -0.0371
  728MOL0     O95967   8.373   8.207  10.284  0.2690  0.0072 -0.1556
  728MOL0     C95968   8.247   8.234  10.331 -0.6612 -0.9054 -0.1116
  728MOL0     C95969   8.231   8.317  10.449 -0.7770 -0.2732  0.3939
  728MOL0     C95970   8.095   8.363  10.484 -0.2619  0.1995  0.0376
  728MOL0     C95971   7.988   8.333  10.410 -0.0751  0.0848 -0.4242
  728MOL0     O95972   7.872   8.398  10.436 -0.2991 -0.1172 -0.1506
  728MOL0     C95973   7.746   8.360  10.375  0.2699 -0.2555  0.4491
  728MOL0     C95974   7.642   8.455  10.445  0.7178  0.4846  0.0190
  728MOL0     C95975   7.663   8.609  10.426  1.0652  0.7279  0.2503
  728MOL0     C95976   7.594   8.650  10.289 -1.5064  0.3967  0.7144
  728MOL0     C95977   7.622   8.795  10.250  1.2270 -0.3197 -0.3210
  728MOL0     C95978   7.594   8.821  10.104 -0.2061  0.6823 -0.5891
  728MOL0     C95979   7.595   8.973  10.059 -0.3846 -0.1199 -0.7445
  728MOL0     C95980   7.740   9.022  10.020  0.6846  0.2128  0.4800
  728MOL0     N95981   7.802   8.970   9.894 -0.3709 -0.9054 -0.1055
  728MOL0     C95982   7.937   8.987   9.861  0.2140  0.3509 -0.6713
  728MOL0     C95983   7.942   8.989   9.727  0.6428  0.3489  0.1978
  728MOL0     C95984   8.057   9.030   9.635  0.0735  0.6102 -0.6441
  728MOL0     C95985   8.185   8.972   9.689  0.1080 -0.4544  0.0681
  728MOL0     C95986   8.270   9.072   9.773 -0.2185  0.8716 -0.9085
  728MOL0     C95987   8.419   9.039   9.760 -0.0532 -0.7943 -0.6687
  728MOL0     O95988   8.444   8.921   9.831 -0.2786  0.1109 -0.2440
  728MOL0     C95989   8.575   8.885   9.839 -0.7130  0.0299 -0.2902
  728MOL0     C95990   8.609   8.807   9.946  0.1204 -0.4324 -0.3898
  728MOL0     C95991   8.748   8.778   9.971  0.3102  0.1184  0.1998
  728MOL0     C95992   8.848   8.841   9.898 -0.4116 -0.2849  0.8588
  728MOL0     C95993   8.987   8.807   9.929  0.4000 -0.5746  0.8044
  728MOL0     O95994   9.009   8.759  10.054  0.1184  0.3915  0.5134
  728MOL0     C95995   9.147   8.740  10.081  0.2560  0.0008  0.6904
  728MOL0     C95996   9.204   8.613  10.065  0.6271  0.5451 -0.3087
  728MOL0     C95997   9.344   8.598  10.086 -0.0047 -0.0637 -1.1177
  728MOL0     C95998   9.424   8.703  10.124  0.7328 -0.1053 -0.0196
  728MOL0     O95999   9.558   8.697  10.142 -0.8278 -0.0686 -0.7110
  728MOL0     C96000   9.612   8.568  10.175 -0.2645 -0.5524 -0.6534
  728MOL0     C96001   9.744   8.594  10.236 -0.3309 -0.3869 -0.1209
  728MOL0     C96002   9.805   8.454  10.269 -0.1726  0.2494  0.0917
  728MOL0     C96003   9.918   8.473  10.373  0.3709 -1.3567  0.6769
  728MOL0     C96004  10.042   8.570  10.323  0.1489  0.8544  0.5266
  728MOL0     C96005  10.033   8.714  10.370 -0.3547  0.3271 -0.9228
  728MOL0     C96006  10.162   8.786  10.344 -0.4596  0.4881  0.4829
  728MOL0     C96007  10.178   8.899  10.433 -0.3257  0.1867 -0.4898
  728MOL0    Cl96008  10.314   8.984  10.375 -0.0069  0.0903  0.3739
  728MOL0     C96009   9.369   8.834  10.140  0.3047 -0.3709  0.4772
  728MOL0     C96010   9.227   8.845  10.129  0.1295 -0.4668  0.9908
  728MOL0     O96011   9.074   8.839   9.847  0.2029 -0.2610  0.9289
  728MOL0     C96012   8.808   8.909   9.777 -0.1575 -0.0845 -0.9028
  728MOL0     C96013   8.675   8.936   9.744  0.3255 -0.0641  0.9481
  728MOL0     N96014   7.816   8.959   9.680 -0.6763  0.8718 -0.6992
  728MOL0     N96015   7.733   8.948   9.777 -0.4302 -0.2976 -1.1962
  728MOL0     C96016   8.004   8.246  10.304 -0.1201  0.0444  0.2332
  728MOL0     C96017   8.132   8.199  10.257 -0.1267  0.1525 -0.1126
  728MOL0     C96018   8.587   8.306  10.214  0.2718 -0.0771 -0.1201
  728MOL0     C96019   8.653   8.199  10.270  0.3895 -0.1819 -0.6340
  728MOL0     C96020   8.792   8.178  10.258 -0.6335 -0.0842 -0.1828
  728MOL0     C96021   8.862   8.283  10.189 -0.9440  0.3691 -0.5973
  728MOL0     O96022   8.995   8.292  10.159  0.3320 -0.4355 -0.3013
  728MOL0     C96023   9.082   8.204  10.243  0.0453 -0.7462 -0.1317
  728MOL0     C96024   9.226   8.232  10.199  0.5452  0.8425  0.2363
  728MOL0     C96025   9.327   8.158  10.288 -0.8400  0.0348  1.2385
  728MOL0     C96026   9.470   8.184  10.242 -0.6949 -0.3347 -0.6955
  728MOL0     C96027   9.495   8.115  10.118 -0.0042 -1.2630  0.2582
  728MOL0     C96028   9.527   8.042  10.024 -0.1164 -0.4077  0.7025
  728MOL0     C96029   8.799   8.396  10.137 -0.0972  0.3280 -0.0152
  728MOL0     C96030   8.662   8.405  10.158  0.4072  0.0096  0.5815
  728MOL0     H96031   8.325   8.348  10.494  0.4546  0.2643 -2.2846
  728MOL0     H96032   8.078   8.420  10.576 -2.7544  2.7793 -1.8354
  728MOL0     H96033   7.723   8.255  10.391  1.0474 -0.4126  0.5882
  728MOL0     H96034   7.751   8.378  10.268  1.6831 -0.5184  0.4422
  728MOL0     H96035   7.651   8.435  10.553 -0.1104 -3.8691 -0.5167
  728MOL0     H96036   7.545   8.409  10.425  2.0313 -3.8007  2.2003
  728MOL0     H96037   7.771   8.628  10.425  0.8182  2.4116 -1.9854
  728MOL0     H96038   7.611   8.663  10.505 -2.3171  0.2483 -1.4741
  728MOL0     H96039   7.627   8.583  10.209 -0.9404 -0.3308  1.5287
  728MOL0     H96040   7.486   8.637  10.298 -2.3623  3.4534 -2.8126
  728MOL0     H96041   7.719   8.833  10.285  0.8750  1.4622 -1.1502
  728MOL0     H96042   7.546   8.849  10.307 -0.2527  0.8014 -3.1334
  728MOL0     H96043   7.500   8.769  10.085  0.9023 -2.4715  1.5012
  728MOL0     H96044   7.659   8.769  10.033 -2.1032 -0.2907 -1.6641
  728MOL0     H96045   7.519   8.991   9.983  0.6022  2.9977 -1.1003
  728MOL0     H96046   7.562   9.029  10.147 -0.8244 -1.9614  0.3226
  728MOL0     H96047   7.806   8.989  10.101  0.1815  1.0238  1.2402
  728MOL0     H96048   7.737   9.130  10.005  3.9042  0.2802 -0.4887
  728MOL0     H96049   8.010   9.004   9.939  1.7373 -3.3009 -1.0869
  728MOL0     H96050   8.055   9.139   9.632 -0.0289  0.7489  1.9928
  728MOL0     H96051   8.029   8.988   9.539 -0.0084  3.2252 -1.8505
  728MOL0     H96052   8.252   8.948   9.606 -0.7153 -1.5306 -0.3105
  728MOL0     H96053   8.152   8.881   9.742  2.3455 -0.4683  1.6139
  728MOL0     H96054   8.261   9.173   9.732 -0.7724  1.4284  0.5403
  728MOL0     H96055   8.228   9.074   9.874  0.6440  0.8230 -0.5431
  728MOL0     H96056   8.477   9.119   9.808  1.5776 -0.7089 -2.6927
  728MOL0     H96057   8.438   9.036   9.653 -1.4493  2.0567 -1.1160
  728MOL0     H96058   8.530   8.774  10.012 -0.3761  3.1663  1.0100
  728MOL0     H96059   8.759   8.707  10.053 -1.2995  0.7618  1.0169
  728MOL0     H96060   9.149   8.530  10.023 -0.3265  1.1798 -0.3355
  728MOL0     H96061   9.387   8.500  10.070 -1.7586 -1.4131  1.5915
  728MOL0     H96062   9.620   8.510  10.083  0.3539 -0.7450 -0.4838
  728MOL0     H96063   9.547   8.514  10.246 -0.2822  0.8962  0.4710
  728MOL0     H96064   9.728   8.650  10.329 -1.4123  1.4805 -1.3573
  728MOL0     H96065   9.808   8.656  10.172  1.7845 -0.7142  1.5647
  728MOL0     H96066   9.839   8.415  10.172  1.4324 -2.9288  1.7717
  728MOL0     H96067   9.732   8.385  10.313  1.5577 -0.5743  1.8135
  728MOL0     H96068   9.872   8.500  10.468 -1.3415  3.3990 -1.1927
  728MOL0     H96069   9.964   8.374  10.379  0.8270 -1.4119 -2.1942
  728MOL0     H96070  10.038   8.573  10.214 -1.1488 -1.0209  0.4796
  728MOL0     H96071  10.141   8.531  10.349  0.2614  1.0237  0.3603
  728MOL0     H96072  10.010   8.725  10.477 -0.5133 -4.8889 -0.1703
  728MOL0     H96073   9.953   8.776  10.329 -0.7926  1.3132  1.2464
  728MOL0     H96074  10.244   8.718  10.367  1.0530  1.3948 -1.8605
  728MOL0     H96075  10.169   8.814  10.239  1.5420  1.4432  0.8281
  728MOL0     H96076  10.202   8.860  10.532  1.0800  0.8698 -0.5341
  728MOL0     H96077  10.096   8.971  10.422 -1.4291 -1.2898 -2.7045
  728MOL0     H96078   9.425   8.920  10.174 -0.6502  0.1564  0.7667
  728MOL0     H96079   9.188   8.945  10.148  1.7283  0.4634 -0.3224
  728MOL0     H96080   8.880   8.948   9.706 -0.2654  1.2325 -0.3115
  728MOL0     H96081   8.653   8.991   9.653 -2.2709 -1.3056  0.7116
  728MOL0     H96082   7.920   8.222  10.240 -1.0593  0.6934  1.1758
  728MOL0     H96083   8.126   8.131  10.173  1.3786 -0.5890  0.3443
  728MOL0     H96084   8.603   8.115  10.317  1.1473  0.2942  1.1225
  728MOL0     H96085   8.835   8.092  10.307 -0.7419 -0.5894 -0.9650
  728MOL0     H96086   9.061   8.099  10.223 -0.8807 -0.6606  0.3446
  728MOL0     H96087   9.077   8.225  10.350  0.5315 -0.6329 -0.1262
  728MOL0     H96088   9.239   8.187  10.100 -0.2123  1.6705 -0.2578
  728MOL0     H96089   9.247   8.339  10.199 -1.8273  1.3869  1.5473
  728MOL0     H96090   9.317   8.049  10.290 -0.9293  0.0005 -0.1481
  728MOL0     H96091   9.307   8.192  10.390  3.3776  2.5832  1.4457
  728MOL0     H96092   9.493   8.291  10.239  0.6487 -0.5363  0.7700
  728MOL0     H96093   9.536   8.143  10.319 -2.3214 -0.8814  0.4745
  728MOL0     H96094   9.567   7.972   9.954 -1.6240 -0.9388  0.3414
  728MOL0     H96095   8.861   8.474  10.093 -2.9555  3.4287  0.9530
  728MOL0     H96096   8.613   8.494  10.119 -0.8071 -0.6959  0.4299
  729MOL0     O96097   5.889   4.696   6.881  0.0940 -0.0589 -0.1676
  729MOL0     C96098   5.884   4.671   6.997 -0.1822  0.8008 -0.3604
  729MOL0     O96099   5.784   4.708   7.082  0.0433 -0.5571  0.0508
  729MOL0     C96100   5.680   4.783   7.033  0.3276 -0.4548  0.4021
  729MOL0     C96101   5.637   4.900   7.100  0.0133  0.0257 -0.0002
  729MOL0     C96102   5.525   4.973   7.055 -0.0021 -0.2626  0.6524
  729MOL0     C96103   5.440   4.918   6.953 -0.0280 -0.1591 -0.0894
  729MOL0     O96104   5.324   4.992   6.918 -0.1359  0.3572 -0.5488
  729MOL0     C96105   5.213   4.913   6.872 -0.4476  0.0479 -0.3371
  729MOL0     C96106   5.076   4.975   6.910  0.4218 -0.2057  1.2796
  729MOL0     C96107   5.068   5.106   6.831 -1.2983 -0.0657 -0.5277
  729MOL0     C96108   4.926   5.160   6.870 -0.2812  0.1627  0.7413
  729MOL0     C96109   4.890   5.288   6.801 -0.5887  0.0660  0.2682
  729MOL0     C96110   4.737   5.318   6.825  0.2992 -0.2709  0.2968
  729MOL0     C96111   4.638   5.240   6.736 -0.5152  0.5602 -0.0711
  729MOL0     C96112   4.647   5.279   6.582  0.0550 -0.7659 -0.5118
  729MOL0     N96113   4.576   5.401   6.539 -0.2557 -0.1686  0.3953
  729MOL0     C96114   4.578   5.526   6.601 -0.2468  0.6094  0.2963
  729MOL0     C96115   4.503   5.609   6.521  0.1982  0.1751 -0.0165
  729MOL0     C96116   4.488   5.759   6.559 -0.4634 -0.1415 -0.2661
  729MOL0     C96117   4.391   5.836   6.473  0.0193  0.1505  0.1074
  729MOL0     C96118   4.250   5.793   6.484 -0.3676 -0.0477 -0.2904
  729MOL0     C96119   4.154   5.872   6.394 -0.1414 -0.1698  0.0237
  729MOL0     O96120   4.015   5.828   6.416 -0.0829 -0.1351  0.1572
  729MOL0     C96121   3.917   5.900   6.347 -0.6802 -0.6214 -0.3587
  729MOL0     C96122   3.941   6.012   6.262  0.8505 -0.2967 -0.2411
  729MOL0     C96123   3.831   6.086   6.218  0.3986 -0.7855  0.2116
  729MOL0     C96124   3.698   6.035   6.244  0.4160 -0.0568  0.2643
  729MOL0     C96125   3.583   6.109   6.195 -0.5401  0.2636 -1.0279
  729MOL0     O96126   3.583   6.152   6.070  0.2431  0.1026  0.3640
  729MOL0     C96127   3.466   6.210   6.015  1.2519  0.1038  0.2936
  729MOL0     C96128   3.398   6.321   6.068 -0.1684  0.3693  0.1592
  729MOL0     C96129   3.275   6.362   6.016 -0.3942  0.3579 -0.0892
  729MOL0     C96130   3.210   6.306   5.916  0.1424  0.2229  0.6912
  729MOL0     O96131   3.084   6.341   5.876  0.0499  0.4043  0.4003
  729MOL0     C96132   2.983   6.333   5.981  0.5416 -0.8568  0.1210
  729MOL0     C96133   2.841   6.363   5.910 -0.3646  0.9189 -0.7191
  729MOL0     C96134   2.830   6.514   5.873  0.3075 -0.6580 -0.2524
  729MOL0     C96135   2.822   6.603   6.005 -0.2840  0.8519  0.4356
  729MOL0     C96136   2.744   6.729   5.968  0.4390  0.0406 -0.8579
  729MOL0     C96137   2.754   6.836   6.084  0.4741  0.0727  0.9265
  729MOL0     C96138   2.717   6.793   6.219 -0.4402  0.3888 -0.3683
  729MOL0     C96139   2.699   6.914   6.306 -1.4619  0.6077 -0.2423
  729MOL0    Cl96140   2.859   6.987   6.335  0.0899 -0.3629  0.0139
  729MOL0     C96141   3.277   6.198   5.853  0.1385  0.6402 -0.4357
  729MOL0     C96142   3.395   6.149   5.909 -0.1095  0.1090  0.5405
  729MOL0     O96143   3.485   6.114   6.269 -0.4254  0.7237  0.3231
  729MOL0     C96144   3.672   5.911   6.311  0.2020  0.1226  1.1551
  729MOL0     C96145   3.784   5.851   6.363 -0.1772  0.8690  0.3890
  729MOL0     N96146   4.460   5.545   6.414  0.0228 -0.4896 -0.0494
  729MOL0     N96147   4.503   5.421   6.424  0.1510 -0.3663  0.4489
  729MOL0     C96148   5.467   4.790   6.904 -0.6796 -0.1261  0.2716
  729MOL0     C96149   5.588   4.731   6.936 -0.0131 -0.6136 -0.9601
  729MOL0     C96150   6.009   4.617   7.064 -0.4860 -0.7868  0.1756
  729MOL0     C96151   6.137   4.639   7.023 -2.1972 -0.0582 -0.1259
  729MOL0     C96152   6.247   4.563   7.070 -0.4083 -1.1517 -0.4897
  729MOL0     C96153   6.227   4.474   7.177 -0.0247 -0.5072 -0.0645
  729MOL0     O96154   6.318   4.392   7.219  0.0673  0.0624 -0.0617
  729MOL0     C96155   6.442   4.437   7.280  0.1393  0.1062 -0.1009
  729MOL0     C96156   6.429   4.446   7.426  0.7105  0.4224  0.3728
  729MOL0     C96157   6.376   4.318   7.491 -0.0638 -0.3052  0.2932
  729MOL0     C96158   6.319   4.348   7.631 -0.4421  1.5862  0.0471
  729MOL0     C96159   6.178   4.386   7.620  0.4076  0.1153  0.0158
  729MOL0     C96160   6.054   4.407   7.631 -1.0467 -0.0127 -0.3943
  729MOL0     C96161   6.094   4.445   7.212  0.6601 -0.2710 -0.5218
  729MOL0     C96162   5.986   4.521   7.163  0.1309 -0.0909 -0.5830
  729MOL0     H96163   5.692   4.943   7.183 -0.7364 -0.2731  0.6637
  729MOL0     H96164   5.493   5.068   7.096  2.2957  1.6451 -1.6611
  729MOL0     H96165   5.220   4.814   6.918  0.6638 -0.8487 -2.3463
  729MOL0     H96166   5.220   4.894   6.765 -1.6561 -1.9916 -0.1131
  729MOL0     H96167   5.076   4.991   7.018  0.2943  1.9535  1.0013
  729MOL0     H96168   5.000   4.907   6.871 -0.6384  1.8021 -0.3773
  729MOL0     H96169   5.068   5.092   6.723 -2.9805  0.0354 -0.5790
  729MOL0     H96170   5.143   5.181   6.860  0.9532 -2.4954  0.2916
  729MOL0     H96171   4.845   5.089   6.851 -0.2085  0.0686  0.7751
  729MOL0     H96172   4.907   5.187   6.974 -2.3708  0.6984  0.2673
  729MOL0     H96173   4.925   5.270   6.699  0.5086  0.7189  0.5049
  729MOL0     H96174   4.948   5.367   6.851 -2.0225 -0.0598  2.2480
  729MOL0     H96175   4.726   5.425   6.807 -0.5708 -0.4130 -0.0789
  729MOL0     H96176   4.717   5.301   6.932 -0.2896 -2.5206 -0.1053
  729MOL0     H96177   4.654   5.132   6.741  0.9852  0.8123  1.2756
  729MOL0     H96178   4.535   5.262   6.766 -0.4861  2.1375 -0.9830
  729MOL0     H96179   4.578   5.204   6.541 -2.0127  0.8344 -0.1005
  729MOL0     H96180   4.749   5.276   6.543  0.6939 -1.9119  1.1140
  729MOL0     H96181   4.616   5.552   6.700 -0.4197  3.4641 -0.3105
  729MOL0     H96182   4.587   5.807   6.557 -0.5478  0.0694  0.3399
  729MOL0     H96183   4.470   5.774   6.666  0.9317 -1.9613  0.2928
  729MOL0     H96184   4.424   5.829   6.369 -1.3406  1.3621 -0.4434
  729MOL0     H96185   4.396   5.940   6.505  0.1503 -0.1787  1.2273
  729MOL0     H96186   4.235   5.689   6.452 -2.6386  0.0586  0.2382
  729MOL0     H96187   4.231   5.809   6.591 -0.6531 -1.9389 -0.0224
  729MOL0     H96188   4.184   5.854   6.290  0.8109 -2.8417  0.6598
  729MOL0     H96189   4.169   5.978   6.414  0.4565 -0.1681 -0.3854
  729MOL0     H96190   4.048   6.028   6.251  2.0632 -4.4330  2.9604
  729MOL0     H96191   3.846   6.177   6.162  1.1969 -1.7691 -1.2252
  729MOL0     H96192   3.453   6.364   6.151 -1.2058  2.3410 -0.1238
  729MOL0     H96193   3.229   6.445   6.067 -0.5307 -0.2668  0.8235
  729MOL0     H96194   3.007   6.405   6.060  2.4394 -2.2661  0.9208
  729MOL0     H96195   2.975   6.233   6.027 -0.8120 -1.0000 -0.3672
  729MOL0     H96196   2.760   6.338   5.979 -1.0767  0.8776 -1.5494
  729MOL0     H96197   2.834   6.297   5.823 -0.2509 -1.9360  1.3098
  729MOL0     H96198   2.739   6.517   5.812  1.1199 -1.8946 -1.5609
  729MOL0     H96199   2.920   6.547   5.820 -0.0498  3.0522  1.1247
  729MOL0     H96200   2.773   6.545   6.083 -2.3353  0.5546 -0.9911
  729MOL0     H96201   2.926   6.626   6.030  0.7867  0.7786 -3.3463
  729MOL0     H96202   2.641   6.706   5.939  0.2888  2.2404 -2.3637
  729MOL0     H96203   2.803   6.771   5.885  1.2858  0.6972  0.0601
  729MOL0     H96204   2.696   6.916   6.036 -1.0545 -1.6081 -0.1941
  729MOL0     H96205   2.857   6.870   6.093  1.3041 -1.6268 -1.2879
  729MOL0     H96206   2.629   6.727   6.220 -0.6051  0.4915 -2.7994
  729MOL0     H96207   2.785   6.712   6.248 -2.6244 -1.6662 -0.6319
  729MOL0     H96208   2.652   6.882   6.399  1.8442 -1.1003  0.9983
  729MOL0     H96209   2.627   6.986   6.266  1.9010  3.2012 -2.0967
  729MOL0     H96210   3.237   6.144   5.767 -0.3807  1.1035 -0.4925
  729MOL0     H96211   3.437   6.063   5.857 -0.8824  0.1402 -0.1525
  729MOL0     H96212   3.569   5.886   6.334  0.1864 -0.5189  0.4511
  729MOL0     H96213   3.773   5.763   6.424 -1.5957 -0.1215 -1.2041
  729MOL0     H96214   5.406   4.744   6.827  0.9872 -1.0252 -0.5470
  729MOL0     H96215   5.608   4.638   6.884 -1.0785  0.1460 -2.8526
  729MOL0     H96216   6.159   4.708   6.942  0.8954 -1.5257 -0.7170
  729MOL0     H96217   6.348   4.586   7.039 -0.6001  2.8651  1.3292
  729MOL0     H96218   6.468   4.533   7.234 -0.0426  1.8527  3.1324
  729MOL0     H96219   6.520   4.364   7.258  1.5653  1.4590  0.2794
  729MOL0     H96220   6.522   4.476   7.475  2.2088 -0.7481 -1.5892
  729MOL0     H96221   6.359   4.527   7.450  2.2428  1.7428  0.5395
  729MOL0     H96222   6.452   4.241   7.506  0.2569  0.1888  1.2415
  729MOL0     H96223   6.298   4.274   7.428 -0.0764 -1.2337  0.9313
  729MOL0     H96224   6.329   4.252   7.683  1.2342  1.5341 -0.3079
  729MOL0     H96225   6.388   4.420   7.676  1.7119 -0.3404 -0.0238
  729MOL0     H96226   5.953   4.429   7.661 -1.7979 -3.4491 -0.0085
  729MOL0     H96227   6.081   4.368   7.288 -2.2681 -0.4673 -1.0780
  729MOL0     H96228   5.889   4.488   7.201 -0.0821  0.4639 -0.6399
  730MOL0     O96229   0.754   6.750   7.055  0.1487 -0.1812 -0.0884
  730MOL0     C96230   0.786   6.768   6.936  1.3425 -0.2784  0.0822
  730MOL0     O96231   0.698   6.783   6.831  0.2425  0.8574  1.0566
  730MOL0     C96232   0.559   6.800   6.840 -0.2303  0.1094  0.7362
  730MOL0     C96233   0.495   6.868   6.946 -0.3173  0.8261  0.0851
  730MOL0     C96234   0.360   6.899   6.941  0.7397  0.6233 -0.6059
  730MOL0     C96235   0.285   6.881   6.821  0.0531  0.0153 -0.3005
  730MOL0     O96236   0.159   6.926   6.798  0.3481  0.2088  1.0477
  730MOL0     C96237   0.068   6.945   6.912  0.1597 -0.2171  0.3807
  730MOL0     C96238  -0.058   6.991   6.871 -0.0962 -0.3724  0.2295
  730MOL0     C96239  -0.136   6.912   6.767  0.3519 -0.2598 -0.3398
  730MOL0     C96240  -0.275   6.978   6.757 -0.3664  0.4699  0.6214
  730MOL0     C96241  -0.328   6.945   6.619  0.2899 -0.3298 -0.1620
  730MOL0     C96242  -0.441   7.043   6.567 -0.7109  0.7448 -0.7970
  730MOL0     C96243  -0.503   7.005   6.434 -0.1740 -0.0119 -0.1635
  730MOL0     C96244  -0.588   6.880   6.444 -0.8419  0.4357 -0.5614
  730MOL0     N96245  -0.709   6.900   6.524  0.7506  0.9199 -0.0922
  730MOL0     C96246  -0.829   6.956   6.482 -0.2269  0.3782  0.3677
  730MOL0     C96247  -0.911   6.940   6.584  0.1601  1.2403  0.3250
  730MOL0     C96248  -1.056   6.987   6.575 -0.1652  0.9488  0.7100
  730MOL0     C96249  -1.074   7.117   6.656 -0.7931 -0.3404 -0.0167
  730MOL0     C96250  -1.188   7.204   6.587  0.1631 -0.6131  0.9750
  730MOL0     C96251  -1.326   7.137   6.600 -0.1958 -0.3941  0.3869
  730MOL0     O96252  -1.403   7.223   6.684 -0.5578  0.0334 -0.0966
  730MOL0     C96253  -1.518   7.169   6.736  0.0035 -0.6503  0.4431
  730MOL0     C96254  -1.591   7.062   6.691 -0.2568  0.3298  0.1833
  730MOL0     C96255  -1.708   7.023   6.753  0.2032 -0.4523  0.5968
  730MOL0     C96256  -1.737   7.076   6.886  0.0108  0.5075 -0.3726
  730MOL0     C96257  -1.842   7.015   6.971 -0.5831 -0.6517  0.6454
  730MOL0     O96258  -1.910   6.907   6.923 -0.2109 -0.4505  0.5314
  730MOL0     C96259  -2.031   6.868   6.970 -1.2681 -0.2163 -0.7271
  730MOL0     C96260  -2.071   6.747   6.928  0.6054  0.0777  0.5579
  730MOL0     C96261  -2.192   6.690   6.979  0.0056 -1.1609 -1.1098
  730MOL0     C96262  -2.274   6.753   7.082 -0.2121  0.2367 -0.6716
  730MOL0     O96263  -2.380   6.682   7.122 -0.6155  0.5415 -0.4639
  730MOL0     C96264  -2.485   6.754   7.183  0.0354  0.5639 -1.0293
  730MOL0     C96265  -2.602   6.653   7.178 -0.2629  0.1238 -0.2582
  730MOL0     C96266  -2.725   6.719   7.245  0.8277 -0.7299 -0.0205
  730MOL0     C96267  -2.844   6.634   7.221  0.2482 -0.6568 -0.1765
  730MOL0     C96268  -2.971   6.708   7.285  0.2663  0.8047  0.3007
  730MOL0     C96269  -3.104   6.641   7.234  0.5617  0.1357  0.0986
  730MOL0     C96270  -3.124   6.488   7.271 -0.3532 -0.3913 -0.0290
  730MOL0     C96271  -3.193   6.495   7.401  0.5946 -0.4298 -0.3717
  730MOL0    Cl96272  -3.351   6.556   7.396 -0.4340  0.3326  0.4249
  730MOL0     C96273  -2.237   6.885   7.108 -0.0813 -0.3049 -0.6427
  730MOL0     C96274  -2.120   6.938   7.056 -0.3285 -1.3221  1.1895
  730MOL0     O96275  -1.868   7.065   7.078 -0.3487 -1.5154  0.1565
  730MOL0     C96276  -1.656   7.179   6.935 -0.6681  0.4427 -0.2896
  730MOL0     C96277  -1.547   7.228   6.861  0.3537 -0.6620  0.5167
  730MOL0     N96278  -0.848   6.857   6.679 -0.1856  0.3296 -1.1100
  730MOL0     N96279  -0.736   6.825   6.629 -0.2747  0.1507  0.1816
  730MOL0     C96280   0.347   6.805   6.722 -0.8696 -0.4188 -0.5647
  730MOL0     C96281   0.485   6.766   6.727 -0.8389 -0.0172 -0.2203
  730MOL0     C96282   0.932   6.769   6.913 -0.4848 -0.5671  0.1431
  730MOL0     C96283   0.976   6.821   6.790 -0.9763  0.4219  0.4220
  730MOL0     C96284   1.110   6.831   6.759 -0.0806 -0.2314 -1.7201
  730MOL0     C96285   1.213   6.800   6.853  1.1150  0.7129 -0.0432
  730MOL0     O96286   1.346   6.783   6.822 -0.1757 -0.2090  0.3561
  730MOL0     C96287   1.374   6.747   6.688  0.4093 -0.2166 -0.4472
  730MOL0     C96288   1.508   6.683   6.696 -0.1320 -0.7670 -0.2529
  730MOL0     C96289   1.559   6.631   6.562 -1.1616  0.2972  0.0534
  730MOL0     C96290   1.493   6.502   6.513  0.4325 -0.0270 -0.1622
  730MOL0     C96291   1.555   6.464   6.384 -0.5867  0.2186  0.7608
  730MOL0     C96292   1.582   6.442   6.265  0.0666 -0.0854  0.2739
  730MOL0     C96293   1.163   6.746   6.972  1.0119 -0.5129  0.3614
  730MOL0     C96294   1.029   6.735   7.000  0.3653  0.4016 -1.4049
  730MOL0     H96295   0.558   6.885   7.033 -2.1278 -0.3125  1.6899
  730MOL0     H96296   0.317   6.946   7.029  1.2172 -0.6290  0.3249
  730MOL0     H96297   0.115   7.021   6.976 -0.0761 -0.7439  1.2025
  730MOL0     H96298   0.052   6.860   6.980 -1.3522  0.6573  1.1636
  730MOL0     H96299  -0.042   7.088   6.823  0.3074  0.2172  1.5203
  730MOL0     H96300  -0.114   7.011   6.963 -1.4128 -0.1073 -0.6009
  730MOL0     H96301  -0.157   6.814   6.810 -2.6516 -0.2312 -1.4915
  730MOL0     H96302  -0.086   6.919   6.670  3.1533  1.1178  1.0856
  730MOL0     H96303  -0.329   6.936   6.842 -0.3461  1.7564  1.2885
  730MOL0     H96304  -0.267   7.086   6.772 -1.8024  0.2821  3.4926
  730MOL0     H96305  -0.358   6.842   6.642  0.5356 -0.2393  0.5704
  730MOL0     H96306  -0.252   6.944   6.539  0.3564 -0.6273 -0.0981
  730MOL0     H96307  -0.392   7.139   6.551 -0.2705  1.0062  1.7313
  730MOL0     H96308  -0.518   7.046   6.645 -0.6607 -0.6453 -0.6717
  730MOL0     H96309  -0.568   7.087   6.406  1.0455  1.5619  1.3942
  730MOL0     H96310  -0.434   6.988   6.350 -2.7265 -3.0060 -1.9039
  730MOL0     H96311  -0.530   6.804   6.498 -0.7844  0.7441 -0.1888
  730MOL0     H96312  -0.597   6.854   6.338  2.1688 -1.1964 -0.5316
  730MOL0     H96313  -0.836   7.002   6.384  1.1371  0.0861  0.1061
  730MOL0     H96314  -1.112   6.910   6.630 -2.0556 -1.3370 -3.8337
  730MOL0     H96315  -1.102   6.980   6.476 -0.2975 -1.5868  0.8778
  730MOL0     H96316  -0.986   7.181   6.644 -1.8398  1.0446 -0.4591
  730MOL0     H96317  -1.096   7.090   6.759 -0.5188 -1.9132 -0.3344
  730MOL0     H96318  -1.185   7.293   6.651 -2.7555 -0.3166  0.8458
  730MOL0     H96319  -1.170   7.231   6.482 -1.9879  2.7165  1.2859
  730MOL0     H96320  -1.323   7.037   6.644 -0.9515  0.3023  2.0891
  730MOL0     H96321  -1.376   7.136   6.503 -3.5297  0.1873  1.9686
  730MOL0     H96322  -1.540   7.005   6.614  0.5134  1.9588 -0.5418
  730MOL0     H96323  -1.756   6.934   6.715 -1.5227  1.3146 -1.6652
  730MOL0     H96324  -1.994   6.697   6.870 -0.0260 -0.7535  0.4079
  730MOL0     H96325  -2.229   6.590   6.961 -1.1133 -1.8886  3.8025
  730MOL0     H96326  -2.504   6.846   7.127  0.5611  3.2702  2.8554
  730MOL0     H96327  -2.456   6.775   7.286  2.8528 -0.6533 -1.4558
  730MOL0     H96328  -2.565   6.574   7.244  1.1694  1.2274  0.3381
  730MOL0     H96329  -2.625   6.605   7.083 -1.3575 -2.4080  1.1843
  730MOL0     H96330  -2.753   6.815   7.199  0.2163 -1.6582 -1.6823
  730MOL0     H96331  -2.714   6.731   7.353  0.8032  1.7915 -0.2367
  730MOL0     H96332  -2.864   6.630   7.114 -0.3803  0.9240 -0.1480
  730MOL0     H96333  -2.830   6.536   7.268  1.9324 -0.1941  0.3756
  730MOL0     H96334  -2.981   6.811   7.249 -0.0802  0.3780 -0.8960
  730MOL0     H96335  -2.955   6.700   7.393 -0.0085  1.3808  0.3905
  730MOL0     H96336  -3.111   6.647   7.125  0.6243 -1.3506 -0.0089
  730MOL0     H96337  -3.181   6.708   7.271  0.4330  0.6430 -1.0315
  730MOL0     H96338  -3.189   6.435   7.201 -3.3849 -0.9508  2.9223
  730MOL0     H96339  -3.025   6.440   7.272  0.4257  1.1021  1.6936
  730MOL0     H96340  -3.142   6.565   7.469  2.0712 -2.7012  1.0218
  730MOL0     H96341  -3.199   6.392   7.437 -2.1021 -0.6617 -1.2996
  730MOL0     H96342  -2.294   6.945   7.179  1.8169 -1.4537  2.0326
  730MOL0     H96343  -2.096   7.043   7.076 -4.3732  1.0545 -4.0810
  730MOL0     H96344  -1.667   7.230   7.030  2.1811  0.0742  0.2956
  730MOL0     H96345  -1.484   7.306   6.903  0.8352  0.1104 -1.5173
  730MOL0     H96346   0.284   6.781   6.637 -2.0359  1.5754 -0.3236
  730MOL0     H96347   0.543   6.733   6.641 -0.6476  2.5531 -1.1651
  730MOL0     H96348   0.920   6.859   6.706  3.5907 -1.0810 -3.7772
  730MOL0     H96349   1.145   6.874   6.666 -0.4590 -0.9658 -2.2071
  730MOL0     H96350   1.385   6.830   6.617  2.5697 -0.2956 -0.2716
  730MOL0     H96351   1.303   6.684   6.634 -1.1326  1.0487  0.0318
  730MOL0     H96352   1.583   6.749   6.739 -3.5689  2.8163  0.8667
  730MOL0     H96353   1.506   6.601   6.769 -1.6219 -0.1835  0.4128
  730MOL0     H96354   1.660   6.595   6.580 -1.6202  0.1341  2.7712
  730MOL0     H96355   1.549   6.715   6.492 -0.3319  2.8124  2.7365
  730MOL0     H96356   1.504   6.419   6.582 -0.5198  0.6778  0.8787
  730MOL0     H96357   1.384   6.507   6.500  0.4199 -2.1284 -1.2047
  730MOL0     H96358   1.581   6.421   6.160 -1.3114  3.9510 -0.7280
  730MOL0     H96359   1.233   6.713   7.048  2.1571 -0.7787 -0.7753
  730MOL0     H96360   1.014   6.694   7.100  1.6121  0.6149 -1.1129
  731MOL0     O96361   4.661   9.787   1.271 -0.3786  0.0457 -0.1479
  731MOL0     C96362   4.666   9.787   1.396 -0.5803  0.0752  0.1573
  731MOL0     O96363   4.584   9.718   1.476 -0.1092 -0.6051 -0.1566
  731MOL0     C96364   4.481   9.639   1.427 -0.8800  0.5348  0.4104
  731MOL0     C96365   4.397   9.606   1.533  0.8701 -0.3013  0.1947
  731MOL0     C96366   4.278   9.540   1.505  0.7433  0.7513  0.0928
  731MOL0     C96367   4.243   9.488   1.373 -0.6758 -0.6775  0.1409
  731MOL0     O96368   4.130   9.415   1.332  0.0734 -0.7097 -0.7344
  731MOL0     C96369   4.009   9.440   1.408  0.2685  0.4229 -0.4778
  731MOL0     C96370   3.958   9.591   1.378 -1.0884  0.1616 -0.2439
  731MOL0     C96371   3.869   9.645   1.479  0.0232 -0.5842 -0.1132
  731MOL0     C96372   3.776   9.764   1.434  0.1307 -0.0882 -0.2080
  731MOL0     C96373   3.629   9.725   1.403 -0.0954  0.4060  0.0623
  731MOL0     C96374   3.625   9.610   1.304 -0.0402 -0.1136  0.6603
  731MOL0     C96375   3.480   9.571   1.265  0.0901 -0.9322  0.4559
  731MOL0     C96376   3.392   9.679   1.232 -0.6160 -0.7889 -0.2477
  731MOL0     N96377   3.274   9.649   1.152 -0.9747  0.2085 -0.1641
  731MOL0     C96378   3.154   9.616   1.210 -0.6333 -0.7787 -0.7752
  731MOL0     C96379   3.073   9.603   1.113  0.2219  0.0456 -0.1331
  731MOL0     C96380   2.926   9.570   1.134  0.5078 -0.3606  0.4520
  731MOL0     C96381   2.852   9.697   1.175  0.1752  0.2991 -0.4570
  731MOL0     C96382   2.726   9.661   1.226  0.3886 -0.3805  0.2806
  731MOL0     C96383   2.667   9.788   1.291 -0.1299 -0.6193 -0.5165
  731MOL0     O96384   2.641   9.888   1.188 -0.2006  0.2047 -0.3299
  731MOL0     C96385   2.553   9.985   1.228  0.1934  0.0482 -0.3063
  731MOL0     C96386   2.560  10.029   1.360 -0.8638 -0.0852  0.1135
  731MOL0     C96387   2.471  10.123   1.409 -0.8365  1.0772 -0.4871
  731MOL0     C96388   2.361  10.164   1.331  0.1524 -0.0827 -0.4109
  731MOL0     C96389   2.266  10.272   1.381 -0.4762  0.4967  0.2774
  731MOL0     O96390   2.145  10.262   1.323 -0.1080 -0.4720  0.1650
  731MOL0     C96391   2.052  10.343   1.368  0.5327 -0.7697 -0.9547
  731MOL0     C96392   2.036  10.481   1.331  0.1543 -0.5129  0.0595
  731MOL0     C96393   1.943  10.566   1.395  0.0358 -0.3767  0.5824
  731MOL0     C96394   1.859  10.505   1.490  0.5230 -1.1863  0.4749
  731MOL0     O96395   1.780  10.584   1.568  0.3499 -0.5119  0.1670
  731MOL0     C96396   1.666  10.515   1.624 -1.1413 -0.4210 -0.0241
  731MOL0     C96397   1.558  10.601   1.694  0.3698  0.1163  1.2566
  731MOL0     C96398   1.501  10.548   1.824 -0.4827  0.2760 -0.6547
  731MOL0     C96399   1.424  10.654   1.906 -0.0143 -0.7632 -0.1022
  731MOL0     C96400   1.325  10.588   2.011 -0.9269  0.6955  0.2625
  731MOL0     C96401   1.243  10.693   2.093 -0.3960 -0.3279 -0.1826
  731MOL0     C96402   1.333  10.794   2.175 -0.5916  0.0860 -0.0162
  731MOL0     C96403   1.240  10.894   2.238  0.3631  0.0723 -0.5969
  731MOL0    Cl96404   1.191  10.840   2.395  0.2255 -0.6592 -0.7198
  731MOL0     C96405   1.860  10.368   1.505  0.0035  1.1634  0.7549
  731MOL0     C96406   1.955  10.284   1.445 -0.4206 -0.7392  0.7090
  731MOL0     O96407   2.299  10.322   1.487 -0.1890 -0.1634 -0.5452
  731MOL0     C96408   2.350  10.119   1.203 -0.3580 -0.7823  1.2444
  731MOL0     C96409   2.447  10.033   1.144 -0.2666  0.6546 -0.1473
  731MOL0     N96410   3.132   9.621   0.991  0.7534 -0.5949  0.3480
  731MOL0     N96411   3.257   9.652   1.016 -0.1877  0.1962 -0.0131
  731MOL0     C96412   4.331   9.528   1.270  0.2761 -0.7111 -0.4540
  731MOL0     C96413   4.442   9.604   1.293  0.0598 -0.7656 -0.3726
  731MOL0     C96414   4.762   9.878   1.460  0.5016 -0.1527  0.5109
  731MOL0     C96415   4.852   9.956   1.383  0.1813 -0.4271 -1.2302
  731MOL0     C96416   4.941  10.045   1.446  0.5999 -0.9785  0.4817
  731MOL0     C96417   4.960  10.045   1.587 -0.0573  0.2434 -0.4964
  731MOL0     O96418   5.052  10.119   1.661  0.1693  0.1285 -0.6257
  731MOL0     C96419   5.145  10.204   1.593  0.2276  0.3556  0.5824
  731MOL0     C96420   5.209  10.292   1.697 -0.3469  0.2693 -0.3589
  731MOL0     C96421   5.107  10.389   1.764 -0.5652 -0.4088  0.8658
  731MOL0     C96422   5.168  10.462   1.882  0.3368 -0.4687  0.7451
  731MOL0     C96423   5.181  10.379   1.993 -0.0307  0.2555  0.7067
  731MOL0     C96424   5.199  10.316   2.097  0.1300  0.5646 -0.1007
  731MOL0     C96425   4.870   9.961   1.662  0.3787  0.3789  0.3767
  731MOL0     C96426   4.768   9.884   1.594  0.5009 -0.3392 -0.0287
  731MOL0     H96427   4.420   9.627   1.637  3.3838 -1.8866  0.0569
  731MOL0     H96428   4.196   9.522   1.574 -0.6440  0.0534 -1.6498
  731MOL0     H96429   4.027   9.428   1.515 -1.6667  1.2362 -0.0251
  731MOL0     H96430   3.936   9.366   1.376 -2.4366  2.9121 -0.4356
  731MOL0     H96431   3.911   9.591   1.279 -0.3841 -0.9986 -0.6049
  731MOL0     H96432   4.047   9.654   1.374 -0.9296 -0.1225 -1.6238
  731MOL0     H96433   3.927   9.682   1.564  0.3988 -0.2518 -0.5089
  731MOL0     H96434   3.806   9.566   1.523  0.8832 -0.5016  1.3221
  731MOL0     H96435   3.766   9.827   1.523 -1.0061  1.5325 -1.4216
  731MOL0     H96436   3.821   9.825   1.356  1.6623  2.5845  2.5488
  731MOL0     H96437   3.570   9.814   1.378 -1.6893  0.2454  2.8656
  731MOL0     H96438   3.586   9.688   1.496  1.5191  0.8060  1.0002
  731MOL0     H96439   3.674   9.522   1.346  0.7372 -0.9369 -1.7782
  731MOL0     H96440   3.679   9.650   1.218  0.1302  1.4190  1.4385
  731MOL0     H96441   3.492   9.505   1.178  1.2060  0.5049 -0.5386
  731MOL0     H96442   3.439   9.505   1.342  3.3698 -0.3894  2.8946
  731MOL0     H96443   3.448   9.758   1.181 -0.5284  0.6658  1.9438
  731MOL0     H96444   3.358   9.730   1.324 -2.6785  1.2187 -1.9864
  731MOL0     H96445   3.133   9.598   1.315  1.8818  2.3969  0.4476
  731MOL0     H96446   2.937   9.506   1.221  2.6621 -0.7928 -0.0807
  731MOL0     H96447   2.894   9.515   1.045 -0.2868 -0.1653  0.6157
  731MOL0     H96448   2.845   9.769   1.093 -2.2530 -0.2408 -0.8028
  731MOL0     H96449   2.918   9.740   1.251  2.2884 -1.8339 -0.9711
  731MOL0     H96450   2.658   9.647   1.141 -0.1254  1.3157  0.3806
  731MOL0     H96451   2.711   9.583   1.301 -2.3781 -0.8685 -0.6486
  731MOL0     H96452   2.736   9.822   1.369 -0.9343  0.1891 -0.1422
  731MOL0     H96453   2.574   9.755   1.338  0.3587 -0.7661  0.3731
  731MOL0     H96454   2.625   9.996   1.440  1.5463  3.3906 -0.1455
  731MOL0     H96455   2.494  10.168   1.505  1.5455  1.4185 -1.1509
  731MOL0     H96456   2.104  10.524   1.257  0.7542 -1.9631 -0.2668
  731MOL0     H96457   1.956  10.673   1.383 -0.2836 -0.4276 -0.2699
  731MOL0     H96458   1.697  10.444   1.700  1.1651  1.8632  1.3522
  731MOL0     H96459   1.611  10.460   1.547 -0.2916 -2.7080  0.9271
  731MOL0     H96460   1.478  10.617   1.621  0.5500 -3.4310  0.0591
  731MOL0     H96461   1.609  10.693   1.721  1.9124  0.3052 -1.8186
  731MOL0     H96462   1.576  10.499   1.887  0.5493 -0.6524 -2.5194
  731MOL0     H96463   1.430  10.469   1.796  0.0927  0.6357 -3.4442
  731MOL0     H96464   1.486  10.730   1.955 -0.3847 -2.1468  2.6839
  731MOL0     H96465   1.374  10.710   1.827  0.1355 -0.6986 -0.1511
  731MOL0     H96466   1.384  10.526   2.078 -0.9635 -1.4831 -1.5804
  731MOL0     H96467   1.260  10.517   1.957 -0.4798  1.1356 -0.8900
  731MOL0     H96468   1.188  10.638   2.171 -1.2958  1.2650  0.3464
  731MOL0     H96469   1.179  10.747   2.024 -0.1373 -0.3114 -0.4114
  731MOL0     H96470   1.390  10.739   2.251 -0.0254  1.1937  0.3787
  731MOL0     H96471   1.411  10.850   2.122  1.3176 -0.9967  1.5003
  731MOL0     H96472   1.146  10.910   2.184  0.9446  3.9648 -0.8063
  731MOL0     H96473   1.292  10.990   2.249 -2.3430  1.6875 -0.7447
  731MOL0     H96474   1.786  10.318   1.568  1.3956  1.8530  3.0468
  731MOL0     H96475   1.964  10.178   1.465 -1.3373 -0.8101  0.7963
  731MOL0     H96476   2.274  10.162   1.139  0.4241 -2.7064 -1.0914
  731MOL0     H96477   2.423   9.997   1.044 -4.4183  3.2968 -0.3509
  731MOL0     H96478   4.311   9.497   1.168 -2.3033  2.1055 -0.9501
  731MOL0     H96479   4.496   9.642   1.207  2.5218 -0.4791  1.1823
  731MOL0     H96480   4.861   9.946   1.275 -0.2062  0.5644 -1.3609
  731MOL0     H96481   5.003  10.104   1.380 -0.2563 -1.9378 -1.2376
  731MOL0     H96482   5.084  10.271   1.532  0.7523  0.0950 -0.2464
  731MOL0     H96483   5.206  10.142   1.526  0.3410  1.2844 -0.1933
  731MOL0     H96484   5.266  10.228   1.765  1.0909  1.3509 -0.4854
  731MOL0     H96485   5.281  10.358   1.648 -1.8233  1.0487 -1.5598
  731MOL0     H96486   5.011  10.339   1.785 -1.9192  1.7878  0.1781
  731MOL0     H96487   5.084  10.467   1.692  3.4716 -0.0620 -0.2977
  731MOL0     H96488   5.264  10.504   1.854 -0.3893 -0.1489 -1.4160
  731MOL0     H96489   5.101  10.536   1.926  0.1095 -0.1009 -0.2130
  731MOL0     H96490   5.213  10.256   2.184 -0.1362  0.2555 -0.2693
  731MOL0     H96491   4.878   9.947   1.770  1.9423 -1.8348  0.0444
  731MOL0     H96492   4.707   9.822   1.659  0.8133  0.0179  0.6250
  732MOL0     O96493  10.413   6.821   9.979 -0.2293  0.2566 -0.5888
  732MOL0     C96494  10.407   6.695   9.979  0.3129 -0.1611  1.3547
  732MOL0     O96495  10.287   6.620   9.992  0.1035  0.8319 -0.4714
  732MOL0     C96496  10.177   6.698  10.039  0.0404  0.3161 -0.4781
  732MOL0     C96497  10.180   6.764  10.168 -0.6341 -0.2789  0.5212
  732MOL0     C96498  10.067   6.814  10.229  0.1489 -0.0293  0.7629
  732MOL0     C96499   9.943   6.821  10.156 -0.0995 -0.7078  0.7619
  732MOL0     O96500   9.838   6.875  10.221  0.6510  0.1416 -0.1685
  732MOL0     C96501   9.707   6.834  10.174  0.3695  1.5949  0.3528
  732MOL0     C96502   9.641   6.916  10.052  1.9657  0.3039  0.3289
  732MOL0     C96503   9.507   6.852  10.012  0.2968  0.3204 -1.1030
  732MOL0     C96504   9.444   6.911   9.880 -0.0349  0.1075  0.4529
  732MOL0     C96505   9.300   6.871   9.852 -0.2422 -0.1766  0.3481
  732MOL0     C96506   9.212   6.954   9.951  0.0352 -0.0548  0.1846
  732MOL0     C96507   9.058   6.938   9.933  0.1829  0.4138  0.8046
  732MOL0     C96508   9.007   6.824  10.025 -0.3799 -1.0679  0.5874
  732MOL0     N96509   8.863   6.815  10.017  0.1623  1.0724 -0.2952
  732MOL0     C96510   8.793   6.770   9.903 -0.1552  0.2555 -0.0270
  732MOL0     C96511   8.668   6.733   9.952 -0.3101  0.6292  0.6688
  732MOL0     C96512   8.542   6.691   9.870 -0.2451  0.1771 -1.1430
  732MOL0     C96513   8.429   6.633   9.961  0.1256 -0.8930  0.1721
  732MOL0     C96514   8.313   6.580   9.876 -1.5921  0.5591 -0.2883
  732MOL0     C96515   8.174   6.586   9.955  0.0863  0.5488 -0.9701
  732MOL0     O96516   8.076   6.490   9.898 -0.0063  0.2924 -0.5992
  732MOL0     C96517   7.956   6.478   9.960 -0.2851  0.0004 -0.5121
  732MOL0     C96518   7.926   6.533  10.085  0.3296 -0.4728 -0.3176
  732MOL0     C96519   7.804   6.511  10.152 -0.1802  0.2886 -0.5038
  732MOL0     C96520   7.705   6.434  10.082 -0.4846 -0.4199 -0.0534
  732MOL0     C96521   7.578   6.395  10.152  0.5112 -0.2241  0.0479
  732MOL0     O96522   7.467   6.350  10.085 -1.1991 -0.3934  1.2321
  732MOL0     C96523   7.355   6.320  10.155  0.8051  0.7543  0.1230
  732MOL0     C96524   7.360   6.218  10.254  0.2346 -1.1598  0.0332
  732MOL0     C96525   7.236   6.192  10.324 -0.5040  0.0684  0.2884
  732MOL0     C96526   7.110   6.259  10.305  0.4531 -1.3135  0.1392
  732MOL0     O96527   7.005   6.209  10.382  0.3324 -0.3286  0.5517
  732MOL0     C96528   6.920   6.314  10.414  1.3055  0.1305 -0.1068
  732MOL0     C96529   6.810   6.250  10.513 -0.2979  0.7753 -0.2472
  732MOL0     C96530   6.673   6.308  10.499  0.1762 -0.3410  0.5185
  732MOL0     C96531   6.560   6.229  10.568  0.0768 -0.0518  0.0462
  732MOL0     C96532   6.519   6.283  10.707 -0.2273  0.2396 -0.2261
  732MOL0     C96533   6.387   6.207  10.758  0.3619 -0.0916 -0.2910
  732MOL0     C96534   6.384   6.209  10.910  0.3471 -0.3176 -0.4487
  732MOL0     C96535   6.239   6.208  10.964 -0.9863 -0.1822  0.1643
  732MOL0    Cl96536   6.150   6.051  10.945 -0.1218  0.0582 -0.1729
  732MOL0     C96537   7.112   6.358  10.199  0.0879 -0.3052 -0.2394
  732MOL0     C96538   7.233   6.387  10.134  0.6914  0.6490 -0.0176
  732MOL0     O96539   7.584   6.397  10.275  0.5303  0.4563  0.8705
  732MOL0     C96540   7.736   6.393   9.947 -0.5621 -0.9050  0.2765
  732MOL0     C96541   7.867   6.401   9.897  0.7028 -0.3081  0.0939
  732MOL0     N96542   8.661   6.764  10.088 -0.1689  0.0156  0.2464
  732MOL0     N96543   8.782   6.796  10.129 -0.3704 -0.2362  0.2151
  732MOL0     C96544   9.945   6.760  10.027 -0.2704 -0.5159 -0.5077
  732MOL0     C96545  10.057   6.700   9.973 -0.0638  0.1322  0.1972
  732MOL0     C96546  10.529   6.616   9.956 -0.3740 -0.2276 -0.4313
  732MOL0     C96547  10.639   6.686   9.905 -0.2557 -0.5566 -0.2902
  732MOL0     C96548  10.747   6.611   9.876 -0.2002  0.0784  0.3783
  732MOL0     C96549  10.747   6.467   9.874  1.0812  0.1460  0.0461
  732MOL0     O96550  10.857   6.392   9.823  0.1000  0.0263 -0.1494
  732MOL0     C96551  10.881   6.407   9.686 -0.2619 -0.0932 -0.0182
  732MOL0     C96552  11.037   6.404   9.666  1.2490 -0.6204  0.4592
  732MOL0     C96553  11.118   6.522   9.720  0.8699  0.2855  0.5351
  732MOL0     C96554  11.227   6.571   9.631 -0.3037  0.1225  0.1410
  732MOL0     C96555  11.344   6.483   9.617  0.8362  0.7044 -0.6871
  732MOL0     C96556  11.440   6.408   9.619 -0.3263 -0.1939 -0.1795
  732MOL0     C96557  10.638   6.399   9.927  0.0951 -0.3839 -0.1234
  732MOL0     C96558  10.538   6.479   9.975  0.8052  0.1168  0.4748
  732MOL0     H96559  10.271   6.755  10.225 -1.8351  0.7310  2.7416
  732MOL0     H96560  10.069   6.828  10.336 -0.7712 -2.1538  1.1168
  732MOL0     H96561   9.641   6.833  10.261  2.8468 -0.4889  2.4050
  732MOL0     H96562   9.703   6.728  10.145 -1.7497  1.6909  0.1737
  732MOL0     H96563   9.706   6.921   9.964  1.6833 -0.4235  0.0647
  732MOL0     H96564   9.617   7.015  10.090 -0.1183 -0.9288  2.4422
  732MOL0     H96565   9.438   6.858  10.097 -0.8039 -0.7506 -1.8816
  732MOL0     H96566   9.523   6.744  10.005 -2.9624 -0.3738  0.3993
  732MOL0     H96567   9.447   7.018   9.904  0.9673 -0.0184  0.9327
  732MOL0     H96568   9.507   6.889   9.794 -2.0633  0.0833 -1.0859
  732MOL0     H96569   9.285   6.767   9.883  1.4636  0.0399  2.0983
  732MOL0     H96570   9.259   6.878   9.751 -2.4216 -0.6557  1.1322
  732MOL0     H96571   9.230   7.058   9.923  3.0738 -0.6435 -0.4400
  732MOL0     H96572   9.242   6.935  10.055  0.2024  1.3237  0.4073
  732MOL0     H96573   9.016   7.036   9.957 -0.8539 -0.1708  1.4570
  732MOL0     H96574   9.033   6.910   9.831  1.8991 -0.9054  0.7037
  732MOL0     H96575   9.036   6.854  10.126  2.2469 -1.9178  0.1655
  732MOL0     H96576   9.039   6.721  10.006  0.4714 -0.5326 -1.0497
  732MOL0     H96577   8.815   6.761   9.797 -2.3991  0.7759 -0.5917
  732MOL0     H96578   8.564   6.612   9.797  0.0049 -0.1816 -0.6896
  732MOL0     H96579   8.504   6.780   9.820 -1.2425  1.5541  1.8131
  732MOL0     H96580   8.383   6.709  10.026  0.2318 -0.8733  0.2253
  732MOL0     H96581   8.467   6.559  10.033  0.5582  0.7278  1.6851
  732MOL0     H96582   8.310   6.638   9.783  0.4432 -0.9261 -1.3636
  732MOL0     H96583   8.344   6.477   9.857 -1.8601 -0.0575  2.3121
  732MOL0     H96584   8.136   6.685   9.929  3.7477  1.8414 -2.1372
  732MOL0     H96585   8.182   6.580  10.064 -1.2398  0.1144 -0.8765
  732MOL0     H96586   7.986   6.603  10.142 -0.3617  0.4169 -0.6494
  732MOL0     H96587   7.779   6.544  10.252 -1.6118 -0.1967 -0.6866
  732MOL0     H96588   7.454   6.170  10.276 -0.0451 -0.9640  1.7993
  732MOL0     H96589   7.229   6.120  10.405 -0.1619 -0.7021 -0.3538
  732MOL0     H96590   6.870   6.338  10.319  0.6466  0.7411  0.3846
  732MOL0     H96591   6.965   6.404  10.457  1.3462 -0.2522  0.6689
  732MOL0     H96592   6.836   6.262  10.618 -0.7127 -3.0621  0.4136
  732MOL0     H96593   6.794   6.146  10.486 -2.1424  0.8322  0.5019
  732MOL0     H96594   6.657   6.316  10.391  0.5459 -0.7359  0.4346
  732MOL0     H96595   6.679   6.410  10.539  1.5032  0.3876 -1.3526
  732MOL0     H96596   6.478   6.238  10.496 -3.1257 -2.8037  3.0342
  732MOL0     H96597   6.579   6.121  10.561 -2.5688 -0.4915 -1.4940
  732MOL0     H96598   6.488   6.388  10.697 -1.5856 -0.1583 -0.4023
  732MOL0     H96599   6.605   6.268  10.772 -0.6443  0.2463  0.3384
  732MOL0     H96600   6.394   6.104  10.722  0.8408 -0.6978  1.4654
  732MOL0     H96601   6.298   6.259  10.722  0.5888  0.1574 -0.5020
  732MOL0     H96602   6.445   6.135  10.963  0.1116  0.8987  1.6624
  732MOL0     H96603   6.423   6.307  10.940  0.7621 -0.6359  0.0645
  732MOL0     H96604   6.174   6.283  10.917  0.2930  0.5994 -0.4118
  732MOL0     H96605   6.243   6.227  11.071 -0.1097 -0.1656  0.1380
  732MOL0     H96606   7.026   6.422  10.186 -1.2210 -1.6358  1.3123
  732MOL0     H96607   7.222   6.471  10.067  0.8307 -1.4579 -2.8871
  732MOL0     H96608   7.658   6.336   9.898 -1.0279 -0.5622  0.6135
  732MOL0     H96609   7.896   6.376   9.795 -0.0921  0.6931 -0.3876
  732MOL0     H96610   9.862   6.765   9.957  0.6203  0.0692 -1.5491
  732MOL0     H96611  10.061   6.655   9.874  0.0391 -0.6044  0.5267
  732MOL0     H96612  10.640   6.795   9.905 -0.0951 -0.4711 -3.5019
  732MOL0     H96613  10.838   6.665   9.850 -1.3032  2.3519  1.0003
  732MOL0     H96614  10.839   6.499   9.645  2.6141  1.4778  0.2276
  732MOL0     H96615  10.829   6.328   9.631 -1.2345 -0.1155  0.9078
  732MOL0     H96616  11.077   6.313   9.712  1.4520 -0.2182  1.0953
  732MOL0     H96617  11.049   6.393   9.558  1.4321  1.0330  0.2889
  732MOL0     H96618  11.148   6.500   9.823 -1.0718  2.5048  1.6576
  732MOL0     H96619  11.047   6.605   9.730  1.3774  0.6953  0.8158
  732MOL0     H96620  11.190   6.590   9.530 -3.3235 -0.3318  1.0551
  732MOL0     H96621  11.278   6.662   9.664  0.0990  0.5730 -1.6217
  732MOL0     H96622  11.526   6.347   9.638  2.2867  2.6592 -1.9309
  732MOL0     H96623  10.643   6.291   9.929  2.2321 -0.3243  0.2637
  732MOL0     H96624  10.446   6.433  10.011 -0.4262  0.4697 -1.9930
  733MOL0     O96625   2.865   9.432   7.182  0.0484  0.1881 -0.3591
  733MOL0     C96626   2.783   9.523   7.198 -0.5591  0.1307  0.5729
  733MOL0     O96627   2.666   9.527   7.130  0.2412  0.5649 -0.4062
  733MOL0     C96628   2.648   9.433   7.029 -0.6408 -0.0661 -0.3785
  733MOL0     C96629   2.735   9.441   6.917 -0.4895 -0.5579  0.3972
  733MOL0     C96630   2.716   9.357   6.809 -1.1210 -0.4968  0.4699
  733MOL0     C96631   2.625   9.250   6.813  1.0290  0.7920 -0.3476
  733MOL0     O96632   2.609   9.150   6.718  0.2937 -1.5681  0.7105
  733MOL0     C96633   2.563   9.199   6.591 -0.0656 -0.4780  0.4512
  733MOL0     C96634   2.496   9.093   6.513  0.1312 -0.7637  0.2615
  733MOL0     C96635   2.569   8.956   6.521 -0.1657  0.2553  0.6246
  733MOL0     C96636   2.700   8.950   6.450  0.1148 -0.2103 -0.3069
  733MOL0     C96637   2.760   8.808   6.432 -0.0662 -0.2685  0.6911
  733MOL0     C96638   2.823   8.755   6.565 -0.8361  0.4030 -0.0844
  733MOL0     C96639   2.816   8.600   6.588 -0.2965 -0.7086  0.1397
  733MOL0     C96640   2.883   8.538   6.706  0.9452  0.2008 -0.7579
  733MOL0     N96641   3.025   8.516   6.668 -0.4664  0.5109 -0.2063
  733MOL0     C96642   3.086   8.398   6.654 -0.3224 -0.0901 -0.7676
  733MOL0     C96643   3.220   8.416   6.642  0.5741  0.7987 -0.4580
  733MOL0     C96644   3.317   8.299   6.647  0.1639  0.2585 -0.0381
  733MOL0     C96645   3.374   8.274   6.512 -0.1481 -0.0499  0.4003
  733MOL0     C96646   3.299   8.177   6.414  0.7301  0.2593  0.2190
  733MOL0     C96647   3.148   8.215   6.381 -0.2070 -0.2561  0.1315
  733MOL0     O96648   3.147   8.357   6.348  0.6251 -0.5898  0.0295
  733MOL0     C96649   3.040   8.406   6.274 -0.0596 -0.0572 -1.0998
  733MOL0     C96650   3.046   8.547   6.257  0.4210 -0.5381 -0.1569
  733MOL0     C96651   2.951   8.615   6.182  0.1459  0.0921  0.2717
  733MOL0     C96652   2.839   8.547   6.147  0.8778 -0.9718 -0.2324
  733MOL0     C96653   2.732   8.633   6.096 -0.2192  0.2792  0.3039
  733MOL0     O96654   2.749   8.763   6.081  0.4163 -0.8990  0.2920
  733MOL0     C96655   2.653   8.839   6.015 -0.4369  0.6603 -0.0621
  733MOL0     C96656   2.653   8.845   5.870 -0.8825 -0.7539  0.1831
  733MOL0     C96657   2.554   8.910   5.798 -0.2456  0.1275 -0.3173
  733MOL0     C96658   2.460   8.985   5.869 -0.0342 -0.7562 -0.5312
  733MOL0     O96659   2.380   9.080   5.811 -0.0978  0.3020 -0.1270
  733MOL0     C96660   2.396   9.126   5.677 -0.1347 -0.4524  0.1064
  733MOL0     C96661   2.315   9.258   5.658  0.1815  0.1071  0.1943
  733MOL0     C96662   2.177   9.257   5.720  0.1477 -0.2189  0.6218
  733MOL0     C96663   2.094   9.390   5.698 -0.7418  1.4398 -0.4363
  733MOL0     C96664   1.948   9.376   5.704  0.4416 -0.5333 -0.5519
  733MOL0     C96665   1.893   9.520   5.710 -0.8470 -0.6793  0.3042
  733MOL0     C96666   1.737   9.530   5.681  1.3457 -0.1625  0.5050
  733MOL0     C96667   1.680   9.670   5.682 -0.4824  0.4197 -1.0700
  733MOL0    Cl96668   1.511   9.664   5.629 -0.4340  0.5602  0.3475
  733MOL0     C96669   2.455   8.974   6.011  0.5581 -0.3543  0.5462
  733MOL0     C96670   2.543   8.896   6.085 -0.2220 -0.1518 -0.2413
  733MOL0     O96671   2.626   8.581   6.067 -0.0661  0.0305 -0.2197
  733MOL0     C96672   2.821   8.409   6.175 -0.8643 -0.2364 -0.4035
  733MOL0     C96673   2.918   8.340   6.253 -1.3897 -0.7018  0.3725
  733MOL0     N96674   3.247   8.547   6.674  0.5223  0.7736 -0.1957
  733MOL0     N96675   3.132   8.612   6.677  0.1412 -0.1649  0.3127
  733MOL0     C96676   2.542   9.238   6.923  0.6663 -0.7925 -0.8944
  733MOL0     C96677   2.547   9.334   7.029  0.1845 -0.0155  0.2116
  733MOL0     C96678   2.835   9.637   7.280 -1.3215  0.8008  0.2628
  733MOL0     C96679   2.949   9.634   7.370  0.4728  0.1015  0.8619
  733MOL0     C96680   2.985   9.743   7.436 -0.3329 -0.1274  0.3800
  733MOL0     C96681   2.917   9.857   7.421  0.3301 -0.3277 -0.2210
  733MOL0     O96682   2.928   9.977   7.487 -0.5436  0.0381  0.0750
  733MOL0     C96683   3.029  10.061   7.431 -0.3225  0.7833 -0.0812
  733MOL0     C96684   3.120  10.093   7.543 -0.5347 -0.1681 -0.9125
  733MOL0     C96685   3.240  10.183   7.488  0.4984 -0.2118 -0.2339
  733MOL0     C96686   3.362  10.096   7.442 -0.0065 -0.5786 -0.4816
  733MOL0     C96687   3.344   9.973   7.375 -0.0835 -0.3057 -0.0145
  733MOL0     C96688   3.299   9.872   7.321  0.1956 -0.4388 -0.2504
  733MOL0     C96689   2.811   9.866   7.336 -0.4658 -0.0628  0.1105
  733MOL0     C96690   2.771   9.758   7.268  0.0507 -0.3458  0.1610
  733MOL0     H96691   2.821   9.506   6.911 -1.4575  0.8006  0.9305
  733MOL0     H96692   2.778   9.373   6.722 -0.7931 -0.1272  0.7736
  733MOL0     H96693   2.650   9.243   6.541  0.0161 -1.5312 -0.3624
  733MOL0     H96694   2.492   9.280   6.610  0.3636 -0.3128  1.4233
  733MOL0     H96695   2.495   9.115   6.406  1.1739  1.5036  0.6656
  733MOL0     H96696   2.394   9.083   6.549  0.0405 -1.7752 -0.2333
  733MOL0     H96697   2.510   8.874   6.479 -1.0147  1.9465 -1.7349
  733MOL0     H96698   2.587   8.936   6.627 -0.5742 -0.8658  0.5052
  733MOL0     H96699   2.688   8.994   6.351 -0.2052  2.9584  1.0320
  733MOL0     H96700   2.777   9.006   6.504  0.0658  1.4411 -1.8863
  733MOL0     H96701   2.839   8.812   6.357 -1.3129 -0.0480 -0.6391
  733MOL0     H96702   2.684   8.739   6.394 -0.4629  0.1756  0.6696
  733MOL0     H96703   2.787   8.803   6.656 -0.1020 -3.1735  2.3064
  733MOL0     H96704   2.930   8.775   6.553 -0.4832 -0.6157  1.1332
  733MOL0     H96705   2.710   8.577   6.600 -0.7830  0.7929 -1.0245
  733MOL0     H96706   2.846   8.550   6.495 -1.4053 -1.7538  0.3096
  733MOL0     H96707   2.837   8.441   6.727  2.1750  0.2337  2.8493
  733MOL0     H96708   2.865   8.610   6.787 -0.3325 -1.6210  0.6890
  733MOL0     H96709   3.041   8.300   6.646  0.8698 -0.7507  0.2862
  733MOL0     H96710   3.255   8.210   6.664  2.7870 -2.1945 -2.2968
  733MOL0     H96711   3.394   8.311   6.723 -0.8756  1.5217  0.8708
  733MOL0     H96712   3.475   8.234   6.529 -0.5564 -2.2311 -1.7667
  733MOL0     H96713   3.390   8.366   6.454 -2.0480  0.3042  0.3801
  733MOL0     H96714   3.357   8.146   6.326  3.1479  1.0328  1.4519
  733MOL0     H96715   3.293   8.083   6.470  0.5948 -0.3456 -0.7743
  733MOL0     H96716   3.082   8.198   6.467 -1.0715  2.3391  0.0861
  733MOL0     H96717   3.109   8.166   6.292  1.7933 -0.1838 -0.8400
  733MOL0     H96718   3.125   8.603   6.307  1.6389 -2.6386  0.3885
  733MOL0     H96719   2.970   8.721   6.169  1.1078  0.0474  1.1959
  733MOL0     H96720   2.735   8.786   5.831 -1.4849 -2.4744  1.4087
  733MOL0     H96721   2.561   8.916   5.690 -2.7394  3.6774 -0.4762
  733MOL0     H96722   2.372   9.058   5.594 -0.5366  0.7192 -0.7683
  733MOL0     H96723   2.501   9.154   5.662 -0.3264 -1.3273 -4.5851
  733MOL0     H96724   2.309   9.285   5.552  1.3924  0.9913  0.3272
  733MOL0     H96725   2.378   9.335   5.703  0.0668  1.0960 -1.2870
  733MOL0     H96726   2.173   9.222   5.824 -0.1907 -1.5736  0.1761
  733MOL0     H96727   2.124   9.176   5.670  2.6554 -3.1271  2.3084
  733MOL0     H96728   2.114   9.474   5.765 -4.2438  2.9545 -1.0507
  733MOL0     H96729   2.111   9.421   5.594 -3.3978  0.9205 -1.0927
  733MOL0     H96730   1.914   9.325   5.794 -0.1292 -3.6902 -2.4306
  733MOL0     H96731   1.915   9.313   5.621  1.4458 -0.9132 -0.6796
  733MOL0     H96732   1.942   9.589   5.641 -4.8568  1.0715 -1.1447
  733MOL0     H96733   1.914   9.543   5.815 -0.9265 -3.9331  1.1363
  733MOL0     H96734   1.713   9.488   5.583  2.9739  1.6908 -0.7644
  733MOL0     H96735   1.675   9.475   5.753  1.0995  1.2038  1.3881
  733MOL0     H96736   1.739   9.725   5.608 -1.9378  0.9399 -1.8882
  733MOL0     H96737   1.699   9.710   5.782  0.2141 -0.6277 -0.7676
  733MOL0     H96738   2.387   9.036   6.068 -0.4649 -0.1076 -0.9015
  733MOL0     H96739   2.524   8.899   6.192 -1.1649 -2.6457 -0.2761
  733MOL0     H96740   2.730   8.364   6.137 -0.4036  0.2528 -2.2392
  733MOL0     H96741   2.899   8.235   6.274  1.3250 -1.3201  0.2316
  733MOL0     H96742   2.475   9.153   6.929  0.8979 -1.1374 -2.6761
  733MOL0     H96743   2.486   9.326   7.119 -0.1578  0.4265  0.0249
  733MOL0     H96744   3.014   9.547   7.362 -1.5073 -1.4216  0.6766
  733MOL0     H96745   3.069   9.738   7.505  0.4019  1.5571 -0.3505
  733MOL0     H96746   2.997  10.154   7.383  0.8198  1.4609  0.4382
  733MOL0     H96747   3.082   9.997   7.360  1.3860  2.1158 -0.0666
  733MOL0     H96748   3.068  10.150   7.621  2.4463  0.5419  0.7150
  733MOL0     H96749   3.158  10.010   7.602 -1.4434 -0.2659 -0.4416
  733MOL0     H96750   3.271  10.253   7.567 -0.9319 -0.2185  0.3629
  733MOL0     H96751   3.207  10.236   7.398  2.2863 -0.6709 -1.2064
  733MOL0     H96752   3.420  10.160   7.375  0.6326  0.4581  1.0006
  733MOL0     H96753   3.420  10.083   7.534 -3.7111 -0.7242  2.0700
  733MOL0     H96754   3.267   9.788   7.262 -1.7736  1.6041 -2.2489
  733MOL0     H96755   2.760   9.961   7.338  3.3224  2.1832  2.0480
  733MOL0     H96756   2.681   9.769   7.209  0.6475 -0.8975 -0.8784
  734MOL0     O96757   8.393   4.475   9.593  0.4951 -0.2125 -0.4819
  734MOL0     C96758   8.515   4.464   9.563  0.9862 -0.4897 -0.6699
  734MOL0     O96759   8.583   4.536   9.464  0.0162  0.0395 -0.1707
  734MOL0     C96760   8.520   4.635   9.395 -0.6347  0.4849  1.3274
  734MOL0     C96761   8.597   4.751   9.363 -0.9228 -0.7140 -0.9492
  734MOL0     C96762   8.528   4.851   9.289 -0.8459  0.3366  0.3373
  734MOL0     C96763   8.388   4.849   9.271 -0.2891 -0.2478 -0.5182
  734MOL0     O96764   8.330   4.966   9.225  0.4524 -0.4949  0.0711
  734MOL0     C96765   8.188   4.992   9.262 -0.4341 -0.7437 -0.3164
  734MOL0     C96766   8.144   5.130   9.211 -0.8514 -0.0581  1.0914
  734MOL0     C96767   8.146   5.162   9.065 -0.7054  0.2076  0.1695
  734MOL0     C96768   8.111   5.312   9.030  0.4801 -0.0368  0.5938
  734MOL0     C96769   8.107   5.317   8.877  0.3649  0.4427 -0.8710
  734MOL0     C96770   8.075   5.455   8.826 -0.0025  0.0141  0.1780
  734MOL0     C96771   8.083   5.458   8.668 -0.6545 -0.4156 -0.5996
  734MOL0     C96772   8.053   5.601   8.611  0.1167 -1.1212  0.8366
  734MOL0     N96773   7.917   5.641   8.643  0.3253 -0.3543 -0.2920
  734MOL0     C96774   7.800   5.572   8.620 -0.3816  0.3247 -0.3280
  734MOL0     C96775   7.695   5.651   8.642  0.4276 -0.6608 -1.1714
  734MOL0     C96776   7.547   5.623   8.618  0.0944 -0.3618  0.4242
  734MOL0     C96777   7.498   5.702   8.497  0.0654  0.8330 -0.6988
  734MOL0     C96778   7.353   5.692   8.455  0.0262  0.1417 -0.4871
  734MOL0     C96779   7.259   5.629   8.564 -0.8093  0.0039 -1.3709
  734MOL0     O96780   7.129   5.640   8.507  0.1213 -0.3379 -0.3703
  734MOL0     C96781   7.021   5.624   8.591 -0.8515 -0.2267  0.3633
  734MOL0     C96782   7.012   5.655   8.727  0.1903 -0.4271 -0.3719
  734MOL0     C96783   6.894   5.625   8.798 -0.3519  0.7078 -0.3492
  734MOL0     C96784   6.782   5.568   8.733  1.5035  0.4629 -0.3656
  734MOL0     C96785   6.651   5.538   8.815  0.2224  0.9821  0.0253
  734MOL0     O96786   6.545   5.484   8.733 -0.0777  0.0551  0.2982
  734MOL0     C96787   6.418   5.482   8.786  0.4645 -0.1698  0.9943
  734MOL0     C96788   6.356   5.578   8.865  0.3769 -0.2480 -0.0872
  734MOL0     C96789   6.218   5.552   8.894  1.3747 -0.0066  0.0744
  734MOL0     C96790   6.149   5.449   8.829 -0.1893 -0.2564  0.3811
  734MOL0     O96791   6.017   5.446   8.827 -0.1416  0.7437 -0.3001
  734MOL0     C96792   5.961   5.339   8.894  0.1263  0.7038  0.0921
  734MOL0     C96793   5.858   5.405   8.983  0.6370  1.8098 -0.3815
  734MOL0     C96794   5.720   5.429   8.905 -0.8053  1.1306  0.2625
  734MOL0     C96795   5.633   5.514   8.996  0.8961 -0.7253  0.0566
  734MOL0     C96796   5.489   5.519   8.943  0.9547 -0.2976 -0.4060
  734MOL0     C96797   5.408   5.386   8.936 -0.2367  0.3471  0.6749
  734MOL0     C96798   5.260   5.390   8.912  0.0047  0.0557 -0.5849
  734MOL0     C96799   5.201   5.251   8.906  0.9270  0.5301 -0.6075
  734MOL0    Cl96800   5.028   5.272   8.934 -0.0156  0.1427  0.7075
  734MOL0     C96801   6.219   5.354   8.748  1.3509  0.1495 -0.1692
  734MOL0     C96802   6.358   5.368   8.733  0.6118  0.2621 -0.1287
  734MOL0     O96803   6.640   5.582   8.929 -0.1553 -0.5741 -0.2962
  734MOL0     C96804   6.795   5.529   8.595  0.4246  0.3161 -0.1195
  734MOL0     C96805   6.915   5.562   8.531 -0.0690 -0.2678 -0.0285
  734MOL0     N96806   7.749   5.769   8.700  0.3345 -0.8345  0.0491
  734MOL0     N96807   7.877   5.757   8.684  0.3882 -1.4806 -0.2037
  734MOL0     C96808   8.315   4.732   9.312  0.0093  0.2785  0.2119
  734MOL0     C96809   8.387   4.619   9.355  0.0131 -0.1248 -0.2147
  734MOL0     C96810   8.586   4.346   9.609  0.1190 -0.0337  1.0175
  734MOL0     C96811   8.699   4.310   9.531  0.0883 -0.0235 -0.0087
  734MOL0     C96812   8.781   4.211   9.580  0.5500 -0.3422 -0.1846
  734MOL0     C96813   8.750   4.143   9.701  0.0497 -0.2415  0.5820
  734MOL0     O96814   8.831   4.038   9.748  0.1838  0.3068  0.6876
  734MOL0     C96815   8.974   4.040   9.706  0.9314 -0.0556 -0.9106
  734MOL0     C96816   9.060   3.961   9.805  0.6720  0.3536 -1.2133
  734MOL0     C96817   9.003   3.830   9.851 -0.4064 -0.1807  0.0941
  734MOL0     C96818   9.103   3.760   9.947  0.5012  0.5605 -0.0239
  734MOL0     C96819   9.046   3.651  10.035 -0.2438 -0.2048  1.0587
  734MOL0     C96820   8.981   3.555  10.080  0.1311  0.5569  1.0346
  734MOL0     C96821   8.629   4.167   9.777  0.2130  0.3528  0.1394
  734MOL0     C96822   8.551   4.275   9.734  0.4910  0.2279  0.4414
  734MOL0     H96823   8.700   4.771   9.392  0.0268 -2.2283 -3.0528
  734MOL0     H96824   8.586   4.938   9.260  0.5195 -0.5664  0.2628
  734MOL0     H96825   8.178   4.981   9.370 -0.9279  2.0050 -0.0093
  734MOL0     H96826   8.130   4.915   9.209 -0.5591 -2.2475  1.8413
  734MOL0     H96827   8.217   5.193   9.263 -0.2810 -2.3672  3.3228
  734MOL0     H96828   8.045   5.158   9.249 -1.4614  1.0903 -1.1982
  734MOL0     H96829   8.067   5.099   9.024 -0.7006  0.9172 -0.9770
  734MOL0     H96830   8.241   5.135   9.018 -1.8021 -0.6604 -1.6353
  734MOL0     H96831   8.023   5.357   9.076  2.9318  3.9744  1.9023
  734MOL0     H96832   8.190   5.373   9.076 -0.9112  2.1325  0.2395
  734MOL0     H96833   8.027   5.249   8.847  1.9998 -1.6813 -0.5803
  734MOL0     H96834   8.201   5.285   8.832  1.8090  1.1073  1.5301
  734MOL0     H96835   8.159   5.518   8.859  0.2790  0.4419 -1.2638
  734MOL0     H96836   7.980   5.494   8.862  1.3289  3.2800  0.5120
  734MOL0     H96837   8.184   5.432   8.636  0.7892  2.9823  0.7269
  734MOL0     H96838   8.022   5.381   8.619  0.3675  0.8491 -4.1515
  734MOL0     H96839   8.048   5.583   8.504  0.2466 -0.8957  0.7930
  734MOL0     H96840   8.126   5.674   8.647 -1.5844 -0.3499  2.9492
  734MOL0     H96841   7.797   5.472   8.579  1.6925  1.8063 -4.6267
  734MOL0     H96842   7.484   5.631   8.708  0.1701 -2.8233  0.7696
  734MOL0     H96843   7.540   5.516   8.596  0.8284 -1.2551  3.8824
  734MOL0     H96844   7.540   5.660   8.405  0.1596  4.4477 -2.4573
  734MOL0     H96845   7.534   5.804   8.507  4.0109 -0.0895 -3.3467
  734MOL0     H96846   7.318   5.795   8.438 -0.6379 -0.3460 -2.2589
  734MOL0     H96847   7.342   5.634   8.363 -1.7152  1.1262 -0.9540
  734MOL0     H96848   7.265   5.684   8.658 -0.5884 -0.8204 -0.8970
  734MOL0     H96849   7.287   5.526   8.586  0.5486  1.1227  3.1949
  734MOL0     H96850   7.094   5.704   8.778 -2.5955  2.5531  1.6666
  734MOL0     H96851   6.893   5.650   8.904 -2.7972  2.6202 -0.7117
  734MOL0     H96852   6.411   5.658   8.914  2.3275  0.1191 -2.6966
  734MOL0     H96853   6.158   5.616   8.957 -1.9426 -2.3835 -0.4155
  734MOL0     H96854   6.046   5.296   8.948  1.5778  1.1400 -1.7428
  734MOL0     H96855   5.914   5.262   8.832  0.3612 -1.2116  2.1278
  734MOL0     H96856   5.903   5.493   9.028 -0.6479  2.5474 -0.4926
  734MOL0     H96857   5.842   5.341   9.071  2.9240  2.3662  0.5279
  734MOL0     H96858   5.682   5.329   8.878  2.9459 -1.0004  2.0975
  734MOL0     H96859   5.733   5.473   8.806 -0.9476  1.6009  0.4534
  734MOL0     H96860   5.620   5.460   9.090  1.5165 -2.3879 -0.7736
  734MOL0     H96861   5.672   5.613   9.019  0.7889 -0.2913 -1.4979
  734MOL0     H96862   5.481   5.559   8.841  0.5992 -2.3402 -1.2420
  734MOL0     H96863   5.419   5.579   9.001 -0.6556 -0.6489 -1.9108
  734MOL0     H96864   5.424   5.339   9.034 -1.1033 -1.0326  0.1919
  734MOL0     H96865   5.449   5.320   8.859  1.6608  0.2939  1.6661
  734MOL0     H96866   5.204   5.452   8.982  0.1785 -0.1380 -0.2687
  734MOL0     H96867   5.246   5.442   8.816  0.5410  2.1710  0.4253
  734MOL0     H96868   5.240   5.178   8.978 -0.5712 -0.4908 -0.7766
  734MOL0     H96869   5.227   5.212   8.807  0.4779  3.0450 -1.7806
  734MOL0     H96870   6.181   5.273   8.687  0.9336 -0.2257  0.5865
  734MOL0     H96871   6.413   5.302   8.666  2.5843  0.9002  0.7902
  734MOL0     H96872   6.724   5.473   8.534  0.6211  0.6670 -0.6859
  734MOL0     H96873   6.931   5.554   8.424  0.5845  4.6602 -0.5331
  734MOL0     H96874   8.208   4.716   9.304 -0.2321  0.7082  2.1495
  734MOL0     H96875   8.324   4.535   9.380 -1.3724  0.7364 -0.7366
  734MOL0     H96876   8.753   4.376   9.464  3.1097  0.1663  2.4027
  734MOL0     H96877   8.869   4.185   9.523  1.4318  2.2536 -0.1219
  734MOL0     H96878   9.012   4.142   9.712 -0.9077  0.6453 -0.5104
  734MOL0     H96879   8.989   3.996   9.606  0.7890  2.3619 -2.0692
  734MOL0     H96880   9.155   3.945   9.755  1.1366 -3.4522  0.5081
  734MOL0     H96881   9.081   4.032   9.886  0.3537  0.9094 -1.6103
  734MOL0     H96882   9.010   3.774   9.757  0.7124  0.1828 -0.0543
  734MOL0     H96883   8.907   3.840   9.903 -0.2004  0.1856  0.4097
  734MOL0     H96884   9.179   3.722   9.878 -2.1981  2.1737 -4.2807
  734MOL0     H96885   9.137   3.832  10.022 -1.0804  1.0528  0.2746
  734MOL0     H96886   8.913   3.483  10.120 -0.3595 -0.9005 -2.0932
  734MOL0     H96887   8.600   4.104   9.861 -0.0358  0.2726 -0.0074
  734MOL0     H96888   8.454   4.302   9.775 -1.1920 -1.5696 -2.0753
  735MOL0     O96889   6.939   3.028   1.664  0.2309 -0.1069  0.4059
  735MOL0     C96890   7.055   2.996   1.652  0.2341 -0.1356 -0.1919
  735MOL0     O96891   7.099   2.900   1.579 -0.1016  0.2624  0.7444
  735MOL0     C96892   7.007   2.832   1.492  0.6033 -0.0595  0.1299
  735MOL0     C96893   6.941   2.902   1.382 -0.5944 -0.6309  0.0313
  735MOL0     C96894   6.854   2.827   1.298 -1.0211  0.7687 -0.0804
  735MOL0     C96895   6.834   2.687   1.325 -0.5877  0.0618  0.1307
  735MOL0     O96896   6.734   2.637   1.239  0.1282 -0.3011 -0.3797
  735MOL0     C96897   6.684   2.506   1.260  0.0433 -0.6773 -0.3329
  735MOL0     C96898   6.664   2.457   1.118 -0.3160  0.2024  0.1966
  735MOL0     C96899   6.586   2.326   1.116  0.2921  1.6107  0.2569
  735MOL0     C96900   6.445   2.342   1.182 -0.3237  0.0106  0.1634
  735MOL0     C96901   6.328   2.260   1.122  1.0575  0.0951  0.5309
  735MOL0     C96902   6.209   2.330   1.176  1.1867  0.5457 -0.1296
  735MOL0     C96903   6.074   2.280   1.113 -0.1667  0.2417  0.5524
  735MOL0     C96904   6.054   2.127   1.125  0.7410  0.0784  0.2554
  735MOL0     N96905   5.921   2.087   1.079 -0.3099 -0.5948  0.3987
  735MOL0     C96906   5.884   2.083   0.941 -0.4565 -0.6160  0.7673
  735MOL0     C96907   5.747   2.090   0.951 -0.7544 -0.2148  0.3227
  735MOL0     C96908   5.663   2.076   0.830  0.8327 -0.3043  0.3682
  735MOL0     C96909   5.547   1.990   0.863 -0.3489 -0.0451  0.6152
  735MOL0     C96910   5.478   1.927   0.735 -0.2934 -0.9730  0.4383
  735MOL0     C96911   5.369   1.842   0.795  0.2791  0.5224 -1.1098
  735MOL0     O96912   5.284   1.810   0.683  0.6698 -0.8520 -0.3105
  735MOL0     C96913   5.211   1.695   0.673 -0.8849  0.0524 -0.3634
  735MOL0     C96914   5.194   1.608   0.780 -0.1095 -0.0355 -0.2976
  735MOL0     C96915   5.102   1.499   0.768  0.0587 -1.1950 -0.2626
  735MOL0     C96916   5.055   1.468   0.639 -0.2668  0.9601 -0.7749
  735MOL0     C96917   4.956   1.353   0.620 -0.3703  0.3761 -0.3736
  735MOL0     O96918   4.886   1.351   0.497 -0.4644 -0.4592 -0.3155
  735MOL0     C96919   4.781   1.269   0.504  0.2317  0.7896 -0.3363
  735MOL0     C96920   4.687   1.283   0.610  0.7172 -0.0045  0.3553
  735MOL0     C96921   4.571   1.206   0.600 -0.2023  1.1683  0.5628
  735MOL0     C96922   4.549   1.120   0.489  0.3499 -0.6932  0.3158
  735MOL0     O96923   4.437   1.054   0.467 -0.6144  0.7083 -0.0025
  735MOL0     C96924   4.334   1.028   0.564  0.3472 -0.3901  0.2724
  735MOL0     C96925   4.324   0.875   0.578 -0.7010 -0.8690 -0.1342
  735MOL0     C96926   4.231   0.827   0.688 -0.5541 -0.6548  0.3902
  735MOL0     C96927   4.087   0.881   0.680 -0.6870 -0.4437 -0.5457
  735MOL0     C96928   4.007   0.803   0.785  0.2610 -0.8823  0.2058
  735MOL0     C96929   3.856   0.824   0.770 -0.5369 -0.0726 -0.0925
  735MOL0     C96930   3.782   0.753   0.887  0.4455  0.2740  0.5174
  735MOL0     C96931   3.823   0.808   1.026  0.0626  0.1380  0.3937
  735MOL0    Cl96932   3.716   0.724   1.150  0.3768 -0.0190  0.4666
  735MOL0     C96933   4.647   1.109   0.389 -0.4042  0.0796 -0.1134
  735MOL0     C96934   4.768   1.173   0.413  0.2161 -0.0641 -0.6075
  735MOL0     O96935   4.950   1.259   0.704 -0.1225 -0.3278  0.0834
  735MOL0     C96936   5.076   1.552   0.534 -0.7045  0.2757  0.4958
  735MOL0     C96937   5.152   1.669   0.553  1.1117 -0.8989 -0.0350
  735MOL0     N96938   5.708   2.100   1.082 -0.2535 -0.0984 -1.6828
  735MOL0     N96939   5.815   2.092   1.162  0.1050  0.2432  0.5580
  735MOL0     C96940   6.901   2.618   1.428 -0.3248 -0.2325 -0.2222
  735MOL0     C96941   6.984   2.697   1.514  0.3253  0.7512  0.1014
  735MOL0     C96942   7.148   3.073   1.723  0.9622  0.8894 -0.1186
  735MOL0     C96943   7.280   3.027   1.730 -0.6002 -0.4071 -0.6687
  735MOL0     C96944   7.367   3.091   1.821  0.7323 -0.2789 -0.4507
  735MOL0     C96945   7.316   3.198   1.899  0.1952 -0.3204  0.6428
  735MOL0     O96946   7.409   3.262   1.984 -0.1376 -0.1899  0.0348
  735MOL0     C96947   7.430   3.397   1.961 -0.6228  0.2408  0.2520
  735MOL0     C96948   7.584   3.418   1.921  0.7958  0.5586 -1.0700
  735MOL0     C96949   7.679   3.350   2.021 -0.4288 -0.1468 -0.4201
  735MOL0     C96950   7.826   3.363   1.993  0.1670  0.5485  0.1070
  735MOL0     C96951   7.901   3.391   2.108 -1.4907  0.6213 -0.0023
  735MOL0     C96952   7.959   3.439   2.200  0.5465  0.7928 -0.2006
  735MOL0     C96953   7.189   3.245   1.884 -0.1503  0.1504  0.5746
  735MOL0     C96954   7.099   3.187   1.803  0.2108  0.4070 -0.1411
  735MOL0     H96955   6.959   3.008   1.366  1.5293 -0.3224  3.5341
  735MOL0     H96956   6.798   2.864   1.213  0.2473 -0.5746 -1.5758
  735MOL0     H96957   6.594   2.506   1.323 -0.6417  1.8205 -1.2018
  735MOL0     H96958   6.760   2.442   1.306 -0.8231 -1.1439  0.4773
  735MOL0     H96959   6.760   2.446   1.067 -0.4769  0.9258 -0.2659
  735MOL0     H96960   6.611   2.531   1.058 -3.8171 -1.0963  1.4006
  735MOL0     H96961   6.632   2.242   1.168 -1.5649  0.3342 -0.0851
  735MOL0     H96962   6.567   2.303   1.011 -0.0167  3.4461 -0.1273
  735MOL0     H96963   6.461   2.314   1.286 -1.8177  3.4476  1.4581
  735MOL0     H96964   6.413   2.447   1.180  1.0790  0.4586  0.3741
  735MOL0     H96965   6.325   2.153   1.146  1.6983 -0.0947 -0.1807
  735MOL0     H96966   6.329   2.248   1.014 -2.1339  0.8707  0.3178
  735MOL0     H96967   6.209   2.439   1.168 -2.7378  0.6532 -0.8837
  735MOL0     H96968   6.212   2.311   1.284  2.7206  2.6846  0.2467
  735MOL0     H96969   5.990   2.334   1.158  0.3670  2.3290 -0.8169
  735MOL0     H96970   6.077   2.316   1.009 -1.3089 -0.0650  0.3947
  735MOL0     H96971   6.062   2.102   1.232 -1.2529  0.0688  0.4353
  735MOL0     H96972   6.123   2.062   1.071  2.1083  1.8016 -0.1706
  735MOL0     H96973   5.946   2.071   0.853 -2.1528 -2.8481 -0.1965
  735MOL0     H96974   5.716   2.032   0.744  0.4303  0.5423 -0.3216
  735MOL0     H96975   5.630   2.175   0.798  0.8788 -0.9632 -1.8950
  735MOL0     H96976   5.477   2.068   0.897  1.2335  1.8014 -0.1570
  735MOL0     H96977   5.569   1.915   0.939  0.6869  0.1582  0.5319
  735MOL0     H96978   5.446   2.002   0.662 -3.8267  0.2430  2.9437
  735MOL0     H96979   5.567   1.877   0.696  0.9042 -0.1775  2.0312
  735MOL0     H96980   5.310   1.905   0.863  0.2125 -1.8123  1.1528
  735MOL0     H96981   5.408   1.755   0.848  0.0022 -0.8981 -3.1329
  735MOL0     H96982   5.250   1.629   0.870  0.4721  1.9750 -1.0669
  735MOL0     H96983   5.083   1.434   0.852  0.7424 -0.0961  0.7720
  735MOL0     H96984   4.694   1.349   0.695 -0.1380  1.3550 -0.5818
  735MOL0     H96985   4.502   1.220   0.683 -0.5988  3.1360 -0.0525
  735MOL0     H96986   4.242   1.077   0.530  2.6163  2.1968 -2.8328
  735MOL0     H96987   4.362   1.079   0.656  0.6038  1.6289 -0.8618
  735MOL0     H96988   4.422   0.831   0.595 -0.9785 -0.8389  1.8590
  735MOL0     H96989   4.283   0.837   0.484 -2.2900 -1.7764  0.8802
  735MOL0     H96990   4.275   0.853   0.785 -0.1790  1.2479 -0.2342
  735MOL0     H96991   4.219   0.720   0.669  0.8940 -0.9994  1.2094
  735MOL0     H96992   4.097   0.990   0.689  1.2114 -0.5705 -0.6351
  735MOL0     H96993   4.046   0.864   0.581 -3.2522  0.5768  0.2663
  735MOL0     H96994   4.047   0.815   0.886 -0.7684  0.5593  0.4911
  735MOL0     H96995   4.012   0.697   0.760  1.1297 -1.6573  3.2989
  735MOL0     H96996   3.831   0.786   0.670  1.0693  1.1368 -1.0045
  735MOL0     H96997   3.831   0.930   0.775 -2.5222 -0.4864 -0.4247
  735MOL0     H96998   3.676   0.774   0.875  0.1980 -0.9136  0.5582
  735MOL0     H96999   3.795   0.645   0.876 -1.4209 -0.2332  2.5817
  735MOL0     H97000   3.805   0.916   1.027 -0.3665  0.0722  0.0107
  735MOL0     H97001   3.926   0.780   1.052  0.5510  1.0398 -0.5115
  735MOL0     H97002   4.627   1.044   0.305 -0.7410  2.4771 -2.0047
  735MOL0     H97003   4.853   1.147   0.351  1.0422  0.5309  0.2500
  735MOL0     H97004   5.023   1.542   0.440  1.6202  1.7953 -1.0871
  735MOL0     H97005   5.163   1.751   0.483 -0.7306 -0.3979  0.2004
  735MOL0     H97006   6.889   2.512   1.446 -1.8413  0.0196  0.3714
  735MOL0     H97007   7.034   2.645   1.595 -0.8232  1.9084  1.6244
  735MOL0     H97008   7.313   2.935   1.683  0.0270 -0.7936  0.4983
  735MOL0     H97009   7.469   3.056   1.830  0.7075 -0.5162 -1.0347
  735MOL0     H97010   7.415   3.438   2.061 -0.5634  0.2587  0.2525
  735MOL0     H97011   7.377   3.434   1.872  1.9178 -0.4433 -1.6875
  735MOL0     H97012   7.596   3.376   1.821 -0.7810  1.5301 -1.7034
  735MOL0     H97013   7.607   3.525   1.916 -2.2764  1.2660 -2.2264
  735MOL0     H97014   7.660   3.242   2.018  1.1548 -0.4449 -0.7542
  735MOL0     H97015   7.652   3.397   2.116  0.4873  0.0551 -0.2483
  735MOL0     H97016   7.860   3.274   1.939 -2.3174 -1.8354  2.1380
  735MOL0     H97017   7.835   3.451   1.928 -1.0247  1.9791  1.8000
  735MOL0     H97018   8.015   3.484   2.280  1.1697  0.4985 -0.4644
  735MOL0     H97019   7.149   3.330   1.939 -0.1406  1.4180 -1.2921
  735MOL0     H97020   6.998   3.225   1.791  0.0880 -0.3872 -1.8811
  736MOL0     O97021   5.257   8.910   3.337  0.3314  0.2547 -0.3955
  736MOL0     C97022   5.294   9.005   3.271 -0.3122  0.6035  0.6907
  736MOL0     O97023   5.230   9.127   3.270 -0.4355 -0.6104  0.1232
  736MOL0     C97024   5.144   9.158   3.369  0.0065  0.8934  0.2651
  736MOL0     C97025   5.006   9.158   3.349 -0.1483 -0.2871 -1.1358
  736MOL0     C97026   4.914   9.187   3.453 -0.5533 -0.7086  0.5088
  736MOL0     C97027   4.960   9.228   3.585 -0.7266 -0.0408 -0.4651
  736MOL0     O97028   4.873   9.261   3.685  0.2304 -0.5698  0.9909
  736MOL0     C97029   4.772   9.362   3.639 -0.2487  0.2314 -0.6656
  736MOL0     C97030   4.706   9.420   3.756 -0.6256  0.7801  0.2149
  736MOL0     C97031   4.809   9.494   3.853 -0.1324  0.3445 -0.1216
  736MOL0     C97032   4.726   9.537   3.975  0.3039 -0.4277  0.2415
  736MOL0     C97033   4.817   9.611   4.080  0.4262  0.2478  0.6603
  736MOL0     C97034   4.743   9.665   4.206 -0.2169  0.4243 -0.2124
  736MOL0     C97035   4.826   9.711   4.323 -0.5241  0.3893 -0.1232
  736MOL0     C97036   4.903   9.839   4.286  0.0809 -0.1729 -0.4163
  736MOL0     N97037   4.838   9.929   4.190  0.0493  0.3250  0.0342
  736MOL0     C97038   4.754  10.026   4.231 -0.3468  0.6305 -0.2354
  736MOL0     C97039   4.720  10.098   4.128 -0.7693 -0.3931  1.1483
  736MOL0     C97040   4.619  10.211   4.117  0.4258 -0.7329  0.0356
  736MOL0     C97041   4.494  10.137   4.065  0.1491 -0.0069 -1.1320
  736MOL0     C97042   4.372  10.231   4.083 -0.4805  1.0564 -0.1938
  736MOL0     C97043   4.240  10.159   4.097 -0.3819 -0.2006  0.4462
  736MOL0     O97044   4.130  10.258   4.100  0.2161  0.5867 -0.3208
  736MOL0     C97045   4.003  10.217   4.133  0.2108 -0.4752  0.3466
  736MOL0     C97046   3.904  10.313   4.120  0.6974  0.4238  0.5223
  736MOL0     C97047   3.777  10.279   4.130 -0.8020  0.9483  0.7763
  736MOL0     C97048   3.735  10.156   4.179 -0.0369 -0.1096 -0.0502
  736MOL0     C97049   3.597  10.116   4.188  0.1550 -0.1274 -0.3295
  736MOL0     O97050   3.565   9.984   4.189 -0.1787 -0.2921  0.7678
  736MOL0     C97051   3.441   9.950   4.232  0.2639  0.1677 -0.5291
  736MOL0     C97052   3.396   9.946   4.368 -0.3434  0.6534  0.2016
  736MOL0     C97053   3.268   9.893   4.398 -0.4834 -0.2862 -0.4319
  736MOL0     C97054   3.180   9.844   4.301 -0.5829  0.6810  0.7896
  736MOL0     O97055   3.057   9.805   4.347 -0.3217 -0.3157  0.2655
  736MOL0     C97056   2.953   9.756   4.265  0.0981  0.0944  0.2470
  736MOL0     C97057   2.883   9.883   4.195  0.1851  0.6793 -0.6465
  736MOL0     C97058   2.794   9.980   4.277 -0.2730 -1.0377  0.4450
  736MOL0     C97059   2.894  10.087   4.331 -0.1650  0.8020 -0.6359
  736MOL0     C97060   2.972  10.193   4.254  1.0132 -0.5126 -0.2076
  736MOL0     C97061   2.883  10.266   4.157  1.1754 -0.9256 -0.6178
  736MOL0     C97062   2.970  10.357   4.055  0.4477  0.8072 -0.4493
  736MOL0     C97063   2.890  10.416   3.939  0.7374  0.7606 -1.0064
  736MOL0    Cl97064   2.804  10.560   3.997 -0.6553 -0.0284  0.1756
  736MOL0     C97065   3.219   9.860   4.168 -0.1553 -0.0329  0.9768
  736MOL0     C97066   3.346   9.912   4.133 -0.0525  0.3762  0.0109
  736MOL0     O97067   3.525  10.206   4.210 -0.2368 -0.0305 -0.2132
  736MOL0     C97068   3.834  10.058   4.210 -0.6250 -0.0141  0.0987
  736MOL0     C97069   3.966  10.094   4.188 -0.2718  0.1446  0.7182
  736MOL0     N97070   4.770  10.035   4.023 -0.2226 -0.1513 -0.7202
  736MOL0     N97071   4.859   9.941   4.056  0.4760  0.2174  0.3917
  736MOL0     C97072   5.094   9.253   3.596 -0.7958 -0.5338 -0.2613
  736MOL0     C97073   5.190   9.213   3.495  0.8747  0.2866 -0.1291
  736MOL0     C97074   5.414   8.981   3.175  0.1254  0.7136 -0.1948
  736MOL0     C97075   5.416   9.026   3.034  0.0856  0.0721 -1.0214
  736MOL0     C97076   5.525   9.002   2.958 -0.3944 -0.9142  0.4272
  736MOL0     C97077   5.636   8.943   3.011 -0.0731  0.1665  0.1753
  736MOL0     O97078   5.747   8.909   2.934 -0.2956 -0.0931 -0.6541
  736MOL0     C97079   5.744   8.933   2.792  0.1374  0.5892 -1.0747
  736MOL0     C97080   5.853   8.852   2.728 -0.0488  0.8574 -0.5734
  736MOL0     C97081   5.822   8.822   2.581 -0.3941 -0.4431  0.8481
  736MOL0     C97082   5.917   8.719   2.521  0.6252  1.2810  0.2988
  736MOL0     C97083   6.062   8.742   2.536  0.5147 -0.1333  0.4744
  736MOL0     C97084   6.172   8.781   2.563  0.1594 -0.1499  0.2254
  736MOL0     C97085   5.619   8.888   3.143 -0.7815 -0.2908  0.5047
  736MOL0     C97086   5.515   8.917   3.225 -1.0588 -0.2832 -0.5182
  736MOL0     H97087   4.960   9.132   3.254 -0.8983 -2.3925 -0.2501
  736MOL0     H97088   4.808   9.165   3.443 -0.4916 -0.3478 -1.2953
  736MOL0     H97089   4.687   9.321   3.583 -1.1058 -0.9642  1.3851
  736MOL0     H97090   4.821   9.448   3.592  1.7183 -1.9199 -2.7784
  736MOL0     H97091   4.656   9.340   3.810 -1.4057 -0.2211 -1.8852
  736MOL0     H97092   4.639   9.501   3.727  1.2429  1.6168 -2.0788
  736MOL0     H97093   4.827   9.592   3.807  0.4392  1.7443  2.8518
  736MOL0     H97094   4.898   9.439   3.884  1.1547  1.0714 -2.3292
  736MOL0     H97095   4.647   9.609   3.951  0.1993 -0.6315 -0.0424
  736MOL0     H97096   4.695   9.441   4.017  0.1304 -0.4061  0.1642
  736MOL0     H97097   4.882   9.676   4.021 -1.9065 -0.9138 -3.6633
  736MOL0     H97098   4.883   9.535   4.125  0.6396  1.7995  3.1352
  736MOL0     H97099   4.688   9.582   4.250  2.3765  0.3906  3.3936
  736MOL0     H97100   4.669   9.737   4.170 -1.6871 -0.2436  1.3392
  736MOL0     H97101   4.757   9.730   4.406  1.3159  1.2942  1.2669
  736MOL0     H97102   4.899   9.635   4.351 -1.0878 -0.4593 -0.9119
  736MOL0     H97103   5.005   9.832   4.246  0.9791  1.8458  1.3176
  736MOL0     H97104   4.908   9.888   4.384  0.9088 -2.7551  0.9061
  736MOL0     H97105   4.733  10.044   4.336 -2.5075 -0.9793 -0.3347
  736MOL0     H97106   4.643  10.291   4.046 -0.3501 -2.0062 -1.7559
  736MOL0     H97107   4.609  10.254   4.217 -1.6298 -1.2406  0.0881
  736MOL0     H97108   4.483  10.052   4.132 -2.1438  1.5540  0.5975
  736MOL0     H97109   4.499  10.108   3.959 -3.4264 -0.3349 -1.3350
  736MOL0     H97110   4.387  10.295   4.170 -1.6701 -0.3703  1.1177
  736MOL0     H97111   4.366  10.286   3.989 -2.8186  1.2264  0.0017
  736MOL0     H97112   4.242  10.087   4.180 -0.5791 -1.9060 -0.9734
  736MOL0     H97113   4.212  10.096   4.012 -3.7772  1.7655 -0.0439
  736MOL0     H97114   3.942  10.409   4.085 -1.8966  2.3753  2.6347
  736MOL0     H97115   3.707  10.358   4.103  1.0382  2.7206  1.0084
  736MOL0     H97116   3.456  10.006   4.435  0.3958 -0.5270  0.6222
  736MOL0     H97117   3.260   9.887   4.506  1.5934 -0.1577 -0.2373
  736MOL0     H97118   2.872   9.708   4.321  1.0137 -0.1198  1.4446
  736MOL0     H97119   2.983   9.689   4.184 -2.6624  0.9035 -1.5602
  736MOL0     H97120   2.811   9.835   4.128  1.2309 -1.2390 -0.4442
  736MOL0     H97121   2.957   9.933   4.132  2.8113 -3.0686 -0.8331
  736MOL0     H97122   2.740   9.928   4.357 -1.7921 -0.2971 -0.0671
  736MOL0     H97123   2.725  10.040   4.217 -0.5672  0.2306  1.9871
  736MOL0     H97124   2.824  10.141   4.396 -1.1340 -1.2374  0.1124
  736MOL0     H97125   2.976  10.041   4.386  2.2915  0.8142 -4.0007
  736MOL0     H97126   3.063  10.159   4.204 -0.0194 -1.0904 -1.7564
  736MOL0     H97127   3.017  10.262   4.326  0.7090  1.1786 -1.5778
  736MOL0     H97128   2.807  10.327   4.207  0.6781 -2.7721  0.9877
  736MOL0     H97129   2.833  10.191   4.095 -2.2303 -0.4735  1.3355
  736MOL0     H97130   3.025  10.438   4.103  3.8160  0.0428 -2.6763
  736MOL0     H97131   3.048  10.286   4.025 -0.4987 -0.3202 -0.3238
  736MOL0     H97132   2.822  10.334   3.914  1.4186 -0.1168 -0.0633
  736MOL0     H97133   2.948  10.448   3.852 -1.6661  0.5219 -2.8042
  736MOL0     H97134   3.144   9.842   4.091 -1.4701  0.5728  2.0832
  736MOL0     H97135   3.373   9.920   4.028  0.2268 -0.9512 -0.0284
  736MOL0     H97136   3.815   9.959   4.252 -0.0200 -2.1200 -4.0707
  736MOL0     H97137   4.047  10.025   4.212 -2.1833 -1.6718  2.4175
  736MOL0     H97138   5.123   9.286   3.696 -0.8245  1.0387 -0.7413
  736MOL0     H97139   5.296   9.214   3.516  0.3601 -2.5432  3.5718
  736MOL0     H97140   5.331   9.080   2.994 -2.3417 -1.7781  1.2070
  736MOL0     H97141   5.523   9.043   2.857 -1.3027 -0.1002  0.7587
  736MOL0     H97142   5.747   9.039   2.763  2.0871 -0.1740 -4.0438
  736MOL0     H97143   5.652   8.884   2.759 -0.1092 -0.1830  0.6149
  736MOL0     H97144   5.950   8.901   2.736 -0.2716  1.0136  2.2717
  736MOL0     H97145   5.854   8.760   2.787  1.7458  1.5745  0.6020
  736MOL0     H97146   5.842   8.916   2.528 -0.6765 -1.4346 -1.0726
  736MOL0     H97147   5.719   8.791   2.566 -1.5105  3.1318  0.1125
  736MOL0     H97148   5.906   8.621   2.569 -1.1119 -0.6321 -3.5788
  736MOL0     H97149   5.898   8.698   2.415  4.8852 -2.5088 -0.0242
  736MOL0     H97150   6.272   8.812   2.583  0.9208 -0.0837 -3.0653
  736MOL0     H97151   5.691   8.825   3.194 -1.4226 -0.8445  0.7290
  736MOL0     H97152   5.506   8.879   3.326 -0.5501 -1.2381 -0.8246
  737MOL0     O97153  11.037  11.080   6.395  0.0713  0.1617  0.1230
  737MOL0     C97154  11.140  11.135   6.366 -0.8200 -0.9301 -0.5796
  737MOL0     O97155  11.156  11.274   6.362  0.0433  0.2057 -0.1778
  737MOL0     C97156  11.038  11.341   6.348  0.1828 -0.0975 -1.4013
  737MOL0     C97157  10.977  11.404   6.462  0.7427 -0.0881  0.4098
  737MOL0     C97158  10.853  11.465   6.444  0.7174  0.2140 -0.0707
  737MOL0     C97159  10.793  11.472   6.319  0.8322 -0.3739 -0.2196
  737MOL0     O97160  10.679  11.541   6.323  0.0116 -0.4851  0.2981
  737MOL0     C97161  10.615  11.581   6.198 -0.4990 -0.4260 -0.3106
  737MOL0     C97162  10.511  11.685   6.234 -1.0699 -0.1153  0.2682
  737MOL0     C97163  10.383  11.612   6.272 -0.6780  0.2205  0.4947
  737MOL0     C97164  10.280  11.701   6.349  0.3912 -0.0585  0.5414
  737MOL0     C97165  10.221  11.813   6.253  0.7765 -0.0548 -0.1347
  737MOL0     C97166  10.130  11.911   6.329  0.0890 -0.1701 -0.0355
  737MOL0     C97167   9.986  11.891   6.290 -0.6221  0.0906  0.3363
  737MOL0     C97168   9.908  11.997   6.370  0.1738  0.2841 -1.0224
  737MOL0     N97169   9.769  12.003   6.311  0.0096 -0.0788 -0.0828
  737MOL0     C97170   9.676  11.903   6.323  0.1348  0.6981 -1.4316
  737MOL0     C97171   9.578  11.929   6.230  0.1837 -0.6697 -0.1637
  737MOL0     C97172   9.470  11.843   6.174 -0.4342 -0.1055  0.1152
  737MOL0     C97173   9.392  11.778   6.295  0.7808  0.0064 -0.2025
  737MOL0     C97174   9.465  11.650   6.333 -0.2331  0.3876 -0.1680
  737MOL0     C97175   9.459  11.629   6.488 -0.3751 -0.1091  0.5957
  737MOL0     O97176   9.545  11.719   6.542  0.2690  0.4433  0.4440
  737MOL0     C97177   9.580  11.699   6.676  0.2875  0.1804  0.0451
  737MOL0     C97178   9.666  11.789   6.726  0.7110 -0.4866  0.4882
  737MOL0     C97179   9.719  11.778   6.849 -0.8235  0.0456  0.3393
  737MOL0     C97180   9.693  11.671   6.934  0.0620 -0.5523 -0.1042
  737MOL0     C97181   9.774  11.660   7.060  0.8261  0.6811 -0.1677
  737MOL0     O97182   9.805  11.766   7.124  0.5739 -0.3420  0.4503
  737MOL0     C97183   9.865  11.756   7.242  0.7741  1.5866 -0.6257
  737MOL0     C97184   9.984  11.814   7.241  0.0059  0.5436  0.6908
  737MOL0     C97185  10.063  11.796   7.355  0.3748 -0.0880 -0.1495
  737MOL0     C97186  10.010  11.735   7.469  0.7862  0.6217 -1.1679
  737MOL0     O97187  10.075  11.733   7.590  0.1700  0.5957 -0.1460
  737MOL0     C97188  10.206  11.804   7.595 -0.1553 -0.4587 -0.4478
  737MOL0     C97189  10.246  11.802   7.741  0.4373  0.1821  0.1486
  737MOL0     C97190  10.396  11.836   7.760  0.0197  0.4740  0.0562
  737MOL0     C97191  10.437  11.975   7.702 -0.2961 -0.0831  0.7122
  737MOL0     C97192  10.583  11.997   7.738  1.0805  0.6050  1.1380
  737MOL0     C97193  10.622  12.139   7.694  0.4760  1.1921 -0.1843
  737MOL0     C97194  10.759  12.165   7.754  0.5679  0.2862  0.9234
  737MOL0     C97195  10.835  12.265   7.670 -0.5076  0.3812  0.3612
  737MOL0    Cl97196  10.776  12.434   7.669  0.0510 -0.5778 -0.1432
  737MOL0     C97197   9.884  11.682   7.475  0.2431  0.7597 -1.5095
  737MOL0     C97198   9.810  11.699   7.362 -0.0347  0.8734  0.3106
  737MOL0     O97199   9.798  11.544   7.092  0.5116 -0.6062 -0.0105
  737MOL0     C97200   9.604  11.575   6.884 -0.5439  0.0555  0.1514
  737MOL0     C97201   9.542  11.599   6.761  0.1284  0.3865  0.0671
  737MOL0     N97202   9.606  12.050   6.178  0.3062 -0.5538  0.5730
  737MOL0     N97203   9.718  12.096   6.231 -0.8054  0.5326  0.5095
  737MOL0     C97204  10.846  11.409   6.206  0.2898  1.6490  0.4466
  737MOL0     C97205  10.974  11.344   6.223  1.4626 -0.7454  0.7238
  737MOL0     C97206  11.252  11.049   6.349 -0.3522  0.0045  0.6006
  737MOL0     C97207  11.391  11.098   6.360  0.2523  0.3730 -0.9670
  737MOL0     C97208  11.499  11.003   6.367 -1.0083 -0.3582  0.1331
  737MOL0     C97209  11.472  10.862   6.355 -0.2268  0.3464  0.1644
  737MOL0     O97210  11.569  10.768   6.377  1.2079  0.4801  0.2419
  737MOL0     C97211  11.707  10.793   6.374 -0.1545  0.9099  0.5206
  737MOL0     C97212  11.776  10.666   6.444 -0.6868 -0.2947  1.2807
  737MOL0     C97213  11.768  10.690   6.591 -0.2727  0.0833  0.5938
  737MOL0     C97214  11.769  10.554   6.674 -0.1248 -0.3449  0.7573
  737MOL0     C97215  11.646  10.471   6.662 -0.6995  0.3742 -0.2578
  737MOL0     C97216  11.538  10.412   6.641 -0.3874  0.3203 -0.0271
  737MOL0     C97217  11.340  10.817   6.344  0.1985 -0.5622  0.0667
  737MOL0     C97218  11.229  10.902   6.333 -0.7766  0.0150  0.1712
  737MOL0     H97219  11.046  11.405   6.546  1.8374 -1.4165 -0.4287
  737MOL0     H97220  10.805  11.516   6.527  3.3984  0.2526  1.5891
  737MOL0     H97221  10.582  11.492   6.144 -1.9623 -0.3740  0.4542
  737MOL0     H97222  10.682  11.638   6.132 -0.4657  1.6695  1.4219
  737MOL0     H97223  10.496  11.751   6.148  3.0593 -0.3785 -0.8509
  737MOL0     H97224  10.538  11.750   6.319 -0.6466  1.4865 -1.0437
  737MOL0     H97225  10.411  11.534   6.344 -0.7041 -1.2732 -1.0726
  737MOL0     H97226  10.340  11.554   6.190 -1.5446  1.0444  0.3573
  737MOL0     H97227  10.197  11.639   6.383 -1.9016  0.4489 -3.4986
  737MOL0     H97228  10.334  11.743   6.435  1.8094 -0.5889 -0.0440
  737MOL0     H97229  10.169  11.771   6.167 -0.3254 -0.8516  0.9058
  737MOL0     H97230  10.303  11.877   6.216  0.0967  0.2358 -1.1850
  737MOL0     H97231  10.159  12.015   6.311 -2.2815  0.5801  0.1215
  737MOL0     H97232  10.140  11.898   6.437  1.1470 -0.0027 -0.0990
  737MOL0     H97233   9.968  11.910   6.183 -1.9911 -0.1855  0.4959
  737MOL0     H97234   9.952  11.792   6.323 -0.0381  0.6468  2.7845
  737MOL0     H97235   9.963  12.091   6.358  0.7266 -0.3076 -4.0513
  737MOL0     H97236   9.894  11.969   6.474 -4.5695  0.6416 -1.3437
  737MOL0     H97237   9.680  11.805   6.368 -3.1999  1.0350 -0.0846
  737MOL0     H97238   9.514  11.771   6.104 -0.7484  0.9633 -1.2280
  737MOL0     H97239   9.398  11.903   6.118 -0.8976  0.5099  1.3540
  737MOL0     H97240   9.287  11.757   6.273  0.8836  0.9184 -1.6957
  737MOL0     H97241   9.389  11.846   6.380 -0.1821 -0.3614  0.0625
  737MOL0     H97242   9.410  11.565   6.293 -0.8420 -0.5533  2.4351
  737MOL0     H97243   9.567  11.656   6.294 -0.6596  4.6215 -1.0741
  737MOL0     H97244   9.496  11.526   6.494  2.4603  0.5335 -2.4732
  737MOL0     H97245   9.358  11.639   6.528 -1.2986 -0.9693 -1.3830
  737MOL0     H97246   9.712  11.866   6.666  2.8485 -0.1082  2.4822
  737MOL0     H97247   9.800  11.845   6.878  1.7624 -3.6521  2.4727
  737MOL0     H97248  10.023  11.867   7.155 -1.7553 -1.3158 -1.3775
  737MOL0     H97249  10.165  11.834   7.355  0.6054  0.1314 -5.4290
  737MOL0     H97250  10.188  11.911   7.580 -1.0666 -0.6840 -1.0581
  737MOL0     H97251  10.285  11.760   7.533  1.3733  0.8226  0.5097
  737MOL0     H97252  10.234  11.700   7.777 -1.7660 -0.0336 -1.0465
  737MOL0     H97253  10.193  11.875   7.803  1.4276 -0.4304  1.8016
  737MOL0     H97254  10.463  11.759   7.722  1.1558  2.3823 -2.0348
  737MOL0     H97255  10.412  11.835   7.868  2.2504  0.6236 -0.2280
  737MOL0     H97256  10.418  11.964   7.595  2.3240 -2.5929  0.3905
  737MOL0     H97257  10.379  12.063   7.732 -1.1844 -0.7874  1.0884
  737MOL0     H97258  10.642  11.924   7.682  1.0161 -0.0067  1.8559
  737MOL0     H97259  10.600  11.991   7.845  0.5701  2.9221  1.3952
  737MOL0     H97260  10.550  12.209   7.737 -0.1986  0.3015  0.1884
  737MOL0     H97261  10.628  12.152   7.585 -0.1005  1.1951 -0.2205
  737MOL0     H97262  10.758  12.197   7.859 -0.8508  0.6870  0.8055
  737MOL0     H97263  10.808  12.070   7.732 -1.4381 -1.0034  1.7150
  737MOL0     H97264  10.827  12.239   7.564  0.0263  0.0570  0.3963
  737MOL0     H97265  10.941  12.261   7.696 -0.6965 -0.3617  1.0528
  737MOL0     H97266   9.840  11.628   7.557  1.7620 -0.8741 -1.6988
  737MOL0     H97267   9.710  11.655   7.366  1.1625 -2.0368  0.5191
  737MOL0     H97268   9.574  11.491   6.946  1.4793  0.4151  1.7170
  737MOL0     H97269   9.476  11.518   6.734  2.2812 -1.5909  0.3493
  737MOL0     H97270  10.796  11.406   6.110 -1.5777  0.4982  1.4050
  737MOL0     H97271  11.012  11.290   6.136  3.0275  1.8550 -0.3230
  737MOL0     H97272  11.417  11.201   6.383  1.6517  0.0981 -1.2232
  737MOL0     H97273  11.596  11.045   6.393 -0.6967 -2.2048  2.2397
  737MOL0     H97274  11.747  10.881   6.425  0.4923  3.1694 -3.4548
  737MOL0     H97275  11.751  10.790   6.274  3.4024  0.0085  1.9763
  737MOL0     H97276  11.733  10.574   6.404  3.4634 -2.1834  0.5617
  737MOL0     H97277  11.883  10.652   6.424 -0.4979  2.0237  0.3507
  737MOL0     H97278  11.669  10.728   6.620 -0.6818 -0.3393 -0.1930
  737MOL0     H97279  11.847  10.750   6.636  0.4207 -1.2984  1.2835
  737MOL0     H97280  11.850  10.487   6.643 -2.3280 -2.7237 -0.2565
  737MOL0     H97281  11.780  10.586   6.778  0.6254 -0.7547  0.8045
  737MOL0     H97282  11.449  10.356   6.621 -1.3614  0.8866  2.4445
  737MOL0     H97283  11.322  10.710   6.338  1.4311 -0.8247  0.6837
  737MOL0     H97284  11.136  10.848   6.319 -0.2784 -0.4719 -1.4832
  738MOL0     O97285   1.889   7.301   0.751  0.5642 -0.4042 -0.2011
  738MOL0     C97286   1.843   7.403   0.796 -0.6477 -0.1337  0.6020
  738MOL0     O97287   1.915   7.511   0.845 -0.1651  0.6301 -0.1180
  738MOL0     C97288   2.022   7.556   0.775 -0.1799  0.5257  0.7634
  738MOL0     C97289   2.015   7.588   0.635 -0.2243  0.8463 -1.4102
  738MOL0     C97290   2.119   7.642   0.563  0.0103  0.2329  0.0112
  738MOL0     C97291   2.246   7.663   0.622 -0.0271  0.8424  0.2286
  738MOL0     O97292   2.367   7.713   0.569  0.5114 -0.3480 -0.3829
  738MOL0     C97293   2.396   7.771   0.442 -0.3242 -0.0548 -0.2081
  738MOL0     C97294   2.558   7.798   0.450  0.1630  0.3602  0.7904
  738MOL0     C97295   2.619   7.848   0.322  0.8901 -0.2448  0.3855
  738MOL0     C97296   2.645   7.752   0.206 -1.0609  0.0345  0.1087
  738MOL0     C97297   2.707   7.817   0.079  0.7470 -0.6513  0.4778
  738MOL0     C97298   2.690   7.718  -0.035  0.1777 -0.2285 -0.3316
  738MOL0     C97299   2.739   7.778  -0.171  0.8847 -0.2202 -0.4413
  738MOL0     C97300   2.703   7.683  -0.284  0.6601  0.3691  0.7588
  738MOL0     N97301   2.560   7.643  -0.293 -0.2039 -0.3762  0.5251
  738MOL0     C97302   2.452   7.723  -0.293 -0.3619  0.1679  0.2656
  738MOL0     C97303   2.346   7.645  -0.325 -0.1438 -0.3730 -0.1006
  738MOL0     C97304   2.208   7.701  -0.365 -0.3885  0.2116  0.7530
  738MOL0     C97305   2.182   7.694  -0.515 -0.4082 -0.3704  0.5090
  738MOL0     C97306   2.170   7.553  -0.572 -0.3668  0.0870 -0.0431
  738MOL0     C97307   2.160   7.558  -0.724 -0.5079 -0.7337  0.5089
  738MOL0     O97308   2.024   7.607  -0.758  0.1447  0.6204 -0.3493
  738MOL0     C97309   1.904   7.533  -0.754 -0.2070  0.1621  0.1341
  738MOL0     C97310   1.782   7.594  -0.788 -0.5173 -0.9012 -0.6720
  738MOL0     C97311   1.658   7.537  -0.767 -1.1889 -0.5508  0.5495
  738MOL0     C97312   1.650   7.401  -0.726 -0.8229 -0.4560  0.2391
  738MOL0     C97313   1.518   7.325  -0.731 -0.0960  0.3465  0.1897
  738MOL0     O97314   1.440   7.372  -0.834  0.3862  0.3249 -0.0344
  738MOL0     C97315   1.314   7.317  -0.832  0.1309 -0.3624 -0.6071
  738MOL0     C97316   1.270   7.231  -0.937 -0.8942  0.5502 -0.2518
  738MOL0     C97317   1.140   7.186  -0.939  0.5893  0.2361  0.5958
  738MOL0     C97318   1.046   7.221  -0.842  0.1363  0.0629 -0.3041
  738MOL0     O97319   0.915   7.179  -0.857  0.0005  0.1315  0.2685
  738MOL0     C97320   0.836   7.137  -0.740 -0.2812 -0.5532 -0.1703
  738MOL0     C97321   0.694   7.111  -0.779  0.2948  0.0687 -0.2149
  738MOL0     C97322   0.610   7.230  -0.823 -1.0150  0.1047  0.1308
  738MOL0     C97323   0.489   7.174  -0.899  0.1540  0.1738  0.7594
  738MOL0     C97324   0.383   7.287  -0.924  0.7587  0.3261  0.2543
  738MOL0     C97325   0.243   7.221  -0.915  0.0680 -1.0270  0.9015
  738MOL0     C97326   0.123   7.322  -0.901  0.6524  0.0192  0.0869
  738MOL0     C97327   0.094   7.331  -0.746 -0.7889  0.2093 -0.1863
  738MOL0    Cl97328   0.211   7.446  -0.663  0.2124  0.1984  0.0981
  738MOL0     C97329   1.083   7.308  -0.740 -0.3019 -0.4031  0.0056
  738MOL0     C97330   1.217   7.359  -0.735 -0.6017 -0.2369  0.8476
  738MOL0     O97331   1.494   7.235  -0.651  0.3745 -0.5425 -0.5671
  738MOL0     C97332   1.777   7.335  -0.697  0.2268  1.0569  0.2110
  738MOL0     C97333   1.901   7.401  -0.710 -0.0036  0.3143  0.3456
  738MOL0     N97334   2.399   7.515  -0.330  0.1861 -0.7004 -0.2430
  738MOL0     N97335   2.522   7.509  -0.316 -0.3474 -0.6216  0.1610
  738MOL0     C97336   2.249   7.642   0.759 -0.5496  0.4871  0.1279
  738MOL0     C97337   2.143   7.584   0.835  0.5791 -0.1125  0.1131
  738MOL0     C97338   1.696   7.414   0.832 -0.7657  0.7327 -0.1894
  738MOL0     C97339   1.640   7.539   0.871  0.0380 -0.4271 -0.9807
  738MOL0     C97340   1.504   7.558   0.906 -0.3992 -0.4102 -0.3807
  738MOL0     C97341   1.420   7.441   0.903 -1.1521  0.6369 -0.1756
  738MOL0     O97342   1.282   7.448   0.906 -0.0700  0.3650 -0.4145
  738MOL0     C97343   1.227   7.545   0.993 -1.4395  0.4695 -0.0974
  738MOL0     C97344   1.168   7.476   1.113 -0.3234 -0.3105  0.1759
  738MOL0     C97345   1.075   7.568   1.202  0.3786  0.3625 -0.0980
  738MOL0     C97346   0.975   7.490   1.274  0.4308 -0.7695  0.0050
  738MOL0     C97347   0.893   7.572   1.366  0.5662  0.0659  0.0266
  738MOL0     C97348   0.861   7.648   1.449  0.5713  0.8809 -0.1984
  738MOL0     C97349   1.485   7.316   0.862 -0.3531 -1.1978  0.4515
  738MOL0     C97350   1.612   7.311   0.828 -0.1920  0.1883 -0.6062
  738MOL0     H97351   1.923   7.556   0.586  0.7763 -1.6545 -1.7920
  738MOL0     H97352   2.099   7.664   0.459 -0.0112  2.6879  0.4800
  738MOL0     H97353   2.341   7.864   0.430 -0.4902  0.1061  1.5729
  738MOL0     H97354   2.361   7.715   0.354 -2.6844  0.4778  0.3243
  738MOL0     H97355   2.605   7.702   0.477  0.1061  0.2484  0.4946
  738MOL0     H97356   2.567   7.864   0.537 -0.2448 -1.0018  1.9148
  738MOL0     H97357   2.716   7.893   0.344  0.5414 -0.0646  1.6294
  738MOL0     H97358   2.554   7.931   0.291  1.7935  0.3300 -0.0058
  738MOL0     H97359   2.718   7.676   0.236 -1.9789 -1.0094 -0.2236
  738MOL0     H97360   2.553   7.700   0.178  0.3578 -1.8902 -1.2453
  738MOL0     H97361   2.812   7.848   0.089  0.5639 -0.0364  0.5277
  738MOL0     H97362   2.649   7.907   0.060 -1.9794 -2.1976  1.0179
  738MOL0     H97363   2.583   7.699  -0.037  0.0253  0.4703  0.5153
  738MOL0     H97364   2.734   7.620  -0.013 -0.1463 -0.6533 -1.5130
  738MOL0     H97365   2.708   7.882  -0.184  3.0053  0.5154 -0.0263
  738MOL0     H97366   2.847   7.776  -0.153  0.3670  1.0422  4.1733
  738MOL0     H97367   2.760   7.589  -0.282 -0.4146 -0.3491  3.9969
  738MOL0     H97368   2.719   7.738  -0.377 -2.2162 -3.7827 -2.5891
  738MOL0     H97369   2.459   7.830  -0.273 -0.3011  0.2204 -0.0328
  738MOL0     H97370   2.211   7.805  -0.333  0.4381  0.7943 -1.0995
  738MOL0     H97371   2.126   7.645  -0.318 -2.8419  1.9688 -1.1660
  738MOL0     H97372   2.256   7.749  -0.572 -1.6496 -0.5139 -1.3196
  738MOL0     H97373   2.090   7.750  -0.534  1.7263  3.1372 -0.3130
  738MOL0     H97374   2.261   7.498  -0.543 -0.0621  0.9630  0.7131
  738MOL0     H97375   2.083   7.508  -0.524  0.5738 -0.7286  0.9374
  738MOL0     H97376   2.169   7.460  -0.771 -2.2565 -0.0388 -1.4374
  738MOL0     H97377   2.238   7.628  -0.754 -1.9894  0.2993 -1.1412
  738MOL0     H97378   1.798   7.698  -0.814 -0.5786 -0.7572 -0.1424
  738MOL0     H97379   1.566   7.587  -0.792 -1.1216 -1.5352 -1.9188
  738MOL0     H97380   1.332   7.194  -1.018  2.2262  0.6777  1.9292
  738MOL0     H97381   1.096   7.122  -1.015 -1.5426  0.2112  1.7877
  738MOL0     H97382   0.819   7.213  -0.663  0.1948  1.1554 -1.7091
  738MOL0     H97383   0.886   7.051  -0.694 -1.5548  0.4769  3.5321
  738MOL0     H97384   0.643   7.057  -0.698 -0.5107  2.1786  0.7556
  738MOL0     H97385   0.699   7.042  -0.864  1.5302  0.1042 -0.1899
  738MOL0     H97386   0.676   7.293  -0.884  2.0775  0.6763  3.7029
  738MOL0     H97387   0.590   7.294  -0.737  4.3256  3.0790 -0.3664
  738MOL0     H97388   0.524   7.128  -0.992  1.0185 -1.7936  2.0002
  738MOL0     H97389   0.446   7.097  -0.834  1.3421  1.2227  2.9038
  738MOL0     H97390   0.406   7.326  -1.023 -1.3058 -1.1480 -0.8794
  738MOL0     H97391   0.383   7.369  -0.852 -2.3163 -0.2279  1.0054
  738MOL0     H97392   0.243   7.144  -0.838 -1.8676  1.6883  3.9016
  738MOL0     H97393   0.228   7.174  -1.012  0.3807 -0.1308  0.4067
  738MOL0     H97394   0.141   7.424  -0.937  0.9093 -0.3623 -0.8705
  738MOL0     H97395   0.034   7.277  -0.945  1.4110  0.5053 -2.0317
  738MOL0     H97396   0.095   7.233  -0.698 -1.7196  0.8729  1.2741
  738MOL0     H97397  -0.009   7.368  -0.751 -1.6135 -2.0743 -2.7607
  738MOL0     H97398   1.018   7.348  -0.664  0.6811 -0.5654  0.9512
  738MOL0     H97399   1.237   7.434  -0.659  1.4166 -1.3086  1.4552
  738MOL0     H97400   1.773   7.230  -0.673  1.1011  1.1643  0.8750
  738MOL0     H97401   1.989   7.341  -0.688  0.3351  0.6066 -0.2094
  738MOL0     H97402   2.337   7.660   0.819 -0.7280 -2.0802  1.2641
  738MOL0     H97403   2.157   7.553   0.938 -0.1431  2.0529  0.9203
  738MOL0     H97404   1.701   7.628   0.860 -0.0216 -0.5855 -2.9293
  738MOL0     H97405   1.475   7.662   0.918 -0.7651 -0.3129 -1.9496
  738MOL0     H97406   1.148   7.592   0.935  0.3441  0.8816 -2.3539
  738MOL0     H97407   1.298   7.619   1.034 -3.9625  1.3800  3.0351
  738MOL0     H97408   1.116   7.385   1.080 -3.8660  1.4164  0.5393
  738MOL0     H97409   1.253   7.439   1.172  0.4311 -2.0403 -1.8752
  738MOL0     H97410   1.028   7.637   1.131  0.6467 -0.5373 -1.1880
  738MOL0     H97411   1.142   7.618   1.272  2.6524 -3.1502  0.4845
  738MOL0     H97412   0.913   7.428   1.209  1.3253 -0.9461 -0.7023
  738MOL0     H97413   1.040   7.426   1.335  1.5718 -1.2239 -1.6196
  738MOL0     H97414   0.834   7.702   1.538  0.0341  0.2698  0.0194
  738MOL0     H97415   1.431   7.223   0.846 -0.8422 -0.6669 -1.1441
  738MOL0     H97416   1.639   7.216   0.782 -0.4620 -1.0069  1.5613
  739MOL0     O97417   5.527   0.536   3.096 -0.4354  0.1499  0.2007
  739MOL0     C97418   5.573   0.559   3.209 -0.1875  0.7745 -0.1126
  739MOL0     O97419   5.528   0.497   3.319  0.1681  0.4553 -0.1316
  739MOL0     C97420   5.410   0.423   3.322 -0.0688  0.6079  0.0901
  739MOL0     C97421   5.405   0.285   3.312  0.3893 -1.2107  0.6364
  739MOL0     C97422   5.293   0.214   3.299  0.6804  1.0095 -0.0980
  739MOL0     C97423   5.166   0.286   3.294 -0.7542  0.5355  0.6032
  739MOL0     O97424   5.051   0.217   3.303  0.5798 -0.9557 -0.0171
  739MOL0     C97425   5.012   0.137   3.187  0.1020  0.7732  0.7125
  739MOL0     C97426   4.912   0.045   3.258  1.0485 -0.1263 -0.6786
  739MOL0     C97427   4.818  -0.027   3.169  0.4589  0.0017  0.5534
  739MOL0     C97428   4.727   0.054   3.083  0.0500 -0.8255  0.6181
  739MOL0     C97429   4.633   0.151   3.150 -0.6845 -0.5805  1.4084
  739MOL0     C97430   4.517   0.078   3.222  0.1710  0.3182 -0.7500
  739MOL0     C97431   4.469   0.158   3.353 -0.2717  0.0242  0.3958
  739MOL0     C97432   4.354   0.089   3.428  0.0548 -0.6086 -0.3569
  739MOL0     N97433   4.325   0.172   3.541  0.1627  0.0531  0.9004
  739MOL0     C97434   4.415   0.173   3.655  0.8943  0.4569  0.3638
  739MOL0     C97435   4.331   0.222   3.752 -0.5357  0.1832 -0.8631
  739MOL0     C97436   4.367   0.250   3.898 -0.3433  0.1701 -0.0148
  739MOL0     C97437   4.250   0.265   3.988 -0.3764 -0.1181  0.4218
  739MOL0     C97438   4.291   0.330   4.129  0.0875 -0.3869  0.0596
  739MOL0     C97439   4.356   0.472   4.132  0.1243 -0.4557  0.4425
  739MOL0     O97440   4.377   0.510   4.267 -0.1107  0.1966  0.1398
  739MOL0     C97441   4.491   0.474   4.333  1.5613 -0.4842  0.9584
  739MOL0     C97442   4.497   0.526   4.465 -0.7880 -0.4779  0.8634
  739MOL0     C97443   4.617   0.500   4.537  0.7392 -0.8022 -0.4743
  739MOL0     C97444   4.722   0.423   4.483  0.2418  0.2420  0.0700
  739MOL0     C97445   4.853   0.407   4.556  0.1276  1.4017 -0.3714
  739MOL0     O97446   4.851   0.482   4.669 -0.4859  0.5538  0.5485
  739MOL0     C97447   4.958   0.479   4.761 -0.7494  0.2330  0.1604
  739MOL0     C97448   5.091   0.514   4.707  0.2704 -0.1471 -0.3551
  739MOL0     C97449   5.200   0.510   4.797 -0.0730 -0.6081 -0.3596
  739MOL0     C97450   5.176   0.478   4.934  0.3684 -0.1303 -0.3529
  739MOL0     O97451   5.280   0.472   5.019 -0.8533 -0.4481  0.0230
  739MOL0     C97452   5.264   0.463   5.163  0.5024  0.7672 -0.0084
  739MOL0     C97453   5.403   0.462   5.233 -0.7371 -0.9062  0.0070
  739MOL0     C97454   5.484   0.346   5.189 -0.3317 -0.9040 -0.3497
  739MOL0     C97455   5.621   0.345   5.256 -0.5916  0.5268  0.6614
  739MOL0     C97456   5.701   0.204   5.237 -0.2069 -0.6101 -0.0022
  739MOL0     C97457   5.722   0.149   5.095  0.3334  0.1704 -0.0497
  739MOL0     C97458   5.839   0.059   5.073  0.1007  0.2231  0.5418
  739MOL0     C97459   5.848  -0.057   5.168  0.9404  0.2746  0.7384
  739MOL0    Cl97460   5.685  -0.146   5.209  0.4824 -0.0708  0.3580
  739MOL0     C97461   5.045   0.442   4.979  0.2390  0.2183  0.4752
  739MOL0     C97462   4.935   0.430   4.891 -0.4999 -0.6505 -0.6519
  739MOL0     O97463   4.948   0.333   4.523  0.5077  1.0489 -0.1997
  739MOL0     C97464   4.699   0.358   4.362  0.0326 -0.5080 -0.0941
  739MOL0     C97465   4.596   0.391   4.277 -0.9763  0.0607 -0.0487
  739MOL0     N97466   4.210   0.251   3.692  0.3409 -0.4583  0.6863
  739MOL0     N97467   4.207   0.239   3.563  0.4462 -0.1601 -0.0216
  739MOL0     C97468   5.170   0.419   3.324  0.5532 -0.7723  0.4318
  739MOL0     C97469   5.289   0.487   3.333 -0.9123  0.1097 -0.2155
  739MOL0     C97470   5.683   0.657   3.226  0.9018  0.2315 -0.9485
  739MOL0     C97471   5.766   0.673   3.338 -0.9692  1.5779 -0.4290
  739MOL0     C97472   5.842   0.787   3.347 -0.5846  0.7149 -0.0296
  739MOL0     C97473   5.863   0.871   3.241  0.0109  0.4980  0.4937
  739MOL0     O97474   5.947   0.975   3.256 -0.6573  0.1426  0.1850
  739MOL0     C97475   6.012   1.018   3.135 -1.2729 -0.7089 -0.4152
  739MOL0     C97476   6.154   1.068   3.177  0.9078  0.2277  0.4790
  739MOL0     C97477   6.253   0.959   3.220  0.0248  0.0777 -0.7335
  739MOL0     C97478   6.334   0.896   3.114 -0.4017  0.0620  0.4859
  739MOL0     C97479   6.441   0.979   3.060 -1.3642  0.3209 -0.1420
  739MOL0     C97480   6.532   1.055   3.022 -0.3195 -0.0378 -0.5022
  739MOL0     C97481   5.797   0.844   3.126  0.6883  0.3840  0.4477
  739MOL0     C97482   5.701   0.739   3.117  0.2705 -0.7620 -0.4177
  739MOL0     H97483   5.502   0.237   3.319 -1.1369 -4.4244  2.2767
  739MOL0     H97484   5.310   0.107   3.290  0.7909  1.0370 -0.2240
  739MOL0     H97485   5.098   0.086   3.141 -0.9844 -0.2852 -0.2166
  739MOL0     H97486   4.960   0.210   3.124 -0.4895 -0.4030 -0.2218
  739MOL0     H97487   4.845   0.104   3.322  0.1156 -0.8025 -1.0064
  739MOL0     H97488   4.961  -0.028   3.323 -0.1968  1.5534  2.3752
  739MOL0     H97489   4.765  -0.094   3.238 -0.3880 -2.6806 -2.4774
  739MOL0     H97490   4.871  -0.091   3.099 -3.0596  1.2025 -3.6636
  739MOL0     H97491   4.785   0.123   3.020  0.7971 -1.5889  0.4527
  739MOL0     H97492   4.672  -0.012   3.015  0.9352  0.7065 -1.6974
  739MOL0     H97493   4.582   0.208   3.071  1.2586 -1.3505 -0.4876
  739MOL0     H97494   4.687   0.224   3.211  0.4443  1.5920 -1.8714
  739MOL0     H97495   4.556  -0.017   3.257 -0.0547  0.0138 -1.3096
  739MOL0     H97496   4.435   0.065   3.150  0.7237  2.0489 -1.7700
  739MOL0     H97497   4.553   0.143   3.422  0.3211 -1.3016 -0.5657
  739MOL0     H97498   4.447   0.265   3.341 -0.1262  0.1913  1.4839
  739MOL0     H97499   4.385  -0.009   3.464 -1.5523 -0.4464  1.6320
  739MOL0     H97500   4.262   0.076   3.369 -1.0642  1.1985  0.8905
  739MOL0     H97501   4.519   0.152   3.673  0.5386 -0.3353  1.5645
  739MOL0     H97502   4.439   0.331   3.913 -0.1724 -0.1946  1.2600
  739MOL0     H97503   4.432   0.167   3.927 -0.3849  0.2358  0.2740
  739MOL0     H97504   4.212   0.164   4.004  0.5658 -0.6737 -0.7210
  739MOL0     H97505   4.178   0.338   3.951 -0.5560  0.4019  1.7245
  739MOL0     H97506   4.196   0.337   4.183 -0.6035  0.8252 -1.2133
  739MOL0     H97507   4.363   0.263   4.176 -0.1287  0.5232  1.7432
  739MOL0     H97508   4.294   0.551   4.089  3.5145  0.4980 -3.3456
  739MOL0     H97509   4.445   0.471   4.069 -0.0723 -2.3028  0.1410
  739MOL0     H97510   4.423   0.590   4.514 -1.6213  1.2621 -2.3532
  739MOL0     H97511   4.631   0.553   4.630  2.3345  0.0235 -1.1529
  739MOL0     H97512   5.106   0.546   4.605 -0.7277  1.6445  0.0126
  739MOL0     H97513   5.300   0.537   4.763 -1.2085  2.0309 -1.9782
  739MOL0     H97514   5.222   0.363   5.179 -1.2265  1.1252 -1.9059
  739MOL0     H97515   5.192   0.538   5.196  0.2807  0.8021 -0.5485
  739MOL0     H97516   5.387   0.454   5.340  1.0044  0.7864  0.4510
  739MOL0     H97517   5.446   0.560   5.210  1.4858 -1.7715  0.2333
  739MOL0     H97518   5.500   0.325   5.082  1.6679 -1.6315  0.0499
  739MOL0     H97519   5.425   0.257   5.213 -0.4503 -0.9578 -0.8193
  739MOL0     H97520   5.682   0.420   5.205 -2.1488 -1.8431 -5.6811
  739MOL0     H97521   5.607   0.371   5.361  1.2416  1.7282  0.6483
  739MOL0     H97522   5.640   0.136   5.297  0.6486 -2.4812 -1.1394
  739MOL0     H97523   5.797   0.220   5.286 -1.1109  2.4367  0.9409
  739MOL0     H97524   5.735   0.239   5.034  1.9701  0.2299  0.3382
  739MOL0     H97525   5.636   0.090   5.063  0.6786 -0.8204  0.7866
  739MOL0     H97526   5.842   0.009   4.976  1.6397 -1.2718  1.2930
  739MOL0     H97527   5.927   0.124   5.071 -0.7557  1.5909 -3.9509
  739MOL0     H97528   5.886  -0.013   5.261  0.9216  0.3467  0.7121
  739MOL0     H97529   5.930  -0.127   5.148  1.3777  0.4362  1.8845
  739MOL0     H97530   5.019   0.424   5.083 -2.3001 -0.4515 -0.2046
  739MOL0     H97531   4.837   0.404   4.929 -1.7859  3.1268 -0.8964
  739MOL0     H97532   4.771   0.291   4.316  0.1188 -1.0052  0.7290
  739MOL0     H97533   4.604   0.349   4.178  1.2769  3.6209 -1.6010
  739MOL0     H97534   5.077   0.465   3.355 -0.1450  0.3481 -2.8435
  739MOL0     H97535   5.276   0.594   3.340 -2.9262  0.2279 -3.5137
  739MOL0     H97536   5.771   0.611   3.427 -0.4335 -0.4219 -1.7960
  739MOL0     H97537   5.892   0.810   3.441 -1.7190  0.1413  0.7332
  739MOL0     H97538   5.958   1.089   3.072  0.6066  0.8684 -0.3521
  739MOL0     H97539   6.022   0.935   3.065  0.3928 -0.6897 -0.2460
  739MOL0     H97540   6.202   1.109   3.088 -0.3096  3.0944  1.0319
  739MOL0     H97541   6.146   1.145   3.255 -1.5939 -0.5265  1.0427
  739MOL0     H97542   6.191   0.888   3.275 -1.3827  1.4359 -0.4695
  739MOL0     H97543   6.316   0.998   3.300  1.9787  0.1656 -2.2482
  739MOL0     H97544   6.372   0.799   3.149 -0.6247  0.3189  1.4851
  739MOL0     H97545   6.270   0.871   3.029  1.2816 -1.2768 -0.4393
  739MOL0     H97546   6.611   1.125   3.007 -1.8109  2.5017  2.3598
  739MOL0     H97547   5.803   0.920   3.050  0.1331  0.9407  0.9555
  739MOL0     H97548   5.640   0.727   3.028  1.6957 -1.4790 -1.3338
  740MOL0     O97549   7.375   6.282   3.918 -0.4387  0.3616  0.5348
  740MOL0     C97550   7.333   6.292   4.031 -0.6192 -0.1847 -0.3841
  740MOL0     O97551   7.208   6.314   4.067 -0.8226  0.0438 -0.0333
  740MOL0     C97552   7.122   6.341   3.969 -0.8922  0.0468  0.6082
  740MOL0     C97553   7.100   6.476   3.936 -0.1225  0.8046  0.7459
  740MOL0     C97554   6.994   6.504   3.849 -0.3618 -0.2965  0.1085
  740MOL0     C97555   6.904   6.409   3.806  0.4346 -0.1302  0.2188
  740MOL0     O97556   6.799   6.459   3.729  0.3989 -0.2356  0.0961
  740MOL0     C97557   6.753   6.372   3.623  0.5243 -0.3134 -0.5355
  740MOL0     C97558   6.701   6.461   3.507 -0.0329 -0.3210  0.2832
  740MOL0     C97559   6.631   6.592   3.559 -1.0621  0.0448 -0.4438
  740MOL0     C97560   6.524   6.650   3.455 -0.3715 -0.6321  0.1556
  740MOL0     C97561   6.390   6.688   3.518  0.3831  0.6886  0.0597
  740MOL0     C97562   6.300   6.565   3.555 -0.7240 -0.1768  0.7445
  740MOL0     C97563   6.239   6.481   3.431  0.0425  0.8101 -0.4900
  740MOL0     C97564   6.149   6.564   3.341 -0.0376  0.3027  0.3664
  740MOL0     N97565   6.108   6.473   3.231 -0.0390  0.3589 -0.1583
  740MOL0     C97566   6.011   6.373   3.238  0.3102 -0.3803  0.3169
  740MOL0     C97567   5.996   6.327   3.107  0.5986  0.0393  1.4114
  740MOL0     C97568   5.905   6.218   3.060 -0.0079 -0.1703 -0.7056
  740MOL0     C97569   5.980   6.131   2.957  0.3078  1.1979 -0.3322
  740MOL0     C97570   5.889   6.017   2.909 -0.4836 -0.8817 -0.3077
  740MOL0     C97571   5.946   5.962   2.783  0.5876  0.8416 -0.0367
  740MOL0     O97572   6.066   5.890   2.776  0.1083  0.4748  0.0515
  740MOL0     C97573   6.185   5.942   2.767 -0.2315 -0.3242 -0.7939
  740MOL0     C97574   6.214   6.059   2.701  0.4172 -1.0704 -0.0475
  740MOL0     C97575   6.338   6.123   2.704 -0.0178  1.0344  0.0773
  740MOL0     C97576   6.448   6.050   2.745 -0.2819  0.2597 -0.2454
  740MOL0     C97577   6.593   6.098   2.729  0.4329 -0.0599 -0.2052
  740MOL0     O97578   6.609   6.219   2.656  0.1240 -0.2030 -0.2726
  740MOL0     C97579   6.740   6.255   2.625  0.5594 -0.3194 -0.0164
  740MOL0     C97580   6.799   6.328   2.719  0.1533 -1.1322  0.1565
  740MOL0     C97581   6.934   6.368   2.694  0.8667  0.2041 -0.9144
  740MOL0     C97582   7.001   6.343   2.575  0.2779  0.6964 -0.4990
  740MOL0     O97583   7.126   6.376   2.569 -0.3511 -0.2197  0.6357
  740MOL0     C97584   7.205   6.352   2.450  0.3033  0.4613 -1.0352
  740MOL0     C97585   7.361   6.377   2.470  0.6915 -0.3779 -0.0504
  740MOL0     C97586   7.446   6.280   2.553  0.5045 -0.5476  0.1926
  740MOL0     C97587   7.412   6.128   2.536  0.6499  1.1476 -0.4562
  740MOL0     C97588   7.482   6.039   2.646 -0.2642  0.7759 -0.7877
  740MOL0     C97589   7.635   6.066   2.652  0.0510  0.1668 -0.0712
  740MOL0     C97590   7.676   5.971   2.770 -0.5296  0.7052 -0.2454
  740MOL0     C97591   7.760   5.853   2.712 -0.1118 -0.0306 -0.7419
  740MOL0    Cl97592   7.657   5.735   2.639 -0.3769 -0.6974  0.0227
  740MOL0     C97593   6.929   6.270   2.471  0.3811  0.9218 -0.4009
  740MOL0     C97594   6.801   6.219   2.503 -0.4801  0.2594 -0.5931
  740MOL0     O97595   6.688   6.027   2.774 -0.5387 -0.1691  0.2964
  740MOL0     C97596   6.423   5.922   2.800  0.3742  0.6395 -0.2837
  740MOL0     C97597   6.295   5.868   2.821  0.5068  0.2456  0.7335
  740MOL0     N97598   6.095   6.380   3.034  0.1668 -0.8978 -0.8265
  740MOL0     N97599   6.157   6.473   3.102 -0.0283 -0.9141 -0.7196
  740MOL0     C97600   6.912   6.272   3.858 -0.9124  0.0473 -0.0854
  740MOL0     C97601   7.029   6.243   3.931 -0.3159 -0.3822 -0.0806
  740MOL0     C97602   7.433   6.293   4.153 -1.1812  0.2196  0.3825
  740MOL0     C97603   7.404   6.331   4.284  0.4344 -0.9695  0.1236
  740MOL0     C97604   7.503   6.343   4.377  0.8752  0.7630  0.2097
  740MOL0     C97605   7.640   6.342   4.345 -0.3870  0.3103 -0.4470
  740MOL0     O97606   7.743   6.384   4.429  0.3438 -0.2263  0.1979
  740MOL0     C97607   7.816   6.500   4.384  0.3241 -0.2620  0.8645
  740MOL0     C97608   7.737   6.634   4.414  0.8677  0.1065  1.5233
  740MOL0     C97609   7.660   6.677   4.297  0.3858  0.7257  0.1759
  740MOL0     C97610   7.581   6.813   4.323 -0.0339 -0.4916  0.7536
  740MOL0     C97611   7.462   6.830   4.236 -0.4798  0.0587 -0.1822
  740MOL0     C97612   7.367   6.859   4.168  0.7117 -0.3360 -0.2786
  740MOL0     C97613   7.669   6.297   4.221 -0.0499 -0.3048 -0.0721
  740MOL0     C97614   7.566   6.270   4.128 -0.0484  0.2488 -0.4325
  740MOL0     H97615   7.159   6.561   3.970 -0.7780  0.9334  1.5766
  740MOL0     H97616   6.975   6.607   3.821 -0.8167  0.1112  1.7818
  740MOL0     H97617   6.664   6.310   3.641  0.0990 -0.2238 -2.1702
  740MOL0     H97618   6.833   6.317   3.573 -0.4106  0.8246 -3.4481
  740MOL0     H97619   6.626   6.403   3.452 -2.7060  1.9639  1.3549
  740MOL0     H97620   6.788   6.474   3.441  0.6065  0.8988  1.3318
  740MOL0     H97621   6.707   6.668   3.583 -1.3148  0.2332 -0.2391
  740MOL0     H97622   6.581   6.559   3.651 -2.1122  0.1385 -0.9710
  740MOL0     H97623   6.566   6.737   3.404  0.4006 -1.3819 -0.5235
  740MOL0     H97624   6.507   6.589   3.366  1.2398 -2.6301  1.1462
  740MOL0     H97625   6.323   6.744   3.453 -0.9402 -1.7469 -0.8271
  740MOL0     H97626   6.417   6.747   3.606 -0.6178  1.0784  0.1215
  740MOL0     H97627   6.218   6.614   3.608 -0.5577 -0.1520  0.9795
  740MOL0     H97628   6.357   6.498   3.620  2.4672  0.6249 -0.9947
  740MOL0     H97629   6.331   6.448   3.382 -0.5300  0.4811 -1.3664
  740MOL0     H97630   6.179   6.397   3.465 -2.7920  1.2613 -3.8028
  740MOL0     H97631   6.212   6.642   3.297  1.0935 -1.1797 -0.7552
  740MOL0     H97632   6.075   6.613   3.405  0.0587 -2.7009  3.0045
  740MOL0     H97633   5.958   6.348   3.329 -1.0225  0.9073 -0.0659
  740MOL0     H97634   5.815   6.259   3.014 -1.7226 -0.2198  2.3505
  740MOL0     H97635   5.878   6.149   3.141 -1.2181 -1.6909 -2.3047
  740MOL0     H97636   6.071   6.089   3.001  0.6507  2.8295  0.6357
  740MOL0     H97637   6.005   6.193   2.871 -1.2839  2.6339  0.1872
  740MOL0     H97638   5.871   5.945   2.990 -2.4590  1.7735  1.8222
  740MOL0     H97639   5.793   6.063   2.886 -0.8759  0.0299  2.6584
  740MOL0     H97640   5.949   6.041   2.709 -2.0491  0.4393 -0.6994
  740MOL0     H97641   5.860   5.903   2.749 -0.6520  1.9632  1.0528
  740MOL0     H97642   6.140   6.113   2.642  3.0172 -0.2996 -2.8611
  740MOL0     H97643   6.350   6.217   2.650 -0.0325  0.8673 -0.2184
  740MOL0     H97644   6.748   6.354   2.811  0.5656  2.9339 -0.5519
  740MOL0     H97645   6.986   6.410   2.779  1.5306 -2.7518  0.2799
  740MOL0     H97646   7.166   6.419   2.373 -2.1504  2.0931  1.4715
  740MOL0     H97647   7.188   6.248   2.421 -0.3570  0.6626 -1.3949
  740MOL0     H97648   7.372   6.482   2.498  1.4156 -0.6435  0.7026
  740MOL0     H97649   7.403   6.371   2.369  0.3698 -2.8931 -0.0964
  740MOL0     H97650   7.437   6.307   2.658 -1.1480  1.9606 -0.4920
  740MOL0     H97651   7.551   6.303   2.531 -0.2112  0.5956 -2.5962
  740MOL0     H97652   7.304   6.119   2.548  0.7074  2.3063  1.3899
  740MOL0     H97653   7.442   6.109   2.432 -3.8911  2.2557 -2.2030
  740MOL0     H97654   7.474   5.932   2.627  0.3295  0.4084  0.8395
  740MOL0     H97655   7.436   6.062   2.742  2.0425  1.4647  0.2230
  740MOL0     H97656   7.656   6.167   2.689 -3.1918  0.0910  2.3839
  740MOL0     H97657   7.686   6.040   2.559  0.3529 -0.5287  0.2782
  740MOL0     H97658   7.727   6.034   2.844 -3.2957  2.2807  0.4573
  740MOL0     H97659   7.593   5.930   2.829 -1.3265  0.0648 -1.7511
  740MOL0     H97660   7.813   5.807   2.796  0.2141 -0.1569 -1.0136
  740MOL0     H97661   7.834   5.893   2.642  1.3549 -0.9761  0.2098
  740MOL0     H97662   6.979   6.244   2.378  0.2674 -2.1418  0.2938
  740MOL0     H97663   6.761   6.157   2.424  1.0284  1.7771 -2.6607
  740MOL0     H97664   6.508   5.856   2.812  1.1047  1.4396 -0.9136
  740MOL0     H97665   6.263   5.770   2.856 -0.6226  0.7216  1.0787
  740MOL0     H97666   6.851   6.184   3.840 -0.1105 -0.5794  0.1578
  740MOL0     H97667   7.043   6.149   3.983  1.2000  2.0176  4.4226
  740MOL0     H97668   7.300   6.355   4.303  0.3674  0.7966 -2.0642
  740MOL0     H97669   7.473   6.383   4.473  1.5497  1.5786  0.0921
  740MOL0     H97670   7.861   6.483   4.286  1.1203 -1.6242  1.4372
  740MOL0     H97671   7.909   6.512   4.440 -1.0359  2.5071  2.7884
  740MOL0     H97672   7.677   6.616   4.504 -1.7671  1.8885  0.2570
  740MOL0     H97673   7.811   6.713   4.426 -0.3767  1.5048  0.3923
  740MOL0     H97674   7.580   6.604   4.283 -0.1664  1.3141  0.1943
  740MOL0     H97675   7.718   6.689   4.206 -0.6000 -0.5236 -0.6624
  740MOL0     H97676   7.554   6.818   4.429  1.4680 -0.5539  1.1512
  740MOL0     H97677   7.641   6.901   4.299 -1.5968 -0.4148 -4.1607
  740MOL0     H97678   7.284   6.897   4.112  0.3104  1.3055  1.3352
  740MOL0     H97679   7.772   6.285   4.187  1.1146 -0.8607  3.2337
  740MOL0     H97680   7.602   6.240   4.030 -2.3752 -1.0124 -0.9957
  741MOL0     O97681   6.870   1.954  10.140 -0.0880 -0.6620  0.4354
  741MOL0     C97682   6.988   1.913  10.164  0.6478 -0.2145 -0.0581
  741MOL0     O97683   7.024   1.833  10.277 -0.6710 -0.0220  0.2240
  741MOL0     C97684   6.943   1.806  10.379 -0.0387 -0.8253 -0.0500
  741MOL0     C97685   6.961   1.686  10.448  0.2845 -0.5457  0.3751
  741MOL0     C97686   6.868   1.641  10.542 -0.2256 -0.0327 -0.2317
  741MOL0     C97687   6.757   1.724  10.581 -0.0736  0.6110  0.6835
  741MOL0     O97688   6.669   1.698  10.681 -0.5913  0.1746  1.1917
  741MOL0     C97689   6.683   1.571  10.751  0.6214  0.2169  0.0353
  741MOL0     C97690   6.564   1.573  10.859 -0.7467  0.3537 -0.9139
  741MOL0     C97691   6.557   1.438  10.924  0.4359 -0.1332 -0.4538
  741MOL0     C97692   6.424   1.411  10.998 -0.1169 -0.1715 -0.0574
  741MOL0     C97693   6.324   1.341  10.902 -0.4827 -0.2483  0.2379
  741MOL0     C97694   6.215   1.254  10.970 -0.0913  0.5240  0.1977
  741MOL0     C97695   6.100   1.233  10.872 -0.7356 -0.3574 -0.1940
  741MOL0     C97696   5.979   1.194  10.943  0.6836 -0.0900 -0.3535
  741MOL0     N97697   5.869   1.156  10.850 -0.2229 -0.4546 -0.3493
  741MOL0     C97698   5.846   1.030  10.807 -0.5255  0.6723  0.0989
  741MOL0     C97699   5.740   1.043  10.721  0.1457  0.2363 -0.8381
  741MOL0     C97700   5.673   0.937  10.637 -0.9178  0.3298 -0.6444
  741MOL0     C97701   5.531   0.892  10.685  0.4013  0.0898  0.1154
  741MOL0     C97702   5.453   0.815  10.574 -0.9471  0.0748 -0.2327
  741MOL0     C97703   5.304   0.804  10.606  0.3113 -0.4888 -0.8977
  741MOL0     O97704   5.239   0.924  10.564  0.1291  0.4576  0.8866
  741MOL0     C97705   5.135   0.985  10.635  0.3255 -0.1742 -0.3517
  741MOL0     C97706   5.005   0.988  10.586  0.3169 -0.5288 -0.3759
  741MOL0     C97707   4.900   1.050  10.650  0.1115 -0.1562  0.7119
  741MOL0     C97708   4.919   1.102  10.777  0.0767  0.9192  0.5964
  741MOL0     C97709   4.796   1.141  10.849  0.5403  0.4265 -0.1877
  741MOL0     O97710   4.684   1.063  10.824  0.4009 -0.4166  0.2149
  741MOL0     C97711   4.559   1.110  10.860 -0.4702  1.1292  0.2812
  741MOL0     C97712   4.456   1.017  10.839  0.3110  0.0213 -0.5004
  741MOL0     C97713   4.323   1.067  10.844  1.5581 -0.9589  0.0590
  741MOL0     C97714   4.289   1.204  10.883 -0.3288  0.2760  0.3391
  741MOL0     O97715   4.164   1.267  10.903  0.1231  0.9091 -1.0957
  741MOL0     C97716   4.066   1.187  10.854 -0.2123  1.0285  0.2129
  741MOL0     C97717   3.927   1.255  10.869  0.2530 -0.1171  0.3980
  741MOL0     C97718   3.814   1.146  10.859 -1.2077  0.3758  0.2186
  741MOL0     C97719   3.687   1.216  10.886  0.3005  0.2823  0.3427
  741MOL0     C97720   3.560   1.163  10.818 -0.6357 -0.5116 -0.2543
  741MOL0     C97721   3.549   1.202  10.667 -0.1860  1.2617 -1.3919
  741MOL0     C97722   3.407   1.179  10.626 -0.0296  0.6046  0.5235
  741MOL0     C97723   3.302   1.287  10.656  0.1546 -1.4754 -0.9815
  741MOL0    Cl97724   3.334   1.418  10.537  0.0288  0.2379 -0.1216
  741MOL0     C97725   4.395   1.292  10.897 -0.4326 -0.0204 -0.3442
  741MOL0     C97726   4.531   1.248  10.882 -0.7372 -0.5862 -0.5773
  741MOL0     O97727   4.815   1.226  10.937 -0.0949  0.5664 -0.4157
  741MOL0     C97728   5.051   1.114  10.821  0.1457  0.1083 -0.8325
  741MOL0     C97729   5.161   1.064  10.752  0.2706 -0.2028  0.1408
  741MOL0     N97730   5.687   1.170  10.743  0.1815  0.3120 -1.5166
  741MOL0     N97731   5.764   1.239  10.816 -0.2795 -0.0972  0.1504
  741MOL0     C97732   6.748   1.855  10.524  0.1385 -0.2308 -0.6817
  741MOL0     C97733   6.846   1.898  10.427  0.5850 -0.0572 -0.3102
  741MOL0     C97734   7.093   1.951  10.066 -0.8509 -0.2383  0.6128
  741MOL0     C97735   7.231   1.943  10.108  1.1498 -0.3753  0.8624
  741MOL0     C97736   7.327   1.975  10.016  0.1037 -0.5572  0.4257
  741MOL0     C97737   7.303   2.013   9.890  1.2138  0.4345 -0.2745
  741MOL0     O97738   7.420   2.030   9.819  0.0120  0.0933  0.3445
  741MOL0     C97739   7.414   2.099   9.693  0.8447 -0.1452  0.5826
  741MOL0     C97740   7.561   2.111   9.647  0.5149 -0.5983  0.0265
  741MOL0     C97741   7.624   1.986   9.605 -0.9246 -0.8598 -0.0269
  741MOL0     C97742   7.764   2.004   9.556 -0.0882  0.6698 -1.5494
  741MOL0     C97743   7.748   2.070   9.427  0.2516 -0.6822  0.9907
  741MOL0     C97744   7.740   2.117   9.317  0.5230  0.6102  0.3791
  741MOL0     C97745   7.169   2.030   9.848 -0.1713 -0.6074  1.0502
  741MOL0     C97746   7.069   1.996   9.937  0.3258  0.7849  0.3810
  741MOL0     H97747   7.037   1.617  10.413 -2.6143 -1.9608 -4.0277
  741MOL0     H97748   6.886   1.547  10.593  4.2273  1.1773  0.8433
  741MOL0     H97749   6.784   1.563  10.794  1.0442  2.3978 -0.4127
  741MOL0     H97750   6.671   1.492  10.677 -1.8181  0.8911 -0.3522
  741MOL0     H97751   6.468   1.602  10.816 -1.2977 -1.0981 -0.7213
  741MOL0     H97752   6.597   1.641  10.938  3.4633  1.5936 -3.3896
  741MOL0     H97753   6.638   1.431  10.997  1.5572  1.7674 -1.4459
  741MOL0     H97754   6.578   1.360  10.850  2.6104  0.8647 -0.9463
  741MOL0     H97755   6.432   1.354  11.091 -0.1984 -0.8415 -0.4519
  741MOL0     H97756   6.386   1.506  11.035  4.2680  0.8407  2.5615
  741MOL0     H97757   6.374   1.279  10.827 -1.0136  0.2954 -0.5872
  741MOL0     H97758   6.287   1.423  10.840 -0.6796  1.2522  2.2250
  741MOL0     H97759   6.174   1.304  11.058 -1.5145 -1.3979  0.6856
  741MOL0     H97760   6.260   1.157  10.994 -0.7184  0.5952  1.7796
  741MOL0     H97761   6.063   1.328  10.831 -0.7070  0.8526  2.3635
  741MOL0     H97762   6.122   1.165  10.790  1.9392  0.8084 -0.5706
  741MOL0     H97763   5.946   1.271  11.013  0.5993 -0.1517 -0.3251
  741MOL0     H97764   6.002   1.110  11.009  3.1219  0.8746  0.1397
  741MOL0     H97765   5.895   0.936  10.827  0.8980  1.7647  2.0611
  741MOL0     H97766   5.737   0.850  10.619 -2.1505 -1.1182  1.4886
  741MOL0     H97767   5.651   0.994  10.546  0.0343  2.6116  0.4719
  741MOL0     H97768   5.478   0.987  10.695  1.2388  0.7211 -1.1478
  741MOL0     H97769   5.536   0.844  10.783 -2.4344 -1.4606 -0.3806
  741MOL0     H97770   5.468   0.865  10.478 -0.6602 -0.2920 -0.3792
  741MOL0     H97771   5.500   0.717  10.570  2.9057  1.7138  0.6256
  741MOL0     H97772   5.293   0.778  10.711  2.8256 -0.6466 -0.5930
  741MOL0     H97773   5.255   0.717  10.560 -2.4799 -1.2882  3.1057
  741MOL0     H97774   4.978   0.927  10.501  1.8144  0.7025 -1.8319
  741MOL0     H97775   4.804   1.019  10.609  0.9134 -0.4966 -0.9921
  741MOL0     H97776   4.475   0.913  10.816 -0.4558 -0.7411  2.0596
  741MOL0     H97777   4.239   1.000  10.834 -0.5091  1.7627 -2.3431
  741MOL0     H97778   4.058   1.094  10.912 -1.4083  0.6257 -0.5819
  741MOL0     H97779   4.072   1.177  10.746 -2.7364  0.8730  0.0493
  741MOL0     H97780   3.909   1.319  10.783  2.3925  0.8337  0.6002
  741MOL0     H97781   3.917   1.311  10.962  2.0065  3.2612 -1.2834
  741MOL0     H97782   3.831   1.062  10.928  2.4257 -0.7606 -1.7499
  741MOL0     H97783   3.811   1.101  10.759 -1.8551  3.0875 -1.0726
  741MOL0     H97784   3.665   1.206  10.993  0.8119 -0.7824  0.3615
  741MOL0     H97785   3.712   1.317  10.851  3.0951 -1.3886 -3.1325
  741MOL0     H97786   3.477   1.201  10.878  0.0384 -2.5578  2.0953
  741MOL0     H97787   3.553   1.055  10.833 -1.4865 -0.5337 -0.7293
  741MOL0     H97788   3.619   1.141  10.610 -1.3553 -2.3463  0.7191
  741MOL0     H97789   3.566   1.310  10.659  2.5592  0.8867 -1.4052
  741MOL0     H97790   3.408   1.168  10.517  0.5052 -1.7380  0.7156
  741MOL0     H97791   3.376   1.086  10.674 -0.8132  0.4805 -0.1941
  741MOL0     H97792   3.326   1.329  10.754 -0.9332 -1.2908 -0.7837
  741MOL0     H97793   3.199   1.252  10.643 -0.0853 -0.4735 -2.0010
  741MOL0     H97794   4.381   1.400  10.900 -1.5413 -0.1736  1.8526
  741MOL0     H97795   4.600   1.331  10.882 -0.9332 -0.4219 -0.3053
  741MOL0     H97796   5.052   1.165  10.917 -4.9353 -0.8393 -0.0003
  741MOL0     H97797   5.263   1.075  10.786 -0.0650  1.0455  0.7926
  741MOL0     H97798   6.672   1.909  10.580  0.6842 -1.5372  1.4302
  741MOL0     H97799   6.837   1.994  10.377  0.0554  0.0304 -0.0552
  741MOL0     H97800   7.255   1.919  10.211 -2.3330 -2.0312  1.4431
  741MOL0     H97801   7.426   1.955  10.056  0.5630  0.6140 -0.0777
  741MOL0     H97802   7.373   2.199   9.705  2.9183  0.5386  2.6259
  741MOL0     H97803   7.350   2.044   9.623  2.6129 -2.8629  0.9188
  741MOL0     H97804   7.559   2.180   9.561  2.7181  0.0133  0.4150
  741MOL0     H97805   7.621   2.160   9.724 -1.9571 -2.8329  3.6427
  741MOL0     H97806   7.561   1.935   9.531 -0.2515 -2.3677  0.4034
  741MOL0     H97807   7.637   1.928   9.696  0.5170 -1.7184 -0.7472
  741MOL0     H97808   7.829   2.054   9.628 -0.0385 -2.3989  0.7566
  741MOL0     H97809   7.823   1.915   9.530 -3.7247 -2.2395 -0.5964
  741MOL0     H97810   7.712   2.168   9.227  0.9220  0.1556 -0.0058
  741MOL0     H97811   7.150   2.073   9.750  0.4916 -0.6062  0.9134
  741MOL0     H97812   6.973   2.006   9.887  0.2280  1.1020  0.6254
  742MOL0     O97813  10.093   9.622   5.627  0.3591 -0.0588  0.4571
  742MOL0     C97814  10.105   9.736   5.671 -0.4524 -0.4034  0.1031
  742MOL0     O97815  10.217   9.808   5.643  0.9274  0.1688 -0.7043
  742MOL0     C97816  10.322   9.753   5.576  0.6112  0.2189 -1.0764
  742MOL0     C97817  10.447   9.768   5.638 -0.2263  0.0808 -0.6846
  742MOL0     C97818  10.570   9.743   5.567 -0.2614 -0.5776 -0.3983
  742MOL0     C97819  10.567   9.676   5.446 -0.7697  0.4139 -0.1914
  742MOL0     O97820  10.683   9.662   5.368 -0.3660 -0.2638  0.4072
  742MOL0     C97821  10.779   9.581   5.439  0.3959  0.1219 -0.4785
  742MOL0     C97822  10.885   9.515   5.355 -0.3695 -0.0895 -1.2486
  742MOL0     C97823  10.821   9.406   5.277 -0.5313 -0.3853 -0.4488
  742MOL0     C97824  10.918   9.304   5.214 -0.5777 -0.0221  0.1178
  742MOL0     C97825  10.849   9.232   5.092 -0.0705 -0.4406 -0.3720
  742MOL0     C97826  10.923   9.100   5.056 -0.5550 -0.6024 -0.5121
  742MOL0     C97827  10.889   9.035   4.915  0.5075 -0.5159 -1.0462
  742MOL0     C97828  10.741   8.989   4.908  0.8689 -0.2222 -0.2977
  742MOL0     N97829  10.702   8.905   5.021  0.9363  0.4440  0.0556
  742MOL0     C97830  10.573   8.893   5.057  0.4709  0.0195  0.8346
  742MOL0     C97831  10.575   8.806   5.159 -0.4878 -0.2926 -0.7764
  742MOL0     C97832  10.448   8.748   5.215  0.3295 -0.3478  0.3482
  742MOL0     C97833  10.415   8.610   5.163  0.1700 -0.2098 -1.1505
  742MOL0     C97834  10.277   8.554   5.216  0.2403 -0.9032  0.0031
  742MOL0     C97835  10.261   8.408   5.182 -0.4917  0.4971  1.0810
  742MOL0     O97836  10.150   8.350   5.260  0.3201  0.1939  0.4433
  742MOL0     C97837  10.018   8.363   5.219  0.6490 -0.2835 -0.4735
  742MOL0     C97838   9.986   8.376   5.084  0.0334 -0.0739 -0.6950
  742MOL0     C97839   9.858   8.395   5.054  0.5646 -0.5945  0.5488
  742MOL0     C97840   9.752   8.401   5.151  0.7498  0.4126 -0.2856
  742MOL0     C97841   9.620   8.436   5.106  0.4883 -0.1984  0.0887
  742MOL0     O97842   9.519   8.420   5.190  0.6631 -0.1661  1.1135
  742MOL0     C97843   9.384   8.442   5.147  0.3705 -0.2112 -0.3884
  742MOL0     C97844   9.320   8.370   5.048  0.2699  0.7358 -0.5963
  742MOL0     C97845   9.178   8.383   5.031 -0.4636 -0.9940 -0.6221
  742MOL0     C97846   9.104   8.467   5.114 -0.2331 -0.0858 -0.2497
  742MOL0     O97847   8.971   8.494   5.101  0.7640 -0.2655 -0.6384
  742MOL0     C97848   8.879   8.502   5.216 -0.3840  0.5371  0.6983
  742MOL0     C97849   8.738   8.501   5.151  0.2507 -0.9403  0.2380
  742MOL0     C97850   8.720   8.375   5.071  0.5369  0.4021 -0.1225
  742MOL0     C97851   8.732   8.390   4.916 -0.4356 -0.8047 -0.5344
  742MOL0     C97852   8.642   8.308   4.835  0.5014  0.0589 -0.3588
  742MOL0     C97853   8.659   8.328   4.682  0.3860  1.1550 -0.0453
  742MOL0     C97854   8.804   8.294   4.642  0.2341 -1.0404  0.1446
  742MOL0     C97855   8.884   8.411   4.578  0.3402  0.1352  0.2860
  742MOL0    Cl97856   9.047   8.358   4.500  0.3443  0.8691 -0.3323
  742MOL0     C97857   9.172   8.537   5.214  0.6517 -0.3280 -0.6294
  742MOL0     C97858   9.307   8.519   5.237  0.0099 -0.5017 -0.5400
  742MOL0     O97859   9.610   8.481   4.998 -0.2262  0.0514  0.9292
  742MOL0     C97860   9.789   8.385   5.280  0.1344  0.6585 -1.1212
  742MOL0     C97861   9.917   8.368   5.321  0.6256  0.6737 -0.6355
  742MOL0     N97862  10.705   8.782   5.195 -0.5412  0.1214 -0.7024
  742MOL0     N97863  10.789   8.836   5.106  0.4578 -0.5813  0.0611
  742MOL0     C97864  10.446   9.664   5.382 -0.2285  0.6208  0.4669
  742MOL0     C97865  10.323   9.697   5.444 -0.6945  0.9007 -0.4760
  742MOL0     C97866   9.994   9.799   5.746  0.6383 -0.0606  0.3349
  742MOL0     C97867   9.875   9.727   5.787 -0.9123 -0.2913 -0.0250
  742MOL0     C97868   9.769   9.790   5.861 -0.2499  0.2401  0.5021
  742MOL0     C97869   9.774   9.925   5.887 -0.1774  0.4182  0.0901
  742MOL0     O97870   9.662   9.988   5.936  0.0780 -0.1713 -0.3282
  742MOL0     C97871   9.651  10.128   5.962 -0.0329 -0.3588 -0.6730
  742MOL0     C97872   9.654  10.174   6.115 -0.8147  0.6625  1.2220
  742MOL0     C97873   9.556  10.101   6.203  0.4404  0.0163  0.0047
  742MOL0     C97874   9.407  10.124   6.165  0.4981 -0.4615 -0.0333
  742MOL0     C97875   9.312  10.075   6.265  1.2756  0.4823  0.0268
  742MOL0     C97876   9.238  10.037   6.356 -0.1719  0.5700  0.8605
  742MOL0     C97877   9.891  10.005   5.842  0.0168 -0.1658  0.3734
  742MOL0     C97878   9.999   9.943   5.782 -0.4782 -0.2989 -0.2699
  742MOL0     H97879  10.460   9.791   5.743 -0.1341 -2.5100 -0.0536
  742MOL0     H97880  10.667   9.766   5.612 -1.7338 -0.3535  2.9401
  742MOL0     H97881  10.718   9.511   5.496 -0.9770  1.5537 -0.1117
  742MOL0     H97882  10.830   9.655   5.502 -2.8250  0.0476  2.4817
  742MOL0     H97883  10.950   9.470   5.430 -2.2112  1.5054  1.4823
  742MOL0     H97884  10.939   9.588   5.295 -0.0659  1.6053  0.9471
  742MOL0     H97885  10.750   9.450   5.206  0.1456  1.3921 -0.0901
  742MOL0     H97886  10.771   9.357   5.361  0.5929 -0.3696  0.2513
  742MOL0     H97887  11.002   9.358   5.168 -0.5289 -0.8681 -0.8226
  742MOL0     H97888  10.943   9.237   5.296  0.8868  0.9642  0.5279
  742MOL0     H97889  10.858   9.313   5.019 -0.6312  1.2509  1.3182
  742MOL0     H97890  10.748   9.201   5.121  1.4235 -3.4874  2.1314
  742MOL0     H97891  10.924   9.024   5.134  2.1380  0.9503  1.1153
  742MOL0     H97892  11.025   9.139   5.053 -0.8446  0.1347 -2.4120
  742MOL0     H97893  10.906   9.104   4.832 -1.6111  1.8583  0.3577
  742MOL0     H97894  10.945   8.943   4.896  0.8340 -0.1484 -1.9175
  742MOL0     H97895  10.715   8.943   4.813  0.1444  0.0371 -0.2290
  742MOL0     H97896  10.681   9.080   4.912  3.0631  1.2713  0.8046
  742MOL0     H97897  10.484   8.935   5.011  0.4632 -0.8357  0.0382
  742MOL0     H97898  10.365   8.807   5.175 -0.3598 -1.5276 -0.0127
  742MOL0     H97899  10.451   8.747   5.324  1.8249 -3.0666  0.3847
  742MOL0     H97900  10.503   8.547   5.184  1.0338  1.5811  1.0153
  742MOL0     H97901  10.409   8.614   5.054 -3.5506  3.5278 -1.0501
  742MOL0     H97902  10.269   8.570   5.324  2.2463  1.4939 -0.1101
  742MOL0     H97903  10.205   8.623   5.172 -0.2001 -0.2924  1.6280
  742MOL0     H97904  10.358   8.365   5.210  0.3671  1.9412  0.4294
  742MOL0     H97905  10.261   8.400   5.073  1.1482  0.5354  1.0492
  742MOL0     H97906  10.061   8.365   5.007  1.9841 -2.5448  1.3607
  742MOL0     H97907   9.832   8.406   4.949  0.1392 -0.2178  0.6903
  742MOL0     H97908   9.373   8.293   4.993 -0.5566  0.1644 -0.6111
  742MOL0     H97909   9.142   8.322   4.948  3.8266  0.5957 -4.0406
  742MOL0     H97910   8.900   8.587   5.282  1.1546  1.2081 -0.5934
  742MOL0     H97911   8.887   8.410   5.275  0.7381  1.2527  1.7049
  742MOL0     H97912   8.717   8.589   5.089  0.7147 -0.0942  1.2377
  742MOL0     H97913   8.672   8.507   5.238  2.3705 -2.8051  2.1257
  742MOL0     H97914   8.614   8.350   5.082  0.5840 -0.6328 -1.7638
  742MOL0     H97915   8.773   8.296   5.125 -1.7734  1.0467  3.4364
  742MOL0     H97916   8.697   8.490   4.890 -4.9389 -1.4318  2.0661
  742MOL0     H97917   8.837   8.373   4.889  1.1618 -1.2803  4.8186
  742MOL0     H97918   8.534   8.325   4.840  0.3140 -0.3029 -2.2404
  742MOL0     H97919   8.673   8.207   4.864  4.3310  0.7762 -1.3998
  742MOL0     H97920   8.636   8.433   4.660 -1.5000  1.0728  1.3339
  742MOL0     H97921   8.589   8.264   4.628  2.2158 -2.8443  1.8996
  742MOL0     H97922   8.865   8.251   4.722  0.7058 -1.1196 -0.2558
  742MOL0     H97923   8.792   8.218   4.564  1.0307 -1.4545  0.4189
  742MOL0     H97924   8.899   8.481   4.660 -2.4014 -0.3218  1.2563
  742MOL0     H97925   8.826   8.451   4.494 -0.9957 -1.9111  0.1672
  742MOL0     H97926   9.122   8.606   5.281  0.4692 -1.6832  0.6568
  742MOL0     H97927   9.355   8.563   5.323 -0.0489  0.4319 -0.9761
  742MOL0     H97928   9.716   8.385   5.360  2.3649  1.0192  1.0267
  742MOL0     H97929   9.949   8.352   5.424  4.6197 -0.1688 -1.8523
  742MOL0     H97930  10.432   9.612   5.288 -2.4341  1.1278  0.4371
  742MOL0     H97931  10.234   9.671   5.388  0.2233  1.1860 -2.1295
  742MOL0     H97932   9.847   9.627   5.755 -2.9765  0.3361 -0.3612
  742MOL0     H97933   9.681   9.735   5.891 -1.2011  1.5791  0.2721
  742MOL0     H97934   9.559  10.168   5.918 -0.1415  2.1194  1.5425
  742MOL0     H97935   9.726  10.191   5.912 -1.5667  2.7169  0.5897
  742MOL0     H97936   9.757  10.151   6.142  0.3971 -0.8163 -3.6354
  742MOL0     H97937   9.640  10.282   6.128  4.5206  2.3020 -2.8971
  742MOL0     H97938   9.580  10.138   6.303 -1.6747  2.9732 -0.4742
  742MOL0     H97939   9.583   9.996   6.182  0.0103  0.4558 -3.2098
  742MOL0     H97940   9.393  10.231   6.144 -0.3458 -0.1487  1.8910
  742MOL0     H97941   9.394  10.060   6.078  1.0703  0.5065 -0.8609
  742MOL0     H97942   9.180  10.020   6.444 -0.9485  1.9181  0.6422
  742MOL0     H97943   9.903  10.113   5.852 -2.6864  0.1991  0.3551
  742MOL0     H97944  10.080  10.000   5.739  1.2649 -2.1996  0.3192
  743MOL0     O97945   9.246   5.623   6.225  0.0780 -0.0673  0.2214
  743MOL0     C97946   9.250   5.508   6.273  0.4563 -0.1711 -0.1095
  743MOL0     O97947   9.150   5.447   6.336  0.4002 -0.3274 -0.8496
  743MOL0     C97948   9.032   5.510   6.377  0.7298 -0.8460  0.0160
  743MOL0     C97949   8.969   5.614   6.302  0.8264 -0.8599 -0.7864
  743MOL0     C97950   8.852   5.676   6.354 -0.4286 -0.1354 -0.5703
  743MOL0     C97951   8.792   5.635   6.473 -0.0833  0.8396  0.5582
  743MOL0     O97952   8.669   5.685   6.518 -0.3850 -0.4773 -0.2854
  743MOL0     C97953   8.584   5.720   6.409 -0.2210  0.4404 -0.8118
  743MOL0     C97954   8.443   5.724   6.460  0.6445 -0.0517 -0.8878
  743MOL0     C97955   8.347   5.767   6.355  0.0933 -0.3165  0.4479
  743MOL0     C97956   8.288   5.652   6.283 -0.9665  0.2461 -0.7525
  743MOL0     C97957   8.184   5.693   6.174  0.7071  0.4292  0.1751
  743MOL0     C97958   8.121   5.569   6.118 -0.8622  0.5415 -0.2331
  743MOL0     C97959   8.020   5.600   6.012 -0.0471  0.5333 -0.3028
  743MOL0     C97960   7.944   5.478   5.975 -0.5036  0.6246 -0.8998
  743MOL0     N97961   8.024   5.360   5.915 -0.1642 -0.4712 -0.9411
  743MOL0     C97962   8.040   5.350   5.785 -0.2347  0.1222 -0.5843
  743MOL0     C97963   8.118   5.232   5.775 -0.1738  0.2650 -0.0106
  743MOL0     C97964   8.193   5.178   5.659 -0.2490  0.5412 -0.6287
  743MOL0     C97965   8.168   5.235   5.523 -0.0083  0.3394 -0.1963
  743MOL0     C97966   8.278   5.319   5.454 -0.1884 -0.3077 -0.0344
  743MOL0     C97967   8.414   5.250   5.446 -0.7598  0.7913  0.4929
  743MOL0     O97968   8.438   5.225   5.311 -0.6444  0.2226 -0.3484
  743MOL0     C97969   8.513   5.319   5.240  0.0706  0.2719  0.1947
  743MOL0     C97970   8.547   5.453   5.273 -0.3208 -1.4084 -0.1113
  743MOL0     C97971   8.631   5.545   5.197 -0.0339 -0.0228 -0.4291
  743MOL0     C97972   8.695   5.482   5.085  0.3971 -0.6581 -0.4156
  743MOL0     C97973   8.787   5.572   5.009  0.0129  1.5103  0.2024
  743MOL0     O97974   8.805   5.707   5.028  0.3847 -0.3498  0.3023
  743MOL0     C97975   8.932   5.763   5.063  0.7461  0.0980  0.2239
  743MOL0     C97976   9.053   5.694   5.089  0.1812 -0.7728  0.2151
  743MOL0     C97977   9.167   5.758   5.135 -0.3390  0.2191 -0.1046
  743MOL0     C97978   9.169   5.898   5.137 -0.0348 -0.1449 -0.0462
  743MOL0     O97979   9.264   5.972   5.200  0.4291 -0.0662 -0.4132
  743MOL0     C97980   9.400   5.941   5.160 -1.0260 -0.4477  0.3768
  743MOL0     C97981   9.460   6.066   5.100  0.4281  0.5503 -0.1167
  743MOL0     C97982   9.615   6.063   5.077 -0.0349 -0.2337  0.1113
  743MOL0     C97983   9.661   5.953   4.983  0.7993  0.6462 -1.0060
  743MOL0     C97984   9.796   5.992   4.927 -0.4624 -0.1418  0.3028
  743MOL0     C97985   9.837   5.887   4.819  0.2343 -0.3832 -0.0280
  743MOL0     C97986   9.961   5.932   4.751 -0.2814  0.1201  0.1655
  743MOL0     C97987  10.082   5.957   4.843  0.4684  0.3633  0.1070
  743MOL0    Cl97988  10.100   5.814   4.955 -0.2747 -0.1802 -0.0741
  743MOL0     C97989   9.058   5.971   5.095 -0.6750  0.6081 -0.5831
  743MOL0     C97990   8.939   5.902   5.064  0.4490  1.3363  0.0279
  743MOL0     O97991   8.866   5.498   4.948 -0.2671  0.4465  0.5447
  743MOL0     C97992   8.665   5.352   5.043 -0.3384  0.6973  0.3064
  743MOL0     C97993   8.572   5.274   5.124  0.6039 -0.5591 -0.0232
  743MOL0     N97994   8.140   5.173   5.898  0.8775  0.2733  0.3337
  743MOL0     N97995   8.085   5.256   5.979  0.2795 -0.4829  0.5566
  743MOL0     C97996   8.856   5.540   6.560 -0.1453 -0.0204 -0.4847
  743MOL0     C97997   8.977   5.468   6.503 -1.0158  0.4209 -0.3771
  743MOL0     C97998   9.377   5.429   6.253 -0.4440  0.6970 -0.4438
  743MOL0     C97999   9.376   5.291   6.273 -0.5208 -0.0969 -0.5049
  743MOL0     C98000   9.495   5.216   6.277  0.6530  0.9430  0.0147
  743MOL0     C98001   9.617   5.285   6.275  0.0008  0.2056 -0.3547
  743MOL0     O98002   9.743   5.221   6.286  0.6658  0.0001 -0.5938
  743MOL0     C98003   9.762   5.085   6.245  0.0040  0.3125 -0.3339
  743MOL0     C98004   9.840   5.076   6.113 -0.3304 -0.2956  0.4784
  743MOL0     C98005   9.754   5.119   5.993 -0.4499  0.5120  0.4481
  743MOL0     C98006   9.823   5.087   5.854 -0.2131 -0.3358  0.3858
  743MOL0     C98007   9.812   5.192   5.753  0.2544 -0.2428  0.3472
  743MOL0     C98008   9.788   5.286   5.686  0.0411 -0.4680  0.6098
  743MOL0     C98009   9.612   5.421   6.252 -0.6503 -0.4875 -0.0022
  743MOL0     C98010   9.500   5.497   6.244  0.9576  0.4343  0.0729
  743MOL0     H98011   8.994   5.650   6.203 -0.0816  1.6909 -0.1680
  743MOL0     H98012   8.808   5.761   6.302  0.6655  2.2047  2.0982
  743MOL0     H98013   8.594   5.652   6.323 -1.2677  2.3395 -2.5229
  743MOL0     H98014   8.618   5.813   6.362  0.5521 -0.4330 -2.0689
  743MOL0     H98015   8.436   5.793   6.545 -1.1948  0.6277 -1.5484
  743MOL0     H98016   8.422   5.621   6.491  1.3820 -0.0684 -0.4196
  743MOL0     H98017   8.400   5.830   6.283 -1.1470 -1.0970 -1.2137
  743MOL0     H98018   8.268   5.820   6.408  1.2562 -0.8394  2.8746
  743MOL0     H98019   8.369   5.588   6.246  0.8103  2.0655 -0.1993
  743MOL0     H98020   8.226   5.602   6.358 -2.6355  0.2422 -2.0803
  743MOL0     H98021   8.224   5.749   6.088 -0.1010 -0.9323 -1.1308
  743MOL0     H98022   8.109   5.754   6.225  0.4358 -1.1290  1.7251
  743MOL0     H98023   8.077   5.513   6.201  2.0425 -1.3286  0.2003
  743MOL0     H98024   8.214   5.521   6.086  0.5392  2.9635 -0.0766
  743MOL0     H98025   7.954   5.685   6.028  2.0116  2.8297 -2.8754
  743MOL0     H98026   8.079   5.632   5.925 -1.1138  3.8254  0.0434
  743MOL0     H98027   7.872   5.504   5.897  0.3714 -0.6896 -2.2118
  743MOL0     H98028   7.893   5.440   6.064 -3.1170 -0.4608 -2.7544
  743MOL0     H98029   8.014   5.417   5.704 -2.2072  1.3554  0.9604
  743MOL0     H98030   8.189   5.069   5.652  0.2085  0.5577 -1.2330
  743MOL0     H98031   8.291   5.213   5.693 -0.3212 -0.1147  0.2818
  743MOL0     H98032   8.080   5.299   5.538 -2.2371 -2.3594 -0.9990
  743MOL0     H98033   8.140   5.151   5.460  0.1714  0.8127 -0.9174
  743MOL0     H98034   8.243   5.352   5.355 -1.1770  0.2851  0.5007
  743MOL0     H98035   8.283   5.412   5.511 -3.0563  0.3955 -0.7331
  743MOL0     H98036   8.399   5.158   5.503  2.4956 -0.0707  0.1873
  743MOL0     H98037   8.496   5.310   5.488 -0.3518  4.2713 -4.3904
  743MOL0     H98038   8.495   5.495   5.358 -1.4491 -1.3885 -0.7888
  743MOL0     H98039   8.636   5.651   5.221  0.3010  0.0812 -0.9404
  743MOL0     H98040   9.057   5.586   5.080  1.2001 -0.6387 -1.2993
  743MOL0     H98041   9.248   5.692   5.164  0.0709 -0.0085 -1.6565
  743MOL0     H98042   9.423   5.867   5.082 -0.3186  0.3228 -0.1718
  743MOL0     H98043   9.464   5.897   5.236  1.0363 -1.5673 -1.8487
  743MOL0     H98044   9.432   6.148   5.167 -1.1500 -0.7024  0.8043
  743MOL0     H98045   9.412   6.073   5.002  2.9025  0.0617 -1.4446
  743MOL0     H98046   9.669   6.056   5.172  0.9541  1.8020 -0.2307
  743MOL0     H98047   9.651   6.158   5.036 -2.0276  2.0634  3.2819
  743MOL0     H98048   9.671   5.853   5.027 -0.0740  1.5831  1.5289
  743MOL0     H98049   9.589   5.943   4.901  1.7925 -2.7662 -1.6448
  743MOL0     H98050   9.872   5.996   5.006 -0.9492  0.6844  0.7422
  743MOL0     H98051   9.803   6.095   4.889  2.2163  0.2096  1.5226
  743MOL0     H98052   9.761   5.872   4.743  3.2314 -0.0046 -3.3477
  743MOL0     H98053   9.856   5.790   4.866 -0.9660 -0.4000  0.4544
  743MOL0     H98054   9.986   5.850   4.683  1.9648  1.0851 -0.2563
  743MOL0     H98055   9.929   6.023   4.699 -4.6466 -0.0605  2.1495
  743MOL0     H98056  10.059   6.049   4.897 -0.8913  1.6388 -2.4276
  743MOL0     H98057  10.179   5.969   4.793  1.3078  3.7837  2.2214
  743MOL0     H98058   9.079   6.074   5.069  1.7427 -0.7144 -4.7542
  743MOL0     H98059   8.856   5.962   5.028 -0.4510  0.3377  0.4105
  743MOL0     H98060   8.718   5.304   4.961  1.2536 -1.3282  2.4199
  743MOL0     H98061   8.554   5.169   5.102 -1.7861 -0.0811 -0.5707
  743MOL0     H98062   8.810   5.523   6.657  1.3537 -2.8756 -0.1706
  743MOL0     H98063   9.012   5.379   6.553  0.8291  1.5863  0.5160
  743MOL0     H98064   9.287   5.235   6.302 -0.2777  1.1196  3.2251
  743MOL0     H98065   9.495   5.108   6.280  2.6382  0.9193  0.7704
  743MOL0     H98066   9.667   5.032   6.232  0.3950 -0.3821 -0.3868
  743MOL0     H98067   9.821   5.038   6.323 -0.1182  1.5919  0.5610
  743MOL0     H98068   9.924   5.146   6.110 -1.3649  1.1078  2.0589
  743MOL0     H98069   9.884   4.977   6.101  0.4533  0.2643 -1.6249
  743MOL0     H98070   9.736   5.226   6.006 -0.4676  0.7023 -0.9609
  743MOL0     H98071   9.654   5.076   5.982 -1.2305  2.5845 -1.1869
  743MOL0     H98072   9.924   5.051   5.875 -0.2012 -0.2449  0.4888
  743MOL0     H98073   9.765   5.011   5.801  0.3834  2.2188 -4.4629
  743MOL0     H98074   9.771   5.366   5.616  0.1206  0.7054  1.8796
  743MOL0     H98075   9.711   5.465   6.252 -0.4546 -0.9130  0.4061
  743MOL0     H98076   9.515   5.604   6.240 -1.1476  0.7932  0.4168
  744MOL0     O98077   5.233   7.367   2.835  0.0886  0.2271  0.1847
  744MOL0     C98078   5.179   7.288   2.758 -0.2220  0.0632  0.2410
  744MOL0     O98079   5.063   7.310   2.698 -0.3750  0.2807  0.4650
  744MOL0     C98080   4.967   7.376   2.771 -0.3340  0.0409 -0.4481
  744MOL0     C98081   4.904   7.480   2.700 -0.4915 -0.6889 -0.0487
  744MOL0     C98082   4.812   7.563   2.759 -0.0870  0.1146 -0.3574
  744MOL0     C98083   4.778   7.537   2.890  0.3395  0.7432 -0.4338
  744MOL0     O98084   4.681   7.619   2.945 -0.2567 -0.6442  0.6652
  744MOL0     C98085   4.725   7.721   3.034 -0.0859  0.6680 -0.7371
  744MOL0     C98086   4.610   7.819   3.075  0.6102 -0.3347 -0.0278
  744MOL0     C98087   4.508   7.733   3.163  0.5554  0.0673  0.0992
  744MOL0     C98088   4.380   7.810   3.175  0.3516 -0.6118  0.2982
  744MOL0     C98089   4.288   7.766   3.063  0.1389 -0.6857 -0.2987
  744MOL0     C98090   4.171   7.864   3.055  0.5632 -0.3276 -0.1078
  744MOL0     C98091   4.088   7.839   2.932 -1.1117 -0.4131  0.0084
  744MOL0     C98092   3.991   7.938   2.913  0.1037 -0.6296  0.3901
  744MOL0     N98093   3.888   7.908   2.814 -0.0456  0.5868 -0.6519
  744MOL0     C98094   3.798   7.810   2.837 -0.2466 -0.2688  0.0304
  744MOL0     C98095   3.721   7.813   2.722  0.5699 -0.4219  0.8011
  744MOL0     C98096   3.587   7.751   2.707  0.5269  0.3601  0.2604
  744MOL0     C98097   3.590   7.634   2.606  0.0409  0.2658  0.2892
  744MOL0     C98098   3.445   7.584   2.580  0.2472  0.2216  0.6024
  744MOL0     C98099   3.368   7.673   2.475 -0.1180 -0.3532 -0.7936
  744MOL0     O98100   3.286   7.770   2.549  0.4265  0.0041  0.5274
  744MOL0     C98101   3.172   7.721   2.608  0.1600 -0.6601 -0.7131
  744MOL0     C98102   3.099   7.601   2.585 -0.7410 -0.3140  0.2849
  744MOL0     C98103   2.980   7.588   2.660  0.3315  0.1960  0.7417
  744MOL0     C98104   2.938   7.689   2.744  1.5363  0.5147 -0.2325
  744MOL0     C98105   2.802   7.673   2.817 -0.2718 -0.7323  0.4960
  744MOL0     O98106   2.779   7.765   2.912  1.0184 -0.2425 -0.6150
  744MOL0     C98107   2.656   7.761   2.972  0.1111  0.0566 -0.4147
  744MOL0     C98108   2.605   7.883   3.020  0.5078  0.1236 -0.2699
  744MOL0     C98109   2.478   7.886   3.082  0.7263 -0.8215  0.6494
  744MOL0     C98110   2.401   7.773   3.099 -0.0470  0.1954 -0.1526
  744MOL0     O98111   2.268   7.807   3.147 -0.1399 -0.3489 -0.3605
  744MOL0     C98112   2.174   7.697   3.144 -0.7464  1.2919  0.3893
  744MOL0     C98113   2.187   7.638   3.284 -0.0360  0.4548  0.5097
  744MOL0     C98114   2.100   7.690   3.408  0.6471  0.3778  0.3241
  744MOL0     C98115   1.954   7.685   3.368  0.0488  0.0211 -0.2745
  744MOL0     C98116   1.849   7.730   3.484 -0.5144 -0.7020 -0.3760
  744MOL0     C98117   1.855   7.886   3.517 -0.1193  0.6000 -0.0591
  744MOL0     C98118   1.764   7.932   3.631 -0.1228 -1.0970  0.1801
  744MOL0     C98119   1.803   8.071   3.694  0.7977  0.7067  0.0128
  744MOL0    Cl98120   1.959   8.055   3.787  0.0343  0.2025  0.4239
  744MOL0     C98121   2.460   7.655   3.066  0.3725 -0.4263 -0.1506
  744MOL0     C98122   2.584   7.642   3.007  0.6002  0.3267  0.8861
  744MOL0     O98123   2.735   7.576   2.788  0.5051 -0.7546 -0.2305
  744MOL0     C98124   3.012   7.800   2.761  0.1176 -0.9666 -0.5456
  744MOL0     C98125   3.128   7.812   2.706 -0.4818  0.8626  0.8993
  744MOL0     N98126   3.770   7.913   2.639  0.1749  0.4228  0.4667
  744MOL0     N98127   3.868   7.960   2.699 -0.5355 -0.3328 -0.8151
  744MOL0     C98128   4.829   7.426   2.959  0.4305 -0.5184 -0.4062
  744MOL0     C98129   4.929   7.346   2.906  0.5884 -0.2877 -0.0902
  744MOL0     C98130   5.220   7.145   2.737  0.5283  0.1078 -0.1079
  744MOL0     C98131   5.354   7.108   2.776 -0.2825 -0.0332  0.1485
  744MOL0     C98132   5.395   6.979   2.760 -0.7993 -0.4839 -0.2841
  744MOL0     C98133   5.309   6.877   2.713 -0.2490  0.6724 -0.5734
  744MOL0     O98134   5.345   6.751   2.685 -0.6019 -0.6775  0.2682
  744MOL0     C98135   5.476   6.727   2.651 -0.1976  1.1198 -0.4901
  744MOL0     C98136   5.480   6.589   2.573  0.7916 -0.5409  0.3221
  744MOL0     C98137   5.399   6.603   2.442 -0.4880  0.5304  0.9803
  744MOL0     C98138   5.389   6.461   2.379 -0.7863  0.0514  0.7793
  744MOL0     C98139   5.510   6.419   2.302  0.0422  0.3383 -0.6400
  744MOL0     C98140   5.606   6.375   2.239 -0.4084  0.2714  0.3977
  744MOL0     C98141   5.175   6.911   2.670 -0.4950  0.0346 -0.3917
  744MOL0     C98142   5.128   7.046   2.686 -0.4478 -0.6078 -0.7850
  744MOL0     H98143   4.923   7.498   2.594 -1.5268  1.7908  0.1273
  744MOL0     H98144   4.773   7.647   2.701  1.2066  0.0122 -1.4291
  744MOL0     H98145   4.810   7.774   2.991  1.6122 -0.1912  1.3657
  744MOL0     H98146   4.761   7.673   3.126 -1.7387 -0.4946 -0.6539
  744MOL0     H98147   4.564   7.867   2.988  0.5229  0.7149  0.5813
  744MOL0     H98148   4.658   7.895   3.137  0.1478 -0.9606  1.1322
  744MOL0     H98149   4.541   7.713   3.265 -1.7788  2.2370  1.3845
  744MOL0     H98150   4.483   7.636   3.119 -0.3371  0.1746  0.3474
  744MOL0     H98151   4.336   7.790   3.273 -0.3201  1.5969  0.5104
  744MOL0     H98152   4.411   7.914   3.164  0.7342 -0.8739 -1.2949
  744MOL0     H98153   4.255   7.663   3.079 -0.9128 -0.5388 -1.4103
  744MOL0     H98154   4.346   7.766   2.971  1.1436 -0.6694  0.3222
  744MOL0     H98155   4.197   7.969   3.068  0.0321 -0.4970  3.1836
  744MOL0     H98156   4.106   7.843   3.140  0.6699 -0.4448 -0.0541
  744MOL0     H98157   4.144   7.835   2.839 -1.3517 -1.9199 -0.0955
  744MOL0     H98158   4.040   7.741   2.946  0.5503 -1.1688  0.6808
  744MOL0     H98159   4.039   8.033   2.887  1.2541 -0.9180  1.3204
  744MOL0     H98160   3.948   7.967   3.009 -2.4710  2.4781 -1.5265
  744MOL0     H98161   3.773   7.755   2.927  1.7398 -0.1719  0.6836
  744MOL0     H98162   3.510   7.826   2.685 -1.0154 -1.3594 -0.4635
  744MOL0     H98163   3.564   7.715   2.808 -0.0062  1.3206  0.4979
  744MOL0     H98164   3.648   7.558   2.661  1.4921  1.3421  0.3096
  744MOL0     H98165   3.638   7.660   2.512 -0.0189  2.2238  0.7614
  744MOL0     H98166   3.443   7.480   2.546  0.5622  0.7034 -0.9751
  744MOL0     H98167   3.390   7.582   2.674 -0.1648 -1.1831  0.3565
  744MOL0     H98168   3.303   7.606   2.418  0.2045 -1.2887 -0.0832
  744MOL0     H98169   3.437   7.728   2.410  0.8929 -1.6637 -0.8570
  744MOL0     H98170   3.134   7.528   2.512 -0.9102  1.9861 -2.2682
  744MOL0     H98171   2.925   7.497   2.640 -0.0785  0.5156  0.3876
  744MOL0     H98172   2.663   7.973   3.008  0.0069  0.3691 -0.9163
  744MOL0     H98173   2.433   7.981   3.110 -0.5498 -0.1224 -3.1419
  744MOL0     H98174   2.192   7.627   3.061  1.3151  0.1426  1.7214
  744MOL0     H98175   2.069   7.724   3.131 -0.8008  0.3066 -1.8161
  744MOL0     H98176   2.287   7.633   3.326 -0.0309  2.4154  0.7994
  744MOL0     H98177   2.154   7.534   3.287  1.6792 -0.1110  0.9154
  744MOL0     H98178   2.128   7.793   3.429  2.0197 -0.0455  0.6563
  744MOL0     H98179   2.121   7.628   3.496  0.1113  1.3824  1.1853
  744MOL0     H98180   1.930   7.747   3.282 -1.3440 -1.6243 -1.1374
  744MOL0     H98181   1.928   7.586   3.328  1.2965 -0.7706  0.7649
  744MOL0     H98182   1.866   7.670   3.574  0.6271  0.8235  0.4685
  744MOL0     H98183   1.749   7.712   3.445 -0.6964 -2.3605  0.7054
  744MOL0     H98184   1.839   7.948   3.428  0.3109 -1.7947 -1.9273
  744MOL0     H98185   1.959   7.896   3.552 -0.2091 -0.2628  0.4973
  744MOL0     H98186   1.658   7.934   3.604 -0.4536  0.9788  1.3788
  744MOL0     H98187   1.775   7.859   3.712  1.6497 -1.4961 -0.3753
  744MOL0     H98188   1.727   8.101   3.766  2.5080  1.7169  1.4805
  744MOL0     H98189   1.814   8.138   3.608 -1.4585 -0.0017 -0.8928
  744MOL0     H98190   2.406   7.565   3.092  2.3706 -1.4417  0.7643
  744MOL0     H98191   2.630   7.545   2.996  1.4442  0.6362  1.5595
  744MOL0     H98192   2.978   7.878   2.829 -1.8096 -1.1861 -1.1865
  744MOL0     H98193   3.176   7.909   2.715 -0.7897  1.0581  0.4583
  744MOL0     H98194   4.781   7.407   3.055  0.6856 -2.0251 -0.5520
  744MOL0     H98195   4.967   7.271   2.974  0.3339 -2.0566 -1.8018
  744MOL0     H98196   5.413   7.182   2.830 -1.6307 -0.2881  2.1029
  744MOL0     H98197   5.498   6.956   2.784 -1.1826 -0.0671  1.9316
  744MOL0     H98198   5.544   6.723   2.737 -0.0842 -1.7226 -0.6332
  744MOL0     H98199   5.517   6.803   2.583  2.3209  1.7998  1.5984
  744MOL0     H98200   5.579   6.565   2.533  0.4857 -3.2429  0.9390
  744MOL0     H98201   5.435   6.511   2.636 -0.8292  1.1245  1.3091
  744MOL0     H98202   5.442   6.672   2.368  1.5427 -0.5097  1.1402
  744MOL0     H98203   5.297   6.633   2.467  0.1287  2.8996  0.9409
  744MOL0     H98204   5.358   6.386   2.452 -3.5352  1.8304  1.6021
  744MOL0     H98205   5.318   6.466   2.296  2.3634  1.5026 -2.0225
  744MOL0     H98206   5.675   6.316   2.183 -0.3247 -0.6726  1.4516
  744MOL0     H98207   5.099   6.842   2.633 -0.2717 -0.8192  0.6892
  744MOL0     H98208   5.025   7.068   2.660 -0.1576 -0.1865 -1.6374
  745MOL0     O98209   5.975  10.162   2.343 -0.8867  0.3158  0.4356
  745MOL0     C98210   5.882  10.160   2.427  0.3700 -0.1141 -0.0410
  745MOL0     O98211   5.828  10.275   2.478 -0.2664  0.9907 -0.1620
  745MOL0     C98212   5.913  10.379   2.463 -0.5029 -0.0397  0.7109
  745MOL0     C98213   5.868  10.502   2.431  0.1522 -0.4039 -0.2284
  745MOL0     C98214   5.957  10.610   2.423  0.5017  0.7929  0.0307
  745MOL0     C98215   6.096  10.592   2.436  0.7508 -0.5705 -0.5679
  745MOL0     O98216   6.155  10.713   2.429 -0.1878  0.2270 -0.4330
  745MOL0     C98217   6.298  10.690   2.415  0.0093 -1.2159  0.2432
  745MOL0     C98218   6.344  10.813   2.328 -0.2957 -1.3867 -0.2927
  745MOL0     C98219   6.476  10.792   2.255 -0.2156 -0.7290 -0.6312
  745MOL0     C98220   6.544  10.914   2.200  0.3813 -0.0109 -0.5008
  745MOL0     C98221   6.696  10.900   2.191  0.3361  0.0381 -0.0685
  745MOL0     C98222   6.757  11.034   2.160  0.4019 -0.8424  0.1527
  745MOL0     C98223   6.915  11.021   2.143 -0.3482 -1.3690 -0.7330
  745MOL0     C98224   6.966  11.153   2.092  0.6796  0.6538 -0.7134
  745MOL0     N98225   6.929  11.188   1.958  0.5648  0.0527 -0.3471
  745MOL0     C98226   6.872  11.110   1.853  0.5058 -0.5364  0.0959
  745MOL0     C98227   6.813  11.199   1.765 -0.4310  0.7726  0.2886
  745MOL0     C98228   6.745  11.153   1.634 -0.1662  0.6566 -1.0235
  745MOL0     C98229   6.668  11.027   1.641 -0.0521 -0.0151  0.3141
  745MOL0     C98230   6.565  11.013   1.531 -1.0894 -0.0071  0.1677
  745MOL0     C98231   6.432  11.089   1.563  0.1304  0.2932 -0.6763
  745MOL0     O98232   6.365  11.093   1.444 -0.3519  0.1834  0.0456
  745MOL0     C98233   6.228  11.131   1.444 -0.2125 -0.1160 -0.0895
  745MOL0     C98234   6.152  11.152   1.559 -0.3862  0.0200  0.2743
  745MOL0     C98235   6.022  11.177   1.545  0.5561  0.7596  0.0379
  745MOL0     C98236   5.962  11.184   1.429 -0.1308 -0.1908 -0.0239
  745MOL0     C98237   5.815  11.192   1.417  0.1073 -0.3274 -0.6160
  745MOL0     O98238   5.748  11.138   1.521 -0.1355  0.1784  0.2280
  745MOL0     C98239   5.618  11.097   1.505 -0.1215 -0.0720  1.2467
  745MOL0     C98240   5.565  11.042   1.378 -0.1552 -0.3785 -0.5265
  745MOL0     C98241   5.436  10.994   1.366  0.2191 -0.5766 -0.1760
  745MOL0     C98242   5.349  11.000   1.481  0.0073  0.4116 -0.1055
  745MOL0     O98243   5.215  10.974   1.471 -0.5140 -0.0309 -0.2903
  745MOL0     C98244   5.162  10.996   1.341  0.5076 -0.3674 -0.7483
  745MOL0     C98245   5.009  11.020   1.327 -0.0117 -0.5534  0.2176
  745MOL0     C98246   4.933  10.911   1.407  0.9095  0.2557 -0.4044
  745MOL0     C98247   4.779  10.926   1.396 -0.8240 -1.0535  0.6084
  745MOL0     C98248   4.702  10.825   1.477  0.2234  0.8854 -0.1292
  745MOL0     C98249   4.549  10.835   1.462 -0.3800 -0.6972 -0.9976
  745MOL0     C98250   4.479  10.716   1.524 -0.4360 -0.0401 -0.4738
  745MOL0     C98251   4.342  10.703   1.462 -0.3646 -0.1976 -0.6617
  745MOL0    Cl98252   4.264  10.554   1.500  0.3963  0.3955  0.0207
  745MOL0     C98253   5.400  11.052   1.603  0.0932  0.8446  0.6641
  745MOL0     C98254   5.531  11.100   1.610 -0.6962  0.7259 -0.3945
  745MOL0     O98255   5.771  11.248   1.322  0.0230 -0.3498 -0.1041
  745MOL0     C98256   6.044  11.194   1.314 -0.7148  1.1747 -0.4395
  745MOL0     C98257   6.180  11.170   1.324 -0.4485 -0.6327  0.4898
  745MOL0     N98258   6.824  11.325   1.825 -0.3843  0.2520 -0.4619
  745MOL0     N98259   6.898  11.314   1.931 -0.4704 -0.7401  0.2469
  745MOL0     C98260   6.140  10.472   2.493 -0.2296 -0.2710 -0.4510
  745MOL0     C98261   6.049  10.367   2.502  0.1392  0.2565 -0.2780
  745MOL0     C98262   5.805  10.037   2.459  0.0059  0.2007  0.3223
  745MOL0     C98263   5.861   9.910   2.415  0.7002  0.2554  0.1167
  745MOL0     C98264   5.803   9.785   2.449 -0.4640  0.7087 -0.3885
  745MOL0     C98265   5.674   9.790   2.501 -0.5962  0.1329  0.0850
  745MOL0     O98266   5.610   9.665   2.516 -0.0410 -0.6525  0.1425
  745MOL0     C98267   5.508   9.649   2.618  0.3443  1.1795  0.0724
  745MOL0     C98268   5.495   9.506   2.661 -0.2822 -0.1291  0.4181
  745MOL0     C98269   5.392   9.435   2.567 -0.8179  0.2455  0.0269
  745MOL0     C98270   5.344   9.304   2.623 -0.0281 -0.2719  0.3549
  745MOL0     C98271   5.247   9.239   2.543  0.4331 -0.1112 -0.6910
  745MOL0     C98272   5.163   9.190   2.476 -0.1559  0.6402  0.2428
  745MOL0     C98273   5.615   9.913   2.538 -0.6176  0.1620  0.2193
  745MOL0     C98274   5.674  10.036   2.508 -0.6673 -0.4862 -0.5708
  745MOL0     H98275   5.768  10.517   2.391  1.1847  0.0118 -2.8254
  745MOL0     H98276   5.907  10.701   2.392 -2.0105 -1.2575 -2.5436
  745MOL0     H98277   6.315  10.609   2.344 -0.5472  1.0992 -2.7522
  745MOL0     H98278   6.357  10.676   2.506  1.2827  1.4390 -0.0678
  745MOL0     H98279   6.361  10.900   2.392  0.0187 -1.7956  0.1923
  745MOL0     H98280   6.269  10.842   2.254  0.9279 -1.2302 -1.5117
  745MOL0     H98281   6.476  10.712   2.180  2.7718 -1.5030  0.0459
  745MOL0     H98282   6.544  10.753   2.331  0.0462  3.2774  1.4358
  745MOL0     H98283   6.501  10.937   2.103 -2.0521  3.8163  1.2591
  745MOL0     H98284   6.527  11.004   2.260 -2.0513  0.4052 -1.7041
  745MOL0     H98285   6.720  10.825   2.115  2.1453 -2.3410  2.6492
  745MOL0     H98286   6.750  10.865   2.279 -1.5808 -1.3554  0.6344
  745MOL0     H98287   6.733  11.107   2.237 -1.5061  1.2427 -2.2768
  745MOL0     H98288   6.727  11.067   2.061  2.7173 -0.8741 -0.6121
  745MOL0     H98289   6.964  10.997   2.238 -0.0436 -2.1000 -1.0650
  745MOL0     H98290   6.939  10.938   2.076 -4.1720 -2.7266 -0.6182
  745MOL0     H98291   7.075  11.147   2.090  0.6250 -0.5970 -0.5519
  745MOL0     H98292   6.930  11.234   2.156 -2.6742 -1.4324  0.2940
  745MOL0     H98293   6.883  11.003   1.845  0.9038 -0.5215  0.3980
  745MOL0     H98294   6.828  11.133   1.565 -2.6835 -1.4346 -3.6953
  745MOL0     H98295   6.688  11.238   1.595 -1.2267  0.3959 -0.0550
  745MOL0     H98296   6.617  11.007   1.736 -2.1587 -1.8338 -1.1054
  745MOL0     H98297   6.747  10.954   1.623  2.1163  2.0868  0.7664
  745MOL0     H98298   6.611  11.054   1.441  1.0969  1.7331  1.9285
  745MOL0     H98299   6.531  10.910   1.525 -1.8979 -0.0455  3.4040
  745MOL0     H98300   6.455  11.190   1.599  1.5004 -0.6479  1.2650
  745MOL0     H98301   6.376  11.031   1.637 -3.4257  0.7931 -2.7321
  745MOL0     H98302   6.182  11.130   1.661 -2.7139 -0.0230  1.0182
  745MOL0     H98303   5.959  11.173   1.634 -0.5410  2.8221 -0.5771
  745MOL0     H98304   5.632  11.038   1.293  1.8061 -1.1773  0.9758
  745MOL0     H98305   5.409  10.971   1.263 -3.7462 -0.6941  0.6982
  745MOL0     H98306   5.189  10.907   1.284  0.9698  1.8181 -4.2094
  745MOL0     H98307   5.210  11.085   1.300  2.0649  0.9074  3.2893
  745MOL0     H98308   4.984  11.011   1.220  1.6287 -2.4999 -0.0555
  745MOL0     H98309   4.985  11.122   1.359 -0.7067  0.4643 -3.1465
  745MOL0     H98310   4.974  10.909   1.509  5.0849 -1.2611 -1.8745
  745MOL0     H98311   4.966  10.815   1.367  1.8519 -1.3278  3.6746
  745MOL0     H98312   4.746  11.024   1.431  2.3582 -0.1852  1.5070
  745MOL0     H98313   4.758  10.910   1.290  1.7501  1.3682 -0.4032
  745MOL0     H98314   4.730  10.832   1.583  2.3947 -1.0950 -0.4851
  745MOL0     H98315   4.734  10.727   1.440 -0.4483  0.4497  0.4199
  745MOL0     H98316   4.516  10.863   1.362  0.3200  1.5085 -0.6643
  745MOL0     H98317   4.531  10.922   1.526 -0.0654 -1.9739  0.9049
  745MOL0     H98318   4.536  10.627   1.497 -0.5955  1.0017 -4.8653
  745MOL0     H98319   4.472  10.746   1.629 -1.6834 -0.9290 -0.2827
  745MOL0     H98320   4.353  10.716   1.354  0.6422 -0.5236 -0.6094
  745MOL0     H98321   4.268  10.774   1.498 -1.0858  0.7977 -3.7782
  745MOL0     H98322   5.340  11.081   1.688  0.7530  5.1462 -0.1257
  745MOL0     H98323   5.557  11.134   1.710  1.8244 -1.1241 -0.3109
  745MOL0     H98324   5.998  11.215   1.218 -1.1255  0.9677 -0.2948
  745MOL0     H98325   6.240  11.167   1.234  2.1479 -2.2188  2.1513
  745MOL0     H98326   6.245  10.463   2.521  0.0123  2.8884 -0.0143
  745MOL0     H98327   6.085  10.272   2.540 -0.1520  0.7323  1.2663
  745MOL0     H98328   5.955   9.902   2.360  1.9070 -0.5819  2.1733
  745MOL0     H98329   5.847   9.691   2.416  7.3167  2.7606  1.8854
  745MOL0     H98330   5.411   9.687   2.586  0.2168  2.0806  1.4361
  745MOL0     H98331   5.528   9.713   2.705 -1.1202  0.1419  1.2203
  745MOL0     H98332   5.590   9.452   2.666  1.0755  1.9182 -1.3899
  745MOL0     H98333   5.460   9.500   2.764 -4.1377  0.9212 -0.6689
  745MOL0     H98334   5.435   9.416   2.469  1.6007 -1.6125  1.3290
  745MOL0     H98335   5.299   9.492   2.556 -1.5019 -0.8924 -0.2468
  745MOL0     H98336   5.424   9.236   2.654 -1.1808 -2.1270 -0.5991
  745MOL0     H98337   5.288   9.322   2.715 -0.0928 -0.2422  0.3093
  745MOL0     H98338   5.106   9.138   2.402  1.2648  0.8544 -1.0715
  745MOL0     H98339   5.508   9.909   2.549 -0.5236 -1.9353  0.7471
  745MOL0     H98340   5.617  10.128   2.512  0.5404  0.7647 -5.2343
  746MOL0     O98341   4.439   4.447  10.245  0.6503  0.0479  0.0063
  746MOL0     C98342   4.518   4.473  10.155  0.2459 -0.1371 -0.4093
  746MOL0     O98343   4.530   4.400  10.046  0.5139 -1.1695  0.2709
  746MOL0     C98344   4.421   4.311  10.008  0.3443 -0.4647 -0.4424
  746MOL0     C98345   4.303   4.361   9.947 -0.3763  0.8041  0.0308
  746MOL0     C98346   4.190   4.276   9.922  0.2531  0.1679 -0.1785
  746MOL0     C98347   4.206   4.142   9.921  0.1551 -0.0883  0.4643
  746MOL0     O98348   4.114   4.051   9.882  0.5333 -0.0564 -0.1140
  746MOL0     C98349   3.979   4.049   9.925 -0.0047 -0.1095  0.0762
  746MOL0     C98350   3.888   3.969   9.825 -1.3320 -0.1501 -0.5644
  746MOL0     C98351   3.748   3.943   9.860  0.1456  0.9155 -0.4770
  746MOL0     C98352   3.677   3.859   9.753 -0.3118 -0.0321  0.5142
  746MOL0     C98353   3.532   3.836   9.802  1.0533 -0.6257 -0.2999
  746MOL0     C98354   3.435   3.945   9.769 -0.1138  0.1754  0.7797
  746MOL0     C98355   3.288   3.887   9.758 -0.0596 -0.2676 -0.3597
  746MOL0     C98356   3.196   3.981   9.675 -0.3677  0.6158 -0.4589
  746MOL0     N98357   3.163   4.110   9.743 -0.3123  0.3264  0.3062
  746MOL0     C98358   3.241   4.227   9.751  0.2095  0.5546 -0.5589
  746MOL0     C98359   3.176   4.304   9.849 -0.5375 -0.4838 -0.5432
  746MOL0     C98360   3.231   4.424   9.923 -0.2834 -0.0023  0.1419
  746MOL0     C98361   3.342   4.388  10.019 -0.4539 -0.6766  0.5790
  746MOL0     C98362   3.477   4.391   9.950  0.4299  0.1006 -0.0216
  746MOL0     C98363   3.584   4.360  10.052 -0.8877 -0.4550 -0.3747
  746MOL0     O98364   3.709   4.369   9.997 -0.7150 -0.4981  0.6297
  746MOL0     C98365   3.798   4.474  10.032  0.5597  1.0649  0.3642
  746MOL0     C98366   3.923   4.442  10.081 -0.5011  0.7412  0.1489
  746MOL0     C98367   4.019   4.542  10.122 -0.1715 -0.1763  0.2821
  746MOL0     C98368   3.986   4.682  10.097 -0.5374 -0.1916 -0.6777
  746MOL0     C98369   4.078   4.790  10.133 -0.7677  1.1368 -0.0836
  746MOL0     O98370   4.197   4.750  10.182 -0.0170  0.2722 -0.0210
  746MOL0     C98371   4.280   4.854  10.223 -0.1288 -0.2755 -0.8653
  746MOL0     C98372   4.248   4.955  10.322 -0.2238  0.3296  0.7609
  746MOL0     C98373   4.336   5.066  10.346 -0.7104  0.0903 -0.3147
  746MOL0     C98374   4.450   5.085  10.269 -1.2312  0.1501  0.7691
  746MOL0     O98375   4.557   5.178  10.265 -0.6862 -0.4627  0.4044
  746MOL0     C98376   4.549   5.302  10.335  0.6176  0.2882  0.5001
  746MOL0     C98377   4.467   5.412  10.276 -0.2020 -0.6649 -0.9468
  746MOL0     C98378   4.530   5.547  10.309 -0.1633  0.0820  0.4903
  746MOL0     C98379   4.460   5.651  10.223 -0.5853 -0.1598 -0.5294
  746MOL0     C98380   4.506   5.793  10.256 -0.3239  0.2640 -0.3558
  746MOL0     C98381   4.666   5.813  10.259  0.8742  0.3433 -0.4790
  746MOL0     C98382   4.717   5.963  10.239  0.2222  0.9001 -0.1392
  746MOL0     C98383   4.667   6.060  10.347  0.2760  0.1540 -1.6899
  746MOL0    Cl98384   4.721   6.000  10.506  0.2114 -0.2296  0.0255
  746MOL0     C98385   4.470   4.991  10.163 -0.3892 -0.1015 -0.2421
  746MOL0     C98386   4.395   4.875  10.150 -0.2065  0.6825 -0.7957
  746MOL0     O98387   4.035   4.911  10.137 -0.1995  0.3238 -0.1526
  746MOL0     C98388   3.866   4.708  10.034  0.6896 -0.0460  0.2001
  746MOL0     C98389   3.769   4.606  10.008  0.3447  0.0005 -0.7402
  746MOL0     N98390   3.052   4.240   9.876  0.0287  0.4013  0.5294
  746MOL0     N98391   3.051   4.121   9.809  0.9081 -0.0056  0.1380
  746MOL0     C98392   4.333   4.087   9.956 -0.4836 -0.0808 -0.6107
  746MOL0     C98393   4.435   4.174  10.008 -0.3712 -1.2317  0.4003
  746MOL0     C98394   4.610   4.583  10.182  0.1402 -0.3025 -0.6659
  746MOL0     C98395   4.604   4.667  10.293  0.0042 -0.7925  0.1100
  746MOL0     C98396   4.696   4.767  10.318  0.5306 -0.1462 -0.6278
  746MOL0     C98397   4.804   4.774  10.231  0.0696 -0.3261 -0.2355
  746MOL0     O98398   4.907   4.867  10.250 -0.1769  0.4352  0.3656
  746MOL0     C98399   4.920   4.950  10.370  0.3329  0.3700 -0.1115
  746MOL0     C98400   5.073   4.987  10.380 -0.1739  0.5968 -0.4083
  746MOL0     C98401   5.145   5.049  10.247  0.9784  0.7581  0.6205
  746MOL0     C98402   5.296   5.073  10.281 -0.0626 -0.0407 -0.5371
  746MOL0     C98403   5.373   4.949  10.304 -0.0820  0.1088 -1.5095
  746MOL0     C98404   5.435   4.845  10.328  0.6194 -0.3099 -0.7404
  746MOL0     C98405   4.818   4.693  10.125  0.0347 -0.0432 -0.3207
  746MOL0     C98406   4.715   4.604  10.088 -0.2132 -0.0285 -1.1405
  746MOL0     H98407   4.294   4.468   9.927 -1.1786  0.2659 -2.9200
  746MOL0     H98408   4.095   4.312   9.882 -0.8637 -1.5452  0.7825
  746MOL0     H98409   3.940   4.151   9.930  2.3560  0.9909 -1.8565
  746MOL0     H98410   3.973   3.995  10.020  1.7671 -1.3905 -0.4683
  746MOL0     H98411   3.933   3.872   9.805  0.0287  0.5817 -1.2187
  746MOL0     H98412   3.873   4.025   9.732 -5.2989 -2.6101 -1.6554
  746MOL0     H98413   3.698   4.041   9.860 -1.7112  0.0670  1.9575
  746MOL0     H98414   3.749   3.899   9.960  1.3744  0.9964 -0.4398
  746MOL0     H98415   3.686   3.920   9.663  1.3061  1.4047  1.5893
  746MOL0     H98416   3.732   3.766   9.738  2.2838  1.5899 -0.7303
  746MOL0     H98417   3.528   3.832   9.911  1.1925  0.3976 -0.2489
  746MOL0     H98418   3.503   3.737   9.765  0.0608 -0.9958  1.3823
  746MOL0     H98419   3.457   3.996   9.675 -1.0214 -3.0289 -1.3311
  746MOL0     H98420   3.451   4.020   9.848 -1.7215  0.8045  0.5616
  746MOL0     H98421   3.284   3.791   9.706  1.7944 -1.1031  0.9042
  746MOL0     H98422   3.254   3.874   9.861  2.5583 -1.1708  0.4932
  746MOL0     H98423   3.102   3.929   9.659 -0.4005  0.3288  0.5523
  746MOL0     H98424   3.243   4.009   9.580  1.5296 -2.6828 -0.6636
  746MOL0     H98425   3.339   4.239   9.705 -0.0886  3.8762 -0.6144
  746MOL0     H98426   3.149   4.462   9.984  0.1536 -2.6093  2.5407
  746MOL0     H98427   3.259   4.508   9.859 -0.5818  1.4480  1.8209
  746MOL0     H98428   3.331   4.284  10.052  1.6157 -0.7969  1.0005
  746MOL0     H98429   3.349   4.453  10.107  1.5008 -2.0349  1.4939
  746MOL0     H98430   3.491   4.324   9.865  3.0563  0.2819  0.1948
  746MOL0     H98431   3.502   4.493   9.918 -0.3921  0.3052 -0.0268
  746MOL0     H98432   3.559   4.265  10.100 -0.5206  0.0492  0.8581
  746MOL0     H98433   3.565   4.447  10.115 -0.4834  0.3699 -1.3754
  746MOL0     H98434   3.949   4.339  10.103  0.1406  1.3872  2.8320
  746MOL0     H98435   4.113   4.514  10.170  0.7703 -1.4271 -2.1377
  746MOL0     H98436   4.152   4.951  10.371 -1.0780  0.6113 -0.8257
  746MOL0     H98437   4.312   5.155  10.404  1.5861  2.1315 -2.2346
  746MOL0     H98438   4.652   5.330  10.309  0.4897 -0.1208 -0.5007
  746MOL0     H98439   4.530   5.284  10.441  0.2979 -2.4327  0.0475
  746MOL0     H98440   4.360   5.414  10.301  0.4159  0.1469  1.9318
  746MOL0     H98441   4.478   5.398  10.168  0.9221  1.4263 -1.1440
  746MOL0     H98442   4.637   5.535  10.290 -0.6635 -3.7835 -0.8117
  746MOL0     H98443   4.518   5.559  10.417 -0.0803  1.8208  0.3294
  746MOL0     H98444   4.483   5.639  10.117  0.4534  0.5044 -0.4040
  746MOL0     H98445   4.353   5.639  10.240 -0.4525  0.2834  0.7583
  746MOL0     H98446   4.460   5.811  10.354 -0.9750 -2.2880 -0.1287
  746MOL0     H98447   4.473   5.865  10.181  0.0281  0.4436 -0.3450
  746MOL0     H98448   4.708   5.762  10.171 -1.0960 -0.2575 -1.1433
  746MOL0     H98449   4.710   5.771  10.350 -0.0107  0.0674 -0.1723
  746MOL0     H98450   4.826   5.957  10.239  0.2211  0.8803 -0.2566
  746MOL0     H98451   4.688   6.008  10.144  1.1147  1.4202 -0.1774
  746MOL0     H98452   4.559   6.073  10.356  0.2473 -1.1565  1.0335
  746MOL0     H98453   4.721   6.155  10.334 -1.8444  1.8080  0.5955
  746MOL0     H98454   4.556   4.991  10.097 -0.8459  2.5421 -0.9448
  746MOL0     H98455   4.428   4.799  10.080 -0.8882 -1.6277  1.2232
  746MOL0     H98456   3.838   4.812  10.023 -0.9568 -0.5289 -0.4808
  746MOL0     H98457   3.679   4.630   9.953  0.1870  1.7715  0.2044
  746MOL0     H98458   4.350   3.981   9.943 -0.7932  0.1323 -3.3263
  746MOL0     H98459   4.527   4.130  10.045 -1.7169 -2.8708  2.0251
  746MOL0     H98460   4.514   4.662  10.355  0.6373  0.5910  1.1872
  746MOL0     H98461   4.688   4.827  10.408  2.7954  0.4327 -0.7411
  746MOL0     H98462   4.892   4.898  10.462 -0.6160  3.2260  1.3545
  746MOL0     H98463   4.849   5.033  10.356 -1.9633 -1.6304 -0.9892
  746MOL0     H98464   5.077   5.062  10.460 -0.6880 -2.7315  3.0413
  746MOL0     H98465   5.127   4.904  10.428  0.6096  0.4403 -1.5077
  746MOL0     H98466   5.091   5.142  10.226 -2.9309 -1.9577 -3.2666
  746MOL0     H98467   5.128   4.992  10.156  1.0940  1.0495  0.4154
  746MOL0     H98468   5.335   5.131  10.197 -0.5662  0.6013 -0.3362
  746MOL0     H98469   5.300   5.126  10.376 -1.2675 -5.2608  2.8255
  746MOL0     H98470   5.506   4.766  10.345  0.5231 -0.2050  0.2156
  746MOL0     H98471   4.892   4.733  10.056 -0.2415  2.5714  0.7768
  746MOL0     H98472   4.736   4.551   9.996  0.2878 -1.4022 -0.2725
  747MOL0     O98473   2.766  11.059  10.111 -0.0247  0.0603 -0.8820
  747MOL0     C98474   2.793  10.983  10.208  0.2366  0.2976 -1.0463
  747MOL0     O98475   2.734  10.864  10.240 -0.2282  0.3862 -0.2173
  747MOL0     C98476   2.658  10.797  10.147  0.3855  0.4355  0.6729
  747MOL0     C98477   2.566  10.846  10.052 -0.3712  0.2493 -0.0361
  747MOL0     C98478   2.476  10.755   9.976  0.3793  0.0266 -0.2917
  747MOL0     C98479   2.492  10.614   9.993 -0.3864 -0.5567  0.7089
  747MOL0     O98480   2.409  10.522   9.923  0.7926 -0.8751  0.0818
  747MOL0     C98481   2.374  10.553   9.787 -0.9113 -0.1356  0.4292
  747MOL0     C98482   2.344  10.437   9.697  0.4559 -0.6196 -0.3564
  747MOL0     C98483   2.403  10.484   9.561 -0.4044  0.4590  0.7934
  747MOL0     C98484   2.359  10.381   9.457  0.1932 -0.3695  0.1579
  747MOL0     C98485   2.418  10.421   9.316 -0.6327 -0.4997 -0.4218
  747MOL0     C98486   2.358  10.330   9.204  0.3496 -0.9446 -0.6117
  747MOL0     C98487   2.411  10.371   9.067 -0.9779  0.8427 -0.7050
  747MOL0     C98488   2.327  10.481   9.005  0.0317 -0.4014  1.6958
  747MOL0     N98489   2.349  10.470   8.854 -0.3555  0.8440  0.7619
  747MOL0     C98490   2.468  10.450   8.793  0.4503 -0.3000  0.4117
  747MOL0     C98491   2.444  10.443   8.658  0.7326 -0.5548 -0.7346
  747MOL0     C98492   2.526  10.421   8.544 -0.0275  0.0990 -0.1852
  747MOL0     C98493   2.621  10.542   8.509  0.4451  0.3085 -0.3333
  747MOL0     C98494   2.528  10.665   8.456 -0.2822 -0.0062 -0.6132
  747MOL0     C98495   2.611  10.757   8.377 -0.0089  0.0601  0.6924
  747MOL0     O98496   2.692  10.835   8.470 -0.0401 -0.0033 -0.3623
  747MOL0     C98497   2.797  10.910   8.427  0.2842 -0.4709  1.1008
  747MOL0     C98498   2.841  10.939   8.299 -0.3609 -0.5093  0.3269
  747MOL0     C98499   2.942  11.031   8.275  0.3220 -0.9453  0.8772
  747MOL0     C98500   3.019  11.088   8.383 -0.2954  0.3568 -0.3456
  747MOL0     C98501   3.133  11.183   8.365  0.4750  0.1830 -0.0298
  747MOL0     O98502   3.206  11.220   8.474  0.2581 -0.6780 -0.5530
  747MOL0     C98503   3.328  11.277   8.452 -0.6317 -0.3950  0.4921
  747MOL0     C98504   3.391  11.314   8.572  0.9042  0.4004  1.0044
  747MOL0     C98505   3.519  11.367   8.571  0.8947  0.1508  0.4352
  747MOL0     C98506   3.591  11.396   8.458 -0.0669 -0.9308 -0.0103
  747MOL0     O98507   3.703  11.468   8.484  0.0729  0.2178 -0.3582
  747MOL0     C98508   3.800  11.424   8.384  0.6506  0.6587  0.3125
  747MOL0     C98509   3.941  11.448   8.453  0.6045  0.5080 -0.5327
  747MOL0     C98510   4.048  11.452   8.349 -0.0520  0.1809  0.4090
  747MOL0     C98511   4.191  11.469   8.407 -0.4984  0.5604  0.0622
  747MOL0     C98512   4.294  11.460   8.290 -0.3237  0.8719 -0.1774
  747MOL0     C98513   4.434  11.474   8.359  1.2425  0.9681 -0.3063
  747MOL0     C98514   4.541  11.496   8.257 -0.9546  0.4014 -0.1417
  747MOL0     C98515   4.687  11.485   8.313  0.0377  0.8872  0.6376
  747MOL0    Cl98516   4.721  11.310   8.334 -0.4701 -0.2203 -0.3094
  747MOL0     C98517   3.535  11.358   8.334  0.1515  0.6552 -0.3479
  747MOL0     C98518   3.404  11.296   8.330  0.1793  1.3307 -0.3900
  747MOL0     O98519   3.137  11.221   8.250  0.2458  0.6013  0.4443
  747MOL0     C98520   2.967  11.070   8.504  1.0888 -0.4901 -0.5835
  747MOL0     C98521   2.858  10.980   8.532  0.6805 -0.5536  0.1317
  747MOL0     N98522   2.306  10.463   8.646 -0.6116 -0.4170 -0.8785
  747MOL0     N98523   2.250  10.482   8.765 -0.6272 -0.2863 -0.0506
  747MOL0     C98524   2.592  10.569  10.083  0.1181 -0.6909  0.3367
  747MOL0     C98525   2.676  10.658  10.156 -0.3157  0.0774 -0.6884
  747MOL0     C98526   2.904  11.034  10.296  0.1433 -0.3656 -0.3309
  747MOL0     C98527   2.988  11.133  10.258  0.1795 -0.0025 -0.5188
  747MOL0     C98528   3.101  11.178  10.329 -1.1264 -0.6115  0.0131
  747MOL0     C98529   3.128  11.118  10.456  0.0784 -0.2772  1.0188
  747MOL0     O98530   3.231  11.145  10.544 -0.5091  0.2090  0.1074
  747MOL0     C98531   3.321  11.250  10.515 -1.0203 -0.4374  1.4085
  747MOL0     C98532   3.417  11.251  10.640  1.0985  1.0239  0.0464
  747MOL0     C98533   3.549  11.331  10.612  0.4169 -0.5140 -0.1727
  747MOL0     C98534   3.670  11.278  10.685  0.5887 -0.5978  0.0170
  747MOL0     C98535   3.742  11.384  10.757  0.6114 -1.0185 -0.5705
  747MOL0     C98536   3.785  11.480  10.813  0.0433 -0.5083  0.5901
  747MOL0     C98537   3.040  11.016  10.500 -0.4617  0.5520 -0.8940
  747MOL0     C98538   2.927  10.976  10.425 -0.6755 -0.2614 -0.7201
  747MOL0     H98539   2.566  10.946  10.012 -1.4380  0.4624  0.4669
  747MOL0     H98540   2.410  10.789   9.897 -0.6738 -1.5133 -0.1282
  747MOL0     H98541   2.464  10.603   9.749 -3.1874  3.6000 -0.6181
  747MOL0     H98542   2.301  10.634   9.775  2.0891  2.6899 -0.3507
  747MOL0     H98543   2.235  10.439   9.686  0.3986  1.0328  0.2798
  747MOL0     H98544   2.388  10.346   9.740  0.7809  0.1659  1.0199
  747MOL0     H98545   2.511  10.500   9.548 -0.3959 -0.7436 -1.0001
  747MOL0     H98546   2.357  10.580   9.536  2.8282  2.7465  2.8640
  747MOL0     H98547   2.388  10.279   9.482 -1.8942 -1.2412 -0.8196
  747MOL0     H98548   2.251  10.384   9.444  0.4864 -1.2470 -3.6311
  747MOL0     H98549   2.527  10.416   9.319 -0.5217  0.6307 -1.6681
  747MOL0     H98550   2.394  10.525   9.294  0.0756 -0.2283  0.0372
  747MOL0     H98551   2.249  10.326   9.204  0.1001  1.3517 -4.4596
  747MOL0     H98552   2.381  10.224   9.212  1.5386 -0.6775 -0.2268
  747MOL0     H98553   2.517  10.399   9.058 -0.8545  0.4650 -0.4598
  747MOL0     H98554   2.400  10.279   9.008  0.2780 -0.4370  0.9532
  747MOL0     H98555   2.376  10.575   9.030  1.3607 -0.7533  0.5184
  747MOL0     H98556   2.219  10.477   9.024 -0.5463  1.0480 -0.9543
  747MOL0     H98557   2.563  10.437   8.844  0.3914 -1.6389  0.2255
  747MOL0     H98558   2.455  10.413   8.461 -0.8255 -0.9148  0.5760
  747MOL0     H98559   2.573  10.323   8.535 -0.2439  0.1990 -5.3527
  747MOL0     H98560   2.680  10.517   8.420 -0.5311 -1.8028 -0.4511
  747MOL0     H98561   2.695  10.545   8.589  0.1921 -2.3588  0.0908
  747MOL0     H98562   2.442  10.636   8.395 -0.8536 -0.4816  0.3825
  747MOL0     H98563   2.494  10.724   8.541  1.9797 -0.1976  0.5064
  747MOL0     H98564   2.544  10.824   8.321 -1.0106  0.3281  2.1617
  747MOL0     H98565   2.674  10.695   8.314 -0.7163 -1.4186  1.3930
  747MOL0     H98566   2.806  10.880   8.214 -0.6984  0.0790  0.0505
  747MOL0     H98567   2.973  11.063   8.176  1.7344  1.2893  1.9466
  747MOL0     H98568   3.341  11.280   8.662  3.6549 -2.6471  1.5912
  747MOL0     H98569   3.540  11.389   8.676 -1.0016 -1.1946  1.1637
  747MOL0     H98570   3.791  11.494   8.301 -0.2136  2.7378  2.0732
  747MOL0     H98571   3.793  11.321   8.348  1.2089 -0.5820  3.4400
  747MOL0     H98572   3.955  11.377   8.535 -0.7854  1.5426  0.6604
  747MOL0     H98573   3.929  11.542   8.507  0.2968  0.0461  0.2167
  747MOL0     H98574   4.025  11.528   8.274 -0.8635 -1.4712 -1.0870
  747MOL0     H98575   4.046  11.359   8.292 -1.9501  0.0899  0.5404
  747MOL0     H98576   4.192  11.565   8.459  0.4529  1.7093 -1.9543
  747MOL0     H98577   4.208  11.394   8.484 -2.8042 -0.1369 -0.0385
  747MOL0     H98578   4.267  11.537   8.218 -0.7353  1.0918  0.2096
  747MOL0     H98579   4.280  11.361   8.247 -0.4311  0.3109  1.1001
  747MOL0     H98580   4.451  11.384   8.419 -3.4863 -0.9428 -1.3556
  747MOL0     H98581   4.426  11.554   8.433 -1.4310  0.4810  0.0471
  747MOL0     H98582   4.516  11.431   8.172 -3.9694  0.9858  0.1628
  747MOL0     H98583   4.531  11.593   8.209 -2.4593  0.1719 -0.3642
  747MOL0     H98584   4.698  11.542   8.406  1.4639 -0.7538  1.5501
  747MOL0     H98585   4.749  11.515   8.228 -1.6362 -1.4538 -1.5510
  747MOL0     H98586   3.589  11.376   8.242 -0.7083 -0.9422 -1.2185
  747MOL0     H98587   3.372  11.270   8.230  2.1978  1.9713 -1.2582
  747MOL0     H98588   2.999  11.119   8.596 -1.0874  1.4709 -0.7739
  747MOL0     H98589   2.821  10.974   8.634 -0.4774  0.5705 -0.1916
  747MOL0     H98590   2.614  10.464  10.095  1.7177 -0.7044 -1.9750
  747MOL0     H98591   2.753  10.625  10.225  0.7733  1.1149 -1.3856
  747MOL0     H98592   2.970  11.187  10.166 -0.7141  1.0059  0.2153
  747MOL0     H98593   3.160  11.261  10.291  1.2696 -1.8782  0.7645
  747MOL0     H98594   3.275  11.346  10.488  0.4837 -0.3275 -1.1257
  747MOL0     H98595   3.394  11.222  10.439  1.8416  2.8234  2.7046
  747MOL0     H98596   3.359  11.295  10.722 -1.8580 -2.9350  0.4141
  747MOL0     H98597   3.444  11.146  10.654 -1.3427  0.5002  1.5997
  747MOL0     H98598   3.537  11.438  10.634 -0.0082 -1.1640  3.2198
  747MOL0     H98599   3.576  11.314  10.507  1.4717  0.0025  0.0081
  747MOL0     H98600   3.639  11.199  10.754  0.5203 -2.1753 -1.7467
  747MOL0     H98601   3.734  11.231  10.610  0.6439  2.8768 -2.3679
  747MOL0     H98602   3.833  11.555  10.872  1.1119 -0.6933 -0.0157
  747MOL0     H98603   3.057  10.973  10.598  3.0976  1.0427 -1.1752
  747MOL0     H98604   2.861  10.897  10.460  1.5535 -1.5753  0.7702
  748MOL0     O98605   6.753   2.161   9.241 -0.1294  0.3230  0.4040
  748MOL0     C98606   6.781   2.212   9.347 -0.8927  0.2878  0.1230
  748MOL0     O98607   6.695   2.235   9.445 -0.2452  0.3129  0.3706
  748MOL0     C98608   6.560   2.222   9.431  1.1784 -1.4009  0.5585
  748MOL0     C98609   6.490   2.171   9.535 -0.4824  1.0610 -0.2450
  748MOL0     C98610   6.350   2.169   9.531 -0.0362 -0.5758 -0.2520
  748MOL0     C98611   6.282   2.212   9.413 -0.8600  0.1735 -0.1787
  748MOL0     O98612   6.147   2.218   9.418  0.2388 -0.1823  1.4044
  748MOL0     C98613   6.081   2.101   9.431  0.8668  0.1394 -0.2873
  748MOL0     C98614   5.955   2.135   9.510  0.1812  0.6983 -0.2451
  748MOL0     C98615   5.885   2.006   9.570 -0.7414 -0.3346  0.7755
  748MOL0     C98616   5.781   2.036   9.679  0.0923  1.2336  0.2851
  748MOL0     C98617   5.741   1.899   9.734  0.3490 -0.4406 -0.3278
  748MOL0     C98618   5.646   1.905   9.859  0.0047 -0.8035  0.1893
  748MOL0     C98619   5.649   1.776   9.940 -0.3026 -0.6223 -0.3299
  748MOL0     C98620   5.597   1.652   9.861  0.2296  0.5256 -0.4641
  748MOL0     N98621   5.452   1.673   9.835 -0.2600 -0.6950  0.3667
  748MOL0     C98622   5.353   1.641   9.924 -0.1942 -0.4851  0.2544
  748MOL0     C98623   5.244   1.701   9.860 -0.2250  0.9270  0.0771
  748MOL0     C98624   5.097   1.717   9.918 -0.5624  0.3146  0.5837
  748MOL0     C98625   5.055   1.861   9.881  0.1270  0.5285  0.0722
  748MOL0     C98626   4.983   1.846   9.749  0.8127  0.6756 -0.2258
  748MOL0     C98627   4.835   1.805   9.763  0.1066  0.0657 -0.5328
  748MOL0     O98628   4.789   1.765   9.636 -0.7278 -0.6252 -0.1228
  748MOL0     C98629   4.662   1.730   9.644  0.8375 -0.4092  1.3498
  748MOL0     C98630   4.565   1.832   9.668 -0.3511  0.8973  0.2717
  748MOL0     C98631   4.438   1.796   9.686  1.2425 -0.1240  0.1388
  748MOL0     C98632   4.396   1.658   9.673 -0.0285  0.2265 -0.4330
  748MOL0     C98633   4.253   1.613   9.690 -0.2448 -1.3570 -0.0020
  748MOL0     O98634   4.228   1.484   9.707  0.5166  0.4612  0.2832
  748MOL0     C98635   4.092   1.445   9.716 -0.8508  0.4240 -1.0725
  748MOL0     C98636   4.031   1.391   9.603  0.1549 -0.5674  0.7421
  748MOL0     C98637   3.902   1.344   9.611 -0.3061 -0.2371  0.2251
  748MOL0     C98638   3.842   1.341   9.732 -0.0568 -0.0404 -0.2810
  748MOL0     O98639   3.715   1.295   9.739 -0.2801 -0.9559  0.1647
  748MOL0     C98640   3.677   1.256   9.873 -0.1522 -0.3009 -0.0319
  748MOL0     C98641   3.531   1.203   9.875 -0.5040  0.6800 -0.4476
  748MOL0     C98642   3.440   1.243   9.761  0.9498  0.4562 -0.0019
  748MOL0     C98643   3.285   1.186   9.762 -0.1257  0.2914  0.6356
  748MOL0     C98644   3.205   1.233   9.636 -0.1766  0.5278  0.5579
  748MOL0     C98645   3.056   1.197   9.648 -0.0112 -0.0302  0.1435
  748MOL0     C98646   2.974   1.262   9.534  0.1504 -0.5487 -0.5476
  748MOL0     C98647   2.834   1.197   9.522 -0.3177  0.0205  0.8830
  748MOL0    Cl98648   2.728   1.210   9.666 -0.1643 -0.0427 -0.0863
  748MOL0     C98649   3.904   1.387   9.849  0.6719 -0.4658 -0.3171
  748MOL0     C98650   4.028   1.448   9.840  0.2307 -0.0474 -0.3066
  748MOL0     O98651   4.171   1.707   9.698 -0.5718  0.2163  0.2508
  748MOL0     C98652   4.495   1.564   9.656  0.6843  0.3147  0.2978
  748MOL0     C98653   4.630   1.592   9.646  1.7153 -0.2603  0.3442
  748MOL0     N98654   5.281   1.751   9.742  0.8103  0.5451 -0.4216
  748MOL0     N98655   5.406   1.739   9.731 -0.2349  0.1086 -0.2961
  748MOL0     C98656   6.361   2.264   9.308 -0.5249 -1.3627  0.0825
  748MOL0     C98657   6.500   2.268   9.319  0.4557 -1.5163 -0.0080
  748MOL0     C98658   6.927   2.226   9.360  0.1815 -0.2738 -0.6256
  748MOL0     C98659   6.977   2.247   9.488 -0.4952 -0.1859 -1.0273
  748MOL0     C98660   7.118   2.269   9.513  0.1363 -0.7075 -0.3678
  748MOL0     C98661   7.210   2.262   9.415 -0.5766 -0.1486 -0.8115
  748MOL0     O98662   7.339   2.286   9.453 -0.7389  0.1881  0.6973
  748MOL0     C98663   7.432   2.323   9.351  0.2369 -0.0174 -0.4169
  748MOL0     C98664   7.401   2.456   9.275  0.7382 -0.7434  0.5339
  748MOL0     C98665   7.439   2.582   9.365 -0.4022  0.8348  0.6653
  748MOL0     C98666   7.426   2.717   9.294  0.4154 -0.3553 -0.5787
  748MOL0     C98667   7.514   2.728   9.177 -0.8694 -0.1967 -0.8109
  748MOL0     C98668   7.595   2.742   9.083  0.6833  0.8150 -1.0271
  748MOL0     C98669   7.155   2.232   9.281 -0.3324 -0.8590  0.1769
  748MOL0     C98670   7.021   2.218   9.259  0.8026  1.2874  0.0453
  748MOL0     H98671   6.543   2.136   9.622  1.5745  2.9557 -0.6423
  748MOL0     H98672   6.295   2.134   9.618 -0.9615  0.0727 -0.5532
  748MOL0     H98673   6.137   2.026   9.488 -3.6891 -2.4060  1.3930
  748MOL0     H98674   6.060   2.059   9.333 -0.8347  1.1386 -0.3945
  748MOL0     H98675   5.890   2.205   9.457 -1.7958 -1.4842 -0.8576
  748MOL0     H98676   5.984   2.179   9.606  1.4288 -4.7505  2.2262
  748MOL0     H98677   5.971   1.947   9.602 -0.0356  0.2468 -0.0231
  748MOL0     H98678   5.838   1.951   9.488  2.3642 -0.6734 -0.8900
  748MOL0     H98679   5.826   2.093   9.761  2.2567 -3.6797  2.9385
  748MOL0     H98680   5.689   2.087   9.649 -0.5582  0.0304  0.1926
  748MOL0     H98681   5.831   1.846   9.767  0.4240 -1.0196 -1.4082
  748MOL0     H98682   5.696   1.847   9.649  0.1422 -1.5133  0.4099
  748MOL0     H98683   5.542   1.922   9.829 -0.1893 -2.5376 -0.2285
  748MOL0     H98684   5.670   1.993   9.920  0.0531 -0.9541  0.3908
  748MOL0     H98685   5.751   1.765   9.978  0.4116  1.8041 -1.3264
  748MOL0     H98686   5.579   1.796  10.021 -1.9682 -2.4069 -1.2577
  748MOL0     H98687   5.618   1.560   9.918 -0.8108  0.1653 -0.6431
  748MOL0     H98688   5.651   1.631   9.768  0.4408 -0.3291 -0.1589
  748MOL0     H98689   5.378   1.604  10.023  3.7985 -0.6713 -0.6603
  748MOL0     H98690   5.114   1.714  10.026  0.3113 -0.1790  0.4405
  748MOL0     H98691   5.027   1.638   9.890 -2.1335  0.6207  3.3025
  748MOL0     H98692   5.146   1.921   9.874  0.3489  0.2221  0.3342
  748MOL0     H98693   4.981   1.901   9.951 -1.5665 -1.0684 -0.7147
  748MOL0     H98694   4.991   1.934   9.684  1.7741  0.2959 -0.6426
  748MOL0     H98695   5.042   1.781   9.684  1.5364  0.7786  0.3063
  748MOL0     H98696   4.777   1.880   9.817  2.6958  0.3324  2.1493
  748MOL0     H98697   4.828   1.719   9.830 -1.0405  1.0351  0.6305
  748MOL0     H98698   4.612   1.930   9.674  3.8499 -0.8765 -0.5317
  748MOL0     H98699   4.371   1.875   9.716 -0.2226 -1.4954  0.6254
  748MOL0     H98700   4.074   1.402   9.504 -1.0268  1.8012  0.4350
  748MOL0     H98701   3.850   1.296   9.529 -2.3154  0.6728  0.9112
  748MOL0     H98702   3.676   1.339   9.944  1.0773  1.4671 -1.9465
  748MOL0     H98703   3.747   1.176   9.899  1.4389  0.0258 -2.8838
  748MOL0     H98704   3.498   1.235   9.975  2.7572  3.5198 -0.0559
  748MOL0     H98705   3.523   1.094   9.877  2.5787  0.3634  0.6677
  748MOL0     H98706   3.495   1.224   9.669  1.5312  3.0967 -0.2817
  748MOL0     H98707   3.439   1.352   9.762 -0.9919  0.4894 -1.0237
  748MOL0     H98708   3.284   1.077   9.759 -0.3535  0.2853  0.8485
  748MOL0     H98709   3.249   1.222   9.859  1.9039 -2.6512  2.6574
  748MOL0     H98710   3.254   1.175   9.557  1.0776 -1.5611  2.7438
  748MOL0     H98711   3.225   1.339   9.617  0.7329 -0.2088 -3.7159
  748MOL0     H98712   3.026   1.235   9.746  1.0513 -1.4100  1.0529
  748MOL0     H98713   3.046   1.088   9.651 -0.0434 -0.0096  0.8400
  748MOL0     H98714   2.958   1.367   9.561 -0.7011 -1.2920  2.1642
  748MOL0     H98715   3.026   1.249   9.439  0.0094 -0.9213 -0.5740
  748MOL0     H98716   2.859   1.091   9.508  1.3108  0.2697  1.6540
  748MOL0     H98717   2.783   1.227   9.430 -0.7940 -1.0098  0.8013
  748MOL0     H98718   3.848   1.409   9.939 -1.5109 -2.0161 -1.1995
  748MOL0     H98719   4.071   1.506   9.921  1.8992  0.4914 -1.5156
  748MOL0     H98720   4.473   1.458   9.653  1.4150  0.1135 -3.8109
  748MOL0     H98721   4.709   1.517   9.643  0.0229 -2.0806 -0.5477
  748MOL0     H98722   6.321   2.313   9.220  4.5895  0.7992 -1.3644
  748MOL0     H98723   6.558   2.313   9.238 -1.1133 -0.6303 -0.6702
  748MOL0     H98724   6.919   2.255   9.580  0.9338 -3.1127  0.2446
  748MOL0     H98725   7.151   2.290   9.615 -1.3423  1.5424 -0.2684
  748MOL0     H98726   7.452   2.235   9.289  4.1357  1.7864 -2.0747
  748MOL0     H98727   7.524   2.348   9.405  0.4479  0.4529 -0.9808
  748MOL0     H98728   7.453   2.464   9.180  1.2361  1.4117  0.9248
  748MOL0     H98729   7.294   2.465   9.253  1.4784  1.4372 -2.9301
  748MOL0     H98730   7.544   2.569   9.395 -0.8446 -0.6848  1.6225
  748MOL0     H98731   7.379   2.576   9.456 -1.0628 -4.3963  0.1512
  748MOL0     H98732   7.322   2.720   9.263  1.0332 -0.7400 -2.8591
  748MOL0     H98733   7.431   2.805   9.359  0.4280 -0.4611 -0.4356
  748MOL0     H98734   7.664   2.762   9.003  3.7304 -2.0290  0.6348
  748MOL0     H98735   7.226   2.214   9.201 -1.1333 -0.5293 -0.6243
  748MOL0     H98736   6.985   2.191   9.160 -0.9524  2.8475  0.2056
  749MOL0     O98737   1.804   8.004   6.756 -0.0522  0.0628  0.1703
  749MOL0     C98738   1.805   8.089   6.847 -0.0178 -0.1030 -0.2825
  749MOL0     O98739   1.707   8.163   6.894  0.3740  0.4125  0.5304
  749MOL0     C98740   1.571   8.135   6.871  0.6330  0.4371  0.1490
  749MOL0     C98741   1.509   8.023   6.799 -0.3699 -0.8534  0.6701
  749MOL0     C98742   1.369   8.002   6.808  0.6712 -0.5251  1.5897
  749MOL0     C98743   1.294   8.091   6.887  0.1017 -0.4862 -0.5865
  749MOL0     O98744   1.157   8.082   6.869 -0.3165 -1.0023 -0.3306
  749MOL0     C98745   1.068   8.114   6.970  1.0294  0.9330 -0.5696
  749MOL0     C98746   0.928   8.088   6.920 -0.4883 -0.4661  0.1151
  749MOL0     C98747   0.824   8.092   7.026 -0.3871 -0.9212  0.1462
  749MOL0     C98748   0.796   8.241   7.069  0.5974 -0.2561 -0.9038
  749MOL0     C98749   0.711   8.271   7.198 -0.6464  0.0348 -0.2606
  749MOL0     C98750   0.571   8.217   7.198 -0.5464  0.1572  0.7569
  749MOL0     C98751   0.489   8.297   7.099  0.4326 -0.3104 -0.5369
  749MOL0     C98752   0.342   8.269   7.132  0.2238  0.4415  0.9577
  749MOL0     N98753   0.284   8.333   7.249 -0.2824 -0.6291 -0.9171
  749MOL0     C98754   0.187   8.429   7.248  0.0484 -0.6996 -0.1159
  749MOL0     C98755   0.156   8.453   7.377 -0.5060  0.3400  0.5488
  749MOL0     C98756   0.030   8.530   7.410 -0.0900 -0.2730 -0.6604
  749MOL0     C98757  -0.097   8.462   7.400  0.8186  0.3748  0.0199
  749MOL0     C98758  -0.215   8.563   7.433 -0.9041 -0.2390 -0.1587
  749MOL0     C98759  -0.350   8.501   7.413 -0.0667 -0.6831 -0.2227
  749MOL0     O98760  -0.382   8.489   7.268 -0.2143 -1.2777 -0.1323
  749MOL0     C98761  -0.474   8.398   7.255 -0.5115  0.4535  0.0262
  749MOL0     C98762  -0.429   8.270   7.243 -0.1875  0.3378  0.3172
  749MOL0     C98763  -0.519   8.158   7.239 -0.9490  0.2157 -1.4214
  749MOL0     C98764  -0.654   8.176   7.223 -0.7867  0.6483  0.6462
  749MOL0     C98765  -0.747   8.061   7.199 -0.3007  0.2432 -0.7805
  749MOL0     O98766  -0.698   7.949   7.143  0.1746 -0.6395  0.0501
  749MOL0     C98767  -0.787   7.847   7.128 -0.7925 -0.1061 -0.3511
  749MOL0     C98768  -0.893   7.853   7.040  0.5236 -0.1407 -0.3133
  749MOL0     C98769  -0.988   7.750   7.042  1.2333 -0.2442  0.0348
  749MOL0     C98770  -0.976   7.635   7.114  0.1342  0.5497 -0.1947
  749MOL0     O98771  -1.048   7.514   7.107  0.3102  0.6322 -0.1903
  749MOL0     C98772  -1.071   7.459   6.978  0.0564  0.6252  0.0194
  749MOL0     C98773  -1.076   7.303   6.990 -0.5417  0.4591 -0.6473
  749MOL0     C98774  -1.217   7.241   7.032  0.7588  0.2550  0.4103
  749MOL0     C98775  -1.265   7.279   7.175  0.2075 -0.6808 -0.6682
  749MOL0     C98776  -1.387   7.198   7.229 -0.8630 -0.3389  0.2795
  749MOL0     C98777  -1.451   7.248   7.358 -0.4776 -0.5528 -0.0417
  749MOL0     C98778  -1.570   7.158   7.391  0.1236  0.4546  0.4414
  749MOL0     C98779  -1.640   7.201   7.519 -0.1782  0.3454 -0.4771
  749MOL0    Cl98780  -1.735   7.345   7.493 -0.0441  0.7515  0.2066
  749MOL0     C98781  -0.867   7.635   7.205  0.4580  0.1917 -0.6894
  749MOL0     C98782  -0.772   7.735   7.202  0.0770 -0.0910 -0.2356
  749MOL0     O98783  -0.864   8.078   7.251  0.3515  0.3039  0.3465
  749MOL0     C98784  -0.696   8.306   7.240  0.3479 -0.1328  0.2476
  749MOL0     C98785  -0.614   8.414   7.253 -0.3141  0.1229 -0.0658
  749MOL0     N98786   0.237   8.378   7.461  0.0384  0.1958  0.0662
  749MOL0     N98787   0.303   8.307   7.382 -0.3491 -0.8044 -0.2062
  749MOL0     C98788   1.348   8.200   6.952 -0.5798  0.4092 -0.4670
  749MOL0     C98789   1.485   8.215   6.942  0.3823 -0.2020  0.0083
  749MOL0     C98790   1.940   8.111   6.907  0.1226  0.5560 -0.9006
  749MOL0     C98791   2.057   8.054   6.858  0.0868  0.2069 -0.0604
  749MOL0     C98792   2.180   8.070   6.933 -0.4196 -0.2521  0.2872
  749MOL0     C98793   2.184   8.131   7.048  0.1850 -0.5681 -0.3496
  749MOL0     O98794   2.307   8.146   7.108  0.3417 -0.6007 -0.5414
  749MOL0     C98795   2.310   8.177   7.251  0.1498 -0.5242  0.3865
  749MOL0     C98796   2.449   8.134   7.299 -0.1335 -0.0224  0.7443
  749MOL0     C98797   2.447   7.999   7.374  0.0010 -0.3922  0.0177
  749MOL0     C98798   2.405   7.882   7.291  0.0575 -0.4584 -0.4202
  749MOL0     C98799   2.459   7.750   7.341 -0.1139 -0.7024  1.6476
  749MOL0     C98800   2.497   7.638   7.384  0.0926 -0.2344 -0.2067
  749MOL0     C98801   2.072   8.197   7.095 -0.2546  0.4981 -0.3007
  749MOL0     C98802   1.955   8.185   7.024  0.4164  0.5290  0.1016
  749MOL0     H98803   1.562   7.961   6.727 -2.9082 -1.4701 -0.7879
  749MOL0     H98804   1.316   7.931   6.745  0.3521 -0.2633  1.5628
  749MOL0     H98805   1.082   8.215   7.012 -0.2375  0.0887  2.1331
  749MOL0     H98806   1.082   8.042   7.051 -2.7408  0.8983  0.2318
  749MOL0     H98807   0.940   7.987   6.879  2.3827 -0.0736 -0.2759
  749MOL0     H98808   0.898   8.152   6.836 -0.6595 -1.6360 -0.7451
  749MOL0     H98809   0.856   8.035   7.114  3.8129  0.5438 -0.2266
  749MOL0     H98810   0.729   8.050   6.994 -1.2405 -0.8854  2.4144
  749MOL0     H98811   0.888   8.297   7.087 -0.1468  0.9228 -0.6515
  749MOL0     H98812   0.766   8.307   6.987  0.6625  1.6162  0.5202
  749MOL0     H98813   0.707   8.376   7.229  0.5203  0.3415 -1.0964
  749MOL0     H98814   0.774   8.226   7.275 -0.0864  2.0285  0.5083
  749MOL0     H98815   0.538   8.206   7.301 -3.1256  1.5499  0.1544
  749MOL0     H98816   0.575   8.112   7.169 -0.3307  1.0568 -3.0932
  749MOL0     H98817   0.502   8.405   7.112  0.1558 -0.4834  1.3865
  749MOL0     H98818   0.514   8.264   6.998  1.2348 -0.6435 -0.2328
  749MOL0     H98819   0.322   8.161   7.138 -2.9254  1.0120  2.3343
  749MOL0     H98820   0.280   8.308   7.051 -0.7139 -0.4427  1.2285
  749MOL0     H98821   0.137   8.464   7.158 -0.9770 -1.4529  0.1439
  749MOL0     H98822   0.022   8.615   7.341 -0.4278  1.7592  1.7501
  749MOL0     H98823   0.042   8.574   7.509 -1.1457  0.4330 -0.8282
  749MOL0     H98824  -0.088   8.376   7.467 -2.5416 -0.1504 -0.0627
  749MOL0     H98825  -0.111   8.416   7.302 -0.1850  1.5338 -0.4020
  749MOL0     H98826  -0.206   8.582   7.540 -2.6106  1.0697 -0.1984
  749MOL0     H98827  -0.210   8.661   7.384  1.9974  0.5593  1.5203
  749MOL0     H98828  -0.421   8.559   7.473  1.0817 -2.2515  2.8477
  749MOL0     H98829  -0.336   8.404   7.461  0.5259  0.0704  1.2095
  749MOL0     H98830  -0.323   8.250   7.252  0.4794  4.0586  2.7860
  749MOL0     H98831  -0.473   8.060   7.227  1.9273  1.1319  0.9441
  749MOL0     H98832  -0.904   7.948   6.988  0.2296  0.6628  1.1540
  749MOL0     H98833  -1.074   7.772   6.979  1.0421  1.7870  0.9119
  749MOL0     H98834  -0.985   7.476   6.913 -1.0030 -0.1760 -1.6874
  749MOL0     H98835  -1.154   7.505   6.923 -1.9191 -0.2411  2.1078
  749MOL0     H98836  -0.993   7.284   7.059 -1.1844  1.2818  0.3669
  749MOL0     H98837  -1.046   7.272   6.889  3.0267  0.3669  0.2857
  749MOL0     H98838  -1.220   7.133   7.014 -2.1766  0.5583 -1.7495
  749MOL0     H98839  -1.286   7.289   6.962  2.0161 -0.6674 -1.5600
  749MOL0     H98840  -1.182   7.266   7.245 -0.0168  0.4408 -0.1655
  749MOL0     H98841  -1.294   7.385   7.175  1.5758 -0.2805 -0.9392
  749MOL0     H98842  -1.348   7.097   7.241  0.8837  0.3562  0.7388
  749MOL0     H98843  -1.470   7.208   7.158 -1.1970  3.1955  0.9551
  749MOL0     H98844  -1.494   7.349   7.362  0.8475 -0.0006  1.0567
  749MOL0     H98845  -1.378   7.236   7.438 -2.6155  2.1454  2.5233
  749MOL0     H98846  -1.642   7.155   7.309  3.2216  2.4612 -2.6364
  749MOL0     H98847  -1.535   7.058   7.419 -2.0917  0.2872  2.9774
  749MOL0     H98848  -1.578   7.221   7.607  1.4765 -0.7423 -1.3382
  749MOL0     H98849  -1.710   7.124   7.552 -0.9625  1.7576  1.3670
  749MOL0     H98850  -0.858   7.574   7.295  1.0241  3.4970  1.6784
  749MOL0     H98851  -0.693   7.727   7.276  1.5302 -1.5160 -1.8316
  749MOL0     H98852  -0.803   8.326   7.240  0.8288  3.0970 -0.4618
  749MOL0     H98853  -0.669   8.507   7.259 -1.3371 -0.3913 -1.1865
  749MOL0     H98854   1.286   8.267   7.011  0.1498  1.2469 -0.6237
  749MOL0     H98855   1.533   8.303   6.981  1.2976  0.5136 -2.5340
  749MOL0     H98856   2.046   8.019   6.755 -1.3937  0.5882 -0.0558
  749MOL0     H98857   2.268   8.022   6.893 -0.4801  1.0745 -1.5749
  749MOL0     H98858   2.229   8.125   7.304  1.4373  0.3397  3.4000
  749MOL0     H98859   2.301   8.284   7.269  1.0648 -0.1576 -1.1467
  749MOL0     H98860   2.521   8.135   7.217 -1.5106 -1.5124 -0.5717
  749MOL0     H98861   2.480   8.210   7.371 -1.1433  0.4655  0.6793
  749MOL0     H98862   2.378   8.016   7.458 -0.0945  2.0405 -0.5006
  749MOL0     H98863   2.547   7.984   7.414  0.3278 -1.3125 -1.0806
  749MOL0     H98864   2.298   7.867   7.273 -0.2536 -1.2471  1.7662
  749MOL0     H98865   2.452   7.910   7.196 -2.7116  1.1844 -1.4293
  749MOL0     H98866   2.551   7.549   7.408  1.2555  0.4829 -0.0558
  749MOL0     H98867   2.071   8.231   7.198 -1.3266 -1.2471  0.3118
  749MOL0     H98868   1.867   8.237   7.062 -1.2798 -2.8290  1.1112
  750MOL0     O98869   6.584   4.578   6.944 -0.2705  0.6876  0.0814
  750MOL0     C98870   6.630   4.689   6.918  0.4511 -0.2535 -0.0384
  750MOL0     O98871   6.562   4.788   6.857  0.6964 -0.3300 -0.0568
  750MOL0     C98872   6.451   4.749   6.788 -0.4287  0.3542  0.3280
  750MOL0     C98873   6.348   4.833   6.780  0.0469 -0.1970 -0.7533
  750MOL0     C98874   6.235   4.812   6.705  0.5140  0.6349  0.4358
  750MOL0     C98875   6.226   4.695   6.627 -0.2352  0.2998  0.3266
  750MOL0     O98876   6.116   4.663   6.543 -0.5003 -0.0097 -0.0189
  750MOL0     C98877   6.000   4.727   6.586 -0.4733 -0.1867 -0.2217
  750MOL0     C98878   5.867   4.652   6.553  0.2994  0.0757  0.1275
  750MOL0     C98879   5.749   4.749   6.557  0.5140  0.3513 -0.6818
  750MOL0     C98880   5.629   4.667   6.532  0.5152  0.7002 -0.1713
  750MOL0     C98881   5.494   4.758   6.533 -0.4218 -0.6423 -0.5821
  750MOL0     C98882   5.379   4.671   6.499  0.4547 -0.6266  0.5143
  750MOL0     C98883   5.259   4.764   6.478  0.2994  0.4904 -0.7523
  750MOL0     C98884   5.138   4.676   6.450  0.9008  0.0907  0.5624
  750MOL0     N98885   5.012   4.757   6.458  0.1872  0.2311  0.4037
  750MOL0     C98886   4.928   4.783   6.355 -0.1015  0.5253 -0.5197
  750MOL0     C98887   4.857   4.891   6.401 -0.9512  0.0710  0.3813
  750MOL0     C98888   4.764   4.977   6.326  0.4896  0.6157 -0.8754
  750MOL0     C98889   4.616   4.952   6.366 -0.3073  0.3207  1.5114
  750MOL0     C98890   4.522   5.040   6.289  0.2176  0.2546 -0.0328
  750MOL0     C98891   4.380   4.994   6.319 -0.7166  0.0108  0.5127
  750MOL0     O98892   4.313   4.994   6.198 -0.5572  0.1115 -0.2670
  750MOL0     C98893   4.227   5.096   6.176 -0.3399 -0.4347 -0.0166
  750MOL0     C98894   4.227   5.226   6.229  0.1930 -0.9364 -0.1518
  750MOL0     C98895   4.127   5.321   6.196 -0.1491 -1.0298 -0.0036
  750MOL0     C98896   4.029   5.303   6.101  0.1986  0.4238  0.7209
  750MOL0     C98897   3.917   5.393   6.061 -0.1494 -0.4376 -1.1109
  750MOL0     O98898   3.838   5.352   5.962  0.3825 -0.1198 -0.7542
  750MOL0     C98899   3.738   5.439   5.915  0.4733 -0.5259  1.3794
  750MOL0     C98900   3.740   5.446   5.772 -0.4899  0.9310 -0.2538
  750MOL0     C98901   3.645   5.534   5.716 -0.0854  0.8976 -0.1340
  750MOL0     C98902   3.542   5.594   5.786 -0.7991 -0.1755 -0.0541
  750MOL0     O98903   3.452   5.675   5.717  0.7817 -0.7805  1.1670
  750MOL0     C98904   3.461   5.692   5.578 -0.0631  0.2964  1.1743
  750MOL0     C98905   3.332   5.757   5.528  0.4178 -0.0805 -0.0505
  750MOL0     C98906   3.339   5.909   5.536 -0.5387  0.5818 -0.2603
  750MOL0     C98907   3.239   5.972   5.439  0.5375  0.2804  0.7870
  750MOL0     C98908   3.230   6.121   5.462  0.0851 -0.0404  0.0947
  750MOL0     C98909   3.128   6.190   5.364 -0.0638  0.2095 -0.0768
  750MOL0     C98910   3.127   6.336   5.391 -0.0197 -0.8652 -0.0402
  750MOL0     C98911   3.112   6.400   5.528  0.0523 -0.7927 -0.0719
  750MOL0    Cl98912   2.943   6.366   5.584 -0.0036 -0.1502 -0.0023
  750MOL0     C98913   3.540   5.572   5.926 -0.6368  0.0047 -0.7903
  750MOL0     C98914   3.635   5.495   5.990  0.4514  0.8041  0.7623
  750MOL0     O98915   3.896   5.493   6.133 -0.0074 -0.0918  0.2634
  750MOL0     C98916   4.021   5.169   6.057 -0.2625 -0.6690  0.1330
  750MOL0     C98917   4.119   5.071   6.095 -0.9491 -0.9139 -0.1865
  750MOL0     N98918   4.879   4.925   6.533  0.3982 -0.2611  0.2814
  750MOL0     N98919   4.975   4.844   6.563  0.7126 -0.3939  1.2401
  750MOL0     C98920   6.331   4.607   6.625  0.1984 -0.1872  0.7922
  750MOL0     C98921   6.441   4.643   6.707  0.2060  0.6400  0.4461
  750MOL0     C98922   6.781   4.704   6.920 -0.7393  0.2691  0.6258
  750MOL0     C98923   6.862   4.596   6.961  0.4263 -0.6851  0.1513
  750MOL0     C98924   7.005   4.607   6.958  0.0290 -0.4367 -0.3818
  750MOL0     C98925   7.069   4.727   6.904 -0.1246 -1.1144 -1.0210
  750MOL0     O98926   7.204   4.739   6.876 -0.0344  0.0446 -0.7417
  750MOL0     C98927   7.288   4.627   6.901 -0.7661  0.2180 -0.0541
  750MOL0     C98928   7.438   4.642   6.885 -0.2534 -0.9262 -0.5534
  750MOL0     C98929   7.489   4.735   6.996  0.1481 -0.4396 -0.2691
  750MOL0     C98930   7.636   4.769   6.962 -0.9365  0.1398 -1.5530
  750MOL0     C98931   7.737   4.658   6.958  0.0214 -0.4734  0.6638
  750MOL0     C98932   7.797   4.552   6.962  0.3302  0.0174  0.2033
  750MOL0     C98933   6.982   4.824   6.865 -0.2596 -0.0140 -0.1398
  750MOL0     C98934   6.841   4.817   6.869  0.2490  0.6884 -0.1236
  750MOL0     H98935   6.379   4.927   6.825 -3.5895  3.4427 -4.8273
  750MOL0     H98936   6.161   4.890   6.693 -1.5979 -1.5338 -2.0963
  750MOL0     H98937   6.004   4.825   6.538 -1.7861 -1.5127 -3.3329
  750MOL0     H98938   5.990   4.738   6.694 -2.0105 -1.5573 -0.1671
  750MOL0     H98939   5.864   4.580   6.636  1.6214  2.8246  2.7501
  750MOL0     H98940   5.862   4.597   6.459 -1.0495 -2.9049  1.7809
  750MOL0     H98941   5.761   4.820   6.474 -0.3024 -0.1660 -1.2556
  750MOL0     H98942   5.762   4.786   6.659  0.2854  2.0055 -1.2196
  750MOL0     H98943   5.633   4.621   6.433 -0.7913 -4.8001  1.9818
  750MOL0     H98944   5.629   4.583   6.602 -0.9623 -1.5433 -2.6601
  750MOL0     H98945   5.499   4.829   6.449 -2.4802 -0.8913 -0.9710
  750MOL0     H98946   5.481   4.812   6.627 -3.0070  1.6875 -2.1126
  750MOL0     H98947   5.360   4.601   6.582 -4.2120 -1.5472 -1.0257
  750MOL0     H98948   5.393   4.631   6.398 -2.1725  2.3083 -1.1725
  750MOL0     H98949   5.239   4.818   6.570  1.5917 -0.5379  0.1662
  750MOL0     H98950   5.279   4.843   6.404  1.4472  2.8824  1.9065
  750MOL0     H98951   5.124   4.604   6.532  1.1223  0.6626  1.1102
  750MOL0     H98952   5.142   4.612   6.361  1.0161  0.6749  0.1434
  750MOL0     H98953   4.925   4.739   6.255 -2.5551  0.0204 -0.2960
  750MOL0     H98954   4.786   4.953   6.221  1.8130  0.6238 -0.6217
  750MOL0     H98955   4.785   5.084   6.330 -0.6541  0.8037  0.7018
  750MOL0     H98956   4.614   4.975   6.473 -3.7488  4.4736  0.8379
  750MOL0     H98957   4.593   4.847   6.347 -0.5871  0.5679  0.4029
  750MOL0     H98958   4.546   5.144   6.315  1.5428 -0.1933  0.6591
  750MOL0     H98959   4.544   5.031   6.183 -2.2163 -0.2482 -0.5530
  750MOL0     H98960   4.332   5.057   6.394 -1.4320  3.4819 -2.5488
  750MOL0     H98961   4.385   4.892   6.358  0.2556 -0.3321 -0.4424
  750MOL0     H98962   4.296   5.255   6.308 -0.4292  0.8834 -0.2360
  750MOL0     H98963   4.155   5.413   6.245  1.4743  0.0650 -2.7549
  750MOL0     H98964   3.803   5.378   5.717 -0.0599 -1.0569  2.4566
  750MOL0     H98965   3.659   5.544   5.609  3.8820 -2.4486 -0.1820
  750MOL0     H98966   3.457   5.594   5.530  1.3196  0.7245  0.1295
  750MOL0     H98967   3.549   5.749   5.547  0.5651 -1.1361  0.1999
  750MOL0     H98968   3.242   5.729   5.583  0.5760  2.4741  1.7178
  750MOL0     H98969   3.321   5.731   5.422  0.8799  1.5949 -0.5452
  750MOL0     H98970   3.441   5.937   5.511  0.0721 -1.9808 -0.8539
  750MOL0     H98971   3.310   5.936   5.638 -1.2135 -1.1441  0.0322
  750MOL0     H98972   3.271   5.953   5.336  0.2542  1.0573  0.5532
  750MOL0     H98973   3.140   5.924   5.447  1.4480 -2.8069 -3.1071
  750MOL0     H98974   3.331   6.160   5.467 -0.3884  1.0796  1.5021
  750MOL0     H98975   3.186   6.124   5.562  1.7529  1.5908  0.8241
  750MOL0     H98976   3.026   6.158   5.389  0.0845  1.2787  2.1589
  750MOL0     H98977   3.163   6.162   5.265  2.1213 -1.4045  1.0700
  750MOL0     H98978   3.220   6.380   5.354 -2.1952  1.7513 -2.8842
  750MOL0     H98979   3.043   6.363   5.326  0.5382 -1.6003 -1.0899
  750MOL0     H98980   3.129   6.507   5.518  0.7406 -1.0582 -2.8230
  750MOL0     H98981   3.176   6.355   5.604 -0.8328 -1.2422  0.4233
  750MOL0     H98982   3.465   5.621   5.986  2.7173  1.9443  2.1961
  750MOL0     H98983   3.634   5.495   6.099 -3.2911  4.1802  0.9628
  750MOL0     H98984   3.940   5.132   5.995  0.1237 -1.1611 -0.0889
  750MOL0     H98985   4.099   4.970   6.058  1.3960 -0.6970 -2.2967
  750MOL0     H98986   6.336   4.528   6.550  0.8818  3.1426 -2.9696
  750MOL0     H98987   6.526   4.578   6.689  1.0674  2.2552 -1.8735
  750MOL0     H98988   6.813   4.507   6.997 -0.0743 -0.5890 -0.2703
  750MOL0     H98989   7.057   4.513   6.972  0.2339 -0.3566 -0.6036
  750MOL0     H98990   7.244   4.555   6.831 -0.2993  2.5484 -2.9647
  750MOL0     H98991   7.266   4.592   7.002  0.4250 -0.3646  0.0186
  750MOL0     H98992   7.492   4.547   6.892 -1.3904 -1.5820 -0.3510
  750MOL0     H98993   7.460   4.683   6.786  1.3507 -0.6403 -0.1018
  750MOL0     H98994   7.481   4.674   7.086  1.6453  2.2393  1.8324
  750MOL0     H98995   7.426   4.823   7.007 -1.0598 -1.3977  0.7889
  750MOL0     H98996   7.659   4.834   6.878  1.6232 -0.6531 -1.5446
  750MOL0     H98997   7.663   4.834   7.047  0.5542 -1.8082 -0.4462
  750MOL0     H98998   7.842   4.455   6.967  0.0476 -0.2698 -1.7464
  750MOL0     H98999   7.009   4.912   6.807 -0.5419 -0.7143 -1.3779
  750MOL0     H99000   6.778   4.886   6.814 -1.5721 -1.5392 -0.9820
  751MOL0     O99001   1.528  11.014   1.886  0.0970  0.6120  0.0216
  751MOL0     C99002   1.478  11.111   1.838 -0.0024 -0.3697 -0.1992
  751MOL0     O99003   1.534  11.208   1.756 -0.5525  0.0769  0.3991
  751MOL0     C99004   1.670  11.218   1.732  0.6681  0.1709 -0.3872
  751MOL0     C99005   1.704  11.298   1.623 -0.3220  0.0042  0.4065
  751MOL0     C99006   1.836  11.319   1.587  0.0582 -0.4913  0.8969
  751MOL0     C99007   1.942  11.269   1.661 -0.2967 -0.0353  0.3085
  751MOL0     O99008   2.071  11.316   1.624  0.2639  0.1418 -0.0952
  751MOL0     C99009   2.170  11.271   1.716  0.4127  0.2386 -0.1638
  751MOL0     C99010   2.306  11.335   1.670 -0.3798  0.5545 -0.1048
  751MOL0     C99011   2.416  11.235   1.696  0.0120  0.4453 -1.2994
  751MOL0     C99012   2.555  11.293   1.670  0.1988 -1.0649 -0.0845
  751MOL0     C99013   2.659  11.191   1.636 -0.0248 -0.2896  0.1445
  751MOL0     C99014   2.803  11.228   1.618  0.7550  0.0591  0.6232
  751MOL0     C99015   2.811  11.343   1.525  0.6431 -0.4495 -0.9254
  751MOL0     C99016   2.943  11.395   1.460 -0.3252 -0.0387  0.1067
  751MOL0     N99017   2.929  11.495   1.359  0.3365 -0.0512 -0.5214
  751MOL0     C99018   2.809  11.538   1.311  0.0678  0.6573  0.4093
  751MOL0     C99019   2.837  11.587   1.188 -0.6809  0.1716  0.2895
  751MOL0     C99020   2.742  11.667   1.106 -0.5541  0.6635  0.0823
  751MOL0     C99021   2.750  11.814   1.155 -0.5186  1.4340  1.0130
  751MOL0     C99022   2.649  11.903   1.080  0.6578 -0.0153 -0.1014
  751MOL0     C99023   2.637  12.044   1.137 -0.3764  0.6001 -0.2498
  751MOL0     O99024   2.531  12.124   1.074  0.1708 -0.0209 -0.1162
  751MOL0     C99025   2.399  12.126   1.121  0.5580 -1.1002  0.2962
  751MOL0     C99026   2.295  12.189   1.038  0.8479  0.3402 -0.2749
  751MOL0     C99027   2.163  12.203   1.084 -0.1322 -1.0135  0.0118
  751MOL0     C99028   2.136  12.162   1.211  0.4116  0.0878 -0.4849
  751MOL0     C99029   2.001  12.172   1.274  0.4171  0.6761  0.9172
  751MOL0     O99030   1.910  12.222   1.188  1.1642 -0.2133  0.3868
  751MOL0     C99031   1.781  12.194   1.219 -0.1562 -0.4384  0.1456
  751MOL0     C99032   1.693  12.292   1.266 -0.0218  0.3024 -0.5836
  751MOL0     C99033   1.550  12.266   1.282 -0.3196  0.2855  0.5031
  751MOL0     C99034   1.505  12.139   1.261 -0.4186  0.3895  0.0895
  751MOL0     O99035   1.373  12.107   1.283 -0.3768 -0.1892  0.6531
  751MOL0     C99036   1.285  12.216   1.261 -0.0223 -0.5621  0.0091
  751MOL0     C99037   1.146  12.160   1.275  0.6606  0.2291 -0.4726
  751MOL0     C99038   1.038  12.249   1.209 -0.9423 -0.1284 -0.0613
  751MOL0     C99039   0.902  12.179   1.227  0.3006 -0.1787  0.4424
  751MOL0     C99040   0.787  12.242   1.145  0.2076 -0.8118  0.7967
  751MOL0     C99041   0.655  12.167   1.171 -0.1465  0.1241 -0.5581
  751MOL0     C99042   0.539  12.258   1.122 -0.0822  0.9783 -0.2158
  751MOL0     C99043   0.409  12.183   1.119 -0.0986 -0.6725 -0.2485
  751MOL0    Cl99044   0.290  12.313   1.114 -0.2473  0.3770 -0.1820
  751MOL0     C99045   1.594  12.031   1.229  0.1009 -0.1143  1.0032
  751MOL0     C99046   1.727  12.067   1.208  0.0943  0.0466 -0.9409
  751MOL0     O99047   1.981  12.138   1.395  0.1608 -0.0787 -0.1683
  751MOL0     C99048   2.241  12.111   1.288  0.5460  0.6059 -0.4820
  751MOL0     C99049   2.365  12.080   1.249 -0.5098  0.5184  0.1867
  751MOL0     N99050   2.976  11.599   1.174  0.1219  0.0716  1.3739
  751MOL0     N99051   3.025  11.530   1.275 -0.5970  1.0114  0.4720
  751MOL0     C99052   1.900  11.188   1.774  0.3374 -0.0546 -0.4269
  751MOL0     C99053   1.769  11.163   1.811 -0.2429 -0.4661 -0.5899
  751MOL0     C99054   1.344  11.157   1.885  0.8127  0.0269 -0.3275
  751MOL0     C99055   1.302  11.290   1.860  0.4353 -0.4648 -0.3378
  751MOL0     C99056   1.170  11.330   1.894 -1.2261 -0.0837 -0.0407
  751MOL0     C99057   1.084  11.250   1.965 -0.2210  0.1953 -0.7989
  751MOL0     O99058   0.968  11.309   2.012 -0.1531  0.7221  0.9096
  751MOL0     C99059   0.892  11.244   2.104 -0.3613 -0.9328 -0.2632
  751MOL0     C99060   0.970  11.229   2.241 -0.6631 -0.2046  0.7065
  751MOL0     C99061   0.884  11.244   2.364  0.0876 -0.4844  0.1547
  751MOL0     C99062   0.808  11.372   2.386  0.6448 -0.3048 -0.7059
  751MOL0     C99063   0.678  11.370   2.321  0.5855 -0.0770 -0.6573
  751MOL0     C99064   0.568  11.376   2.268  0.2416  0.8908  0.0737
  751MOL0     C99065   1.124  11.117   1.996 -0.5498  0.1357  0.1660
  751MOL0     C99066   1.252  11.070   1.953 -0.2634 -0.5479  0.7251
  751MOL0     H99067   1.636  11.352   1.558 -0.0729  0.1041  0.2262
  751MOL0     H99068   1.858  11.384   1.503 -1.2133 -1.8235 -0.5330
  751MOL0     H99069   2.172  11.163   1.697 -2.6583  0.0948 -0.1513
  751MOL0     H99070   2.147  11.283   1.822 -0.2852 -1.6110 -0.0592
  751MOL0     H99071   2.320  11.420   1.737 -2.4381  0.3009  0.7078
  751MOL0     H99072   2.318  11.343   1.561 -0.6714 -1.0694 -0.2928
  751MOL0     H99073   2.403  11.142   1.640  1.8980 -0.6057 -0.1004
  751MOL0     H99074   2.418  11.209   1.802 -0.1351  0.6106 -1.2546
  751MOL0     H99075   2.558  11.361   1.584  1.8128  0.5123  1.1510
  751MOL0     H99076   2.583  11.345   1.762  1.0729 -4.2604  1.5954
  751MOL0     H99077   2.620  11.135   1.550 -1.0870 -0.7706  0.9181
  751MOL0     H99078   2.662  11.130   1.727 -0.7405 -0.8670 -0.2054
  751MOL0     H99079   2.856  11.138   1.584 -0.8500 -2.2159  3.6999
  751MOL0     H99080   2.845  11.278   1.706 -1.6253  0.2816  1.6982
  751MOL0     H99081   2.763  11.307   1.434  0.3580 -1.0471 -0.5411
  751MOL0     H99082   2.776  11.426   1.587  2.9970 -0.7683  0.9751
  751MOL0     H99083   2.992  11.313   1.406  0.6121  0.3300  0.3830
  751MOL0     H99084   3.010  11.427   1.540  0.0165  1.2730 -0.6852
  751MOL0     H99085   2.709  11.548   1.352  0.3124  0.5759  1.0379
  751MOL0     H99086   2.645  11.618   1.114  0.4692 -1.1790  2.2753
  751MOL0     H99087   2.768  11.652   1.000 -0.5788 -2.3395  0.4195
  751MOL0     H99088   2.849  11.856   1.135  0.6375  0.4494  4.1513
  751MOL0     H99089   2.741  11.823   1.263 -1.2858 -0.5130  1.1548
  751MOL0     H99090   2.680  11.908   0.975  2.6686  1.3076  0.5070
  751MOL0     H99091   2.547  11.863   1.072  1.3950 -2.3853  1.2268
  751MOL0     H99092   2.734  12.086   1.107  0.1700 -0.8003 -0.5231
  751MOL0     H99093   2.638  12.043   1.246 -0.1732  0.7166 -0.2498
  751MOL0     H99094   2.319  12.226   0.940 -0.4670 -1.9184 -1.5451
  751MOL0     H99095   2.086  12.260   1.032  1.6623  1.1190 -0.4363
  751MOL0     H99096   1.732  12.392   1.282 -0.5766  1.0338 -3.2834
  751MOL0     H99097   1.488  12.351   1.309 -1.9743 -0.8115  0.2909
  751MOL0     H99098   1.285  12.252   1.158 -0.9397  0.4982  0.3696
  751MOL0     H99099   1.305  12.295   1.334  0.8336  0.1038 -0.9361
  751MOL0     H99100   1.116  12.146   1.380  2.9021 -4.0453 -0.1948
  751MOL0     H99101   1.141  12.061   1.229 -2.7181  0.1157 -0.1027
  751MOL0     H99102   1.055  12.268   1.103 -0.6249 -2.2218 -0.4366
  751MOL0     H99103   1.034  12.344   1.264 -0.1045 -1.7473  3.0172
  751MOL0     H99104   0.899  12.070   1.213 -1.0613 -0.3528  1.8034
  751MOL0     H99105   0.868  12.193   1.330 -0.2198 -0.3144  0.2920
  751MOL0     H99106   0.805  12.237   1.037 -1.6024  1.5160  0.2964
  751MOL0     H99107   0.782  12.349   1.166  3.2390 -0.4998  0.3550
  751MOL0     H99108   0.658  12.130   1.274  2.2697 -1.2088 -1.0538
  751MOL0     H99109   0.651  12.081   1.104  0.9964 -0.2984 -0.0985
  751MOL0     H99110   0.543  12.338   1.196  0.6907 -0.8954  1.8848
  751MOL0     H99111   0.559  12.285   1.018 -3.1254 -1.3265 -1.5427
  751MOL0     H99112   0.401  12.126   1.212 -0.2749  3.0765  2.2518
  751MOL0     H99113   0.407  12.112   1.035  1.7630 -1.0635 -0.0188
  751MOL0     H99114   1.558  11.933   1.198 -2.6711  1.5377 -1.5575
  751MOL0     H99115   1.792  11.982   1.194  2.2823  1.6128 -0.8178
  751MOL0     H99116   2.213  12.071   1.386  0.1582  1.1363 -0.3718
  751MOL0     H99117   2.427  12.046   1.331 -0.9621  1.2558  0.8475
  751MOL0     H99118   1.984  11.157   1.835  1.8129  1.2978 -1.6428
  751MOL0     H99119   1.743  11.111   1.903 -2.0156  3.1209  1.1294
  751MOL0     H99120   1.368  11.359   1.809 -0.6094 -0.9368 -2.4510
  751MOL0     H99121   1.142  11.427   1.856  4.2778  1.9182  0.2177
  751MOL0     H99122   0.855  11.146   2.073 -0.2856 -2.8908  4.8666
  751MOL0     H99123   0.805  11.311   2.112 -0.4063 -0.9751 -0.4041
  751MOL0     H99124   1.029  11.137   2.239 -0.0021  0.2242 -0.5175
  751MOL0     H99125   1.045  11.308   2.249 -2.6880  2.0553 -0.9046
  751MOL0     H99126   0.962  11.242   2.440  0.7415 -0.6322 -0.5096
  751MOL0     H99127   0.817  11.157   2.364 -1.6853  0.7871 -1.8362
  751MOL0     H99128   0.785  11.393   2.491  2.0277  2.7056 -0.9061
  751MOL0     H99129   0.860  11.460   2.347 -1.0090  1.8568  1.6580
  751MOL0     H99130   0.469  11.375   2.227 -0.3795  1.9092  1.4551
  751MOL0     H99131   1.058  11.046   2.045 -0.8255  1.0676  1.1909
  751MOL0     H99132   1.274  10.965   1.970  1.2716 -0.7634 -2.0406
  752MOL0     O99133   2.132   8.479   7.547 -0.1476  0.4674  0.3103
  752MOL0     C99134   2.117   8.593   7.508  0.6792  0.5441  0.5498
  752MOL0     O99135   2.028   8.629   7.413 -0.1485 -0.3776 -0.2505
  752MOL0     C99136   1.927   8.531   7.377 -0.9398 -0.7642 -0.0546
  752MOL0     C99137   1.945   8.396   7.363  0.5628  0.2866  0.9232
  752MOL0     C99138   1.839   8.312   7.313 -0.4605  0.8334  0.6733
  752MOL0     C99139   1.710   8.371   7.305 -0.2481 -0.4741 -0.7789
  752MOL0     O99140   1.596   8.301   7.274 -0.2825 -0.0126 -0.2053
  752MOL0     C99141   1.482   8.290   7.355  0.2892  0.8797 -0.5376
  752MOL0     C99142   1.523   8.221   7.491  0.6791 -0.3531 -0.0252
  752MOL0     C99143   1.410   8.227   7.594  0.1210 -0.2206 -0.1650
  752MOL0     C99144   1.471   8.173   7.721  0.0129  1.1214 -1.0655
  752MOL0     C99145   1.364   8.163   7.829  0.1307 -0.5772  0.5756
  752MOL0     C99146   1.423   8.076   7.941  0.0842  0.5093  0.7039
  752MOL0     C99147   1.319   8.041   8.047 -0.4272  0.8533 -0.3085
  752MOL0     C99148   1.255   8.170   8.109  0.0253 -0.8589 -0.4276
  752MOL0     N99149   1.341   8.264   8.182 -1.0936 -0.3603  0.9602
  752MOL0     C99150   1.449   8.224   8.260  0.7252  1.0182 -0.4346
  752MOL0     C99151   1.472   8.322   8.350 -0.6162  0.3349  0.4451
  752MOL0     C99152   1.583   8.310   8.456  0.1508 -0.6960 -0.2899
  752MOL0     C99153   1.725   8.306   8.402  0.9772  0.4890  0.0983
  752MOL0     C99154   1.813   8.293   8.520 -0.1757  0.2960 -0.7973
  752MOL0     C99155   1.967   8.281   8.484 -0.1131  0.0290 -0.0957
  752MOL0     O99156   1.978   8.161   8.393  0.0090 -0.2852  0.4597
  752MOL0     C99157   2.104   8.120   8.351  0.1659 -0.9710 -1.3821
  752MOL0     C99158   2.106   8.019   8.255  0.5097  1.1963  1.0844
  752MOL0     C99159   2.231   7.976   8.209  0.2407  0.7860  1.2729
  752MOL0     C99160   2.353   8.028   8.255 -0.3046  0.2498  0.9037
  752MOL0     C99161   2.479   7.999   8.188 -1.3652 -1.1514  1.0536
  752MOL0     O99162   2.592   8.069   8.225 -0.0539  0.3884 -0.3702
  752MOL0     C99163   2.718   8.045   8.159  0.7307 -0.0760  0.1233
  752MOL0     C99164   2.742   8.071   8.022 -0.7143  0.6793 -1.0216
  752MOL0     C99165   2.877   8.073   7.979  0.0073  0.2456  0.6230
  752MOL0     C99166   2.990   8.067   8.060  0.5568 -0.3782 -0.1354
  752MOL0     O99167   3.110   8.082   8.001  0.0781 -0.2272  0.3066
  752MOL0     C99168   3.229   8.069   8.080  0.0850  0.6348 -0.2540
  752MOL0     C99169   3.347   8.099   7.983 -0.0615 -0.4581  0.1059
  752MOL0     C99170   3.363   8.001   7.868 -0.1618  0.0880 -0.8734
  752MOL0     C99171   3.427   8.065   7.746 -0.6312  0.7326  0.4192
  752MOL0     C99172   3.543   8.169   7.780  0.0543  0.3897 -0.8282
  752MOL0     C99173   3.589   8.245   7.664 -0.1311  0.1244 -0.0908
  752MOL0     C99174   3.686   8.351   7.708 -0.4625 -0.8256 -1.0455
  752MOL0     C99175   3.766   8.401   7.591  0.5164 -0.3491  0.6844
  752MOL0    Cl99176   3.685   8.539   7.524 -0.3059  0.0418 -0.2339
  752MOL0     C99177   2.971   8.042   8.196  0.3475  0.9236 -0.2888
  752MOL0     C99178   2.835   8.038   8.242 -0.0186  0.0228 -0.0562
  752MOL0     O99179   2.474   7.903   8.117  0.3221  0.6596 -0.3183
  752MOL0     C99180   2.343   8.129   8.351 -0.2327  1.0746  0.4987
  752MOL0     C99181   2.221   8.178   8.396 -0.1792  0.3253 -0.0117
  752MOL0     N99182   1.372   8.421   8.330  0.4053 -0.4098 -0.6826
  752MOL0     N99183   1.298   8.383   8.235  0.3052  0.4680  0.5762
  752MOL0     C99184   1.691   8.508   7.322  0.0318  0.5416  0.7056
  752MOL0     C99185   1.801   8.586   7.362  0.0115 -0.5161  0.1067
  752MOL0     C99186   2.187   8.698   7.579  0.6995  0.6559  0.1052
  752MOL0     C99187   2.178   8.831   7.534  0.0282  0.7960  0.1570
  752MOL0     C99188   2.250   8.932   7.595 -0.0537 -0.2184  0.3934
  752MOL0     C99189   2.344   8.896   7.687 -0.7336  0.5216 -0.7173
  752MOL0     O99190   2.435   8.993   7.733  0.5399  0.5894  0.1392
  752MOL0     C99191   2.392   9.105   7.809  0.0219 -0.0781  0.7609
  752MOL0     C99192   2.500   9.124   7.924 -0.1437 -1.1627 -0.0083
  752MOL0     C99193   2.642   9.174   7.890 -0.4371  0.1993 -0.1606
  752MOL0     C99194   2.740   9.084   7.802 -0.1199 -0.2409 -0.3324
  752MOL0     C99195   2.803   8.982   7.891 -0.5389  0.1987 -0.9093
  752MOL0     C99196   2.838   8.872   7.941 -0.4803 -0.4454  0.4346
  752MOL0     C99197   2.369   8.767   7.729 -0.0192  0.5058  0.2999
  752MOL0     C99198   2.287   8.665   7.676  0.0547  0.3973 -0.7241
  752MOL0     H99199   2.047   8.358   7.367  0.9538  1.3225  0.8899
  752MOL0     H99200   1.840   8.205   7.300  0.4822  0.2593  4.4168
  752MOL0     H99201   1.416   8.214   7.313  0.2522 -1.6137  3.4538
  752MOL0     H99202   1.425   8.382   7.374 -1.8449 -0.2596 -1.0596
  752MOL0     H99203   1.609   8.276   7.531 -2.0041  4.3539  0.0037
  752MOL0     H99204   1.557   8.118   7.474  2.0887  0.0575  0.1726
  752MOL0     H99205   1.334   8.161   7.553  0.5742 -0.8714  0.0296
  752MOL0     H99206   1.372   8.330   7.605  2.5933  0.6327  1.0681
  752MOL0     H99207   1.522   8.077   7.720 -0.3120  0.9523 -1.5272
  752MOL0     H99208   1.549   8.247   7.744  2.9339 -1.5491 -1.7195
  752MOL0     H99209   1.263   8.136   7.798  0.1044  0.7209 -0.5912
  752MOL0     H99210   1.343   8.266   7.859 -0.0529 -0.4340 -0.0384
  752MOL0     H99211   1.509   8.131   7.983  0.6444  2.2296 -2.3718
  752MOL0     H99212   1.460   7.986   7.891 -0.2217  0.8844 -0.2131
  752MOL0     H99213   1.244   7.989   7.987 -1.9216 -0.7912  2.7578
  752MOL0     H99214   1.360   7.978   8.126  1.7707  0.3408 -1.7562
  752MOL0     H99215   1.170   8.135   8.169  0.8988 -0.7650  0.8980
  752MOL0     H99216   1.208   8.235   8.034  0.9612  1.5983  0.9788
  752MOL0     H99217   1.491   8.124   8.268  0.7666  1.1704  4.2766
  752MOL0     H99218   1.557   8.220   8.513  0.4579  0.9531  2.6384
  752MOL0     H99219   1.582   8.394   8.526  0.7650 -2.4954  2.0000
  752MOL0     H99220   1.748   8.387   8.332 -0.7615  1.6115  0.7542
  752MOL0     H99221   1.739   8.216   8.342  1.6826  0.6866 -0.0504
  752MOL0     H99222   1.811   8.389   8.573 -0.6355 -1.4804  2.6823
  752MOL0     H99223   1.776   8.218   8.590 -0.2701 -0.2985 -1.4727
  752MOL0     H99224   2.033   8.268   8.571  2.8879 -1.3499 -2.4107
  752MOL0     H99225   2.001   8.375   8.440  2.2546 -0.2915  0.9307
  752MOL0     H99226   2.019   7.974   8.209  3.5106 -0.6770 -3.3636
  752MOL0     H99227   2.225   7.904   8.128 -2.2977  2.5871 -0.2675
  752MOL0     H99228   2.659   8.059   7.954 -2.7115  0.3577  1.3339
  752MOL0     H99229   2.908   8.070   7.876 -1.1905 -1.4916  0.2568
  752MOL0     H99230   3.246   7.969   8.120  4.2138  1.3896  0.3496
  752MOL0     H99231   3.224   8.138   8.164 -2.7504  0.7815 -0.4607
  752MOL0     H99232   3.444   8.094   8.034 -0.4970 -2.5396  0.8308
  752MOL0     H99233   3.326   8.195   7.934  0.2500  0.0392  0.9183
  752MOL0     H99234   3.271   7.953   7.834 -1.3132  2.2783 -0.9713
  752MOL0     H99235   3.434   7.926   7.906 -1.8106 -1.2572 -0.3312
  752MOL0     H99236   3.466   7.989   7.678 -3.9059  1.1825 -2.2110
  752MOL0     H99237   3.351   8.120   7.690  1.5786  1.4558 -2.0309
  752MOL0     H99238   3.623   8.110   7.827 -1.0838 -1.7953 -1.4962
  752MOL0     H99239   3.507   8.245   7.850 -1.1783 -0.4657 -0.4916
  752MOL0     H99240   3.503   8.297   7.621 -0.0394 -1.6991 -2.6476
  752MOL0     H99241   3.641   8.176   7.597  1.9116 -0.8364  2.3208
  752MOL0     H99242   3.639   8.425   7.774 -0.7807 -0.1871 -1.9553
  752MOL0     H99243   3.764   8.307   7.769  0.3220  0.2100 -1.2677
  752MOL0     H99244   3.782   8.327   7.512 -0.3418  1.7317 -1.5934
  752MOL0     H99245   3.869   8.429   7.613  0.9263  0.7860 -2.2433
  752MOL0     H99246   3.056   8.024   8.261  1.0042 -1.5478 -1.6655
  752MOL0     H99247   2.809   8.030   8.347  1.4338 -3.0663  0.1511
  752MOL0     H99248   2.441   8.169   8.377  0.6001 -0.3084 -0.3780
  752MOL0     H99249   2.236   8.252   8.473  1.0663 -0.3761  0.4618
  752MOL0     H99250   1.593   8.552   7.309 -0.9233 -1.3282  1.3308
  752MOL0     H99251   1.791   8.693   7.371 -2.8203 -0.7357  0.4955
  752MOL0     H99252   2.118   8.851   7.446 -1.9982  2.8568  1.8884
  752MOL0     H99253   2.246   9.038   7.572  1.6589 -0.5609 -1.7442
  752MOL0     H99254   2.294   9.083   7.852 -1.0966  2.5330 -0.2235
  752MOL0     H99255   2.377   9.195   7.749  2.5192 -0.1410 -0.0616
  752MOL0     H99256   2.464   9.190   8.003  1.2733  0.0499 -0.3372
  752MOL0     H99257   2.506   9.020   7.956 -0.6011 -1.6478 -1.3939
  752MOL0     H99258   2.691   9.199   7.985  0.3326 -1.9397  0.0770
  752MOL0     H99259   2.621   9.271   7.844  1.4806 -0.8892 -3.7037
  752MOL0     H99260   2.682   9.041   7.719  2.9670  1.2949 -3.5716
  752MOL0     H99261   2.822   9.144   7.761  0.6999 -1.4427 -0.5079
  752MOL0     H99262   2.883   8.797   8.003  1.1999 -0.0596 -0.2688
  752MOL0     H99263   2.451   8.747   7.798 -0.4550  1.8763  1.2763
  752MOL0     H99264   2.310   8.564   7.706  1.8343  1.0925  0.3999
  753MOL0     O99265   9.565   0.596   1.542  0.4311  0.0086  0.6562
  753MOL0     C99266   9.618   0.594   1.655 -0.0997  0.5877 -0.2526
  753MOL0     O99267   9.583   0.520   1.764 -0.5040  0.5008  0.4920
  753MOL0     C99268   9.472   0.448   1.754  0.8249  0.3403  0.4241
  753MOL0     C99269   9.351   0.478   1.683 -0.2933  0.2145 -0.3551
  753MOL0     C99270   9.250   0.381   1.672 -0.3011  0.7728 -0.6202
  753MOL0     C99271   9.257   0.252   1.732  0.1204  0.4018  0.1583
  753MOL0     O99272   9.155   0.158   1.721 -0.3417 -0.4791  0.4212
  753MOL0     C99273   9.055   0.188   1.616  0.1225 -0.4631 -0.3896
  753MOL0     C99274   8.975   0.059   1.585 -0.3232 -0.8153  0.1362
  753MOL0     C99275   9.067  -0.049   1.524 -0.1087  0.2114  0.0411
  753MOL0     C99276   8.993  -0.191   1.508  0.7090 -0.2344  0.1816
  753MOL0     C99277   8.848  -0.191   1.465  0.4186  0.5394  1.0840
  753MOL0     C99278   8.801  -0.303   1.361 -0.2555  0.0649  0.0261
  753MOL0     C99279   8.652  -0.313   1.336  0.2120 -0.0257  0.2961
  753MOL0     C99280   8.570  -0.343   1.457  0.1316  0.7305 -0.5527
  753MOL0     N99281   8.596  -0.477   1.519  0.3861  0.3885  0.0487
  753MOL0     C99282   8.663  -0.492   1.644 -0.4154 -0.0318 -0.2177
  753MOL0     C99283   8.707  -0.614   1.639 -0.4343  0.1885  0.0280
  753MOL0     C99284   8.806  -0.685   1.725 -0.0737 -0.4218 -0.7030
  753MOL0     C99285   8.942  -0.679   1.651  0.3766 -0.6228  0.3176
  753MOL0     C99286   9.055  -0.724   1.753  0.6270 -0.3129 -0.1274
  753MOL0     C99287   9.193  -0.658   1.718  0.1849 -0.0705 -0.4095
  753MOL0     O99288   9.190  -0.516   1.727  0.3170  0.8092 -0.4580
  753MOL0     C99289   9.304  -0.443   1.736 -0.4389 -0.3387  0.1369
  753MOL0     C99290   9.302  -0.313   1.792  0.3059 -0.1245 -0.3382
  753MOL0     C99291   9.417  -0.234   1.793  1.0003  0.3054  0.1578
  753MOL0     C99292   9.540  -0.286   1.755 -1.0894 -0.2096  0.6720
  753MOL0     C99293   9.658  -0.204   1.776  0.0704 -0.1193 -0.4233
  753MOL0     O99294   9.759  -0.240   1.863  0.4282 -0.2095 -0.0197
  753MOL0     C99295   9.881  -0.180   1.875 -0.3679 -1.2330 -0.0758
  753MOL0     C99296   9.952  -0.190   1.992  0.4608 -0.2053  0.7497
  753MOL0     C99297  10.077  -0.133   2.004  0.0985 -0.0326  0.8267
  753MOL0     C99298  10.139  -0.060   1.901  0.4571  0.4806  0.3811
  753MOL0     O99299  10.269  -0.009   1.929 -0.0259  0.4644 -0.5625
  753MOL0     C99300  10.342   0.021   1.810 -0.2435  0.3830 -0.0114
  753MOL0     C99301  10.497   0.051   1.842  0.3604  0.5350  0.6642
  753MOL0     C99302  10.524   0.150   1.957 -0.4382  0.0016 -0.1533
  753MOL0     C99303  10.544   0.080   2.092  0.1532 -0.5423  0.7435
  753MOL0     C99304  10.534   0.170   2.215 -0.1029 -0.2341  0.3262
  753MOL0     C99305  10.655   0.270   2.217  0.3815 -0.4272 -0.2268
  753MOL0     C99306  10.685   0.318   2.358  0.1536  0.0952 -0.8237
  753MOL0     C99307  10.561   0.398   2.417  0.2891  0.3143 -1.1085
  753MOL0    Cl99308  10.599   0.475   2.574 -0.0139  0.1138 -0.3023
  753MOL0     C99309  10.067  -0.049   1.776 -0.1031  0.2281 -0.4976
  753MOL0     C99310   9.943  -0.114   1.763 -0.1271 -0.5586 -1.0233
  753MOL0     O99311   9.647  -0.096   1.719 -0.6237 -0.2364 -1.3202
  753MOL0     C99312   9.552  -0.416   1.715 -0.2108 -0.0349 -0.5362
  753MOL0     C99313   9.438  -0.491   1.698  0.9296  0.4689  0.6259
  753MOL0     N99314   8.654  -0.677   1.524  0.4797  0.2486 -0.7993
  753MOL0     N99315   8.585  -0.597   1.454  0.6725 -0.4270 -0.8334
  753MOL0     C99316   9.379   0.226   1.801 -0.1961  0.4661  0.5182
  753MOL0     C99317   9.476   0.325   1.818  0.3080  0.4675 -0.6169
  753MOL0     C99318   9.758   0.645   1.655  0.0403  0.8106  0.0684
  753MOL0     C99319   9.811   0.724   1.548  0.2396 -0.7362 -1.1576
  753MOL0     C99320   9.946   0.757   1.541 -0.2214 -0.1100 -0.1914
  753MOL0     C99321  10.043   0.709   1.638  0.5229 -0.7890  0.2752
  753MOL0     O99322  10.173   0.746   1.626  0.6136  0.7781 -0.1098
  753MOL0     C99323  10.240   0.669   1.522 -1.0820  0.7361  0.5098
  753MOL0     C99324  10.301   0.556   1.597 -0.3334  0.1866 -0.2067
  753MOL0     C99325  10.423   0.570   1.687  0.2369 -0.3014  0.1000
  753MOL0     C99326  10.476   0.444   1.767  0.0064 -0.2637 -0.4918
  753MOL0     C99327  10.571   0.369   1.692  1.3971 -0.0688  0.8321
  753MOL0     C99328  10.632   0.286   1.631 -0.1229 -0.3345  0.2664
  753MOL0     C99329   9.989   0.631   1.740 -0.5358 -1.1680  0.1417
  753MOL0     C99330   9.852   0.604   1.747  0.4165 -0.4617  0.5011
  753MOL0     H99331   9.332   0.578   1.645  2.4586  1.7169  1.8060
  753MOL0     H99332   9.164   0.427   1.625  0.6138  4.2597  0.7680
  753MOL0     H99333   9.102   0.218   1.522 -0.0303  1.1034  0.0052
  753MOL0     H99334   8.980   0.258   1.653 -1.1493 -2.4792  1.0002
  753MOL0     H99335   8.892   0.090   1.521  0.4487 -1.3985 -1.1680
  753MOL0     H99336   8.927   0.014   1.673 -2.9526 -2.4556 -2.0079
  753MOL0     H99337   9.146  -0.066   1.598  0.4747 -3.7789 -1.2888
  753MOL0     H99338   9.102  -0.015   1.426  1.1549 -1.2614 -0.0609
  753MOL0     H99339   9.044  -0.237   1.423 -0.6596 -1.4519 -0.0097
  753MOL0     H99340   9.017  -0.258   1.591 -0.5226 -0.9556 -0.0312
  753MOL0     H99341   8.836  -0.095   1.413  0.1896  0.4124  0.8984
  753MOL0     H99342   8.780  -0.195   1.551 -1.4987 -1.4018 -0.3911
  753MOL0     H99343   8.837  -0.396   1.406  0.3672 -0.2143 -1.0028
  753MOL0     H99344   8.861  -0.295   1.270  1.4042 -1.2252  0.9424
  753MOL0     H99345   8.623  -0.219   1.287  2.6645 -0.1095 -1.4943
  753MOL0     H99346   8.636  -0.388   1.258  2.1389  1.7297 -1.9378
  753MOL0     H99347   8.465  -0.355   1.428 -0.6135  1.8932  1.4515
  753MOL0     H99348   8.575  -0.262   1.529  0.9061  0.6119 -0.4711
  753MOL0     H99349   8.689  -0.410   1.710 -0.4048 -0.6052  0.5026
  753MOL0     H99350   8.777  -0.790   1.735  0.9611 -0.9571 -2.7389
  753MOL0     H99351   8.811  -0.638   1.823 -1.7297  1.2050 -1.3389
  753MOL0     H99352   8.952  -0.574   1.622 -1.8769 -1.2929 -3.5623
  753MOL0     H99353   8.943  -0.740   1.560 -2.1469  0.6198 -0.6215
  753MOL0     H99354   9.033  -0.680   1.851  2.2456  2.7404 -1.0093
  753MOL0     H99355   9.055  -0.832   1.768  1.1143 -0.1723  1.0486
  753MOL0     H99356   9.211  -0.689   1.615  1.0245  1.5961 -0.8016
  753MOL0     H99357   9.264  -0.703   1.788 -1.2777  0.3209  1.4177
  753MOL0     H99358   9.202  -0.278   1.817 -0.2471  1.2309 -3.8217
  753MOL0     H99359   9.406  -0.132   1.828  0.7392  1.7118 -3.5142
  753MOL0     H99360   9.920  -0.249   2.077  0.1401 -2.6395 -0.9788
  753MOL0     H99361  10.129  -0.127   2.099 -1.6303  1.6197  1.7367
  753MOL0     H99362  10.299   0.114   1.771  0.4166  1.6347  2.0731
  753MOL0     H99363  10.351  -0.061   1.739  0.0746  1.7810 -1.6406
  753MOL0     H99364  10.520   0.092   1.743  2.7573 -0.0947  0.9004
  753MOL0     H99365  10.568  -0.031   1.857 -1.7920 -1.3792  0.9821
  753MOL0     H99366  10.444   0.224   1.963 -0.5675 -0.1641  0.2259
  753MOL0     H99367  10.612   0.211   1.933  1.3599 -3.3349 -2.8258
  753MOL0     H99368  10.471  -0.002   2.094  2.0874 -2.3166  1.9368
  753MOL0     H99369  10.646   0.044   2.075 -0.0907 -0.8285 -0.1975
  753MOL0     H99370  10.536   0.103   2.301 -1.8943 -0.6661  0.0703
  753MOL0     H99371  10.445   0.234   2.211  0.2629  0.2170 -2.9075
  753MOL0     H99372  10.628   0.362   2.164 -0.7578 -2.1098 -2.8360
  753MOL0     H99373  10.736   0.215   2.169  2.5746  0.1139  2.6327
  753MOL0     H99374  10.695   0.228   2.419  2.3370  0.2387 -0.9080
  753MOL0     H99375  10.774   0.381   2.360  2.4014 -2.8888  1.5215
  753MOL0     H99376  10.484   0.321   2.426  1.1072 -0.6115 -1.9075
  753MOL0     H99377  10.525   0.480   2.353 -2.0534 -0.7434 -1.2660
  753MOL0     H99378  10.102   0.006   1.689  0.6187  1.2476  0.4183
  753MOL0     H99379   9.893  -0.108   1.666  1.6682 -2.7339 -2.1873
  753MOL0     H99380   9.648  -0.456   1.683 -0.5703 -0.3785 -1.2043
  753MOL0     H99381   9.443  -0.593   1.661 -1.5285  1.3924 -2.6924
  753MOL0     H99382   9.403   0.129   1.843  2.5702  1.6207  1.8952
  753MOL0     H99383   9.562   0.285   1.870  1.5336  0.8752 -2.2489
  753MOL0     H99384   9.747   0.772   1.475 -0.3159  1.6906  0.7801
  753MOL0     H99385   9.986   0.835   1.478  0.6410  0.9389  1.5819
  753MOL0     H99386  10.327   0.726   1.491 -0.7369  0.7929  1.5635
  753MOL0     H99387  10.180   0.638   1.435 -2.2883  1.6918  0.9706
  753MOL0     H99388  10.217   0.497   1.637  0.0013 -1.4557 -1.7702
  753MOL0     H99389  10.347   0.483   1.530  1.1947  0.3736  0.6142
  753MOL0     H99390  10.393   0.641   1.764 -0.6286 -0.9547  0.3801
  753MOL0     H99391  10.499   0.618   1.625 -1.3957 -1.1413 -2.7386
  753MOL0     H99392  10.528   0.480   1.856  0.4107  0.7800 -1.1301
  753MOL0     H99393  10.391   0.382   1.796 -0.2238  0.7566  1.1256
  753MOL0     H99394  10.692   0.213   1.580 -0.2248 -0.1127 -0.1726
  753MOL0     H99395  10.045   0.598   1.827 -1.1279  0.4189  1.1606
  753MOL0     H99396   9.808   0.552   1.832 -1.0810  0.0404  0.0722
  754MOL0     O99397   6.266   4.371   9.138 -0.4970 -0.4383  0.0172
  754MOL0     C99398   6.254   4.349   9.256 -0.4384 -0.2022  0.8260
  754MOL0     O99399   6.145   4.293   9.312 -0.1110  0.2708  0.4348
  754MOL0     C99400   6.039   4.270   9.240  0.2380 -0.5986 -0.0376
  754MOL0     C99401   6.009   4.147   9.190  0.2000 -0.2495 -0.2796
  754MOL0     C99402   5.885   4.139   9.125 -0.0809 -0.0598  0.5978
  754MOL0     C99403   5.814   4.254   9.089  0.1815  0.0377  1.1792
  754MOL0     O99404   5.706   4.226   9.015 -0.3722 -0.2290 -0.2557
  754MOL0     C99405   5.587   4.262   9.087  0.1433  0.4312 -0.2320
  754MOL0     C99406   5.524   4.136   9.146  0.1146 -0.1326  0.8271
  754MOL0     C99407   5.388   4.132   9.209 -0.0649 -0.8778 -0.1196
  754MOL0     C99408   5.288   4.098   9.102  0.4694 -0.5448  0.0419
  754MOL0     C99409   5.139   4.120   9.147 -0.2446  1.6709  0.3769
  754MOL0     C99410   5.046   4.168   9.033 -1.0308  0.4455 -0.4638
  754MOL0     C99411   4.913   4.219   9.083  1.2098 -0.5613 -0.2086
  754MOL0     C99412   4.825   4.109   9.140 -0.0348 -0.5963  0.0741
  754MOL0     N99413   4.680   4.120   9.107  0.2265 -0.7921 -0.3379
  754MOL0     C99414   4.575   4.168   9.183 -0.5869  0.6026 -0.2248
  754MOL0     C99415   4.470   4.149   9.105  1.1998  1.1516 -0.5992
  754MOL0     C99416   4.338   4.199   9.139  0.5340 -0.3002 -0.0982
  754MOL0     C99417   4.220   4.136   9.050 -0.0489  0.4805 -0.0942
  754MOL0     C99418   4.208   3.980   9.064 -0.0163  1.2759  0.8030
  754MOL0     C99419   4.090   3.925   8.983 -0.6676  0.6920  0.5593
  754MOL0     O99420   3.970   3.958   9.051  0.4736  0.3428  0.1285
  754MOL0     C99421   3.853   3.953   8.973  0.4619  1.0297  0.3127
  754MOL0     C99422   3.832   3.890   8.849 -0.0009 -0.6073  0.3697
  754MOL0     C99423   3.709   3.892   8.784  0.3707 -0.0989 -0.3936
  754MOL0     C99424   3.598   3.956   8.842 -0.4663  0.4552  0.7923
  754MOL0     C99425   3.472   3.963   8.771  0.0196 -0.0396 -0.7158
  754MOL0     O99426   3.464   3.977   8.638 -0.6065 -0.0797 -0.6470
  754MOL0     C99427   3.334   3.973   8.581  0.0006  0.0320 -0.3004
  754MOL0     C99428   3.309   3.865   8.500 -0.5738  0.4001 -0.5147
  754MOL0     C99429   3.187   3.850   8.425 -0.0777 -0.5334 -0.1063
  754MOL0     C99430   3.083   3.944   8.441 -0.2759  0.8982  0.2333
  754MOL0     O99431   2.974   3.910   8.371  0.0665 -0.1099  0.2404
  754MOL0     C99432   2.908   4.020   8.311 -0.0288  1.5165  0.0831
  754MOL0     C99433   2.836   3.961   8.194  0.0667  0.9179  0.6303
  754MOL0     C99434   2.762   4.071   8.120 -0.0527 -0.1864  0.0246
  754MOL0     C99435   2.656   4.014   8.020 -0.1824  1.2150 -0.4476
  754MOL0     C99436   2.588   4.120   7.939  0.1901 -0.3850 -0.4884
  754MOL0     C99437   2.485   4.052   7.842  0.0234  0.2255  0.6364
  754MOL0     C99438   2.423   4.168   7.757 -0.1488  0.2753  0.1308
  754MOL0     C99439   2.301   4.116   7.690 -0.8792  0.3638  0.1455
  754MOL0    Cl99440   2.149   4.196   7.743  0.2094 -0.0229  0.5683
  754MOL0     C99441   3.094   4.039   8.538 -0.7584  1.3646  0.0890
  754MOL0     C99442   3.217   4.054   8.610  0.1420 -0.6223 -0.4466
  754MOL0     O99443   3.376   3.953   8.853  0.6534  0.0896 -0.7396
  754MOL0     C99444   3.619   4.018   8.966  1.2653 -0.7149  0.6564
  754MOL0     C99445   3.742   4.015   9.035  0.3625 -0.3478  0.7525
  754MOL0     N99446   4.517   4.087   8.989  0.0198 -0.8005  0.2258
  754MOL0     N99447   4.637   4.055   8.996 -0.5368 -0.8478 -0.1901
  754MOL0     C99448   5.854   4.382   9.124 -0.5297 -0.0729 -0.0795
  754MOL0     C99449   5.966   4.385   9.211  0.7135  0.8395 -0.4133
  754MOL0     C99450   6.376   4.375   9.338  0.3978 -0.2313  0.1972
  754MOL0     C99451   6.506   4.410   9.285 -0.0059  0.0441  0.3011
  754MOL0     C99452   6.609   4.462   9.367  0.5055 -0.7643  0.4437
  754MOL0     C99453   6.590   4.465   9.500 -0.7888 -0.1002 -0.8893
  754MOL0     O99454   6.695   4.503   9.578 -0.4540  0.4575  0.1392
  754MOL0     C99455   6.690   4.544   9.716  0.7113  1.3430  0.5083
  754MOL0     C99456   6.803   4.629   9.764 -0.0075 -0.7588  0.5841
  754MOL0     C99457   6.809   4.773   9.700 -0.5197  0.5740  0.3292
  754MOL0     C99458   6.944   4.802   9.645  0.1977 -1.4389  0.1629
  754MOL0     C99459   6.963   4.711   9.530  0.8403 -0.2808  0.1875
  754MOL0     C99460   6.959   4.636   9.432  0.3525  0.8678  0.1213
  754MOL0     C99461   6.474   4.418   9.562 -0.9752 -0.5676 -0.4129
  754MOL0     C99462   6.367   4.386   9.478 -0.2023  0.1995 -1.5116
  754MOL0     H99463   6.077   4.067   9.217  0.5452  1.0390  3.1287
  754MOL0     H99464   5.855   4.042   9.086 -0.5599  0.4642 -0.3643
  754MOL0     H99465   5.512   4.296   9.016 -1.5395  2.0748  2.1633
  754MOL0     H99466   5.591   4.342   9.161 -1.0454  0.4000 -0.1082
  754MOL0     H99467   5.597   4.125   9.226 -0.8804 -0.0360  1.7726
  754MOL0     H99468   5.536   4.056   9.072 -0.7690 -0.3810  0.9397
  754MOL0     H99469   5.377   4.231   9.253 -0.3905 -0.2286 -1.5913
  754MOL0     H99470   5.382   4.053   9.284  0.1651  0.6452  1.5750
  754MOL0     H99471   5.314   4.171   9.024  2.3350 -1.8899 -0.6664
  754MOL0     H99472   5.292   3.997   9.062 -2.3200 -2.9344  4.8788
  754MOL0     H99473   5.131   4.187   9.232  2.5243 -0.4804  2.5493
  754MOL0     H99474   5.098   4.022   9.173  2.1186  0.9728  1.7192
  754MOL0     H99475   5.033   4.089   8.959 -2.5177 -0.9844  1.2322
  754MOL0     H99476   5.097   4.246   8.976 -1.0599  0.5695 -0.3218
  754MOL0     H99477   4.940   4.299   9.153 -1.1152  1.0330 -1.0116
  754MOL0     H99478   4.860   4.257   8.996 -3.7828  2.0547  3.4312
  754MOL0     H99479   4.830   4.118   9.249 -1.8731  1.0271  0.0774
  754MOL0     H99480   4.864   4.011   9.111 -0.4209 -1.2097  1.5240
  754MOL0     H99481   4.568   4.217   9.279 -0.7438 -0.1262  0.1351
  754MOL0     H99482   4.328   4.306   9.118  0.0161  0.2422  2.6144
  754MOL0     H99483   4.317   4.180   9.245  0.1066  0.7147  0.0099
  754MOL0     H99484   4.244   4.142   8.944 -0.3753  2.9193 -0.0837
  754MOL0     H99485   4.130   4.196   9.069 -1.1548 -0.0602 -3.0733
  754MOL0     H99486   4.296   3.932   9.021 -1.1434  0.3153 -0.5292
  754MOL0     H99487   4.202   3.940   9.166 -0.8981 -1.1949 -0.1356
  754MOL0     H99488   4.095   3.817   8.969 -0.5374  0.8202 -0.4550
  754MOL0     H99489   4.101   3.976   8.886  0.3155 -1.2266 -0.3923
  754MOL0     H99490   3.924   3.852   8.805 -0.7168  0.6102 -2.3966
  754MOL0     H99491   3.695   3.848   8.686 -3.7966 -0.1514  0.0586
  754MOL0     H99492   3.389   3.793   8.482 -0.7925 -0.1295  0.5131
  754MOL0     H99493   3.170   3.762   8.363  0.9303  0.4400 -1.8541
  754MOL0     H99494   2.971   4.106   8.286 -2.2605  3.2149  0.0791
  754MOL0     H99495   2.830   4.058   8.377 -0.2493 -1.3128  1.6230
  754MOL0     H99496   2.761   3.892   8.235 -0.1160  1.9464  2.1164
  754MOL0     H99497   2.907   3.910   8.129 -1.8526 -0.0306 -0.8435
  754MOL0     H99498   2.825   4.137   8.061 -0.8271 -1.7111 -2.7015
  754MOL0     H99499   2.705   4.131   8.192  1.7906  0.0687  1.3455
  754MOL0     H99500   2.704   3.944   7.951 -2.8283 -1.6878  0.4163
  754MOL0     H99501   2.576   3.964   8.077 -2.2112  2.0649 -2.3732
  754MOL0     H99502   2.662   4.180   7.887 -2.0779  1.4492 -1.8051
  754MOL0     H99503   2.543   4.183   8.017  3.4441  1.0997  0.3408
  754MOL0     H99504   2.411   4.006   7.908 -0.9689  2.6544  1.3097
  754MOL0     H99505   2.536   3.975   7.783  2.0211  0.2967  2.1311
  754MOL0     H99506   2.397   4.249   7.827  2.9866  0.0599  1.7343
  754MOL0     H99507   2.491   4.201   7.678  0.1130  0.7883  0.5601
  754MOL0     H99508   2.294   4.008   7.710  1.0188  0.4053  1.2941
  754MOL0     H99509   2.302   4.132   7.581 -0.0570  2.5374  0.4242
  754MOL0     H99510   3.000   4.087   8.565 -1.6477 -1.4359  2.6135
  754MOL0     H99511   3.209   4.121   8.696 -3.3523 -0.6561 -0.5752
  754MOL0     H99512   3.538   4.076   9.011  0.8767 -0.2569 -0.5933
  754MOL0     H99513   3.760   4.042   9.138  1.3729 -1.2997  0.8511
  754MOL0     H99514   5.794   4.468   9.093  0.1570  0.2669 -0.4847
  754MOL0     H99515   5.988   4.478   9.262 -1.9636 -0.4062  3.5470
  754MOL0     H99516   6.510   4.408   9.176 -2.4831 -2.9916  0.1273
  754MOL0     H99517   6.697   4.504   9.321  0.3798 -0.1083  0.7866
  754MOL0     H99518   6.697   4.449   9.770  1.9398  2.4781  2.4460
  754MOL0     H99519   6.598   4.595   9.743  0.3430  0.6650  0.5615
  754MOL0     H99520   6.800   4.642   9.873  2.3320  0.7285  0.5442
  754MOL0     H99521   6.895   4.572   9.750 -1.6039 -3.3002 -0.0712
  754MOL0     H99522   6.796   4.849   9.778  1.5922  2.0018 -0.6009
  754MOL0     H99523   6.738   4.775   9.617 -0.4513  3.6205  0.2086
  754MOL0     H99524   6.933   4.907   9.615  1.1333 -1.5403 -0.5966
  754MOL0     H99525   7.023   4.796   9.719 -0.9156  0.3030  1.5830
  754MOL0     H99526   6.946   4.577   9.344 -4.7151  0.8938  0.5441
  754MOL0     H99527   6.483   4.401   9.669  0.7898 -1.1701 -0.6237
  754MOL0     H99528   6.277   4.360   9.532  0.7963  1.2980  0.8273
  755MOL0     O99529   8.836   4.983   9.188  0.7468  0.2905 -0.1799
  755MOL0     C99530   8.890   5.096   9.186 -0.4626  0.9199 -0.6472
  755MOL0     O99531   8.821   5.215   9.169 -0.2441 -0.1255 -0.0018
  755MOL0     C99532   8.722   5.210   9.068 -0.0280  0.8742  0.9190
  755MOL0     C99533   8.604   5.290   9.084  0.5895 -0.0461  0.1151
  755MOL0     C99534   8.513   5.306   8.975 -0.6417  0.0504 -0.4951
  755MOL0     C99535   8.530   5.228   8.856  0.0842 -0.3518 -0.2044
  755MOL0     O99536   8.432   5.243   8.759 -0.4525  0.1005  0.1335
  755MOL0     C99537   8.420   5.150   8.657  1.1721 -0.1329  0.4072
  755MOL0     C99538   8.488   5.204   8.527  0.9814 -0.1051  0.4996
  755MOL0     C99539   8.466   5.120   8.405  0.3645 -0.1894 -0.9636
  755MOL0     C99540   8.548   5.179   8.285 -0.6252  0.0958 -0.1487
  755MOL0     C99541   8.564   5.085   8.168 -0.0729  0.2882  1.4291
  755MOL0     C99542   8.610   5.155   8.036 -0.0877 -0.0620  0.0034
  755MOL0     C99543   8.614   5.060   7.921  0.1351  0.5454 -1.0095
  755MOL0     C99544   8.696   5.111   7.800 -0.5200  0.1477 -0.1373
  755MOL0     N99545   8.717   5.001   7.700  0.1807 -0.2834  0.0655
  755MOL0     C99546   8.820   4.909   7.691 -0.2534 -0.0582  1.0857
  755MOL0     C99547   8.803   4.845   7.577 -0.4808  0.3185  0.8623
  755MOL0     C99548   8.899   4.743   7.530  0.2977 -0.2157  0.8661
  755MOL0     C99549   9.000   4.784   7.422  0.4281  0.6653 -0.1390
  755MOL0     C99550   9.038   4.668   7.339 -0.4950 -0.6579  0.2911
  755MOL0     C99551   9.111   4.561   7.416 -0.3045  0.9048  0.5050
  755MOL0     O99552   9.223   4.607   7.497  0.1168 -0.4932  0.3886
  755MOL0     C99553   9.335   4.655   7.433 -0.0232 -1.1546 -0.7270
  755MOL0     C99554   9.379   4.615   7.306 -0.2819  0.5407  0.3421
  755MOL0     C99555   9.501   4.667   7.260  0.1884 -0.2699  0.2372
  755MOL0     C99556   9.579   4.757   7.334  0.2226 -0.1122  0.0750
  755MOL0     C99557   9.701   4.820   7.283  0.2081  0.1020 -0.0769
  755MOL0     O99558   9.735   4.781   7.153  0.0076 -0.5078 -0.8014
  755MOL0     C99559   9.849   4.826   7.089 -0.3077 -0.4998 -0.7133
  755MOL0     C99560   9.973   4.817   7.156 -0.2486  0.9410  0.5340
  755MOL0     C99561  10.086   4.857   7.091  0.1938 -0.3175  0.4509
  755MOL0     C99562  10.078   4.902   6.953 -0.0956 -0.5610 -0.2943
  755MOL0     O99563  10.190   4.945   6.880 -0.5431 -0.7357 -0.5511
  755MOL0     C99564  10.312   4.884   6.919 -1.2455  0.2349 -0.1755
  755MOL0     C99565  10.422   4.911   6.824  0.3662 -0.7529  0.3116
  755MOL0     C99566  10.544   4.817   6.825 -0.4210 -1.2409 -0.1444
  755MOL0     C99567  10.649   4.865   6.724  0.3763 -0.2184 -0.1800
  755MOL0     C99568  10.788   4.800   6.728 -0.3597 -0.0363 -0.5705
  755MOL0     C99569  10.893   4.888   6.658  0.0437  0.2950 -0.1573
  755MOL0     C99570  11.019   4.820   6.619  0.3850 -0.4215 -0.3763
  755MOL0     C99571  11.118   4.915   6.547 -0.5489 -0.2959  0.9864
  755MOL0    Cl99572  11.144   4.856   6.380 -0.3226 -0.1566 -0.2618
  755MOL0     C99573   9.959   4.896   6.889  0.2089 -0.0184  0.5166
  755MOL0     C99574   9.845   4.865   6.957  0.1107 -0.3959  0.4386
  755MOL0     O99575   9.778   4.877   7.362 -0.5636 -0.5000  0.1390
  755MOL0     C99576   9.540   4.782   7.471  0.0652  0.1463 -0.0195
  755MOL0     C99577   9.423   4.727   7.514  0.5001  0.2198  0.5186
  755MOL0     N99578   8.683   4.879   7.521 -0.8240 -0.0351 -0.8693
  755MOL0     N99579   8.630   4.981   7.594  0.3598  0.5178  0.3769
  755MOL0     C99580   8.644   5.140   8.848 -0.2284 -0.8053  0.6323
  755MOL0     C99581   8.733   5.135   8.952  0.3157  0.6791  0.5787
  755MOL0     C99582   9.038   5.098   9.221  0.3658 -0.1491  0.4000
  755MOL0     C99583   9.112   4.975   9.247  0.2350 -0.4486  0.1075
  755MOL0     C99584   9.246   4.984   9.293 -0.3807 -0.9460  0.4211
  755MOL0     C99585   9.307   5.111   9.334 -0.8595  0.1600  0.1199
  755MOL0     O99586   9.428   5.116   9.396 -0.1248 -0.2805  0.9821
  755MOL0     C99587   9.437   5.205   9.511  0.1456  0.8172  0.5153
  755MOL0     C99588   9.564   5.201   9.585 -0.3965  0.3217  0.1564
  755MOL0     C99589   9.683   5.218   9.488  0.7809 -0.2670 -0.0885
  755MOL0     C99590   9.817   5.243   9.557 -0.2911  0.3977 -0.1470
  755MOL0     C99591   9.871   5.123   9.621 -0.1927 -0.4753 -0.2590
  755MOL0     C99592   9.927   5.020   9.661 -0.0479 -0.7120 -0.5148
  755MOL0     C99593   9.225   5.226   9.327 -0.5572  0.1503 -0.0587
  755MOL0     C99594   9.094   5.217   9.271  0.7502 -0.0756  0.6761
  755MOL0     H99595   8.597   5.338   9.181  0.8948 -2.3301  1.3421
  755MOL0     H99596   8.431   5.376   8.984 -0.4815  0.2397 -0.5122
  755MOL0     H99597   8.314   5.137   8.636  1.6462 -0.2046 -2.2497
  755MOL0     H99598   8.455   5.050   8.682 -3.8565 -2.0038  1.0365
  755MOL0     H99599   8.596   5.208   8.544  1.4086  3.1770 -1.8908
  755MOL0     H99600   8.470   5.310   8.507  2.1978  0.9223  4.1648
  755MOL0     H99601   8.359   5.119   8.380  0.5486  1.8034 -2.0970
  755MOL0     H99602   8.499   5.018   8.427  0.9138  0.4970  1.6635
  755MOL0     H99603   8.492   5.262   8.241 -2.2013 -0.9413 -0.2099
  755MOL0     H99604   8.648   5.200   8.322 -0.5653 -2.5235  1.4070
  755MOL0     H99605   8.476   5.026   8.141  2.4368 -1.2277 -5.5832
  755MOL0     H99606   8.642   5.012   8.191  0.0859 -0.3312 -0.8390
  755MOL0     H99607   8.711   5.189   8.057 -0.5334  2.3165 -1.3627
  755MOL0     H99608   8.553   5.244   8.009  1.3098  0.5116 -1.1858
  755MOL0     H99609   8.657   4.969   7.964  0.2296  1.9077  2.0513
  755MOL0     H99610   8.514   5.033   7.887 -0.1072 -0.9780  0.7864
  755MOL0     H99611   8.791   5.142   7.844  0.5612 -0.8380 -1.6519
  755MOL0     H99612   8.657   5.198   7.747  0.5178  0.1225 -0.9914
  755MOL0     H99613   8.901   4.904   7.763 -0.1893 -2.9886  0.9432
  755MOL0     H99614   8.846   4.653   7.497 -1.7816  0.4818  2.0841
  755MOL0     H99615   8.957   4.710   7.616  0.8387 -2.8738 -0.4191
  755MOL0     H99616   9.089   4.829   7.469  1.2865  0.2571 -1.3219
  755MOL0     H99617   8.947   4.857   7.360 -0.9746 -3.7306 -4.7613
  755MOL0     H99618   8.947   4.627   7.294 -0.0508 -1.0390 -0.2679
  755MOL0     H99619   9.099   4.700   7.254  0.4099  0.0514  1.1828
  755MOL0     H99620   9.140   4.483   7.345 -1.5553 -1.7903  2.7966
  755MOL0     H99621   9.045   4.514   7.489 -3.2323  1.8078 -1.3786
  755MOL0     H99622   9.318   4.543   7.253  2.8212 -2.2090  0.1989
  755MOL0     H99623   9.543   4.629   7.167  2.0592 -2.4501  1.8438
  755MOL0     H99624   9.985   4.795   7.261  4.2548 -0.9005 -0.1340
  755MOL0     H99625  10.173   4.867   7.154 -1.2171  0.2918  2.4088
  755MOL0     H99626  10.291   4.777   6.929 -3.6137  0.5867 -0.7623
  755MOL0     H99627  10.342   4.922   7.016 -3.0996  2.4000 -0.3688
  755MOL0     H99628  10.455   5.014   6.843  1.4014 -1.1627  0.8408
  755MOL0     H99629  10.384   4.905   6.722  0.0236  4.4482 -0.1673
  755MOL0     H99630  10.511   4.717   6.794 -0.8633  0.0719 -4.5327
  755MOL0     H99631  10.591   4.813   6.924 -1.2514  0.9654  0.3982
  755MOL0     H99632  10.605   4.854   6.625 -0.0565 -1.4582  0.1359
  755MOL0     H99633  10.656   4.969   6.759  0.1302 -0.1667 -0.2810
  755MOL0     H99634  10.777   4.701   6.684 -2.4033 -0.3961  0.6242
  755MOL0     H99635  10.815   4.795   6.834  0.6472  3.8519 -0.4750
  755MOL0     H99636  10.913   4.980   6.714 -4.7198  1.1843  0.4659
  755MOL0     H99637  10.849   4.923   6.564 -1.4217 -2.3966 -0.5858
  755MOL0     H99638  11.060   4.780   6.712 -3.5429  0.4277  1.9785
  755MOL0     H99639  11.005   4.739   6.548  0.0475  0.6266 -1.5472
  755MOL0     H99640  11.217   4.919   6.592  0.9902 -0.1092 -2.0938
  755MOL0     H99641  11.087   5.020   6.547 -0.8130 -0.3737  1.1516
  755MOL0     H99642   9.962   4.921   6.783 -1.0296 -2.3340 -0.1470
  755MOL0     H99643   9.748   4.865   6.908  1.0083 -0.3901 -1.4359
  755MOL0     H99644   9.585   4.839   7.552 -3.3598 -2.9662  4.5926
  755MOL0     H99645   9.403   4.747   7.619  5.5179  1.3871  1.5162
  755MOL0     H99646   8.663   5.068   8.769 -1.3401  0.2252 -0.6217
  755MOL0     H99647   8.810   5.060   8.934  0.5222  0.9662  0.2375
  755MOL0     H99648   9.046   4.889   9.258 -1.8872  1.3455  2.6102
  755MOL0     H99649   9.295   4.888   9.305 -0.0162 -0.8374 -0.1424
  755MOL0     H99650   9.352   5.190   9.578 -0.5450  0.8234 -0.3356
  755MOL0     H99651   9.429   5.306   9.469 -4.2343  0.3544 -0.2209
  755MOL0     H99652   9.576   5.287   9.651  2.6634  1.5078 -1.7502
  755MOL0     H99653   9.560   5.112   9.648 -0.8608  2.6495  3.6951
  755MOL0     H99654   9.670   5.301   9.418  3.9846  0.1770 -0.3141
  755MOL0     H99655   9.693   5.123   9.435 -1.5261 -0.7464  0.2464
  755MOL0     H99656   9.885   5.297   9.490 -1.0397 -1.0184 -2.1432
  755MOL0     H99657   9.791   5.315   9.636 -3.6232 -0.7473 -0.0398
  755MOL0     H99658   9.958   4.920   9.682  0.4069 -0.9971 -2.3526
  755MOL0     H99659   9.254   5.327   9.356  0.3498 -0.1373  0.0749
  755MOL0     H99660   9.050   5.315   9.250  0.4343 -0.4383 -0.4235
  756MOL0     O99661  10.595   2.110   7.266  0.1432 -0.2637 -0.0254
  756MOL0     C99662  10.639   2.001   7.289 -0.2688  0.5958  0.6751
  756MOL0     O99663  10.760   1.960   7.245 -0.8368 -0.4826 -0.3065
  756MOL0     C99664  10.841   2.030   7.153  0.6993 -0.6141 -0.6402
  756MOL0     C99665  10.861   2.165   7.158  0.3553 -0.1112  0.2337
  756MOL0     C99666  10.931   2.238   7.069  0.8395  0.9871  0.2920
  756MOL0     C99667  10.984   2.173   6.959 -0.5479 -0.4150 -0.0092
  756MOL0     O99668  11.054   2.231   6.862  0.3244 -0.0845  0.1808
  756MOL0     C99669  11.024   2.372   6.835  0.3547  0.2114 -0.0427
  756MOL0     C99670  11.125   2.466   6.908 -0.1474  0.1642  0.9329
  756MOL0     C99671  11.091   2.612   6.883  0.1183  0.0886  0.4864
  756MOL0     C99672  11.154   2.702   6.988 -0.4185  0.4998  0.6939
  756MOL0     C99673  11.105   2.844   6.969 -0.2868 -0.1316  1.3314
  756MOL0     C99674  11.166   2.932   7.090 -0.0736  0.0531 -0.5389
  756MOL0     C99675  11.140   3.081   7.076  0.6895 -0.1337  0.1741
  756MOL0     C99676  11.170   3.160   7.199  0.8213 -0.9758  0.7446
  756MOL0     N99677  11.109   3.115   7.324 -0.5508  1.3887  0.0799
  756MOL0     C99678  10.979   3.149   7.365 -0.9048  0.2022  0.1580
  756MOL0     C99679  10.954   3.063   7.467  0.5617 -0.0490  0.4522
  756MOL0     C99680  10.821   3.035   7.528  0.0800  1.0171 -0.4119
  756MOL0     C99681  10.727   3.150   7.526  0.0228  0.1370  0.5025
  756MOL0     C99682  10.607   3.136   7.622 -0.3925 -0.4856 -0.3560
  756MOL0     C99683  10.511   3.248   7.610  1.1162  0.0789  0.5850
  756MOL0     O99684  10.429   3.218   7.724  0.1609 -0.6328  0.0313
  756MOL0     C99685  10.311   3.282   7.763 -0.5692 -0.1721 -0.1085
  756MOL0     C99686  10.256   3.252   7.892  2.0788  0.7227  0.4339
  756MOL0     C99687  10.129   3.306   7.924  0.7703  0.0660 -0.1875
  756MOL0     C99688  10.060   3.403   7.846 -0.1757 -0.3604 -0.7414
  756MOL0     C99689   9.930   3.464   7.885 -0.0310  0.8944  0.0551
  756MOL0     O99690   9.875   3.559   7.789  0.7939 -0.9070 -0.3334
  756MOL0     C99691   9.753   3.626   7.798  0.5849  0.4071  0.5049
  756MOL0     C99692   9.717   3.718   7.691  0.1405  0.4378 -1.0485
  756MOL0     C99693   9.598   3.789   7.699  0.2536 -0.0826 -0.1079
  756MOL0     C99694   9.507   3.782   7.808 -0.6868 -0.1528 -0.7884
  756MOL0     O99695   9.396   3.861   7.796  0.1399 -0.2450  0.6493
  756MOL0     C99696   9.283   3.777   7.779 -0.6725  0.5181  0.0732
  756MOL0     C99697   9.141   3.838   7.790 -0.2335  0.2452  0.1227
  756MOL0     C99698   9.023   3.740   7.776 -0.3673  1.4937 -0.5944
  756MOL0     C99699   8.885   3.803   7.790 -0.7610 -0.2276 -0.2072
  756MOL0     C99700   8.849   3.837   7.932 -0.4859 -0.4466  0.2272
  756MOL0     C99701   8.700   3.870   7.954  0.3975 -0.0137  0.6230
  756MOL0     C99702   8.604   3.754   7.939 -0.5192 -0.1738 -0.3143
  756MOL0     C99703   8.468   3.786   8.005 -0.0840 -0.0657 -0.1478
  756MOL0    Cl99704   8.351   3.794   7.873 -0.2549 -0.5296 -0.0001
  756MOL0     C99705   9.539   3.684   7.899  0.0128 -0.2446 -0.4696
  756MOL0     C99706   9.660   3.604   7.894  0.3343 -0.0918 -0.3058
  756MOL0     O99707   9.888   3.435   7.999  0.7248 -0.0102 -0.2475
  756MOL0     C99708  10.118   3.427   7.725 -0.9934  0.1422  0.1724
  756MOL0     C99709  10.241   3.369   7.686 -0.0299 -0.0825  0.1521
  756MOL0     N99710  11.064   2.985   7.493  0.4788  0.4228  0.4820
  756MOL0     N99711  11.156   3.021   7.416  0.4341 -0.3607  0.0495
  756MOL0     C99712  10.978   2.028   6.961  0.4854 -0.0541  0.2916
  756MOL0     C99713  10.907   1.958   7.060  0.9447 -0.2104  0.6515
  756MOL0     C99714  10.557   1.919   7.376  0.0027  0.6256  0.7341
  756MOL0     C99715  10.569   1.778   7.367 -0.2508 -0.5452 -0.1776
  756MOL0     C99716  10.494   1.696   7.446 -0.3859  0.0355 -0.2286
  756MOL0     C99717  10.397   1.754   7.530  0.4265 -0.1292  1.0052
  756MOL0     O99718  10.300   1.671   7.574  0.1010 -0.5855  0.1513
  756MOL0     C99719  10.215   1.688   7.698 -0.1559 -0.8079 -0.7221
  756MOL0     C99720  10.069   1.645   7.695  0.8905  0.6400  0.5073
  756MOL0     C99721  10.067   1.501   7.640  0.7359 -0.4491  0.7560
  756MOL0     C99722   9.921   1.449   7.618  0.5457  0.9361  0.4911
  756MOL0     C99723   9.917   1.312   7.554 -0.4035  0.0541  0.5149
  756MOL0     C99724   9.912   1.207   7.510 -1.0036  0.4980  0.0838
  756MOL0     C99725  10.380   1.895   7.541 -0.0683  0.3534 -0.3826
  756MOL0     C99726  10.471   1.978   7.470 -0.3418  0.0921  0.1528
  756MOL0     H99727  10.812   2.224   7.235 -1.1255 -3.0636  1.7055
  756MOL0     H99728  10.927   2.346   7.075  2.0446  1.1103 -0.7457
  756MOL0     H99729  10.925   2.416   6.852  1.4171  2.5730  0.5215
  756MOL0     H99730  11.038   2.389   6.728  0.0886  0.4850 -0.0353
  756MOL0     H99731  11.228   2.444   6.879 -0.7751  1.1352 -2.4945
  756MOL0     H99732  11.120   2.443   7.015  1.6546 -0.2202  0.9636
  756MOL0     H99733  10.986   2.632   6.903  0.1088 -1.0270  1.7192
  756MOL0     H99734  11.117   2.643   6.782  0.2413  1.1782  0.8353
  756MOL0     H99735  11.110   2.669   7.083 -0.0330 -1.1278  0.3240
  756MOL0     H99736  11.263   2.695   6.986 -0.5137 -1.3547 -1.1490
  756MOL0     H99737  10.997   2.856   6.977 -0.2247 -0.6930  4.0487
  756MOL0     H99738  11.147   2.884   6.876 -0.3109 -3.8056 -0.4634
  756MOL0     H99739  11.274   2.916   7.090  0.0643  0.7678  1.0564
  756MOL0     H99740  11.133   2.904   7.191  0.9425  2.9442  0.7103
  756MOL0     H99741  11.197   3.132   6.998  0.5909 -3.0926 -2.0423
  756MOL0     H99742  11.038   3.101   7.039  0.7345  0.0277  0.1366
  756MOL0     H99743  11.129   3.259   7.178 -1.7572 -2.0736  0.2184
  756MOL0     H99744  11.279   3.166   7.192  0.6313  0.7845 -3.5936
  756MOL0     H99745  10.901   3.205   7.315  0.9057  2.1246 -0.6381
  756MOL0     H99746  10.831   3.014   7.635 -2.9515 -0.6886 -0.3541
  756MOL0     H99747  10.766   2.952   7.484 -0.3420  0.2475  1.4512
  756MOL0     H99748  10.701   3.192   7.428  3.4777  3.0204  0.6047
  756MOL0     H99749  10.788   3.225   7.577  0.5044 -0.1761  0.3842
  756MOL0     H99750  10.571   3.033   7.607  1.9787 -1.7373  1.6727
  756MOL0     H99751  10.643   3.149   7.725  0.9569 -0.0939 -0.8605
  756MOL0     H99752  10.455   3.252   7.516  0.8261  1.0545  0.7882
  756MOL0     H99753  10.560   3.345   7.622 -0.4236  0.8984  0.5139
  756MOL0     H99754  10.305   3.173   7.949  0.9860 -2.4254 -2.5740
  756MOL0     H99755  10.095   3.287   8.025  2.9690 -0.2315  0.5314
  756MOL0     H99756   9.782   3.716   7.603  2.4923 -1.0573  0.6009
  756MOL0     H99757   9.568   3.834   7.606  0.2902 -1.0085 -0.5849
  756MOL0     H99758   9.287   3.691   7.847  1.9262  0.9494  0.5577
  756MOL0     H99759   9.294   3.739   7.677 -1.6457 -0.0887  0.1791
  756MOL0     H99760   9.140   3.911   7.708  2.9268  1.0060  0.6460
  756MOL0     H99761   9.131   3.898   7.880  1.1635 -1.0140  1.1767
  756MOL0     H99762   9.032   3.656   7.846  1.7246  0.7285 -1.7101
  756MOL0     H99763   9.042   3.698   7.677 -1.6617  2.1392 -1.1444
  756MOL0     H99764   8.888   3.897   7.733  1.2215 -0.2397 -0.1701
  756MOL0     H99765   8.811   3.742   7.736  1.8037 -1.8547 -2.1104
  756MOL0     H99766   8.907   3.928   7.951 -0.4237 -0.0468 -1.7049
  756MOL0     H99767   8.879   3.756   8.000  2.3800 -0.5832 -1.0722
  756MOL0     H99768   8.667   3.958   7.897 -0.3631 -0.8169 -0.2151
  756MOL0     H99769   8.694   3.908   8.056  0.4051  1.5174  0.0720
  756MOL0     H99770   8.592   3.713   7.838 -0.6312 -0.8839 -0.0173
  756MOL0     H99771   8.645   3.672   7.999  0.5018 -0.3317 -1.2004
  756MOL0     H99772   8.486   3.866   8.078  2.5405 -2.1528  1.6661
  756MOL0     H99773   8.437   3.696   8.059 -2.0490  0.1111 -0.8897
  756MOL0     H99774   9.487   3.671   7.993  0.1663  5.1144  0.6593
  756MOL0     H99775   9.668   3.524   7.968  0.6522  0.3185  0.1070
  756MOL0     H99776  10.067   3.486   7.650  2.5095  0.0714 -2.5540
  756MOL0     H99777  10.277   3.392   7.586 -0.1697 -1.1538 -0.1569
  756MOL0     H99778  11.028   1.964   6.889  1.8057  1.9563 -0.6695
  756MOL0     H99779  10.876   1.855   7.046  0.1564  0.1513 -0.3293
  756MOL0     H99780  10.641   1.753   7.289  1.4897 -0.5000  1.3559
  756MOL0     H99781  10.506   1.589   7.437  1.4978  0.1052  0.8997
  756MOL0     H99782  10.225   1.788   7.742  1.8923 -1.2918 -0.0034
  756MOL0     H99783  10.270   1.621   7.764  2.6732  0.0386 -2.0378
  756MOL0     H99784  10.023   1.643   7.794  1.0363 -4.0612  0.6760
  756MOL0     H99785  10.012   1.707   7.625 -2.5893 -2.0384  0.7234
  756MOL0     H99786  10.118   1.439   7.715  0.8368 -0.2081  0.8871
  756MOL0     H99787  10.121   1.505   7.545 -0.3874  3.4402  0.0800
  756MOL0     H99788   9.876   1.439   7.717  1.8042  1.0914  1.0841
  756MOL0     H99789   9.861   1.523   7.565  0.2945  0.9146  0.7405
  756MOL0     H99790   9.937   1.114   7.463  0.6883  1.8432 -1.8935
  756MOL0     H99791  10.298   1.939   7.597  0.1962 -1.3512  1.4635
  756MOL0     H99792  10.452   2.085   7.474  2.2740  0.5879  2.7591
  757MOL0     O99793   9.227  11.032   5.693 -0.0796  0.4764  1.2885
  757MOL0     C99794   9.266  11.081   5.589 -0.8586 -0.4527  0.0581
  757MOL0     O99795   9.189  11.158   5.499  0.8153  0.0268 -0.0828
  757MOL0     C99796   9.053  11.136   5.482 -0.1062  0.2387 -0.6690
  757MOL0     C99797   8.997  11.005   5.500 -0.0980 -1.1049 -1.5671
  757MOL0     C99798   8.862  10.985   5.465 -0.2294 -0.2306 -0.0894
  757MOL0     C99799   8.784  11.087   5.409  1.0545  0.0930  0.5558
  757MOL0     O99800   8.662  11.057   5.366  0.0185 -0.4823 -0.1810
  757MOL0     C99801   8.657  10.947   5.277 -1.1676  0.7488  0.5868
  757MOL0     C99802   8.540  10.950   5.184  0.6618  0.3171 -0.1148
  757MOL0     C99803   8.418  10.939   5.281 -1.3828 -0.9452  0.4868
  757MOL0     C99804   8.305  11.008   5.205 -1.1254  0.4758  0.5469
  757MOL0     C99805   8.174  10.988   5.294 -0.0543  1.1651 -0.4394
  757MOL0     C99806   8.048  10.997   5.218  0.4202 -0.4616 -0.3674
  757MOL0     C99807   7.934  10.967   5.309  0.8052  0.5392 -0.9166
  757MOL0     C99808   7.808  11.016   5.253 -1.2128 -0.3671 -0.5091
  757MOL0     N99809   7.693  10.990   5.341  0.1982 -0.2533 -0.4308
  757MOL0     C99810   7.600  11.081   5.386 -0.2049 -0.2159 -0.2983
  757MOL0     C99811   7.488  11.014   5.413  0.4573 -0.1439  0.5778
  757MOL0     C99812   7.355  11.061   5.470  1.2332 -0.0975  1.1985
  757MOL0     C99813   7.252  11.056   5.357  0.3629 -0.1408 -0.6174
  757MOL0     C99814   7.119  11.130   5.414 -0.2887 -0.2429 -0.2708
  757MOL0     C99815   7.002  11.133   5.316  0.9439 -0.5336 -0.1895
  757MOL0     O99816   6.881  11.194   5.377 -0.0758 -0.2739  0.4521
  757MOL0     C99817   6.770  11.216   5.295 -0.3470  0.4506  0.6439
  757MOL0     C99818   6.737  11.130   5.185 -0.4852  0.0106  0.5908
  757MOL0     C99819   6.622  11.144   5.119  0.2617  0.4657  1.8045
  757MOL0     C99820   6.522  11.235   5.148 -0.3496  0.6035 -0.2700
  757MOL0     C99821   6.392  11.260   5.079 -0.1417 -0.1473 -0.0981
  757MOL0     O99822   6.339  11.158   4.999 -0.3019 -0.7616  0.6916
  757MOL0     C99823   6.216  11.173   4.936 -0.2066 -0.1861  0.9221
  757MOL0     C99824   6.140  11.284   4.894 -0.8262 -0.2135 -0.2842
  757MOL0     C99825   6.027  11.276   4.816 -0.5695 -0.3812 -0.1442
  757MOL0     C99826   5.972  11.147   4.787 -0.5457 -0.2582 -0.4746
  757MOL0     O99827   5.855  11.127   4.721 -0.3441 -0.3613 -0.3309
  757MOL0     C99828   5.772  11.233   4.672  0.5412  0.7044  0.3980
  757MOL0     C99829   5.666  11.174   4.582  0.3947 -0.1742 -0.1771
  757MOL0     C99830   5.567  11.081   4.655 -0.3918 -0.0113  0.2424
  757MOL0     C99831   5.484  11.014   4.550  0.2797 -0.7400  0.1350
  757MOL0     C99832   5.374  10.928   4.612 -0.4283 -0.0069 -0.5805
  757MOL0     C99833   5.280  10.859   4.522  0.8574 -0.5972 -0.5995
  757MOL0     C99834   5.164  10.788   4.592 -0.6618  0.3486  0.4612
  757MOL0     C99835   5.059  10.863   4.673  0.4694 -0.7314  0.4559
  757MOL0    Cl99836   4.922  10.756   4.696 -0.0338 -0.0754  0.4245
  757MOL0     C99837   6.034  11.035   4.823 -0.9489  0.5022  1.3968
  757MOL0     C99838   6.161  11.049   4.892 -0.2677 -0.3268 -0.0721
  757MOL0     O99839   6.332  11.363   5.107 -0.8883 -0.2086 -0.5070
  757MOL0     C99840   6.562  11.331   5.242 -0.6778 -0.5015 -0.3223
  757MOL0     C99841   6.679  11.318   5.322  0.4575 -0.6124 -0.3511
  757MOL0     N99842   7.511  10.877   5.384  0.2774 -0.7464  0.0463
  757MOL0     N99843   7.631  10.869   5.344 -0.3941 -0.1230 -0.5697
  757MOL0     C99844   8.836  11.214   5.388 -0.0310 -0.0943  0.0518
  757MOL0     C99845   8.970  11.241   5.438 -1.0001  0.1404 -0.4803
  757MOL0     C99846   9.417  11.059   5.557  0.1122 -0.0108  0.5172
  757MOL0     C99847   9.495  10.961   5.622 -0.2149  0.9727 -0.1921
  757MOL0     C99848   9.623  10.931   5.581  1.2667  0.1938 -0.0103
  757MOL0     C99849   9.673  10.996   5.471 -0.5608  0.0397  0.3635
  757MOL0     O99850   9.789  10.971   5.409  0.1429  0.6080  1.1577
  757MOL0     C99851   9.892  10.888   5.471 -0.7904 -0.4208 -0.2019
  757MOL0     C99852   9.866  10.734   5.462  0.5725 -0.1225  0.1779
  757MOL0     C99853   9.853  10.691   5.319  0.4187  0.1070 -0.6293
  757MOL0     C99854   9.746  10.574   5.317  0.4106 -0.1599  0.7669
  757MOL0     C99855   9.709  10.531   5.176  1.0212  0.1703 -0.8161
  757MOL0     C99856   9.682  10.522   5.065  0.4304  0.4290 -0.1893
  757MOL0     C99857   9.601  11.088   5.401 -0.0745 -0.5408  0.0042
  757MOL0     C99858   9.471  11.126   5.452 -0.4151 -0.2104  0.7535
  757MOL0     H99859   9.047  10.921   5.547  1.0561  0.0761 -0.6102
  757MOL0     H99860   8.822  10.885   5.474  0.6183 -0.5593  0.0905
  757MOL0     H99861   8.674  10.856   5.336  2.2557  1.7456  1.3665
  757MOL0     H99862   8.745  10.952   5.212 -1.7592 -1.9155 -0.5448
  757MOL0     H99863   8.555  10.858   5.127  0.6447 -1.9703  3.2601
  757MOL0     H99864   8.536  11.040   5.122 -0.9759 -0.4004 -1.1039
  757MOL0     H99865   8.442  10.992   5.373  0.6474 -0.8988 -0.0320
  757MOL0     H99866   8.397  10.833   5.300  0.2465 -1.1058  1.5703
  757MOL0     H99867   8.327  11.111   5.177  0.7498 -0.4097 -1.4913
  757MOL0     H99868   8.286  10.955   5.111 -0.1353 -0.0556  0.6313
  757MOL0     H99869   8.173  11.059   5.377  1.5364  1.4127 -0.6061
  757MOL0     H99870   8.190  10.890   5.340  3.9040  0.8037 -2.1510
  757MOL0     H99871   8.048  10.934   5.129 -1.4971 -0.6051 -0.3132
  757MOL0     H99872   8.051  11.102   5.189  3.4545 -0.2442  0.3406
  757MOL0     H99873   7.923  10.859   5.312 -0.0287  0.6125 -1.2955
  757MOL0     H99874   7.952  11.018   5.405  2.2114  2.4730 -2.1251
  757MOL0     H99875   7.801  10.972   5.153 -1.2616 -2.4621  0.3495
  757MOL0     H99876   7.822  11.124   5.246 -2.1424  0.2167  3.7654
  757MOL0     H99877   7.625  11.186   5.398  1.9437 -0.6656 -0.3416
  757MOL0     H99878   7.352  11.167   5.494  0.5669  0.4580 -1.1020
  757MOL0     H99879   7.305  10.997   5.544  1.2257 -0.4555  0.8895
  757MOL0     H99880   7.241  10.953   5.320  1.9953 -0.2555 -0.8704
  757MOL0     H99881   7.279  11.115   5.269 -0.0450 -0.6362 -1.0841
  757MOL0     H99882   7.078  11.088   5.507 -1.4914 -1.3128 -1.2523
  757MOL0     H99883   7.145  11.233   5.441 -0.4074  0.5496 -2.9187
  757MOL0     H99884   6.984  11.029   5.286  2.1739 -0.4673 -1.2584
  757MOL0     H99885   7.032  11.187   5.226  0.7307  0.4676  0.3231
  757MOL0     H99886   6.806  11.054   5.149 -1.9690 -0.6796 -0.9206
  757MOL0     H99887   6.612  11.068   5.042 -0.0564  0.6394  1.6737
  757MOL0     H99888   6.190  11.377   4.920 -1.0430 -0.1714 -0.0096
  757MOL0     H99889   5.979  11.366   4.778 -0.4080 -0.5965 -0.8783
  757MOL0     H99890   5.823  11.291   4.594  0.0686  1.5663  0.7296
  757MOL0     H99891   5.736  11.293   4.755 -1.5248 -1.8209  1.4854
  757MOL0     H99892   5.717  11.114   4.505 -0.7210 -1.0223 -0.2868
  757MOL0     H99893   5.608  11.259   4.546 -1.8004 -0.8122  1.6071
  757MOL0     H99894   5.497  11.133   4.721 -0.2136 -1.7669  1.8823
  757MOL0     H99895   5.606  10.998   4.714  0.2574 -0.5859 -0.9605
  757MOL0     H99896   5.433  11.089   4.488 -1.7465 -1.1461  1.2226
  757MOL0     H99897   5.546  10.942   4.496 -0.2882 -2.0028  1.1320
  757MOL0     H99898   5.311  10.994   4.673 -2.6616 -3.0168  0.5748
  757MOL0     H99899   5.421  10.850   4.672  0.6315 -0.3760 -1.8486
  757MOL0     H99900   5.332  10.796   4.450  1.4608 -0.3681 -0.3703
  757MOL0     H99901   5.232  10.919   4.443 -1.5072 -4.3781 -2.3446
  757MOL0     H99902   5.120  10.718   4.520 -0.5630  1.2444 -0.5044
  757MOL0     H99903   5.211  10.719   4.663  2.2046  0.2015 -1.3983
  757MOL0     H99904   5.026  10.951   4.617 -1.2009 -0.8654  1.1673
  757MOL0     H99905   5.104  10.897   4.767  0.5379  1.7326 -0.3966
  757MOL0     H99906   5.980  10.943   4.801 -1.8340  1.1398  0.8413
  757MOL0     H99907   6.214  10.957   4.912 -0.3507 -0.9718 -2.5582
  757MOL0     H99908   6.499  11.416   5.267  0.3431  0.3433 -0.5508
  757MOL0     H99909   6.705  11.390   5.398  1.0178 -0.8745 -0.2861
  757MOL0     H99910   8.774  11.289   5.340 -1.9258 -2.0796 -0.7022
  757MOL0     H99911   9.017  11.338   5.427  1.0184 -0.4280  2.0636
  757MOL0     H99912   9.451  10.909   5.707 -2.5513  0.6440 -1.5101
  757MOL0     H99913   9.676  10.858   5.641 -0.7734  0.8668  2.7933
  757MOL0     H99914   9.893  10.924   5.575 -2.6035  1.3536 -0.7362
  757MOL0     H99915   9.984  10.909   5.416 -1.7040  2.1919 -0.8815
  757MOL0     H99916   9.936  10.675   5.522 -0.6772  0.6798  2.5651
  757MOL0     H99917   9.769  10.715   5.509 -0.5902  0.5512 -1.8041
  757MOL0     H99918   9.949  10.665   5.275  0.2427  0.1418 -1.0358
  757MOL0     H99919   9.808  10.774   5.264  0.0252 -0.0221 -0.5067
  757MOL0     H99920   9.785  10.493   5.379 -1.6306 -1.3093  0.6473
  757MOL0     H99921   9.653  10.612   5.362 -0.4224 -0.4604 -0.6560
  757MOL0     H99922   9.634  10.527   4.969  0.3593  4.3748 -0.1120
  757MOL0     H99923   9.651  11.146   5.324  0.6860  0.7544  1.4164
  757MOL0     H99924   9.427  11.214   5.407 -1.2655 -0.8623  0.2802
  758MOL0     O99925   5.184   1.861   2.458 -0.2653  0.1392  0.2047
  758MOL0     C99926   5.243   1.881   2.571 -0.0715 -0.5633  0.5346
  758MOL0     O99927   5.187   1.855   2.690 -1.1019  0.3684 -0.0585
  758MOL0     C99928   5.060   1.811   2.693 -1.6185  1.0919 -0.0326
  758MOL0     C99929   5.053   1.676   2.728  1.0468 -0.5278  0.8757
  758MOL0     C99930   4.929   1.614   2.745  0.1766 -0.3012  0.1231
  758MOL0     C99931   4.812   1.700   2.754 -1.1947 -0.2611 -0.0928
  758MOL0     O99932   4.684   1.654   2.786  0.5985  0.3875  0.2055
  758MOL0     C99933   4.654   1.511   2.799 -0.1690 -0.1457  1.2275
  758MOL0     C99934   4.503   1.471   2.817 -0.0253 -0.1065 -0.5135
  758MOL0     C99935   4.417   1.484   2.692  0.1862 -0.9465  1.1112
  758MOL0     C99936   4.276   1.431   2.702  0.2344 -0.3163 -0.2098
  758MOL0     C99937   4.193   1.458   2.581 -0.2739  0.9517  0.5386
  758MOL0     C99938   4.258   1.394   2.453  0.0010 -0.2335  0.6166
  758MOL0     C99939   4.297   1.488   2.341  0.9625 -0.0460  0.2452
  758MOL0     C99940   4.318   1.409   2.205 -0.0904 -0.4344 -0.8427
  758MOL0     N99941   4.360   1.504   2.098 -0.3336  0.8104  0.5868
  758MOL0     C99942   4.299   1.514   1.976  0.1643  0.2847 -0.5783
  758MOL0     C99943   4.377   1.606   1.906  0.3666 -0.1998  0.4877
  758MOL0     C99944   4.340   1.641   1.763  0.7308  0.0273 -0.6177
  758MOL0     C99945   4.254   1.764   1.775  0.4794  0.3559  0.5480
  758MOL0     C99946   4.203   1.803   1.635 -0.8099  0.2314 -0.5454
  758MOL0     C99947   4.150   1.945   1.634  1.0847  0.6235  0.4159
  758MOL0     O99948   4.057   1.964   1.740 -0.6843  0.6562 -0.6324
  758MOL0     C99949   3.928   1.927   1.739 -0.3854  1.1774 -0.3007
  758MOL0     C99950   3.853   1.973   1.850  0.1052  0.4448 -0.1907
  758MOL0     C99951   3.721   1.944   1.871  0.7969 -0.2395 -0.2452
  758MOL0     C99952   3.654   1.864   1.782 -0.9156  0.1668 -0.0779
  758MOL0     C99953   3.507   1.827   1.802  0.0306 -0.9062 -0.5885
  758MOL0     O99954   3.467   1.842   1.929 -0.5140 -0.0259 -0.1044
  758MOL0     C99955   3.341   1.815   1.979 -0.2763  0.9755  0.3564
  758MOL0     C99956   3.250   1.916   2.006  0.2000  0.0680 -0.2541
  758MOL0     C99957   3.117   1.882   2.029  0.1331  0.4271  0.5571
  758MOL0     C99958   3.070   1.744   2.021 -0.1497  0.0920 -0.9663
  758MOL0     O99959   2.944   1.704   2.062  0.2827  0.1945 -0.2468
  758MOL0     C99960   2.837   1.786   2.037  0.7416 -0.3107 -0.7076
  758MOL0     C99961   2.708   1.709   2.062 -0.6397  1.4540 -1.1049
  758MOL0     C99962   2.589   1.780   2.132 -0.8125 -0.3402  0.1468
  758MOL0     C99963   2.471   1.691   2.147  0.6201 -0.5491  0.1755
  758MOL0     C99964   2.349   1.778   2.167  0.2292 -0.0755  0.5153
  758MOL0     C99965   2.220   1.685   2.153 -0.4853  0.1116  0.3810
  758MOL0     C99966   2.090   1.764   2.172 -1.3769  0.5871  0.0177
  758MOL0     C99967   1.956   1.694   2.143 -0.9969 -0.6669  0.3100
  758MOL0    Cl99968   1.932   1.556   2.248 -0.0046  0.5160 -0.0544
  758MOL0     C99969   3.166   1.647   1.995 -0.2878 -0.1297 -0.2275
  758MOL0     C99970   3.305   1.687   1.971  0.0087  0.7095  0.4946
  758MOL0     O99971   3.439   1.801   1.702 -0.0376  0.4482 -0.0145
  758MOL0     C99972   3.717   1.831   1.659 -0.2733 -0.4746  0.0765
  758MOL0     C99973   3.854   1.856   1.645 -0.3721  0.0251  0.8149
  758MOL0     N99974   4.474   1.650   1.992 -0.7061 -0.2076  0.5113
  758MOL0     N99975   4.468   1.590   2.102 -0.7740  0.0095  0.6076
  758MOL0     C99976   4.836   1.839   2.730 -0.6137  0.2034  0.9570
  758MOL0     C99977   4.961   1.894   2.695  0.8355 -0.7880 -0.1884
  758MOL0     C99978   5.380   1.931   2.553 -0.2782  0.9929 -0.4890
  758MOL0     C99979   5.467   1.898   2.661 -0.5405  0.4744 -0.2585
  758MOL0     C99980   5.606   1.905   2.635 -0.0870  0.2020 -0.7207
  758MOL0     C99981   5.657   1.923   2.514  0.8404 -0.6191 -0.1705
  758MOL0     O99982   5.796   1.930   2.501 -0.6988 -0.5277 -0.4975
  758MOL0     C99983   5.881   1.994   2.409  0.6223 -0.0061 -0.1668
  758MOL0     C99984   5.851   2.144   2.411  0.0412  0.5735  0.2600
  758MOL0     C99985   5.845   2.227   2.546 -0.5494 -0.1373  0.2070
  758MOL0     C99986   5.968   2.194   2.643  0.4570 -0.9726  0.2546
  758MOL0     C99987   6.095   2.228   2.580 -0.4954 -0.3434  0.1565
  758MOL0     C99988   6.204   2.254   2.533 -0.1983  1.0947  0.2272
  758MOL0     C99989   5.574   1.959   2.408  0.5267 -0.5486 -0.2363
  758MOL0     C99990   5.435   1.964   2.426 -0.8220  1.0613  0.3862
  758MOL0     H99991   5.140   1.613   2.743  1.3598  0.1662  2.1391
  758MOL0     H99992   4.917   1.511   2.776 -2.4044  0.1860  0.9630
  758MOL0     H99993   4.713   1.469   2.881 -0.1373  2.0148  2.3857
  758MOL0     H99994   4.695   1.459   2.713 -1.4057 -0.1392  0.6156
  758MOL0     H99995   4.454   1.517   2.903 -1.2745 -2.0524 -0.1171
  758MOL0     H99996   4.512   1.365   2.841  0.1208  0.1576  0.6337
  758MOL0     H99997   4.468   1.431   2.611 -1.9753 -0.7570 -0.4952
  758MOL0     H99998   4.415   1.590   2.663 -0.7023 -1.4112 -0.7091
  758MOL0     H99999   4.281   1.326   2.731 -0.0269 -0.0022  1.0849
  758MOL0     H    0   4.238   1.472   2.797  0.3764  1.1973 -0.7825
  758MOL0     H    1   4.183   1.567   2.573  3.3153  1.5120  1.8102
  758MOL0     H    2   4.092   1.418   2.595 -0.2603  1.0979  1.0473
  758MOL0     H    3   4.186   1.323   2.410  0.2192 -0.9324  1.3837
  758MOL0     H    4   4.346   1.333   2.473  1.9824  2.0363 -0.6245
  758MOL0     H    5   4.205   1.544   2.323  0.6432 -0.7843 -0.4805
  758MOL0     H    6   4.386   1.545   2.370  2.4172 -0.4146 -3.0384
  758MOL0     H    7   4.225   1.357   2.184 -1.2131  0.7580  0.9440
  758MOL0     H    8   4.405   1.344   2.218  1.7367  1.9976 -0.0971
  758MOL0     H    9   4.213   1.452   1.951  0.6307  0.2691 -2.2433
  758MOL0     H   10   4.287   1.565   1.705 -0.8072  1.5109 -1.2494
  758MOL0     H   11   4.434   1.663   1.712  1.3900 -0.0582  0.5213
  758MOL0     H   12   4.317   1.841   1.819 -1.0621  1.4318  0.9352
  758MOL0     H   13   4.163   1.744   1.833 -0.8828  3.0051 -0.5247
  758MOL0     H   14   4.277   1.791   1.555 -0.1085  2.6909 -0.3467
  758MOL0     H   15   4.115   1.748   1.601  0.2408  1.0259 -5.2830
  758MOL0     H   16   4.108   1.975   1.538  0.1136  1.9417  1.2275
  758MOL0     H   17   4.234   2.015   1.649  0.7050  1.1438  0.1209
  758MOL0     H   18   3.905   2.033   1.923 -0.0767  0.1110  0.2154
  758MOL0     H   19   3.672   1.981   1.960  0.0741  1.2862 -1.2278
  758MOL0     H   20   3.295   2.015   2.001 -1.9788  1.1219 -0.3557
  758MOL0     H   21   3.037   1.952   2.051 -1.2922 -1.5065  1.8155
  758MOL0     H   22   2.849   1.818   1.933  0.6648 -0.7954 -0.8680
  758MOL0     H   23   2.841   1.876   2.099  0.3340 -0.8150  0.0582
  758MOL0     H   24   2.731   1.622   2.125  2.6490  2.0030 -1.3783
  758MOL0     H   25   2.684   1.663   1.966  1.8511  1.2687 -1.6969
  758MOL0     H   26   2.563   1.869   2.072  1.9547 -0.3015 -1.1408
  758MOL0     H   27   2.624   1.814   2.230 -0.7785 -0.5268  0.1985
  758MOL0     H   28   2.460   1.634   2.055  3.1531 -0.4253 -0.2659
  758MOL0     H   29   2.476   1.616   2.227 -0.6870 -3.0220 -1.9330
  758MOL0     H   30   2.347   1.850   2.085  3.3575  0.0455  0.4072
  758MOL0     H   31   2.354   1.823   2.267 -2.8008 -0.9649  1.1604
  758MOL0     H   32   2.225   1.613   2.236  2.7482 -0.8330 -0.4865
  758MOL0     H   33   2.216   1.633   2.057 -0.2276 -0.9836  0.9513
  758MOL0     H   34   2.086   1.805   2.273  0.4238 -0.0135  0.3630
  758MOL0     H   35   2.100   1.842   2.095  1.7250 -0.4548 -0.7826
  758MOL0     H   36   1.952   1.666   2.038  2.3410 -0.2391 -0.0336
  758MOL0     H   37   1.878   1.766   2.171  1.5051  2.7773 -0.8734
  758MOL0     H   38   3.140   1.543   1.978 -2.2663  0.2904  0.0207
  758MOL0     H   39   3.375   1.605   1.962 -1.0744 -0.3159  1.0855
  758MOL0     H   40   3.666   1.776   1.580  1.4560  0.2147 -1.5771
  758MOL0     H   41   3.909   1.839   1.554  0.4534  0.1633  1.2833
  758MOL0     H   42   4.747   1.900   2.741 -2.2680 -1.2839 -2.6119
  758MOL0     H   43   4.977   2.001   2.686 -1.5469 -0.4556 -1.1785
  758MOL0     H   44   5.431   1.866   2.758 -1.8605  0.0390 -0.8568
  758MOL0     H   45   5.679   1.900   2.715  0.8910  1.6922 -1.4796
  758MOL0     H   46   5.860   1.941   2.316 -0.8735 -1.4795  0.9516
  758MOL0     H   47   5.984   1.981   2.445 -0.3429  0.8556  3.3712
  758MOL0     H   48   5.925   2.193   2.346  0.2238 -1.6353 -1.3016
  758MOL0     H   49   5.754   2.159   2.363 -0.3050  0.1843  0.8213
  758MOL0     H   50   5.759   2.188   2.601 -0.1920 -0.3351  0.6359
  758MOL0     H   51   5.826   2.329   2.512 -3.2351  0.2826  2.5711
  758MOL0     H   52   5.969   2.251   2.736 -1.9061  1.8176 -1.2667
  758MOL0     H   53   5.970   2.086   2.662  0.7449 -1.0162 -0.0257
  758MOL0     H   54   6.302   2.257   2.489 -0.8384 -1.4764 -1.5994
  758MOL0     H   55   5.599   1.991   2.307 -0.7218 -1.2654 -0.7995
  758MOL0     H   56   5.375   1.984   2.338 -1.5923 -0.6833  0.4924
  759MOL0     O   57  11.341   7.722   9.279  0.4421 -0.3472  0.7261
  759MOL0     C   58  11.342   7.846   9.304 -0.0438 -0.0708  0.6577
  759MOL0     O   59  11.451   7.922   9.312  0.7195 -1.1427  0.7988
  759MOL0     C   60  11.584   7.877   9.297  0.2530 -0.9223 -0.5362
  759MOL0     C   61  11.675   7.978   9.269 -0.3211 -0.1136  0.3755
  759MOL0     C   62  11.816   7.957   9.261  0.7663  0.5545 -0.2824
  759MOL0     C   63  11.864   7.829   9.253 -0.3500  0.0053  0.4548
  759MOL0     O   64  12.001   7.793   9.237 -0.0525  0.5984  0.2482
  759MOL0     C   65  12.087   7.894   9.288 -0.5353  0.1253 -1.0632
  759MOL0     C   66  12.221   7.819   9.302  0.1531 -0.0341 -0.4732
  759MOL0     C   67  12.322   7.914   9.354  0.3335 -0.2319  0.9546
  759MOL0     C   68  12.278   7.984   9.481  0.0632 -0.5148  0.1889
  759MOL0     C   69  12.398   8.043   9.550  0.5346 -0.7617 -0.1168
  759MOL0     C   70  12.367   8.131   9.668 -1.3553 -0.8055  0.1534
  759MOL0     C   71  12.491   8.163   9.752  0.6222 -0.0322 -0.5288
  759MOL0     C   72  12.473   8.252   9.878  0.2555  0.2647  0.6503
  759MOL0     N   73  12.460   8.398   9.851 -0.0978  0.1086 -0.6188
  759MOL0     C   74  12.339   8.471   9.840 -1.0622  0.4429 -0.4018
  759MOL0     C   75  12.382   8.597   9.824  0.0740 -0.1445 -0.5610
  759MOL0     C   76  12.301   8.721   9.836 -0.6133  1.1129  0.0258
  759MOL0     C   77  12.326   8.827   9.726  0.2918 -0.1801 -0.4553
  759MOL0     C   78  12.245   8.949   9.744  0.4668 -0.0175 -0.3439
  759MOL0     C   79  12.308   9.063   9.669  0.0588  0.1466  0.5644
  759MOL0     O   80  12.216   9.170   9.645 -0.0936  0.4936  0.6663
  759MOL0     C   81  12.272   9.277   9.575 -0.1397  0.8212  0.4956
  759MOL0     C   82  12.413   9.302   9.552  0.7336  0.9297  0.3308
  759MOL0     C   83  12.447   9.420   9.486 -0.5754  0.2310 -0.6676
  759MOL0     C   84  12.354   9.513   9.442 -0.0780  0.1801 -0.0532
  759MOL0     C   85  12.393   9.642   9.382 -0.1634 -0.8577  0.5512
  759MOL0     O   86  12.291   9.720   9.338  0.6653 -1.0088  0.6756
  759MOL0     C   87  12.298   9.857   9.336 -0.6291  0.2601 -0.0017
  759MOL0     C   88  12.379   9.935   9.418 -0.0086 -1.2782 -0.9143
  759MOL0     C   89  12.393  10.076   9.396  0.4071  0.2056  0.3487
  759MOL0     C   90  12.323  10.139   9.287 -0.2718  0.5842 -0.1213
  759MOL0     O   91  12.333  10.270   9.256  0.2548  0.3474 -0.1347
  759MOL0     C   92  12.341  10.366   9.365  0.1678  0.2043  0.9242
  759MOL0     C   93  12.305  10.504   9.308  0.3387 -0.2002 -1.0669
  759MOL0     C   94  12.369  10.620   9.393  0.4378 -0.3415 -0.1020
  759MOL0     C   95  12.476  10.705   9.320 -0.6112 -0.1192  0.8669
  759MOL0     C   96  12.602  10.627   9.317 -1.1876  0.1184  1.3086
  759MOL0     C   97  12.727  10.717   9.300  0.7201  0.1704  0.8544
  759MOL0     C   98  12.771  10.797   9.421  0.5680  0.2892  0.9859
  759MOL0     C   99  12.870  10.910   9.401 -0.5724 -0.3294  0.3208
  759MOL0    Cl  100  13.022  10.846   9.324  0.2935  0.1066 -0.2353
  759MOL0     C  101  12.255  10.055   9.199 -0.1178 -0.0092 -0.0878
  759MOL0     C  102  12.233   9.920   9.226 -0.4837 -0.5810  0.2332
  759MOL0     O  103  12.517   9.663   9.367 -0.0521  0.5171  0.3261
  759MOL0     C  104  12.215   9.484   9.461 -0.0911  0.3828  0.2152
  759MOL0     C  105  12.176   9.374   9.530 -0.9257 -0.3454  0.6978
  759MOL0     N  106  12.522   8.600   9.817 -0.4671 -0.2149  0.1127
  759MOL0     N  107  12.566   8.484   9.840 -0.9118 -0.6135 -0.4613
  759MOL0     C  108  11.771   7.723   9.289  1.3316 -0.2072  0.8217
  759MOL0     C  109  11.629   7.749   9.295 -0.3654  0.5683 -0.0359
  759MOL0     C  110  11.210   7.911   9.299 -0.2493 -1.1766  0.1819
  759MOL0     C  111  11.085   7.835   9.311 -0.0660  0.0458 -0.1899
  759MOL0     C  112  10.960   7.901   9.309 -0.2026 -0.0948  1.4242
  759MOL0     C  113  10.954   8.039   9.294  0.0703 -0.1534 -0.2284
  759MOL0     O  114  10.844   8.104   9.306  0.0492 -0.6061 -0.0510
  759MOL0     C  115  10.730   8.081   9.221 -0.1358 -0.0462 -0.4457
  759MOL0     C  116  10.759   8.076   9.073 -0.5803 -0.4388 -0.5835
  759MOL0     C  117  10.636   8.060   8.980 -0.3803  0.6140  0.0724
  759MOL0     C  118  10.595   8.200   8.917  0.1234 -0.6153  0.3229
  759MOL0     C  119  10.536   8.291   9.012  0.0401  0.3831  0.5286
  759MOL0     C  120  10.477   8.379   9.072  0.0489  0.2017  0.4325
  759MOL0     C  121  11.072   8.110   9.297  1.0342 -0.6507  0.7114
  759MOL0     C  122  11.202   8.053   9.300  0.3077  0.5590 -0.0052
  759MOL0     H  123  11.659   8.085   9.274  1.8636  0.2264  1.3108
  759MOL0     H  124  11.872   8.049   9.245 -1.2421  1.8984 -0.0050
  759MOL0     H  125  12.050   7.931   9.384  0.8495 -0.1224 -0.3990
  759MOL0     H  126  12.100   7.977   9.218  0.0841  1.8983  1.0457
  759MOL0     H  127  12.251   7.793   9.201  3.0742  0.4259  0.1959
  759MOL0     H  128  12.205   7.731   9.365  0.7389  1.5917  2.1247
  759MOL0     H  129  12.347   7.986   9.275  2.6376 -2.9268 -1.0229
  759MOL0     H  130  12.415   7.865   9.385 -0.6482 -1.2892  2.3671
  759MOL0     H  131  12.210   8.068   9.467  0.1052 -0.1297  2.0991
  759MOL0     H  132  12.240   7.917   9.558  1.9842  1.1866  2.7979
  759MOL0     H  133  12.457   8.094   9.475 -0.4899 -1.4369 -1.4191
  759MOL0     H  134  12.459   7.964   9.595  0.7791  0.5989  2.1326
  759MOL0     H  135  12.299   8.082   9.738 -0.7924  1.7564  2.6926
  759MOL0     H  136  12.320   8.221   9.627  1.6293  0.0831 -1.5601
  759MOL0     H  137  12.530   8.066   9.782 -2.0853 -1.4829 -1.3973
  759MOL0     H  138  12.562   8.208   9.682 -0.8968 -1.5541 -3.1968
  759MOL0     H  139  12.563   8.242   9.939  1.3055  1.2541 -0.6833
  759MOL0     H  140  12.383   8.229   9.935  0.1197  1.4330  0.9483
  759MOL0     H  141  12.237   8.436   9.852 -1.2299  0.9551 -0.3020
  759MOL0     H  142  12.321   8.754   9.939 -2.3276  1.7632  0.1736
  759MOL0     H  143  12.193   8.709   9.843 -0.8502  3.5100  1.5042
  759MOL0     H  144  12.320   8.784   9.626 -0.8603  2.1587 -1.4729
  759MOL0     H  145  12.426   8.870   9.740 -0.2913  0.9308  0.4976
  759MOL0     H  146  12.152   8.930   9.690  0.7816  2.4090 -1.8694
  759MOL0     H  147  12.233   8.981   9.848  0.2982  1.6958 -0.8760
  759MOL0     H  148  12.345   9.039   9.569 -0.1268  0.4081  0.4318
  759MOL0     H  149  12.397   9.096   9.722 -0.2013  0.5414  0.7590
  759MOL0     H  150  12.490   9.238   9.593  0.0505  1.2946  2.3049
  759MOL0     H  151  12.555   9.428   9.474 -0.6950  0.8971 -1.3643
  759MOL0     H  152  12.434   9.890   9.500 -2.9155  0.3822  2.1923
  759MOL0     H  153  12.446  10.134   9.471  1.6297 -1.8726  1.1787
  759MOL0     H  154  12.447  10.362   9.392  1.8647  0.9801 -4.5372
  759MOL0     H  155  12.276  10.346   9.451  0.8425 -0.3166  1.3172
  759MOL0     H  156  12.196  10.508   9.313  0.3203 -0.0906 -1.5745
  759MOL0     H  157  12.347  10.514   9.208  2.0991  2.2144 -0.2013
  759MOL0     H  158  12.413  10.583   9.486  0.2274 -1.3129 -0.3675
  759MOL0     H  159  12.286  10.690   9.403  3.1700  4.0447 -4.0575
  759MOL0     H  160  12.445  10.739   9.221 -0.5790 -3.6857 -0.4849
  759MOL0     H  161  12.481  10.802   9.371  1.1981  0.2955 -0.0234
  759MOL0     H  162  12.600  10.555   9.235  0.7492  1.8008 -0.3396
  759MOL0     H  163  12.619  10.582   9.416  0.0931 -1.7982  0.2830
  759MOL0     H  164  12.710  10.785   9.217  2.2163 -1.5684 -0.9921
  759MOL0     H  165  12.812  10.652   9.276  1.1883  0.5959  1.3294
  759MOL0     H  166  12.687  10.843   9.474 -0.1510  0.2509 -0.0726
  759MOL0     H  167  12.817  10.723   9.487  2.5110 -0.0642 -0.6633
  759MOL0     H  168  12.901  10.961   9.493  0.3404  1.8344 -1.1036
  759MOL0     H  169  12.816  10.988   9.346  0.9052  1.0095  0.6935
  759MOL0     H  170  12.218  10.098   9.106  1.3783 -1.0453 -1.2177
  759MOL0     H  171  12.188   9.858   9.150  0.1332  1.9959 -2.4036
  759MOL0     H  172  12.148   9.557   9.417  0.1825 -0.6121 -1.9609
  759MOL0     H  173  12.071   9.350   9.543 -0.7256 -0.5419  2.0848
  759MOL0     H  174  11.799   7.619   9.279  1.8304  0.1425 -3.2490
  759MOL0     H  175  11.571   7.659   9.310 -0.2233  0.2991 -1.0001
  759MOL0     H  176  11.085   7.727   9.327 -2.0495  0.3180  2.4610
  759MOL0     H  177  10.871   7.841   9.327 -1.3930  0.4816 -1.9435
  759MOL0     H  178  10.670   8.171   9.235 -1.8151 -1.3508  1.1029
  759MOL0     H  179  10.673   7.994   9.254  0.1399  0.3233  1.0632
  759MOL0     H  180  10.809   8.173   9.059  0.9785 -1.1554 -0.2077
  759MOL0     H  181  10.815   7.985   9.051 -3.0511 -1.7690 -1.7697
  759MOL0     H  182  10.554   8.025   9.044  0.4576  0.9606  1.3758
  759MOL0     H  183  10.665   7.997   8.895 -0.6894  2.6358 -1.6122
  759MOL0     H  184  10.674   8.254   8.866 -0.7215  0.7562  0.4079
  759MOL0     H  185  10.512   8.181   8.849  1.9028 -3.6657 -1.2090
  759MOL0     H  186  10.426   8.460   9.119 -1.2263  0.2408 -0.9363
  759MOL0     H  187  11.052   8.216   9.310 -3.1790 -1.4755  2.6130
  759MOL0     H  188  11.293   8.111   9.308  1.1314 -0.2456 -2.5288
  760MOL0     O  189   9.959   0.405   8.458 -0.0565  0.2025  0.3274
  760MOL0     C  190   9.977   0.289   8.503 -0.5101 -0.3282 -0.5174
  760MOL0     O  191   9.878   0.193   8.505  0.3373 -0.1471 -0.0711
  760MOL0     C  192   9.740   0.224   8.511 -0.1552 -0.1382  0.2450
  760MOL0     C  193   9.686   0.354   8.537  0.2517  0.0501 -0.6306
  760MOL0     C  194   9.555   0.396   8.517 -0.8404 -0.2324  0.6449
  760MOL0     C  195   9.473   0.301   8.470 -0.0559 -0.3751  0.3206
  760MOL0     O  196   9.333   0.331   8.474  0.2101  0.2480  0.5848
  760MOL0     C  197   9.244   0.218   8.449 -0.4746  1.0381 -0.6862
  760MOL0     C  198   9.101   0.274   8.488 -0.3539 -0.2310  0.1207
  760MOL0     C  199   8.994   0.169   8.505  0.5352  0.4440 -0.9646
  760MOL0     C  200   8.858   0.254   8.524  0.3369  1.2728 -1.2291
  760MOL0     C  201   8.726   0.180   8.520 -0.3195  0.0371  0.7544
  760MOL0     C  202   8.724   0.038   8.581 -0.4167  0.5664 -0.3362
  760MOL0     C  203   8.750   0.038   8.737 -0.1793  0.2152 -0.3795
  760MOL0     C  204   8.637   0.104   8.818  0.9754 -0.3650 -1.0738
  760MOL0     N  205   8.638   0.067   8.960 -0.0383 -0.3121  0.2599
  760MOL0     C  206   8.636  -0.062   9.005 -0.6166  0.0581 -0.5369
  760MOL0     C  207   8.678  -0.054   9.135 -0.3617 -1.0770 -0.4552
  760MOL0     C  208   8.682  -0.176   9.220 -1.1010  0.2303 -0.8342
  760MOL0     C  209   8.544  -0.223   9.256 -0.1776 -0.1469 -0.2917
  760MOL0     C  210   8.551  -0.364   9.313  0.1890 -0.3188  0.0629
  760MOL0     C  211   8.400  -0.402   9.370  0.5417 -0.1479 -0.3515
  760MOL0     O  212   8.405  -0.519   9.444  0.4071  0.4983  0.0329
  760MOL0     C  213   8.278  -0.567   9.470 -0.2331  0.0178  0.3872
  760MOL0     C  214   8.277  -0.697   9.523  0.5038 -0.4929 -0.6078
  760MOL0     C  215   8.168  -0.766   9.538 -0.6567 -0.4140  0.2024
  760MOL0     C  216   8.042  -0.710   9.516 -0.0551  0.5436 -0.9386
  760MOL0     C  217   7.921  -0.791   9.546  0.6170  0.2520 -0.2278
  760MOL0     O  218   7.797  -0.736   9.519 -0.2636 -0.3225  0.1606
  760MOL0     C  219   7.688  -0.801   9.554 -0.0781  0.7732 -0.2974
  760MOL0     C  220   7.646  -0.804   9.691  0.5077  0.2747  0.1233
  760MOL0     C  221   7.539  -0.874   9.732 -0.1890  0.1126 -0.3079
  760MOL0     C  222   7.472  -0.963   9.647 -0.3213  0.4111 -0.0158
  760MOL0     O  223   7.371  -1.040   9.692  1.1845 -0.4561 -0.2960
  760MOL0     C  224   7.354  -1.066   9.836  0.5057  0.1038 -0.5312
  760MOL0     C  225   7.261  -1.179   9.892  0.0976 -0.8548 -0.8266
  760MOL0     C  226   7.122  -1.151   9.841  0.6978  0.5418 -0.8151
  760MOL0     C  227   7.023  -1.210   9.945  0.5877 -0.1509  1.0009
  760MOL0     C  228   6.899  -1.256   9.875  0.6439 -0.6208 -0.7104
  760MOL0     C  229   6.796  -1.296   9.978  0.4542  0.2631  0.3940
  760MOL0     C  230   6.686  -1.383   9.908 -0.0135  0.3390 -0.6582
  760MOL0     C  231   6.630  -1.488  10.004  0.0494  0.5813  0.2950
  760MOL0    Cl  232   6.526  -1.416  10.115 -0.4214 -0.2493 -0.7422
  760MOL0     C  233   7.527  -0.985   9.524  1.2295 -0.9147  0.4110
  760MOL0     C  234   7.630  -0.900   9.471  0.0685  1.2600  0.3284
  760MOL0     O  235   7.943  -0.905   9.592 -0.1824 -0.0156 -0.4879
  760MOL0     C  236   8.035  -0.569   9.478 -0.4974  0.0222  0.1442
  760MOL0     C  237   8.153  -0.501   9.448  0.6003 -0.1694  0.5363
  760MOL0     N  238   8.688   0.077   9.171  0.3562  0.4577  0.3580
  760MOL0     N  239   8.662   0.148   9.068 -0.2955  0.5516  0.1301
  760MOL0     C  240   9.523   0.162   8.443  1.3856 -0.5381 -0.3237
  760MOL0     C  241   9.659   0.130   8.458  0.4479  0.1950 -0.3086
  760MOL0     C  242  10.119   0.252   8.538 -0.0779 -0.0397  0.3217
  760MOL0     C  243  10.152   0.113   8.580  0.9036  0.2775  0.1869
  760MOL0     C  244  10.284   0.085   8.600 -0.5940  0.7044 -0.2539
  760MOL0     C  245  10.382   0.187   8.598  0.1418  0.8175 -0.5175
  760MOL0     O  246  10.507   0.155   8.638  0.1190  0.1645 -0.4177
  760MOL0     C  247  10.502   0.154   8.785  0.0583  0.5328 -0.0876
  760MOL0     C  248  10.646   0.115   8.838  0.5637 -0.6337 -0.4295
  760MOL0     C  249  10.642   0.094   8.991  0.0461  0.2537 -0.0775
  760MOL0     C  250  10.635   0.230   9.072  0.6298  0.3383  0.5462
  760MOL0     C  251  10.756   0.312   9.065 -0.0628 -0.0474  0.1348
  760MOL0     C  252  10.858   0.376   9.059 -0.0404 -0.5696  0.5086
  760MOL0     C  253  10.347   0.316   8.564 -0.7182 -0.2779  0.2097
  760MOL0     C  254  10.218   0.347   8.534  0.1648 -0.1147  0.3892
  760MOL0     H  255   9.743   0.430   8.588  1.0371 -1.9153  1.6150
  760MOL0     H  256   9.520   0.482   8.573  1.2545  0.6531  0.6729
  760MOL0     H  257   9.267   0.138   8.520 -1.9278  1.1748 -0.0149
  760MOL0     H  258   9.245   0.185   8.345 -3.5348 -0.2520 -0.4353
  760MOL0     H  259   9.082   0.367   8.435 -0.4321  1.3700  2.7603
  760MOL0     H  260   9.108   0.318   8.588  1.7004 -1.1674  0.4486
  760MOL0     H  261   9.016   0.103   8.589  0.5960  0.5660 -0.8839
  760MOL0     H  262   8.994   0.122   8.406 -0.8765 -0.0579 -0.7521
  760MOL0     H  263   8.865   0.304   8.621 -0.6409 -1.3062  0.2764
  760MOL0     H  264   8.840   0.326   8.443 -0.8808  3.0640  0.5268
  760MOL0     H  265   8.696   0.174   8.415 -0.2122  1.5967  0.6136
  760MOL0     H  266   8.654   0.247   8.568 -0.4045  0.6883 -0.2497
  760MOL0     H  267   8.804  -0.019   8.534  2.7827  1.8967  2.9444
  760MOL0     H  268   8.629  -0.015   8.572  0.1019 -0.0155 -3.9235
  760MOL0     H  269   8.748  -0.067   8.769  2.1393  0.8998  2.4673
  760MOL0     H  270   8.849   0.081   8.758  0.8064 -1.3126 -1.6678
  760MOL0     H  271   8.541   0.065   8.783 -1.3231 -1.2399  4.9613
  760MOL0     H  272   8.631   0.213   8.805 -2.5263 -0.4476 -1.0201
  760MOL0     H  273   8.611  -0.154   8.954  0.5282 -0.4360 -0.2398
  760MOL0     H  274   8.737  -0.147   9.310 -0.1560  3.9839 -2.4203
  760MOL0     H  275   8.731  -0.253   9.161 -0.0605 -1.7856  2.4006
  760MOL0     H  276   8.476  -0.229   9.171 -0.0020  1.5923 -0.5765
  760MOL0     H  277   8.496  -0.167   9.336 -1.5425 -1.9726  0.2352
  760MOL0     H  278   8.584  -0.440   9.242  0.9921  1.6790 -1.8079
  760MOL0     H  279   8.606  -0.354   9.407 -2.2652 -0.5612  1.6342
  760MOL0     H  280   8.339  -0.417   9.280  0.2661 -2.0543  0.1067
  760MOL0     H  281   8.360  -0.321   9.432  2.3990 -0.6609  1.6158
  760MOL0     H  282   8.373  -0.745   9.535  0.1613 -0.9759  0.2604
  760MOL0     H  283   8.166  -0.867   9.578 -1.0624 -0.8942 -0.9743
  760MOL0     H  284   7.690  -0.734   9.760 -0.6543 -0.0386  1.2224
  760MOL0     H  285   7.516  -0.863   9.838 -1.3661 -0.9496 -0.4329
  760MOL0     H  286   7.320  -0.971   9.878  0.2140 -0.1156 -0.2604
  760MOL0     H  287   7.448  -1.082   9.889  0.2448  0.3648  0.0143
  760MOL0     H  288   7.255  -1.174  10.001  1.6207 -1.8617 -0.6756
  760MOL0     H  289   7.291  -1.282   9.872  4.2435 -0.1169  0.7117
  760MOL0     H  290   7.100  -1.205   9.748 -2.0956  1.1858 -0.6068
  760MOL0     H  291   7.103  -1.046   9.819 -0.7333  0.7606  1.2135
  760MOL0     H  292   7.077  -1.293   9.992  1.9543 -0.7382 -1.4244
  760MOL0     H  293   6.992  -1.133  10.017 -0.9116 -1.1196  1.4347
  760MOL0     H  294   6.924  -1.326   9.795  0.5137  1.0080 -2.2380
  760MOL0     H  295   6.846  -1.170   9.833 -0.4175 -1.1023 -0.3897
  760MOL0     H  296   6.739  -1.211  10.016  1.2847  0.6341  0.8355
  760MOL0     H  297   6.841  -1.356  10.059 -0.7055 -1.1831  0.0137
  760MOL0     H  298   6.604  -1.316   9.877 -3.9050 -2.2464  2.9180
  760MOL0     H  299   6.731  -1.439   9.826  4.0488 -0.0764  1.5836
  760MOL0     H  300   6.709  -1.559  10.032 -1.1812 -1.4438 -1.1134
  760MOL0     H  301   6.563  -1.549   9.943  0.4313 -0.7854  1.1852
  760MOL0     H  302   7.485  -1.056   9.454  0.3234  0.8138 -0.8821
  760MOL0     H  303   7.680  -0.913   9.376 -0.0939 -1.5322  0.5490
  760MOL0     H  304   7.936  -0.528   9.462  0.1497  1.7265  0.2988
  760MOL0     H  305   8.156  -0.399   9.409 -1.1259 -0.1560  0.3539
  760MOL0     H  306   9.452   0.091   8.400 -1.0122  0.3494  1.9255
  760MOL0     H  307   9.691   0.034   8.419 -0.2843  0.2874 -1.1667
  760MOL0     H  308  10.086   0.027   8.585  2.9632 -1.3245  1.2603
  760MOL0     H  309  10.324  -0.016   8.610  1.6865  1.3537 -2.0293
  760MOL0     H  310  10.441   0.072   8.824 -0.2139  1.2762  1.1051
  760MOL0     H  311  10.474   0.248   8.832  2.5494  0.5093  1.6800
  760MOL0     H  312  10.678   0.021   8.791  1.3402 -0.9795  0.7582
  760MOL0     H  313  10.713   0.199   8.819  0.5179 -0.3887  0.4675
  760MOL0     H  314  10.736   0.051   9.029  0.1489  0.9234  0.4303
  760MOL0     H  315  10.560   0.024   9.012  1.2235 -0.6232  1.9729
  760MOL0     H  316  10.547   0.289   9.045  1.3356  0.8071 -0.8153
  760MOL0     H  317  10.619   0.200   9.176 -0.3447 -2.9761 -0.4362
  760MOL0     H  318  10.945   0.437   9.056 -0.8720  0.6159 -0.6721
  760MOL0     H  319  10.432   0.383   8.559 -0.4542 -0.5403  1.0755
  760MOL0     H  320  10.202   0.453   8.515  0.5391 -0.2857 -1.0690
  761MOL0     O  321   8.843  10.439   5.184  0.3549  0.3003  0.8334
  761MOL0     C  322   8.879  10.552   5.172  1.3741  0.0785  0.7466
  761MOL0     O  323   8.789  10.649   5.152  0.3482  0.3055 -0.9461
  761MOL0     C  324   8.672  10.605   5.111 -0.4797  0.3805 -0.0832
  761MOL0     C  325   8.564  10.600   5.199  0.0177 -0.4467 -0.1901
  761MOL0     C  326   8.436  10.559   5.151 -0.3570 -1.3457 -1.2173
  761MOL0     C  327   8.415  10.518   5.015  0.0557 -0.9148  0.2788
  761MOL0     O  328   8.306  10.483   4.947  0.9290 -0.0270  0.3923
  761MOL0     C  329   8.176  10.513   4.988  0.2083 -0.3629 -0.4158
  761MOL0     C  330   8.141  10.646   4.921 -0.0874  0.9000  0.4717
  761MOL0     C  331   8.010  10.699   4.982 -1.2758  0.6264 -0.9366
  761MOL0     C  332   7.882  10.621   4.960  0.1317 -0.3685  0.0598
  761MOL0     C  333   7.750  10.699   4.992  0.5069 -0.0611 -0.2419
  761MOL0     C  334   7.625  10.623   4.960  0.8531  0.2531  0.3913
  761MOL0     C  335   7.501  10.693   5.032 -0.5750  0.1392  0.0633
  761MOL0     C  336   7.370  10.644   4.960 -0.0169 -0.3831  0.1593
  761MOL0     N  337   7.250  10.701   5.021 -0.2743  0.4705 -0.4983
  761MOL0     C  338   7.137  10.633   5.035  0.6918  0.3267 -0.7746
  761MOL0     C  339   7.039  10.722   5.068  0.5975 -0.1877 -0.2968
  761MOL0     C  340   6.889  10.699   5.099 -0.0891  0.4396  0.6902
  761MOL0     C  341   6.814  10.647   4.979 -0.5939  0.1284  0.5390
  761MOL0     C  342   6.663  10.668   4.999 -0.4974 -0.4013  0.8082
  761MOL0     C  343   6.590  10.577   4.915 -1.0531  0.5070  0.9969
  761MOL0     O  344   6.458  10.624   4.908 -0.4318 -0.3704 -0.4944
  761MOL0     C  345   6.377  10.557   4.826 -0.7388 -1.1200  0.1433
  761MOL0     C  346   6.406  10.432   4.765 -0.6791 -0.8233 -0.0611
  761MOL0     C  347   6.320  10.377   4.671  0.2052  1.2454 -1.2139
  761MOL0     C  348   6.190  10.433   4.650 -0.2032  0.2347  0.0958
  761MOL0     C  349   6.099  10.358   4.568  0.2465  0.3064  1.1074
  761MOL0     O  350   5.970  10.385   4.595  0.5353  0.0773  1.2476
  761MOL0     C  351   5.877  10.312   4.523  0.3581 -0.0077 -0.4808
  761MOL0     C  352   5.797  10.221   4.589 -0.3524 -0.6740  0.0020
  761MOL0     C  353   5.709  10.139   4.523  0.2813  0.2724  0.4536
  761MOL0     C  354   5.679  10.156   4.382  0.7488 -0.0523 -0.1957
  761MOL0     O  355   5.601  10.065   4.308 -0.3145  0.1038  0.0303
  761MOL0     C  356   5.565  10.102   4.176 -0.2673  0.5759 -0.5361
  761MOL0     C  357   5.444  10.195   4.159 -0.0046  1.0059 -0.5352
  761MOL0     C  358   5.320  10.131   4.232 -0.1941 -0.1982 -0.0154
  761MOL0     C  359   5.198  10.223   4.190  0.3920 -0.2128  0.2985
  761MOL0     C  360   5.069  10.198   4.275  0.0757  0.3009  0.2743
  761MOL0     C  361   4.975  10.320   4.284  0.1177  0.3388  0.5624
  761MOL0     C  362   5.022  10.430   4.383  0.0657 -0.4540  0.7088
  761MOL0     C  363   4.900  10.517   4.424 -0.6166 -0.4111  0.6893
  761MOL0    Cl  364   4.794  10.444   4.535  0.3635  0.5483 -0.4688
  761MOL0     C  365   5.758  10.259   4.319  0.4491 -1.4245  0.7569
  761MOL0     C  366   5.845  10.335   4.392  1.4679 -0.8122  0.0613
  761MOL0     O  367   6.142  10.270   4.491  0.4162  0.7785  0.1915
  761MOL0     C  368   6.157  10.549   4.716  0.1045  0.4452 -0.8947
  761MOL0     C  369   6.251  10.619   4.793  0.6118 -0.4535 -0.7064
  761MOL0     N  370   7.090  10.847   5.065 -0.3937 -0.2822 -0.2710
  761MOL0     N  371   7.215  10.841   5.043 -0.8263  0.3389 -0.8585
  761MOL0     C  372   8.527  10.520   4.929 -0.6862  0.3547 -0.7203
  761MOL0     C  373   8.658  10.556   4.981  0.2246  0.5806  0.5723
  761MOL0     C  374   9.023  10.594   5.160 -0.3886 -0.0957  1.4315
  761MOL0     C  375   9.060  10.734   5.159 -0.8029  0.6290  0.2694
  761MOL0     C  376   9.195  10.767   5.136  0.3158  0.0301 -0.5849
  761MOL0     C  377   9.298  10.670   5.141  0.3519 -0.4626  0.0249
  761MOL0     O  378   9.430  10.704   5.146  0.5227 -0.4094 -0.5109
  761MOL0     C  379   9.477  10.822   5.198  0.1614 -0.3391  0.0869
  761MOL0     C  380   9.521  10.928   5.088  0.0478 -0.1011 -0.3973
  761MOL0     C  381   9.617  10.883   4.975  0.1219  0.0200  0.4628
  761MOL0     C  382   9.644  10.990   4.865  0.2709 -0.4134 -1.0677
  761MOL0     C  383   9.706  11.111   4.923 -0.6610 -1.0520 -0.3693
  761MOL0     C  384   9.756  11.213   4.957 -0.6284 -0.1565 -0.1144
  761MOL0     C  385   9.259  10.535   5.127 -0.5728 -0.1627 -0.4207
  761MOL0     C  386   9.123  10.497   5.140 -0.0424  0.4308 -0.0846
  761MOL0     H  387   8.577  10.631   5.302  3.7680 -0.1195 -0.6304
  761MOL0     H  388   8.355  10.567   5.222  1.5221 -0.8331  0.9870
  761MOL0     H  389   8.178  10.518   5.097 -4.1990  0.2360 -0.1876
  761MOL0     H  390   8.105  10.433   4.964  2.8869 -2.7267 -0.9842
  761MOL0     H  391   8.120  10.621   4.816 -1.1773 -0.5889  1.0158
  761MOL0     H  392   8.217  10.724   4.932 -0.9665  2.1640 -1.7393
  761MOL0     H  393   7.987  10.801   4.947 -2.2462  1.8038  2.6914
  761MOL0     H  394   8.030  10.712   5.089  0.3351 -0.3326 -1.0856
  761MOL0     H  395   7.878  10.595   4.854  0.9717 -2.0363  0.4036
  761MOL0     H  396   7.883  10.527   5.015  1.5960  0.8821  2.3233
  761MOL0     H  397   7.754  10.789   4.931  1.8497 -0.7506 -1.2128
  761MOL0     H  398   7.739  10.718   5.099 -2.3296 -1.1147 -0.2555
  761MOL0     H  399   7.639  10.520   4.995  0.1559 -0.0032 -0.0573
  761MOL0     H  400   7.616  10.624   4.851 -1.3132 -0.5073  0.5121
  761MOL0     H  401   7.502  10.681   5.141 -1.7183  1.0907  0.2002
  761MOL0     H  402   7.515  10.800   5.017 -0.0972  0.3840  1.9603
  761MOL0     H  403   7.351  10.536   4.961  1.9303 -0.8150 -1.4796
  761MOL0     H  404   7.367  10.675   4.855 -1.3186  0.5924  0.4631
  761MOL0     H  405   7.120  10.526   5.032 -2.4898  0.6810  0.5458
  761MOL0     H  406   6.850  10.800   5.112 -2.1836 -0.0773 -0.9371
  761MOL0     H  407   6.860  10.642   5.188  2.0544 -3.2612 -0.7294
  761MOL0     H  408   6.828  10.540   4.963 -0.1094  0.3952 -1.0439
  761MOL0     H  409   6.842  10.698   4.886  3.3142 -0.9617  0.9400
  761MOL0     H  410   6.621  10.642   5.097  0.1739 -3.1807  0.4611
  761MOL0     H  411   6.651  10.773   4.974 -0.6886 -0.3820  0.9779
  761MOL0     H  412   6.582  10.480   4.964 -0.6488 -1.2199 -2.0887
  761MOL0     H  413   6.633  10.557   4.817 -0.4880  0.2602  1.2909
  761MOL0     H  414   6.496  10.384   4.803 -0.3278  1.6646  2.6481
  761MOL0     H  415   6.340  10.280   4.628 -1.7455  0.6955 -1.0017
  761MOL0     H  416   5.811  10.208   4.696 -2.8048 -1.7449  0.2516
  761MOL0     H  417   5.656  10.062   4.579 -0.4072  1.0476  0.8919
  761MOL0     H  418   5.541  10.004   4.132 -0.7082 -0.3040  1.5259
  761MOL0     H  419   5.644  10.143   4.112  1.3669  0.6768  1.4370
  761MOL0     H  420   5.425  10.215   4.053  1.4872 -1.2281 -1.2913
  761MOL0     H  421   5.478  10.290   4.201  2.0479 -0.1044  0.4639
  761MOL0     H  422   5.338  10.145   4.339  0.4946 -2.6423  0.2417
  761MOL0     H  423   5.308  10.023   4.219  2.0705 -0.4837 -0.1759
  761MOL0     H  424   5.216  10.326   4.224 -3.8739  1.7540 -2.4493
  761MOL0     H  425   5.180  10.222   4.082  1.2011  0.8727  0.1296
  761MOL0     H  426   5.099  10.158   4.372  0.6546 -0.5117 -0.2183
  761MOL0     H  427   5.009  10.120   4.227  1.9528  0.3631 -2.3839
  761MOL0     H  428   4.877  10.281   4.311  0.9462 -2.9079 -0.6123
  761MOL0     H  429   4.963  10.364   4.185  1.6139  1.9756  1.0458
  761MOL0     H  430   5.081  10.395   4.468  0.6565  0.2257  0.5891
  761MOL0     H  431   5.093  10.493   4.328  0.0029  1.0410  2.2890
  761MOL0     H  432   4.843  10.529   4.331 -0.3121 -1.0530  0.4080
  761MOL0     H  433   4.932  10.612   4.466  4.3467 -1.3497 -0.3556
  761MOL0     H  434   5.765  10.285   4.214  0.5057 -2.7400  0.4103
  761MOL0     H  435   5.897  10.420   4.348 -1.6589  0.8116 -0.8244
  761MOL0     H  436   6.061  10.598   4.702  0.5372  1.0253 -1.9774
  761MOL0     H  437   6.219  10.706   4.850  0.6808 -0.0458 -1.2804
  761MOL0     H  438   8.536  10.486   4.826  2.4180 -1.1271 -0.0706
  761MOL0     H  439   8.741  10.551   4.912  0.2239 -1.0946  0.6463
  761MOL0     H  440   8.979  10.805   5.170 -2.4771 -1.2128  0.2472
  761MOL0     H  441   9.223  10.872   5.135  2.7935 -0.5333  0.9657
  761MOL0     H  442   9.567  10.808   5.259  3.2475 -0.2549 -4.0678
  761MOL0     H  443   9.398  10.867   5.258  0.9201 -2.1252  2.6303
  761MOL0     H  444   9.435  10.962   5.030  0.9357  0.1169 -1.6175
  761MOL0     H  445   9.560  11.016   5.139 -0.9538 -0.5078  1.1567
  761MOL0     H  446   9.570  10.797   4.926 -1.2352  0.8391  0.2578
  761MOL0     H  447   9.712  10.852   5.018 -0.3675 -0.7658  1.0053
  761MOL0     H  448   9.724  10.944   4.806  2.2219  2.4668 -0.8762
  761MOL0     H  449   9.564  11.016   4.794 -0.2375  2.9466  0.5182
  761MOL0     H  450   9.799  11.303   4.996  1.8598 -1.7209  1.0169
  761MOL0     H  451   9.342  10.467   5.114 -0.2406  0.4534 -1.6869
  761MOL0     H  452   9.097  10.392   5.129  2.8296 -0.3461 -0.3284
  762MOL0     O  453   2.407   9.549   1.266 -0.5378  0.1399  0.3873
  762MOL0     C  454   2.297   9.522   1.213  0.5734  0.4848 -0.2526
  762MOL0     O  455   2.282   9.485   1.087 -0.1591  0.2422 -0.2541
  762MOL0     C  456   2.392   9.489   1.001  0.1118  0.2564 -0.5910
  762MOL0     C  457   2.448   9.618   0.971 -0.0241  0.2846 -0.0230
  762MOL0     C  458   2.548   9.639   0.877  0.5170  0.3532 -0.7989
  762MOL0     C  459   2.602   9.524   0.803  0.6711 -0.3723 -0.0513
  762MOL0     O  460   2.702   9.518   0.712  0.6399 -0.4661  0.6429
  762MOL0     C  461   2.786   9.635   0.723 -0.1638  0.5947  0.1760
  762MOL0     C  462   2.895   9.616   0.632 -1.0377  0.3683 -0.6691
  762MOL0     C  463   2.845   9.589   0.493 -0.1993  0.2888  0.0681
  762MOL0     C  464   2.947   9.634   0.388 -0.3402 -0.3836  0.0631
  762MOL0     C  465   2.912   9.594   0.246 -0.4126 -0.2502  0.4701
  762MOL0     C  466   2.815   9.699   0.187 -0.0087  0.1053 -0.6993
  762MOL0     C  467   2.722   9.629   0.084  0.2505  0.4268  0.1800
  762MOL0     C  468   2.794   9.594  -0.048  0.1263 -0.6013 -0.3930
  762MOL0     N  469   2.720   9.507  -0.131 -0.4727  0.4890 -0.2203
  762MOL0     C  470   2.590   9.515  -0.168  0.1349 -0.2270  0.5683
  762MOL0     C  471   2.578   9.417  -0.262  0.1261  0.2553  0.0241
  762MOL0     C  472   2.447   9.396  -0.339  0.0772  0.5066 -0.1188
  762MOL0     C  473   2.434   9.506  -0.454 -0.1183  0.0492 -0.1103
  762MOL0     C  474   2.303   9.490  -0.526 -0.1236 -0.6084  0.4598
  762MOL0     C  475   2.267   9.606  -0.618 -0.0182 -0.5635 -0.0711
  762MOL0     O  476   2.128   9.620  -0.641 -0.3560 -0.5427  0.6159
  762MOL0     C  477   2.054   9.671  -0.536 -0.0167 -0.6304 -0.4147
  762MOL0     C  478   2.108   9.716  -0.411  0.0597  1.0693 -0.2336
  762MOL0     C  479   2.030   9.773  -0.317  1.1974 -0.4248 -0.9214
  762MOL0     C  480   1.889   9.787  -0.330  0.7058  0.5918  0.2870
  762MOL0     C  481   1.799   9.832  -0.218 -1.3175 -0.3237  0.0315
  762MOL0     O  482   1.666   9.809  -0.233  0.0965  1.1610  0.3475
  762MOL0     C  483   1.585   9.805  -0.123 -0.1824 -0.3806  0.1872
  762MOL0     C  484   1.469   9.738  -0.147  0.1016 -0.2728  0.4305
  762MOL0     C  485   1.359   9.749  -0.058 -0.7976  0.0395 -0.4250
  762MOL0     C  486   1.366   9.821   0.058  0.0319 -0.4258 -0.3331
  762MOL0     O  487   1.257   9.804   0.135  0.0466  0.3268 -0.4439
  762MOL0     C  488   1.236   9.895   0.241  0.3700  0.6882 -0.3171
  762MOL0     C  489   1.100   9.858   0.302  1.1604  0.5288 -0.0451
  762MOL0     C  490   0.983   9.900   0.207  0.1265  0.4966  0.6154
  762MOL0     C  491   0.860   9.866   0.275  0.2503  0.3108 -0.0802
  762MOL0     C  492   0.744   9.891   0.172 -0.0295 -0.0821 -0.1132
  762MOL0     C  493   0.699  10.041   0.160 -0.2221 -0.4105 -0.3553
  762MOL0     C  494   0.553  10.052   0.110  0.6165  0.1046 -0.5116
  762MOL0     C  495   0.539  10.020  -0.041 -0.0059 -0.5442 -0.1621
  762MOL0    Cl  496   0.504   9.846  -0.045 -0.0635  0.4427 -0.0378
  762MOL0     C  497   1.485   9.882   0.093  0.4517 -0.3340  0.5067
  762MOL0     C  498   1.593   9.873   0.005 -0.2595 -0.2844  0.4970
  762MOL0     O  499   1.852   9.891  -0.122 -0.0301 -0.4107 -0.3807
  762MOL0     C  500   1.837   9.754  -0.458  0.2793 -1.1134 -0.1371
  762MOL0     C  501   1.914   9.695  -0.557  0.7156 -0.1337 -0.1072
  762MOL0     N  502   2.704   9.350  -0.270  0.2190  0.2592  0.1270
  762MOL0     N  503   2.787   9.405  -0.196 -0.2090  0.0764 -0.0776
  762MOL0     C  504   2.538   9.400   0.828  0.1430 -0.3332 -1.0848
  762MOL0     C  505   2.439   9.385   0.927 -0.5659  0.0740  0.0747
  762MOL0     C  506   2.187   9.519   1.316 -0.0450  0.3654 -0.5866
  762MOL0     C  507   2.214   9.516   1.456  0.0135  0.7414 -0.8440
  762MOL0     C  508   2.116   9.520   1.557  0.0876  0.7784  0.0198
  762MOL0     C  509   1.980   9.513   1.518 -0.8617 -0.8767  0.4774
  762MOL0     O  510   1.880   9.517   1.607  0.5471  0.0515  0.5284
  762MOL0     C  511   1.866   9.408   1.697 -0.3183 -0.8228 -0.3635
  762MOL0     C  512   1.832   9.278   1.634  0.1033 -0.0459 -0.2268
  762MOL0     C  513   1.698   9.279   1.566 -0.5841  0.1119  0.2204
  762MOL0     C  514   1.677   9.160   1.464 -0.3838 -0.1760 -0.3161
  762MOL0     C  515   1.700   9.035   1.535 -0.3809  0.3818 -0.8649
  762MOL0     C  516   1.701   8.933   1.599  0.5992 -0.5123 -0.3459
  762MOL0     C  517   1.945   9.516   1.379  0.1112 -0.4537 -1.1961
  762MOL0     C  518   2.044   9.526   1.282  0.6744  0.0415  0.4956
  762MOL0     H  519   2.415   9.704   1.029  2.3657  1.6087 -0.5036
  762MOL0     H  520   2.572   9.744   0.864 -1.9916  1.1148  0.2407
  762MOL0     H  521   2.819   9.668   0.822  0.2422  2.8068 -0.6449
  762MOL0     H  522   2.728   9.716   0.678 -0.2463  1.7243  2.1987
  762MOL0     H  523   2.958   9.535   0.669 -0.1439  0.2629 -2.3159
  762MOL0     H  524   2.951   9.710   0.633 -0.7755  0.2321  1.6670
  762MOL0     H  525   2.740   9.612   0.474  0.4905  3.2175 -0.7428
  762MOL0     H  526   2.847   9.481   0.471  4.4264  0.8998 -4.6386
  762MOL0     H  527   2.967   9.742   0.394  2.4510 -0.8172  0.2268
  762MOL0     H  528   3.047   9.595   0.410 -1.3594 -2.9273  0.5188
  762MOL0     H  529   2.877   9.491   0.243 -1.3604  0.0951 -0.8819
  762MOL0     H  530   3.009   9.593   0.194  1.1438 -0.1908  3.1539
  762MOL0     H  531   2.863   9.789   0.148 -1.7526  2.2092  1.6664
  762MOL0     H  532   2.752   9.751   0.260  0.6313 -0.4309  0.2597
  762MOL0     H  533   2.688   9.538   0.135  1.1988  1.5528  3.0075
  762MOL0     H  534   2.629   9.682   0.062 -0.1087 -0.0393  0.5300
  762MOL0     H  535   2.896   9.559  -0.032 -0.2500 -1.4860  0.2015
  762MOL0     H  536   2.806   9.685  -0.107  1.7299 -1.0957 -0.8699
  762MOL0     H  537   2.517   9.585  -0.129 -0.4505 -1.0776  1.0227
  762MOL0     H  538   2.359   9.416  -0.276 -0.0194  1.0861 -0.4238
  762MOL0     H  539   2.439   9.299  -0.389 -1.9701  0.3410  0.4351
  762MOL0     H  540   2.510   9.492  -0.532 -0.1010 -0.1490 -0.0598
  762MOL0     H  541   2.440   9.604  -0.406 -2.3995 -0.4822  1.3947
  762MOL0     H  542   2.316   9.395  -0.580  1.9589  1.3647 -2.8329
  762MOL0     H  543   2.225   9.488  -0.449  0.1221  2.4814  0.8846
  762MOL0     H  544   2.316   9.586  -0.714 -1.4010 -0.1502 -0.8862
  762MOL0     H  545   2.310   9.697  -0.577 -3.2046  1.7616 -1.4628
  762MOL0     H  546   2.211   9.714  -0.378  1.6000 -0.0454 -4.4440
  762MOL0     H  547   2.078   9.805  -0.225 -0.3979  4.2436 -1.4311
  762MOL0     H  548   1.457   9.692  -0.245  0.2242  2.1323 -0.7704
  762MOL0     H  549   1.275   9.684  -0.080 -1.6025  0.7840  0.3846
  762MOL0     H  550   1.223   9.997   0.202 -1.5047  1.5419  2.2477
  762MOL0     H  551   1.318   9.902   0.313 -1.3023 -0.0488  1.7524
  762MOL0     H  552   1.074   9.909   0.395 -3.9750  0.2337 -0.9945
  762MOL0     H  553   1.108   9.751   0.324 -1.5370  0.5318  1.3793
  762MOL0     H  554   0.989   9.844   0.113 -0.6713  1.7857 -0.2371
  762MOL0     H  555   0.999  10.006   0.185  1.0381  0.2340 -0.0349
  762MOL0     H  556   0.872   9.763   0.311  1.5793  0.6688  0.5456
  762MOL0     H  557   0.840   9.934   0.358  3.4963  1.2892  0.0246
  762MOL0     H  558   0.665   9.826   0.210 -0.9608  0.0894 -1.6474
  762MOL0     H  559   0.768   9.846   0.075  1.9741 -1.1177  0.8056
  762MOL0     H  560   0.763  10.091   0.086 -1.9359  1.0459 -0.9219
  762MOL0     H  561   0.714  10.089   0.257 -3.8229  1.6909 -0.6426
  762MOL0     H  562   0.466  10.010   0.162 -0.6709  2.4034 -0.6488
  762MOL0     H  563   0.538  10.161   0.108 -2.1431 -0.1479  0.6844
  762MOL0     H  564   0.632  10.045  -0.093 -0.5621  0.3879 -0.7516
  762MOL0     H  565   0.456  10.075  -0.086  1.2608  0.0452 -1.8776
  762MOL0     H  566   1.486   9.953   0.174 -1.7965  1.2839 -0.7748
  762MOL0     H  567   1.678   9.930   0.040  0.6457 -1.5759  0.4430
  762MOL0     H  568   1.731   9.775  -0.470  0.4995 -0.2812 -0.7063
  762MOL0     H  569   1.885   9.690  -0.662  3.2412 -0.9242 -0.8640
  762MOL0     H  570   2.561   9.319   0.759  0.9091  1.0107 -2.4808
  762MOL0     H  571   2.394   9.287   0.939 -2.5728  0.8046 -1.1254
  762MOL0     H  572   2.318   9.519   1.487 -0.0994 -0.2238 -0.3053
  762MOL0     H  573   2.144   9.511   1.662  1.2602 -0.2353 -0.3568
  762MOL0     H  574   1.801   9.432   1.781 -0.6930 -3.9986  0.3858
  762MOL0     H  575   1.965   9.391   1.739  0.2237 -1.4199 -1.7898
  762MOL0     H  576   1.903   9.260   1.553 -1.0364 -0.8495 -1.0752
  762MOL0     H  577   1.843   9.198   1.708 -0.4067  0.1540  0.0719
  762MOL0     H  578   1.693   9.371   1.507 -0.5953 -0.4181 -0.6244
  762MOL0     H  579   1.622   9.279   1.645 -0.5869 -0.1952  0.2190
  762MOL0     H  580   1.577   9.165   1.419 -0.5025 -0.4773 -0.0825
  762MOL0     H  581   1.748   9.162   1.381 -1.1093  0.9204 -0.9488
  762MOL0     H  582   1.694   8.845   1.659 -1.7514  0.6724  1.2797
  762MOL0     H  583   1.840   9.524   1.355 -0.2113  1.5881  0.5547
  762MOL0     H  584   2.007   9.528   1.180  0.1012 -0.3410  0.6923
  763MOL0     O  585   0.837   8.650   7.178  0.0532  0.5544 -0.0926
  763MOL0     C  586   0.835   8.747   7.252 -0.6279  0.0998  0.4406
  763MOL0     O  587   0.945   8.833   7.262  0.1481  0.6335  1.0497
  763MOL0     C  588   1.047   8.797   7.181 -0.2094  0.4352  0.3430
  763MOL0     C  589   1.056   8.828   7.044 -0.4268 -0.3410  0.4138
  763MOL0     C  590   1.168   8.790   6.969 -0.1983  0.8519  0.4618
  763MOL0     C  591   1.277   8.728   7.019  0.6912  0.5673 -0.0087
  763MOL0     O  592   1.383   8.687   6.938  0.3287 -0.3864  0.0225
  763MOL0     C  593   1.503   8.669   7.007 -0.8079  0.4096 -0.2809
  763MOL0     C  594   1.620   8.684   6.920  0.2815 -1.4787 -0.1579
  763MOL0     C  595   1.647   8.552   6.841  0.0624 -0.7535 -0.7450
  763MOL0     C  596   1.790   8.545   6.773 -0.2119  0.4947 -0.3209
  763MOL0     C  597   1.798   8.433   6.673  1.3846  1.0523  0.7635
  763MOL0     C  598   1.942   8.413   6.609 -0.0351  0.8708 -0.7914
  763MOL0     C  599   1.960   8.343   6.472 -0.7202  0.0970  0.7197
  763MOL0     C  600   1.906   8.204   6.465  0.6660 -0.4197 -0.3204
  763MOL0     N  601   1.932   8.130   6.341  0.1313 -0.3997  0.5986
  763MOL0     C  602   2.029   8.037   6.316  0.5732 -0.3466 -0.3076
  763MOL0     C  603   2.015   7.997   6.191 -0.1154  0.5037  0.1479
  763MOL0     C  604   2.091   7.902   6.111  0.6507  0.0938  0.5069
  763MOL0     C  605   2.244   7.930   6.128 -0.4617  0.0908  0.2672
  763MOL0     C  606   2.299   8.059   6.074  0.2252 -0.4626  0.3371
  763MOL0     C  607   2.445   8.049   6.117  0.3685 -0.5146  0.3003
  763MOL0     O  608   2.520   8.150   6.043  0.0643  0.5455  0.1971
  763MOL0     C  609   2.658   8.123   6.035  1.0176  0.9773  0.5856
  763MOL0     C  610   2.726   8.029   6.121 -0.4185 -0.0236  0.7040
  763MOL0     C  611   2.866   8.012   6.111 -0.9932 -0.2305 -0.8631
  763MOL0     C  612   2.946   8.089   6.023 -0.0429  0.4456 -0.5450
  763MOL0     C  613   3.092   8.070   6.002 -0.1216 -0.4923 -0.1332
  763MOL0     O  614   3.147   8.126   5.889  0.6618  0.5414 -0.0765
  763MOL0     C  615   3.262   8.085   5.833  1.7485 -0.2507 -0.1496
  763MOL0     C  616   3.273   8.064   5.699 -0.3046 -0.7745 -0.2398
  763MOL0     C  617   3.388   8.020   5.637 -0.3474  0.6975 -0.3438
  763MOL0     C  618   3.506   8.015   5.710  0.6630  1.1961 -0.3388
  763MOL0     O  619   3.621   7.952   5.658 -0.0979 -0.5557  0.2526
  763MOL0     C  620   3.650   7.942   5.513  0.3462  0.1388  0.4930
  763MOL0     C  621   3.791   7.914   5.488 -0.1575  0.1201 -0.2660
  763MOL0     C  622   3.826   7.874   5.346 -0.2957 -0.0630  0.7555
  763MOL0     C  623   3.797   7.992   5.257 -0.9329  0.0191 -0.2310
  763MOL0     C  624   3.922   8.040   5.172 -0.7557 -0.6534 -0.5085
  763MOL0     C  625   3.965   7.939   5.066  0.0753  0.8767 -0.9216
  763MOL0     C  626   3.864   7.945   4.953  0.0961  0.0744 -0.5299
  763MOL0     C  627   3.910   7.851   4.839 -0.4989  0.0804 -0.4451
  763MOL0    Cl  628   4.048   7.922   4.763  0.1072 -0.0220 -0.3273
  763MOL0     C  629   3.504   8.032   5.849 -0.1947 -0.8893  0.1850
  763MOL0     C  630   3.386   8.072   5.907  0.0976  0.2578  0.3405
  763MOL0     O  631   3.150   8.002   6.084 -0.6223 -0.1145  0.2161
  763MOL0     C  632   2.871   8.185   5.950 -0.1006  0.2455 -0.1641
  763MOL0     C  633   2.737   8.196   5.949 -0.8272 -0.1849  0.6792
  763MOL0     N  634   1.919   8.076   6.132 -0.4129  0.4645 -0.5985
  763MOL0     N  635   1.868   8.162   6.223  0.4985  0.2961  0.7602
  763MOL0     C  636   1.270   8.692   7.155 -0.5578 -0.3850  0.0134
  763MOL0     C  637   1.155   8.717   7.228 -0.3708 -0.5648  0.4652
  763MOL0     C  638   0.711   8.780   7.326  0.3378 -0.7820  0.7592
  763MOL0     C  639   0.608   8.679   7.342 -0.3082  0.5536  0.3495
  763MOL0     C  640   0.507   8.707   7.425  0.7023 -0.3355 -0.0911
  763MOL0     C  641   0.501   8.822   7.498 -0.7820 -1.0006 -0.0249
  763MOL0     O  642   0.402   8.845   7.594 -0.5962 -0.1333  0.6837
  763MOL0     C  643   0.264   8.823   7.563  0.3569  0.4058 -0.0982
  763MOL0     C  644   0.210   8.939   7.475  0.5078 -0.1055  0.0148
  763MOL0     C  645   0.079   9.000   7.540 -0.2196  0.3591  0.7163
  763MOL0     C  646   0.093   9.047   7.686  0.2182 -0.4213 -0.5686
  763MOL0     C  647  -0.027   9.115   7.731 -0.6054 -0.6648  0.0296
  763MOL0     C  648  -0.135   9.162   7.759  0.0965  0.9846  0.4673
  763MOL0     C  649   0.605   8.916   7.494 -0.9387  0.9628 -0.0942
  763MOL0     C  650   0.702   8.899   7.394 -0.1698  0.2237 -0.3877
  763MOL0     H  651   0.986   8.877   6.978  1.8069  0.7564 -1.2813
  763MOL0     H  652   1.180   8.825   6.867  2.8094  0.9246  0.7497
  763MOL0     H  653   1.505   8.572   7.057  1.5210  0.4951 -0.0810
  763MOL0     H  654   1.517   8.743   7.086 -3.1453  0.0630  0.5378
  763MOL0     H  655   1.704   8.725   6.977 -1.0212  2.0976 -0.5984
  763MOL0     H  656   1.601   8.768   6.854  0.6044 -0.6323  0.8031
  763MOL0     H  657   1.572   8.532   6.763  1.3479 -3.0078 -1.5038
  763MOL0     H  658   1.642   8.470   6.913 -0.2346 -1.3641 -1.4415
  763MOL0     H  659   1.829   8.634   6.723  0.0424 -0.2540 -1.4897
  763MOL0     H  660   1.859   8.521   6.854  2.0438 -0.1045 -2.3139
  763MOL0     H  661   1.723   8.443   6.595  0.7230  0.1482  1.2553
  763MOL0     H  662   1.771   8.340   6.724 -0.4934  0.9048 -0.4531
  763MOL0     H  663   2.007   8.367   6.684 -2.3240 -1.1219  0.1106
  763MOL0     H  664   1.983   8.513   6.592  0.4926  0.9187  0.6590
  763MOL0     H  665   1.910   8.407   6.398  1.1790  0.8266  0.0234
  763MOL0     H  666   2.063   8.328   6.440 -0.9551 -7.0369  1.7543
  763MOL0     H  667   1.798   8.220   6.474  0.4853 -1.6901 -0.0755
  763MOL0     H  668   1.932   8.148   6.555 -1.3547 -1.7279 -0.4931
  763MOL0     H  669   2.093   8.003   6.397  0.4954  0.1095 -0.0524
  763MOL0     H  670   2.066   7.899   6.004  0.8635 -3.0612  0.4322
  763MOL0     H  671   2.060   7.801   6.142 -0.7398 -0.4743 -2.4175
  763MOL0     H  672   2.294   7.852   6.071 -1.8942 -0.5466 -0.1680
  763MOL0     H  673   2.266   7.917   6.234  1.1000  0.1159 -0.0383
  763MOL0     H  674   2.300   8.062   5.964 -4.6353  1.9069  0.1210
  763MOL0     H  675   2.244   8.143   6.116  1.7167  0.2702  0.9048
  763MOL0     H  676   2.485   7.958   6.072  1.4564  0.1356 -0.0860
  763MOL0     H  677   2.450   8.055   6.226 -2.1401  2.9235  0.3945
  763MOL0     H  678   2.684   7.963   6.196 -2.3899 -4.5162 -3.7497
  763MOL0     H  679   2.910   7.946   6.185  2.9785  1.9542 -1.0197
  763MOL0     H  680   3.185   8.094   5.643  0.8787 -0.5016 -2.0223
  763MOL0     H  681   3.381   7.983   5.535  0.4665 -0.6018  0.0592
  763MOL0     H  682   3.625   8.038   5.467 -2.4432  0.5651  2.6141
  763MOL0     H  683   3.590   7.857   5.480 -1.5643  0.9592  1.6647
  763MOL0     H  684   3.804   7.830   5.557 -5.3811 -0.2822  0.6079
  763MOL0     H  685   3.853   7.995   5.529 -1.2863  0.4958  0.7641
  763MOL0     H  686   3.771   7.782   5.327  1.0175 -0.1893 -3.4278
  763MOL0     H  687   3.927   7.836   5.329 -0.7730 -0.3644 -1.8040
  763MOL0     H  688   3.711   7.969   5.193 -1.7006  0.4539  0.6147
  763MOL0     H  689   3.773   8.077   5.322 -0.5822  0.9247 -1.2642
  763MOL0     H  690   4.004   8.055   5.243 -0.7790 -0.0139 -0.6122
  763MOL0     H  691   3.889   8.127   5.116 -3.9521 -2.0076 -0.9435
  763MOL0     H  692   3.988   7.837   5.098 -0.0318  1.4513  1.0729
  763MOL0     H  693   4.052   7.984   5.017 -0.2263  1.9631 -0.5023
  763MOL0     H  694   3.765   7.914   4.989  0.9092 -3.4198 -0.9529
  763MOL0     H  695   3.858   8.045   4.908 -0.9000 -0.9339 -2.8462
  763MOL0     H  696   3.832   7.849   4.763  0.0982 -0.1439 -1.0625
  763MOL0     H  697   3.928   7.749   4.874 -2.4960  0.2591  1.2930
  763MOL0     H  698   3.591   8.017   5.911  1.8404  4.2268 -0.9067
  763MOL0     H  699   3.385   8.093   6.014  1.4832  1.2497  0.1781
  763MOL0     H  700   2.930   8.254   5.890 -0.1461  2.3290  2.0226
  763MOL0     H  701   2.679   8.266   5.890  1.9180  0.0107 -2.0262
  763MOL0     H  702   1.351   8.634   7.199 -2.4361 -1.4200  2.3397
  763MOL0     H  703   1.143   8.675   7.328 -2.1120  0.9242  0.9294
  763MOL0     H  704   0.614   8.585   7.288 -0.1399  0.4836  0.4883
  763MOL0     H  705   0.431   8.630   7.430  0.0843  0.3035  0.6754
  763MOL0     H  706   0.209   8.822   7.657 -0.0776  1.1571 -0.3351
  763MOL0     H  707   0.247   8.722   7.523 -2.0574  0.6555  0.1939
  763MOL0     H  708   0.298   9.003   7.469  0.2637  0.0884 -2.1777
  763MOL0     H  709   0.183   8.909   7.373 -1.4845  4.4665 -1.0335
  763MOL0     H  710   0.000   8.925   7.553 -1.0389  1.4865  2.7311
  763MOL0     H  711   0.041   9.075   7.470  1.2383  1.8043  1.3810
  763MOL0     H  712   0.110   8.958   7.747  2.2521 -0.4547 -1.1031
  763MOL0     H  713   0.180   9.113   7.698  0.0773 -0.0292 -1.6551
  763MOL0     H  714  -0.236   9.175   7.791 -0.8161 -2.1992 -0.7185
  763MOL0     H  715   0.601   9.006   7.553  2.9417 -0.2961  2.5309
  763MOL0     H  716   0.775   8.978   7.382 -0.1338  0.5475  1.5532
  764MOL0     O  717   3.777  11.102   3.370 -0.2669  0.7202  0.0262
  764MOL0     C  718   3.816  11.034   3.272 -0.2571  0.1127 -0.0403
  764MOL0     O  719   3.737  10.955   3.202  0.1982  0.2646  0.6759
  764MOL0     C  720   3.611  10.927   3.245  0.3393  0.0040  0.2435
  764MOL0     C  721   3.512  11.029   3.239  0.1937 -0.0559 -0.6182
  764MOL0     C  722   3.382  10.999   3.303 -0.1338  0.1907  0.1805
  764MOL0     C  723   3.362  10.876   3.369  0.4897 -0.0067 -0.2608
  764MOL0     O  724   3.247  10.848   3.438 -0.2272  0.3140  0.8012
  764MOL0     C  725   3.116  10.885   3.395 -0.4757  0.6307  0.1866
  764MOL0     C  726   3.072  10.798   3.276  0.4244  0.1061 -0.2737
  764MOL0     C  727   2.948  10.835   3.189 -0.4456 -0.2356  0.4495
  764MOL0     C  728   2.832  10.897   3.258 -0.2932  0.3759 -0.6614
  764MOL0     C  729   2.712  10.903   3.166  0.7600 -0.2758  0.1257
  764MOL0     C  730   2.591  10.974   3.228 -0.6890 -0.0992  0.0326
  764MOL0     C  731   2.489  11.033   3.131  0.6050  0.4030 -0.9555
  764MOL0     C  732   2.420  10.922   3.051 -0.2830  0.3801 -0.2618
  764MOL0     N  733   2.349  10.823   3.138 -0.0856 -0.5618  0.0164
  764MOL0     C  734   2.290  10.848   3.265  1.2024  0.1732  0.2581
  764MOL0     C  735   2.250  10.726   3.301 -0.1209  0.0486  0.2820
  764MOL0     C  736   2.182  10.693   3.429  0.5532 -0.7793 -0.6797
  764MOL0     C  737   2.179  10.794   3.552  0.0366  0.7062  0.1188
  764MOL0     C  738   2.056  10.883   3.537  0.4443 -0.1123  1.6642
  764MOL0     C  739   2.060  10.975   3.662  0.8641  0.1708  1.0868
  764MOL0     O  740   1.992  10.920   3.773  0.1083  0.6433 -0.3548
  764MOL0     C  741   1.874  10.962   3.817 -0.1062  0.1003  0.3142
  764MOL0     C  742   1.852  10.951   3.953 -0.5999 -0.4126  0.1874
  764MOL0     C  743   1.726  10.961   4.007 -1.0330  0.1688  0.7425
  764MOL0     C  744   1.622  10.990   3.921 -0.3012 -0.0079 -0.7299
  764MOL0     C  745   1.489  11.001   3.978  0.6305 -0.2124 -0.4464
  764MOL0     O  746   1.394  11.060   3.899  0.5247 -0.2612  0.1676
  764MOL0     C  747   1.270  11.076   3.953  0.3250  0.2989  0.4257
  764MOL0     C  748   1.229  11.203   3.992  0.8257 -0.2414 -0.4108
  764MOL0     C  749   1.106  11.229   4.035 -0.0853  0.1223 -0.2618
  764MOL0     C  750   1.017  11.120   4.066  0.4929 -0.4154  0.0688
  764MOL0     O  751   0.891  11.156   4.110  0.2336 -0.8199 -0.8697
  764MOL0     C  752   0.792  11.059   4.123 -1.2845  0.7663 -0.2100
  764MOL0     C  753   0.666  11.138   4.182  0.1035  0.6130 -0.1783
  764MOL0     C  754   0.542  11.066   4.143  0.4634  0.0778 -0.1932
  764MOL0     C  755   0.422  11.122   4.218  0.2405  0.3815  0.3831
  764MOL0     C  756   0.289  11.053   4.186  0.7347  0.2226 -0.3272
  764MOL0     C  757   0.172  11.130   4.237  0.0810  0.5981 -0.2175
  764MOL0     C  758   0.051  11.039   4.231  0.7018  0.1475  0.1960
  764MOL0     C  759  -0.069  11.115   4.294 -0.0138  0.1188 -0.1696
  764MOL0    Cl  760  -0.065  11.289   4.260 -0.5788 -0.4547  0.2380
  764MOL0     C  761   1.059  10.994   4.040  0.5931 -0.4934 -0.7924
  764MOL0     C  762   1.180  10.975   3.985  0.5269 -0.1064 -0.1281
  764MOL0     O  763   1.471  10.960   4.095  0.6721  0.7363  0.9170
  764MOL0     C  764   1.636  11.022   3.785 -0.5239 -0.1841 -0.1546
  764MOL0     C  765   1.770  11.006   3.734  1.0746 -0.6985  0.6032
  764MOL0     N  766   2.276  10.633   3.197  0.3187  0.1638 -0.3176
  764MOL0     N  767   2.334  10.701   3.102 -0.0281 -0.3456  0.5096
  764MOL0     C  768   3.464  10.779   3.369  0.0704  0.3665  0.4263
  764MOL0     C  769   3.586  10.801   3.292  0.5185 -0.9964 -0.5952
  764MOL0     C  770   3.961  11.033   3.227 -0.6793 -0.0659  0.1160
  764MOL0     C  771   4.050  11.094   3.312  0.0783  0.3029 -0.5321
  764MOL0     C  772   4.183  11.094   3.290  0.2351 -0.0079  0.1681
  764MOL0     C  773   4.232  11.033   3.174  0.3868 -0.6668  0.0223
  764MOL0     O  774   4.362  11.050   3.124 -0.3181 -0.2521 -0.0221
  764MOL0     C  775   4.468  11.038   3.221 -0.3742  0.4171 -0.5566
  764MOL0     C  776   4.588  11.001   3.141 -0.2625  0.5006 -0.8741
  764MOL0     C  777   4.598  10.846   3.101  0.1332 -0.6869 -0.1087
  764MOL0     C  778   4.704  10.819   2.989  0.0946 -1.1031 -0.7780
  764MOL0     C  779   4.831  10.883   3.017  0.1735 -0.3367  0.2582
  764MOL0     C  780   4.936  10.928   3.052  0.7168  0.3309  0.4458
  764MOL0     C  781   4.142  10.971   3.090 -0.3537  0.2719 -0.1402
  764MOL0     C  782   4.008  10.962   3.117  0.0406 -0.5474  0.4153
  764MOL0     H  783   3.531  11.118   3.179 -0.3240 -0.3591 -1.2574
  764MOL0     H  784   3.302  11.072   3.300 -1.3491 -0.8255  3.2633
  764MOL0     H  785   3.117  10.988   3.358 -0.5327  0.3593 -0.5824
  764MOL0     H  786   3.063  10.878   3.490  1.6585  0.6880  1.4292
  764MOL0     H  787   3.040  10.704   3.322  2.9705  0.3155  2.1874
  764MOL0     H  788   3.169  10.776   3.232  3.0473  1.1182  4.3547
  764MOL0     H  789   2.916  10.741   3.144  3.1695 -1.1977 -0.4725
  764MOL0     H  790   2.978  10.909   3.113 -1.4576 -1.3459 -1.0723
  764MOL0     H  791   2.805  10.828   3.339  0.8175 -0.8832 -1.3214
  764MOL0     H  792   2.855  10.997   3.295 -0.6074  0.1567  0.1639
  764MOL0     H  793   2.668  10.805   3.146 -1.1796  0.4256  0.7196
  764MOL0     H  794   2.733  10.955   3.072 -1.9084  1.5219  0.4160
  764MOL0     H  795   2.628  11.048   3.299 -2.2712 -1.1652  2.0770
  764MOL0     H  796   2.538  10.902   3.291 -0.4967 -0.8537 -0.6375
  764MOL0     H  797   2.413  11.090   3.186 -1.9787 -2.5495 -1.1933
  764MOL0     H  798   2.546  11.106   3.072 -0.2946  0.5905 -1.6281
  764MOL0     H  799   2.494  10.875   2.986  1.2158  0.0921  1.5417
  764MOL0     H  800   2.347  10.974   2.989  0.1416 -2.0854 -3.0512
  764MOL0     H  801   2.275  10.945   3.312  0.3643 -0.0299  0.4172
  764MOL0     H  802   2.245  10.613   3.469  2.6486  1.9304  1.8496
  764MOL0     H  803   2.080  10.658   3.406 -0.2633  0.5936  0.6426
  764MOL0     H  804   2.271  10.850   3.567  0.4022 -0.0443  0.7336
  764MOL0     H  805   2.173  10.729   3.640 -0.7742  0.9397  0.2542
  764MOL0     H  806   2.067  10.942   3.446 -2.4564 -2.9860 -0.8030
  764MOL0     H  807   1.965  10.823   3.527  0.7891 -0.6153  1.5240
  764MOL0     H  808   2.005  11.068   3.645  0.0305 -0.4830  0.0439
  764MOL0     H  809   2.163  11.002   3.685  1.1479 -0.0305  0.0850
  764MOL0     H  810   1.931  10.930   4.023 -0.2254  0.3725  0.0093
  764MOL0     H  811   1.711  10.953   4.114  1.3113 -0.1137  1.1118
  764MOL0     H  812   1.296  11.288   3.981  0.7965 -0.2421 -0.5871
  764MOL0     H  813   1.072  11.329   4.056  0.9742  0.6047 -0.7801
  764MOL0     H  814   0.834  10.982   4.187  3.2315  3.1076  0.0160
  764MOL0     H  815   0.763  11.016   4.026 -2.2998  2.3412 -0.6482
  764MOL0     H  816   0.651  11.239   4.142 -1.4573  1.6172  2.6256
  764MOL0     H  817   0.676  11.137   4.291  1.3429  0.3022 -0.2804
  764MOL0     H  818   0.553  10.965   4.183  0.0261  1.2524  3.1690
  764MOL0     H  819   0.510  11.075   4.038 -2.9254  2.2056  0.8421
  764MOL0     H  820   0.430  11.118   4.327 -2.0902  0.2579  0.6134
  764MOL0     H  821   0.407  11.225   4.186 -0.2684  0.3371  0.4708
  764MOL0     H  822   0.282  10.959   4.242  3.5291 -0.1624 -0.4835
  764MOL0     H  823   0.282  11.017   4.083 -3.3030 -0.7282  0.1032
  764MOL0     H  824   0.164  11.229   4.192 -3.5088  0.8223  0.6206
  764MOL0     H  825   0.192  11.159   4.340 -1.6536  4.5190 -0.8028
  764MOL0     H  826   0.023  11.021   4.126 -1.5683 -0.2200  0.8131
  764MOL0     H  827   0.079  10.948   4.285 -0.8902 -0.9638 -0.7398
  764MOL0     H  828  -0.083  11.095   4.401  0.4991  2.2994  0.3586
  764MOL0     H  829  -0.162  11.081   4.247 -0.9637 -3.0392  3.4669
  764MOL0     H  830   0.988  10.913   4.057 -1.5303  0.7254 -3.1450
  764MOL0     H  831   1.205  10.873   3.955 -1.3003 -0.6251  0.0257
  764MOL0     H  832   1.553  11.068   3.732 -0.1601 -0.2249 -0.7663
  764MOL0     H  833   1.787  11.016   3.628 -2.3327 -1.6035 -0.1560
  764MOL0     H  834   3.446  10.686   3.423  2.9336  0.8508  2.4631
  764MOL0     H  835   3.646  10.711   3.285 -2.0651 -2.7148 -2.7000
  764MOL0     H  836   4.015  11.142   3.403 -0.6906 -0.3258 -0.4789
  764MOL0     H  837   4.242  11.154   3.360  0.4765  0.5783 -0.5308
  764MOL0     H  838   4.461  10.946   3.279  1.7999  0.6392  0.1741
  764MOL0     H  839   4.477  11.119   3.294 -1.4004 -0.1414  0.2080
  764MOL0     H  840   4.584  11.057   3.047  0.1451  0.6518 -0.8039
  764MOL0     H  841   4.670  11.029   3.208 -3.0466  1.5491  2.4054
  764MOL0     H  842   4.501  10.801   3.077  0.5375 -1.7833  0.2269
  764MOL0     H  843   4.625  10.789   3.190 -0.7466 -2.9508 -1.1861
  764MOL0     H  844   4.724  10.711   2.997 -0.7781 -1.2318 -0.2650
  764MOL0     H  845   4.679  10.851   2.887  0.0634 -1.7302 -0.9725
  764MOL0     H  846   5.038  10.956   3.066  0.8666  0.8754 -1.4384
  764MOL0     H  847   4.193  10.930   3.004  1.7745  2.1112  0.1426
  764MOL0     H  848   3.941  10.901   3.057  1.3266 -3.0360  1.3186
  765MOL0     O  849   7.998   1.216   0.080  0.8103  0.1826 -0.4244
  765MOL0     C  850   8.051   1.184   0.186 -0.7557 -0.1203 -0.7109
  765MOL0     O  851   8.017   1.085   0.267 -0.9175 -0.6887 -0.6596
  765MOL0     C  852   7.938   0.985   0.216 -0.3420 -0.1198 -0.2060
  765MOL0     C  853   7.800   1.005   0.202 -0.9687  0.0231 -0.5186
  765MOL0     C  854   7.718   0.906   0.149 -0.5685 -0.0941 -0.3594
  765MOL0     C  855   7.764   0.785   0.125 -0.4293  0.0891  0.0044
  765MOL0     O  856   7.667   0.688   0.097 -0.3194 -0.8264 -0.3563
  765MOL0     C  857   7.719   0.555   0.140 -0.4790 -0.3686 -0.2195
  765MOL0     C  858   7.613   0.455   0.116 -0.2520  0.2327  0.6332
  765MOL0     C  859   7.577   0.472  -0.037 -0.3004 -0.1332  1.1155
  765MOL0     C  860   7.516   0.342  -0.078 -0.3962  0.2821 -1.0968
  765MOL0     C  861   7.437   0.356  -0.207  0.5382 -0.0289  0.2510
  765MOL0     C  862   7.413   0.214  -0.269  0.6107 -0.6229 -0.1602
  765MOL0     C  863   7.338   0.122  -0.179  0.2111  0.8854  0.2127
  765MOL0     C  864   7.198   0.168  -0.147 -0.1274 -0.4643  0.1092
  765MOL0     N  865   7.092   0.144  -0.249 -0.2977  0.0140  0.7394
  765MOL0     C  866   7.014   0.038  -0.264  0.3547 -0.2440 -0.4074
  765MOL0     C  867   6.929   0.066  -0.366  0.3946  0.6306 -0.3401
  765MOL0     C  868   6.818  -0.019  -0.413  0.8640 -0.3241 -0.2228
  765MOL0     C  869   6.698   0.045  -0.491  0.2497  0.2185 -0.0144
  765MOL0     C  870   6.609  -0.052  -0.569 -0.4407  0.1590 -0.1956
  765MOL0     C  871   6.528   0.010  -0.679  0.8039 -0.1107 -0.7083
  765MOL0     O  872   6.418   0.082  -0.621 -0.4514  0.0681 -0.3189
  765MOL0     C  873   6.319   0.121  -0.697 -0.1088  0.3145  0.6476
  765MOL0     C  874   6.190   0.102  -0.656  0.5036  0.3115 -0.5504
  765MOL0     C  875   6.082   0.123  -0.737  0.0306 -0.7052 -0.4040
  765MOL0     C  876   6.098   0.177  -0.870  0.1520 -0.7912 -0.4181
  765MOL0     C  877   5.979   0.178  -0.955 -0.5213  0.2801  0.2768
  765MOL0     O  878   5.880   0.085  -0.927 -0.1877  0.1696 -0.2002
  765MOL0     C  879   5.741   0.106  -0.958 -0.7662  0.6686 -0.4527
  765MOL0     C  880   5.687   0.215  -1.018 -0.1291 -1.2870 -0.4366
  765MOL0     C  881   5.552   0.224  -1.052 -1.1150 -0.5221 -0.5836
  765MOL0     C  882   5.455   0.133  -1.010 -0.5758 -0.2860  0.5744
  765MOL0     O  883   5.324   0.137  -1.026  0.1006 -1.0491 -0.0021
  765MOL0     C  884   5.275   0.249  -1.102  0.9502  0.3934 -0.0170
  765MOL0     C  885   5.125   0.248  -1.098  0.2086 -0.8442 -0.4741
  765MOL0     C  886   5.077   0.128  -1.191  0.1883  0.5861 -0.4881
  765MOL0     C  887   4.927   0.141  -1.209 -0.7703 -0.7065 -0.9283
  765MOL0     C  888   4.866   0.030  -1.305  0.6624  0.5310  0.6234
  765MOL0     C  889   4.708   0.053  -1.313  0.6496  0.5888 -0.2704
  765MOL0     C  890   4.634  -0.036  -1.216 -0.4092 -0.8856 -0.2280
  765MOL0     C  891   4.502   0.024  -1.176 -0.4016 -0.6107 -0.5209
  765MOL0    Cl  892   4.535   0.150  -1.058 -0.5592  0.2927 -0.2691
  765MOL0     C  893   5.506   0.028  -0.933  0.0929 -0.0956 -0.4736
  765MOL0     C  894   5.644   0.013  -0.908  1.0066  0.8078 -0.2172
  765MOL0     O  895   5.986   0.251  -1.049 -0.3043  0.2474 -0.1621
  765MOL0     C  896   6.231   0.202  -0.914  0.3892 -0.1547  0.1491
  765MOL0     C  897   6.343   0.169  -0.831  0.0200 -0.9849 -0.3723
  765MOL0     N  898   6.958   0.193  -0.408  0.9565 -0.4638 -0.0093
  765MOL0     N  899   7.047   0.241  -0.334  0.6461 -0.2894  0.2178
  765MOL0     C  900   7.906   0.767   0.131  0.0183  0.6019  0.0558
  765MOL0     C  901   7.995   0.864   0.179  0.2646  0.2332 -1.3095
  765MOL0     C  902   8.163   1.272   0.240  0.2294 -0.4458 -0.4469
  765MOL0     C  903   8.232   1.238   0.358 -0.3408  0.4174  0.1219
  765MOL0     C  904   8.341   1.315   0.396  0.4497  0.8984  0.0994
  765MOL0     C  905   8.374   1.432   0.329 -0.5185 -0.2670 -0.8144
  765MOL0     O  906   8.471   1.523   0.382  0.2961  0.0738  0.3788
  765MOL0     C  907   8.569   1.472   0.477  0.4723 -0.2112  0.5479
  765MOL0     C  908   8.693   1.552   0.486 -0.0406 -0.1827 -0.8685
  765MOL0     C  909   8.668   1.701   0.522 -0.0122 -0.4531 -0.8341
  765MOL0     C  910   8.804   1.791   0.526  0.4685 -0.0733 -0.0421
  765MOL0     C  911   8.876   1.797   0.652  0.0540  0.2896  0.4692
  765MOL0     C  912   8.938   1.803   0.758 -0.3458 -0.0772  0.4332
  765MOL0     C  913   8.304   1.471   0.220  1.1477 -0.4957  0.0984
  765MOL0     C  914   8.200   1.390   0.175  0.1468  0.8325  0.0251
  765MOL0     H  915   7.760   1.097   0.244 -0.2443 -1.2121  3.3013
  765MOL0     H  916   7.613   0.927   0.137 -1.4724 -2.1182  2.8705
  765MOL0     H  917   7.743   0.538   0.245 -0.9492 -0.9516 -0.1990
  765MOL0     H  918   7.805   0.533   0.076  0.1492  1.6862 -0.1599
  765MOL0     H  919   7.528   0.451   0.185 -1.4769  0.5692 -0.8085
  765MOL0     H  920   7.663   0.358   0.126  1.8241  1.4211  2.5936
  765MOL0     H  921   7.661   0.492  -0.104 -1.8168 -2.1552 -1.6058
  765MOL0     H  922   7.508   0.557  -0.046  1.4478  1.1307 -1.8745
  765MOL0     H  923   7.603   0.276  -0.092  1.9252  3.0944 -0.8666
  765MOL0     H  924   7.453   0.302   0.002 -2.6855  2.6452 -1.5812
  765MOL0     H  925   7.502   0.399  -0.284  0.1714  0.8600  0.4308
  765MOL0     H  926   7.353   0.426  -0.204  1.2220  0.7898  0.3658
  765MOL0     H  927   7.512   0.178  -0.296  1.1769  0.1419  0.8207
  765MOL0     H  928   7.358   0.211  -0.363  1.3702 -0.9339 -0.5975
  765MOL0     H  929   7.327   0.024  -0.226  1.8200  0.4184  0.7466
  765MOL0     H  930   7.400   0.111  -0.090  1.4185 -5.5742 -0.9408
  765MOL0     H  931   7.191   0.276  -0.133 -3.1344 -0.6592  1.0011
  765MOL0     H  932   7.165   0.137  -0.048  0.2565  1.8019  0.9996
  765MOL0     H  933   7.032  -0.058  -0.216  1.7754 -0.0078 -0.4112
  765MOL0     H  934   6.775  -0.058  -0.320 -1.0613  1.0167 -0.4923
  765MOL0     H  935   6.867  -0.096  -0.473  1.1494 -0.1928 -0.1583
  765MOL0     H  936   6.750   0.110  -0.562  0.9572 -1.2186 -0.8521
  765MOL0     H  937   6.628   0.100  -0.427 -1.7704  0.3347 -2.1674
  765MOL0     H  938   6.671  -0.135  -0.604 -0.2997 -0.8933  2.3731
  765MOL0     H  939   6.546  -0.099  -0.493  2.6303 -1.6298  1.4617
  765MOL0     H  940   6.504  -0.062  -0.758  1.3052  2.6379 -3.5480
  765MOL0     H  941   6.580   0.085  -0.738 -1.5882  0.7351 -1.8948
  765MOL0     H  942   6.189   0.074  -0.551 -1.7954  2.0478 -0.0218
  765MOL0     H  943   5.984   0.086  -0.708 -0.0022 -0.6773 -0.4798
  765MOL0     H  944   5.747   0.291  -1.066  0.1304 -1.2616 -0.0719
  765MOL0     H  945   5.526   0.310  -1.114  2.8394 -0.0531 -1.8719
  765MOL0     H  946   5.320   0.248  -1.201  0.9224  0.0964 -0.0279
  765MOL0     H  947   5.307   0.333  -1.038  0.4116 -2.0213  3.7501
  765MOL0     H  948   5.089   0.350  -1.116 -3.2820 -1.4879  1.7868
  765MOL0     H  949   5.075   0.226  -1.003  0.3475 -0.8582 -0.4040
  765MOL0     H  950   5.106   0.038  -1.135 -0.8047  0.2316 -0.5360
  765MOL0     H  951   5.119   0.135  -1.291 -0.8662  1.4446 -0.8828
  765MOL0     H  952   4.867   0.136  -1.117 -3.6965 -1.7977 -2.7645
  765MOL0     H  953   4.902   0.239  -1.251 -0.7915 -1.5746 -3.0435
  765MOL0     H  954   4.883  -0.073  -1.274  0.8790  1.3073  3.2764
  765MOL0     H  955   4.902   0.036  -1.409  0.0346  0.6123  0.4034
  765MOL0     H  956   4.675   0.031  -1.415 -1.6877  0.2753  0.4923
  765MOL0     H  957   4.684   0.157  -1.288  1.0486  0.6025  0.0831
  765MOL0     H  958   4.615  -0.139  -1.249 -4.7912 -0.8545  1.5955
  765MOL0     H  959   4.707  -0.032  -1.134 -0.5214  2.6257 -0.1817
  765MOL0     H  960   4.445  -0.048  -1.117 -1.5297  0.6218 -0.0411
  765MOL0     H  961   4.434   0.051  -1.258 -0.9983 -1.6528 -0.3898
  765MOL0     H  962   5.436  -0.045  -0.894  1.4671 -0.6150  1.1320
  765MOL0     H  963   5.670  -0.080  -0.859 -1.7317  0.0864  0.0328
  765MOL0     H  964   6.245   0.239  -1.015  3.1250 -1.7750 -0.1615
  765MOL0     H  965   6.444   0.177  -0.870 -0.6460  1.2930 -1.8478
  765MOL0     H  966   7.946   0.666   0.120  0.4775  0.3605  3.0016
  765MOL0     H  967   8.100   0.842   0.193 -0.0365 -0.6843 -0.4365
  765MOL0     H  968   8.199   1.151   0.414  1.8572  0.0183  0.8936
  765MOL0     H  969   8.395   1.290   0.487  1.3464  0.1786 -0.6120
  765MOL0     H  970   8.594   1.367   0.456 -0.7183 -0.3795 -0.1287
  765MOL0     H  971   8.525   1.477   0.577 -2.7492 -0.6864 -0.7028
  765MOL0     H  972   8.758   1.510   0.563 -1.2700  2.2893  1.6576
  765MOL0     H  973   8.751   1.558   0.393 -1.5948 -0.2796 -1.8816
  765MOL0     H  974   8.604   1.696   0.610 -0.0229 -2.3513 -0.8899
  765MOL0     H  975   8.606   1.746   0.444 -0.2985  0.2447 -0.2086
  765MOL0     H  976   8.875   1.772   0.445  0.4407  3.9089 -1.2293
  765MOL0     H  977   8.779   1.894   0.496  1.4316 -0.2337 -1.5239
  765MOL0     H  978   8.970   1.818   0.859 -1.4250  0.2920  0.7373
  765MOL0     H  979   8.338   1.569   0.186 -0.1662  1.0265  2.8140
  765MOL0     H  980   8.144   1.422   0.088  0.7160  0.9987 -0.2881
  766MOL0     O  981   0.020  10.417  10.621  1.1656  0.0385 -0.0929
  766MOL0     C  982  -0.048  10.523  10.631 -0.7193 -0.2361  0.6033
  766MOL0     O  983  -0.001  10.646  10.656 -0.3202 -0.1977  0.3294
  766MOL0     C  984   0.133  10.644  10.708  0.7650  0.5732  0.3117
  766MOL0     C  985   0.173  10.659  10.843 -0.4967  0.8041 -0.7910
  766MOL0     C  986   0.304  10.661  10.879 -0.1767 -0.5923  0.7391
  766MOL0     C  987   0.408  10.649  10.777  0.6133  0.5124  0.6151
  766MOL0     O  988   0.540  10.644  10.816  0.2138  0.9775 -0.4963
  766MOL0     C  989   0.576  10.514  10.858 -0.9810  0.5551 -0.2995
  766MOL0     C  990   0.713  10.518  10.936 -0.0176 -0.0309 -0.2936
  766MOL0     C  991   0.835  10.523  10.841  0.0589  0.8066 -0.0555
  766MOL0     C  992   0.960  10.506  10.931  0.5055  0.2305  0.5853
  766MOL0     C  993   1.084  10.529  10.844  0.1380 -0.0604  0.2378
  766MOL0     C  994   1.214  10.501  10.922 -0.1400 -0.1728 -0.4988
  766MOL0     C  995   1.342  10.543  10.835 -0.7409  0.6194 -1.2104
  766MOL0     C  996   1.344  10.492  10.698 -0.3225 -0.3651  0.0795
  766MOL0     N  997   1.476  10.518  10.641  0.0514 -1.0803  0.3660
  766MOL0     C  998   1.591  10.451  10.663  0.1324 -0.0258  0.0413
  766MOL0     C  999   1.684  10.499  10.580  0.3780 -0.4226  0.0607
  766MOL0     C 1000   1.829  10.458  10.567  0.1386 -0.1681 -0.3439
  766MOL0     C 1001   1.911  10.435  10.691  0.2781 -0.5509  0.2881
  766MOL0     C 1002   1.938  10.565  10.767 -1.2658 -0.1377 -0.6649
  766MOL0     C 1003   2.039  10.544  10.882 -0.0621 -1.2492 -0.2678
  766MOL0     O 1004   1.980  10.473  10.993 -0.4850  0.2554 -0.3152
  766MOL0     C 1005   1.860  10.515  11.041  0.3599 -0.1224 -0.0334
  766MOL0     C 1006   1.755  10.430  11.020 -0.0920  0.0102  0.3574
  766MOL0     C 1007   1.627  10.459  11.077  0.6274  0.6365 -0.0820
  766MOL0     C 1008   1.605  10.576  11.155 -0.5737  0.2072 -0.1405
  766MOL0     C 1009   1.482  10.594  11.237  0.8667  0.3894 -0.4771
  766MOL0     O 1010   1.382  10.495  11.208 -0.6531 -0.2631 -0.0088
  766MOL0     C 1011   1.273  10.486  11.286  0.0534 -0.2708  0.4606
  766MOL0     C 1012   1.234  10.563  11.392 -0.8560  0.1134 -1.1174
  766MOL0     C 1013   1.115  10.542  11.462  0.7963 -0.2346 -0.1543
  766MOL0     C 1014   1.031  10.442  11.422 -0.3540 -0.5728  0.9995
  766MOL0     O 1015   0.913  10.418  11.489 -0.4119 -0.0953 -0.0346
  766MOL0     C 1016   0.895  10.458  11.623  0.2792 -0.1890 -0.4126
  766MOL0     C 1017   0.806  10.354  11.693 -1.1793 -0.0279 -0.1010
  766MOL0     C 1018   0.732  10.418  11.812 -0.5583  0.9788 -0.7018
  766MOL0     C 1019   0.630  10.324  11.873  0.4766  0.0340  0.5019
  766MOL0     C 1020   0.559  10.385  11.986 -0.5721 -0.6444  0.5290
  766MOL0     C 1021   0.481  10.506  11.933 -0.6716 -0.1929 -0.3699
  766MOL0     C 1022   0.374  10.561  12.039 -0.1876  0.0320 -0.3385
  766MOL0     C 1023   0.337  10.707  12.028  0.2697  0.2129  0.4339
  766MOL0    Cl 1024   0.178  10.729  12.109 -0.4741 -0.0161 -0.7747
  766MOL0     C 1025   1.077  10.360  11.316 -0.7184 -0.2368 -0.6032
  766MOL0     C 1026   1.186  10.387  11.249 -0.4827 -0.0868 -0.3954
  766MOL0     O 1027   1.479  10.687  11.320  0.0217  0.1053 -0.3239
  766MOL0     C 1028   1.712  10.670  11.168  0.1299  0.7317 -0.4633
  766MOL0     C 1029   1.837  10.639  11.107 -0.4643 -0.0489  0.1237
  766MOL0     N 1030   1.621  10.597  10.503 -0.5494  0.3853 -0.0929
  766MOL0     N 1031   1.498  10.615  10.538  0.2660  0.1781  0.1151
  766MOL0     C 1032   0.366  10.633  10.644 -0.1827  0.1377  0.0182
  766MOL0     C 1033   0.231  10.638  10.614  0.4766  0.1173 -0.8962
  766MOL0     C 1034  -0.192  10.502  10.598 -0.3251  0.0307 -0.4675
  766MOL0     C 1035  -0.291  10.604  10.624  0.1940  0.1212  0.0653
  766MOL0     C 1036  -0.430  10.571  10.616 -0.0512  0.2752  1.0970
  766MOL0     C 1037  -0.467  10.442  10.578 -0.4080 -0.1594  0.4665
  766MOL0     O 1038  -0.600  10.415  10.574 -0.1751 -0.1387 -0.2113
  766MOL0     C 1039  -0.687  10.493  10.490  0.2963  0.5156  0.7548
  766MOL0     C 1040  -0.793  10.539  10.589  0.4525  0.0770 -0.0436
  766MOL0     C 1041  -0.941  10.543  10.526  0.4642  0.1038  0.2482
  766MOL0     C 1042  -0.951  10.650  10.418 -0.3390 -0.3490 -0.7183
  766MOL0     C 1043  -1.083  10.668  10.360  0.2421  0.6656 -0.5791
  766MOL0     C 1044  -1.191  10.671  10.299  0.0331 -0.6069 -0.2159
  766MOL0     C 1045  -0.374  10.345  10.542 -0.0126 -0.5417  0.7114
  766MOL0     C 1046  -0.234  10.379  10.552 -0.0776  0.4311 -0.6427
  766MOL0     H 1047   0.094  10.674  10.916  0.2113  0.8408 -0.0206
  766MOL0     H 1048   0.330  10.677  10.983  2.0433  3.1631 -0.2152
  766MOL0     H 1049   0.590  10.439  10.778  4.6853  0.9366 -0.0940
  766MOL0     H 1050   0.498  10.476  10.924 -1.5392 -1.0938 -1.8153
  766MOL0     H 1051   0.726  10.432  11.001  1.7309  0.0156 -0.5359
  766MOL0     H 1052   0.716  10.595  11.014 -4.5404 -1.4993  1.6607
  766MOL0     H 1053   0.836  10.611  10.776  1.5914  0.6084 -0.3518
  766MOL0     H 1054   0.835  10.433  10.779  2.1840  0.7594 -0.0598
  766MOL0     H 1055   0.963  10.583  11.008 -0.3734 -1.6503  2.6174
  766MOL0     H 1056   0.963  10.405  10.975  2.5404 -1.7200 -3.4389
  766MOL0     H 1057   1.087  10.627  10.797  0.8171 -0.6737 -1.0620
  766MOL0     H 1058   1.075  10.461  10.758  1.8798  1.6332 -1.3910
  766MOL0     H 1059   1.211  10.394  10.944 -3.3269 -0.4399 -1.6760
  766MOL0     H 1060   1.217  10.554  11.017  3.4390  2.4993 -1.8967
  766MOL0     H 1061   1.350  10.652  10.830  2.8972  0.5398  0.1695
  766MOL0     H 1062   1.434  10.517  10.888  0.6490  1.9912 -2.8335
  766MOL0     H 1063   1.262  10.539  10.643 -0.1500 -1.0211 -0.7435
  766MOL0     H 1064   1.329  10.384  10.696 -0.8810 -0.2777 -1.5500
  766MOL0     H 1065   1.604  10.367  10.731  0.0377 -0.0088  0.0793
  766MOL0     H 1066   1.879  10.539  10.513  2.1758  0.9832  2.9687
  766MOL0     H 1067   1.825  10.367  10.507 -0.4080  0.0969 -0.7171
  766MOL0     H 1068   2.010  10.397  10.661  0.7074  1.8597 -1.6790
  766MOL0     H 1069   1.865  10.359  10.754  4.8915 -3.3567  0.7841
  766MOL0     H 1070   1.980  10.642  10.702 -0.7284 -1.0401 -1.4174
  766MOL0     H 1071   1.849  10.609  10.812 -2.1442 -2.6166  0.1760
  766MOL0     H 1072   2.061  10.645  10.918 -2.0550 -1.2734  1.2687
  766MOL0     H 1073   2.133  10.496  10.856  0.0997  0.1226 -2.4025
  766MOL0     H 1074   1.784  10.344  10.961 -0.0947  1.2133 -1.4811
  766MOL0     H 1075   1.549  10.387  11.054  1.1473 -0.7852  2.2553
  766MOL0     H 1076   1.293  10.645  11.433 -1.9976  0.7989 -0.7994
  766MOL0     H 1077   1.089  10.605  11.547 -1.5914 -0.8353 -0.3464
  766MOL0     H 1078   0.866  10.563  11.634  5.7644  1.7736 -1.3878
  766MOL0     H 1079   0.994  10.456  11.669  1.5335  1.6590 -2.7553
  766MOL0     H 1080   0.867  10.269  11.726 -4.0222 -2.6046 -1.0391
  766MOL0     H 1081   0.734  10.313  11.622 -0.6819  1.6182 -1.6377
  766MOL0     H 1082   0.690  10.511  11.774  2.4275  2.6299 -0.2127
  766MOL0     H 1083   0.801  10.453  11.888  0.3648 -3.6517  0.9521
  766MOL0     H 1084   0.559  10.310  11.791  0.1708  0.1461  0.7465
  766MOL0     H 1085   0.675  10.225  11.885  0.6072 -0.1475 -1.2590
  766MOL0     H 1086   0.636  10.421  12.055  0.3709 -0.6071 -0.5081
  766MOL0     H 1087   0.494  10.312  12.036 -1.0255 -1.7471 -1.5748
  766MOL0     H 1088   0.428  10.473  11.844  1.7708 -1.0168 -1.6023
  766MOL0     H 1089   0.557  10.581  11.907  0.9849 -0.8841  2.0918
  766MOL0     H 1090   0.290  10.492  12.025 -0.1313  0.2005 -1.6693
  766MOL0     H 1091   0.412  10.552  12.141  2.6285 -0.7188 -1.3666
  766MOL0     H 1092   0.323  10.728  11.921  2.6814  2.0627  0.3766
  766MOL0     H 1093   0.414  10.768  12.077 -1.2557  2.0029  0.7424
  766MOL0     H 1094   1.017  10.273  11.291  0.3378 -1.8356  2.0995
  766MOL0     H 1095   1.229  10.315  11.180  1.9551 -0.2460  1.1841
  766MOL0     H 1096   1.704  10.758  11.230  2.8841  0.2331  0.7486
  766MOL0     H 1097   1.918  10.710  11.119 -1.9136  1.5431  1.0568
  766MOL0     H 1098   0.445  10.621  10.571 -0.2845  0.2681 -0.1158
  766MOL0     H 1099   0.195  10.641  10.512 -4.0272  4.1522  0.4577
  766MOL0     H 1100  -0.255  10.703  10.649  3.0185 -1.2177  1.7758
  766MOL0     H 1101  -0.506  10.642  10.647  1.0278  0.7897  2.6860
  766MOL0     H 1102  -0.728  10.440  10.404 -0.1859  0.3617  1.0755
  766MOL0     H 1103  -0.639  10.584  10.453 -0.1785 -0.2656 -1.9602
  766MOL0     H 1104  -0.788  10.469  10.672  1.8476 -0.9312 -0.9323
  766MOL0     H 1105  -0.763  10.641  10.617  1.0798  0.3907 -1.7462
  766MOL0     H 1106  -1.022  10.559  10.598 -0.8917 -1.8476 -0.7639
  766MOL0     H 1107  -0.960  10.444  10.484 -0.6131  1.5193 -2.8719
  766MOL0     H 1108  -0.911  10.745  10.454  2.1647 -1.7652  0.5019
  766MOL0     H 1109  -0.885  10.614  10.339  1.9201  3.1432 -0.6122
  766MOL0     H 1110  -1.286  10.670  10.249 -0.9437 -1.9883  1.5242
  766MOL0     H 1111  -0.409  10.250  10.504  0.0118 -1.0507  1.9075
  766MOL0     H 1112  -0.158  10.305  10.528  0.3099  0.3567  0.7444
  767MOL0     O 1113   2.518   6.780   9.435  0.2046 -0.0431 -0.0256
  767MOL0     C 1114   2.443   6.706   9.378  0.9747 -0.8592  0.0361
  767MOL0     O 1115   2.347   6.624   9.428 -0.6065 -0.0859 -0.3483
  767MOL0     C 1116   2.301   6.635   9.561 -0.4491 -0.5042 -0.5234
  767MOL0     C 1117   2.251   6.528   9.623  0.8335  0.2407 -0.3618
  767MOL0     C 1118   2.201   6.534   9.753  0.4163  0.0020  0.0761
  767MOL0     C 1119   2.201   6.654   9.822  0.3145 -0.3356 -0.1420
  767MOL0     O 1120   2.130   6.656   9.947  0.4358 -0.2023  0.4971
  767MOL0     C 1121   2.113   6.770  10.034 -0.4561 -0.2324 -0.8815
  767MOL0     C 1122   1.975   6.837  10.026  0.1203  0.2459 -0.5327
  767MOL0     C 1123   1.964   6.928   9.897  0.4292 -0.3237  0.2489
  767MOL0     C 1124   1.846   7.021   9.883  0.2162  0.2672 -0.3283
  767MOL0     C 1125   1.720   6.948   9.833  0.5638  0.2218  0.4723
  767MOL0     C 1126   1.588   7.016   9.876  0.6361  0.0429 -0.4927
  767MOL0     C 1127   1.542   6.963  10.018  0.1375  0.3433  0.2976
  767MOL0     C 1128   1.428   7.040  10.079  0.8135  0.0467  0.1224
  767MOL0     N 1129   1.447   7.182  10.088 -0.5149  0.0070  0.5481
  767MOL0     C 1130   1.526   7.253  10.167 -0.1938  0.5335  0.3402
  767MOL0     C 1131   1.491   7.384  10.142 -0.6567 -0.4545  0.5566
  767MOL0     C 1132   1.561   7.499  10.208  0.6695  0.3384  0.3338
  767MOL0     C 1133   1.692   7.547  10.129  0.3013  0.0921  0.2882
  767MOL0     C 1134   1.791   7.433  10.112  0.7172 -0.7789 -0.5227
  767MOL0     C 1135   1.925   7.481  10.065 -0.2126  0.0924 -0.1033
  767MOL0     O 1136   1.976   7.555  10.179 -0.1186  0.3760  0.2353
  767MOL0     C 1137   2.081   7.638  10.162 -0.1785  0.7353 -0.5744
  767MOL0     C 1138   2.159   7.640  10.045  0.7317 -0.4537 -1.3978
  767MOL0     C 1139   2.270   7.717  10.027 -0.2757 -0.4464  0.4038
  767MOL0     C 1140   2.321   7.791  10.128 -0.4600  0.5164  0.6187
  767MOL0     C 1141   2.441   7.872  10.112  0.4121 -0.3013  0.2708
  767MOL0     O 1142   2.508   7.874   9.996 -0.3907 -0.6631  0.6845
  767MOL0     C 1143   2.614   7.961   9.980  0.4771  0.5851  0.1846
  767MOL0     C 1144   2.748   7.910   9.956 -0.2826 -0.2066 -1.0049
  767MOL0     C 1145   2.852   8.001   9.932  1.1690 -0.7217  0.2518
  767MOL0     C 1146   2.833   8.136   9.948  0.7527  0.0681 -0.5859
  767MOL0     O 1147   2.933   8.227   9.915  0.4017  0.0946 -0.9709
  767MOL0     C 1148   2.901   8.369   9.898 -0.4678  0.0300 -0.2706
  767MOL0     C 1149   3.020   8.439   9.830 -0.0431 -0.1572 -0.0512
  767MOL0     C 1150   3.150   8.451   9.916 -0.1734  0.1661 -1.1987
  767MOL0     C 1151   3.256   8.489   9.821 -0.3587 -0.1405 -0.0951
  767MOL0     C 1152   3.373   8.538   9.907 -0.1962 -0.5241  0.4752
  767MOL0     C 1153   3.445   8.430   9.987 -1.0290 -0.6559  0.0261
  767MOL0     C 1154   3.594   8.460  10.020 -0.4167 -0.5114 -0.2007
  767MOL0     C 1155   3.635   8.343  10.115 -0.9355  0.5606 -0.0190
  767MOL0    Cl 1156   3.625   8.191  10.028  0.2034 -0.4615  0.1471
  767MOL0     C 1157   2.704   8.180   9.978 -0.4813 -0.5537  0.0238
  767MOL0     C 1158   2.598   8.091  10.000 -0.0045 -0.3433  0.3075
  767MOL0     O 1159   2.474   7.936  10.207  0.3187  0.0529 -0.0730
  767MOL0     C 1160   2.240   7.796  10.246  0.0844  0.3042 -0.0399
  767MOL0     C 1161   2.120   7.722  10.262  0.2038 -0.0144 -0.8309
  767MOL0     N 1162   1.385   7.392  10.059  0.8887  0.2984 -0.3743
  767MOL0     N 1163   1.367   7.267  10.020  0.0911 -0.3065  0.6411
  767MOL0     C 1164   2.252   6.763   9.757 -0.6683 -0.6889  0.1298
  767MOL0     C 1165   2.305   6.761   9.628  0.1471 -0.2135  0.6342
  767MOL0     C 1166   2.475   6.687   9.235  0.2950  0.6412  0.2959
  767MOL0     C 1167   2.559   6.769   9.157 -0.0686 -0.1454  0.2961
  767MOL0     C 1168   2.591   6.743   9.031  0.0278 -0.0981 -0.0179
  767MOL0     C 1169   2.526   6.641   8.961 -0.5823  0.1739  0.0425
  767MOL0     O 1170   2.568   6.621   8.835  0.5117 -0.1229  0.4078
  767MOL0     C 1171   2.706   6.592   8.823 -0.2855  0.4482  0.1940
  767MOL0     C 1172   2.727   6.467   8.744 -0.7894  0.0632 -0.0817
  767MOL0     C 1173   2.636   6.447   8.612  0.3371 -0.7277 -0.2290
  767MOL0     C 1174   2.656   6.578   8.526  0.1194 -0.0134 -0.2384
  767MOL0     C 1175   2.612   6.558   8.388 -1.2263  0.5689 -1.1898
  767MOL0     C 1176   2.588   6.559   8.275 -0.5094 -0.3484 -0.1625
  767MOL0     C 1177   2.423   6.570   9.019 -0.7210 -0.4140  0.1503
  767MOL0     C 1178   2.408   6.587   9.159 -0.1461  0.4804  0.3583
  767MOL0     H 1179   2.246   6.434   9.569 -0.2617  0.6521 -1.0226
  767MOL0     H 1180   2.167   6.454   9.817 -1.3593  1.5365  1.1762
  767MOL0     H 1181   2.183   6.853  10.024  0.5868 -0.9018  0.5124
  767MOL0     H 1182   2.132   6.727  10.133 -1.0314 -1.2234 -1.1824
  767MOL0     H 1183   1.964   6.908  10.109  1.7038  0.1290 -0.2003
  767MOL0     H 1184   1.890   6.768  10.031  2.1270 -2.3733 -0.5761
  767MOL0     H 1185   1.973   6.859   9.812  1.5042  0.6795 -0.4692
  767MOL0     H 1186   2.051   6.993   9.893 -1.1468  2.2754  3.3973
  767MOL0     H 1187   1.828   7.058   9.984 -0.3325 -3.9979  1.3614
  767MOL0     H 1188   1.867   7.101   9.811 -2.8157  1.1147 -0.4295
  767MOL0     H 1189   1.723   6.843   9.865 -1.6595  0.1336  0.5345
  767MOL0     H 1190   1.729   6.934   9.725 -2.1454 -0.1132  0.2271
  767MOL0     H 1191   1.515   6.978   9.803  0.4191  0.1377 -0.3276
  767MOL0     H 1192   1.590   7.125   9.877  0.5692  0.0443  0.6961
  767MOL0     H 1193   1.514   6.859  10.004  3.1815 -0.3239 -1.7511
  767MOL0     H 1194   1.630   6.972  10.082 -0.5555  0.6758  1.2229
  767MOL0     H 1195   1.394   7.009  10.178 -0.3593  0.6722 -0.0670
  767MOL0     H 1196   1.339   7.030  10.017  0.5699  0.9102  0.3077
  767MOL0     H 1197   1.604   7.209  10.228  1.4202  1.3680 -1.0307
  767MOL0     H 1198   1.593   7.472  10.309  3.3769 -1.1870 -0.8261
  767MOL0     H 1199   1.494   7.586  10.205 -0.7096 -0.6575 -3.3367
  767MOL0     H 1200   1.732   7.642  10.166 -3.3756  2.2753 -0.7296
  767MOL0     H 1201   1.655   7.584  10.033  2.4014 -0.1260 -0.6645
  767MOL0     H 1202   1.804   7.390  10.212  0.3015  1.4298  0.5601
  767MOL0     H 1203   1.746   7.357  10.048 -3.0439  0.2147  0.6737
  767MOL0     H 1204   1.916   7.528   9.967  1.7454 -1.2934 -1.0192
  767MOL0     H 1205   1.984   7.389  10.051 -1.4585 -0.5302 -1.5001
  767MOL0     H 1206   2.130   7.580   9.959  1.8893 -3.2859  0.0569
  767MOL0     H 1207   2.328   7.696   9.937 -1.3821 -1.2083 -0.1575
  767MOL0     H 1208   2.764   7.803   9.954 -0.5667 -0.3083  0.6937
  767MOL0     H 1209   2.952   7.962   9.912  2.0096  0.5101  1.8722
  767MOL0     H 1210   2.880   8.408   9.998  1.1187 -2.1393  0.9944
  767MOL0     H 1211   2.814   8.368   9.832  0.6843  0.3404 -1.8319
  767MOL0     H 1212   2.991   8.530   9.777 -0.2510 -0.1760  0.0276
  767MOL0     H 1213   3.036   8.369   9.747  2.4658 -2.0508  1.8513
  767MOL0     H 1214   3.180   8.355   9.958  1.4787  0.7294 -0.9807
  767MOL0     H 1215   3.136   8.523   9.997 -0.3963  0.7089 -1.7144
  767MOL0     H 1216   3.269   8.408   9.748 -1.6459 -1.5965  1.2041
  767MOL0     H 1217   3.226   8.582   9.771 -1.9166 -0.1061  0.8460
  767MOL0     H 1218   3.341   8.604   9.988  2.8573  2.9692 -0.8949
  767MOL0     H 1219   3.447   8.600   9.856  0.0452 -0.5151  0.8328
  767MOL0     H 1220   3.424   8.340   9.928 -3.2896 -0.4215  0.3963
  767MOL0     H 1221   3.395   8.418  10.083  0.1500  1.7216  1.0075
  767MOL0     H 1222   3.657   8.468   9.931  0.5709  3.7770  0.6725
  767MOL0     H 1223   3.606   8.562  10.058  0.3282  0.5151 -2.9229
  767MOL0     H 1224   3.565   8.338  10.199 -2.5496  2.1054 -1.1939
  767MOL0     H 1225   3.737   8.366  10.147 -0.2719  0.4507 -1.9439
  767MOL0     H 1226   2.671   8.283   9.982  0.1797 -0.0303 -3.6815
  767MOL0     H 1227   2.505   8.135  10.033  0.6411  1.2109  0.1169
  767MOL0     H 1228   2.259   7.868  10.326  0.3813 -0.7271  0.8441
  767MOL0     H 1229   2.056   7.725  10.350  1.9634  3.4132  0.5074
  767MOL0     H 1230   2.242   6.860   9.806  2.4798  1.7989 -3.5247
  767MOL0     H 1231   2.339   6.846   9.570  1.2691  0.2732  1.9336
  767MOL0     H 1232   2.602   6.863   9.189 -0.5046  0.0045  0.4477
  767MOL0     H 1233   2.660   6.809   8.980 -0.0009  0.5576  0.7666
  767MOL0     H 1234   2.750   6.572   8.922 -1.7325 -3.2020  0.2486
  767MOL0     H 1235   2.759   6.678   8.782 -1.0729  1.6308  1.5432
  767MOL0     H 1236   2.829   6.446   8.713 -1.7933 -3.2590 -1.6933
  767MOL0     H 1237   2.700   6.387   8.814  0.2007 -0.3658 -0.1768
  767MOL0     H 1238   2.529   6.440   8.634 -0.0712 -0.7900 -2.0698
  767MOL0     H 1239   2.663   6.358   8.555  0.8168 -0.0096 -1.1577
  767MOL0     H 1240   2.591   6.656   8.568 -1.2125  0.5692 -3.0887
  767MOL0     H 1241   2.761   6.605   8.515  0.3296 -1.7925 -4.9220
  767MOL0     H 1242   2.579   6.570   8.169 -1.0956  1.4191  0.0376
  767MOL0     H 1243   2.356   6.510   8.958 -1.8288  1.3630 -0.4501
  767MOL0     H 1244   2.343   6.516   9.208  0.7366 -1.4209 -1.0731
  768MOL0     O 1245   0.417  11.054   4.985  0.5607  0.6540 -0.4201
  768MOL0     C 1246   0.498  11.055   5.076  0.4426 -0.8035 -0.1310
  768MOL0     O 1247   0.465  11.089   5.205 -0.1145  0.2932 -1.2512
  768MOL0     C 1248   0.340  11.136   5.241 -0.0433 -0.4270  0.5262
  768MOL0     C 1249   0.220  11.100   5.183 -0.0486  0.3380  1.0668
  768MOL0     C 1250   0.096  11.165   5.209 -0.0625 -0.1888  1.5641
  768MOL0     C 1251   0.097  11.274   5.291 -0.4938  0.4882 -0.1238
  768MOL0     O 1252  -0.016  11.339   5.325  0.3990  0.0544 -0.3080
  768MOL0     C 1253  -0.009  11.479   5.368  0.2174  0.5669  0.0706
  768MOL0     C 1254  -0.144  11.541   5.343  0.0062 -0.5572 -0.0410
  768MOL0     C 1255  -0.147  11.687   5.409  0.0226  0.2336  0.1114
  768MOL0     C 1256  -0.262  11.776   5.355  0.0045  0.1969 -0.8699
  768MOL0     C 1257  -0.259  11.915   5.410 -1.2993  0.9855  0.1093
  768MOL0     C 1258  -0.351  12.015   5.338 -0.0044 -0.3453  0.7507
  768MOL0     C 1259  -0.505  11.969   5.314  0.5015  0.3026  0.1994
  768MOL0     C 1260  -0.576  11.918   5.436  0.3671  0.2525  0.0459
  768MOL0     N 1261  -0.571  12.023   5.544  0.2930  0.0368 -1.0460
  768MOL0     C 1262  -0.668  12.117   5.567 -0.1692  0.1950 -1.4849
  768MOL0     C 1263  -0.647  12.165   5.688  0.3779 -0.2736  0.6126
  768MOL0     C 1264  -0.724  12.270   5.765  0.1265  0.1709  0.1033
  768MOL0     C 1265  -0.828  12.357   5.687  0.2647  0.1564 -0.0649
  768MOL0     C 1266  -0.973  12.308   5.717 -0.6491  0.1351 -0.5991
  768MOL0     C 1267  -1.068  12.422   5.705  0.5191  0.1437 -1.5888
  768MOL0     O 1268  -1.176  12.407   5.800  0.9020  0.0739 -0.1305
  768MOL0     C 1269  -1.277  12.501   5.794  0.6325  0.9493  0.2312
  768MOL0     C 1270  -1.307  12.557   5.916  0.8384 -0.5232 -0.6945
  768MOL0     C 1271  -1.406  12.660   5.929 -0.0356  0.1676 -0.2354
  768MOL0     C 1272  -1.477  12.700   5.814  0.5290 -0.9061 -0.9526
  768MOL0     C 1273  -1.565  12.817   5.810  0.7638  0.4597 -0.0667
  768MOL0     O 1274  -1.566  12.895   5.924 -0.4416  0.1629 -0.2054
  768MOL0     C 1275  -1.669  12.978   5.941  0.4068 -0.2823  0.0047
  768MOL0     C 1276  -1.798  12.937   5.938  0.6123 -0.2256 -0.2371
  768MOL0     C 1277  -1.907  13.018   5.986 -0.1309  0.5426  0.6958
  768MOL0     C 1278  -1.883  13.143   6.038 -0.3701 -0.1683 -0.1804
  768MOL0     O 1279  -1.964  13.225   6.104  0.4650 -0.6308  0.1185
  768MOL0     C 1280  -2.101  13.178   6.143  0.0184  0.1896  0.3491
  768MOL0     C 1281  -2.171  13.282   6.234  0.0068  0.1329 -0.0371
  768MOL0     C 1282  -2.103  13.304   6.369 -0.8682  0.1072 -0.4601
  768MOL0     C 1283  -2.191  13.356   6.483  0.8703 -0.2356  0.1856
  768MOL0     C 1284  -2.310  13.263   6.523  0.3114 -0.3647 -0.4528
  768MOL0     C 1285  -2.360  13.313   6.659  0.6098 -0.3962  0.2293
  768MOL0     C 1286  -2.488  13.246   6.693 -0.5494 -0.3735 -0.5637
  768MOL0     C 1287  -2.617  13.319   6.679 -1.0860  0.0498  1.0936
  768MOL0    Cl 1288  -2.677  13.370   6.507 -0.0905 -0.0406  0.1915
  768MOL0     C 1289  -1.756  13.182   6.057 -0.4016  0.4382 -0.1242
  768MOL0     C 1290  -1.647  13.103   6.004  0.3195 -0.2170  0.4085
  768MOL0     O 1291  -1.621  12.844   5.707  0.5827 -0.2195  0.3263
  768MOL0     C 1292  -1.443  12.647   5.690  0.2177  0.1137 -0.0704
  768MOL0     C 1293  -1.345  12.544   5.680  0.0020 -0.4011  0.8151
  768MOL0     N 1294  -0.541  12.095   5.745 -0.1412 -0.6323  0.2277
  768MOL0     N 1295  -0.492  12.020   5.651 -0.5436 -0.2396  0.8601
  768MOL0     C 1296   0.217  11.314   5.350  0.1229  0.0525 -0.5557
  768MOL0     C 1297   0.339  11.246   5.321  0.0199 -0.1670 -1.1364
  768MOL0     C 1298   0.637  11.026   5.045 -0.3308 -0.1962 -0.3236
  768MOL0     C 1299   0.687  10.979   4.919 -0.4529 -0.7893  0.6430
  768MOL0     C 1300   0.826  10.981   4.894  0.4721  0.9004 -0.0775
  768MOL0     C 1301   0.913  10.984   4.995 -0.4173 -0.3412 -0.5422
  768MOL0     O 1302   1.045  10.961   4.960  0.0622  0.1265  0.5254
  768MOL0     C 1303   1.160  10.954   5.050  0.2928 -0.2497  0.0185
  768MOL0     C 1304   1.215  11.092   5.070  0.4306  0.5687  0.7080
  768MOL0     C 1305   1.255  11.164   4.940 -0.7695  0.3080  0.4230
  768MOL0     C 1306   1.258  11.312   4.959  0.1477 -0.2163 -0.6924
  768MOL0     C 1307   1.349  11.356   5.060 -1.1342 -0.1128  0.0476
  768MOL0     C 1308   1.429  11.400   5.139 -0.0934 -0.6594  0.8105
  768MOL0     C 1309   0.870  11.020   5.124 -0.2853 -0.2787  0.1054
  768MOL0     C 1310   0.734  11.042   5.150 -0.0532  0.6709  0.3067
  768MOL0     H 1311   0.202  11.026   5.106 -3.4266  1.9018  0.1589
  768MOL0     H 1312   0.004  11.139   5.157  2.7369 -3.0408 -2.4730
  768MOL0     H 1313   0.056  11.542   5.306  0.0911  2.1740  1.4991
  768MOL0     H 1314   0.015  11.486   5.474 -3.0933  0.4459  0.9403
  768MOL0     H 1315  -0.227  11.481   5.381  0.3184 -2.4910 -2.1812
  768MOL0     H 1316  -0.161  11.551   5.235 -3.8741 -1.9403  0.3034
  768MOL0     H 1317  -0.053  11.737   5.382 -0.4280 -0.3749 -3.0233
  768MOL0     H 1318  -0.153  11.675   5.517  4.5578 -1.5932  0.3747
  768MOL0     H 1319  -0.272  11.775   5.246 -2.6083  0.8626 -0.6869
  768MOL0     H 1320  -0.350  11.716   5.378  0.6350  0.2177  1.8862
  768MOL0     H 1321  -0.157  11.954   5.402 -0.8904 -0.3351 -1.5123
  768MOL0     H 1322  -0.287  11.901   5.515 -1.1891 -0.5991 -0.0620
  768MOL0     H 1323  -0.304  12.048   5.245  0.1639 -1.8264  0.2810
  768MOL0     H 1324  -0.358  12.101   5.404  0.5715 -1.0796  1.7990
  768MOL0     H 1325  -0.564  12.059   5.296 -0.0920  0.1582  1.3190
  768MOL0     H 1326  -0.514  11.900   5.229  2.3877 -0.3912  0.5164
  768MOL0     H 1327  -0.530  11.824   5.466  2.9970  1.4743  0.1660
  768MOL0     H 1328  -0.677  11.899   5.399  0.3976  0.0114  0.0870
  768MOL0     H 1329  -0.751  12.134   5.499 -1.3511 -1.1128 -0.4325
  768MOL0     H 1330  -0.651  12.341   5.805  1.2156 -1.3407  0.8683
  768MOL0     H 1331  -0.768  12.215   5.849  1.3663 -0.6176  0.2594
  768MOL0     H 1332  -0.797  12.363   5.583  2.1181 -0.3051  0.4157
  768MOL0     H 1333  -0.820  12.459   5.726  2.4401 -0.3513  1.0154
  768MOL0     H 1334  -1.000  12.224   5.652  1.3519 -2.3596  1.5640
  768MOL0     H 1335  -0.973  12.269   5.819  0.1443  1.2070 -0.1651
  768MOL0     H 1336  -1.113  12.414   5.605 -0.1117  1.1266 -1.3933
  768MOL0     H 1337  -1.032  12.523   5.730  1.8604 -1.5094  4.9719
  768MOL0     H 1338  -1.251  12.520   6.001 -0.6131  0.3252  0.6715
  768MOL0     H 1339  -1.429  12.719   6.017 -0.5948  0.5007 -0.5993
  768MOL0     H 1340  -1.826  12.845   5.888 -0.6371  1.1688 -2.2962
  768MOL0     H 1341  -2.007  12.977   5.989 -0.0341  0.2043 -0.2074
  768MOL0     H 1342  -2.092  13.081   6.194  1.7674 -0.6346 -1.3842
  768MOL0     H 1343  -2.165  13.164   6.056 -3.3808  3.9247  1.9481
  768MOL0     H 1344  -2.275  13.254   6.252  0.6660 -1.7921  1.0893
  768MOL0     H 1345  -2.176  13.384   6.195 -1.0772  0.2839  0.4668
  768MOL0     H 1346  -2.018  13.368   6.343  0.3491 -2.3860 -3.2253
  768MOL0     H 1347  -2.071  13.207   6.408  0.7837  0.5936 -0.5344
  768MOL0     H 1348  -2.121  13.369   6.566  1.7639  1.9259 -0.8430
  768MOL0     H 1349  -2.239  13.448   6.449  0.9091 -0.1977  0.2331
  768MOL0     H 1350  -2.279  13.158   6.529 -4.9941 -2.0826  2.4455
  768MOL0     H 1351  -2.383  13.277   6.443  3.5122  3.6816 -3.1556
  768MOL0     H 1352  -2.366  13.422   6.650  2.9705 -0.1646  0.7697
  768MOL0     H 1353  -2.288  13.283   6.735 -0.3381 -3.1839  0.1277
  768MOL0     H 1354  -2.502  13.161   6.626 -1.6285 -1.0785  0.5238
  768MOL0     H 1355  -2.482  13.207   6.795 -0.9717 -0.5089 -0.5882
  768MOL0     H 1356  -2.601  13.412   6.736 -0.4993  1.0743 -0.6625
  768MOL0     H 1357  -2.692  13.254   6.726 -1.2002 -0.4457  0.2371
  768MOL0     H 1358  -1.736  13.264   6.125  1.5802 -1.8639  2.2799
  768MOL0     H 1359  -1.543  13.125   6.025  0.3427 -0.8057  0.9289
  768MOL0     H 1360  -1.491  12.674   5.597  2.5523 -0.5232 -1.5433
  768MOL0     H 1361  -1.329  12.488   5.589 -1.8060 -4.0401  2.5235
  768MOL0     H 1362   0.232  11.398   5.417  0.3625  1.1326 -1.9093
  768MOL0     H 1363   0.431  11.270   5.374 -0.8998 -0.5178  0.7006
  768MOL0     H 1364   0.629  10.954   4.831  2.9364  1.3465 -2.4987
  768MOL0     H 1365   0.884  10.961   4.804  1.4278  0.7396  0.5653
  768MOL0     H 1366   1.245  10.896   5.015  4.2307  2.2403  4.3365
  768MOL0     H 1367   1.132  10.910   5.147  2.0186  2.3405  1.8347
  768MOL0     H 1368   1.141  11.151   5.125  0.9104  1.2304  0.6435
  768MOL0     H 1369   1.300  11.084   5.138  0.0230  1.3846  1.3269
  768MOL0     H 1370   1.177  11.137   4.868  2.9540 -3.6953 -2.6803
  768MOL0     H 1371   1.343  11.117   4.895 -2.1582 -3.0652  0.9897
  768MOL0     H 1372   1.277  11.359   4.861  0.6549 -0.2088 -0.5928
  768MOL0     H 1373   1.160  11.357   4.980 -0.1946  0.8079 -3.9102
  768MOL0     H 1374   1.489  11.439   5.219  1.3779  0.1037 -0.6186
  768MOL0     H 1375   0.943  11.025   5.204 -0.9459 -1.2559  0.7896
  768MOL0     H 1376   0.703  11.068   5.250 -0.0740 -1.8013  1.0175
  769MOL0     O 1377   7.905   9.559   8.827 -0.7931 -0.4319  0.3538
  769MOL0     C 1378   7.970   9.666   8.832 -0.6209 -0.0002 -0.3928
  769MOL0     O 1379   7.923   9.790   8.842 -0.1631 -0.0100 -0.3875
  769MOL0     C 1380   7.789   9.812   8.817 -0.1009 -0.2022 -0.8384
  769MOL0     C 1381   7.759   9.878   8.705  0.3872  0.2436  0.7795
  769MOL0     C 1382   7.623   9.904   8.666 -0.2092  0.6386  0.1642
  769MOL0     C 1383   7.522   9.861   8.750  0.4343 -0.1976 -0.7654
  769MOL0     O 1384   7.383   9.891   8.725  0.3082 -0.1473  0.4414
  769MOL0     C 1385   7.354  10.012   8.652  0.0731  0.7256 -0.0537
  769MOL0     C 1386   7.223  10.070   8.696 -0.4233  0.6930  0.7844
  769MOL0     C 1387   7.124  10.069   8.577  0.6878 -0.0511  0.6572
  769MOL0     C 1388   6.987  10.121   8.625 -0.2197  0.5918  0.2688
  769MOL0     C 1389   6.870  10.098   8.529 -0.4117  0.1035 -0.6406
  769MOL0     C 1390   6.824   9.948   8.534  0.3767  0.7662  0.8295
  769MOL0     C 1391   6.713   9.916   8.429 -0.2332 -0.0498  0.2444
  769MOL0     C 1392   6.580   9.971   8.479  1.4173 -0.6830  0.2906
  769MOL0     N 1393   6.473   9.926   8.390 -0.0230  0.6995  0.4442
  769MOL0     C 1394   6.430   9.789   8.382  0.1388 -0.6934 -0.0743
  769MOL0     C 1395   6.324   9.786   8.302 -0.0165 -0.1620  0.3182
  769MOL0     C 1396   6.237   9.668   8.275  0.9457 -0.0571  0.3378
  769MOL0     C 1397   6.111   9.686   8.188 -0.0866 -0.1993 -0.2269
  769MOL0     C 1398   6.134   9.718   8.051 -0.5789 -0.6371  0.4087
  769MOL0     C 1399   6.017   9.715   7.946 -0.0449 -0.8447  0.2407
  769MOL0     O 1400   5.902   9.795   7.977 -0.3764  0.2905 -0.3776
  769MOL0     C 1401   5.805   9.826   7.892  0.6091  0.1378  0.5923
  769MOL0     C 1402   5.723   9.935   7.909  0.1467 -0.6912 -0.4449
  769MOL0     C 1403   5.622   9.961   7.824 -0.2480 -0.6440  0.1114
  769MOL0     C 1404   5.594   9.881   7.717 -0.4667 -0.0083 -0.2810
  769MOL0     C 1405   5.481   9.898   7.623 -0.6373  0.8516 -0.1909
  769MOL0     O 1406   5.425   9.780   7.573  0.0814 -0.2608  0.3998
  769MOL0     C 1407   5.302   9.793   7.518  0.2380 -0.2725  0.6569
  769MOL0     C 1408   5.194   9.857   7.584  0.8332 -0.1415 -0.6606
  769MOL0     C 1409   5.076   9.880   7.520  0.9295  0.3739 -0.6753
  769MOL0     C 1410   5.055   9.857   7.378 -0.8537  0.2006 -0.1081
  769MOL0     O 1411   4.934   9.881   7.320 -0.1772 -0.2146  0.1609
  769MOL0     C 1412   4.918   9.854   7.178  0.1556 -0.6567 -0.4304
  769MOL0     C 1413   4.775   9.847   7.141 -0.1329  0.9531  0.9260
  769MOL0     C 1414   4.708   9.980   7.147 -0.0563 -0.0008 -0.1986
  769MOL0     C 1415   4.561   9.979   7.116  0.4684 -0.1573  0.1585
  769MOL0     C 1416   4.481   9.907   7.234 -1.2827  0.5088  0.4598
  769MOL0     C 1417   4.332   9.882   7.197 -0.7306  1.0812 -0.3039
  769MOL0     C 1418   4.310   9.774   7.085 -0.5828  0.2048 -0.6994
  769MOL0     C 1419   4.155   9.752   7.069 -0.0060  0.2582  0.0049
  769MOL0    Cl 1420   4.076   9.877   6.969 -0.5639  0.0439  0.2749
  769MOL0     C 1421   5.167   9.807   7.316  0.2753 -0.6637  0.1864
  769MOL0     C 1422   5.280   9.767   7.380 -0.3487 -0.1844 -0.6327
  769MOL0     O 1423   5.467  10.005   7.566  0.0056 -0.1594 -1.0059
  769MOL0     C 1424   5.677   9.770   7.700  0.1671 -0.5794  0.0392
  769MOL0     C 1425   5.782   9.742   7.784 -0.4608  0.8331 -0.0576
  769MOL0     N 1426   6.291   9.918   8.276 -0.1144 -0.5293  0.7554
  769MOL0     N 1427   6.389   9.995   8.310 -0.1012  0.3819 -0.5534
  769MOL0     C 1428   7.550   9.779   8.856  0.0093  0.6244  0.1584
  769MOL0     C 1429   7.684   9.758   8.896 -0.4419  0.1842  0.2007
  769MOL0     C 1430   8.119   9.646   8.832 -0.4151  0.0751  0.0939
  769MOL0     C 1431   8.210   9.758   8.848 -0.2662  0.3006 -0.3370
  769MOL0     C 1432   8.349   9.744   8.860 -0.3331  0.3318  0.0258
  769MOL0     C 1433   8.405   9.612   8.868  0.5405 -0.8149  0.0625
  769MOL0     O 1434   8.531   9.573   8.896 -0.6469  0.3989 -0.1482
  769MOL0     C 1435   8.630   9.676   8.905 -0.1533 -0.4808 -0.9064
  769MOL0     C 1436   8.773   9.613   8.920  0.7620 -0.1748 -0.3576
  769MOL0     C 1437   8.802   9.514   8.803  0.0084 -1.0389  0.0899
  769MOL0     C 1438   8.917   9.429   8.841  0.5709 -0.8291 -0.1684
  769MOL0     C 1439   9.040   9.508   8.834 -0.1502 -0.2394 -0.3375
  769MOL0     C 1440   9.128   9.589   8.816 -0.1397  1.1724  0.5355
  769MOL0     C 1441   8.315   9.511   8.833  0.5711  0.1241 -0.7253
  769MOL0     C 1442   8.178   9.520   8.821  0.6448  0.1729 -0.1614
  769MOL0     H 1443   7.837   9.911   8.637 -2.2805  2.0072 -1.6703
  769MOL0     H 1444   7.609   9.965   8.578 -1.2433  0.8564  0.4747
  769MOL0     H 1445   7.371   9.993   8.546  1.5365  1.3962  0.0365
  769MOL0     H 1446   7.427  10.083   8.691  1.0630 -0.2111 -0.1580
  769MOL0     H 1447   7.240  10.177   8.714 -0.3412  0.6253  1.1151
  769MOL0     H 1448   7.179  10.025   8.786 -3.7703 -1.7237 -1.7944
  769MOL0     H 1449   7.105   9.967   8.542 -0.1680  0.3359 -0.0507
  769MOL0     H 1450   7.163  10.126   8.492 -1.4504  0.5505  0.0351
  769MOL0     H 1451   6.954  10.056   8.707 -0.3085  0.1435 -0.1180
  769MOL0     H 1452   6.990  10.224   8.662  1.4319  0.8027 -0.3549
  769MOL0     H 1453   6.899  10.119   8.426 -1.9646  1.0415 -0.9186
  769MOL0     H 1454   6.781  10.158   8.551 -2.6743 -2.5256 -1.9545
  769MOL0     H 1455   6.777   9.928   8.630 -0.9697 -3.6605 -0.4801
  769MOL0     H 1456   6.907   9.879   8.516 -0.0209 -0.1450  2.3223
  769MOL0     H 1457   6.741   9.960   8.333  1.3059  1.2044  1.2199
  769MOL0     H 1458   6.697   9.812   8.398  1.0972 -0.0365 -0.5588
  769MOL0     H 1459   6.594  10.079   8.472  2.6969 -0.8251  0.3741
  769MOL0     H 1460   6.569   9.960   8.587 -1.7088  1.9865  0.4033
  769MOL0     H 1461   6.479   9.707   8.433  2.3261  1.3076  1.2468
  769MOL0     H 1462   6.220   9.625   8.374 -1.2664  2.1309  1.0142
  769MOL0     H 1463   6.292   9.594   8.217  0.6610 -0.1641  0.2021
  769MOL0     H 1464   6.048   9.762   8.235 -0.3042 -1.4214  1.5764
  769MOL0     H 1465   6.052   9.594   8.191 -1.7596  0.7908 -0.9299
  769MOL0     H 1466   6.172   9.820   8.067 -6.1267  1.7088  1.0534
  769MOL0     H 1467   6.209   9.651   8.010  0.9328  1.2880 -0.1133
  769MOL0     H 1468   5.986   9.611   7.934 -0.3610 -0.9959  2.0893
  769MOL0     H 1469   6.057   9.741   7.847  2.8023 -2.5439  0.8390
  769MOL0     H 1470   5.743  10.000   7.994  0.5410  0.3180 -1.2888
  769MOL0     H 1471   5.577  10.059   7.836 -1.1812 -0.8373 -1.5575
  769MOL0     H 1472   5.197   9.886   7.689 -1.4616  1.0187 -0.8606
  769MOL0     H 1473   4.988   9.914   7.574  1.4642  1.3331 -0.3893
  769MOL0     H 1474   4.954   9.752   7.158  1.6107 -0.0490 -1.0904
  769MOL0     H 1475   4.976   9.915   7.108 -0.2398  0.8636  0.5140
  769MOL0     H 1476   4.728   9.776   7.210 -2.1427  0.4010 -0.9008
  769MOL0     H 1477   4.763   9.806   7.040  3.3709 -0.6484  1.0204
  769MOL0     H 1478   4.767  10.040   7.078  0.3548  0.4560  0.5361
  769MOL0     H 1479   4.719  10.014   7.250 -0.0549 -0.8289  0.0857
  769MOL0     H 1480   4.528  10.083   7.121  1.1511  0.0798 -0.1109
  769MOL0     H 1481   4.544   9.938   7.016 -2.9288 -0.5857  0.7846
  769MOL0     H 1482   4.478   9.978   7.318 -1.8398  2.2406 -0.9713
  769MOL0     H 1483   4.526   9.811   7.262  0.7231 -0.6931 -5.4402
  769MOL0     H 1484   4.300   9.982   7.166  1.1835  2.5913  2.2317
  769MOL0     H 1485   4.280   9.842   7.285 -2.4322 -0.1670 -1.7797
  769MOL0     H 1486   4.358   9.795   6.989  0.2647  1.6650  0.0064
  769MOL0     H 1487   4.352   9.685   7.131  0.3244  0.6432 -0.6589
  769MOL0     H 1488   4.096   9.735   7.159 -0.5216  0.3463 -0.3127
  769MOL0     H 1489   4.133   9.656   7.021 -0.4457  0.7032 -0.7092
  769MOL0     H 1490   5.170   9.797   7.208 -0.3804 -2.1031  0.2830
  769MOL0     H 1491   5.360   9.710   7.334  0.4364  1.6029 -1.5866
  769MOL0     H 1492   5.656   9.703   7.618 -1.2015  1.2984 -1.2264
  769MOL0     H 1493   5.838   9.653   7.758 -2.4654 -0.5846  0.2659
  769MOL0     H 1494   7.473   9.727   8.913 -2.2306  0.1093 -3.0562
  769MOL0     H 1495   7.703   9.700   8.986 -0.0912 -1.4359 -0.8652
  769MOL0     H 1496   8.168   9.858   8.849 -1.7491 -0.2780  1.7667
  769MOL0     H 1497   8.409   9.833   8.873 -2.4158  1.8996 -0.6940
  769MOL0     H 1498   8.593   9.740   8.986 -1.3232 -0.9024 -1.0893
  769MOL0     H 1499   8.643   9.731   8.811  0.3049  0.9987 -0.0057
  769MOL0     H 1500   8.846   9.695   8.919  1.7801 -1.0694 -0.8002
  769MOL0     H 1501   8.778   9.566   9.019 -2.6042 -1.4493 -0.6649
  769MOL0     H 1502   8.813   9.564   8.706  0.5233 -0.5551  0.3911
  769MOL0     H 1503   8.717   9.446   8.797 -0.6650 -0.3369  1.2495
  769MOL0     H 1504   8.905   9.376   8.936  0.7408  0.6288  0.7134
  769MOL0     H 1505   8.932   9.346   8.772  3.6075 -1.7669  1.3968
  769MOL0     H 1506   9.206   9.659   8.794  0.0602  0.9681  0.5916
  769MOL0     H 1507   8.346   9.408   8.840 -3.8722 -1.4635 -1.1723
  769MOL0     H 1508   8.120   9.430   8.800  1.5077 -0.1813 -1.1667
  770MOL0     O 1509   4.946  10.689   4.115  0.1814 -0.1664 -0.4510
  770MOL0     C 1510   4.966  10.669   3.992 -0.0285 -0.1671 -0.6230
  770MOL0     O 1511   4.865  10.680   3.896 -0.8432  0.3357 -0.3698
  770MOL0     C 1512   4.733  10.693   3.942 -1.5264 -0.1898  0.7335
  770MOL0     C 1513   4.632  10.595   3.926  0.0459  0.0548  0.0029
  770MOL0     C 1514   4.493  10.617   3.963 -0.1173  0.6648 -0.4458
  770MOL0     C 1515   4.454  10.747   4.006 -0.8383  0.8528  1.6312
  770MOL0     O 1516   4.331  10.787   4.036  0.8463  0.2589  0.1637
  770MOL0     C 1517   4.251  10.821   3.922 -0.2176  0.3987 -0.4014
  770MOL0     C 1518   4.107  10.776   3.960  0.7090  0.0525 -0.2828
  770MOL0     C 1519   4.021  10.833   3.845  0.2775 -1.2714 -0.2099
  770MOL0     C 1520   3.893  10.754   3.833  0.7637  0.2507 -0.3825
  770MOL0     C 1521   3.831  10.740   3.694  0.7473 -0.4516  1.1419
  770MOL0     C 1522   3.769  10.861   3.627  0.2960 -0.4356  0.0012
  770MOL0     C 1523   3.639  10.908   3.702 -0.4497  0.4249  0.0875
  770MOL0     C 1524   3.601  11.045   3.666  1.0566  0.3365 -0.4444
  770MOL0     N 1525   3.696  11.154   3.704 -1.0788  0.1586  0.1173
  770MOL0     C 1526   3.727  11.266   3.628 -0.1608 -0.5789  1.2275
  770MOL0     C 1527   3.820  11.331   3.700  0.0607 -0.2977  0.4593
  770MOL0     C 1528   3.892  11.466   3.681 -0.0671  0.3532  0.0259
  770MOL0     C 1529   3.880  11.529   3.541 -0.1464 -0.0293  0.1347
  770MOL0     C 1530   3.946  11.464   3.417  0.6781  0.4974  0.1218
  770MOL0     C 1531   3.968  11.560   3.299  0.2608 -0.9037 -0.4205
  770MOL0     O 1532   4.003  11.487   3.184  0.4386 -0.0111 -0.6349
  770MOL0     C 1533   4.050  11.556   3.074 -0.5511  0.1521 -0.6486
  770MOL0     C 1534   4.161  11.644   3.099  0.1872  1.3143 -0.1674
  770MOL0     C 1535   4.201  11.727   3.000 -0.0893 -0.4982  1.1089
  770MOL0     C 1536   4.150  11.724   2.864 -0.3888  0.3131  0.5756
  770MOL0     C 1537   4.204  11.810   2.766 -0.2096 -0.7853 -0.2545
  770MOL0     O 1538   4.153  11.785   2.642  0.2414  1.2562  0.4742
  770MOL0     C 1539   4.193  11.862   2.534 -0.1337  0.6584  0.5913
  770MOL0     C 1540   4.333  11.858   2.501  0.2191 -0.3741 -0.1556
  770MOL0     C 1541   4.372  11.925   2.387 -0.1126 -0.5586  0.6286
  770MOL0     C 1542   4.287  12.013   2.324  0.7824 -0.0925 -0.1668
  770MOL0     O 1543   4.341  12.084   2.218 -0.1306  0.1844 -0.2616
  770MOL0     C 1544   4.285  12.214   2.194 -0.6649 -0.2589 -0.5179
  770MOL0     C 1545   4.337  12.278   2.068 -0.2836 -0.4874 -0.9967
  770MOL0     C 1546   4.467  12.346   2.113 -0.6880  0.5088  0.2022
  770MOL0     C 1547   4.521  12.430   1.994  0.2954  0.3797 -0.5340
  770MOL0     C 1548   4.632  12.524   2.040  0.3952  0.3106 -0.6689
  770MOL0     C 1549   4.762  12.462   2.082  0.6203  0.0120  0.7240
  770MOL0     C 1550   4.863  12.539   2.177 -0.2026 -0.5893  0.0487
  770MOL0     C 1551   4.966  12.448   2.230 -0.1035 -0.0305  0.6522
  770MOL0    Cl 1552   5.094  12.399   2.105 -0.1304  0.3394  0.1656
  770MOL0     C 1553   4.148  12.016   2.353  0.2045  0.2666  0.5083
  770MOL0     C 1554   4.098  11.938   2.454  0.0548  0.5490 -0.7337
  770MOL0     O 1555   4.271  11.907   2.792  0.0928 -0.0461 -0.2089
  770MOL0     C 1556   4.049  11.626   2.839  0.6689 -0.7410 -1.1745
  770MOL0     C 1557   4.004  11.538   2.945 -0.4951  0.5369  1.0159
  770MOL0     N 1558   3.848  11.250   3.815  0.0244  0.7927  0.3115
  770MOL0     N 1559   3.785  11.136   3.808  0.6517 -0.8355  0.3810
  770MOL0     C 1560   4.551  10.846   4.015 -0.4029 -0.1865  1.5952
  770MOL0     C 1561   4.693  10.820   3.992  0.3419  0.5710  1.1922
  770MOL0     C 1562   5.098  10.629   3.949 -0.4491  0.3858 -0.2752
  770MOL0     C 1563   5.209  10.650   4.034  0.5858  0.6082 -0.2471
  770MOL0     C 1564   5.333  10.603   3.992 -1.6493 -0.0974  0.2479
  770MOL0     C 1565   5.358  10.545   3.871  0.1421  0.7176  0.7021
  770MOL0     O 1566   5.488  10.516   3.855  0.5648 -0.5950 -0.9394
  770MOL0     C 1567   5.544  10.518   3.726 -0.4189 -0.6785  0.1698
  770MOL0     C 1568   5.689  10.479   3.731 -0.2697  0.4624  0.6213
  770MOL0     C 1569   5.725  10.335   3.764  0.1013 -0.8430 -0.7880
  770MOL0     C 1570   5.868  10.316   3.814  0.2420  0.1308  0.1765
  770MOL0     C 1571   5.894  10.180   3.870  1.4468  0.1548  0.0787
  770MOL0     C 1572   5.925  10.076   3.922  0.4367 -0.0390 -0.2068
  770MOL0     C 1573   5.252  10.512   3.789 -0.0374  0.2252 -0.5098
  770MOL0     C 1574   5.118  10.553   3.828 -1.0255  0.5480 -1.0427
  770MOL0     H 1575   4.662  10.505   3.873 -1.0710  0.7549 -1.9357
  770MOL0     H 1576   4.411  10.549   3.943  0.8012 -0.6786  0.1996
  770MOL0     H 1577   4.293  10.771   3.834 -0.8945  1.4682 -1.3625
  770MOL0     H 1578   4.259  10.926   3.895 -0.4925  0.1051 -1.6881
  770MOL0     H 1579   4.072  10.827   4.050 -1.0005 -1.2246 -0.1876
  770MOL0     H 1580   4.103  10.669   3.980  1.5793  0.4132  2.2963
  770MOL0     H 1581   4.061  10.808   3.747 -1.6294 -0.2177 -1.3258
  770MOL0     H 1582   3.995  10.939   3.855 -1.9460 -1.8944  1.8321
  770MOL0     H 1583   3.915  10.650   3.858 -0.1470 -0.6179 -2.8392
  770MOL0     H 1584   3.818  10.793   3.902 -1.1493 -1.6403 -1.2540
  770MOL0     H 1585   3.762  10.655   3.703  2.0357 -2.0139 -2.0630
  770MOL0     H 1586   3.908  10.704   3.625 -1.0490  0.0061 -1.2446
  770MOL0     H 1587   3.737  10.837   3.525  2.2144  0.3616 -0.8443
  770MOL0     H 1588   3.835  10.948   3.622  1.1227 -1.1205 -2.0513
  770MOL0     H 1589   3.563  10.838   3.665  0.7145 -0.8792  0.0810
  770MOL0     H 1590   3.656  10.899   3.810  3.1422 -1.3501 -0.4660
  770MOL0     H 1591   3.503  11.068   3.709  0.8491  3.7097 -2.3608
  770MOL0     H 1592   3.586  11.042   3.558  1.5180  1.2205 -0.5483
  770MOL0     H 1593   3.688  11.296   3.531 -1.0675 -2.4897  0.9485
  770MOL0     H 1594   3.994  11.456   3.719  0.1320  0.1814 -0.5493
  770MOL0     H 1595   3.838  11.536   3.746  0.2723  1.8389 -1.2171
  770MOL0     H 1596   3.930  11.626   3.542 -0.2550  0.0365 -0.3599
  770MOL0     H 1597   3.773  11.545   3.520 -0.1179  0.5255  0.3864
  770MOL0     H 1598   4.047  11.427   3.436  0.7972  0.1307 -1.1308
  770MOL0     H 1599   3.886  11.385   3.372  0.2744  1.8334 -1.8301
  770MOL0     H 1600   4.045  11.632   3.326 -1.3957  0.2805  1.4135
  770MOL0     H 1601   3.874  11.609   3.273 -0.2292 -1.0151  1.0625
  770MOL0     H 1602   4.216  11.655   3.192  1.9152  0.5859 -1.0714
  770MOL0     H 1603   4.275  11.803   3.024 -4.1932  3.8508  1.5441
  770MOL0     H 1604   4.408  11.796   2.549 -0.2211  0.5915  1.8628
  770MOL0     H 1605   4.478  11.930   2.362 -0.3938  0.2542 -0.4421
  770MOL0     H 1606   4.296  12.283   2.278 -0.5987  0.2035 -0.8986
  770MOL0     H 1607   4.176  12.208   2.184 -0.7788 -0.1482  0.5609
  770MOL0     H 1608   4.268  12.352   2.026  0.2567 -0.6351 -2.1841
  770MOL0     H 1609   4.364  12.208   1.989 -1.2078  0.4669 -2.1909
  770MOL0     H 1610   4.541  12.274   2.148  1.7741  1.9547 -1.7169
  770MOL0     H 1611   4.442  12.408   2.200 -1.4515  0.7328 -0.1683
  770MOL0     H 1612   4.548  12.368   1.908 -0.4180 -0.8982  0.1327
  770MOL0     H 1613   4.442  12.498   1.962 -0.7982 -1.0449 -0.9937
  770MOL0     H 1614   4.566  12.572   2.114  0.1367 -0.6474 -0.2496
  770MOL0     H 1615   4.659  12.600   1.967 -2.1334  1.6762 -0.3107
  770MOL0     H 1616   4.810  12.425   1.991 -4.1359 -1.8065 -1.3500
  770MOL0     H 1617   4.744  12.366   2.131  0.1517 -1.6340 -2.4406
  770MOL0     H 1618   4.919  12.621   2.131 -2.5244  1.1443  0.1039
  770MOL0     H 1619   4.809  12.586   2.260  1.1891  0.1273  0.5829
  770MOL0     H 1620   4.914  12.367   2.282 -1.1718 -0.2976 -0.7610
  770MOL0     H 1621   5.024  12.495   2.310  1.2878 -0.9262  0.2109
  770MOL0     H 1622   4.080  12.085   2.304  1.4138 -0.0018 -1.6672
  770MOL0     H 1623   3.995  11.921   2.484  0.4478  0.0004  0.3301
  770MOL0     H 1624   4.000  11.614   2.743  0.1808 -2.1156 -0.7854
  770MOL0     H 1625   3.934  11.458   2.924  1.0431 -0.3628 -1.0358
  770MOL0     H 1626   4.520  10.936   4.066 -0.4047 -0.1609  1.5501
  770MOL0     H 1627   4.779  10.885   3.997  2.3669 -1.3031 -3.3717
  770MOL0     H 1628   5.206  10.697   4.131 -0.6848  1.7542 -0.8045
  770MOL0     H 1629   5.413  10.621   4.062 -2.1103  0.1775  0.7097
  770MOL0     H 1630   5.529  10.618   3.686  1.6541  0.2975  1.6460
  770MOL0     H 1631   5.492  10.446   3.661 -1.8108  1.5335 -1.3063
  770MOL0     H 1632   5.735  10.499   3.634  0.2776  0.1559  0.8105
  770MOL0     H 1633   5.741  10.549   3.797 -0.9844  2.2887 -0.6635
  770MOL0     H 1634   5.701  10.277   3.675 -0.5783 -2.3985  0.3467
  770MOL0     H 1635   5.657  10.299   3.842 -1.0492  3.1206  0.2230
  770MOL0     H 1636   5.921  10.322   3.719  1.8001  2.3213  1.0800
  770MOL0     H 1637   5.907  10.392   3.883  3.0270 -1.2398  0.2531
  770MOL0     H 1638   5.963   9.985   3.964  0.2639 -0.7293 -1.4755
  770MOL0     H 1639   5.282  10.475   3.691  1.9295 -1.2920  0.5937
  770MOL0     H 1640   5.033  10.552   3.761 -1.5206 -1.9300 -0.4969
  771MOL0     O 1641   6.609  10.658  10.562 -0.5837  0.2022  0.8574
  771MOL0     C 1642   6.515  10.739  10.581 -0.4888  0.4342  0.0528
  771MOL0     O 1643   6.528  10.878  10.605 -0.1350  0.1357  0.2698
  771MOL0     C 1644   6.648  10.937  10.582  0.1257 -0.0068 -0.3260
  771MOL0     C 1645   6.632  11.051  10.513  0.0185  0.4601  1.2828
  771MOL0     C 1646   6.744  11.132  10.480 -0.5273  0.0418 -0.1823
  771MOL0     C 1647   6.873  11.087  10.526  0.1892  0.8519  0.4077
  771MOL0     O 1648   6.986  11.161  10.508  0.5044 -0.8994  0.7741
  771MOL0     C 1649   6.981  11.299  10.463 -0.2211  0.4555 -0.4751
  771MOL0     C 1650   7.119  11.350  10.498  0.4393  0.4920  0.7161
  771MOL0     C 1651   7.129  11.503  10.506 -1.2344  0.3586 -0.2820
  771MOL0     C 1652   7.268  11.536  10.580  0.3849 -0.1030 -0.0200
  771MOL0     C 1653   7.308  11.684  10.561 -0.3654 -0.4095 -0.1738
  771MOL0     C 1654   7.211  11.792  10.598  0.2297 -0.2654  0.8571
  771MOL0     C 1655   7.164  11.766  10.736  0.2024 -0.2294 -0.4151
  771MOL0     C 1656   7.061  11.872  10.780 -0.3277  0.6285 -0.2451
  771MOL0     N 1657   6.929  11.892  10.711 -0.7651 -0.1366 -0.4387
  771MOL0     C 1658   6.831  11.801  10.695 -0.0105  0.0250  0.9457
  771MOL0     C 1659   6.720  11.868  10.635 -0.0898 -0.3848 -0.4680
  771MOL0     C 1660   6.584  11.805  10.615  0.7522  0.0116 -0.3237
  771MOL0     C 1661   6.462  11.908  10.614 -0.0603  0.3973  0.4052
  771MOL0     C 1662   6.445  11.989  10.485 -0.9782 -0.2811  0.5225
  771MOL0     C 1663   6.328  12.085  10.493  0.0584  0.4003  0.2077
  771MOL0     O 1664   6.206  12.007  10.533  0.3155 -0.4131  0.5984
  771MOL0     C 1665   6.094  12.032  10.465  0.0064  0.5122  0.0064
  771MOL0     C 1666   6.016  11.911  10.438 -0.7363 -0.3780 -0.2918
  771MOL0     C 1667   5.898  11.925  10.359 -0.5962  0.1040  0.5879
  771MOL0     C 1668   5.851  12.042  10.312 -0.0536  0.2041  0.5361
  771MOL0     C 1669   5.719  12.051  10.239  0.7608  0.2407 -0.5112
  771MOL0     O 1670   5.634  11.947  10.275  0.1904 -0.1628  0.6176
  771MOL0     C 1671   5.498  11.958  10.231  0.0359  0.3463  0.1603
  771MOL0     C 1672   5.399  11.923  10.320  0.4990 -0.0053  0.5216
  771MOL0     C 1673   5.262  11.942  10.291  0.2200  0.0356 -0.9547
  771MOL0     C 1674   5.219  11.981  10.170 -0.0914 -0.6599 -0.7329
  771MOL0     O 1675   5.083  11.993  10.158  0.1865  0.4456  0.0980
  771MOL0     C 1676   5.029  12.013  10.028 -0.0867  0.2945  0.4265
  771MOL0     C 1677   4.881  12.018  10.031  0.3095  0.2782  0.7440
  771MOL0     C 1678   4.835  11.875  10.086 -0.3297 -0.4375 -0.0045
  771MOL0     C 1679   4.688  11.841  10.069 -0.3892 -0.1611  0.2960
  771MOL0     C 1680   4.586  11.956  10.092  0.0400  0.0621 -0.3633
  771MOL0     C 1681   4.443  11.893  10.124  0.4485  0.2673 -0.5535
  771MOL0     C 1682   4.395  11.825   9.990  0.1576  0.0594  0.4463
  771MOL0     C 1683   4.252  11.772  10.010  0.4781  0.5888 -0.5116
  771MOL0    Cl 1684   4.251  11.624  10.107  0.4195 -0.1294  0.3375
  771MOL0     C 1685   5.318  12.008  10.068 -0.1939 -0.7082 -0.3987
  771MOL0     C 1686   5.457  11.996  10.100  0.2188 -0.2780  0.3547
  771MOL0     O 1687   5.693  12.151  10.168 -0.0407  0.7819  0.9191
  771MOL0     C 1688   5.925  12.161  10.346 -0.4986 -0.2471  0.2035
  771MOL0     C 1689   6.037  12.162  10.428 -0.5027  0.1202 -0.7157
  771MOL0     N 1690   6.757  12.005  10.630  0.3427  0.6436  0.4147
  771MOL0     N 1691   6.880  12.012  10.669  0.0612 -0.2648 -0.1461
  771MOL0     C 1692   6.880  10.965  10.597 -0.0950 -0.0336 -0.1378
  771MOL0     C 1693   6.767  10.889  10.621 -1.1932 -0.1856 -0.0686
  771MOL0     C 1694   6.380  10.698  10.592 -1.0326  0.4812 -0.3144
  771MOL0     C 1695   6.353  10.567  10.612 -0.5439 -0.3649 -0.1929
  771MOL0     C 1696   6.217  10.525  10.628 -0.7271  0.2109 -1.1619
  771MOL0     C 1697   6.108  10.610  10.629 -0.1406 -0.2023  0.0039
  771MOL0     O 1698   5.983  10.551  10.636  0.6749 -0.6443 -0.8024
  771MOL0     C 1699   5.864  10.633  10.662 -0.2133  0.2211  0.2598
  771MOL0     C 1700   5.799  10.557  10.773 -0.1924  0.1736 -0.7004
  771MOL0     C 1701   5.663  10.613  10.821 -0.0776  0.1079  0.1966
  771MOL0     C 1702   5.564  10.567  10.712  0.0397 -0.4078  0.1409
  771MOL0     C 1703   5.431  10.599  10.748 -0.1176  0.0205  0.6288
  771MOL0     C 1704   5.324  10.640  10.758  0.9010  0.0879 -0.0406
  771MOL0     C 1705   6.140  10.743  10.612  0.1107 -0.0043 -0.2773
  771MOL0     C 1706   6.270  10.791  10.595 -0.2123 -0.6065 -0.3873
  771MOL0     H 1707   6.531  11.081  10.486  0.6400  0.9868 -0.6221
  771MOL0     H 1708   6.734  11.225  10.425 -3.4442  0.6402  1.1554
  771MOL0     H 1709   6.901  11.340  10.525 -1.0816  1.2483 -2.0525
  771MOL0     H 1710   6.945  11.308  10.361 -3.9276  2.6480  0.8452
  771MOL0     H 1711   7.191  11.301  10.431  0.3058 -1.2804  1.8055
  771MOL0     H 1712   7.147  11.314  10.597 -0.6297  3.0811  2.0552
  771MOL0     H 1713   7.044  11.551  10.555 -0.3867 -0.0366  1.6807
  771MOL0     H 1714   7.121  11.548  10.407 -5.1849 -0.7297 -0.6135
  771MOL0     H 1715   7.274  11.516  10.688  2.0045 -0.7526 -0.2005
  771MOL0     H 1716   7.343  11.467  10.541  2.4887  2.5259 -0.9267
  771MOL0     H 1717   7.347  11.695  10.459  0.3866  0.7770  0.2160
  771MOL0     H 1718   7.394  11.702  10.626 -0.0154 -2.2720 -0.0767
  771MOL0     H 1719   7.122  11.775  10.537  1.2538 -0.1299 -0.7154
  771MOL0     H 1720   7.251  11.893  10.592  0.6460 -0.5293 -2.0417
  771MOL0     H 1721   7.123  11.668  10.762  0.5052  0.1039  1.4169
  771MOL0     H 1722   7.253  11.780  10.796  0.2998 -3.0792  0.2642
  771MOL0     H 1723   7.114  11.967  10.772 -2.8572  2.3934  2.2341
  771MOL0     H 1724   7.041  11.850  10.885  1.7041  1.7228  0.4103
  771MOL0     H 1725   6.836  11.695  10.720  4.1278  0.3501  2.2492
  771MOL0     H 1726   6.576  11.731  10.695 -0.1400 -0.1271 -0.5333
  771MOL0     H 1727   6.572  11.751  10.520 -0.4873  0.4476 -0.4358
  771MOL0     H 1728   6.461  11.974  10.701 -0.3979  1.0066 -0.0520
  771MOL0     H 1729   6.367  11.854  10.624 -0.2677 -0.2925 -3.6822
  771MOL0     H 1730   6.535  12.051  10.480 -2.0703  1.4327  1.1703
  771MOL0     H 1731   6.445  11.928  10.394  0.1069  0.9747 -0.3622
  771MOL0     H 1732   6.315  12.133  10.396 -3.5930 -1.0530 -0.1760
  771MOL0     H 1733   6.353  12.166  10.562 -0.4456 -0.2997  1.2455
  771MOL0     H 1734   6.051  11.811  10.461 -1.3671 -0.8981 -1.5214
  771MOL0     H 1735   5.855  11.831  10.324 -0.9836  0.9541 -1.3710
  771MOL0     H 1736   5.435  11.891  10.417  1.8812 -1.0974 -0.3018
  771MOL0     H 1737   5.187  11.907  10.361 -2.1352  4.1421 -1.1425
  771MOL0     H 1738   5.056  11.928   9.964  0.1258  0.2538  0.5677
  771MOL0     H 1739   5.064  12.103   9.977  0.5472  0.6780  1.5102
  771MOL0     H 1740   4.845  12.037   9.929  0.2277 -1.9912  0.3027
  771MOL0     H 1741   4.858  12.105  10.094  1.7665  1.6284 -0.5204
  771MOL0     H 1742   4.854  11.870  10.194 -2.2106 -0.7204  0.3633
  771MOL0     H 1743   4.898  11.798  10.042  2.7007  0.5818  2.2567
  771MOL0     H 1744   4.688  11.811   9.964  1.7147 -0.9229  0.4821
  771MOL0     H 1745   4.659  11.755  10.130 -0.9041 -3.5509 -4.2694
  771MOL0     H 1746   4.590  12.029  10.011  0.5490 -0.1945 -0.5728
  771MOL0     H 1747   4.614  12.012  10.182 -1.2928 -0.0444  0.1533
  771MOL0     H 1748   4.370  11.972  10.146  0.9322  0.3199  0.9840
  771MOL0     H 1749   4.459  11.823  10.206  2.9106 -1.7457 -2.5739
  771MOL0     H 1750   4.393  11.900   9.910 -2.2328  1.0723  1.3442
  771MOL0     H 1751   4.459  11.742   9.959  2.8148  2.0937  0.1221
  771MOL0     H 1752   4.192  11.750   9.921 -2.6761  0.8285  1.4152
  771MOL0     H 1753   4.200  11.852  10.064  3.2999  4.4250 -2.9660
  771MOL0     H 1754   5.290  12.035   9.967 -1.7360 -0.0019  0.1755
  771MOL0     H 1755   5.527  12.035  10.026  0.9514 -0.2876  1.0316
  771MOL0     H 1756   5.873  12.250  10.311 -0.2523 -1.3582 -3.5065
  771MOL0     H 1757   6.083  12.258  10.451 -0.8082  0.1416 -0.1684
  771MOL0     H 1758   6.975  10.930  10.636 -0.9204 -1.6334  0.4792
  771MOL0     H 1759   6.771  10.799  10.682 -1.0774 -0.7054 -0.8310
  771MOL0     H 1760   6.433  10.495  10.626  0.2846  0.9296  2.3930
  771MOL0     H 1761   6.188  10.421  10.631 -2.2701  0.5389 -2.8275
  771MOL0     H 1762   5.812  10.643  10.567  1.5368  0.2917 -0.7384
  771MOL0     H 1763   5.874  10.737  10.694  0.0961  0.8165 -1.6553
  771MOL0     H 1764   5.798  10.454  10.735  1.9952 -0.0943 -0.1542
  771MOL0     H 1765   5.855  10.546  10.866 -0.8265  0.6493 -0.2512
  771MOL0     H 1766   5.670  10.722  10.831  1.1186 -0.1050  2.2832
  771MOL0     H 1767   5.645  10.561  10.916  0.8492 -1.8179 -0.6461
  771MOL0     H 1768   5.595  10.630  10.629 -0.1579  0.6355  0.8333
  771MOL0     H 1769   5.571  10.459  10.699 -1.2566 -1.1504  4.1129
  771MOL0     H 1770   5.222  10.672  10.767 -0.0880 -1.7877 -3.0444
  771MOL0     H 1771   6.066  10.819  10.636  2.4104  1.4558  3.1237
  771MOL0     H 1772   6.288  10.896  10.574  1.7183 -0.7296  0.4159
  772MOL0     O 1773   6.179   0.662   6.763  0.2160 -0.0796  0.0968
  772MOL0     C 1774   6.170   0.706   6.881 -0.3873 -0.1377  0.3775
  772MOL0     O 1775   6.047   0.724   6.943  0.0173 -0.3713 -0.3358
  772MOL0     C 1776   5.943   0.742   6.850 -0.2833 -0.4538  0.1615
  772MOL0     C 1777   5.819   0.703   6.893 -0.0363  0.8434 -0.8466
  772MOL0     C 1778   5.710   0.723   6.812 -0.7104 -0.7865 -0.7984
  772MOL0     C 1779   5.727   0.794   6.686 -0.0245 -0.9382  0.0675
  772MOL0     O 1780   5.629   0.802   6.589  0.4451  0.3598 -0.3510
  772MOL0     C 1781   5.524   0.698   6.596 -0.2946 -0.7452 -0.1382
  772MOL0     C 1782   5.429   0.732   6.488 -0.0534 -0.8451 -0.5409
  772MOL0     C 1783   5.304   0.646   6.479 -0.1377 -0.6489  0.0605
  772MOL0     C 1784   5.250   0.658   6.328 -0.7142 -0.0482 -0.3554
  772MOL0     C 1785   5.115   0.591   6.313 -0.0902 -0.1370  0.1581
  772MOL0     C 1786   5.055   0.600   6.169 -0.4020 -0.5041 -0.1337
  772MOL0     C 1787   4.909   0.543   6.165  0.6060 -0.0129  0.5848
  772MOL0     C 1788   4.832   0.578   6.032 -0.4012 -0.7698 -0.4909
  772MOL0     N 1789   4.690   0.556   6.052  0.3335 -0.3147 -0.8406
  772MOL0     C 1790   4.592   0.635   5.996 -0.4545 -0.3233 -0.0720
  772MOL0     C 1791   4.477   0.581   6.054 -0.4852 -0.7197  0.0742
  772MOL0     C 1792   4.339   0.623   6.023 -0.4680 -0.2828  0.3601
  772MOL0     C 1793   4.239   0.596   6.136 -0.2973 -0.0834 -0.2573
  772MOL0     C 1794   4.111   0.665   6.106  0.0753  0.2482 -0.1345
  772MOL0     C 1795   4.035   0.587   6.001  1.0768 -0.5519 -0.5010
  772MOL0     O 1796   3.911   0.660   5.969  0.2229  0.6305 -0.5056
  772MOL0     C 1797   3.790   0.646   6.032  0.4792 -0.1491  0.9036
  772MOL0     C 1798   3.762   0.551   6.132 -0.1556 -0.0669 -0.3569
  772MOL0     C 1799   3.637   0.540   6.180 -0.0303  0.2717 -0.4763
  772MOL0     C 1800   3.530   0.621   6.136 -0.3275  0.0669 -0.0263
  772MOL0     C 1801   3.393   0.592   6.179 -0.1857  0.3891  0.0282
  772MOL0     O 1802   3.306   0.652   6.103 -0.0490 -0.1131  0.6783
  772MOL0     C 1803   3.175   0.614   6.097  0.0502 -0.0755 -0.9420
  772MOL0     C 1804   3.108   0.584   6.212  0.2966  0.8879 -0.0924
  772MOL0     C 1805   2.974   0.543   6.213  0.6343  0.0166 -0.3124
  772MOL0     C 1806   2.898   0.547   6.096 -1.4044 -0.3693  0.6677
  772MOL0     O 1807   2.765   0.511   6.096  0.5266 -0.0113  0.4714
  772MOL0     C 1808   2.684   0.609   6.031  0.2021 -0.1227 -0.2839
  772MOL0     C 1809   2.589   0.539   5.929 -0.2750  0.1029 -0.5714
  772MOL0     C 1810   2.620   0.530   5.787 -0.5509  0.2913  0.4006
  772MOL0     C 1811   2.524   0.441   5.715 -1.3657 -0.7900  0.1126
  772MOL0     C 1812   2.510   0.468   5.560 -0.7267 -0.1163 -0.2856
  772MOL0     C 1813   2.440   0.352   5.502  0.4571 -0.0307  0.7198
  772MOL0     C 1814   2.515   0.225   5.482  0.8309  0.3293  0.9360
  772MOL0     C 1815   2.666   0.232   5.440 -0.6080  0.3311  1.0544
  772MOL0    Cl 1816   2.677   0.303   5.269  0.1588 -0.3354  0.4078
  772MOL0     C 1817   2.967   0.567   5.974  0.1252  0.4601 -0.7656
  772MOL0     C 1818   3.102   0.601   5.974 -0.0122  0.0345 -0.6326
  772MOL0     O 1819   3.364   0.495   6.251  0.1593 -0.4031  0.4488
  772MOL0     C 1820   3.560   0.718   6.028 -0.3188  0.0728 -0.3789
  772MOL0     C 1821   3.685   0.724   5.978  0.1029  0.5497 -0.1047
  772MOL0     N 1822   4.505   0.466   6.121  0.0722 -0.6483  0.3874
  772MOL0     N 1823   4.633   0.451   6.120 -0.5369 -0.0849  0.1940
  772MOL0     C 1824   5.852   0.845   6.657  0.6757 -0.4061  0.3707
  772MOL0     C 1825   5.962   0.824   6.730  0.3055  0.5220  0.3810
  772MOL0     C 1826   6.283   0.753   6.970 -0.6089 -0.1560  0.2951
  772MOL0     C 1827   6.422   0.729   6.937 -0.1895 -0.0860  0.1491
  772MOL0     C 1828   6.528   0.778   7.024 -0.7414  0.0041  0.2790
  772MOL0     C 1829   6.491   0.848   7.141  0.3700 -0.1866 -0.6905
  772MOL0     O 1830   6.589   0.895   7.219 -0.1592  0.3884  0.0315
  772MOL0     C 1831   6.592   1.039   7.236 -1.1049 -0.0305  0.1060
  772MOL0     C 1832   6.730   1.090   7.206  0.3679  0.1765  0.3227
  772MOL0     C 1833   6.831   1.025   7.310  0.1030 -0.3452 -1.0305
  772MOL0     C 1834   6.962   1.111   7.331 -0.4799 -0.1917  0.2276
  772MOL0     C 1835   7.051   1.045   7.439 -0.5241 -0.0542  0.7815
  772MOL0     C 1836   7.125   0.987   7.517 -0.7327 -0.0004  0.2419
  772MOL0     C 1837   6.363   0.873   7.180  0.0202  1.1965 -0.3869
  772MOL0     C 1838   6.266   0.821   7.092  0.1258  0.6178  0.0557
  772MOL0     H 1839   5.806   0.659   6.991 -0.4800 -1.8576 -2.0273
  772MOL0     H 1840   5.618   0.697   6.863 -0.1332 -0.6809  0.3502
  772MOL0     H 1841   5.472   0.707   6.692  1.1757  1.6546  0.5135
  772MOL0     H 1842   5.578   0.603   6.595  1.3010 -0.1114  4.5785
  772MOL0     H 1843   5.489   0.738   6.397 -0.9253 -0.7381 -1.1266
  772MOL0     H 1844   5.382   0.827   6.518 -0.8762 -0.7855 -1.9394
  772MOL0     H 1845   5.228   0.672   6.554  0.9760  2.2874  0.2999
  772MOL0     H 1846   5.330   0.540   6.490 -0.3197 -1.0939 -2.8821
  772MOL0     H 1847   5.247   0.766   6.309 -0.4508 -0.3409 -2.2938
  772MOL0     H 1848   5.320   0.614   6.256 -1.2603 -0.6382 -0.5369
  772MOL0     H 1849   5.045   0.638   6.383  4.1881  3.0420  2.8211
  772MOL0     H 1850   5.132   0.489   6.348  2.9491  1.3903  3.8133
  772MOL0     H 1851   5.117   0.544   6.099 -0.0758  0.2299 -0.4366
  772MOL0     H 1852   5.062   0.702   6.130  1.0600 -0.8392 -0.8071
  772MOL0     H 1853   4.905   0.434   6.170 -1.8520  0.0496  1.5507
  772MOL0     H 1854   4.852   0.588   6.247 -2.4008  1.0044 -1.8569
  772MOL0     H 1855   4.868   0.520   5.947  1.1465  0.8602 -1.0221
  772MOL0     H 1856   4.848   0.684   6.009 -0.7785  0.3515  3.5087
  772MOL0     H 1857   4.592   0.719   5.928 -2.5912  1.0233  1.4556
  772MOL0     H 1858   4.316   0.578   5.926 -1.2642 -2.3661  1.4636
  772MOL0     H 1859   4.357   0.730   6.008  1.8219 -0.3071  2.2956
  772MOL0     H 1860   4.274   0.638   6.231 -0.6842 -1.5893  0.5868
  772MOL0     H 1861   4.227   0.489   6.155 -0.4666 -0.3827 -1.9060
  772MOL0     H 1862   4.053   0.679   6.197  0.2353 -2.0258  0.3909
  772MOL0     H 1863   4.141   0.764   6.071  1.0921  0.2923  0.7846
  772MOL0     H 1864   4.022   0.480   6.020  1.0660 -0.0933  2.4873
  772MOL0     H 1865   4.092   0.586   5.907  2.4916 -1.4735  0.3271
  772MOL0     H 1866   3.829   0.474   6.169 -1.8885 -0.7152  1.6470
  772MOL0     H 1867   3.613   0.469   6.260 -0.3297 -0.3611 -1.1185
  772MOL0     H 1868   3.152   0.579   6.311  0.2145 -0.3665 -0.1038
  772MOL0     H 1869   2.925   0.523   6.308  2.0741 -1.2297  0.2255
  772MOL0     H 1870   2.739   0.693   5.987  0.9196  0.1245  1.0225
  772MOL0     H 1871   2.618   0.649   6.109  0.3732  1.1001 -0.7513
  772MOL0     H 1872   2.498   0.600   5.932  1.2486  2.5038  2.5604
  772MOL0     H 1873   2.565   0.439   5.965 -0.1230 -0.1686 -1.2065
  772MOL0     H 1874   2.717   0.480   5.780 -0.8734 -0.2641 -0.2179
  772MOL0     H 1875   2.635   0.631   5.748  0.3664  0.0644  0.1260
  772MOL0     H 1876   2.552   0.337   5.734  0.1055 -0.3090  0.6863
  772MOL0     H 1877   2.423   0.462   5.752  0.0505 -0.5186  4.3340
  772MOL0     H 1878   2.613   0.475   5.523 -1.0410  2.4381 -0.8942
  772MOL0     H 1879   2.450   0.559   5.556  0.8170  1.1175  1.8661
  772MOL0     H 1880   2.410   0.389   5.404 -0.8492  2.1993  1.8567
  772MOL0     H 1881   2.345   0.344   5.556 -1.6709 -0.1419 -2.7475
  772MOL0     H 1882   2.506   0.171   5.577 -1.4574 -1.4129 -0.1761
  772MOL0     H 1883   2.455   0.169   5.409  0.0051  1.7472  0.4841
  772MOL0     H 1884   2.693   0.127   5.428  0.3386  0.5523  1.1420
  772MOL0     H 1885   2.722   0.280   5.521 -0.3443  0.9534  0.5169
  772MOL0     H 1886   2.911   0.558   5.882  0.1480  0.8451 -0.8213
  772MOL0     H 1887   3.140   0.630   5.876  3.0467 -2.2887 -0.2603
  772MOL0     H 1888   3.483   0.772   5.974 -0.3328 -0.7135 -1.1732
  772MOL0     H 1889   3.706   0.783   5.889 -1.2011 -1.9130 -2.1949
  772MOL0     H 1890   5.862   0.906   6.567  0.4488 -2.0136 -0.7820
  772MOL0     H 1891   6.056   0.870   6.702  1.3192 -1.4982  0.2586
  772MOL0     H 1892   6.441   0.682   6.840  0.4851  3.1071 -1.3966
  772MOL0     H 1893   6.631   0.756   7.000 -0.8913 -0.4221  0.0131
  772MOL0     H 1894   6.576   1.057   7.343 -1.3155  0.8426 -0.0675
  772MOL0     H 1895   6.527   1.093   7.167  0.3892  0.5676 -0.8974
  772MOL0     H 1896   6.754   1.054   7.106  0.1001  2.0052 -0.4376
  772MOL0     H 1897   6.734   1.199   7.198  1.6232  0.1370  0.3387
  772MOL0     H 1898   6.859   0.923   7.282  0.5895 -0.4562 -0.1783
  772MOL0     H 1899   6.785   1.022   7.409 -0.4055 -0.8580 -1.2747
  772MOL0     H 1900   7.017   1.113   7.237  0.5895  3.5357  0.7902
  772MOL0     H 1901   6.933   1.213   7.357  0.5718  0.9964 -2.7828
  772MOL0     H 1902   7.204   0.939   7.571 -2.1244 -1.9000  0.6942
  772MOL0     H 1903   6.336   0.908   7.279  1.5168 -0.1505  0.5387
  772MOL0     H 1904   6.166   0.825   7.135 -0.1559 -1.0578 -0.3761
  773MOL0     O 1905   0.936   7.137   0.491  0.0557 -0.0054 -0.2342
  773MOL0     C 1906   0.990   7.027   0.489 -0.0612  0.3225  0.4145
  773MOL0     O 1907   0.924   6.900   0.469  0.5269  0.2549 -0.0276
  773MOL0     C 1908   0.788   6.891   0.484 -0.1161 -0.3459 -0.0592
  773MOL0     C 1909   0.750   6.757   0.510  0.1708 -0.5347  0.2040
  773MOL0     C 1910   0.613   6.717   0.509 -0.5784  0.3686 -0.5695
  773MOL0     C 1911   0.500   6.808   0.494 -0.1997  0.5028  0.0826
  773MOL0     O 1912   0.369   6.776   0.512 -0.5095  0.0288 -0.0079
  773MOL0     C 1913   0.344   6.640   0.570 -0.2936 -0.8612 -0.0997
  773MOL0     C 1914   0.192   6.629   0.567 -0.5414  0.2935 -0.3368
  773MOL0     C 1915   0.152   6.502   0.639 -0.5189 -0.0008 -0.0253
  773MOL0     C 1916   0.001   6.488   0.617  0.8503  0.2811 -0.3014
  773MOL0     C 1917  -0.044   6.372   0.704  1.0746 -0.0857 -0.3810
  773MOL0     C 1918  -0.182   6.323   0.679 -0.0946  0.5243 -0.3156
  773MOL0     C 1919  -0.225   6.214   0.777 -0.1358 -0.5319 -0.0772
  773MOL0     C 1920  -0.373   6.194   0.805  0.2236 -0.3951  0.0002
  773MOL0     N 1921  -0.456   6.173   0.682  0.1379 -0.4891  0.2771
  773MOL0     C 1922  -0.432   6.068   0.588  0.2913 -0.1589  0.0218
  773MOL0     C 1923  -0.525   6.086   0.493  0.1078  0.1821  0.4069
  773MOL0     C 1924  -0.525   6.018   0.370 -0.2637 -0.0399 -0.2813
  773MOL0     C 1925  -0.648   6.018   0.282  1.0279 -0.5409  0.2897
  773MOL0     C 1926  -0.609   6.016   0.140  0.2999  0.2509  0.2538
  773MOL0     C 1927  -0.521   5.888   0.093  0.4590 -0.5285 -0.5825
  773MOL0     O 1928  -0.451   5.917  -0.029  0.2067 -0.4738  0.1973
  773MOL0     C 1929  -0.317   5.910  -0.044 -0.4367 -0.3061 -0.6185
  773MOL0     C 1930  -0.231   5.993   0.035 -0.0769  0.4974  0.4909
  773MOL0     C 1931  -0.090   5.986   0.026  0.3847 -0.1718  0.5524
  773MOL0     C 1932  -0.036   5.905  -0.072  0.4422 -0.4955 -0.4112
  773MOL0     C 1933   0.112   5.909  -0.097 -1.0522 -0.0769 -0.5242
  773MOL0     O 1934   0.192   5.992  -0.026  0.4399 -0.7507  0.0605
  773MOL0     C 1935   0.326   6.004  -0.052 -0.3018  0.0167  1.3437
  773MOL0     C 1936   0.374   6.093  -0.153 -0.0783  0.6104  0.8836
  773MOL0     C 1937   0.516   6.115  -0.166 -0.2972  0.0493  0.6402
  773MOL0     C 1938   0.607   6.041  -0.091 -0.3312 -0.0937 -0.0510
  773MOL0     O 1939   0.744   6.059  -0.103 -0.1789 -0.2739  0.4456
  773MOL0     C 1940   0.814   6.085   0.025 -0.0003 -0.2194  0.4465
  773MOL0     C 1941   0.948   6.013   0.014  0.1682 -0.2038  0.1641
  773MOL0     C 1942   0.949   5.861   0.032 -0.6102  1.0474 -0.0613
  773MOL0     C 1943   0.942   5.822   0.181 -0.6855  0.0057 -0.7731
  773MOL0     C 1944   0.975   5.678   0.214 -0.4007  0.8658 -0.5420
  773MOL0     C 1945   0.870   5.586   0.157  0.4956  0.4232 -0.2997
  773MOL0     C 1946   0.885   5.441   0.205 -0.0780  0.3630  0.1489
  773MOL0     C 1947   0.999   5.360   0.167 -0.1355 -0.2525 -0.2148
  773MOL0    Cl 1948   1.138   5.399   0.263  0.0648 -0.1175  0.1042
  773MOL0     C 1949   0.559   5.936  -0.010  0.8662  0.1541  0.6374
  773MOL0     C 1950   0.419   5.916   0.010 -0.1617  0.6552 -0.0394
  773MOL0     O 1951   0.154   5.857  -0.200  0.7933 -0.2063 -0.1359
  773MOL0     C 1952  -0.121   5.829  -0.147 -0.4823 -1.1163  0.9982
  773MOL0     C 1953  -0.260   5.827  -0.132  0.1859 -0.8273  0.1915
  773MOL0     N 1954  -0.618   6.179   0.534  0.3446 -0.0903 -0.4442
  773MOL0     N 1955  -0.578   6.227   0.651 -0.4727 -0.1864  0.9454
  773MOL0     C 1956   0.541   6.934   0.462  0.8515 -0.0247  0.0854
  773MOL0     C 1957   0.679   6.977   0.453  0.2745 -0.2922 -0.7841
  773MOL0     C 1958   1.138   7.026   0.489  0.5364 -0.5106 -0.6243
  773MOL0     C 1959   1.210   7.140   0.496 -0.8260 -0.4694 -0.6722
  773MOL0     C 1960   1.354   7.130   0.496  0.0406 -0.7993  0.3673
  773MOL0     C 1961   1.418   7.008   0.487 -0.1647 -0.9368 -1.0016
  773MOL0     O 1962   1.552   7.024   0.500  0.0790 -0.6038  0.0202
  773MOL0     C 1963   1.639   6.918   0.558  0.0114  0.1378 -0.1214
  773MOL0     C 1964   1.627   6.903   0.712 -0.7520 -0.0618 -0.0779
  773MOL0     C 1965   1.681   6.758   0.763  0.1645 -0.2139 -0.3368
  773MOL0     C 1966   1.679   6.760   0.918  0.0007 -0.2592  0.3353
  773MOL0     C 1967   1.699   6.625   0.964 -0.9145  1.1202  0.2075
  773MOL0     C 1968   1.733   6.508   0.985  0.9471 -0.8578  0.6260
  773MOL0     C 1969   1.346   6.895   0.488 -0.6901  0.6930 -0.4029
  773MOL0     C 1970   1.205   6.905   0.486  0.3328  0.6631  0.1661
  773MOL0     H 1971   0.830   6.684   0.513  3.1880  2.0634 -4.4262
  773MOL0     H 1972   0.603   6.616   0.547 -0.9555  0.0874 -1.3972
  773MOL0     H 1973   0.384   6.655   0.670 -0.8143 -1.8046  0.2624
  773MOL0     H 1974   0.378   6.556   0.508 -0.8281 -0.8359 -0.4343
  773MOL0     H 1975   0.152   6.628   0.465 -0.5857  2.6823 -0.3974
  773MOL0     H 1976   0.149   6.717   0.616  1.5958  2.6281 -2.3380
  773MOL0     H 1977   0.174   6.513   0.745  0.0851  0.0672 -0.1502
  773MOL0     H 1978   0.216   6.422   0.601  2.3515  1.4608  1.3886
  773MOL0     H 1979  -0.059   6.575   0.645  0.1458 -1.1618  3.1268
  773MOL0     H 1980  -0.020   6.460   0.513 -0.0152 -1.6635  0.3453
  773MOL0     H 1981  -0.043   6.402   0.810 -0.0237  1.7399 -0.8401
  773MOL0     H 1982   0.024   6.291   0.677  0.0600 -0.8574 -0.6751
  773MOL0     H 1983  -0.190   6.295   0.573  0.5618  2.1694 -0.8273
  773MOL0     H 1984  -0.252   6.407   0.682 -1.0852 -0.2944  2.0241
  773MOL0     H 1985  -0.197   6.119   0.731 -0.8190 -0.0031 -1.6640
  773MOL0     H 1986  -0.172   6.225   0.872  0.2589  2.0499 -0.5250
  773MOL0     H 1987  -0.396   6.285   0.861  1.7108 -0.7282  1.2102
  773MOL0     H 1988  -0.370   6.106   0.869 -0.9781  1.3036  2.5148
  773MOL0     H 1989  -0.339   6.014   0.595  1.0849  1.3803  3.1586
  773MOL0     H 1990  -0.503   5.911   0.383  0.8518  0.0989 -0.8820
  773MOL0     H 1991  -0.448   6.072   0.313  0.0630  2.2678  2.1493
  773MOL0     H 1992  -0.704   6.112   0.287  0.7399 -0.7673  1.6294
  773MOL0     H 1993  -0.716   5.937   0.311  1.8504 -0.8337  1.4702
  773MOL0     H 1994  -0.706   6.025   0.090 -0.0840 -1.9489  0.4746
  773MOL0     H 1995  -0.548   6.105   0.121  1.8254 -0.5182  1.2972
  773MOL0     H 1996  -0.576   5.794   0.086  2.4438 -1.9068  1.1243
  773MOL0     H 1997  -0.447   5.880   0.174 -1.2076  2.8423  1.5004
  773MOL0     H 1998  -0.281   6.064   0.099 -2.3980 -1.3569  0.8989
  773MOL0     H 1999  -0.032   6.055   0.086  4.0421 -0.9343 -1.7861
  773MOL0     H 2000   0.299   6.144  -0.213 -1.3621 -0.6868  1.3188
  773MOL0     H 2001   0.546   6.194  -0.234  2.6927  0.7708  2.6156
  773MOL0     H 2002   0.761   6.051   0.115  3.2414 -0.6628  2.3859
  773MOL0     H 2003   0.821   6.194   0.024  0.7791 -0.2637 -0.0048
  773MOL0     H 2004   1.013   6.051   0.093 -0.9801 -0.5866  1.3332
  773MOL0     H 2005   0.992   6.040  -0.082  0.9392  0.0702  0.5916
  773MOL0     H 2006   1.035   5.822  -0.023 -0.3267  0.5821  0.6991
  773MOL0     H 2007   0.863   5.813  -0.016 -0.6229  0.1367  0.8286
  773MOL0     H 2008   1.007   5.882   0.245 -1.1244 -1.6579  1.3125
  773MOL0     H 2009   0.836   5.831   0.203 -0.5368  0.2271 -0.1361
  773MOL0     H 2010   0.986   5.666   0.322  0.5196 -0.8628 -0.7771
  773MOL0     H 2011   1.076   5.654   0.180 -0.5466  2.4934 -2.2710
  773MOL0     H 2012   0.880   5.596   0.048 -1.7624  2.5422 -0.3799
  773MOL0     H 2013   0.772   5.628   0.181  0.8284  0.3878  1.1633
  773MOL0     H 2014   0.861   5.437   0.311 -1.5572  0.8240 -0.1432
  773MOL0     H 2015   0.794   5.387   0.177 -0.4394  0.6252  0.7876
  773MOL0     H 2016   1.024   5.375   0.062  0.7482  1.2766  0.1803
  773MOL0     H 2017   0.972   5.255   0.181  2.8012 -1.1642 -0.5697
  773MOL0     H 2018   0.628   5.864   0.032 -0.0839 -1.8693 -1.0475
  773MOL0     H 2019   0.379   5.842   0.079 -0.5312  1.6354  0.8222
  773MOL0     H 2020  -0.089   5.760  -0.224 -0.4237  0.4800 -0.4397
  773MOL0     H 2021  -0.312   5.750  -0.189  0.8631 -0.8907 -0.3566
  773MOL0     H 2022   0.464   7.004   0.430 -0.3518 -1.1208  0.4919
  773MOL0     H 2023   0.704   7.079   0.427  0.7260 -0.1379  0.2166
  773MOL0     H 2024   1.170   7.241   0.499  4.4347  1.9401 -1.1059
  773MOL0     H 2025   1.408   7.224   0.500  0.2922 -0.9818  2.6147
  773MOL0     H 2026   1.741   6.952   0.538  1.1288 -1.1359  2.8517
  773MOL0     H 2027   1.622   6.820   0.513 -0.1225  0.7066 -1.3666
  773MOL0     H 2028   1.683   6.983   0.763  0.6411 -1.2411  0.3071
  773MOL0     H 2029   1.523   6.917   0.743 -0.8570  0.7621 -0.7483
  773MOL0     H 2030   1.780   6.744   0.718 -0.1570  1.1105 -1.5468
  773MOL0     H 2031   1.615   6.680   0.725  1.3521 -1.6026  0.3391
  773MOL0     H 2032   1.764   6.821   0.950  0.6506 -0.6170 -0.6567
  773MOL0     H 2033   1.582   6.801   0.944  0.3846  0.4203  0.7193
  773MOL0     H 2034   1.747   6.402   0.984  0.1385 -1.0247 -2.4697
  773MOL0     H 2035   1.406   6.805   0.480  2.6143  2.7157 -0.4977
  773MOL0     H 2036   1.154   6.809   0.480  2.1492 -0.3144 -0.7719
  774MOL0     O 2037   1.352   0.312   3.774 -0.4261  0.2512  0.3371
  774MOL0     C 2038   1.413   0.243   3.851  0.1290  0.2000 -0.4967
  774MOL0     O 2039   1.364   0.203   3.982  0.3785 -0.8607  0.7408
  774MOL0     C 2040   1.235   0.234   4.028  0.5808  0.9550  0.1767
  774MOL0     C 2041   1.120   0.286   3.958 -0.5615 -0.1002 -0.7760
  774MOL0     C 2042   0.999   0.311   4.030 -0.1607 -0.3864 -0.8615
  774MOL0     C 2043   0.989   0.294   4.174  0.4983 -0.2874 -0.3405
  774MOL0     O 2044   0.879   0.317   4.247 -0.7793 -0.1839  0.6291
  774MOL0     C 2045   0.770   0.231   4.209 -0.0027 -0.4190 -0.7497
  774MOL0     C 2046   0.666   0.257   4.323 -0.1711 -1.5432  0.5478
  774MOL0     C 2047   0.542   0.175   4.297 -1.2876  0.7957 -0.1255
  774MOL0     C 2048   0.431   0.205   4.390 -0.2447 -0.6244 -0.1256
  774MOL0     C 2049   0.309   0.111   4.382 -0.1375 -0.9007  0.6611
  774MOL0     C 2050   0.203   0.131   4.492 -0.3585 -0.2642  0.7571
  774MOL0     C 2051   0.119   0.256   4.464  0.5511  0.5637 -0.1535
  774MOL0     C 2052  -0.035   0.225   4.485 -0.0945 -0.0742  0.4114
  774MOL0     N 2053  -0.121   0.331   4.434 -0.1165  0.5349 -0.2435
  774MOL0     C 2054  -0.154   0.357   4.299  0.7130 -0.2964  0.2723
  774MOL0     C 2055  -0.215   0.468   4.311  0.7673 -0.7481  0.1605
  774MOL0     C 2056  -0.260   0.559   4.198 -0.8425 -0.8839  0.0438
  774MOL0     C 2057  -0.400   0.514   4.152  0.1998  0.3994  0.3680
  774MOL0     C 2058  -0.476   0.642   4.117 -0.0239  0.7193  0.2531
  774MOL0     C 2059  -0.624   0.629   4.078  0.0137 -0.2230 -0.2420
  774MOL0     O 2060  -0.708   0.595   4.192 -0.0378  0.0217 -0.0576
  774MOL0     C 2061  -0.840   0.625   4.184 -0.8573  0.0432  0.0582
  774MOL0     C 2062  -0.940   0.536   4.200 -0.0063 -0.1844 -0.1298
  774MOL0     C 2063  -1.073   0.578   4.204  0.1853 -0.4530  0.6796
  774MOL0     C 2064  -1.112   0.711   4.185  0.3925 -0.4890 -0.7400
  774MOL0     C 2065  -1.250   0.753   4.214 -1.3224 -0.4708  0.2816
  774MOL0     O 2066  -1.321   0.668   4.280  0.0600 -0.1601 -0.6499
  774MOL0     C 2067  -1.452   0.680   4.316 -0.4047 -0.4580 -0.4678
  774MOL0     C 2068  -1.541   0.598   4.251  0.2787  0.2022  0.5314
  774MOL0     C 2069  -1.676   0.603   4.282 -0.5815  0.1241  0.1034
  774MOL0     C 2070  -1.727   0.665   4.400 -0.4858 -0.4322 -0.9594
  774MOL0     O 2071  -1.866   0.662   4.437 -0.1382 -0.6034 -0.1981
  774MOL0     C 2072  -1.966   0.602   4.349  0.8199 -0.0410 -0.3442
  774MOL0     C 2073  -2.108   0.663   4.369 -0.5730  0.3384  0.3695
  774MOL0     C 2074  -2.152   0.678   4.519  0.1309  1.6086 -0.0286
  774MOL0     C 2075  -2.312   0.689   4.531 -0.4716 -0.5238  0.0071
  774MOL0     C 2076  -2.400   0.591   4.455 -0.7458  0.0133  0.5747
  774MOL0     C 2077  -2.366   0.440   4.489  0.0057 -0.7852  0.5981
  774MOL0     C 2078  -2.445   0.347   4.398 -0.1351 -0.1817  0.0623
  774MOL0     C 2079  -2.433   0.205   4.449 -0.1770  0.3615 -0.0760
  774MOL0    Cl 2080  -2.514   0.080   4.356  0.3502  0.1429  0.5819
  774MOL0     C 2081  -1.636   0.744   4.478  0.5902  0.6855  0.1200
  774MOL0     C 2082  -1.501   0.746   4.439 -0.4806 -0.4181 -0.7818
  774MOL0     O 2083  -1.285   0.859   4.161 -0.2083  0.6042  0.1749
  774MOL0     C 2084  -1.014   0.802   4.153 -0.0502  0.5153  0.1576
  774MOL0     C 2085  -0.879   0.753   4.157  1.0998  0.5560 -0.6960
  774MOL0     N 2086  -0.232   0.508   4.441  0.2903  0.3080  0.7711
  774MOL0     N 2087  -0.176   0.425   4.520  0.8035 -0.1322 -0.1596
  774MOL0     C 2088   1.104   0.243   4.243 -1.0409 -0.3616  1.0252
  774MOL0     C 2089   1.219   0.221   4.167  0.2853  0.1626 -0.2496
  774MOL0     C 2090   1.542   0.186   3.823 -0.1751 -0.0853  0.5493
  774MOL0     C 2091   1.599   0.081   3.900  0.2726 -0.0336 -0.1177
  774MOL0     C 2092   1.722   0.025   3.862  0.4221  0.5121  0.2159
  774MOL0     C 2093   1.787   0.062   3.742  0.1025  0.2221  0.7547
  774MOL0     O 2094   1.899  -0.001   3.704 -1.3650  0.9798  0.0438
  774MOL0     C 2095   1.984   0.046   3.601 -1.3459  0.0680 -0.0484
  774MOL0     C 2096   2.127   0.080   3.660 -0.0972  0.2128 -0.0542
  774MOL0     C 2097   2.232   0.069   3.560  0.2437 -0.2947 -0.3441
  774MOL0     C 2098   2.372   0.121   3.601  0.0833  0.2553 -0.8831
  774MOL0     C 2099   2.379   0.263   3.592 -0.3777  0.6023  0.7638
  774MOL0     C 2100   2.388   0.381   3.565  0.0705  0.2483 -0.5762
  774MOL0     C 2101   1.735   0.169   3.673 -0.6268 -0.1498 -0.4723
  774MOL0     C 2102   1.605   0.219   3.701  0.4384  0.1758  0.5612
  774MOL0     H 2103   1.120   0.316   3.854  2.3751 -1.7653 -1.3606
  774MOL0     H 2104   0.911   0.347   3.977 -0.9264 -0.8430  0.0692
  774MOL0     H 2105   0.801   0.127   4.207 -1.4079 -0.9227  1.0772
  774MOL0     H 2106   0.742   0.260   4.108  0.0442  1.8386 -0.1834
  774MOL0     H 2107   0.638   0.363   4.329  0.9297 -0.8702 -3.4461
  774MOL0     H 2108   0.710   0.227   4.419 -0.3961 -1.6534  0.6186
  774MOL0     H 2109   0.564   0.069   4.307 -1.0479  0.8894  0.3824
  774MOL0     H 2110   0.505   0.181   4.195 -1.3649  0.4181 -0.1207
  774MOL0     H 2111   0.473   0.215   4.490  2.0407  4.0702 -1.3233
  774MOL0     H 2112   0.398   0.306   4.364  2.2198  0.8864  2.0941
  774MOL0     H 2113   0.348   0.010   4.399 -0.5621 -1.3089 -0.7002
  774MOL0     H 2114   0.266   0.120   4.282  2.7722  1.5302 -0.5398
  774MOL0     H 2115   0.259   0.151   4.584 -0.4694 -1.2077  1.0379
  774MOL0     H 2116   0.142   0.040   4.493  0.9581 -1.2467 -1.3351
  774MOL0     H 2117   0.150   0.331   4.537  1.2361 -0.4490  0.6196
  774MOL0     H 2118   0.140   0.295   4.364  0.3928 -1.5824 -1.0868
  774MOL0     H 2119  -0.051   0.227   4.593  0.1535 -0.2236  0.4540
  774MOL0     H 2120  -0.074   0.129   4.450 -0.2616  0.1757 -0.0903
  774MOL0     H 2121  -0.124   0.299   4.212 -3.8405 -0.4536 -1.4656
  774MOL0     H 2122  -0.184   0.552   4.119  0.8879  0.0208  1.5656
  774MOL0     H 2123  -0.254   0.660   4.239 -2.9721 -1.5342  2.1485
  774MOL0     H 2124  -0.444   0.453   4.232  4.8373 -0.1277  2.8465
  774MOL0     H 2125  -0.395   0.465   4.055 -1.8416  1.5748 -0.3834
  774MOL0     H 2126  -0.469   0.701   4.209  0.1605 -1.3889  1.6603
  774MOL0     H 2127  -0.420   0.702   4.045 -2.6669  2.5619 -0.4170
  774MOL0     H 2128  -0.640   0.551   4.003  0.0195  1.3313 -1.9431
  774MOL0     H 2129  -0.652   0.724   4.032  0.0679  1.1149  2.2936
  774MOL0     H 2130  -0.912   0.433   4.219  0.4241  0.5102  3.5815
  774MOL0     H 2131  -1.144   0.497   4.221 -1.0140  0.3952 -0.0952
  774MOL0     H 2132  -1.517   0.545   4.159  2.4685 -0.8035  1.6134
  774MOL0     H 2133  -1.743   0.556   4.211  0.7663  0.7141 -1.6197
  774MOL0     H 2134  -1.967   0.496   4.373  1.6030 -0.5338 -2.2723
  774MOL0     H 2135  -1.949   0.607   4.241 -0.4762 -0.6885 -0.6012
  774MOL0     H 2136  -2.174   0.598   4.312  0.1816  0.6056 -0.8635
  774MOL0     H 2137  -2.119   0.755   4.311 -2.9325 -0.6318 -0.8311
  774MOL0     H 2138  -2.107   0.772   4.551  0.9202  1.0277  0.6298
  774MOL0     H 2139  -2.117   0.592   4.578 -0.7973 -0.9848 -2.9507
  774MOL0     H 2140  -2.345   0.705   4.634 -1.8306  4.1475 -0.9118
  774MOL0     H 2141  -2.341   0.790   4.501  2.0549  0.1570 -0.3840
  774MOL0     H 2142  -2.398   0.604   4.347  3.6539 -4.7056 -0.3077
  774MOL0     H 2143  -2.501   0.595   4.498 -0.6873  0.0649  0.7077
  774MOL0     H 2144  -2.392   0.419   4.593 -0.3186 -3.7754 -0.0075
  774MOL0     H 2145  -2.259   0.431   4.471  0.3297  0.8974  1.5099
  774MOL0     H 2146  -2.551   0.374   4.390  0.0210  0.3100 -0.4590
  774MOL0     H 2147  -2.408   0.361   4.296  1.5659  0.1824  0.7024
  774MOL0     H 2148  -2.453   0.197   4.556  4.3400  0.7675  0.9936
  774MOL0     H 2149  -2.327   0.175   4.449 -0.0398  0.8420  0.6177
  774MOL0     H 2150  -1.674   0.794   4.567 -0.5424 -0.7626  0.4968
  774MOL0     H 2151  -1.443   0.789   4.521 -0.8162 -0.9449 -0.2557
  774MOL0     H 2152  -1.031   0.908   4.135  0.5428  0.8248  1.3228
  774MOL0     H 2153  -0.798   0.824   4.142 -0.5090  3.1001  1.6576
  774MOL0     H 2154   1.107   0.225   4.350 -1.4590  1.3507  1.3557
  774MOL0     H 2155   1.306   0.179   4.216 -0.3374 -0.7141  0.1324
  774MOL0     H 2156   1.544   0.063   3.992  1.3263 -0.7581  0.3853
  774MOL0     H 2157   1.774  -0.043   3.929  1.5499  2.1431  1.0533
  774MOL0     H 2158   1.942   0.126   3.540  1.2321  0.9994 -0.7136
  774MOL0     H 2159   1.994  -0.039   3.532  1.5626 -2.7357  3.3779
  774MOL0     H 2160   2.121   0.182   3.701 -1.3476  0.4734 -0.8498
  774MOL0     H 2161   2.144   0.008   3.741  0.4992  0.7781  0.3362
  774MOL0     H 2162   2.204   0.120   3.468  0.9357  4.2451  1.7027
  774MOL0     H 2163   2.239  -0.039   3.541  2.1301 -0.0423 -1.3008
  774MOL0     H 2164   2.387   0.110   3.708  0.5388  0.7660 -0.8927
  774MOL0     H 2165   2.447   0.065   3.544 -0.9284 -0.3734 -1.6458
  774MOL0     H 2166   2.399   0.485   3.541  1.5796  0.4820  0.8618
  774MOL0     H 2167   1.764   0.208   3.576  0.6943  3.1186  1.1018
  774MOL0     H 2168   1.554   0.284   3.630  0.4363  0.2413  0.6233
  775MOL0     O 2169   0.876  10.810   4.398  0.0215 -0.3960 -0.3395
  775MOL0     C 2170   0.921  10.802   4.513 -0.3778 -0.5346 -0.2990
  775MOL0     O 2171   0.862  10.754   4.621  0.6463 -0.6741  0.3436
  775MOL0     C 2172   0.721  10.746   4.631  0.3959 -0.4350 -0.3995
  775MOL0     C 2173   0.679  10.670   4.734  0.1893  0.6620  0.7857
  775MOL0     C 2174   0.541  10.647   4.761 -1.2209  0.0908  0.1752
  775MOL0     C 2175   0.447  10.716   4.689  0.4538  1.4416 -0.9567
  775MOL0     O 2176   0.314  10.696   4.721 -0.3438  0.3269  0.2235
  775MOL0     C 2177   0.214  10.781   4.663  0.1113 -0.1349 -0.6631
  775MOL0     C 2178   0.219  10.920   4.717 -0.5569 -0.5691  0.2241
  775MOL0     C 2179   0.116  11.013   4.664  0.0214  0.6147 -0.4325
  775MOL0     C 2180   0.073  11.112   4.767  0.0259 -1.3379  0.5878
  775MOL0     C 2181  -0.049  11.200   4.718 -0.1273  1.1590 -1.0041
  775MOL0     C 2182  -0.186  11.125   4.705 -0.0799 -0.1536 -0.3817
  775MOL0     C 2183  -0.314  11.215   4.711 -0.0041  0.6926 -0.2880
  775MOL0     C 2184  -0.320  11.290   4.582  0.4994 -0.1958 -0.6947
  775MOL0     N 2185  -0.434  11.383   4.594  0.5711 -0.0998 -0.3558
  775MOL0     C 2186  -0.423  11.521   4.585 -0.2230 -0.1515 -0.7859
  775MOL0     C 2187  -0.555  11.561   4.579 -0.7082  1.1533  0.0956
  775MOL0     C 2188  -0.592  11.706   4.556 -0.0725  0.7995  0.0044
  775MOL0     C 2189  -0.658  11.769   4.672  0.9702  0.1898  0.3395
  775MOL0     C 2190  -0.713  11.905   4.650 -0.3022  1.2170  0.3271
  775MOL0     C 2191  -0.601  12.012   4.635 -0.5129  0.3756 -0.5966
  775MOL0     O 2192  -0.660  12.140   4.649 -0.1744  0.7038  0.3416
  775MOL0     C 2193  -0.587  12.231   4.721 -0.1010  0.3305  0.2170
  775MOL0     C 2194  -0.656  12.300   4.812  0.9804  0.0328 -0.6036
  775MOL0     C 2195  -0.598  12.379   4.919  0.1852  0.0100 -0.9387
  775MOL0     C 2196  -0.463  12.394   4.914 -0.7167 -0.7635 -0.3221
  775MOL0     C 2197  -0.397  12.493   4.989  1.2015  0.9641  0.1105
  775MOL0     O 2198  -0.451  12.525   5.114 -0.0931 -0.0446 -0.0868
  775MOL0     C 2199  -0.404  12.640   5.169  0.7377 -0.6735 -1.0226
  775MOL0     C 2200  -0.324  12.637   5.279 -0.7162 -0.4432  0.0855
  775MOL0     C 2201  -0.282  12.761   5.334 -0.1891 -0.8058 -0.2148
  775MOL0     C 2202  -0.323  12.887   5.282 -0.0598  0.1677  0.3069
  775MOL0     O 2203  -0.255  12.993   5.339  0.5195 -0.2207 -0.0574
  775MOL0     C 2204  -0.316  13.114   5.300 -0.4451  1.0848  0.2738
  775MOL0     C 2205  -0.215  13.221   5.363 -0.9030 -0.5053 -0.4043
  775MOL0     C 2206  -0.280  13.356   5.384  0.2971 -0.5680  1.1377
  775MOL0     C 2207  -0.190  13.455   5.461 -0.4653  0.1487  0.7226
  775MOL0     C 2208  -0.241  13.596   5.472  0.7135 -0.4737  0.1370
  775MOL0     C 2209  -0.131  13.698   5.511  1.7181 -0.9919  0.2775
  775MOL0     C 2210  -0.166  13.845   5.498  0.7406 -0.1911 -0.9364
  775MOL0     C 2211  -0.302  13.884   5.571  0.6177 -0.0595  0.2147
  775MOL0    Cl 2212  -0.330  13.826   5.734  0.1285  0.2072 -0.4456
  775MOL0     C 2213  -0.420  12.883   5.177 -0.1093 -0.0154  1.3138
  775MOL0     C 2214  -0.452  12.758   5.116  0.8507 -0.6971 -0.7795
  775MOL0     O 2215  -0.288  12.531   4.950  0.7427 -0.3434 -0.4502
  775MOL0     C 2216  -0.384  12.311   4.833 -0.3336  0.8484  1.3729
  775MOL0     C 2217  -0.450  12.240   4.732 -0.2574  1.0294  0.4094
  775MOL0     N 2218  -0.644  11.460   4.600 -0.1121  0.3168 -1.0565
  775MOL0     N 2219  -0.566  11.352   4.590  0.1961 -0.5143  0.1666
  775MOL0     C 2220   0.486  10.800   4.592  0.2686  0.5165  1.4689
  775MOL0     C 2221   0.622  10.816   4.558  0.3781  0.8661 -0.4722
  775MOL0     C 2222   1.063  10.842   4.522 -0.0879  1.0047 -0.0582
  775MOL0     C 2223   1.141  10.845   4.638 -0.2141  0.1340 -0.3137
  775MOL0     C 2224   1.272  10.885   4.638 -0.3525  0.0477  0.2425
  775MOL0     C 2225   1.337  10.909   4.517  0.1767  0.4129 -0.4140
  775MOL0     O 2226   1.473  10.935   4.489  0.1050  0.2081  0.9206
  775MOL0     C 2227   1.539  10.987   4.604 -0.2790 -1.3883 -0.3652
  775MOL0     C 2228   1.622  10.883   4.675 -1.0158  0.6326 -0.4202
  775MOL0     C 2229   1.709  10.938   4.794 -0.2328  0.5696 -0.4892
  775MOL0     C 2230   1.779  10.821   4.881 -0.3327 -0.4340  1.0834
  775MOL0     C 2231   1.885  10.750   4.813 -0.0795  0.8637  0.0185
  775MOL0     C 2232   1.982  10.705   4.760 -0.5479  0.9329 -0.3266
  775MOL0     C 2233   1.262  10.917   4.400 -0.0084 -0.3097  0.2861
  775MOL0     C 2234   1.134  10.878   4.398  0.0540 -0.7578  0.3851
  775MOL0     H 2235   0.760  10.622   4.787  0.1355 -3.1252 -2.1404
  775MOL0     H 2236   0.517  10.567   4.830 -0.6086 -1.2106 -1.0603
  775MOL0     H 2237   0.116  10.747   4.700  0.0322  0.7646 -0.0221
  775MOL0     H 2238   0.220  10.780   4.554  0.6135  0.6688 -0.6431
  775MOL0     H 2239   0.319  10.962   4.707  0.1743 -2.2077  0.5371
  775MOL0     H 2240   0.208  10.915   4.826  0.7147  1.1801  0.4857
  775MOL0     H 2241   0.025  10.958   4.637 -0.7816  0.8798  1.5027
  775MOL0     H 2242   0.160  11.055   4.574  2.6455 -1.2156 -0.1100
  775MOL0     H 2243   0.054  11.068   4.865 -0.2947  0.0899  1.1839
  775MOL0     H 2244   0.153  11.186   4.760 -2.4310  1.3150 -1.6567
  775MOL0     H 2245  -0.039  11.258   4.625  0.1561 -1.4362 -2.6929
  775MOL0     H 2246  -0.061  11.268   4.803  0.8118 -2.8976  2.6883
  775MOL0     H 2247  -0.200  11.052   4.785  0.3072  2.7598  2.5796
  775MOL0     H 2248  -0.186  11.075   4.607 -0.5439  0.5006 -0.7216
  775MOL0     H 2249  -0.401  11.149   4.716 -0.3747  1.2025  3.6451
  775MOL0     H 2250  -0.323  11.278   4.800 -1.1076 -1.5492  1.2865
  775MOL0     H 2251  -0.339  11.224   4.498  0.6732  1.0262 -1.7218
  775MOL0     H 2252  -0.226  11.342   4.560 -0.2172  0.4439 -2.4348
  775MOL0     H 2253  -0.335  11.580   4.562 -0.6901  1.6164  1.6119
  775MOL0     H 2254  -0.655  11.714   4.467 -0.3951  0.4442  0.1951
  775MOL0     H 2255  -0.497  11.755   4.533 -0.0849  0.8348  0.0274
  775MOL0     H 2256  -0.589  11.789   4.755  0.3305  1.1233  0.6696
  775MOL0     H 2257  -0.741  11.708   4.709 -0.4934  1.1330 -1.2187
  775MOL0     H 2258  -0.788  11.913   4.571  0.0205  0.5864 -0.0547
  775MOL0     H 2259  -0.774  11.930   4.737 -2.2646 -0.8158 -0.3704
  775MOL0     H 2260  -0.569  12.011   4.531 -1.7718  4.5859 -1.2164
  775MOL0     H 2261  -0.525  11.993   4.712 -1.4250 -0.5126  0.1276
  775MOL0     H 2262  -0.762  12.285   4.798  0.9975  0.5966 -1.3494
  775MOL0     H 2263  -0.655  12.439   4.989 -0.3883 -1.7640  0.1638
  775MOL0     H 2264  -0.290  12.541   5.317  1.4218  0.2971  0.1920
  775MOL0     H 2265  -0.205  12.763   5.411 -1.9578 -1.3599  1.6837
  775MOL0     H 2266  -0.412  13.124   5.350 -0.1808 -1.1689  1.3715
  775MOL0     H 2267  -0.326  13.131   5.192  2.6911 -0.0449 -0.3338
  775MOL0     H 2268  -0.127  13.229   5.297 -0.1759 -1.8200  0.3686
  775MOL0     H 2269  -0.179  13.188   5.460 -1.3713 -2.0988 -0.7520
  775MOL0     H 2270  -0.380  13.349   5.428 -0.2471  1.6668  0.3852
  775MOL0     H 2271  -0.300  13.404   5.288 -0.0509 -2.2386  0.3262
  775MOL0     H 2272  -0.173  13.417   5.562 -1.2265 -0.7733  0.5195
  775MOL0     H 2273  -0.098  13.453   5.402 -2.3431 -0.6688 -2.3789
  775MOL0     H 2274  -0.325  13.609   5.541  2.2276 -0.4963  2.0417
  775MOL0     H 2275  -0.273  13.626   5.371 -3.4909  0.6040  1.5826
  775MOL0     H 2276  -0.040  13.690   5.451  1.3058  1.4241 -0.7889
  775MOL0     H 2277  -0.092  13.673   5.611  1.7863 -2.0151  0.0070
  775MOL0     H 2278  -0.086  13.905   5.542 -1.0955  1.0575  0.9051
  775MOL0     H 2279  -0.167  13.869   5.392 -1.3710  0.5048 -0.8076
  775MOL0     H 2280  -0.387  13.829   5.530 -0.9114  1.7334  0.8252
  775MOL0     H 2281  -0.331  13.988   5.553 -0.3235 -0.5176 -1.0005
  775MOL0     H 2282  -0.468  12.974   5.140  1.0177  0.3440  0.6896
  775MOL0     H 2283  -0.542  12.746   5.056 -0.1473 -0.5143  0.6191
  775MOL0     H 2284  -0.276  12.300   4.836 -0.4551 -1.5420 -0.6298
  775MOL0     H 2285  -0.390  12.190   4.657 -0.4617 -2.7803  2.5153
  775MOL0     H 2286   0.429  10.861   4.522 -0.5083 -1.7157  0.0748
  775MOL0     H 2287   0.640  10.884   4.476 -3.2392  1.5076 -0.9013
  775MOL0     H 2288   1.088  10.824   4.731 -1.4066  2.4049 -0.4109
  775MOL0     H 2289   1.327  10.881   4.731  1.8163 -0.3977 -0.9790
  775MOL0     H 2290   1.476  11.031   4.682  1.4702  0.4870  0.0972
  775MOL0     H 2291   1.614  11.059   4.569 -0.1451 -1.4750 -0.2575
  775MOL0     H 2292   1.552  10.802   4.695 -1.8134  1.1507 -1.0470
  775MOL0     H 2293   1.693  10.844   4.601  0.1384  1.1435  0.3952
  775MOL0     H 2294   1.645  11.009   4.846  0.0942  0.8161 -0.4249
  775MOL0     H 2295   1.788  11.001   4.755 -0.2679  0.9082 -0.0214
  775MOL0     H 2296   1.836  10.873   4.959 -0.6243 -0.3525  1.2431
  775MOL0     H 2297   1.704  10.751   4.919  0.1649 -2.5069 -1.4579
  775MOL0     H 2298   2.066  10.668   4.705 -1.1590 -0.3518 -0.4417
  775MOL0     H 2299   1.315  10.950   4.311 -1.5994 -2.6956 -1.6747
  775MOL0     H 2300   1.081  10.877   4.303  1.6583 -1.5685 -0.5397
  776MOL0     O 2301   2.683   3.036   3.444 -0.3942 -0.5842  0.2213
  776MOL0     C 2302   2.617   3.081   3.541 -0.0445  0.2311 -0.5832
  776MOL0     O 2303   2.479   3.087   3.541 -0.6292  0.4116  0.6148
  776MOL0     C 2304   2.397   3.060   3.439 -0.0523  0.6297  0.3554
  776MOL0     C 2305   2.261   3.053   3.472 -0.4472  0.6840 -0.8579
  776MOL0     C 2306   2.161   3.050   3.383 -0.0639  0.6407  0.1129
  776MOL0     C 2307   2.188   3.063   3.245  0.6151 -0.8959  0.9714
  776MOL0     O 2308   2.079   3.069   3.159  0.2843 -0.2276 -0.1255
  776MOL0     C 2309   2.097   2.990   3.042  0.1170  0.5337 -1.0193
  776MOL0     C 2310   1.964   2.954   2.987 -0.9072  0.3299 -0.3645
  776MOL0     C 2311   1.902   3.072   2.916  0.9167 -0.1924  0.6381
  776MOL0     C 2312   1.762   3.018   2.890 -0.1690 -0.1660  0.9979
  776MOL0     C 2313   1.682   3.089   2.781 -0.1135  1.0341  0.0033
  776MOL0     C 2314   1.578   3.174   2.847 -0.0554 -0.4831 -0.1753
  776MOL0     C 2315   1.465   3.086   2.907 -0.3159 -0.4336  0.4315
  776MOL0     C 2316   1.340   3.162   2.902 -0.7403 -0.4567  0.5226
  776MOL0     N 2317   1.216   3.088   2.932  0.0536  0.0900  0.2623
  776MOL0     C 2318   1.100   3.134   2.985 -1.1130  1.0020 -0.1347
  776MOL0     C 2319   1.041   3.013   3.028  0.6517 -0.2557 -0.7625
  776MOL0     C 2320   0.913   2.998   3.103 -1.2816 -0.7842  0.5809
  776MOL0     C 2321   0.778   3.042   3.017 -0.6511 -0.7753 -0.7528
  776MOL0     C 2322   0.657   3.022   3.118 -0.2321  0.2607 -0.2854
  776MOL0     C 2323   0.530   3.068   3.045  0.1046  0.0943  0.0238
  776MOL0     O 2324   0.509   2.996   2.926  0.0487  0.8125  0.3798
  776MOL0     C 2325   0.384   2.993   2.874 -0.6829 -0.1433 -0.1556
  776MOL0     C 2326   0.274   3.073   2.910  0.3918  0.3857  0.4116
  776MOL0     C 2327   0.158   3.070   2.836  0.1170  0.8892 -0.3721
  776MOL0     C 2328   0.143   2.982   2.727  0.8800 -0.6936 -0.3035
  776MOL0     C 2329   0.014   2.963   2.660 -0.0577 -0.1244  0.6846
  776MOL0     O 2330  -0.090   3.015   2.735  0.1348 -0.1424 -0.7879
  776MOL0     C 2331  -0.220   2.997   2.699  0.0202 -0.2800  0.9020
  776MOL0     C 2332  -0.307   3.105   2.656 -0.6955  0.1237  0.7499
  776MOL0     C 2333  -0.439   3.085   2.613 -0.3948 -1.0473  1.2861
  776MOL0     C 2334  -0.485   2.955   2.590 -0.4992  0.2710  0.3664
  776MOL0     O 2335  -0.616   2.938   2.550 -0.0383 -0.1147  0.1228
  776MOL0     C 2336  -0.661   2.812   2.534 -0.5594 -0.2738 -0.6957
  776MOL0     C 2337  -0.811   2.807   2.500  0.7568 -0.5797  0.1488
  776MOL0     C 2338  -0.859   2.670   2.450  0.1212  0.0243  0.4789
  776MOL0     C 2339  -0.984   2.629   2.526  0.0557  0.4908  0.2919
  776MOL0     C 2340  -0.973   2.624   2.681 -0.1643  0.7551 -0.1455
  776MOL0     C 2341  -1.090   2.690   2.751  0.6702 -0.0397  0.2340
  776MOL0     C 2342  -1.224   2.631   2.703  0.1764 -0.0237 -0.2496
  776MOL0     C 2343  -1.342   2.670   2.798 -0.2144 -0.1878 -0.4879
  776MOL0    Cl 2344  -1.501   2.629   2.736 -0.1805 -0.1592 -0.3540
  776MOL0     C 2345  -0.410   2.851   2.637  1.0164 -0.1352 -0.4110
  776MOL0     C 2346  -0.279   2.871   2.689  1.2372  0.0183  0.1799
  776MOL0     O 2347   0.001   2.892   2.558  0.6097  0.9568 -0.4393
  776MOL0     C 2348   0.249   2.899   2.690 -0.0506  0.3550 -0.3386
  776MOL0     C 2349   0.363   2.898   2.765  0.0846 -0.2073 -0.2250
  776MOL0     N 2350   1.111   2.904   2.976 -0.7851  0.3264 -0.5238
  776MOL0     N 2351   1.214   2.956   2.913  0.2773 -0.1721  0.7613
  776MOL0     C 2352   2.323   3.070   3.201  0.5204 -0.5134  0.5836
  776MOL0     C 2353   2.420   3.066   3.296  0.2585 -0.0495 -0.3365
  776MOL0     C 2354   2.707   3.121   3.651  0.6637  0.3122 -0.0932
  776MOL0     C 2355   2.669   3.230   3.727  0.4063 -0.5332 -0.5871
  776MOL0     C 2356   2.752   3.285   3.823  0.5253  0.1157 -0.4034
  776MOL0     C 2357   2.876   3.232   3.848  0.0271  0.1695  0.4136
  776MOL0     O 2358   2.954   3.302   3.942  0.4535  1.1270 -0.0984
  776MOL0     C 2359   3.100   3.281   3.928  0.9260  0.4043  0.5463
  776MOL0     C 2360   3.173   3.354   4.043 -0.4979  0.1888  0.0844
  776MOL0     C 2361   3.322   3.305   4.047 -0.1087 -0.7348 -0.8068
  776MOL0     C 2362   3.408   3.422   4.071  0.2447  0.4572  0.5809
  776MOL0     C 2363   3.547   3.378   4.042  0.6732 -0.1097  0.3515
  776MOL0     C 2364   3.656   3.350   4.003 -0.4502  0.0054  0.3275
  776MOL0     C 2365   2.915   3.115   3.773 -0.0789  0.0472  0.1074
  776MOL0     C 2366   2.831   3.056   3.678 -0.7809  0.4511 -0.2485
  776MOL0     H 2367   2.240   3.032   3.576 -1.7931 -0.4461 -1.3208
  776MOL0     H 2368   2.059   3.039   3.417 -0.8675 -0.6688 -2.4984
  776MOL0     H 2369   2.153   2.897   3.056 -1.7540 -0.8236 -2.0664
  776MOL0     H 2370   2.152   3.041   2.962 -1.9335 -2.6130 -4.7787
  776MOL0     H 2371   1.895   2.914   3.062 -0.7356  2.3538  0.9495
  776MOL0     H 2372   1.984   2.880   2.908  0.1058 -0.8092  0.9128
  776MOL0     H 2373   1.951   3.096   2.822 -2.7048 -1.2847 -1.7212
  776MOL0     H 2374   1.904   3.163   2.977  2.9350 -0.2012  0.6631
  776MOL0     H 2375   1.768   2.911   2.870  1.4163 -0.1718  1.3576
  776MOL0     H 2376   1.711   3.027   2.987  2.9333  2.1958  2.6067
  776MOL0     H 2377   1.641   3.018   2.709  1.4950  0.7078 -0.6354
  776MOL0     H 2378   1.744   3.169   2.739  3.8394 -1.4409  0.5675
  776MOL0     H 2379   1.541   3.246   2.773 -0.1389  0.7827  1.0504
  776MOL0     H 2380   1.631   3.234   2.921  1.3302  1.2525 -2.4163
  776MOL0     H 2381   1.472   2.991   2.851  2.2164 -1.1101  1.7129
  776MOL0     H 2382   1.485   3.049   3.008  0.4549 -0.7563  0.1694
  776MOL0     H 2383   1.325   3.197   2.799  1.8960  0.1673  0.2843
  776MOL0     H 2384   1.355   3.243   2.973 -2.4341  2.5837 -2.2839
  776MOL0     H 2385   1.062   3.234   3.005  1.9794  1.9958  1.5462
  776MOL0     H 2386   0.928   3.064   3.189  0.9214  1.3742 -1.2964
  776MOL0     H 2387   0.908   2.893   3.132 -0.4685 -0.7704  0.7817
  776MOL0     H 2388   0.770   2.968   2.937  0.5114  0.3251 -1.9441
  776MOL0     H 2389   0.796   3.147   2.993  1.5682 -0.4381  1.9072
  776MOL0     H 2390   0.652   2.922   3.162 -1.2249  1.2628  2.1361
  776MOL0     H 2391   0.668   3.097   3.198 -0.0745  0.7502 -0.7578
  776MOL0     H 2392   0.517   3.173   3.020  1.2391  0.0935 -0.6629
  776MOL0     H 2393   0.447   3.045   3.112  1.1567 -0.7122  1.1052
  776MOL0     H 2394   0.268   3.150   2.986 -1.4626 -0.3544  1.0743
  776MOL0     H 2395   0.075   3.138   2.851 -0.0689  0.6724 -0.4237
  776MOL0     H 2396  -0.264   3.203   2.645  0.9445 -0.7431 -1.2497
  776MOL0     H 2397  -0.503   3.166   2.581  1.0995 -0.6137 -0.8599
  776MOL0     H 2398  -0.645   2.748   2.621 -0.5484  0.6520 -0.0043
  776MOL0     H 2399  -0.602   2.774   2.450  2.1149  1.4164  0.3171
  776MOL0     H 2400  -0.830   2.868   2.410  0.1518 -0.8511  0.0885
  776MOL0     H 2401  -0.872   2.865   2.570  2.3857  0.1945  0.9977
  776MOL0     H 2402  -0.785   2.590   2.452 -0.3984 -0.4562  0.5924
  776MOL0     H 2403  -0.888   2.695   2.347  0.9252 -0.6386  0.0830
  776MOL0     H 2404  -1.063   2.699   2.501 -0.0883  1.0098  2.0404
  776MOL0     H 2405  -1.009   2.529   2.488 -1.7860  1.5194 -1.3778
  776MOL0     H 2406  -0.886   2.680   2.716 -1.0423  1.7065  0.5585
  776MOL0     H 2407  -0.957   2.521   2.715 -0.8338  1.5336  2.7245
  776MOL0     H 2408  -1.087   2.796   2.723 -0.6000 -0.4122 -1.4545
  776MOL0     H 2409  -1.089   2.687   2.860 -2.1703 -0.0560  0.3379
  776MOL0     H 2410  -1.244   2.665   2.601 -1.5998  1.5936  0.5755
  776MOL0     H 2411  -1.223   2.522   2.707 -2.3185 -0.0608  1.0881
  776MOL0     H 2412  -1.344   2.779   2.810  1.3908 -0.1611 -0.1530
  776MOL0     H 2413  -1.328   2.611   2.889 -1.8535 -3.9034 -2.3977
  776MOL0     H 2414  -0.440   2.746   2.639 -0.1155  0.1655 -0.9870
  776MOL0     H 2415  -0.218   2.787   2.720  1.2567  1.3044  4.2543
  776MOL0     H 2416   0.237   2.827   2.610 -2.7672  1.1437 -0.7332
  776MOL0     H 2417   0.454   2.847   2.735  3.0333  3.3844  1.8144
  776MOL0     H 2418   2.352   3.087   3.098  1.6988  1.0546  1.1291
  776MOL0     H 2419   2.522   3.077   3.260  1.3117 -2.8585  1.4771
  776MOL0     H 2420   2.577   3.281   3.701 -0.3418  0.1527  2.8939
  776MOL0     H 2421   2.720   3.365   3.889  2.3706 -1.3731  2.5112
  776MOL0     H 2422   3.133   3.301   3.825  0.5437  0.5544  0.4531
  776MOL0     H 2423   3.109   3.173   3.944 -1.6623  0.0574  0.0048
  776MOL0     H 2424   3.161   3.462   4.032  1.6776  0.2171 -4.3041
  776MOL0     H 2425   3.133   3.314   4.136  1.5061 -0.1337  0.8536
  776MOL0     H 2426   3.338   3.265   3.947 -2.0854  0.8049 -1.8045
  776MOL0     H 2427   3.346   3.228   4.122 -2.2204 -0.2865  0.3950
  776MOL0     H 2428   3.385   3.508   4.008 -2.7754  1.7275  3.1192
  776MOL0     H 2429   3.412   3.456   4.175 -0.2771  1.5545  0.2582
  776MOL0     H 2430   3.755   3.308   3.998  0.5009  1.2955  4.2983
  776MOL0     H 2431   3.011   3.064   3.775 -1.0603 -1.9329 -0.1799
  776MOL0     H 2432   2.870   2.968   3.628 -1.2962  1.7956 -3.2444
  777MOL0     O 2433   7.075   5.062   1.050  0.8614  0.3921 -0.5042
  777MOL0     C 2434   7.006   5.145   1.000  0.4639 -0.2235 -1.0597
  777MOL0     O 2435   6.900   5.205   1.062  0.8122  0.3672 -0.6403
  777MOL0     C 2436   6.826   5.128   1.156  0.0397 -0.0751 -0.5940
  777MOL0     C 2437   6.683   5.136   1.154  0.1756  0.2248 -0.3858
  777MOL0     C 2438   6.595   5.077   1.247 -0.0553  0.0779 -0.6111
  777MOL0     C 2439   6.652   5.030   1.372 -0.9843  0.2101 -0.4137
  777MOL0     O 2440   6.582   4.976   1.483  0.1482  0.4480 -0.2801
  777MOL0     C 2441   6.473   5.051   1.527  0.9008  0.8979  0.3803
  777MOL0     C 2442   6.348   4.982   1.466 -0.3611  0.2585 -0.6340
  777MOL0     C 2443   6.210   5.058   1.499  0.3159 -0.5058  0.2742
  777MOL0     C 2444   6.084   5.028   1.405  0.3199 -0.2577 -0.0225
  777MOL0     C 2445   5.951   5.099   1.431 -0.0204 -0.2897  0.4554
  777MOL0     C 2446   5.869   5.083   1.300 -0.2284  0.1009 -0.9747
  777MOL0     C 2447   5.741   5.167   1.317 -0.2692 -0.0123  0.4397
  777MOL0     C 2448   5.647   5.112   1.430 -0.2891 -1.2622  0.3500
  777MOL0     N 2449   5.518   5.158   1.403 -0.1025 -0.6817  1.1022
  777MOL0     C 2450   5.432   5.093   1.313 -0.6212  0.2549  0.1494
  777MOL0     C 2451   5.341   5.183   1.282  0.2497 -0.5067  0.0419
  777MOL0     C 2452   5.238   5.171   1.167 -0.4653 -0.5105  0.0120
  777MOL0     C 2453   5.122   5.085   1.209  0.6724 -0.1405  0.5152
  777MOL0     C 2454   5.034   5.161   1.305  0.5740  0.1884 -0.2962
  777MOL0     C 2455   4.919   5.070   1.352  0.0329 -0.7128 -0.4198
  777MOL0     O 2456   4.810   5.074   1.255 -0.3812  0.8573 -0.2997
  777MOL0     C 2457   4.714   5.163   1.261 -0.1282  0.1414  1.2303
  777MOL0     C 2458   4.695   5.265   1.353 -0.8382  0.1263 -0.5991
  777MOL0     C 2459   4.591   5.356   1.346 -0.3072  0.0201 -0.1883
  777MOL0     C 2460   4.501   5.348   1.239  0.6102  0.1035  0.4015
  777MOL0     C 2461   4.399   5.450   1.219 -0.5940 -0.3939  0.1457
  777MOL0     O 2462   4.291   5.408   1.141 -1.0064  0.4260  0.3585
  777MOL0     C 2463   4.168   5.476   1.139  0.3475  0.3547  0.2979
  777MOL0     C 2464   4.143   5.614   1.136 -0.9961 -0.1094  0.2175
  777MOL0     C 2465   4.008   5.658   1.139 -0.2333  0.0493  0.4468
  777MOL0     C 2466   3.895   5.582   1.118 -0.1081  0.3319 -0.3899
  777MOL0     O 2467   3.774   5.633   1.115  0.1421 -0.6407  0.9623
  777MOL0     C 2468   3.673   5.549   1.059 -0.3660 -0.3928 -0.6256
  777MOL0     C 2469   3.552   5.632   1.045  0.0444  0.3668  0.6237
  777MOL0     C 2470   3.431   5.583   0.954  0.5891  0.3419  0.3100
  777MOL0     C 2471   3.295   5.640   1.001 -0.9354  0.8667 -0.0595
  777MOL0     C 2472   3.201   5.644   0.883  0.6048 -0.3827  0.1089
  777MOL0     C 2473   3.167   5.506   0.827 -0.2602  0.4390 -0.4116
  777MOL0     C 2474   3.070   5.532   0.713  1.1543 -0.3322 -0.9799
  777MOL0     C 2475   3.006   5.400   0.670 -0.4669  0.2517  0.6578
  777MOL0    Cl 2476   2.889   5.430   0.537  0.0729  0.2235 -0.1111
  777MOL0     C 2477   3.926   5.446   1.090 -0.4478  0.3942 -0.2553
  777MOL0     C 2478   4.061   5.394   1.109  0.3883  0.3765 -0.6458
  777MOL0     O 2479   4.414   5.563   1.272  0.0977 -0.4290  0.3828
  777MOL0     C 2480   4.514   5.236   1.157  0.1484  0.1686  0.6695
  777MOL0     C 2481   4.624   5.142   1.160  0.9209 -0.9266 -1.0264
  777MOL0     N 2482   5.371   5.301   1.356  0.9275  0.1140  0.2885
  777MOL0     N 2483   5.473   5.284   1.429  0.4933  0.8271  0.0486
  777MOL0     C 2484   6.792   5.033   1.380 -0.0705  0.1637 -0.3462
  777MOL0     C 2485   6.877   5.083   1.273 -0.0763  0.2249 -0.1999
  777MOL0     C 2486   7.053   5.188   0.871  0.1677  0.6850 -0.7950
  777MOL0     C 2487   7.157   5.130   0.807 -0.1487 -0.4364  0.2167
  777MOL0     C 2488   7.211   5.188   0.690 -0.9532 -1.1959 -0.1348
  777MOL0     C 2489   7.160   5.306   0.629  0.4850 -1.0685  0.4630
  777MOL0     O 2490   7.211   5.371   0.517  0.5162 -0.2559  0.0165
  777MOL0     C 2491   7.286   5.290   0.423 -0.4246 -0.2813 -0.1785
  777MOL0     C 2492   7.181   5.198   0.359  0.4309  0.8832 -0.2003
  777MOL0     C 2493   7.079   5.291   0.284  0.1048  0.0165  0.1081
  777MOL0     C 2494   6.988   5.206   0.200  0.5648  0.0146 -0.2235
  777MOL0     C 2495   7.048   5.130   0.092 -0.0678 -1.0098  1.0155
  777MOL0     C 2496   7.099   5.073   0.000  0.0032  0.3173  0.0128
  777MOL0     C 2497   7.044   5.361   0.691  0.3578  0.0423 -0.6361
  777MOL0     C 2498   6.991   5.301   0.811  0.4184  0.9696  0.4562
  777MOL0     H 2499   6.641   5.205   1.081 -2.6888 -0.1382  0.8015
  777MOL0     H 2500   6.488   5.079   1.229 -0.4622  1.3243  1.6492
  777MOL0     H 2501   6.481   5.156   1.500 -3.6111  1.5620  0.7649
  777MOL0     H 2502   6.464   5.052   1.636 -1.1848 -0.0213  0.2646
  777MOL0     H 2503   6.342   4.876   1.492  2.4347  0.1056 -0.2867
  777MOL0     H 2504   6.364   4.978   1.358 -0.7076 -1.4555 -0.6502
  777MOL0     H 2505   6.212   5.168   1.502 -3.5059 -0.3036  2.9250
  777MOL0     H 2506   6.189   5.033   1.603  0.3322  0.5154  0.5401
  777MOL0     H 2507   6.119   5.054   1.304  3.5945 -1.1522  0.7764
  777MOL0     H 2508   6.065   4.921   1.400 -0.7032 -0.0470 -1.7300
  777MOL0     H 2509   5.960   5.206   1.454  2.4839 -0.2799 -0.3483
  777MOL0     H 2510   5.887   5.045   1.501 -1.7935  0.1507 -0.7601
  777MOL0     H 2511   5.848   4.976   1.295  2.5016 -0.5677  0.2160
  777MOL0     H 2512   5.927   5.107   1.211  2.1714 -1.7334 -0.0198
  777MOL0     H 2513   5.756   5.273   1.337  3.9732  0.2239 -2.5314
  777MOL0     H 2514   5.685   5.158   1.224  0.4483  0.6047 -0.0649
  777MOL0     H 2515   5.683   5.158   1.523 -2.1582 -1.1116  1.0358
  777MOL0     H 2516   5.644   5.003   1.438 -1.8118 -1.2022  0.8956
  777MOL0     H 2517   5.458   5.005   1.255  0.0403  0.4146  0.1974
  777MOL0     H 2518   5.298   5.127   1.086  1.3323 -2.3230  2.1920
  777MOL0     H 2519   5.192   5.263   1.130 -1.5981 -0.2949  1.8544
  777MOL0     H 2520   5.156   4.989   1.249  1.3588  0.1613  0.6653
  777MOL0     H 2521   5.059   5.062   1.122 -1.4928 -2.8714  2.5948
  777MOL0     H 2522   5.096   5.191   1.389  1.2736 -0.3489 -0.6037
  777MOL0     H 2523   4.988   5.255   1.272 -2.5215 -0.3224  2.0755
  777MOL0     H 2524   4.885   5.093   1.454 -0.2305 -2.3351 -0.1134
  777MOL0     H 2525   4.957   4.968   1.353 -1.2896 -1.2976  2.8051
  777MOL0     H 2526   4.768   5.285   1.430 -1.1469 -1.1301  0.0444
  777MOL0     H 2527   4.580   5.427   1.427 -0.4649 -0.8815  0.5799
  777MOL0     H 2528   4.226   5.684   1.140 -0.7280 -0.4695  2.2990
  777MOL0     H 2529   3.986   5.764   1.143 -3.9157 -0.3618 -2.6977
  777MOL0     H 2530   3.654   5.470   1.132 -1.7898  0.8441  0.4089
  777MOL0     H 2531   3.687   5.501   0.962 -2.3748  2.2811 -2.4209
  777MOL0     H 2532   3.576   5.737   1.024  2.0907  0.1658  1.7461
  777MOL0     H 2533   3.490   5.639   1.135 -2.9535 -3.2330 -0.8914
  777MOL0     H 2534   3.426   5.474   0.952  1.5202  0.2820  0.6563
  777MOL0     H 2535   3.462   5.620   0.856  2.2900  2.1343  1.4242
  777MOL0     H 2536   3.261   5.570   1.078  1.0471  1.1245  1.1096
  777MOL0     H 2537   3.309   5.732   1.058  1.6806  0.7616 -0.4192
  777MOL0     H 2538   3.232   5.721   0.811  0.3949  0.1638  0.5898
  777MOL0     H 2539   3.110   5.682   0.930 -0.9352 -2.9531 -0.6038
  777MOL0     H 2540   3.136   5.442   0.910  2.4761  0.1637  0.4895
  777MOL0     H 2541   3.256   5.461   0.784  0.9446  1.7235  0.6104
  777MOL0     H 2542   2.988   5.601   0.738  2.1538  1.1241 -1.6219
  777MOL0     H 2543   3.118   5.590   0.635  1.9534  0.6454  0.2015
  777MOL0     H 2544   2.953   5.351   0.753  0.9592 -0.3985  1.2193
  777MOL0     H 2545   3.075   5.331   0.621 -1.4406  0.2196 -0.7348
  777MOL0     H 2546   3.849   5.372   1.071  0.4739 -1.4599  2.4406
  777MOL0     H 2547   4.095   5.293   1.089  0.2310 -0.2506  1.8861
  777MOL0     H 2548   4.446   5.230   1.072  0.7823  0.6710  0.1216
  777MOL0     H 2549   4.633   5.057   1.093  0.3361  0.8436 -3.4930
  777MOL0     H 2550   6.834   5.012   1.478  2.1269  5.3564  0.2024
  777MOL0     H 2551   6.985   5.094   1.283  0.0113  0.0635 -0.9481
  777MOL0     H 2552   7.198   5.035   0.840  0.4567 -0.1866  0.1915
  777MOL0     H 2553   7.305   5.148   0.653  0.1289  1.4397 -0.4257
  777MOL0     H 2554   7.365   5.225   0.462  1.3674  1.2809 -1.0434
  777MOL0     H 2555   7.343   5.355   0.357  3.5078 -0.4317  2.7118
  777MOL0     H 2556   7.232   5.121   0.300 -2.2266 -2.4021  1.4392
  777MOL0     H 2557   7.121   5.133   0.424  0.5464  1.1818  0.2111
  777MOL0     H 2558   7.139   5.356   0.219  3.0589 -2.0896  0.5239
  777MOL0     H 2559   7.021   5.343   0.361 -1.9098 -0.6419 -0.8956
  777MOL0     H 2560   6.941   5.142   0.276  2.5159 -2.1824 -0.7618
  777MOL0     H 2561   6.905   5.266   0.161  1.6706  1.4681 -0.4099
  777MOL0     H 2562   7.166   5.034  -0.073 -1.9226  0.4443 -1.9200
  777MOL0     H 2563   6.998   5.449   0.647  0.0282 -0.1995 -0.7764
  777MOL0     H 2564   6.903   5.354   0.847 -1.7743  0.9185 -4.0728
  778MOL0     O 2565   7.503   4.667   0.449 -0.3575 -0.2662  0.1593
  778MOL0     C 2566   7.391   4.718   0.464  0.6553 -0.0489 -0.0625
  778MOL0     O 2567   7.364   4.850   0.449 -0.4242 -0.0272  0.3272
  778MOL0     C 2568   7.473   4.931   0.412  0.8418 -0.4526  0.1148
  778MOL0     C 2569   7.563   4.999   0.504  0.6982  0.9497  0.2646
  778MOL0     C 2570   7.639   5.109   0.456  1.2230  0.1145 -0.8083
  778MOL0     C 2571   7.635   5.146   0.327 -0.0827  0.1308  0.3634
  778MOL0     O 2572   7.705   5.259   0.289 -0.1940 -0.2389 -0.8475
  778MOL0     C 2573   7.849   5.231   0.278 -0.2182 -0.4805 -0.1054
  778MOL0     C 2574   7.917   5.360   0.258  0.1616  0.1595  0.3199
  778MOL0     C 2575   8.066   5.338   0.263  0.1062 -0.1299 -0.1395
  778MOL0     C 2576   8.127   5.472   0.222 -0.1548 -0.4361 -0.1026
  778MOL0     C 2577   8.278   5.479   0.257 -0.5302 -0.1724 -0.5087
  778MOL0     C 2578   8.366   5.371   0.189 -1.2739 -0.3742 -0.9580
  778MOL0     C 2579   8.513   5.397   0.198 -0.0165  0.5607  0.3351
  778MOL0     C 2580   8.558   5.416   0.339  0.4556 -0.0081  0.5764
  778MOL0     N 2581   8.527   5.291   0.422  0.0339  0.3958  0.3374
  778MOL0     C 2582   8.557   5.156   0.395  0.5123 -0.0685 -0.0157
  778MOL0     C 2583   8.483   5.085   0.486 -0.3344 -0.1628  0.1388
  778MOL0     C 2584   8.490   4.939   0.478  0.6119 -0.5673  0.2100
  778MOL0     C 2585   8.352   4.871   0.488  0.6886 -0.0989 -0.3548
  778MOL0     C 2586   8.370   4.710   0.466  0.5708 -0.4597  0.6177
  778MOL0     C 2587   8.493   4.649   0.526 -0.2328  0.0293  0.8653
  778MOL0     O 2588   8.464   4.675   0.670  0.3833 -0.6390  0.1899
  778MOL0     C 2589   8.572   4.656   0.761  0.4584 -0.7771  0.2280
  778MOL0     C 2590   8.567   4.743   0.871 -0.5100 -0.5385  0.2308
  778MOL0     C 2591   8.660   4.731   0.981  0.7614 -0.1054  0.0092
  778MOL0     C 2592   8.754   4.630   0.985 -0.2469 -0.1057 -0.6932
  778MOL0     C 2593   8.862   4.623   1.089 -0.0366  0.5937  0.1680
  778MOL0     O 2594   8.987   4.574   1.060  0.0585 -0.3698  0.3794
  778MOL0     C 2595   9.091   4.538   1.144  0.7953  0.5081 -1.2128
  778MOL0     C 2596   9.207   4.508   1.088  0.0224 -1.1411 -0.5015
  778MOL0     C 2597   9.319   4.471   1.163 -0.2423  0.1350 -0.2903
  778MOL0     C 2598   9.309   4.447   1.300 -0.1362  0.8185 -0.6936
  778MOL0     O 2599   9.424   4.405   1.370 -0.4075 -0.3357  0.5077
  778MOL0     C 2600   9.431   4.418   1.506 -0.4607 -0.4549  0.5636
  778MOL0     C 2601   9.573   4.399   1.551 -0.3680  0.3416  0.1332
  778MOL0     C 2602   9.576   4.368   1.705 -0.2817  0.8740  0.0116
  778MOL0     C 2603   9.715   4.337   1.737 -0.8639  0.8912 -0.7355
  778MOL0     C 2604   9.735   4.289   1.873 -0.7134  0.2709  0.0802
  778MOL0     C 2605   9.875   4.234   1.902  1.0201 -0.0739 -0.0223
  778MOL0     C 2606   9.929   4.245   2.046  0.0454  1.3492  1.2014
  778MOL0     C 2607  10.077   4.241   2.032 -0.1533  0.3122 -0.0213
  778MOL0    Cl 2608  10.157   4.205   2.187 -0.2624  0.0836 -0.5903
  778MOL0     C 2609   9.186   4.468   1.363 -0.6196  0.7908  0.4907
  778MOL0     C 2610   9.078   4.512   1.284  0.8027  0.6743  0.8565
  778MOL0     O 2611   8.826   4.660   1.194  0.0470  0.7187  0.0335
  778MOL0     C 2612   8.755   4.540   0.875 -0.1691 -0.0547 -0.1463
  778MOL0     C 2613   8.665   4.555   0.765  0.0757 -1.2657  0.2438
  778MOL0     N 2614   8.431   5.172   0.577  0.1064  0.6659  0.4633
  778MOL0     N 2615   8.461   5.294   0.540 -0.0591  0.0816  0.4287
  778MOL0     C 2616   7.565   5.077   0.239  0.9454  0.4527  0.8858
  778MOL0     C 2617   7.485   4.960   0.273 -1.0476 -0.6284  0.3021
  778MOL0     C 2618   7.272   4.625   0.498  0.1694  0.5986 -0.2327
  778MOL0     C 2619   7.144   4.674   0.509  0.0794 -0.2735 -0.1064
  778MOL0     C 2620   7.039   4.577   0.527 -0.1151 -0.2022 -0.1818
  778MOL0     C 2621   7.063   4.436   0.538 -0.2567  0.7811  0.1086
  778MOL0     O 2622   6.965   4.343   0.566 -0.0196  0.0207 -0.3035
  778MOL0     C 2623   6.832   4.389   0.591  0.0588 -0.1379  0.4381
  778MOL0     C 2624   6.743   4.279   0.631  0.9307  0.2754 -0.1356
  778MOL0     C 2625   6.603   4.328   0.679  0.1906  0.2020  0.1487
  778MOL0     C 2626   6.520   4.379   0.562  0.1007 -0.8358  0.3719
  778MOL0     C 2627   6.559   4.510   0.515 -0.5744  0.0920  0.2273
  778MOL0     C 2628   6.569   4.624   0.479 -0.3036 -0.3386  1.0045
  778MOL0     C 2629   7.201   4.399   0.524  0.3968 -0.6567  0.1121
  778MOL0     C 2630   7.299   4.490   0.513  0.1575 -0.0230  0.0096
  778MOL0     H 2631   7.539   4.972   0.607 -2.4614  1.2532 -0.2975
  778MOL0     H 2632   7.701   5.153   0.534  0.7764 -1.3310  0.4185
  778MOL0     H 2633   7.869   5.167   0.192  0.9372 -2.3301  1.4488
  778MOL0     H 2634   7.889   5.181   0.367  0.2060 -1.2278 -0.7095
  778MOL0     H 2635   7.873   5.430   0.330  1.3779  0.4906  0.7539
  778MOL0     H 2636   7.892   5.410   0.163 -4.7404 -1.7951  0.2730
  778MOL0     H 2637   8.111   5.262   0.198 -1.2352  0.8188 -2.3229
  778MOL0     H 2638   8.101   5.312   0.363  3.5006 -0.0921 -1.1795
  778MOL0     H 2639   8.099   5.501   0.120 -1.3904 -0.4500  0.2205
  778MOL0     H 2640   8.081   5.548   0.286  0.9891  0.2070 -0.0189
  778MOL0     H 2641   8.285   5.468   0.365  4.1684 -3.5542 -0.8602
  778MOL0     H 2642   8.315   5.578   0.228  1.5702 -1.2922 -1.8211
  778MOL0     H 2643   8.343   5.363   0.082  1.0338  1.3751 -1.6675
  778MOL0     H 2644   8.339   5.276   0.236 -2.2824 -0.0400 -0.8364
  778MOL0     H 2645   8.581   5.325   0.151 -0.1256 -1.6594  3.2543
  778MOL0     H 2646   8.529   5.490   0.142  2.5856  0.6705  1.1188
  778MOL0     H 2647   8.508   5.500   0.387 -1.7458 -1.5493  1.1801
  778MOL0     H 2648   8.664   5.441   0.332  0.5161 -0.7480 -3.1533
  778MOL0     H 2649   8.621   5.122   0.313 -1.6254 -1.9976 -0.9951
  778MOL0     H 2650   8.567   4.913   0.551  0.3502 -0.8491  0.3865
  778MOL0     H 2651   8.530   4.922   0.378 -0.6467 -2.0618 -0.0866
  778MOL0     H 2652   8.283   4.924   0.421 -0.5998 -2.2687 -0.8392
  778MOL0     H 2653   8.313   4.896   0.587  0.2155  1.5397 -0.9111
  778MOL0     H 2654   8.281   4.661   0.506 -1.2830  1.5505 -0.8010
  778MOL0     H 2655   8.371   4.697   0.357 -0.3013  1.8827  0.2654
  778MOL0     H 2656   8.584   4.690   0.482 -0.8927  0.2636 -0.3277
  778MOL0     H 2657   8.493   4.543   0.499 -2.0221  0.2508 -0.1635
  778MOL0     H 2658   8.498   4.827   0.870 -0.3144 -0.3773 -0.4900
  778MOL0     H 2659   8.657   4.796   1.068 -2.6957  1.5978 -1.2359
  778MOL0     H 2660   9.213   4.539   0.984  1.9457  3.0383  0.6226
  778MOL0     H 2661   9.418   4.455   1.121 -0.1675 -1.3435  0.3846
  778MOL0     H 2662   9.361   4.343   1.544 -1.6704 -1.2739 -2.8956
  778MOL0     H 2663   9.390   4.516   1.531 -0.9369 -0.7557  0.9909
  778MOL0     H 2664   9.626   4.492   1.528  1.6499 -0.5206  1.0097
  778MOL0     H 2665   9.618   4.311   1.505  1.1455  0.5552  1.1318
  778MOL0     H 2666   9.531   4.269   1.715  2.2454 -0.5810 -2.0767
  778MOL0     H 2667   9.525   4.447   1.762 -2.5669 -2.5020  3.0912
  778MOL0     H 2668   9.758   4.253   1.683 -0.8333 -0.4036  1.2176
  778MOL0     H 2669   9.779   4.425   1.721 -2.0720  1.5024 -2.5014
  778MOL0     H 2670   9.675   4.203   1.904 -0.7511 -0.5443 -2.0953
  778MOL0     H 2671   9.708   4.368   1.944  1.1006 -0.0419  1.1879
  778MOL0     H 2672   9.938   4.287   1.830  1.8671 -3.2781 -1.8423
  778MOL0     H 2673   9.874   4.129   1.871 -1.2128  0.3675 -1.6987
  778MOL0     H 2674   9.886   4.336   2.090 -2.0665 -0.0196  2.1495
  778MOL0     H 2675   9.894   4.157   2.100  1.3550 -0.8771 -1.3703
  778MOL0     H 2676  10.094   4.332   1.973 -1.1226 -0.6530 -1.8533
  778MOL0     H 2677  10.107   4.166   1.959  1.4114 -0.6826  1.5797
  778MOL0     H 2678   9.171   4.453   1.470 -3.2785 -1.1630 -0.0438
  778MOL0     H 2679   8.986   4.522   1.341 -0.8111 -3.1530 -0.7234
  778MOL0     H 2680   8.822   4.454   0.878  0.7354  0.6304 -0.0832
  778MOL0     H 2681   8.659   4.491   0.678 -0.9736  1.1681 -1.5823
  778MOL0     H 2682   7.583   5.120   0.141  3.1605  0.0763  1.0970
  778MOL0     H 2683   7.422   4.907   0.202 -0.9889  2.6290 -2.4355
  778MOL0     H 2684   7.127   4.778   0.481  2.0788  0.3314  0.7162
  778MOL0     H 2685   6.936   4.607   0.544  0.4778  0.9847  1.6743
  778MOL0     H 2686   6.793   4.419   0.494 -0.3754 -2.1707 -0.0421
  778MOL0     H 2687   6.832   4.469   0.667  1.5431 -1.4933  1.9592
  778MOL0     H 2688   6.726   4.206   0.551 -0.4172 -0.3671  0.6922
  778MOL0     H 2689   6.784   4.219   0.712 -3.7531 -3.5428 -0.1165
  778MOL0     H 2690   6.619   4.394   0.765 -1.1371 -4.1326  4.1526
  778MOL0     H 2691   6.548   4.241   0.716  1.8093 -1.4107 -1.0961
  778MOL0     H 2692   6.528   4.303   0.483  0.8599 -1.4530  1.0346
  778MOL0     H 2693   6.412   4.386   0.579 -0.0519  1.0328 -1.1111
  778MOL0     H 2694   6.573   4.727   0.449 -0.5178 -0.1704  1.5397
  778MOL0     H 2695   7.235   4.296   0.522 -0.4612 -0.9444 -0.3616
  778MOL0     H 2696   7.403   4.460   0.506 -0.3075 -1.3112 -3.3958
  779MOL0     O 2697  11.281   3.990   8.009  0.2767 -0.0744 -0.3188
  779MOL0     C 2698  11.298   4.044   8.120  0.4199  0.7901  0.3802
  779MOL0     O 2699  11.199   4.042   8.218 -0.5325  0.2656  0.4578
  779MOL0     C 2700  11.075   3.987   8.189  1.3904 -0.2747  0.3310
  779MOL0     C 2701  10.986   4.088   8.169 -0.1583  0.0036  1.0192
  779MOL0     C 2702  10.857   4.054   8.133  0.2113  0.5619  0.6141
  779MOL0     C 2703  10.814   3.920   8.121  0.2871 -0.1439  1.0267
  779MOL0     O 2704  10.686   3.875   8.101  0.1791  0.3741  0.5365
  779MOL0     C 2705  10.589   3.966   8.040  0.2211 -0.3807 -0.5865
  779MOL0     C 2706  10.465   3.874   8.009 -0.5842 -0.0572 -0.0680
  779MOL0     C 2707  10.469   3.822   7.859 -0.2333  0.6505 -0.6355
  779MOL0     C 2708  10.327   3.780   7.821 -0.2196  0.6369  1.0917
  779MOL0     C 2709  10.317   3.709   7.690 -0.5731 -0.3450  0.4493
  779MOL0     C 2710  10.340   3.794   7.554 -0.6115  0.0390 -0.7683
  779MOL0     C 2711  10.339   3.696   7.440  0.0627  0.1140 -0.6001
  779MOL0     C 2712  10.208   3.634   7.410  0.6684 -0.6415  0.2838
  779MOL0     N 2713  10.098   3.728   7.386 -0.9009 -0.8448 -0.7147
  779MOL0     C 2714  10.074   3.805   7.275  0.5606 -0.7876 -0.9064
  779MOL0     C 2715   9.953   3.870   7.298 -1.1312 -0.5334  0.2025
  779MOL0     C 2716   9.898   3.974   7.204  0.2649 -0.4944  0.4800
  779MOL0     C 2717   9.871   3.935   7.062 -0.6575  0.8488 -0.2395
  779MOL0     C 2718   9.863   4.054   6.971 -0.3678  0.5168  0.4744
  779MOL0     C 2719   9.743   4.134   6.996 -1.3917  0.0796  0.2974
  779MOL0     O 2720   9.621   4.069   6.965  0.4869  0.3153  0.2383
  779MOL0     C 2721   9.507   4.149   6.968  0.6557  0.0192  0.8750
  779MOL0     C 2722   9.380   4.079   6.974  0.5696 -0.8907  0.7671
  779MOL0     C 2723   9.258   4.153   6.985 -0.0157 -0.7797 -0.7784
  779MOL0     C 2724   9.258   4.291   7.010 -0.4015  0.3054 -0.2177
  779MOL0     C 2725   9.133   4.361   7.031  0.2320 -0.2960  0.4485
  779MOL0     O 2726   9.024   4.294   7.082 -0.5253 -0.3379 -0.2812
  779MOL0     C 2727   8.904   4.350   7.092 -0.1581 -0.0340  0.0049
  779MOL0     C 2728   8.813   4.296   7.196 -0.0009 -0.3855  1.0346
  779MOL0     C 2729   8.694   4.364   7.233 -0.9183  0.3622  0.4688
  779MOL0     C 2730   8.654   4.476   7.161 -0.6985  0.7786 -0.1646
  779MOL0     O 2731   8.531   4.529   7.189  0.0592 -0.1772  0.7794
  779MOL0     C 2732   8.490   4.653   7.134 -1.2992 -0.4466  0.3858
  779MOL0     C 2733   8.346   4.667   7.175  0.3398 -0.3107 -0.4401
  779MOL0     C 2734   8.347   4.718   7.326 -0.3535  0.2181 -0.0006
  779MOL0     C 2735   8.204   4.687   7.389 -0.8254 -0.8396  0.2767
  779MOL0     C 2736   8.214   4.685   7.546  0.0309 -0.2437 -0.5551
  779MOL0     C 2737   8.294   4.807   7.606  0.5000 -0.1111 -0.6405
  779MOL0     C 2738   8.217   4.934   7.596 -0.3648 -0.6303  0.0607
  779MOL0     C 2739   8.294   5.060   7.641  0.6790  0.3077  0.6741
  779MOL0    Cl 2740   8.159   5.172   7.641 -0.4903  0.1703 -0.0658
  779MOL0     C 2741   8.744   4.524   7.065 -0.5060  0.5213  0.4164
  779MOL0     C 2742   8.859   4.462   7.023  0.7925  0.0616  0.5675
  779MOL0     O 2743   9.143   4.478   7.026 -0.2484 -0.0404 -1.0415
  779MOL0     C 2744   9.379   4.354   7.016 -1.4009  0.1283 -0.5198
  779MOL0     C 2745   9.498   4.284   6.997  0.1599  0.2323 -0.3645
  779MOL0     N 2746   9.906   3.830   7.424  0.0304  0.2517 -0.2776
  779MOL0     N 2747  10.002   3.754   7.477  0.5317  0.1223 -0.0350
  779MOL0     C 2748  10.912   3.819   8.144  0.4214  1.3664  0.2379
  779MOL0     C 2749  11.045   3.857   8.170  0.5260 -0.1807 -0.5902
  779MOL0     C 2750  11.431   4.096   8.153  1.0377  0.1318 -0.3573
  779MOL0     C 2751  11.443   4.213   8.231 -0.2127  0.1839 -0.7226
  779MOL0     C 2752  11.565   4.269   8.278  0.0809 -0.1432 -0.2377
  779MOL0     C 2753  11.684   4.193   8.247 -0.6938 -0.3257  0.0299
  779MOL0     O 2754  11.809   4.244   8.274 -0.0551 -0.0527  0.4510
  779MOL0     C 2755  11.834   4.295   8.408  0.8616  0.2093  0.2937
  779MOL0     C 2756  11.979   4.317   8.443  0.4160 -0.1746  0.6406
  779MOL0     C 2757  12.019   4.303   8.595  0.0850  1.3356 -0.1932
  779MOL0     C 2758  11.961   4.403   8.694 -0.4119  0.4547  0.7827
  779MOL0     C 2759  11.977   4.534   8.636 -0.1139 -0.8853 -0.5124
  779MOL0     C 2760  12.007   4.641   8.587  0.0135  0.2241  0.7759
  779MOL0     C 2761  11.672   4.073   8.171  0.9168 -0.1245 -0.2463
  779MOL0     C 2762  11.544   4.020   8.142 -0.6437  0.1242 -1.2124
  779MOL0     H 2763  11.025   4.188   8.182 -1.7040  0.7145  0.4645
  779MOL0     H 2764  10.793   4.135   8.101 -0.8647 -0.6859 -0.5306
  779MOL0     H 2765  10.623   4.010   7.946  2.8954 -0.1717  0.3941
  779MOL0     H 2766  10.571   4.049   8.108 -1.4174 -2.3882  1.5730
  779MOL0     H 2767  10.374   3.930   8.031  0.2059  1.3736 -0.3657
  779MOL0     H 2768  10.473   3.788   8.076  3.4315 -1.3041 -1.7860
  779MOL0     H 2769  10.536   3.736   7.848  0.3669  0.8129  1.3704
  779MOL0     H 2770  10.490   3.897   7.783 -0.8993  2.3958  0.8378
  779MOL0     H 2771  10.285   3.725   7.906 -0.1637  0.1533  0.8117
  779MOL0     H 2772  10.253   3.859   7.809 -0.2916  0.3649 -0.4506
  779MOL0     H 2773  10.215   3.672   7.681 -0.4170 -0.6208 -0.2045
  779MOL0     H 2774  10.386   3.624   7.687  1.8837  1.5210 -3.6015
  779MOL0     H 2775  10.440   3.840   7.557 -1.3048  1.5927  0.1448
  779MOL0     H 2776  10.264   3.871   7.539 -0.6222  0.6492  1.9044
  779MOL0     H 2777  10.364   3.746   7.346 -2.7141 -0.2348 -1.6175
  779MOL0     H 2778  10.419   3.623   7.457  1.3938  1.1121 -2.1665
  779MOL0     H 2779  10.173   3.581   7.500  3.5931 -0.8007  1.4301
  779MOL0     H 2780  10.209   3.583   7.314  0.4305 -2.0013  0.9716
  779MOL0     H 2781  10.151   3.808   7.198  1.8833 -2.8637  0.2591
  779MOL0     H 2782   9.965   4.061   7.196 -0.0971  0.1007  3.1553
  779MOL0     H 2783   9.809   4.015   7.253  2.0242  2.1999  1.6866
  779MOL0     H 2784   9.791   3.864   7.045  1.4537 -0.9140 -3.9420
  779MOL0     H 2785   9.956   3.877   7.025 -1.5594 -0.6233 -0.0457
  779MOL0     H 2786   9.952   4.118   6.978  0.2078 -0.1952 -0.1503
  779MOL0     H 2787   9.864   4.018   6.867  0.3500 -1.7488  1.1930
  779MOL0     H 2788   9.739   4.219   6.927 -1.5868  0.2259  0.4875
  779MOL0     H 2789   9.752   4.175   7.097  0.1364 -0.5577  0.4458
  779MOL0     H 2790   9.365   3.976   6.942 -0.5582 -0.3531 -0.4929
  779MOL0     H 2791   9.162   4.104   6.972 -1.3048  0.2580  3.3638
  779MOL0     H 2792   8.853   4.213   7.253  1.9502 -0.4655 -0.3618
  779MOL0     H 2793   8.635   4.326   7.316  2.2032 -0.3426  2.5612
  779MOL0     H 2794   8.498   4.646   7.025  0.1071 -0.5411  0.4740
  779MOL0     H 2795   8.547   4.736   7.177 -0.6057 -0.3874 -0.5946
  779MOL0     H 2796   8.299   4.572   7.149 -0.9035 -0.1595  1.1225
  779MOL0     H 2797   8.279   4.737   7.125  0.3086 -0.5601 -0.7478
  779MOL0     H 2798   8.365   4.826   7.332 -0.7764  0.2391  1.2103
  779MOL0     H 2799   8.418   4.657   7.381 -1.6897 -3.2053 -1.7636
  779MOL0     H 2800   8.139   4.768   7.355 -1.6638  0.3924  4.3144
  779MOL0     H 2801   8.162   4.592   7.354 -0.2310 -1.2807  0.7401
  779MOL0     H 2802   8.267   4.596   7.581 -2.6436 -2.6415 -2.1038
  779MOL0     H 2803   8.116   4.672   7.593  1.2698  1.1484  2.7090
  779MOL0     H 2804   8.399   4.823   7.577  1.0203  2.2537  2.0186
  779MOL0     H 2805   8.304   4.785   7.713 -2.4474  0.4892 -0.1678
  779MOL0     H 2806   8.195   4.946   7.490 -0.0901 -0.5875  0.0082
  779MOL0     H 2807   8.127   4.911   7.654 -0.9595 -1.4586 -1.1666
  779MOL0     H 2808   8.366   5.097   7.569  0.8366 -0.5432  0.3812
  779MOL0     H 2809   8.328   5.019   7.737  1.4620 -2.4032 -0.6548
  779MOL0     H 2810   8.716   4.615   7.013  0.6609  0.2569 -0.7104
  779MOL0     H 2811   8.919   4.515   6.950 -0.8416  3.0191  1.1928
  779MOL0     H 2812   9.379   4.463   7.025 -0.1784  0.0238  1.4645
  779MOL0     H 2813   9.590   4.342   6.997  0.6999 -0.6070 -1.0138
  779MOL0     H 2814  10.894   3.713   8.155  1.0427  1.5086  3.6138
  779MOL0     H 2815  11.128   3.788   8.181 -0.5034 -1.3767 -0.0472
  779MOL0     H 2816  11.349   4.265   8.247  0.6742  1.4893  0.4601
  779MOL0     H 2817  11.574   4.362   8.334 -0.1578  0.9374 -1.9249
  779MOL0     H 2818  11.801   4.223   8.483 -0.9353 -0.6497 -1.2662
  779MOL0     H 2819  11.781   4.391   8.412 -0.8728 -0.7373  1.2818
  779MOL0     H 2820  12.043   4.252   8.382 -3.4080 -2.5107 -1.2528
  779MOL0     H 2821  12.013   4.418   8.419  0.6311 -0.7663 -1.8208
  779MOL0     H 2822  12.128   4.314   8.592  0.4488 -1.5746 -3.0945
  779MOL0     H 2823  11.991   4.207   8.639  0.1862  1.9193  1.1814
  779MOL0     H 2824  11.855   4.380   8.704  0.2003 -4.4005 -1.1511
  779MOL0     H 2825  11.998   4.403   8.797  1.9845  0.6565 -0.0150
  779MOL0     H 2826  12.017   4.734   8.536  0.4884  0.5409  1.4417
  779MOL0     H 2827  11.765   4.018   8.160  0.5044 -0.8919 -0.0497
  779MOL0     H 2828  11.530   3.926   8.090 -1.6581 -1.8047  2.2835
  780MOL0     O 2829   3.407   4.776   7.099 -0.3579  0.2556 -0.0236
  780MOL0     C 2830   3.472   4.678   7.069 -0.2990  0.0673  0.1031
  780MOL0     O 2831   3.428   4.569   6.999 -0.5529 -0.0470 -0.2305
  780MOL0     C 2832   3.300   4.560   6.939 -0.3315 -1.4799  0.6662
  780MOL0     C 2833   3.245   4.432   6.920  0.8776 -0.6850 -0.6123
  780MOL0     C 2834   3.124   4.414   6.848 -0.3231  0.4957 -1.2025
  780MOL0     C 2835   3.052   4.529   6.805 -0.1889  0.4951 -0.2737
  780MOL0     O 2836   2.927   4.501   6.751  0.2283  0.8082  0.3988
  780MOL0     C 2837   2.809   4.582   6.774 -0.4462  0.4671  0.1073
  780MOL0     C 2838   2.722   4.611   6.647 -0.2233 -0.2193 -0.1533
  780MOL0     C 2839   2.812   4.691   6.554  0.3276 -0.5470  0.8029
  780MOL0     C 2840   2.743   4.718   6.405 -0.3995  0.1524 -0.7248
  780MOL0     C 2841   2.706   4.603   6.309  0.9841 -0.1554  0.0965
  780MOL0     C 2842   2.653   4.660   6.170 -0.0012 -0.1259  0.4672
  780MOL0     C 2843   2.521   4.735   6.182  0.0310  0.9015  0.4210
  780MOL0     C 2844   2.493   4.803   6.048  0.2089 -0.6687  0.9461
  780MOL0     N 2845   2.415   4.724   5.954 -0.2858  0.1263 -0.7308
  780MOL0     C 2846   2.329   4.776   5.858 -0.3521  0.2825 -1.2344
  780MOL0     C 2847   2.293   4.669   5.781 -0.7447 -0.3081  0.0938
  780MOL0     C 2848   2.215   4.683   5.657 -0.6143  0.4342 -0.5327
  780MOL0     C 2849   2.076   4.624   5.673 -0.2172 -0.3817  1.3915
  780MOL0     C 2850   1.996   4.637   5.540  0.6779  0.0496 -0.5436
  780MOL0     C 2851   1.850   4.597   5.550 -0.2099  0.1228 -1.1040
  780MOL0     O 2852   1.784   4.660   5.434  0.6493 -0.7572 -0.2772
  780MOL0     C 2853   1.649   4.627   5.417  0.5731  0.7965 -0.3207
  780MOL0     C 2854   1.570   4.553   5.508 -0.1964 -0.7464  0.1073
  780MOL0     C 2855   1.430   4.536   5.487  0.1853 -0.3307 -0.7218
  780MOL0     C 2856   1.362   4.595   5.377  0.7916 -0.3913  0.7258
  780MOL0     C 2857   1.220   4.588   5.362  0.7041 -0.0490 -0.4726
  780MOL0     O 2858   1.173   4.604   5.237  0.6633  0.1944  0.0246
  780MOL0     C 2859   1.033   4.594   5.231 -1.0490  0.4364  0.7442
  780MOL0     C 2860   0.959   4.472   5.240  0.5693 -0.4240  0.2160
  780MOL0     C 2861   0.816   4.481   5.223  0.7936  0.3216  0.2440
  780MOL0     C 2862   0.751   4.612   5.205 -0.0886 -0.1238 -0.1405
  780MOL0     O 2863   0.617   4.629   5.193  0.0647 -0.7625  0.3992
  780MOL0     C 2864   0.533   4.519   5.233  0.0503 -0.3719 -0.1515
  780MOL0     C 2865   0.382   4.561   5.236  0.3069  0.6134  0.4430
  780MOL0     C 2866   0.292   4.440   5.272 -0.0236 -0.5924 -0.2440
  780MOL0     C 2867   0.143   4.474   5.276  0.6335 -0.2284 -0.1926
  780MOL0     C 2868   0.111   4.583   5.381 -0.3259 -0.1248 -0.7619
  780MOL0     C 2869  -0.045   4.593   5.391 -0.2876  0.9758 -0.6072
  780MOL0     C 2870  -0.096   4.695   5.494  0.7690 -0.0261 -0.2743
  780MOL0     C 2871  -0.041   4.692   5.636  0.0407  0.4255  0.1862
  780MOL0    Cl 2872  -0.050   4.522   5.715 -0.4697 -0.3952 -0.7469
  780MOL0     C 2873   0.824   4.726   5.198 -0.9247 -0.1509  0.6572
  780MOL0     C 2874   0.967   4.717   5.209  0.3123 -0.4789  0.1366
  780MOL0     O 2875   1.155   4.571   5.467 -0.5962 -1.0123 -0.6688
  780MOL0     C 2876   1.451   4.659   5.285 -0.6418  0.3356 -0.6724
  780MOL0     C 2877   1.592   4.667   5.299 -0.1740  0.9076  0.2836
  780MOL0     N 2878   2.347   4.548   5.847  0.4501  0.6304  0.0511
  780MOL0     N 2879   2.422   4.588   5.942  0.1591 -0.0858 -0.1620
  780MOL0     C 2880   3.108   4.654   6.816 -0.1892 -0.0305  0.4366
  780MOL0     C 2881   3.225   4.672   6.891  0.3777 -0.0654 -0.4782
  780MOL0     C 2882   3.623   4.686   7.103  1.2919  0.4189  0.3722
  780MOL0     C 2883   3.706   4.573   7.087  0.5526 -0.2853 -0.7378
  780MOL0     C 2884   3.843   4.582   7.121  0.4198 -1.0033  0.1688
  780MOL0     C 2885   3.900   4.700   7.171 -0.4363 -0.5446 -0.1311
  780MOL0     O 2886   4.027   4.721   7.225  0.3359  0.0019 -0.1626
  780MOL0     C 2887   4.129   4.636   7.181 -0.4557 -0.1239  0.5921
  780MOL0     C 2888   4.148   4.519   7.271 -0.2412  0.5223  0.3875
  780MOL0     C 2889   4.294   4.465   7.274 -0.4723 -0.1337 -0.3447
  780MOL0     C 2890   4.297   4.339   7.361  0.0440  0.0380  0.0156
  780MOL0     C 2891   4.422   4.264   7.352 -0.5211 -0.0521 -0.8286
  780MOL0     C 2892   4.523   4.200   7.338 -0.3088 -0.7835 -0.6442
  780MOL0     C 2893   3.817   4.816   7.170  0.3618  0.0938  0.0895
  780MOL0     C 2894   3.683   4.804   7.137  0.0012 -0.6368  0.2744
  780MOL0     H 2895   3.300   4.347   6.962 -0.0133  0.5220  3.4730
  780MOL0     H 2896   3.087   4.314   6.831 -2.4843  0.9980  0.2131
  780MOL0     H 2897   2.829   4.680   6.818  0.5318 -0.4855  1.9183
  780MOL0     H 2898   2.747   4.524   6.843 -0.8855  1.7534  0.8252
  780MOL0     H 2899   2.632   4.670   6.667 -0.1256 -0.3148  0.6249
  780MOL0     H 2900   2.703   4.509   6.612 -0.0429  0.0526 -1.0552
  780MOL0     H 2901   2.907   4.645   6.528  0.6895  1.5325 -1.9831
  780MOL0     H 2902   2.821   4.787   6.605 -2.3250  0.2339  0.0101
  780MOL0     H 2903   2.652   4.776   6.425 -0.2737 -0.1340  0.7820
  780MOL0     H 2904   2.815   4.788   6.362 -0.5226  3.2863  3.5555
  780MOL0     H 2905   2.635   4.529   6.347  0.9260  0.2500  0.7838
  780MOL0     H 2906   2.801   4.552   6.288 -0.3164 -1.7667 -2.5434
  780MOL0     H 2907   2.642   4.577   6.100  0.3671 -1.1974  1.6515
  780MOL0     H 2908   2.721   4.732   6.122 -0.5143 -1.5895 -2.7485
  780MOL0     H 2909   2.446   4.661   6.210  0.9192  0.3148  1.3466
  780MOL0     H 2910   2.520   4.807   6.265 -0.5727  1.6051 -0.1869
  780MOL0     H 2911   2.583   4.820   5.988 -0.0423 -4.9205 -1.0417
  780MOL0     H 2912   2.446   4.897   6.078  1.5577 -0.0879  1.3167
  780MOL0     H 2913   2.321   4.883   5.840  1.0257  0.8276  1.0363
  780MOL0     H 2914   2.262   4.639   5.569 -0.9728  1.0252 -1.0320
  780MOL0     H 2915   2.202   4.789   5.634 -3.6682 -0.2651 -2.6122
  780MOL0     H 2916   2.023   4.669   5.757 -1.4881 -0.8554  0.8811
  780MOL0     H 2917   2.084   4.517   5.694 -1.0847 -0.4935  1.2054
  780MOL0     H 2918   2.010   4.740   5.505 -0.0097  0.5965  0.7088
  780MOL0     H 2919   2.052   4.571   5.473 -0.6285  0.1745 -1.7953
  780MOL0     H 2920   1.813   4.633   5.646  0.2898  0.5445 -1.0634
  780MOL0     H 2921   1.843   4.488   5.546 -0.0909  0.0819 -0.3967
  780MOL0     H 2922   1.612   4.530   5.605 -1.6652  1.0939  1.2576
  780MOL0     H 2923   1.379   4.478   5.563 -0.3842  0.9373 -0.1106
  780MOL0     H 2924   1.014   4.388   5.281 -0.0078 -0.4151  1.0176
  780MOL0     H 2925   0.763   4.388   5.235  0.6910  0.2000 -0.9676
  780MOL0     H 2926   0.558   4.471   5.328  0.1007 -1.6723 -0.8065
  780MOL0     H 2927   0.541   4.445   5.153  1.6874 -0.4098  0.0265
  780MOL0     H 2928   0.346   4.598   5.139 -2.1905 -0.9237  0.6846
  780MOL0     H 2929   0.382   4.642   5.309  1.8990  0.8964  0.1719
  780MOL0     H 2930   0.325   4.404   5.369 -1.8503  3.0011  1.9251
  780MOL0     H 2931   0.298   4.362   5.195  0.9459 -0.5115 -0.2652
  780MOL0     H 2932   0.124   4.502   5.172  0.8369  0.6640  0.0027
  780MOL0     H 2933   0.095   4.381   5.308  0.2618  0.2946  0.8310
  780MOL0     H 2934   0.145   4.685   5.363 -0.3341  0.4746  2.0872
  780MOL0     H 2935   0.150   4.561   5.481 -0.7615  1.2443 -0.2621
  780MOL0     H 2936  -0.086   4.497   5.424  1.7378  0.0994 -0.4910
  780MOL0     H 2937  -0.093   4.625   5.298  1.3034  2.7339 -0.8851
  780MOL0     H 2938  -0.083   4.794   5.449  2.9790  0.2050  0.7133
  780MOL0     H 2939  -0.203   4.679   5.505  0.7948 -0.9038 -1.1881
  780MOL0     H 2940  -0.099   4.760   5.700 -1.1271  0.1140 -0.5316
  780MOL0     H 2941   0.062   4.729   5.629 -0.4482  1.4970 -4.9309
  780MOL0     H 2942   0.780   4.824   5.180 -1.6608 -0.2116  1.9845
  780MOL0     H 2943   1.033   4.800   5.188  0.4558 -0.6924 -0.2631
  780MOL0     H 2944   1.416   4.712   5.197 -0.0209 -1.8888 -2.3322
  780MOL0     H 2945   1.651   4.712   5.221  1.1062  1.9528  1.7857
  780MOL0     H 2946   3.056   4.740   6.773  0.6452  0.4144  0.2855
  780MOL0     H 2947   3.262   4.774   6.886  1.6988 -0.4080  1.1949
  780MOL0     H 2948   3.679   4.473   7.053 -0.0133 -0.8260  1.1770
  780MOL0     H 2949   3.911   4.498   7.111  1.4143 -0.1881 -0.1345
  780MOL0     H 2950   4.220   4.696   7.166 -2.5002  2.7039 -1.4685
  780MOL0     H 2951   4.112   4.591   7.083 -0.1272  2.2433 -0.6282
  780MOL0     H 2952   4.117   4.548   7.372 -2.8079  0.7873 -0.4226
  780MOL0     H 2953   4.080   4.443   7.234 -0.1969  0.6322  0.0743
  780MOL0     H 2954   4.376   4.529   7.309 -1.3533  1.4721 -1.0981
  780MOL0     H 2955   4.314   4.436   7.171 -1.8037 -0.1185 -0.6297
  780MOL0     H 2956   4.273   4.365   7.465  2.4262 -0.4955  0.7658
  780MOL0     H 2957   4.219   4.269   7.331 -0.4768 -0.0430  1.4572
  780MOL0     H 2958   4.606   4.138   7.313  0.7597 -0.5392  1.9380
  780MOL0     H 2959   3.854   4.909   7.210 -0.0130 -0.8083  2.7008
  780MOL0     H 2960   3.624   4.895   7.143  0.6283  0.0926 -2.8222
  781MOL0     O 2961  10.592   4.101   5.582  0.0178  0.1093 -0.5775
  781MOL0     C 2962  10.674   4.190   5.571  0.5520  0.4242  0.4858
  781MOL0     O 2963  10.650   4.323   5.561  0.1495 -0.4210  0.4016
  781MOL0     C 2964  10.514   4.349   5.557 -0.1303  0.0205  0.3859
  781MOL0     C 2965  10.451   4.424   5.661 -0.1722 -0.0037  0.8825
  781MOL0     C 2966  10.327   4.468   5.649  0.4955  0.7460  0.7297
  781MOL0     C 2967  10.246   4.435   5.546  1.4510 -0.4171 -0.5282
  781MOL0     O 2968  10.113   4.491   5.547 -0.0205 -0.0843  0.0817
  781MOL0     C 2969  10.017   4.414   5.470 -0.6802 -0.6927 -0.1919
  781MOL0     C 2970   9.906   4.514   5.445  0.4623  0.7945 -0.5131
  781MOL0     C 2971   9.816   4.537   5.566 -0.1544  0.0371 -0.4397
  781MOL0     C 2972   9.823   4.686   5.614  0.4565 -0.3034 -0.1616
  781MOL0     C 2973   9.706   4.710   5.717  0.2844 -0.2363 -0.0367
  781MOL0     C 2974   9.594   4.797   5.669  0.1877  0.1572 -0.1454
  781MOL0     C 2975   9.481   4.821   5.767  0.3801  0.1733 -1.1833
  781MOL0     C 2976   9.384   4.700   5.746  0.5953  1.3132  0.3901
  781MOL0     N 2977   9.240   4.709   5.777  0.7186 -0.3921 -0.3015
  781MOL0     C 2978   9.172   4.649   5.891 -0.4349  0.4956  1.4810
  781MOL0     C 2979   9.043   4.697   5.895  0.1999 -1.0911 -1.0057
  781MOL0     C 2980   8.941   4.646   5.995  0.4979 -0.3470  0.0907
  781MOL0     C 2981   8.859   4.745   6.073 -0.4849 -0.2483  0.1479
  781MOL0     C 2982   8.755   4.668   6.155  0.3941 -0.0961 -0.3960
  781MOL0     C 2983   8.645   4.769   6.200  0.1212  1.1358 -0.5154
  781MOL0     O 2984   8.542   4.710   6.273  0.2340 -0.3026 -0.3365
  781MOL0     C 2985   8.423   4.775   6.318  0.0441  0.2364 -0.8414
  781MOL0     C 2986   8.328   4.691   6.370 -0.3390  0.2102  0.7574
  781MOL0     C 2987   8.200   4.740   6.404 -0.7923  0.0282  0.1100
  781MOL0     C 2988   8.153   4.868   6.385  0.2516 -0.9295  1.1275
  781MOL0     C 2989   8.022   4.915   6.418  0.1973 -0.4893  0.2430
  781MOL0     O 2990   7.949   4.852   6.515  0.2253 -0.4995  0.4702
  781MOL0     C 2991   7.833   4.907   6.561 -1.0987 -0.4264 -0.1246
  781MOL0     C 2992   7.811   5.044   6.590 -0.4569  0.8956  0.1265
  781MOL0     C 2993   7.693   5.100   6.628  0.0345 -0.0593  0.4629
  781MOL0     C 2994   7.580   5.016   6.642 -0.5685  0.2114 -0.1438
  781MOL0     O 2995   7.458   5.060   6.687  0.7295  0.5528 -0.0354
  781MOL0     C 2996   7.428   5.188   6.739 -0.3341 -0.2513 -0.7801
  781MOL0     C 2997   7.281   5.181   6.791 -0.3639  0.5080  0.5701
  781MOL0     C 2998   7.231   5.315   6.841 -0.0899 -0.4914 -0.6001
  781MOL0     C 2999   7.110   5.306   6.934  0.2551  0.6724 -0.8101
  781MOL0     C 3000   7.076   5.445   6.989 -0.3304 -0.1943 -0.1767
  781MOL0     C 3001   6.983   5.427   7.116  0.6902 -0.9365  0.2223
  781MOL0     C 3002   6.950   5.573   7.181 -0.5682  0.3290  0.5679
  781MOL0     C 3003   6.927   5.562   7.326  0.2572  0.0475 -0.2926
  781MOL0    Cl 3004   6.904   5.732   7.373 -0.1599 -0.0901 -0.0955
  781MOL0     C 3005   7.596   4.880   6.611  0.5466 -0.7735 -0.2242
  781MOL0     C 3006   7.718   4.828   6.571  0.8004 -0.6153  0.7077
  781MOL0     O 3007   7.999   5.026   6.371 -0.0014  0.0930  0.2918
  781MOL0     C 3008   8.260   4.954   6.346  0.1366  0.2096  0.5627
  781MOL0     C 3009   8.389   4.912   6.314  0.5833  0.4541 -0.2495
  781MOL0     N 3010   9.035   4.785   5.784 -0.6412  0.2668  0.8761
  781MOL0     N 3011   9.138   4.787   5.707 -0.1044  0.2414 -0.6641
  781MOL0     C 3012  10.308   4.362   5.439  0.4106  0.8515 -0.8510
  781MOL0     C 3013  10.441   4.321   5.444 -0.1371 -0.4876  0.2531
  781MOL0     C 3014  10.822   4.154   5.555 -0.7023 -0.1625  0.1319
  781MOL0     C 3015  10.871   4.023   5.573  0.1995 -0.5712 -0.5047
  781MOL0     C 3016  11.005   4.003   5.576 -0.5128 -0.1858 -0.3957
  781MOL0     C 3017  11.098   4.105   5.568  0.6685  0.5975 -0.5227
  781MOL0     O 3018  11.225   4.066   5.587 -0.8789 -0.8870  0.6363
  781MOL0     C 3019  11.329   4.162   5.581 -0.6041  0.2474 -0.0592
  781MOL0     C 3020  11.451   4.071   5.582  0.1277 -0.2358  0.0522
  781MOL0     C 3021  11.457   3.972   5.459 -0.6886  0.4664 -0.2090
  781MOL0     C 3022  11.531   4.019   5.332  1.0952 -0.0927 -0.3749
  781MOL0     C 3023  11.520   3.909   5.237 -0.1543  0.6115  0.2510
  781MOL0     C 3024  11.485   3.821   5.161 -0.0355  0.3134 -0.2772
  781MOL0     C 3025  11.056   4.237   5.540 -0.4708 -0.1025  0.3106
  781MOL0     C 3026  10.925   4.253   5.528 -0.2749 -0.6877  0.3129
  781MOL0     H 3027  10.503   4.434   5.756  0.6238 -1.2120  0.5961
  781MOL0     H 3028  10.285   4.536   5.723  2.2774  2.3909  0.3224
  781MOL0     H 3029   9.957   4.335   5.516 -0.5815 -1.8379 -1.9607
  781MOL0     H 3030  10.049   4.384   5.370  2.1642  1.2469  0.0298
  781MOL0     H 3031   9.834   4.467   5.377 -0.6077  0.1087  1.0379
  781MOL0     H 3032   9.937   4.610   5.404  0.4095  0.9357 -0.2241
  781MOL0     H 3033   9.844   4.486   5.659 -2.4929 -1.0317 -0.2509
  781MOL0     H 3034   9.716   4.509   5.530 -0.2950 -1.1377  0.7685
  781MOL0     H 3035   9.924   4.699   5.654  0.4595 -2.2504  0.6032
  781MOL0     H 3036   9.821   4.756   5.530  2.2930 -1.0117 -0.8619
  781MOL0     H 3037   9.754   4.762   5.800 -0.2771  2.7476 -1.4609
  781MOL0     H 3038   9.669   4.616   5.759 -0.3296  0.8041  1.8086
  781MOL0     H 3039   9.554   4.762   5.573  1.1479 -0.4165 -0.3510
  781MOL0     H 3040   9.645   4.893   5.655  0.8156  0.5183  3.5151
  781MOL0     H 3041   9.510   4.833   5.872  0.6259  1.3055 -1.3620
  781MOL0     H 3042   9.436   4.918   5.742  0.2394  0.1231 -1.1222
  781MOL0     H 3043   9.429   4.624   5.811  1.1955 -0.9908 -2.5232
  781MOL0     H 3044   9.387   4.662   5.643 -1.8045  2.1049 -0.0211
  781MOL0     H 3045   9.207   4.582   5.969 -3.5782  0.1157  2.6812
  781MOL0     H 3046   9.000   4.599   6.074 -0.3819  0.4476  1.2575
  781MOL0     H 3047   8.875   4.576   5.943 -2.2654  1.1850  1.3172
  781MOL0     H 3048   8.806   4.799   5.994  0.9011  0.6940 -0.1645
  781MOL0     H 3049   8.922   4.804   6.140 -2.0672  0.4035  1.1425
  781MOL0     H 3050   8.712   4.590   6.092  0.9375  0.3546 -1.3444
  781MOL0     H 3051   8.796   4.625   6.248 -2.6095  0.5071  1.3344
  781MOL0     H 3052   8.594   4.824   6.120 -0.1922 -0.0650 -1.1593
  781MOL0     H 3053   8.692   4.847   6.260  1.7968  0.2583 -0.6313
  781MOL0     H 3054   8.344   4.588   6.403 -3.1060  0.2468  2.5705
  781MOL0     H 3055   8.137   4.662   6.444  1.8586 -0.7436  3.2722
  781MOL0     H 3056   7.901   5.104   6.582  0.1425 -0.1494 -1.5128
  781MOL0     H 3057   7.678   5.206   6.642 -1.7255 -0.0747 -0.9249
  781MOL0     H 3058   7.429   5.264   6.661 -0.0566 -0.0553 -0.5880
  781MOL0     H 3059   7.500   5.216   6.816 -2.0947 -1.1538  1.2772
  781MOL0     H 3060   7.276   5.106   6.871 -1.4274  2.7197  2.7074
  781MOL0     H 3061   7.218   5.147   6.708  0.5369 -0.1569  0.1446
  781MOL0     H 3062   7.213   5.383   6.757 -1.1826 -1.9629 -1.6139
  781MOL0     H 3063   7.315   5.356   6.898  1.8275 -1.2081 -2.7226
  781MOL0     H 3064   7.019   5.266   6.887  1.1334 -0.4016 -1.6623
  781MOL0     H 3065   7.132   5.242   7.020 -0.0034  0.5168 -0.8579
  781MOL0     H 3066   7.037   5.501   6.904 -2.5263 -1.4679 -0.0791
  781MOL0     H 3067   7.157   5.512   7.022 -2.9002  3.7846 -1.2166
  781MOL0     H 3068   7.045   5.365   7.180  1.5641  0.2641  0.5657
  781MOL0     H 3069   6.890   5.385   7.076  0.4368  2.2698 -3.0702
  781MOL0     H 3070   7.023   5.649   7.153 -1.1781 -0.4182 -3.9122
  781MOL0     H 3071   6.858   5.607   7.132 -2.0021 -1.0250  2.1397
  781MOL0     H 3072   7.007   5.505   7.375  1.3071 -0.3164 -2.3303
  781MOL0     H 3073   6.833   5.505   7.336 -0.1696  0.5093 -1.4779
  781MOL0     H 3074   7.517   4.807   6.608  0.9908 -1.3356  0.9114
  781MOL0     H 3075   7.726   4.721   6.553  0.2000 -0.3150 -1.5452
  781MOL0     H 3076   8.233   5.059   6.348 -0.3466  0.0775  2.4773
  781MOL0     H 3077   8.469   4.983   6.295 -0.1370  0.6382 -3.1846
  781MOL0     H 3078  10.258   4.338   5.346  1.8974 -0.8010 -1.2732
  781MOL0     H 3079  10.485   4.262   5.364 -0.3082 -0.6787  0.2981
  781MOL0     H 3080  10.805   3.941   5.598  2.2010 -2.1412 -0.1106
  781MOL0     H 3081  11.052   3.905   5.577 -0.0392  0.0379 -0.3908
  781MOL0     H 3082  11.319   4.223   5.671 -0.7683  0.4062 -0.1824
  781MOL0     H 3083  11.327   4.214   5.485  1.2286  1.2315  0.4003
  781MOL0     H 3084  11.540   4.135   5.584  0.2951 -0.4857  1.1189
  781MOL0     H 3085  11.457   4.005   5.669  4.6078  1.2886  1.1992
  781MOL0     H 3086  11.361   3.922   5.449  0.5999 -1.9679 -1.0256
  781MOL0     H 3087  11.530   3.904   5.503 -0.6148  0.4783 -0.3127
  781MOL0     H 3088  11.483   4.105   5.284  2.4595  1.2164  0.5159
  781MOL0     H 3089  11.632   4.042   5.366  0.8064 -0.8917  1.1149
  781MOL0     H 3090  11.452   3.755   5.084 -0.7746  2.5984 -2.0514
  781MOL0     H 3091  11.130   4.315   5.528 -0.0174  0.1440  3.6723
  781MOL0     H 3092  10.895   4.357   5.527 -1.7954 -1.1060 -0.6604
  782MOL0     O 3093   3.245   7.791  10.091  0.7835 -0.2756  0.2467
  782MOL0     C 3094   3.307   7.684  10.110 -0.0003 -0.7780  1.5066
  782MOL0     O 3095   3.258   7.562  10.107 -0.7661 -0.3193  0.3389
  782MOL0     C 3096   3.126   7.555  10.097  0.0012  0.4461 -0.7780
  782MOL0     C 3097   3.073   7.586   9.976  0.0845 -0.0848 -0.9595
  782MOL0     C 3098   2.945   7.581   9.950  0.8246  0.4662 -0.3735
  782MOL0     C 3099   2.861   7.546  10.047  0.6112 -0.3420 -0.0864
  782MOL0     O 3100   2.729   7.550  10.004  0.1970  0.9931  0.1551
  782MOL0     C 3101   2.623   7.512  10.093 -0.4541 -0.9632 -0.5408
  782MOL0     C 3102   2.625   7.364  10.090  0.1725  0.1339 -0.1514
  782MOL0     C 3103   2.506   7.315  10.174  0.3391 -0.0737  0.3720
  782MOL0     C 3104   2.374   7.315  10.100 -0.6225 -0.3209  0.3431
  782MOL0     C 3105   2.259   7.239  10.177 -0.5289  0.0791 -0.9001
  782MOL0     C 3106   2.240   7.302  10.317  0.3761 -0.2349  0.6813
  782MOL0     C 3107   2.111   7.258  10.388 -0.8495  0.9541 -0.0458
  782MOL0     C 3108   2.089   7.098  10.365  0.8407 -0.0983 -0.3522
  782MOL0     N 3109   1.976   7.046  10.449  0.2583  0.3654 -0.4634
  782MOL0     C 3110   1.979   7.017  10.582 -0.3159  0.3994  0.6655
  782MOL0     C 3111   1.869   6.948  10.625  0.0079 -0.3314  0.0121
  782MOL0     C 3112   1.808   6.899  10.756  0.2454  0.5982  0.2255
  782MOL0     C 3113   1.656   6.956  10.779 -0.0237  0.4495 -0.1388
  782MOL0     C 3114   1.580   6.870  10.892  0.5523  0.4967 -0.1497
  782MOL0     C 3115   1.428   6.855  10.857 -0.2653 -0.0810  0.0728
  782MOL0     O 3116   1.356   6.975  10.878  0.5409 -0.1891 -0.3149
  782MOL0     C 3117   1.219   6.985  10.857 -0.0820 -0.0021 -0.3536
  782MOL0     C 3118   1.151   7.098  10.896 -0.4861 -0.0677  0.5122
  782MOL0     C 3119   1.017   7.092  10.925  0.0797  0.0141  0.2682
  782MOL0     C 3120   0.944   6.988  10.914  1.0751  0.8226  0.4700
  782MOL0     C 3121   0.799   6.994  10.942 -0.7286  0.4298  1.2230
  782MOL0     O 3122   0.759   7.104  11.005  0.0239 -1.0719 -0.4224
  782MOL0     C 3123   0.622   7.144  11.021 -0.2582 -0.5522 -0.1405
  782MOL0     C 3124   0.606   7.244  11.117 -0.2702 -1.1931  0.4972
  782MOL0     C 3125   0.478   7.300  11.138  0.7028  0.1222 -0.5923
  782MOL0     C 3126   0.373   7.267  11.055 -0.3584  0.4724  0.0828
  782MOL0     O 3127   0.246   7.308  11.070  0.4748 -0.3211 -0.0515
  782MOL0     C 3128   0.221   7.422  11.151  0.9149  0.3668 -1.1024
  782MOL0     C 3129   0.076   7.467  11.150 -0.0976  0.3267 -0.7209
  782MOL0     C 3130   0.045   7.512  11.006  0.3773  0.8247 -0.1817
  782MOL0     C 3131  -0.103   7.543  10.992 -0.1880  0.3486 -0.5720
  782MOL0     C 3132  -0.167   7.494  10.866  0.1631  0.7455 -0.3527
  782MOL0     C 3133  -0.274   7.597  10.811 -0.0741  0.4431  0.3424
  782MOL0     C 3134  -0.344   7.527  10.693 -0.2219  0.4818  0.0740
  782MOL0     C 3135  -0.407   7.634  10.597 -0.8850  1.0475  0.0095
  782MOL0    Cl 3136  -0.554   7.681  10.687 -0.3524 -0.5521  0.2729
  782MOL0     C 3137   0.391   7.167  10.964  0.3700  1.0726  0.7327
  782MOL0     C 3138   0.512   7.098  10.947  0.3283  0.1891 -0.4977
  782MOL0     O 3139   0.731   6.891  10.927  0.0266 -0.5786 -0.5810
  782MOL0     C 3140   1.006   6.872  10.871  0.6496  0.3842 -0.0081
  782MOL0     C 3141   1.139   6.872  10.832  0.6085 -0.0420  0.2933
  782MOL0     N 3142   1.790   6.943  10.510  0.3133 -0.5192 -0.6260
  782MOL0     N 3143   1.858   7.000  10.406 -0.8394  0.3551  0.7237
  782MOL0     C 3144   2.903   7.518  10.185 -0.8198 -0.0701  0.4596
  782MOL0     C 3145   3.041   7.519  10.204 -0.5708 -0.3201  1.0051
  782MOL0     C 3146   3.450   7.703  10.131 -0.0674 -0.3332  0.8781
  782MOL0     C 3147   3.541   7.596  10.154 -0.2416  0.6060  0.4906
  782MOL0     C 3148   3.683   7.610  10.171  0.6526 -0.0111  0.1734
  782MOL0     C 3149   3.735   7.735  10.173  0.8121 -0.1672  0.3027
  782MOL0     O 3150   3.866   7.759  10.174 -0.3620 -0.0252 -0.7700
  782MOL0     C 3151   3.959   7.656  10.180 -0.9245  0.2652  0.8274
  782MOL0     C 3152   4.097   7.710  10.158  0.1118  0.7367  0.2435
  782MOL0     C 3153   4.205   7.609  10.144 -0.6639 -0.9167 -0.6091
  782MOL0     C 3154   4.344   7.677  10.123 -0.4185 -1.1494  0.4060
  782MOL0     C 3155   4.347   7.764  10.000  0.0815  0.2602 -0.6222
  782MOL0     C 3156   4.345   7.863   9.917 -0.8190  0.2614  0.4960
  782MOL0     C 3157   3.653   7.850  10.154  0.4878 -0.3096 -0.0262
  782MOL0     C 3158   3.515   7.829  10.147  0.7362 -0.1744 -0.8371
  782MOL0     H 3159   3.137   7.614   9.893  3.1965 -0.5203  1.1168
  782MOL0     H 3160   2.897   7.616   9.859 -1.4244  1.2891  1.0380
  782MOL0     H 3161   2.528   7.553  10.056 -0.2602  0.7902  0.7839
  782MOL0     H 3162   2.638   7.553  10.194  0.6564  1.2216 -1.5301
  782MOL0     H 3163   2.719   7.320  10.124  1.4656  1.1880 -2.1669
  782MOL0     H 3164   2.603   7.323   9.991 -0.7840  1.6965 -0.6195
  782MOL0     H 3165   2.519   7.373  10.266  3.2516 -3.1009  2.1018
  782MOL0     H 3166   2.527   7.211  10.199  2.2713  0.1769  0.0094
  782MOL0     H 3167   2.351   7.414  10.060  2.1002  0.2905  0.0801
  782MOL0     H 3168   2.394   7.247  10.017  0.0028 -1.2637  1.2372
  782MOL0     H 3169   2.272   7.131  10.184 -2.9833 -0.2656 -0.9852
  782MOL0     H 3170   2.165   7.258  10.124 -0.4729 -0.1947 -1.1025
  782MOL0     H 3171   2.245   7.411  10.306  0.3251 -0.3617 -0.7849
  782MOL0     H 3172   2.325   7.273  10.380  0.0014 -5.4398 -0.7261
  782MOL0     H 3173   2.120   7.265  10.497 -2.8981  2.2807  0.0864
  782MOL0     H 3174   2.022   7.318  10.368 -2.5046 -1.4162 -0.1853
  782MOL0     H 3175   2.185   7.052  10.387  0.4395 -0.0443  1.7295
  782MOL0     H 3176   2.047   7.087  10.264  1.4754 -1.8037 -0.4583
  782MOL0     H 3177   2.065   7.026  10.647  1.5383 -0.4607 -1.5284
  782MOL0     H 3178   1.873   6.933  10.837  2.7894  0.2690 -1.5462
  782MOL0     H 3179   1.811   6.789  10.761 -3.4176  0.2618 -1.7400
  782MOL0     H 3180   1.612   6.955  10.679  0.1332 -1.5004 -0.2326
  782MOL0     H 3181   1.661   7.061  10.811  0.0362  0.4256 -0.0687
  782MOL0     H 3182   1.615   6.767  10.902  0.4515  0.1948 -2.4149
  782MOL0     H 3183   1.589   6.928  10.985 -0.2037  0.3941 -0.0045
  782MOL0     H 3184   1.393   6.783  10.932  0.4110  1.0490  1.5145
  782MOL0     H 3185   1.404   6.826  10.754 -0.8587  5.6035 -1.7223
  782MOL0     H 3186   1.207   7.189  10.918 -3.5610  1.4345  2.8854
  782MOL0     H 3187   0.976   7.185  10.962  1.2566 -0.1683  2.1736
  782MOL0     H 3188   0.681   7.280  11.186 -2.2282  2.0210  1.1361
  782MOL0     H 3189   0.471   7.367  11.224  3.5219 -0.7272  0.4033
  782MOL0     H 3190   0.285   7.502  11.112  1.4770  0.3772 -0.2101
  782MOL0     H 3191   0.236   7.400  11.258 -0.9639  0.8657 -0.7104
  782MOL0     H 3192   0.061   7.551  11.218  1.4004  0.3290 -0.3589
  782MOL0     H 3193   0.011   7.385  11.181  0.1740  0.1263 -0.6733
  782MOL0     H 3194   0.075   7.431  10.939  1.1380 -0.0953  1.2107
  782MOL0     H 3195   0.106   7.597  10.975  0.7098  0.2019 -1.3184
  782MOL0     H 3196  -0.154   7.498  11.077 -0.4163  0.8267 -0.4506
  782MOL0     H 3197  -0.125   7.651  10.994 -1.6743  0.0474  1.5457
  782MOL0     H 3198  -0.213   7.397  10.883  3.1049 -0.8537 -0.7950
  782MOL0     H 3199  -0.083   7.493  10.796 -0.0103  3.1081 -0.6931
  782MOL0     H 3200  -0.222   7.689  10.783  1.9943 -0.9101 -0.4835
  782MOL0     H 3201  -0.356   7.607  10.882 -2.5565 -3.7624 -1.5501
  782MOL0     H 3202  -0.274   7.466  10.636 -0.9575  2.0659 -2.7033
  782MOL0     H 3203  -0.421   7.460  10.732 -1.6475  0.7094 -2.1421
  782MOL0     H 3204  -0.435   7.596  10.498  0.7867 -0.1029 -0.0701
  782MOL0     H 3205  -0.329   7.708  10.582  2.0520 -1.7357  0.4995
  782MOL0     H 3206   0.305   7.151  10.900  2.0978  1.3783 -1.8088
  782MOL0     H 3207   0.527   7.021  10.872 -3.6204  2.2641 -3.7797
  782MOL0     H 3208   0.947   6.782  10.858  0.2184  0.9494 -2.3060
  782MOL0     H 3209   1.188   6.782  10.796 -2.6666 -1.4403 -1.0280
  782MOL0     H 3210   2.848   7.501  10.277  3.4046  0.1662  3.2977
  782MOL0     H 3211   3.094   7.479  10.289  2.6655  1.9579  0.2727
  782MOL0     H 3212   3.486   7.504  10.175 -1.1830  0.9855 -0.2019
  782MOL0     H 3213   3.744   7.522  10.189 -0.4655 -1.0830 -1.0070
  782MOL0     H 3214   3.946   7.567  10.118  3.0698 -1.3051  1.8944
  782MOL0     H 3215   3.963   7.616  10.281 -0.3321 -2.0087 -0.0273
  782MOL0     H 3216   4.090   7.772  10.068 -3.2372  0.3579  0.1218
  782MOL0     H 3217   4.126   7.781  10.236  0.3720  0.2462  0.6047
  782MOL0     H 3218   4.182   7.554  10.053  0.0353  0.7670 -1.8519
  782MOL0     H 3219   4.212   7.540  10.229  1.7322 -1.9278 -1.5605
  782MOL0     H 3220   4.366   7.736  10.213  1.3622  0.2465 -0.8730
  782MOL0     H 3221   4.414   7.596  10.102 -0.3014 -0.8097 -0.5621
  782MOL0     H 3222   4.357   7.932   9.836  3.3992  0.2373  0.9023
  782MOL0     H 3223   3.693   7.951  10.146  1.6933 -0.7616  0.0209
  782MOL0     H 3224   3.443   7.910  10.140 -3.3406 -3.2384  1.4587
  783MOL0     O 3225   7.995   6.770   3.782  0.0707 -0.8249 -0.2519
  783MOL0     C 3226   8.075   6.806   3.702  0.4342  0.8776 -0.1255
  783MOL0     O 3227   8.075   6.766   3.576 -0.0819  0.3454  0.4696
  783MOL0     C 3228   8.004   6.661   3.520  0.5423 -0.1078 -0.7264
  783MOL0     C 3229   8.010   6.528   3.563 -0.5396 -0.9335 -0.0935
  783MOL0     C 3230   7.954   6.428   3.489  0.1864 -0.2476 -0.1753
  783MOL0     C 3231   7.881   6.459   3.373  0.1767  0.0674 -0.9272
  783MOL0     O 3232   7.822   6.357   3.301 -0.4496 -0.8582  0.4134
  783MOL0     C 3233   7.842   6.368   3.156  0.2034 -0.2277 -1.1843
  783MOL0     C 3234   7.750   6.278   3.072  0.6682 -0.1228  0.0647
  783MOL0     C 3235   7.602   6.271   3.126 -0.3931  0.1950  0.1421
  783MOL0     C 3236   7.501   6.191   3.041 -0.2439  0.2318 -0.3618
  783MOL0     C 3237   7.358   6.254   3.070 -0.0122 -0.5182  0.6204
  783MOL0     C 3238   7.276   6.202   2.962  0.7225  0.3229  0.5892
  783MOL0     C 3239   7.122   6.239   2.979  0.6866  0.3888  0.5210
  783MOL0     C 3240   7.061   6.178   3.103  0.0452 -0.6713  0.5104
  783MOL0     N 3241   6.927   6.230   3.122  0.0087  0.1046  0.0179
  783MOL0     C 3242   6.813   6.197   3.050  0.1262 -1.3920 -0.0528
  783MOL0     C 3243   6.707   6.242   3.122  0.9206 -0.0316 -0.1733
  783MOL0     C 3244   6.562   6.231   3.081 -1.0889 -0.2402 -0.4378
  783MOL0     C 3245   6.461   6.261   3.192  0.1942  0.8712  0.5858
  783MOL0     C 3246   6.435   6.126   3.263 -0.7715 -0.2619 -0.4283
  783MOL0     C 3247   6.348   6.027   3.192  1.0198 -0.0654 -0.7490
  783MOL0     O 3248   6.315   5.911   3.285  0.1442 -0.5516 -0.0444
  783MOL0     C 3249   6.184   5.930   3.343  0.1696  1.0004  0.2227
  783MOL0     C 3250   6.071   5.917   3.254 -0.3642 -0.2595  0.7844
  783MOL0     C 3251   5.942   5.923   3.302  0.2284 -0.5947 -0.6387
  783MOL0     C 3252   5.916   5.952   3.437  0.6543 -0.1924  0.0182
  783MOL0     C 3253   5.772   5.963   3.488 -0.9858 -0.9040 -0.4944
  783MOL0     O 3254   5.681   5.928   3.402 -0.6603 -0.1245  0.1745
  783MOL0     C 3255   5.545   5.954   3.414 -0.9642 -0.1204  0.5767
  783MOL0     C 3256   5.471   5.978   3.539 -0.7318 -0.0184  0.5233
  783MOL0     C 3257   5.332   5.999   3.535  1.0373  0.5414  0.2965
  783MOL0     C 3258   5.257   6.004   3.419 -0.8910 -0.3760  0.3511
  783MOL0     O 3259   5.120   6.012   3.436  0.3979  0.2603  0.5183
  783MOL0     C 3260   5.046   6.061   3.321  0.5340  0.1608  0.2034
  783MOL0     C 3261   4.913   5.973   3.306 -0.4119  0.0660 -0.0272
  783MOL0     C 3262   4.810   6.020   3.403 -0.7878 -0.4202 -0.3863
  783MOL0     C 3263   4.678   5.956   3.386  0.7722  0.3296  0.0824
  783MOL0     C 3264   4.572   6.030   3.470 -0.5339 -0.1680 -0.2849
  783MOL0     C 3265   4.526   6.168   3.415 -0.1247  0.4528 -0.6675
  783MOL0     C 3266   4.421   6.215   3.512  0.1695 -0.7057 -0.6422
  783MOL0     C 3267   4.392   6.355   3.483  1.6745  0.4747  0.4423
  783MOL0    Cl 3268   4.215   6.379   3.527  0.0065 -0.4476 -0.4004
  783MOL0     C 3269   5.331   5.981   3.300  0.4007 -0.0423  0.1652
  783MOL0     C 3270   5.472   5.971   3.299 -0.0335  0.4101  0.7609
  783MOL0     O 3271   5.753   6.004   3.598  0.5968 -0.3896 -0.5647
  783MOL0     C 3272   6.024   5.956   3.525  0.1433  0.3002  0.0972
  783MOL0     C 3273   6.156   5.962   3.473 -0.2738 -0.7269  0.1423
  783MOL0     N 3274   6.753   6.311   3.232  0.7015 -0.2021 -0.0192
  783MOL0     N 3275   6.885   6.309   3.226 -0.3789  0.0352  0.0284
  783MOL0     C 3276   7.852   6.587   3.349 -0.0523  0.7436 -0.3877
  783MOL0     C 3277   7.912   6.691   3.415 -0.4785  0.1582 -0.3878
  783MOL0     C 3278   8.184   6.869   3.781 -0.4168  0.8410  0.0832
  783MOL0     C 3279   8.178   6.918   3.915 -0.1633 -0.8178 -0.0951
  783MOL0     C 3280   8.288   6.990   3.970  0.1891 -0.1080 -0.0353
  783MOL0     C 3281   8.401   7.007   3.895  0.4839 -0.2707  0.0765
  783MOL0     O 3282   8.501   7.082   3.950 -0.3851 -0.2374  0.4796
  783MOL0     C 3283   8.614   7.127   3.879 -0.0866  0.2176  0.9796
  783MOL0     C 3284   8.667   7.264   3.921  0.9988 -0.9196 -0.0295
  783MOL0     C 3285   8.773   7.264   4.031  0.6992 -0.0782  0.6856
  783MOL0     C 3286   8.913   7.211   4.000 -0.1271  0.6285  0.4505
  783MOL0     C 3287   8.984   7.186   4.129  0.1481 -0.4315 -0.4375
  783MOL0     C 3288   9.046   7.123   4.216  0.4991  0.2219  0.4468
  783MOL0     C 3289   8.409   6.969   3.758 -0.4664 -0.2200  0.4001
  783MOL0     C 3290   8.303   6.900   3.703  0.5945  0.0292 -1.6160
  783MOL0     H 3291   8.069   6.505   3.651  0.1274 -0.5824 -0.4369
  783MOL0     H 3292   7.961   6.321   3.507 -2.1500 -1.5259 -5.2439
  783MOL0     H 3293   7.945   6.337   3.135  1.1214  0.2736  1.9760
  783MOL0     H 3294   7.816   6.469   3.124 -1.6976  0.1789  1.2999
  783MOL0     H 3295   7.802   6.182   3.073  2.3161  0.7314  1.1259
  783MOL0     H 3296   7.762   6.314   2.969 -0.2145  1.4196  0.4617
  783MOL0     H 3297   7.567   6.368   3.160 -0.3158 -0.9926  4.1227
  783MOL0     H 3298   7.603   6.217   3.221  0.6229 -1.1756 -0.6016
  783MOL0     H 3299   7.531   6.199   2.936  1.9322 -1.3142  0.0730
  783MOL0     H 3300   7.502   6.084   3.064  0.2146  0.5630  1.2673
  783MOL0     H 3301   7.364   6.363   3.076  1.2959 -0.5238 -0.3335
  783MOL0     H 3302   7.325   6.219   3.169  3.1658 -3.1295  0.9254
  783MOL0     H 3303   7.287   6.094   2.975 -1.2407 -0.0286 -0.3659
  783MOL0     H 3304   7.301   6.245   2.865 -2.6957  0.8425 -0.1852
  783MOL0     H 3305   7.113   6.348   2.971  0.2526  0.2975 -0.3755
  783MOL0     H 3306   7.067   6.213   2.888  1.8374  0.2268 -0.1501
  783MOL0     H 3307   7.114   6.189   3.199 -1.2801  2.6049  0.9877
  783MOL0     H 3308   7.051   6.072   3.079 -2.2869 -1.2513  3.4999
  783MOL0     H 3309   6.792   6.148   2.956 -3.3534 -0.1308 -0.0509
  783MOL0     H 3310   6.547   6.135   3.030 -0.3362 -0.3690 -0.4265
  783MOL0     H 3311   6.538   6.309   3.008 -2.3754 -0.3363 -0.1495
  783MOL0     H 3312   6.379   6.321   3.153 -0.3427 -1.5905 -2.4005
  783MOL0     H 3313   6.511   6.319   3.270  3.1054 -1.7030  0.8586
  783MOL0     H 3314   6.528   6.073   3.281 -0.6489 -2.1654 -5.3302
  783MOL0     H 3315   6.402   6.152   3.364 -0.0404  2.3879 -0.7829
  783MOL0     H 3316   6.380   5.994   3.093  2.0404  0.6953 -0.6908
  783MOL0     H 3317   6.253   6.078   3.175  1.0284  0.1578 -0.1801
  783MOL0     H 3318   6.087   5.895   3.149  0.4085  0.0362  0.8357
  783MOL0     H 3319   5.869   5.919   3.222  1.8870  2.1326 -2.4506
  783MOL0     H 3320   5.513   5.967   3.639  1.0366  4.6560  0.5785
  783MOL0     H 3321   5.270   6.002   3.624  1.3772 -1.6464  0.6435
  783MOL0     H 3322   5.097   6.064   3.224 -0.6461  0.5693 -0.4264
  783MOL0     H 3323   5.023   6.165   3.346 -1.6724 -0.0958 -0.5476
  783MOL0     H 3324   4.940   5.867   3.314  0.5129  0.2941  0.0539
  783MOL0     H 3325   4.874   6.003   3.208 -0.6557  0.5065  0.2013
  783MOL0     H 3326   4.812   6.129   3.389  3.6154 -0.1035  1.0725
  783MOL0     H 3327   4.852   6.002   3.503  2.8664  1.6823 -1.3498
  783MOL0     H 3328   4.655   5.954   3.279  2.5877  1.5991 -0.3768
  783MOL0     H 3329   4.680   5.853   3.421 -2.4455 -0.0329 -0.5024
  783MOL0     H 3330   4.599   6.040   3.575  0.5457 -1.3805 -0.4231
  783MOL0     H 3331   4.495   5.952   3.480 -0.3557 -0.6177 -1.9921
  783MOL0     H 3332   4.478   6.166   3.317 -0.6312  1.1242 -0.4397
  783MOL0     H 3333   4.612   6.236   3.415 -1.9012  3.0595  3.0019
  783MOL0     H 3334   4.323   6.176   3.485 -2.3307  4.3306  0.0635
  783MOL0     H 3335   4.444   6.196   3.618 -0.4796 -0.0273 -0.3726
  783MOL0     H 3336   4.409   6.363   3.375 -1.5103 -1.2535 -0.3169
  783MOL0     H 3337   4.457   6.425   3.536 -0.5708  1.0012  2.6533
  783MOL0     H 3338   5.278   5.984   3.205  1.0917  4.0646 -0.2763
  783MOL0     H 3339   5.532   5.970   3.209  1.6937  0.1879  1.8715
  783MOL0     H 3340   6.005   5.968   3.631  0.8740  0.4282  0.2163
  783MOL0     H 3341   6.235   5.975   3.545 -2.5313  0.3625  2.6182
  783MOL0     H 3342   7.774   6.606   3.276  0.2311 -0.2056 -0.9600
  783MOL0     H 3343   7.900   6.792   3.376  2.7145 -0.2268 -2.7664
  783MOL0     H 3344   8.090   6.899   3.976  1.1860 -0.5982  2.0099
  783MOL0     H 3345   8.270   7.034   4.068  0.6102 -1.0049  0.4575
  783MOL0     H 3346   8.585   7.151   3.777  0.3805 -0.8704  0.5728
  783MOL0     H 3347   8.687   7.045   3.870  2.6395  2.6842 -1.3136
  783MOL0     H 3348   8.717   7.309   3.834 -0.1529  0.2761 -0.1091
  783MOL0     H 3349   8.585   7.326   3.958  1.4860  0.5187 -1.2528
  783MOL0     H 3350   8.734   7.193   4.104  1.0047 -2.2896 -1.1510
  783MOL0     H 3351   8.777   7.361   4.082 -1.7871  0.9674 -0.9027
  783MOL0     H 3352   8.915   7.117   3.943 -0.9383 -1.0695  3.0531
  783MOL0     H 3353   8.973   7.285   3.947  1.3740 -1.5569 -1.0890
  783MOL0     H 3354   9.095   7.042   4.267  1.2419  1.1063  1.1728
  783MOL0     H 3355   8.491   6.979   3.687  1.1215  0.0157  2.1830
  783MOL0     H 3356   8.307   6.878   3.597  2.4842 -0.5938 -1.4501
  784MOL0     O 3357   5.552   4.894   6.087  0.2637  0.1462  0.0271
  784MOL0     C 3358   5.633   4.951   6.016 -0.5994 -1.1870 -0.0574
  784MOL0     O 3359   5.602   5.024   5.898  1.1208  0.4546  0.5557
  784MOL0     C 3360   5.472   5.016   5.852  0.5392 -0.2308 -0.6051
  784MOL0     C 3361   5.428   5.135   5.795 -0.0592  0.5376  0.1960
  784MOL0     C 3362   5.308   5.132   5.725  0.2340  0.3452  1.0400
  784MOL0     C 3363   5.233   5.022   5.715  0.2008  0.6612 -0.1775
  784MOL0     O 3364   5.110   5.011   5.669  0.5229  0.5603  0.1498
  784MOL0     C 3365   5.028   5.122   5.629 -0.8026 -0.0239 -0.6839
  784MOL0     C 3366   4.909   5.048   5.572 -0.0274  0.9859 -0.7857
  784MOL0     C 3367   4.796   5.135   5.531 -1.1474  1.2102 -0.6777
  784MOL0     C 3368   4.832   5.231   5.424 -0.7338  0.0057 -1.1062
  784MOL0     C 3369   4.728   5.337   5.397 -0.0774 -0.3234  0.3903
  784MOL0     C 3370   4.587   5.301   5.361 -0.4319  0.7982  0.2455
  784MOL0     C 3371   4.520   5.431   5.308 -0.9674  0.4854  0.5279
  784MOL0     C 3372   4.512   5.547   5.409 -0.1975  1.2778 -0.7463
  784MOL0     N 3373   4.433   5.664   5.358 -0.4109  0.0650 -0.2051
  784MOL0     C 3374   4.297   5.667   5.330 -0.4166  0.0717 -0.1867
  784MOL0     C 3375   4.274   5.757   5.238  0.4454 -1.3113  0.6817
  784MOL0     C 3376   4.148   5.797   5.154  0.5463 -1.1258 -0.1738
  784MOL0     C 3377   4.179   5.745   5.015  0.7874 -0.3586 -0.1820
  784MOL0     C 3378   4.128   5.597   5.013 -0.0413  0.3893  0.0525
  784MOL0     C 3379   4.201   5.510   4.904  0.5360 -0.1458  0.3762
  784MOL0     O 3380   4.196   5.576   4.777  0.2451 -0.1617 -0.0518
  784MOL0     C 3381   4.094   5.555   4.685 -0.8026  0.1530 -0.0767
  784MOL0     C 3382   4.117   5.581   4.545  0.6027 -0.2690  0.7427
  784MOL0     C 3383   4.011   5.563   4.450  1.1668 -1.0164 -0.2451
  784MOL0     C 3384   3.879   5.537   4.493  0.1983  0.3332  1.0292
  784MOL0     C 3385   3.775   5.519   4.389 -0.4687  0.8860 -0.1505
  784MOL0     O 3386   3.640   5.487   4.437 -0.3191 -0.3570  0.4378
  784MOL0     C 3387   3.531   5.477   4.345 -0.6220  0.2582  0.2340
  784MOL0     C 3388   3.413   5.419   4.397 -0.2457 -0.1231 -0.8767
  784MOL0     C 3389   3.297   5.396   4.325 -1.0705 -0.1201  0.0148
  784MOL0     C 3390   3.296   5.449   4.192 -0.1734 -0.1003  0.4097
  784MOL0     O 3391   3.187   5.448   4.115 -0.0821 -0.1557  0.3629
  784MOL0     C 3392   3.105   5.339   4.115 -0.2744 -0.0179 -0.1668
  784MOL0     C 3393   2.993   5.348   4.010 -0.5029  1.0169  0.5480
  784MOL0     C 3394   2.873   5.430   4.074 -0.2358 -0.5837 -0.3160
  784MOL0     C 3395   2.745   5.405   3.995  0.3166  0.7313 -0.1520
  784MOL0     C 3396   2.719   5.508   3.885  0.4648  0.1731 -0.1563
  784MOL0     C 3397   2.573   5.518   3.853 -0.0482  0.5915 -0.8588
  784MOL0     C 3398   2.552   5.614   3.738  0.0258  0.1069 -0.0108
  784MOL0     C 3399   2.408   5.616   3.680 -0.1775  0.4532  0.1512
  784MOL0    Cl 3400   2.384   5.461   3.597 -0.2404 -0.2674  0.2873
  784MOL0     C 3401   3.408   5.515   4.137  0.0720 -0.1086 -0.1981
  784MOL0     C 3402   3.523   5.527   4.215  0.2785 -0.0018 -0.0619
  784MOL0     O 3403   3.809   5.535   4.273 -0.4182  0.1496  0.1134
  784MOL0     C 3404   3.856   5.527   4.629  0.1070  0.0117  0.3508
  784MOL0     C 3405   3.965   5.527   4.720  0.8256 -0.2217 -0.3277
  784MOL0     N 3406   4.393   5.826   5.219  0.6457 -0.1601  0.2092
  784MOL0     N 3407   4.480   5.776   5.301  0.2805 -0.4732 -0.4724
  784MOL0     C 3408   5.276   4.902   5.772  1.6827 -0.3471 -0.0769
  784MOL0     C 3409   5.399   4.896   5.835 -0.1248  0.6968 -0.1245
  784MOL0     C 3410   5.783   4.959   6.055  0.5200  0.2599 -0.0024
  784MOL0     C 3411   5.823   4.886   6.171 -0.2071 -0.7198 -0.6108
  784MOL0     C 3412   5.952   4.912   6.221 -0.2429 -0.3195 -0.4674
  784MOL0     C 3413   6.045   5.004   6.156 -0.8973 -0.2459 -0.4479
  784MOL0     O 3414   6.160   5.038   6.214 -0.2744 -0.0501 -0.5670
  784MOL0     C 3415   6.213   4.976   6.331  0.6191 -0.1210  0.4584
  784MOL0     C 3416   6.357   5.007   6.361 -0.0978  0.2293  0.1871
  784MOL0     C 3417   6.373   5.149   6.405  0.1685 -0.3411  1.0310
  784MOL0     C 3418   6.501   5.181   6.477  0.0084  0.0445  0.3293
  784MOL0     C 3419   6.536   5.112   6.605 -0.3224  0.3367  0.1653
  784MOL0     C 3420   6.584   5.075   6.711 -0.1217  0.6768  0.2156
  784MOL0     C 3421   6.002   5.062   6.039 -0.6835 -0.5487  0.3568
  784MOL0     C 3422   5.872   5.044   5.988 -0.1698 -0.3465  0.4561
  784MOL0     H 3423   5.498   5.218   5.793  0.2450  0.3232  1.1780
  784MOL0     H 3424   5.271   5.220   5.673  2.9425  0.5520 -0.7796
  784MOL0     H 3425   5.077   5.187   5.556  1.1190  1.3590  1.6782
  784MOL0     H 3426   4.997   5.196   5.703  2.1536  1.9781 -1.2537
  784MOL0     H 3427   4.870   4.973   5.642 -2.6286  2.8193 -0.1479
  784MOL0     H 3428   4.940   5.000   5.479 -1.0371 -0.6833 -0.3141
  784MOL0     H 3429   4.750   5.191   5.613 -3.0229  1.3555 -1.7532
  784MOL0     H 3430   4.711   5.071   5.505 -0.7281  0.6796 -0.7602
  784MOL0     H 3431   4.926   5.280   5.451 -2.3770  3.0165 -0.3204
  784MOL0     H 3432   4.862   5.169   5.339 -1.4993 -0.6742 -0.8902
  784MOL0     H 3433   4.774   5.388   5.312 -1.2553  0.8781  0.4448
  784MOL0     H 3434   4.728   5.402   5.485  2.4191 -0.0564  0.2508
  784MOL0     H 3435   4.544   5.254   5.451  2.0144  0.4377  1.3132
  784MOL0     H 3436   4.583   5.233   5.276 -0.3981 -0.4812  1.2259
  784MOL0     H 3437   4.576   5.468   5.222 -2.1234  2.4406  0.5678
  784MOL0     H 3438   4.419   5.412   5.272 -0.2069  1.2505 -2.2031
  784MOL0     H 3439   4.612   5.584   5.434 -1.0150  2.4170  1.0151
  784MOL0     H 3440   4.463   5.515   5.502 -0.1781 -0.2223 -1.2210
  784MOL0     H 3441   4.232   5.590   5.370 -0.2600 -0.4991 -1.0091
  784MOL0     H 3442   4.133   5.905   5.156  0.5693 -1.1045 -0.8691
  784MOL0     H 3443   4.056   5.750   5.189 -0.8049 -1.2793 -3.5580
  784MOL0     H 3444   4.284   5.767   4.996  0.0516  3.8946 -0.3126
  784MOL0     H 3445   4.124   5.803   4.941  2.8380 -0.7560 -2.1057
  784MOL0     H 3446   4.147   5.548   5.109  0.3659 -1.7761 -1.0714
  784MOL0     H 3447   4.019   5.592   5.003 -0.5340  1.4249  3.4437
  784MOL0     H 3448   4.159   5.409   4.905  2.4628 -1.0758 -2.2249
  784MOL0     H 3449   4.306   5.522   4.932  0.5725  1.4187 -0.3276
  784MOL0     H 3450   4.223   5.593   4.525  0.5011  1.6405  1.1593
  784MOL0     H 3451   4.048   5.562   4.348  3.0270 -0.1527  0.3792
  784MOL0     H 3452   3.404   5.376   4.496 -3.3144  0.1482 -0.9201
  784MOL0     H 3453   3.208   5.360   4.375 -0.1211  0.6649  2.3875
  784MOL0     H 3454   3.069   5.328   4.217 -2.0559  1.5411 -0.5865
  784MOL0     H 3455   3.161   5.245   4.103 -0.7425 -0.2133 -0.9410
  784MOL0     H 3456   2.962   5.247   3.979  0.3373  0.7428  0.5650
  784MOL0     H 3457   3.030   5.404   3.923 -3.6797 -0.7431 -2.1881
  784MOL0     H 3458   2.890   5.538   4.069  0.7107 -0.7146 -0.1532
  784MOL0     H 3459   2.859   5.407   4.180 -1.2750  2.1181  0.2146
  784MOL0     H 3460   2.724   5.303   3.961 -1.4343  0.7649  0.7077
  784MOL0     H 3461   2.665   5.426   4.066  1.5125  1.7094  0.9563
  784MOL0     H 3462   2.781   5.471   3.803  0.5699  0.1036 -0.0476
  784MOL0     H 3463   2.754   5.605   3.923 -3.1142  1.8948 -0.8233
  784MOL0     H 3464   2.506   5.536   3.937  1.0001  2.9364 -0.4606
  784MOL0     H 3465   2.547   5.418   3.817  0.9948 -0.4136  1.0233
  784MOL0     H 3466   2.585   5.707   3.786 -0.1641  0.4053 -0.4513
  784MOL0     H 3467   2.625   5.598   3.658  1.1197 -1.9835  1.3300
  784MOL0     H 3468   2.398   5.703   3.615  0.0563 -1.0068 -1.9625
  784MOL0     H 3469   2.330   5.623   3.757 -0.8801  0.5365 -0.5517
  784MOL0     H 3470   3.392   5.563   4.041 -2.2036  0.4990  0.4206
  784MOL0     H 3471   3.605   5.585   4.174 -1.2657  1.6835 -0.9429
  784MOL0     H 3472   3.751   5.540   4.653  0.4560  0.2991  1.7941
  784MOL0     H 3473   3.936   5.522   4.824 -0.3100  0.9803 -0.5688
  784MOL0     H 3474   5.211   4.814   5.773 -0.7382  1.3298  0.2673
  784MOL0     H 3475   5.432   4.795   5.858 -3.0126 -0.6642 -1.3729
  784MOL0     H 3476   5.755   4.815   6.216  1.2429  0.2491  3.6233
  784MOL0     H 3477   5.976   4.868   6.317  0.1437  0.1847 -0.3277
  784MOL0     H 3478   6.207   4.867   6.325  1.9266 -0.1875  0.1483
  784MOL0     H 3479   6.156   4.993   6.423 -0.6943  1.1190 -0.5399
  784MOL0     H 3480   6.381   4.959   6.456 -0.6294 -2.4409 -0.9356
  784MOL0     H 3481   6.427   4.971   6.285  0.8561  2.0334  0.1476
  784MOL0     H 3482   6.296   5.178   6.477 -1.6766  1.1193 -1.3697
  784MOL0     H 3483   6.373   5.219   6.321  1.5656  3.5189  3.9332
  784MOL0     H 3484   6.588   5.164   6.412  1.1272  0.3903  1.6797
  784MOL0     H 3485   6.487   5.286   6.504  0.2926  0.2598 -0.3435
  784MOL0     H 3486   6.622   5.036   6.804 -0.1265 -4.1213 -1.4899
  784MOL0     H 3487   6.074   5.118   5.981 -2.3392  2.5105  1.0233
  784MOL0     H 3488   5.834   5.081   5.894 -4.2596  0.2590  2.1477
  785MOL0     O 3489   4.541   6.076   1.695 -0.7591 -0.3680  0.0502
  785MOL0     C 3490   4.561   6.182   1.749  1.0894 -0.2260 -0.4707
  785MOL0     O 3491   4.522   6.306   1.706 -0.7923 -0.1118  0.3614
  785MOL0     C 3492   4.422   6.312   1.617  0.5592  0.4389  0.6814
  785MOL0     C 3493   4.427   6.246   1.493  0.0713 -0.6155  0.9098
  785MOL0     C 3494   4.325   6.255   1.407  0.1861 -0.0462  0.7902
  785MOL0     C 3495   4.222   6.350   1.426 -1.3896 -0.4196 -0.3881
  785MOL0     O 3496   4.139   6.360   1.316 -0.6277  0.3454  0.2536
  785MOL0     C 3497   4.042   6.470   1.325  0.4258  0.2772  0.6542
  785MOL0     C 3498   3.954   6.482   1.205 -0.2966 -0.0455  0.7372
  785MOL0     C 3499   3.849   6.584   1.210 -0.0778  0.2808  0.4260
  785MOL0     C 3500   3.753   6.582   1.084 -0.3443  0.4541 -0.2316
  785MOL0     C 3501   3.652   6.695   1.078  0.1387 -0.0369  0.6858
  785MOL0     C 3502   3.542   6.667   0.983  0.2032 -0.2953 -0.1799
  785MOL0     C 3503   3.425   6.764   0.981 -0.0263 -0.7508  0.2175
  785MOL0     C 3504   3.335   6.737   0.855 -0.8287 -0.1601 -1.0569
  785MOL0     N 3505   3.404   6.792   0.740 -0.3597  0.2048  0.3190
  785MOL0     C 3506   3.456   6.712   0.634  0.7719  0.0582  0.3078
  785MOL0     C 3507   3.470   6.804   0.537  0.2444  0.4478 -0.6075
  785MOL0     C 3508   3.488   6.777   0.391  0.2898 -0.7341 -0.4878
  785MOL0     C 3509   3.635   6.737   0.366  0.9916 -0.5041 -0.6059
  785MOL0     C 3510   3.644   6.723   0.216 -0.3912 -0.5510  0.1584
  785MOL0     C 3511   3.571   6.610   0.140 -0.3212  0.1283 -0.6390
  785MOL0     O 3512   3.564   6.489   0.215 -0.2383  0.8375 -0.2630
  785MOL0     C 3513   3.444   6.433   0.228  0.3794 -0.3193  1.2989
  785MOL0     C 3514   3.397   6.387   0.352 -0.2837  0.0193 -0.8434
  785MOL0     C 3515   3.280   6.304   0.361 -0.3456 -0.5514  0.3739
  785MOL0     C 3516   3.200   6.287   0.246  0.3703  1.1968  1.1482
  785MOL0     C 3517   3.080   6.200   0.257 -0.0028  0.1643 -0.3316
  785MOL0     O 3518   3.000   6.193   0.142 -0.3008  0.0396  0.0906
  785MOL0     C 3519   2.893   6.109   0.152 -0.0941 -0.6722 -0.5671
  785MOL0     C 3520   2.764   6.146   0.124  0.7832  0.6626 -0.6416
  785MOL0     C 3521   2.653   6.060   0.122  0.6889 -0.8985  0.3754
  785MOL0     C 3522   2.670   5.929   0.149  0.3236  0.0110 -0.5189
  785MOL0     O 3523   2.556   5.851   0.141 -0.3431 -0.3154 -0.6090
  785MOL0     C 3524   2.571   5.714   0.174  0.4517  0.5008  0.4666
  785MOL0     C 3525   2.438   5.649   0.192 -0.0622  0.7620 -0.0253
  785MOL0     C 3526   2.391   5.675   0.336  0.6898 -0.1782  0.4713
  785MOL0     C 3527   2.364   5.824   0.362  0.1666  1.1055 -0.0025
  785MOL0     C 3528   2.242   5.847   0.455 -0.9056 -0.0096 -0.2792
  785MOL0     C 3529   2.103   5.824   0.414 -0.3479  0.6470 -0.0768
  785MOL0     C 3530   1.999   5.811   0.527 -0.5115 -0.0276 -0.0084
  785MOL0     C 3531   1.856   5.813   0.457  0.6777  0.0851  0.4507
  785MOL0    Cl 3532   1.733   5.786   0.586  0.0999  0.2389 -0.1759
  785MOL0     C 3533   2.799   5.884   0.162  0.1434 -0.2334  0.0062
  785MOL0     C 3534   2.907   5.973   0.159 -0.0953  0.3643 -0.6720
  785MOL0     O 3535   3.047   6.157   0.365 -0.9545  0.2218  0.3590
  785MOL0     C 3536   3.240   6.343   0.122 -0.8658  0.1007 -0.1046
  785MOL0     C 3537   3.366   6.410   0.115 -0.6100  0.4520 -0.5531
  785MOL0     N 3538   3.447   6.928   0.595  0.0141 -0.1700  0.6575
  785MOL0     N 3539   3.399   6.919   0.709 -0.0759  0.2567 -0.4095
  785MOL0     C 3540   4.220   6.423   1.542 -0.3506  0.0533  0.8705
  785MOL0     C 3541   4.319   6.400   1.641  0.0027 -0.4818  0.6004
  785MOL0     C 3542   4.657   6.176   1.868  0.8087 -0.5396  0.0833
  785MOL0     C 3543   4.669   6.298   1.934  0.2334  0.2491  0.2137
  785MOL0     C 3544   4.746   6.309   2.050  0.3679 -1.2613 -0.4892
  785MOL0     C 3545   4.815   6.197   2.105 -0.0935  0.3087  0.3539
  785MOL0     O 3546   4.901   6.202   2.210  0.0352  0.0523 -0.3980
  785MOL0     C 3547   4.906   6.315   2.295 -0.3856 -1.7921 -0.1776
  785MOL0     C 3548   4.978   6.271   2.422 -0.4061 -0.6991 -0.6984
  785MOL0     C 3549   4.988   6.387   2.521 -0.6348  0.3539  0.5714
  785MOL0     C 3550   5.044   6.341   2.650  0.8414 -0.2288 -0.7801
  785MOL0     C 3551   5.070   6.455   2.745 -0.1842  0.4122  0.0670
  785MOL0     C 3552   5.087   6.552   2.814 -0.2282  0.7748 -0.2357
  785MOL0     C 3553   4.805   6.078   2.040 -0.0660 -0.1850  0.3013
  785MOL0     C 3554   4.721   6.065   1.924  0.5772  0.2102  0.2870
  785MOL0     H 3555   4.519   6.195   1.466  0.3433  0.3912 -0.0936
  785MOL0     H 3556   4.321   6.197   1.315  1.0565 -0.5528  1.0571
  785MOL0     H 3557   4.092   6.565   1.345  0.1678  0.3622  0.9033
  785MOL0     H 3558   3.974   6.460   1.410  0.7976 -2.2477  0.7402
  785MOL0     H 3559   3.900   6.388   1.193 -0.8191  0.3520 -0.0896
  785MOL0     H 3560   4.024   6.512   1.126  1.3001 -3.9259  0.4445
  785MOL0     H 3561   3.894   6.684   1.215 -1.5640  1.0561 -0.8357
  785MOL0     H 3562   3.790   6.556   1.299  0.1079 -4.0286 -0.6146
  785MOL0     H 3563   3.820   6.594   0.998 -0.0285 -0.9374 -0.2065
  785MOL0     H 3564   3.698   6.487   1.083 -1.8441  1.2931  0.1717
  785MOL0     H 3565   3.710   6.783   1.047  1.3582 -0.0728  2.6876
  785MOL0     H 3566   3.615   6.726   1.176  0.5972 -1.4993  1.3500
  785MOL0     H 3567   3.504   6.566   0.997  1.5358 -0.4550  3.0010
  785MOL0     H 3568   3.595   6.670   0.887 -1.3047  1.0735 -1.0196
  785MOL0     H 3569   3.361   6.755   1.069 -5.1314 -0.4176 -3.0545
  785MOL0     H 3570   3.461   6.867   0.984  0.0258 -0.5975 -2.7930
  785MOL0     H 3571   3.236   6.774   0.883 -0.5983 -1.1407  1.2292
  785MOL0     H 3572   3.332   6.629   0.839  1.2985 -0.8587  2.2962
  785MOL0     H 3573   3.481   6.606   0.635  1.8749  0.3113  1.2253
  785MOL0     H 3574   3.457   6.869   0.342  0.4093 -1.4983 -2.0608
  785MOL0     H 3575   3.424   6.697   0.352  0.7496 -1.1628 -0.3846
  785MOL0     H 3576   3.644   6.651   0.433 -2.8442 -0.1875  0.5696
  785MOL0     H 3577   3.705   6.814   0.399 -0.7679  0.7766  0.3328
  785MOL0     H 3578   3.620   6.822   0.176  0.3586 -0.6425 -0.5527
  785MOL0     H 3579   3.752   6.718   0.198 -0.2386 -2.7412  1.2837
  785MOL0     H 3580   3.622   6.588   0.046 -1.8215 -1.1846 -1.1827
  785MOL0     H 3581   3.471   6.648   0.120 -1.1367  0.3161  3.0270
  785MOL0     H 3582   3.459   6.401   0.441 -2.0782  0.0746  0.4525
  785MOL0     H 3583   3.263   6.280   0.466  2.1466 -0.3772  0.8890
  785MOL0     H 3584   2.739   6.251   0.114 -3.2017  0.5305  4.0425
  785MOL0     H 3585   2.555   6.106   0.111  1.7295  1.6616  1.2172
  785MOL0     H 3586   2.634   5.687   0.258  1.2856  0.9600  0.0018
  785MOL0     H 3587   2.611   5.659   0.088 -0.2977  0.5236  0.0928
  785MOL0     H 3588   2.463   5.543   0.188  1.3931  0.9895  1.4930
  785MOL0     H 3589   2.371   5.685   0.113  0.5044 -1.4550 -1.6179
  785MOL0     H 3590   2.471   5.644   0.404  0.1845 -2.6910 -0.0030
  785MOL0     H 3591   2.302   5.616   0.358 -0.6732  0.8524 -1.9184
  785MOL0     H 3592   2.453   5.881   0.388  1.0342 -0.5972  0.8398
  785MOL0     H 3593   2.334   5.858   0.262  0.1896  0.8290 -0.1040
  785MOL0     H 3594   2.242   5.952   0.484 -2.7693 -0.1610  0.4363
  785MOL0     H 3595   2.269   5.789   0.544  1.5864  2.0737  0.4236
  785MOL0     H 3596   2.111   5.729   0.358  0.3722  0.0945  0.9364
  785MOL0     H 3597   2.086   5.906   0.344  0.9757  0.0200 -1.1955
  785MOL0     H 3598   2.009   5.720   0.587 -4.4151 -1.8536 -1.8059
  785MOL0     H 3599   2.006   5.893   0.600 -0.3955 -1.7657  2.0313
  785MOL0     H 3600   1.837   5.740   0.378 -0.4853  1.0574 -0.2156
  785MOL0     H 3601   1.845   5.909   0.406  1.0606 -1.3371 -2.5373
  785MOL0     H 3602   2.825   5.781   0.184 -2.1444 -0.1214  4.3008
  785MOL0     H 3603   3.011   5.942   0.164 -0.1814 -0.7173 -3.4945
  785MOL0     H 3604   3.181   6.340   0.031  0.0384 -1.2654 -0.6847
  785MOL0     H 3605   3.402   6.447   0.019  1.7739 -3.7829 -1.5530
  785MOL0     H 3606   4.152   6.503   1.571  0.3839  1.1313 -0.2792
  785MOL0     H 3607   4.316   6.467   1.726  0.3869  2.5606 -1.6226
  785MOL0     H 3608   4.616   6.387   1.903  1.9439  0.3111 -2.9035
  785MOL0     H 3609   4.750   6.399   2.110  1.9522 -0.6691 -1.4208
  785MOL0     H 3610   4.808   6.349   2.331  0.3261  0.1533  0.0454
  785MOL0     H 3611   4.958   6.403   2.255  0.0029 -0.8785  2.1698
  785MOL0     H 3612   4.936   6.186   2.476  2.2021 -2.4565 -1.2407
  785MOL0     H 3613   5.080   6.234   2.405  0.0988  0.3093  0.0395
  785MOL0     H 3614   4.888   6.431   2.525 -0.9078 -0.2742  0.7401
  785MOL0     H 3615   5.047   6.464   2.471 -0.9358  0.6841  0.7197
  785MOL0     H 3616   4.955   6.290   2.691  0.9085 -0.3433 -0.7785
  785MOL0     H 3617   5.135   6.282   2.637  2.0204  1.2283  0.4941
  785MOL0     H 3618   5.099   6.638   2.878  0.6382  0.5872 -0.1295
  785MOL0     H 3619   4.870   6.002   2.083 -2.7229 -0.9693  3.3637
  785MOL0     H 3620   4.714   5.971   1.870  2.9644 -0.6232  1.3078
  786MOL0     O 3621  10.771   7.981   8.099 -0.5224 -0.0988 -0.8428
  786MOL0     C 3622  10.884   8.013   8.064  0.8158  1.0763  1.4717
  786MOL0     O 3623  10.935   8.137   8.067  0.0287  0.1800 -0.0568
  786MOL0     C 3624  10.874   8.216   8.151 -0.1067  1.2092 -0.6128
  786MOL0     C 3625  10.744   8.257   8.140  0.4538 -0.5999 -0.3826
  786MOL0     C 3626  10.690   8.351   8.228 -0.0407 -0.7590  0.2553
  786MOL0     C 3627  10.772   8.394   8.341  1.4553  0.3539 -0.1899
  786MOL0     O 3628  10.700   8.472   8.429 -0.1939  0.1244  0.0085
  786MOL0     C 3629  10.716   8.426   8.569 -0.1785  0.6710 -0.1798
  786MOL0     C 3630  10.620   8.491   8.665 -1.2009  1.2091  0.5199
  786MOL0     C 3631  10.479   8.428   8.643 -0.4703 -1.0493  0.0868
  786MOL0     C 3632  10.369   8.485   8.730 -0.5202 -0.3596  0.0815
  786MOL0     C 3633  10.237   8.420   8.692  0.4778 -0.2943  0.2478
  786MOL0     C 3634  10.116   8.499   8.739  0.3345 -0.4711 -0.0396
  786MOL0     C 3635  10.071   8.628   8.664 -0.2545 -0.5122  0.4082
  786MOL0     C 3636   9.946   8.707   8.712 -0.2272 -0.4282  0.0225
  786MOL0     N 3637   9.853   8.628   8.791 -0.3463  0.6921 -0.4650
  786MOL0     C 3638   9.788   8.516   8.744  0.0555  0.2937 -0.2522
  786MOL0     C 3639   9.689   8.480   8.830  1.1684  0.3207 -0.2548
  786MOL0     C 3640   9.614   8.349   8.806 -0.4055 -0.4220  0.2091
  786MOL0     C 3641   9.460   8.338   8.836  0.0011  1.0688  0.1521
  786MOL0     C 3642   9.409   8.193   8.807  0.5995 -0.3192  0.2096
  786MOL0     C 3643   9.262   8.188   8.826  0.7304  0.1852  0.2202
  786MOL0     O 3644   9.212   8.061   8.770 -0.9689 -0.6091  1.2486
  786MOL0     C 3645   9.076   8.035   8.761  0.0044 -0.3818  0.4241
  786MOL0     C 3646   9.028   7.927   8.685  0.4017 -0.4011  0.3973
  786MOL0     C 3647   8.899   7.891   8.672  0.0731  0.0332 -0.5506
  786MOL0     C 3648   8.804   7.982   8.734  0.3479  0.6313 -0.4052
  786MOL0     C 3649   8.660   7.943   8.729  0.0757  0.3333 -0.0086
  786MOL0     O 3650   8.625   7.834   8.651 -0.5597  0.5513 -0.4354
  786MOL0     C 3651   8.496   7.790   8.673 -0.0866 -0.5703 -0.0953
  786MOL0     C 3652   8.463   7.657   8.702 -0.0395 -0.1974 -0.8120
  786MOL0     C 3653   8.331   7.614   8.702  0.4893 -0.0318 -0.2841
  786MOL0     C 3654   8.223   7.696   8.671 -0.9836  0.9613  0.2663
  786MOL0     O 3655   8.104   7.638   8.645  0.9943 -0.0770  0.6298
  786MOL0     C 3656   7.979   7.699   8.669  0.2313  0.0454 -0.4709
  786MOL0     C 3657   7.867   7.622   8.614 -0.2290 -0.2664 -0.8369
  786MOL0     C 3658   7.739   7.697   8.655  0.3984 -0.5294  0.4722
  786MOL0     C 3659   7.616   7.635   8.593 -0.0257 -0.4807 -0.2911
  786MOL0     C 3660   7.484   7.711   8.622 -0.8720  0.6132 -0.8398
  786MOL0     C 3661   7.367   7.675   8.520 -0.3649  0.4186 -0.5570
  786MOL0     C 3662   7.257   7.770   8.535 -0.0656 -0.1670  0.3659
  786MOL0     C 3663   7.135   7.731   8.458  0.0452 -0.4385 -0.6380
  786MOL0    Cl 3664   7.076   7.570   8.486  0.3695  0.5149  0.0266
  786MOL0     C 3665   8.250   7.832   8.656 -1.0851 -0.0441  1.0739
  786MOL0     C 3666   8.390   7.874   8.647  0.4840  0.6630  0.1361
  786MOL0     O 3667   8.592   8.006   8.805 -0.4950 -0.6834 -0.1954
  786MOL0     C 3668   8.848   8.087   8.814  0.9382 -0.0875  0.4364
  786MOL0     C 3669   8.986   8.117   8.830 -0.1744 -0.4931  0.0898
  786MOL0     N 3670   9.702   8.562   8.947  0.5575 -0.4085 -0.2933
  786MOL0     N 3671   9.799   8.643   8.922 -0.3882 -0.5019  0.6740
  786MOL0     C 3672  10.896   8.339   8.356  0.4652  0.3213 -0.5766
  786MOL0     C 3673  10.954   8.262   8.255 -0.1734 -0.0222 -0.7828
  786MOL0     C 3674  10.972   7.909   8.015 -0.1253  0.4820 -0.0795
  786MOL0     C 3675  11.107   7.936   7.989  0.6636  0.7455 -0.0174
  786MOL0     C 3676  11.183   7.839   7.916  0.2396 -0.2398  0.7403
  786MOL0     C 3677  11.139   7.710   7.887  0.0827  0.7845  0.1486
  786MOL0     O 3678  11.231   7.617   7.835 -0.2994 -0.2715 -0.0048
  786MOL0     C 3679  11.216   7.475   7.852  0.1989  0.2245  0.0017
  786MOL0     C 3680  11.341   7.417   7.792 -0.1196  0.2511 -0.5020
  786MOL0     C 3681  11.469   7.446   7.879  0.2460  0.1730 -0.1006
  786MOL0     C 3682  11.529   7.582   7.862 -0.5920  0.0005 -0.7079
  786MOL0     C 3683  11.546   7.623   7.725  0.0038  0.1460  0.2022
  786MOL0     C 3684  11.560   7.669   7.611 -0.0691  0.3855  0.6892
  786MOL0     C 3685  11.005   7.689   7.913  1.0986 -0.1311 -0.0332
  786MOL0     C 3686  10.920   7.776   7.975  0.5113  0.3147  0.1651
  786MOL0     H 3687  10.668   8.229   8.067 -0.1655 -0.3019  0.1382
  786MOL0     H 3688  10.585   8.381   8.227 -0.2081 -1.3535 -0.4041
  786MOL0     H 3689  10.815   8.455   8.606 -0.6751 -0.6787  2.4548
  786MOL0     H 3690  10.706   8.317   8.574 -0.2023  0.5165 -2.3869
  786MOL0     H 3691  10.634   8.598   8.650  0.8327  0.7617 -1.1883
  786MOL0     H 3692  10.649   8.467   8.767  2.6988  0.3703 -0.6432
  786MOL0     H 3693  10.485   8.320   8.659 -2.0075 -1.5072 -1.9820
  786MOL0     H 3694  10.445   8.450   8.541 -1.2106 -0.3185  0.4877
  786MOL0     H 3695  10.385   8.476   8.838  0.9599  0.4071 -0.0382
  786MOL0     H 3696  10.373   8.589   8.698 -0.3002 -0.6298 -0.8202
  786MOL0     H 3697  10.224   8.323   8.740 -2.9570 -0.5591 -0.9699
  786MOL0     H 3698  10.233   8.398   8.585 -1.4688  0.8787  0.0425
  786MOL0     H 3699  10.110   8.514   8.847 -2.4370 -0.6203 -0.0850
  786MOL0     H 3700  10.037   8.432   8.703 -0.0459  0.7720 -1.6321
  786MOL0     H 3701  10.146   8.705   8.684  0.2146 -1.6698  3.6717
  786MOL0     H 3702  10.078   8.608   8.557  0.8817 -2.3695  0.7838
  786MOL0     H 3703   9.886   8.761   8.638  1.5554 -0.5737 -1.5927
  786MOL0     H 3704   9.983   8.789   8.773 -0.8047  1.3172 -1.8523
  786MOL0     H 3705   9.809   8.455   8.656 -0.8669 -1.0764  0.4361
  786MOL0     H 3706   9.663   8.279   8.875  0.5557 -0.2722 -0.3113
  786MOL0     H 3707   9.633   8.319   8.703  0.9247  0.3364  0.2053
  786MOL0     H 3708   9.410   8.405   8.765 -0.4559  2.0640  1.3822
  786MOL0     H 3709   9.453   8.372   8.940  1.4555  0.3047  0.5276
  786MOL0     H 3710   9.433   8.176   8.702 -2.3843  1.4349 -0.8951
  786MOL0     H 3711   9.453   8.118   8.873 -0.7320 -0.3642  1.0923
  786MOL0     H 3712   9.212   8.269   8.771 -1.8269 -2.2629 -1.3318
  786MOL0     H 3713   9.240   8.187   8.934 -0.9748 -2.8937 -0.0398
  786MOL0     H 3714   9.104   7.876   8.626  0.0292  0.0345 -0.4881
  786MOL0     H 3715   8.876   7.801   8.617  0.2308  0.1083 -0.7379
  786MOL0     H 3716   8.555   7.603   8.721  1.1977  2.1625  0.1600
  786MOL0     H 3717   8.315   7.508   8.719  0.5755 -0.1213 -0.7525
  786MOL0     H 3718   7.973   7.803   8.638 -1.4842  0.1214  0.0588
  786MOL0     H 3719   7.970   7.702   8.778  1.1765  0.0802 -0.3801
  786MOL0     H 3720   7.858   7.521   8.653 -0.7167  0.5400  1.2657
  786MOL0     H 3721   7.888   7.599   8.509 -1.2944 -4.3724 -0.3133
  786MOL0     H 3722   7.744   7.795   8.607  1.0658 -0.8897 -0.2201
  786MOL0     H 3723   7.731   7.707   8.764  1.5676  0.3545  0.4931
  786MOL0     H 3724   7.629   7.640   8.484 -0.1339 -2.7545 -0.4479
  786MOL0     H 3725   7.606   7.530   8.619  0.1127 -0.1480  1.1770
  786MOL0     H 3726   7.502   7.818   8.618  0.5974  0.4789  0.7911
  786MOL0     H 3727   7.440   7.691   8.721 -2.2453  0.1845 -1.5098
  786MOL0     H 3728   7.327   7.578   8.549  2.1670 -0.6907 -0.5039
  786MOL0     H 3729   7.403   7.666   8.417  1.0336 -1.4305  0.0410
  786MOL0     H 3730   7.215   7.769   8.636 -2.6818 -0.6492 -0.6492
  786MOL0     H 3731   7.283   7.874   8.514 -1.9390  0.5272  1.2569
  786MOL0     H 3732   7.162   7.747   8.354  0.5554 -0.7279 -0.5537
  786MOL0     H 3733   7.048   7.796   8.469  0.1004 -0.2737 -1.1953
  786MOL0     H 3734   8.166   7.898   8.635 -0.1337  0.7629 -0.3489
  786MOL0     H 3735   8.407   7.978   8.619 -1.9570  1.3876  1.1071
  786MOL0     H 3736   8.786   8.160   8.866  0.5295  1.0497 -1.5394
  786MOL0     H 3737   9.018   8.185   8.908  0.8725  0.2867 -0.9853
  786MOL0     H 3738  10.958   8.374   8.437  0.4838  3.0737 -1.6883
  786MOL0     H 3739  11.056   8.228   8.267 -0.3649 -1.5334 -2.9367
  786MOL0     H 3740  11.148   8.032   8.018 -0.3831  1.8134 -1.8643
  786MOL0     H 3741  11.280   7.870   7.878  0.2056 -0.1447  0.7298
  786MOL0     H 3742  11.127   7.440   7.799  1.4630  0.0458 -2.0926
  786MOL0     H 3743  11.215   7.442   7.956 -1.0140  1.9609  0.5904
  786MOL0     H 3744  11.341   7.308   7.781  1.8753 -0.1162  2.2701
  786MOL0     H 3745  11.343   7.449   7.687 -3.9211 -4.2537 -2.3328
  786MOL0     H 3746  11.547   7.380   7.837  2.4174  2.9479 -0.7703
  786MOL0     H 3747  11.448   7.433   7.985 -1.3381 -0.2892 -0.4584
  786MOL0     H 3748  11.473   7.656   7.920  1.7067  1.8808 -0.7287
  786MOL0     H 3749  11.629   7.580   7.906 -0.0595  1.0356 -1.8021
  786MOL0     H 3750  11.547   7.716   7.515 -0.7123  1.1198  1.1259
  786MOL0     H 3751  10.978   7.586   7.895  3.1360 -1.0293  1.6112
  786MOL0     H 3752  10.816   7.746   7.989  0.6906 -0.1553  0.5138
  787MOL0     O 3753   7.397   3.333   9.511 -0.1496  0.1525 -0.3182
  787MOL0     C 3754   7.509   3.345   9.557 -0.9144 -0.7865  0.5745
  787MOL0     O 3755   7.543   3.294   9.683 -0.1131  0.4096 -0.0565
  787MOL0     C 3756   7.443   3.241   9.765  0.3238 -0.3650 -0.5335
  787MOL0     C 3757   7.369   3.123   9.743 -0.1091 -1.0015  0.2274
  787MOL0     C 3758   7.293   3.072   9.840  0.6962  0.1754  0.1858
  787MOL0     C 3759   7.284   3.135   9.968 -1.1282 -0.0811  0.0461
  787MOL0     O 3760   7.201   3.091  10.065  0.3474  0.2008  0.3282
  787MOL0     C 3761   7.074   3.051  10.024 -0.5932  0.0981 -0.4463
  787MOL0     C 3762   7.045   2.900  10.027  0.0266  0.4359 -0.3184
  787MOL0     C 3763   7.033   2.853  10.177 -0.2941 -0.3083 -0.5633
  787MOL0     C 3764   6.995   2.709  10.216 -0.1678  0.1490 -0.3358
  787MOL0     C 3765   6.868   2.669  10.145 -0.7284  0.3559 -0.6586
  787MOL0     C 3766   6.802   2.548  10.210 -0.3800  0.5188 -0.1806
  787MOL0     C 3767   6.646   2.551  10.195  0.4785  0.5426  0.6173
  787MOL0     C 3768   6.590   2.647  10.298  0.1636  1.5422 -0.8937
  787MOL0     N 3769   6.445   2.651  10.288  0.6215  0.6272 -0.1364
  787MOL0     C 3770   6.347   2.552  10.303 -0.2743  0.6074  0.0906
  787MOL0     C 3771   6.229   2.598  10.269  0.3786 -0.5456 -0.4728
  787MOL0     C 3772   6.103   2.521  10.257 -0.3604 -0.3003  0.1508
  787MOL0     C 3773   6.002   2.570  10.359 -0.6906  0.9921  0.4973
  787MOL0     C 3774   5.954   2.716  10.346 -0.2381  0.2891 -0.0844
  787MOL0     C 3775   5.846   2.733  10.231  0.9583  0.1453 -0.5114
  787MOL0     O 3776   5.731   2.668  10.278  0.8775  0.0443  0.6012
  787MOL0     C 3777   5.609   2.675  10.208 -0.1042 -0.4846  0.1467
  787MOL0     C 3778   5.497   2.647  10.279  0.7352 -0.3263 -0.6870
  787MOL0     C 3779   5.371   2.635  10.228  0.8389  0.1006  0.1103
  787MOL0     C 3780   5.347   2.665  10.094 -0.4518 -0.4702  0.2827
  787MOL0     C 3781   5.218   2.659  10.038 -0.8583  0.0946 -0.0200
  787MOL0     O 3782   5.195   2.728   9.923 -0.3568 -0.6880  0.5782
  787MOL0     C 3783   5.073   2.734   9.865 -0.3479  0.8721 -0.1994
  787MOL0     C 3784   4.998   2.620   9.833 -1.3661 -0.8369 -0.2083
  787MOL0     C 3785   4.877   2.642   9.769 -0.4173  0.0567 -0.3957
  787MOL0     C 3786   4.815   2.765   9.740 -0.2507 -1.1569 -0.6503
  787MOL0     O 3787   4.691   2.790   9.687 -0.7062 -1.1894  0.6056
  787MOL0     C 3788   4.593   2.800   9.797 -0.3332 -0.0941  0.7809
  787MOL0     C 3789   4.450   2.773   9.742 -0.0299  1.3452 -0.5737
  787MOL0     C 3790   4.339   2.779   9.846 -0.3712  0.5120  0.2831
  787MOL0     C 3791   4.364   2.692   9.978 -0.1404 -0.1197 -0.2381
  787MOL0     C 3792   4.359   2.544   9.936 -0.4303  0.7418 -0.2473
  787MOL0     C 3793   4.334   2.451  10.058 -0.4160  0.3253  0.1747
  787MOL0     C 3794   4.372   2.300  10.023 -0.4942  0.4339 -0.4289
  787MOL0     C 3795   4.264   2.209   9.963  0.5720 -0.3797 -0.6238
  787MOL0    Cl 3796   4.132   2.207  10.079  0.1053  0.1973  0.1484
  787MOL0     C 3797   4.895   2.876   9.785 -0.3112  0.0685  0.7535
  787MOL0     C 3798   5.021   2.860   9.843  0.9799 -0.1659  0.4692
  787MOL0     O 3799   5.135   2.582  10.092  0.1067 -0.8014  0.2660
  787MOL0     C 3800   5.463   2.711  10.022 -0.4812 -0.5290 -0.0654
  787MOL0     C 3801   5.588   2.710  10.079 -0.5050  0.8526 -0.6221
  787MOL0     N 3802   6.256   2.733  10.235 -0.7384 -0.7993  0.1957
  787MOL0     N 3803   6.380   2.763  10.254 -0.3362  0.4499 -0.2313
  787MOL0     C 3804   7.377   3.233   9.993  0.7305 -0.1165  0.7506
  787MOL0     C 3805   7.451   3.287   9.897 -0.1279  0.0625  0.7788
  787MOL0     C 3806   7.619   3.399   9.467  0.0860  0.0523 -0.0473
  787MOL0     C 3807   7.605   3.419   9.330  0.4385 -0.1245  0.2937
  787MOL0     C 3808   7.708   3.476   9.260  0.1045 -0.9191  0.0311
  787MOL0     C 3809   7.818   3.534   9.321  0.3973  0.3525  0.0321
  787MOL0     O 3810   7.910   3.585   9.235 -1.4403  0.4645 -0.5807
  787MOL0     C 3811   8.006   3.676   9.287  0.0790 -0.1040 -0.6917
  787MOL0     C 3812   8.065   3.768   9.178  0.4666 -0.1934 -0.1171
  787MOL0     C 3813   7.960   3.866   9.116 -0.4941  0.7658  0.0679
  787MOL0     C 3814   8.034   3.970   9.044  0.6497 -0.6665  1.0043
  787MOL0     C 3815   7.938   4.080   8.989  0.5824  1.1555 -0.9764
  787MOL0     C 3816   7.850   4.157   8.977 -0.0201 -0.5800 -0.1116
  787MOL0     C 3817   7.838   3.511   9.458 -0.5989 -0.5200  0.1494
  787MOL0     C 3818   7.739   3.440   9.531 -0.0661  0.0065 -0.0295
  787MOL0     H 3819   7.366   3.079   9.644 -1.2622 -0.3672 -0.0313
  787MOL0     H 3820   7.228   2.988   9.819 -1.1111  1.8609 -1.3513
  787MOL0     H 3821   7.047   3.090   9.925 -1.0430 -1.9408 -1.1874
  787MOL0     H 3822   6.999   3.087  10.095 -0.1473  1.7916 -0.7870
  787MOL0     H 3823   7.127   2.849   9.976  1.8193  2.4684  0.4138
  787MOL0     H 3824   6.950   2.879   9.977  1.0402 -0.0717 -2.1052
  787MOL0     H 3825   6.964   2.921  10.229  2.9088  0.9965  2.3649
  787MOL0     H 3826   7.129   2.884  10.219  0.6144 -2.7446 -0.7006
  787MOL0     H 3827   7.073   2.638  10.185 -0.8571 -1.2746  1.0801
  787MOL0     H 3828   6.999   2.715  10.325  0.2253 -0.4032 -0.3125
  787MOL0     H 3829   6.911   2.643  10.048  0.9819 -2.7096  0.7825
  787MOL0     H 3830   6.800   2.754  10.140 -0.0546  1.2011  2.2787
  787MOL0     H 3831   6.829   2.536  10.316  0.1130  0.6327 -0.2912
  787MOL0     H 3832   6.850   2.465  10.157  2.8242  2.7011 -1.0256
  787MOL0     H 3833   6.609   2.566  10.093  1.8673 -0.0678 -0.0067
  787MOL0     H 3834   6.618   2.448  10.216  1.2673  0.2309  0.1954
  787MOL0     H 3835   6.637   2.746  10.287 -0.3154  1.8421 -0.2874
  787MOL0     H 3836   6.605   2.611  10.400 -0.5533 -1.8630 -1.8525
  787MOL0     H 3837   6.358   2.446  10.321 -3.0254 -0.2570 -2.4781
  787MOL0     H 3838   6.131   2.418  10.281  1.2818  0.4793  1.8604
  787MOL0     H 3839   6.069   2.526  10.153 -0.5001  0.0878  0.2150
  787MOL0     H 3840   6.060   2.560  10.451 -0.6117  0.9781  0.4462
  787MOL0     H 3841   5.917   2.501  10.359 -2.0079  2.5421  0.1351
  787MOL0     H 3842   5.915   2.754  10.441 -0.2713  0.3639 -0.1287
  787MOL0     H 3843   6.036   2.787  10.332 -1.3532  1.3604 -1.4713
  787MOL0     H 3844   5.881   2.682  10.141 -0.0559 -0.1530 -0.7454
  787MOL0     H 3845   5.822   2.839  10.217 -3.0450 -0.5458 -0.0558
  787MOL0     H 3846   5.511   2.631  10.386 -1.2421  2.5318  0.1426
  787MOL0     H 3847   5.287   2.604  10.289  0.2102  1.8007  0.1536
  787MOL0     H 3848   5.053   2.530   9.857  3.8787  2.0038 -0.2233
  787MOL0     H 3849   4.822   2.553   9.738 -2.3135  1.3732 -1.0334
  787MOL0     H 3850   4.603   2.904   9.830  3.9592  1.1139 -3.2216
  787MOL0     H 3851   4.627   2.737   9.880 -0.7298 -1.8173 -0.3224
  787MOL0     H 3852   4.451   2.671   9.702 -0.4951 -0.2488  3.0580
  787MOL0     H 3853   4.434   2.839   9.657 -1.0492  0.6715 -0.9266
  787MOL0     H 3854   4.253   2.744   9.789  0.1276 -1.1463  0.5037
  787MOL0     H 3855   4.328   2.882   9.882  2.0469  1.8408 -2.3049
  787MOL0     H 3856   4.457   2.706  10.034 -0.3818 -2.0167  0.7536
  787MOL0     H 3857   4.276   2.712  10.040 -0.4928  1.8383 -1.2986
  787MOL0     H 3858   4.453   2.526   9.883 -0.4426 -0.5024  0.1146
  787MOL0     H 3859   4.281   2.514   9.865  0.2518 -1.2878 -0.2082
  787MOL0     H 3860   4.229   2.450  10.088 -0.0385 -1.3718  1.6164
  787MOL0     H 3861   4.396   2.475  10.145  0.5381  0.3015 -0.4860
  787MOL0     H 3862   4.458   2.308   9.956 -0.0876 -2.4121 -0.3586
  787MOL0     H 3863   4.420   2.256  10.111 -1.4746  3.2071  1.6609
  787MOL0     H 3864   4.310   2.110   9.950  0.7267 -0.3473 -0.3380
  787MOL0     H 3865   4.215   2.249   9.874 -0.8467 -1.5322 -0.4040
  787MOL0     H 3866   4.869   2.978   9.759  0.3475 -0.4557 -2.4772
  787MOL0     H 3867   5.079   2.945   9.878  1.9310 -0.1106 -1.1418
  787MOL0     H 3868   5.449   2.730   9.916 -3.0088 -2.0266 -0.0768
  787MOL0     H 3869   5.668   2.736  10.011 -1.5490  0.1242 -2.1949
  787MOL0     H 3870   7.385   3.277  10.092  1.1377  0.9882  0.2544
  787MOL0     H 3871   7.530   3.357   9.919 -0.1012 -0.2816  1.8808
  787MOL0     H 3872   7.511   3.384   9.287 -0.7346  2.4125  0.6089
  787MOL0     H 3873   7.699   3.498   9.154  1.4337 -1.3092 -0.1916
  787MOL0     H 3874   8.075   3.611   9.343 -1.7200  0.6655  2.7537
  787MOL0     H 3875   7.957   3.734   9.366  0.3437 -0.9598  0.1290
  787MOL0     H 3876   8.148   3.824   9.221 -0.0850 -0.7767  1.8282
  787MOL0     H 3877   8.096   3.717   9.086 -0.9701 -0.1493 -0.6622
  787MOL0     H 3878   7.908   3.915   9.199 -0.2151 -0.9963  1.3566
  787MOL0     H 3879   7.883   3.813   9.059  1.3057 -1.8148 -0.1219
  787MOL0     H 3880   8.107   4.021   9.106  1.0151  1.9782 -1.3836
  787MOL0     H 3881   8.087   3.918   8.963  0.4111 -2.1159  1.7369
  787MOL0     H 3882   7.768   4.225   8.968 -0.0654 -0.6806 -0.4618
  787MOL0     H 3883   7.926   3.544   9.511 -2.1787  3.0454  0.8175
  787MOL0     H 3884   7.770   3.415   9.632 -1.1885 -1.7627 -0.0783
  788MOL0     O 3885   6.115   4.383  10.273 -0.3787 -0.9247  0.4693
  788MOL0     C 3886   6.166   4.489  10.309 -0.7050 -0.1785  0.4213
  788MOL0     O 3887   6.115   4.614  10.283  0.0845 -0.5624 -0.3452
  788MOL0     C 3888   5.987   4.613  10.240  0.5114  0.8439  1.1519
  788MOL0     C 3889   5.883   4.623  10.325  0.3504  0.1264  0.2784
  788MOL0     C 3890   5.747   4.605  10.282 -0.1228 -0.5189  0.9013
  788MOL0     C 3891   5.716   4.582  10.146 -0.7354 -0.5077 -0.6188
  788MOL0     O 3892   5.593   4.544  10.105 -0.0590  0.9792  1.0002
  788MOL0     C 3893   5.505   4.473  10.183  0.6453  0.5927 -0.1746
  788MOL0     C 3894   5.411   4.398  10.076 -0.8847 -0.1898  0.0815
  788MOL0     C 3895   5.262   4.410  10.093 -1.0790 -0.2012  0.2128
  788MOL0     C 3896   5.181   4.339   9.994 -0.1163 -1.2058 -0.9691
  788MOL0     C 3897   5.032   4.337  10.016  0.3252  0.1600  0.1808
  788MOL0     C 3898   4.960   4.285   9.894  0.7500  0.0276  0.6517
  788MOL0     C 3899   4.827   4.226   9.938 -0.2072  0.8607  1.2133
  788MOL0     C 3900   4.752   4.158   9.821  0.6266  0.3919 -0.5669
  788MOL0     N 3901   4.717   4.242   9.708 -0.1229 -0.0680 -1.2501
  788MOL0     C 3902   4.626   4.353   9.716  0.1507 -0.1771 -0.1880
  788MOL0     C 3903   4.631   4.398   9.592 -0.8286 -0.2567 -0.2068
  788MOL0     C 3904   4.561   4.528   9.545 -0.9126  0.5989 -0.2388
  788MOL0     C 3905   4.431   4.489   9.463 -0.1767 -0.0249  0.1126
  788MOL0     C 3906   4.330   4.417   9.547  0.3757 -0.1144  0.3556
  788MOL0     C 3907   4.210   4.354   9.477  0.0592 -0.4281  0.7729
  788MOL0     O 3908   4.103   4.350   9.569 -0.1087 -0.2388  0.0314
  788MOL0     C 3909   3.983   4.320   9.522 -0.1839  0.0119 -0.4900
  788MOL0     C 3910   3.940   4.300   9.387  1.1763  0.4122 -0.7227
  788MOL0     C 3911   3.811   4.269   9.353 -0.4549 -0.8320 -0.1625
  788MOL0     C 3912   3.715   4.255   9.449  0.7613 -0.0214 -0.1465
  788MOL0     C 3913   3.569   4.245   9.405 -0.2206 -0.7945  0.6819
  788MOL0     O 3914   3.548   4.225   9.270  0.5650  0.9150 -0.9773
  788MOL0     C 3915   3.420   4.210   9.226 -0.3839 -0.6529  0.6828
  788MOL0     C 3916   3.365   4.083   9.188 -0.1642  0.2782  0.5657
  788MOL0     C 3917   3.236   4.079   9.137  0.3390 -0.5864  0.7151
  788MOL0     C 3918   3.158   4.192   9.101 -0.4102  0.1922  0.0399
  788MOL0     O 3919   3.035   4.191   9.028 -0.1646 -0.1643  0.0811
  788MOL0     C 3920   2.995   4.057   8.977  0.6410 -0.6303 -0.3261
  788MOL0     C 3921   2.871   4.072   8.880 -0.2169 -0.6763 -0.5423
  788MOL0     C 3922   2.765   4.170   8.941 -0.4189  0.0414 -0.3090
  788MOL0     C 3923   2.628   4.159   8.872  0.1047 -0.7693 -0.2439
  788MOL0     C 3924   2.526   4.252   8.934  0.8259  1.0167  0.1969
  788MOL0     C 3925   2.400   4.219   8.847 -0.8155 -0.5006 -0.9607
  788MOL0     C 3926   2.289   4.314   8.890  0.1336 -0.6998  0.7735
  788MOL0     C 3927   2.276   4.430   8.796  0.6778  0.5591  0.7765
  788MOL0    Cl 3928   2.411   4.535   8.813  0.1728 -0.4137 -0.1617
  788MOL0     C 3929   3.217   4.314   9.142  0.2072  0.2083 -0.2702
  788MOL0     C 3930   3.343   4.328   9.207 -0.6427  0.5052  0.0734
  788MOL0     O 3931   3.485   4.239   9.490  1.1966  0.0905 -0.0223
  788MOL0     C 3932   3.745   4.269   9.580  0.3159 -0.6417  0.9389
  788MOL0     C 3933   3.875   4.299   9.621  1.1644  0.7726  0.9962
  788MOL0     N 3934   4.721   4.331   9.517  0.8743  0.0324  0.4090
  788MOL0     N 3935   4.768   4.233   9.581  0.7204  0.0604 -0.7888
  788MOL0     C 3936   5.830   4.580  10.057  0.3991  0.4835  0.0028
  788MOL0     C 3937   5.961   4.599  10.105 -0.3636 -0.0376 -0.1551
  788MOL0     C 3938   6.276   4.482  10.402  0.1803  0.2454 -0.7159
  788MOL0     C 3939   6.346   4.597  10.436 -0.0468 -0.2414 -1.2374
  788MOL0     C 3940   6.473   4.587  10.496  0.2127 -0.4665  0.2281
  788MOL0     C 3941   6.527   4.467  10.536 -0.3051  0.6295 -0.1528
  788MOL0     O 3942   6.649   4.446  10.604  0.6999 -0.5337  0.4725
  788MOL0     C 3943   6.735   4.556  10.617 -0.1453  0.0404  0.0510
  788MOL0     C 3944   6.846   4.517  10.720  0.0678  0.1920 -0.4205
  788MOL0     C 3945   6.953   4.626  10.743 -0.7574  0.5214  0.3779
  788MOL0     C 3946   7.085   4.570  10.807 -0.3294 -0.6612  0.1242
  788MOL0     C 3947   7.153   4.470  10.721 -0.5085 -0.4646  0.4307
  788MOL0     C 3948   7.209   4.393  10.650  0.4906  0.8786 -0.0749
  788MOL0     C 3949   6.457   4.351  10.504  0.4958  0.3668  0.1846
  788MOL0     C 3950   6.336   4.354  10.439  0.2138 -0.3975 -0.5509
  788MOL0     H 3951   5.908   4.638  10.429  0.5278  0.4180  0.1951
  788MOL0     H 3952   5.667   4.608  10.354 -2.2947 -1.4225 -1.3154
  788MOL0     H 3953   5.454   4.548  10.245  0.5697 -0.3054  0.8782
  788MOL0     H 3954   5.556   4.396  10.241  0.5476 -0.7650 -1.8246
  788MOL0     H 3955   5.439   4.292  10.066 -1.8668 -0.5498  0.8679
  788MOL0     H 3956   5.439   4.435   9.978 -0.1745  0.4201  0.5045
  788MOL0     H 3957   5.242   4.517  10.082 -0.2031  0.2023  2.1429
  788MOL0     H 3958   5.237   4.375  10.194  2.3654 -2.5963  0.4274
  788MOL0     H 3959   5.209   4.387   9.899  0.8502 -2.5096 -1.3794
  788MOL0     H 3960   5.216   4.235   9.992 -0.4105 -1.4595  2.3425
  788MOL0     H 3961   4.996   4.439  10.036 -4.0891 -1.8372  4.6742
  788MOL0     H 3962   4.992   4.286  10.104 -0.8636  1.2559  0.3131
  788MOL0     H 3963   5.018   4.201   9.853 -1.9700 -3.2972  3.0003
  788MOL0     H 3964   4.935   4.362   9.820 -2.2894 -1.4573 -0.0564
  788MOL0     H 3965   4.855   4.158  10.018  1.0843  0.5066  0.4924
  788MOL0     H 3966   4.769   4.307   9.985  0.3900  2.6715 -0.9805
  788MOL0     H 3967   4.653   4.131   9.860 -0.7242  3.4426 -1.5837
  788MOL0     H 3968   4.792   4.068   9.773 -1.2314 -0.5981 -0.3768
  788MOL0     H 3969   4.576   4.404   9.798 -1.3014 -1.4699 -0.2372
  788MOL0     H 3970   4.622   4.600   9.490  0.9839 -0.9063 -0.1912
  788MOL0     H 3971   4.527   4.584   9.632  1.0457 -0.0466  1.0094
  788MOL0     H 3972   4.459   4.437   9.371  1.5500  0.7290  0.1748
  788MOL0     H 3973   4.380   4.582   9.436 -0.5045 -0.3578 -0.4288
  788MOL0     H 3974   4.391   4.341   9.596  0.9673  1.4303  2.1344
  788MOL0     H 3975   4.301   4.494   9.619 -0.6404 -1.3548  1.3186
  788MOL0     H 3976   4.224   4.253   9.439  1.6848  0.2654 -0.5816
  788MOL0     H 3977   4.192   4.405   9.382  2.7314 -0.2142  0.3073
  788MOL0     H 3978   4.012   4.289   9.306  2.6650 -2.0498  0.7787
  788MOL0     H 3979   3.793   4.247   9.248  0.4702 -0.5031 -0.3902
  788MOL0     H 3980   3.413   3.992   9.223  1.4268 -0.2965 -2.7633
  788MOL0     H 3981   3.201   3.978   9.118  2.1219 -0.6080 -3.7472
  788MOL0     H 3982   2.961   4.003   9.066 -3.6935 -0.5204 -1.6414
  788MOL0     H 3983   3.082   4.007   8.933  2.5488 -0.9842  3.4584
  788MOL0     H 3984   2.829   3.972   8.874  1.5806 -1.6692  1.7519
  788MOL0     H 3985   2.894   4.107   8.779  1.2374  0.5309  0.1650
  788MOL0     H 3986   2.793   4.275   8.950 -2.0802  0.4094  1.0726
  788MOL0     H 3987   2.741   4.124   9.038  0.3087 -1.0483 -0.6205
  788MOL0     H 3988   2.646   4.191   8.769  3.9620  1.2149  0.8360
  788MOL0     H 3989   2.586   4.058   8.883 -1.6720 -0.1277 -0.7629
  788MOL0     H 3990   2.548   4.359   8.937 -3.1258  2.1822 -3.1464
  788MOL0     H 3991   2.494   4.218   9.034 -2.1115  2.2952 -0.2238
  788MOL0     H 3992   2.373   4.114   8.864  2.1687 -0.8860  2.7220
  788MOL0     H 3993   2.435   4.233   8.745  3.2891 -1.6839  0.1125
  788MOL0     H 3994   2.199   4.253   8.880  0.9671 -1.8225 -0.2263
  788MOL0     H 3995   2.292   4.346   8.995  1.6652  1.9581  0.0209
  788MOL0     H 3996   2.183   4.478   8.827  1.4246  1.6760  1.3673
  788MOL0     H 3997   2.262   4.391   8.695  0.7196 -0.2033  1.0575
  788MOL0     H 3998   3.158   4.405   9.134 -0.1997  0.4795  3.7641
  788MOL0     H 3999   3.395   4.419   9.237  3.0959 -1.8301  1.3330
  788MOL0     H 4000   3.671   4.266   9.660  0.7727  0.5114  1.4388
  788MOL0     H 4001   3.887   4.323   9.726  1.1692 -0.3297  1.2636
  788MOL0     H 4002   5.821   4.573   9.949 -2.3698 -0.2031  0.1941
  788MOL0     H 4003   6.046   4.579  10.041  0.0318 -0.4268  0.4795
  788MOL0     H 4004   6.308   4.694  10.408 -2.7790 -1.4124 -1.9183
  788MOL0     H 4005   6.529   4.679  10.511 -0.9521  0.2340  0.4228
  788MOL0     H 4006   6.681   4.645  10.648 -0.2655  0.0323 -0.1358
  788MOL0     H 4007   6.787   4.571  10.522 -2.5932  0.3911 -1.3011
  788MOL0     H 4008   6.811   4.492  10.821  0.5024 -0.0957 -0.3381
  788MOL0     H 4009   6.891   4.425  10.681 -1.2427 -0.6323 -0.0516
  788MOL0     H 4010   6.922   4.707  10.810 -0.3717  2.2821 -1.5048
  788MOL0     H 4011   6.974   4.681  10.651 -0.1342  2.9344  1.8487
  788MOL0     H 4012   7.160   4.648  10.823  1.7567 -2.2214 -1.4244
  788MOL0     H 4013   7.053   4.520  10.899  1.7543 -2.2085  0.0832
  788MOL0     H 4014   7.259   4.321  10.588 -1.4741 -0.3032 -0.3659
  788MOL0     H 4015   6.503   4.257  10.531 -1.2909 -0.5966 -0.0031
  788MOL0     H 4016   6.294   4.265  10.394  3.2331 -1.4948 -1.4457
  789MOL0     O 4017  11.009  11.252   6.741 -0.6174  0.3421  0.2557
  789MOL0     C 4018  11.042  11.132   6.750  0.9753  0.0896 -0.0327
  789MOL0     O 4019  10.954  11.029   6.767  0.7770 -0.2091  0.2155
  789MOL0     C 4020  10.830  11.043   6.724  0.3670  0.1982  0.5490
  789MOL0     C 4021  10.808  11.016   6.590  0.0129 -0.2346  0.0297
  789MOL0     C 4022  10.684  11.035   6.532 -0.1157  0.3401 -0.1202
  789MOL0     C 4023  10.588  11.094   6.604  0.0755  0.2289 -0.2195
  789MOL0     O 4024  10.479  11.127   6.529  0.2529 -0.8959 -0.6182
  789MOL0     C 4025  10.350  11.135   6.595 -0.2452  0.3826  0.6554
  789MOL0     C 4026  10.322  10.989   6.638 -0.5194  0.1293 -0.1081
  789MOL0     C 4027  10.185  10.943   6.676 -0.2917  0.0745 -0.7532
  789MOL0     C 4028  10.114  11.034   6.781  0.5933  0.1655  0.1377
  789MOL0     C 4029   9.983  10.958   6.843 -0.2328 -0.2022 -0.4540
  789MOL0     C 4030   9.880  11.074   6.882 -0.3269  0.0202  0.8583
  789MOL0     C 4031   9.763  11.020   6.962 -0.6156 -1.0191  0.3767
  789MOL0     C 4032   9.659  11.129   6.978 -0.2084 -0.0519  0.0579
  789MOL0     N 4033   9.526  11.053   6.980 -0.7066 -0.3718  0.3998
  789MOL0     C 4034   9.457  10.992   7.083 -0.1696  1.3580  0.4660
  789MOL0     C 4035   9.357  10.914   7.024 -0.2794 -0.7134 -0.1880
  789MOL0     C 4036   9.261  10.806   7.077 -0.5982  0.2941 -0.5967
  789MOL0     C 4037   9.340  10.693   7.140 -0.6797 -0.7657  0.6149
  789MOL0     C 4038   9.255  10.604   7.216  1.0757 -0.0047 -1.2489
  789MOL0     C 4039   9.205  10.490   7.119  0.0259 -0.4413  0.0666
  789MOL0     O 4040   9.138  10.392   7.195 -0.6510  0.6614  1.0906
  789MOL0     C 4041   9.069  10.288   7.135  0.7202  0.0205 -0.9569
  789MOL0     C 4042   9.041  10.279   7.001  0.1388  0.0320 -0.0688
  789MOL0     C 4043   8.974  10.169   6.947 -0.0239 -0.0777 -0.1616
  789MOL0     C 4044   8.910  10.072   7.028 -0.0432 -0.2194  0.4657
  789MOL0     C 4045   8.826   9.963   6.980  0.1487 -0.7791 -0.4212
  789MOL0     O 4046   8.711   9.949   7.056  0.3183 -0.1973 -0.4523
  789MOL0     C 4047   8.635   9.844   7.030  1.0838 -0.0573  0.3731
  789MOL0     C 4048   8.602   9.792   6.908  0.4375 -0.7059 -1.0131
  789MOL0     C 4049   8.509   9.679   6.900 -0.9465  0.4757 -0.3739
  789MOL0     C 4050   8.444   9.631   7.011  0.2810  0.1461 -0.9405
  789MOL0     O 4051   8.339   9.542   7.005  0.5787 -0.6432  0.3841
  789MOL0     C 4052   8.287   9.493   6.878 -0.0556 -0.1637  0.2553
  789MOL0     C 4053   8.151   9.432   6.895  0.4704 -0.1252 -0.2989
  789MOL0     C 4054   8.056   9.554   6.929  0.0750 -0.3415  0.3303
  789MOL0     C 4055   7.913   9.506   6.943  0.8502  0.1194  0.3232
  789MOL0     C 4056   7.806   9.611   6.945  0.0462  0.3417 -0.2658
  789MOL0     C 4057   7.666   9.565   6.897  0.2017 -0.1663  0.1488
  789MOL0     C 4058   7.631   9.440   6.979  0.7660  0.2878 -0.6176
  789MOL0     C 4059   7.481   9.396   6.957 -0.4188  0.8117 -0.0874
  789MOL0    Cl 4060   7.423   9.411   6.789 -0.2831  0.1190 -0.1120
  789MOL0     C 4061   8.474   9.687   7.134 -0.0539  0.2895  0.0049
  789MOL0     C 4062   8.572   9.792   7.142 -0.5325 -0.2725 -0.5002
  789MOL0     O 4063   8.864   9.891   6.884 -0.8442 -0.1001  0.3273
  789MOL0     C 4064   8.923  10.085   7.165  0.8321 -0.3819  0.3219
  789MOL0     C 4065   9.003  10.193   7.217  0.4171  0.6770  0.5056
  789MOL0     N 4066   9.362  10.952   6.893  0.5544  0.1621 -0.2816
  789MOL0     N 4067   9.463  11.018   6.865  0.4891 -0.5061 -0.9169
  789MOL0     C 4068  10.603  11.113   6.750 -0.8466 -0.7026 -0.5253
  789MOL0     C 4069  10.731  11.102   6.803  0.3571  0.0697 -0.7164
  789MOL0     C 4070  11.185  11.096   6.750 -0.5884  0.4633 -1.0572
  789MOL0     C 4071  11.277  11.192   6.800  0.3202 -0.7626  0.3723
  789MOL0     C 4072  11.413  11.161   6.821 -0.5316 -0.4176  0.6476
  789MOL0     C 4073  11.465  11.038   6.768 -0.4438 -0.7956  0.8900
  789MOL0     O 4074  11.601  11.004   6.781 -0.0427  0.2275 -0.1052
  789MOL0     C 4075  11.706  11.100   6.816 -0.2277  0.1981 -0.0305
  789MOL0     C 4076  11.719  11.121   6.975  0.2411 -0.4193 -0.0040
  789MOL0     C 4077  11.828  11.231   7.017  0.5642 -0.3646 -0.3101
  789MOL0     C 4078  11.973  11.177   6.981  0.7409 -0.3936  0.3142
  789MOL0     C 4079  12.066  11.260   7.042 -0.9605 -0.2046  0.9773
  789MOL0     C 4080  12.162  11.315   7.095 -0.7254  0.3143  0.1635
  789MOL0     C 4081  11.375  10.958   6.702 -1.3294  1.3178 -0.5190
  789MOL0     C 4082  11.242  10.982   6.692 -0.4675  0.1843  0.3279
  789MOL0     H 4083  10.887  10.973   6.529 -1.7667 -2.5310 -0.8196
  789MOL0     H 4084  10.681  11.013   6.426 -0.3942  0.8139 -0.2121
  789MOL0     H 4085  10.285  11.163   6.512  0.6292 -1.9006 -0.9108
  789MOL0     H 4086  10.343  11.217   6.667  0.5024  2.0897 -1.1442
  789MOL0     H 4087  10.391  10.971   6.721  0.1585  0.3819 -0.6050
  789MOL0     H 4088  10.354  10.923   6.557  0.8277 -1.0823  1.3414
  789MOL0     H 4089  10.183  10.838   6.708 -1.3371  0.2146 -0.3257
  789MOL0     H 4090  10.127  10.948   6.583 -0.8461 -0.1729 -0.4267
  789MOL0     H 4091  10.175  11.071   6.864 -0.9589  1.0773  0.8921
  789MOL0     H 4092  10.083  11.126   6.732  4.4286  1.1086 -0.9297
  789MOL0     H 4093  10.007  10.891   6.926 -0.2059  1.5385  1.0088
  789MOL0     H 4094   9.944  10.887   6.770  1.3193 -1.2668 -0.2843
  789MOL0     H 4095   9.837  11.125   6.796  2.6107  0.6902 -0.3001
  789MOL0     H 4096   9.929  11.159   6.931 -2.6146  3.2248 -1.9210
  789MOL0     H 4097   9.728  10.929   6.913 -2.0909 -0.6366  0.6717
  789MOL0     H 4098   9.806  10.992   7.059  1.5368  0.5801 -0.0328
  789MOL0     H 4099   9.665  11.207   6.901 -0.4806  1.4505  1.4960
  789MOL0     H 4100   9.679  11.180   7.072  2.6851 -1.0091  0.0549
  789MOL0     H 4101   9.479  10.979   7.189  0.6418 -4.5653 -0.0879
  789MOL0     H 4102   9.200  10.777   6.990 -0.9185 -1.0232  0.0403
  789MOL0     H 4103   9.210  10.857   7.159  0.3011 -0.0083  0.1726
  789MOL0     H 4104   9.411  10.741   7.207  0.3372 -0.2543 -0.7750
  789MOL0     H 4105   9.400  10.636   7.069 -0.4189 -0.6472  0.7392
  789MOL0     H 4106   9.291  10.562   7.310  1.6462 -0.9304 -1.8602
  789MOL0     H 4107   9.164  10.662   7.231 -0.3332 -1.8474 -2.2541
  789MOL0     H 4108   9.282  10.442   7.057 -0.6100 -1.7664  0.2809
  789MOL0     H 4109   9.128  10.533   7.054  0.5473  0.0948 -0.2126
  789MOL0     H 4110   9.088  10.353   6.937  2.5545 -0.9800  0.3886
  789MOL0     H 4111   8.971  10.173   6.839  5.1192  1.0236 -0.5261
  789MOL0     H 4112   8.646   9.832   6.817 -0.0992 -0.2512 -1.0838
  789MOL0     H 4113   8.503   9.618   6.810 -1.4376 -1.2774  0.7998
  789MOL0     H 4114   8.357   9.416   6.846  0.0046  0.1828 -0.4581
  789MOL0     H 4115   8.287   9.558   6.790 -1.0290 -1.9957 -1.1530
  789MOL0     H 4116   8.149   9.350   6.968  0.6047 -1.0917 -1.3529
  789MOL0     H 4117   8.116   9.395   6.798 -4.1536  0.5603  0.9117
  789MOL0     H 4118   8.055   9.631   6.850  0.2705 -1.9908 -1.3631
  789MOL0     H 4119   8.074   9.596   7.028  1.3974 -1.0758  0.4154
  789MOL0     H 4120   7.888   9.444   6.856  0.2832  2.1320 -1.0087
  789MOL0     H 4121   7.913   9.432   7.025  0.3770 -0.2387  0.0073
  789MOL0     H 4122   7.840   9.698   6.887  0.2943  0.4361  0.0214
  789MOL0     H 4123   7.795   9.639   7.050 -1.2408 -0.1901 -0.2464
  789MOL0     H 4124   7.679   9.562   6.788  0.5279  1.3055  0.1211
  789MOL0     H 4125   7.597   9.643   6.930  0.3147  2.2986 -4.5459
  789MOL0     H 4126   7.691   9.353   6.951  2.3988  0.1358  2.8074
  789MOL0     H 4127   7.653   9.456   7.085  1.1847 -2.4710 -0.2138
  789MOL0     H 4128   7.419   9.465   7.015 -0.0274 -0.8478  2.4578
  789MOL0     H 4129   7.458   9.298   6.999  0.3845  1.4460  1.9802
  789MOL0     H 4130   8.422   9.648   7.221 -4.1142  4.7943  0.0209
  789MOL0     H 4131   8.592   9.840   7.238 -1.4249 -0.1712 -0.3593
  789MOL0     H 4132   8.868  10.021   7.233 -1.8096  1.4115  0.0323
  789MOL0     H 4133   9.030  10.209   7.321  0.5635  1.2833  0.3787
  789MOL0     H 4134  10.517  11.145   6.809  0.1510 -1.7263  1.6113
  789MOL0     H 4135  10.743  11.141   6.904  1.0620  0.5109 -0.9720
  789MOL0     H 4136  11.223  11.279   6.835 -1.9648 -1.8758 -0.1567
  789MOL0     H 4137  11.486  11.229   6.864 -0.5067 -0.1401  0.1696
  789MOL0     H 4138  11.693  11.189   6.755  2.8753 -0.6507 -2.1856
  789MOL0     H 4139  11.798  11.060   6.772  0.2073  1.5284 -0.3548
  789MOL0     H 4140  11.618  11.152   7.005  0.3560  2.1134 -1.9167
  789MOL0     H 4141  11.749  11.029   7.026  1.9942 -0.4580 -1.0298
  789MOL0     H 4142  11.825  11.263   7.121  2.1244  0.2655 -0.4285
  789MOL0     H 4143  11.808  11.323   6.961 -0.9894  0.5603  1.6647
  789MOL0     H 4144  11.977  11.085   7.039  2.5413 -0.5609 -0.0437
  789MOL0     H 4145  11.992  11.157   6.876  0.1764 -0.4329  0.2118
  789MOL0     H 4146  12.231  11.380   7.144  0.3015 -0.6995  0.1126
  789MOL0     H 4147  11.411  10.862   6.667 -2.7322 -0.1775  1.7842
  789MOL0     H 4148  11.176  10.936   6.620 -1.5184 -0.6800  1.7834
  790MOL0     O 4149  10.019  10.849   8.907  0.6602 -0.3431  0.6099
  790MOL0     C 4150  10.071  10.926   8.830 -0.2607  0.2697  1.0780
  790MOL0     O 4151  10.005  11.003   8.732  0.5699  0.6742  0.7144
  790MOL0     C 4152   9.867  11.012   8.716 -0.1392 -0.3225 -0.1500
  790MOL0     C 4153   9.770  10.987   8.816 -0.0588 -0.7853  0.2494
  790MOL0     C 4154   9.636  11.017   8.793 -1.1104  0.6790  0.3195
  790MOL0     C 4155   9.594  11.069   8.669  0.4356 -0.5489 -0.0807
  790MOL0     O 4156   9.459  11.099   8.636 -0.1222  0.2911  0.0197
  790MOL0     C 4157   9.356  11.074   8.735  0.1027 -0.5564 -0.2276
  790MOL0     C 4158   9.213  11.100   8.672 -0.0104 -0.0474  0.7265
  790MOL0     C 4159   9.105  11.129   8.762 -0.1954  0.0460  0.8359
  790MOL0     C 4160   9.087  11.039   8.886 -0.2013 -0.0687  0.2296
  790MOL0     C 4161   8.953  11.066   8.950 -0.1489 -0.1165  0.7369
  790MOL0     C 4162   8.843  10.977   8.900 -0.2631 -0.6789 -0.0232
  790MOL0     C 4163   8.820  10.968   8.746 -0.6583 -0.2220  0.4829
  790MOL0     C 4164   8.694  10.889   8.716 -0.5406  0.6954  0.5959
  790MOL0     N 4165   8.580  10.973   8.754  0.3317  0.0434 -0.2682
  790MOL0     C 4166   8.494  10.944   8.857  0.5081  0.5146 -0.3711
  790MOL0     C 4167   8.392  11.038   8.850 -0.5192  0.1195 -0.7763
  790MOL0     C 4168   8.288  11.052   8.970  0.6070  0.1559  0.8413
  790MOL0     C 4169   8.143  11.011   8.951  0.3567 -0.4940 -0.6613
  790MOL0     C 4170   8.082  11.048   8.817 -0.3144  0.6066  0.5572
  790MOL0     C 4171   7.927  11.021   8.811 -0.4293 -1.3199  0.7223
  790MOL0     O 4172   7.870  11.104   8.914 -0.1152  0.3902  0.0325
  790MOL0     C 4173   7.756  11.054   8.978 -0.7544  0.7601  0.0922
  790MOL0     C 4174   7.663  10.967   8.917 -0.7912 -0.3126 -0.1683
  790MOL0     C 4175   7.544  10.946   8.982  0.0312  0.2034  0.0993
  790MOL0     C 4176   7.514  11.005   9.103  0.0626 -0.4103 -0.7305
  790MOL0     C 4177   7.400  10.956   9.185 -0.2124  0.4664 -0.4821
  790MOL0     O 4178   7.285  10.922   9.118  0.3593 -0.2783 -0.1043
  790MOL0     C 4179   7.164  10.881   9.168 -0.3974  0.5220 -0.9270
  790MOL0     C 4180   7.163  10.800   9.283 -0.1186  0.3417  0.4274
  790MOL0     C 4181   7.039  10.754   9.320 -0.6245 -0.5494  0.2461
  790MOL0     C 4182   6.923  10.776   9.245  0.4420  0.3711 -0.3393
  790MOL0     O 4183   6.804  10.737   9.297  0.0859 -0.2414  0.6662
  790MOL0     C 4184   6.706  10.841   9.327 -0.4256 -0.2397  0.2389
  790MOL0     C 4185   6.560  10.804   9.300 -0.3629  0.5280  0.0485
  790MOL0     C 4186   6.530  10.643   9.319 -0.6684 -0.8765  0.8546
  790MOL0     C 4187   6.385  10.615   9.293  0.3095 -0.0442  0.0457
  790MOL0     C 4188   6.334  10.666   9.157 -0.2464 -0.4613 -0.2620
  790MOL0     C 4189   6.187  10.624   9.133  0.2985  0.0019 -0.5918
  790MOL0     C 4190   6.125  10.693   9.013  0.5791 -0.2316  0.2882
  790MOL0     C 4191   5.976  10.680   9.022  0.2472  0.0919  0.4177
  790MOL0    Cl 4192   5.894  10.756   9.157 -0.0342  0.1913  0.1231
  790MOL0     C 4193   6.921  10.859   9.127  0.5459 -0.0939 -0.0460
  790MOL0     C 4194   7.048  10.912   9.089  0.7333 -0.4996 -0.1435
  790MOL0     O 4195   7.411  10.968   9.305 -0.4431  0.1396  1.0474
  790MOL0     C 4196   7.609  11.094   9.155 -0.0440  0.2444  0.3300
  790MOL0     C 4197   7.721  11.126   9.083 -1.1876 -0.5555  0.2354
  790MOL0     N 4198   8.421  11.117   8.733  0.1673  0.3754 -0.7009
  790MOL0     N 4199   8.520  11.074   8.679  0.4545  0.3109 -0.3121
  790MOL0     C 4200   9.687  11.082   8.567 -0.9351 -0.3227 -0.6465
  790MOL0     C 4201   9.820  11.052   8.592 -0.2781  0.0601 -0.5426
  790MOL0     C 4202  10.219  10.955   8.828  0.0321 -0.6109  0.1835
  790MOL0     C 4203  10.305  10.873   8.895  0.6158  0.2480 -0.2166
  790MOL0     C 4204  10.443  10.888   8.888  0.1815  0.2256  0.9711
  790MOL0     C 4205  10.500  10.985   8.805  0.0926  0.7420  0.3096
  790MOL0     O 4206  10.638  11.021   8.786  0.1997  0.4881 -0.5399
  790MOL0     C 4207  10.745  10.931   8.835  1.4318 -0.9475  0.0024
  790MOL0     C 4208  10.874  10.984   8.773 -0.1583 -0.9634 -0.4904
  790MOL0     C 4209  10.902  11.126   8.827 -0.5603  0.2773 -0.0845
  790MOL0     C 4210  11.010  11.176   8.740  0.0460  0.8513 -1.0382
  790MOL0     C 4211  11.048  11.304   8.771 -0.4596 -0.3107  0.3372
  790MOL0     C 4212  11.068  11.424   8.796 -0.1681 -0.5646 -0.3153
  790MOL0     C 4213  10.416  11.068   8.735  0.1844  0.9501 -0.0430
  790MOL0     C 4214  10.278  11.058   8.746 -0.1246 -0.9846  0.6676
  790MOL0     H 4215   9.802  10.966   8.917  2.0995  4.3630  0.9509
  790MOL0     H 4216   9.576  10.988   8.878  0.8620 -0.3067  1.4273
  790MOL0     H 4217   9.379  11.139   8.820 -0.5111 -0.9455  0.2417
  790MOL0     H 4218   9.364  10.973   8.776  1.9266  0.0780  1.1294
  790MOL0     H 4219   9.183  11.020   8.604  0.0057  0.8257 -0.3534
  790MOL0     H 4220   9.224  11.181   8.599  0.7745  0.0552  0.9445
  790MOL0     H 4221   9.007  11.121   8.714  0.1721 -3.5552  0.4098
  790MOL0     H 4222   9.111  11.234   8.794  2.4486  0.2201 -0.0108
  790MOL0     H 4223   9.093  10.937   8.846  2.8946 -1.1711  2.9894
  790MOL0     H 4224   9.171  11.047   8.956  1.9701 -1.0181 -2.0995
  790MOL0     H 4225   8.919  11.167   8.926  0.3552  1.1685  4.7302
  790MOL0     H 4226   8.951  11.056   9.059 -0.1992 -1.6640  0.6093
  790MOL0     H 4227   8.754  11.027   8.941  0.3038  1.2150 -1.0256
  790MOL0     H 4228   8.834  10.877   8.943 -0.3001 -1.8139 -2.4811
  790MOL0     H 4229   8.815  11.070   8.708  0.7567  0.2943  1.5901
  790MOL0     H 4230   8.904  10.913   8.704 -3.1306 -3.4756 -0.7087
  790MOL0     H 4231   8.700  10.794   8.769  0.2676  1.0577  1.1721
  790MOL0     H 4232   8.684  10.883   8.607 -0.8973  0.3382  0.6464
  790MOL0     H 4233   8.522  10.870   8.931 -0.2656 -2.3421 -2.7106
  790MOL0     H 4234   8.288  11.158   8.996 -0.6591  0.8144 -1.5484
  790MOL0     H 4235   8.342  11.000   9.049  3.3062  2.0478  0.3537
  790MOL0     H 4236   8.085  11.059   9.029 -1.9709 -2.7660 -0.8368
  790MOL0     H 4237   8.125  10.903   8.962 -1.3793 -0.0812  0.7835
  790MOL0     H 4238   8.099  11.155   8.801  5.2957  0.0289  0.7914
  790MOL0     H 4239   8.136  10.997   8.737 -1.9049  1.9206 -1.4577
  790MOL0     H 4240   7.908  10.914   8.806  0.3766 -1.4254 -0.5453
  790MOL0     H 4241   7.901  11.062   8.714 -0.3559  1.0334  1.6288
  790MOL0     H 4242   7.697  10.912   8.829  1.0107  0.0970  0.2216
  790MOL0     H 4243   7.472  10.884   8.929  0.5141  1.1168 -1.7287
  790MOL0     H 4244   7.250  10.770   9.340  0.3617 -2.8488 -1.7181
  790MOL0     H 4245   7.038  10.712   9.421  1.1887 -0.2641  0.4175
  790MOL0     H 4246   6.718  10.935   9.271 -0.6205 -0.4253 -0.1152
  790MOL0     H 4247   6.708  10.857   9.435 -3.7146  0.3060  0.3126
  790MOL0     H 4248   6.536  10.837   9.199  1.1472 -3.5919 -1.8914
  790MOL0     H 4249   6.505  10.870   9.369 -0.5808  1.5330 -1.0535
  790MOL0     H 4250   6.543  10.623   9.426 -0.3478 -0.7455  0.8403
  790MOL0     H 4251   6.599  10.574   9.268  4.2438  1.4941  3.5407
  790MOL0     H 4252   6.365  10.508   9.287  1.3235 -0.2034 -0.6607
  790MOL0     H 4253   6.343  10.660   9.384  0.4238 -1.3780  0.7780
  790MOL0     H 4254   6.395  10.638   9.071 -2.0862  1.9110 -2.5226
  790MOL0     H 4255   6.347  10.775   9.155 -0.8314 -0.3959 -0.9366
  790MOL0     H 4256   6.140  10.639   9.231  3.1996 -3.1326  1.4955
  790MOL0     H 4257   6.200  10.517   9.117 -2.3215 -0.2631 -1.3362
  790MOL0     H 4258   6.159  10.797   9.006  1.1538 -0.5342 -1.9009
  790MOL0     H 4259   6.155  10.647   8.919 -0.2520  0.6278 -0.4121
  790MOL0     H 4260   5.965  10.572   9.038 -2.0635  0.5306  2.3173
  790MOL0     H 4261   5.921  10.715   8.934  2.9748  0.6118 -1.2098
  790MOL0     H 4262   6.834  10.890   9.071 -2.0078 -0.3080  3.4780
  790MOL0     H 4263   7.061  10.978   9.004  0.2482  0.5510  0.5903
  790MOL0     H 4264   7.604  11.128   9.258  0.4270 -0.5094  0.6100
  790MOL0     H 4265   7.778  11.207   9.127 -1.0726 -1.8176  2.6282
  790MOL0     H 4266   9.656  11.123   8.472  0.1475  2.7137  0.1872
  790MOL0     H 4267   9.900  11.089   8.529  3.0157  1.8388  4.1228
  790MOL0     H 4268  10.257  10.796   8.954 -3.9942  2.6058 -0.4456
  790MOL0     H 4269  10.513  10.817   8.932  3.0943  0.4062 -2.8251
  790MOL0     H 4270  10.738  10.826   8.808  0.1918 -0.5442 -1.3788
  790MOL0     H 4271  10.749  10.939   8.945 -1.1633  2.7779  0.0429
  790MOL0     H 4272  10.948  10.921   8.823 -0.0995  0.0572  0.7514
  790MOL0     H 4273  10.863  10.983   8.664  1.1835 -0.0729 -0.6540
  790MOL0     H 4274  10.930  11.114   8.933  2.7625 -2.0097 -1.0559
  790MOL0     H 4275  10.819  11.197   8.823 -0.7268  0.2404  1.7569
  790MOL0     H 4276  11.097  11.110   8.733 -1.3574 -1.1618 -0.5327
  790MOL0     H 4277  10.972  11.184   8.638 -2.0384 -0.4364 -0.4232
  790MOL0     H 4278  11.059  11.529   8.812 -1.7132 -0.7767  0.3055
  790MOL0     H 4279  10.459  11.150   8.678  0.3813  2.1799  1.7647
  790MOL0     H 4280  10.215  11.123   8.686  1.3565 -0.6360 -0.5478
  791MOL0     O 4281   0.902   8.108   2.980 -0.2396  0.0216 -0.5087
  791MOL0     C 4282   0.944   8.062   3.088 -0.3537 -0.4988  0.3890
  791MOL0     O 4283   1.070   8.091   3.143  0.5319 -0.1886  0.2449
  791MOL0     C 4284   1.156   8.154   3.060  0.1520 -0.3621 -0.4974
  791MOL0     C 4285   1.139   8.291   3.035 -0.9169 -0.3016  0.4565
  791MOL0     C 4286   1.226   8.371   2.959  0.1223  0.1421  0.9704
  791MOL0     C 4287   1.337   8.313   2.896 -0.2453 -0.9098  0.2422
  791MOL0     O 4288   1.417   8.380   2.807 -0.3454 -0.3812  0.5006
  791MOL0     C 4289   1.343   8.464   2.718  0.8487 -0.2820  0.1401
  791MOL0     C 4290   1.429   8.495   2.591 -0.0498  0.3312 -0.3876
  791MOL0     C 4291   1.516   8.620   2.603  0.2589  0.2016 -0.2016
  791MOL0     C 4292   1.622   8.627   2.491  0.2792 -0.0284  0.2572
  791MOL0     C 4293   1.695   8.763   2.485  0.1452 -0.0804  0.3399
  791MOL0     C 4294   1.815   8.763   2.580  0.3443  0.5912 -0.5086
  791MOL0     C 4295   1.895   8.898   2.556  0.3349  0.6330 -0.6270
  791MOL0     C 4296   1.822   9.027   2.590 -0.4242  0.1239  0.3477
  791MOL0     N 4297   1.779   9.029   2.735  0.0653 -0.2227  0.3918
  791MOL0     C 4298   1.660   8.990   2.783  0.7435 -0.7343 -0.1219
  791MOL0     C 4299   1.679   8.957   2.913 -0.7093 -0.3360 -0.0734
  791MOL0     C 4300   1.576   8.903   3.003  0.5368 -0.0177  0.0735
  791MOL0     C 4301   1.522   8.775   2.941 -0.9540 -0.6704  0.7195
  791MOL0     C 4302   1.407   8.726   3.032  0.2101 -1.2019  0.6577
  791MOL0     C 4303   1.271   8.801   3.023 -0.5646  0.2659  1.4838
  791MOL0     O 4304   1.176   8.713   3.089  0.2523  0.0304  0.3997
  791MOL0     C 4305   1.042   8.733   3.066 -0.2107 -0.6704 -0.6624
  791MOL0     C 4306   0.946   8.641   3.106  0.3147 -0.0652  0.0137
  791MOL0     C 4307   0.810   8.657   3.073 -0.5134  0.0326 -0.2989
  791MOL0     C 4308   0.775   8.780   3.003  0.2680  0.1717  0.5065
  791MOL0     C 4309   0.638   8.789   2.955 -0.3054 -0.7139  0.0870
  791MOL0     O 4310   0.552   8.689   2.974 -0.0967  0.2123  0.0556
  791MOL0     C 4311   0.425   8.706   2.924  0.6675  0.0199 -0.7260
  791MOL0     C 4312   0.313   8.697   3.011  0.4480  0.4652  0.8710
  791MOL0     C 4313   0.184   8.690   2.959 -0.5577  0.3029  0.1975
  791MOL0     C 4314   0.158   8.686   2.821  0.6304 -1.3456  0.5116
  791MOL0     O 4315   0.022   8.667   2.780 -0.1108  0.3139 -0.5020
  791MOL0     C 4316  -0.050   8.787   2.731  0.4755  0.7078 -0.0659
  791MOL0     C 4317  -0.188   8.795   2.792 -0.5276  0.2005 -0.4558
  791MOL0     C 4318  -0.189   8.809   2.958  0.4292 -1.0695  0.2843
  791MOL0     C 4319  -0.122   8.938   3.002  0.5305  0.9296  0.6831
  791MOL0     C 4320  -0.094   8.944   3.149 -0.1813 -0.2228  0.1626
  791MOL0     C 4321   0.018   9.045   3.184  0.7672  0.1630 -0.4882
  791MOL0     C 4322   0.056   9.033   3.332 -0.2431 -0.1053 -0.5533
  791MOL0     C 4323   0.198   8.969   3.348  0.8468  0.6820 -0.1264
  791MOL0    Cl 4324   0.316   9.083   3.263 -0.2316  0.2554  0.0230
  791MOL0     C 4325   0.266   8.699   2.738  0.3119 -0.2794  1.0354
  791MOL0     C 4326   0.393   8.717   2.789  0.1181 -0.0458  0.1763
  791MOL0     O 4327   0.610   8.896   2.901  0.4114  0.1339 -0.1409
  791MOL0     C 4328   0.873   8.871   2.960 -0.3083 -0.7026  0.4916
  791MOL0     C 4329   1.005   8.847   2.998 -0.9494  0.3148  0.5938
  791MOL0     N 4330   1.819   8.982   2.944  0.5001 -0.3525  0.2400
  791MOL0     N 4331   1.872   9.026   2.834  0.2159 -0.4422  0.5105
  791MOL0     C 4332   1.363   8.178   2.933 -0.2933 -0.8383  0.0552
  791MOL0     C 4333   1.277   8.100   3.014  0.6295  0.4415 -0.7551
  791MOL0     C 4334   0.861   7.970   3.160  1.1817 -0.2899 -0.0057
  791MOL0     C 4335   0.895   7.893   3.268  0.4500  0.4161 -0.6248
  791MOL0     C 4336   0.812   7.806   3.336  0.3916 -0.6822 -0.0061
  791MOL0     C 4337   0.689   7.768   3.277 -0.2123  0.6245  0.0742
  791MOL0     O 4338   0.619   7.671   3.336 -0.0570 -0.1248  0.4922
  791MOL0     C 4339   0.494   7.619   3.280 -0.9212 -0.5064  0.3245
  791MOL0     C 4340   0.436   7.519   3.368  0.6338  0.0544  0.1922
  791MOL0     C 4341   0.537   7.412   3.403 -0.8354  0.4278 -1.0870
  791MOL0     C 4342   0.470   7.284   3.458  0.5389  0.1719  0.3431
  791MOL0     C 4343   0.375   7.305   3.568 -1.0307 -0.2542  0.9452
  791MOL0     C 4344   0.291   7.319   3.647 -0.0661 -0.3968 -0.5341
  791MOL0     C 4345   0.653   7.832   3.166 -0.4226 -0.0472  0.5992
  791MOL0     C 4346   0.730   7.935   3.106  0.0322  1.0828  0.1778
  791MOL0     H 4347   1.052   8.338   3.080 -0.6180  0.0845  0.6310
  791MOL0     H 4348   1.190   8.472   2.943  1.3904  0.7998  2.0205
  791MOL0     H 4349   1.315   8.556   2.770 -1.5824  0.1376 -1.7087
  791MOL0     H 4350   1.255   8.407   2.686  0.8212 -0.4670  0.5397
  791MOL0     H 4351   1.378   8.521   2.498  0.6814 -1.3249 -1.3055
  791MOL0     H 4352   1.487   8.409   2.557 -1.2864  0.5277 -3.2405
  791MOL0     H 4353   1.571   8.621   2.698 -0.4298  0.2762  0.2134
  791MOL0     H 4354   1.450   8.707   2.594 -1.1376 -0.9387 -1.5994
  791MOL0     H 4355   1.697   8.550   2.509  2.3575  1.2977 -2.0213
  791MOL0     H 4356   1.580   8.615   2.391 -1.1285  0.1078  0.8138
  791MOL0     H 4357   1.626   8.844   2.511  0.4313  0.5125 -0.6926
  791MOL0     H 4358   1.736   8.780   2.385  1.3490 -0.3937  0.7536
  791MOL0     H 4359   1.879   8.677   2.559  0.2595 -1.0931  4.7281
  791MOL0     H 4360   1.794   8.748   2.686  1.7302  0.4580 -0.2343
  791MOL0     H 4361   1.995   8.899   2.601 -0.5887 -2.0956  1.8616
  791MOL0     H 4362   1.906   8.904   2.448 -2.0229  0.1958 -0.9592
  791MOL0     H 4363   1.736   9.052   2.527  0.2233 -1.2803 -1.1751
  791MOL0     H 4364   1.897   9.101   2.563 -1.9924  0.3200 -4.4916
  791MOL0     H 4365   1.565   8.993   2.730  0.3877 -0.8615  0.4974
  791MOL0     H 4366   1.496   8.978   3.014  0.6273  0.0278  0.4264
  791MOL0     H 4367   1.627   8.892   3.098 -1.4242 -0.0501  1.1775
  791MOL0     H 4368   1.603   8.703   2.932 -2.4135 -2.1178 -3.6333
  791MOL0     H 4369   1.487   8.794   2.839  3.0122 -0.0608 -0.7161
  791MOL0     H 4370   1.380   8.623   3.008 -0.3921 -0.4700 -2.2091
  791MOL0     H 4371   1.438   8.731   3.136  1.4836  0.4790  0.2532
  791MOL0     H 4372   1.242   8.810   2.918 -2.1469 -2.7456  1.5300
  791MOL0     H 4373   1.268   8.892   3.084 -3.5452  1.2410  0.0942
  791MOL0     H 4374   0.983   8.554   3.160 -0.3133 -1.2027 -1.3176
  791MOL0     H 4375   0.739   8.584   3.110  0.7518 -0.6047  0.9755
  791MOL0     H 4376   0.324   8.686   3.119  0.5137  0.3169  0.8482
  791MOL0     H 4377   0.107   8.680   3.035 -1.4866  0.6778 -0.6791
  791MOL0     H 4378  -0.057   8.776   2.622  1.7073 -1.8513  0.0332
  791MOL0     H 4379   0.010   8.878   2.744  0.2563  1.5976 -4.0750
  791MOL0     H 4380  -0.244   8.707   2.760  0.0441 -0.4595  0.3327
  791MOL0     H 4381  -0.230   8.886   2.747  0.5035  1.0975  0.3169
  791MOL0     H 4382  -0.133   8.725   3.002  2.5307 -0.0978 -0.4092
  791MOL0     H 4383  -0.293   8.805   2.993  0.0096  0.7260 -0.6686
  791MOL0     H 4384  -0.024   8.950   2.956  0.0464  1.5726 -0.2189
  791MOL0     H 4385  -0.183   9.022   2.969 -0.1433 -0.1404 -0.9701
  791MOL0     H 4386  -0.051   8.847   3.175  1.2973  0.9453  2.4706
  791MOL0     H 4387  -0.188   8.975   3.197  0.3138 -0.8431  1.6033
  791MOL0     H 4388  -0.011   9.149   3.168 -0.2875 -0.3589 -2.1563
  791MOL0     H 4389   0.100   9.014   3.119 -0.2404 -1.6648 -0.9578
  791MOL0     H 4390   0.075   9.135   3.367 -1.9117  0.2137 -0.4990
  791MOL0     H 4391  -0.022   8.985   3.391  2.1182 -0.7391  2.2604
  791MOL0     H 4392   0.194   8.866   3.310 -0.3289  0.5567  0.2797
  791MOL0     H 4393   0.236   8.973   3.451 -0.1354 -1.5972  0.4062
  791MOL0     H 4394   0.239   8.679   2.635 -3.6001 -0.2937  1.9152
  791MOL0     H 4395   0.471   8.734   2.715 -0.6458 -2.2947 -1.2171
  791MOL0     H 4396   0.841   8.953   2.897  2.5732  0.4940  0.4444
  791MOL0     H 4397   1.083   8.917   2.969 -1.1150  0.6025  0.8469
  791MOL0     H 4398   1.455   8.125   2.907  0.2398 -0.0734  0.3298
  791MOL0     H 4399   1.306   8.000   3.046 -0.8443  0.4288  0.6652
  791MOL0     H 4400   0.997   7.897   3.306 -0.4151  0.9434  1.8728
  791MOL0     H 4401   0.855   7.752   3.420  1.8421 -0.0080 -0.2805
  791MOL0     H 4402   0.529   7.582   3.183 -1.3512  0.0656 -0.0637
  791MOL0     H 4403   0.423   7.701   3.264 -0.7859 -0.1996  1.2691
  791MOL0     H 4404   0.385   7.563   3.453  0.0800 -1.8459  0.9058
  791MOL0     H 4405   0.364   7.483   3.293  2.6311  2.1105 -2.9587
  791MOL0     H 4406   0.611   7.442   3.478 -1.8039  0.0315  0.0553
  791MOL0     H 4407   0.593   7.384   3.314  0.0473 -0.2069 -0.3505
  791MOL0     H 4408   0.410   7.233   3.382  0.5953 -2.2733  1.8435
  791MOL0     H 4409   0.543   7.219   3.506 -0.0597 -1.9449 -1.4326
  791MOL0     H 4410   0.217   7.363   3.712  1.8207 -0.8609  2.0679
  791MOL0     H 4411   0.572   7.793   3.106  2.2780 -2.2570 -1.9627
  791MOL0     H 4412   0.708   7.973   3.007  4.1580 -0.1431 -1.4519
  792MOL0     O 4413  11.121   5.271   1.680 -0.6727  1.1055 -0.9221
  792MOL0     C 4414  11.124   5.369   1.602  0.8350  0.1599 -0.0374
  792MOL0     O 4415  11.021   5.447   1.569  0.2920  0.0835  0.2751
  792MOL0     C 4416  10.899   5.429   1.642 -0.6561  0.1553 -0.2151
  792MOL0     C 4417  10.894   5.435   1.782 -0.4584 -0.2096 -0.5428
  792MOL0     C 4418  10.774   5.396   1.841 -0.0357 -0.8994 -0.0783
  792MOL0     C 4419  10.649   5.366   1.773  0.3195 -0.9575  0.9140
  792MOL0     O 4420  10.529   5.330   1.836 -0.2208 -0.0670 -0.1626
  792MOL0     C 4421  10.444   5.425   1.893  0.4010 -1.1049 -0.9707
  792MOL0     C 4422  10.350   5.485   1.791 -0.7874  0.3811 -0.3365
  792MOL0     C 4423  10.212   5.512   1.841 -0.4099  0.8998 -0.0872
  792MOL0     C 4424  10.138   5.579   1.731  0.1636  0.8286  0.4353
  792MOL0     C 4425  10.005   5.619   1.787 -0.1069  0.1808  0.1137
  792MOL0     C 4426   9.915   5.687   1.679  0.2249 -0.3181  0.1501
  792MOL0     C 4427   9.770   5.669   1.708  0.6521 -0.4157 -0.0772
  792MOL0     C 4428   9.691   5.678   1.580 -0.4927 -0.3928 -0.1421
  792MOL0     N 4429   9.564   5.617   1.560 -0.4674  0.2562 -0.5165
  792MOL0     C 4430   9.442   5.646   1.624 -0.4912  0.6694 -0.2763
  792MOL0     C 4431   9.352   5.578   1.551 -1.2125 -0.0507  0.3460
  792MOL0     C 4432   9.203   5.567   1.544 -0.8109  0.2078 -1.0809
  792MOL0     C 4433   9.134   5.567   1.689  0.4901  0.0548  0.4256
  792MOL0     C 4434   9.103   5.710   1.750  0.0978  0.0771  0.6689
  792MOL0     C 4435   9.069   5.706   1.899 -0.8754  0.2728 -0.1231
  792MOL0     O 4436   8.972   5.598   1.937 -0.3187  0.6043 -0.0819
  792MOL0     C 4437   8.835   5.604   1.920 -0.3434  0.4812  1.4349
  792MOL0     C 4438   8.758   5.491   1.939  0.0944 -0.1166 -0.0797
  792MOL0     C 4439   8.624   5.482   1.895 -0.6354 -1.0530  0.2694
  792MOL0     C 4440   8.567   5.596   1.838  0.5012 -0.5426  0.4165
  792MOL0     C 4441   8.425   5.598   1.813  0.4030  0.6530  0.3112
  792MOL0     O 4442   8.370   5.715   1.768 -0.5455 -0.8264 -0.1477
  792MOL0     C 4443   8.234   5.714   1.751 -0.3924 -0.0474  0.7846
  792MOL0     C 4444   8.176   5.839   1.775  0.9915  0.0356 -0.2674
  792MOL0     C 4445   8.035   5.857   1.760  0.2146 -0.6678 -0.6360
  792MOL0     C 4446   7.955   5.756   1.708  0.2808  0.7651  0.8344
  792MOL0     O 4447   7.819   5.777   1.696 -0.2277 -0.0169 -0.6042
  792MOL0     C 4448   7.739   5.678   1.638 -0.2960  0.3525  0.1581
  792MOL0     C 4449   7.589   5.719   1.626 -0.3109  0.2809  0.0215
  792MOL0     C 4450   7.522   5.733   1.755 -0.4641  0.1760 -0.1582
  792MOL0     C 4451   7.382   5.786   1.733 -0.2887  0.0231  0.8809
  792MOL0     C 4452   7.287   5.683   1.672  0.0466 -0.4367 -0.4741
  792MOL0     C 4453   7.154   5.762   1.651 -0.3052 -0.2432  1.4491
  792MOL0     C 4454   7.058   5.651   1.583  0.6412 -0.7109 -0.3204
  792MOL0     C 4455   7.022   5.540   1.680 -0.0148 -0.4966  0.3386
  792MOL0    Cl 4456   6.909   5.605   1.795  0.1257 -0.3017  0.1346
  792MOL0     C 4457   8.023   5.633   1.668  0.2009 -0.6231 -0.4929
  792MOL0     C 4458   8.159   5.605   1.701 -0.7138 -0.6854  0.1535
  792MOL0     O 4459   8.365   5.501   1.864 -0.0305  0.1793  0.3285
  792MOL0     C 4460   8.641   5.709   1.824  0.2169 -0.1041 -0.1494
  792MOL0     C 4461   8.776   5.714   1.858  0.0137  0.8313  1.5621
  792MOL0     N 4462   9.416   5.521   1.442 -0.8134  0.7067  0.5019
  792MOL0     N 4463   9.543   5.535   1.449  0.4952  0.4498 -0.1703
  792MOL0     C 4464  10.659   5.364   1.635 -0.2503 -0.0821  0.3435
  792MOL0     C 4465  10.781   5.404   1.569 -0.1005 -0.4482  0.2119
  792MOL0     C 4466  11.245   5.383   1.527  0.8748  0.4961  0.5504
  792MOL0     C 4467  11.327   5.287   1.484 -1.0821 -0.1382 -0.6287
  792MOL0     C 4468  11.439   5.314   1.406  0.7497 -0.3380  0.2609
  792MOL0     C 4469  11.488   5.444   1.381  0.7555  0.8756  0.0858
  792MOL0     O 4470  11.606   5.478   1.321 -0.2999  0.3648 -0.5617
  792MOL0     C 4471  11.683   5.379   1.260 -0.8755  0.0647 -0.1886
  792MOL0     C 4472  11.804   5.446   1.213  0.8621 -0.1332  0.1294
  792MOL0     C 4473  11.914   5.350   1.152 -0.4097 -0.2374  0.4933
  792MOL0     C 4474  11.887   5.317   1.006 -0.4023  0.1390 -0.5317
  792MOL0     C 4475  12.000   5.225   0.964 -0.3995 -0.4127  0.5751
  792MOL0     C 4476  12.090   5.166   0.914 -0.2798 -0.1464  0.2990
  792MOL0     C 4477  11.398   5.539   1.419  0.7476 -0.3454  0.2343
  792MOL0     C 4478  11.283   5.514   1.502 -1.0713 -0.7819 -0.7072
  792MOL0     H 4479  10.983   5.452   1.842 -0.9211  2.1437 -0.3971
  792MOL0     H 4480  10.769   5.390   1.949  2.6496  0.1749  0.1671
  792MOL0     H 4481  10.501   5.506   1.940 -2.2500 -0.0246  0.5858
  792MOL0     H 4482  10.378   5.384   1.970  1.0311 -0.1790  0.1158
  792MOL0     H 4483  10.346   5.413   1.709 -3.2139  0.9130 -0.7680
  792MOL0     H 4484  10.393   5.580   1.759  1.4706 -0.7812 -0.9222
  792MOL0     H 4485  10.228   5.594   1.912  4.9192  1.9208 -1.9351
  792MOL0     H 4486  10.163   5.424   1.883  0.8777 -0.6947 -1.6887
  792MOL0     H 4487  10.201   5.663   1.698 -1.2671  1.7627 -0.0074
  792MOL0     H 4488  10.120   5.513   1.645 -2.5122 -0.3288  1.7925
  792MOL0     H 4489  10.014   5.689   1.872 -1.1376  0.5679 -0.0791
  792MOL0     H 4490   9.956   5.534   1.835  3.0168 -1.0727  1.3492
  792MOL0     H 4491   9.949   5.641   1.586 -1.3449  1.0532 -1.1761
  792MOL0     H 4492   9.940   5.791   1.660 -1.2221 -0.1716 -1.0910
  792MOL0     H 4493   9.748   5.569   1.747 -0.4750  0.9501  3.1943
  792MOL0     H 4494   9.728   5.733   1.787 -0.0138 -1.0988  0.1366
  792MOL0     H 4495   9.754   5.624   1.509 -1.2886 -0.6422 -0.6793
  792MOL0     H 4496   9.676   5.782   1.550  2.3190  0.4292  0.9581
  792MOL0     H 4497   9.430   5.690   1.722 -1.2958 -1.5137  0.6672
  792MOL0     H 4498   9.165   5.474   1.502  0.6691 -0.7827 -0.3228
  792MOL0     H 4499   9.187   5.654   1.481  2.6317  1.2764 -0.6951
  792MOL0     H 4500   9.189   5.494   1.748  0.6824 -0.5129 -0.4301
  792MOL0     H 4501   9.036   5.522   1.670  0.5336 -0.2862  0.9863
  792MOL0     H 4502   9.197   5.766   1.751 -0.4871  1.0926  0.1460
  792MOL0     H 4503   9.018   5.755   1.698  0.5416  0.7694  0.5348
  792MOL0     H 4504   9.026   5.805   1.918  2.2677  1.5691  0.8898
  792MOL0     H 4505   9.163   5.694   1.955 -0.8578  0.8960 -0.0098
  792MOL0     H 4506   8.799   5.401   1.983  1.5655  0.5572 -0.0249
  792MOL0     H 4507   8.565   5.392   1.906 -1.0205 -1.0410 -1.4723
  792MOL0     H 4508   8.236   5.922   1.810  0.6126 -0.5643  2.0204
  792MOL0     H 4509   7.984   5.946   1.797  0.1416  0.0388 -2.3264
  792MOL0     H 4510   7.743   5.585   1.696  1.6780  0.2767 -0.0264
  792MOL0     H 4511   7.787   5.666   1.541  1.8284  0.8651  1.0857
  792MOL0     H 4512   7.540   5.650   1.556  1.5342 -0.9927 -0.0758
  792MOL0     H 4513   7.591   5.817   1.579  1.5508  0.4120  0.2887
  792MOL0     H 4514   7.567   5.797   1.831  0.2615 -1.5312  0.8970
  792MOL0     H 4515   7.524   5.637   1.808 -2.5411  0.2931  0.1955
  792MOL0     H 4516   7.335   5.826   1.824 -4.4557  2.1730 -1.9050
  792MOL0     H 4517   7.392   5.876   1.671 -0.3439  1.0797  2.3420
  792MOL0     H 4518   7.269   5.600   1.741 -0.9443  0.3325  0.2250
  792MOL0     H 4519   7.327   5.639   1.580 -5.8243 -0.9386 -3.3047
  792MOL0     H 4520   7.163   5.847   1.584 -1.0388  1.3524  3.2707
  792MOL0     H 4521   7.098   5.796   1.739 -2.6147  1.9507 -0.7170
  792MOL0     H 4522   6.965   5.699   1.550  0.2190  2.3716  4.3804
  792MOL0     H 4523   7.101   5.600   1.496  2.5164 -0.6299  0.5057
  792MOL0     H 4524   7.094   5.491   1.746 -1.9680  0.2964  3.2500
  792MOL0     H 4525   6.967   5.471   1.615  3.9167 -4.2356  0.4893
  792MOL0     H 4526   7.962   5.561   1.614 -1.2774 -0.2151  0.5702
  792MOL0     H 4527   8.209   5.519   1.658  0.4544  1.1647 -2.4771
  792MOL0     H 4528   8.604   5.798   1.773 -1.8166 -0.8486 -0.0707
  792MOL0     H 4529   8.826   5.807   1.836  2.6386 -0.8575 -0.1769
  792MOL0     H 4530  10.579   5.333   1.570  2.4422 -0.5526 -3.0640
  792MOL0     H 4531  10.784   5.411   1.461  0.6666  0.4219  0.2760
  792MOL0     H 4532  11.310   5.182   1.506  1.9707 -0.2991  1.6623
  792MOL0     H 4533  11.491   5.222   1.384 -3.2246 -2.3019 -1.8875
  792MOL0     H 4534  11.636   5.331   1.173 -0.3142 -1.0152  0.0770
  792MOL0     H 4535  11.705   5.304   1.338 -0.6092  1.2244  0.8827
  792MOL0     H 4536  11.785   5.528   1.143 -0.3068  2.1954  2.9273
  792MOL0     H 4537  11.852   5.495   1.299 -0.8971 -1.2841  1.8603
  792MOL0     H 4538  11.926   5.262   1.216 -0.3372  1.6885  3.3209
  792MOL0     H 4539  12.010   5.401   1.141 -0.2653  0.2054  3.1483
  792MOL0     H 4540  11.791   5.264   0.995 -0.8942  0.9214 -0.1112
  792MOL0     H 4541  11.873   5.401   0.938  0.1686  0.3339 -0.4117
  792MOL0     H 4542  12.160   5.101   0.865 -0.6080  0.2071 -0.6662
  792MOL0     H 4543  11.423   5.643   1.400 -1.4087 -0.0958 -1.6883
  792MOL0     H 4544  11.234   5.601   1.543 -1.9316 -2.1075  1.2585
  793MOL0     O 4545   2.879   2.439  10.184 -0.5316  0.2851  0.3730
  793MOL0     C 4546   2.943   2.459  10.286 -0.4585  0.5716 -0.8086
  793MOL0     O 4547   2.892   2.445  10.414 -0.0340 -0.5004 -0.2149
  793MOL0     C 4548   2.757   2.467  10.425 -0.1606  0.1964  0.7375
  793MOL0     C 4549   2.674   2.352  10.408  0.5566 -0.4640  0.9239
  793MOL0     C 4550   2.534   2.366  10.406  0.4970 -0.0383  0.0365
  793MOL0     C 4551   2.473   2.491  10.421  0.0757 -0.6610 -0.6142
  793MOL0     O 4552   2.340   2.507  10.426 -0.0982 -0.1857  0.3498
  793MOL0     C 4553   2.265   2.423  10.337 -0.3762 -0.3276  0.2525
  793MOL0     C 4554   2.118   2.444  10.365  0.6578 -0.6277 -0.3988
  793MOL0     C 4555   2.020   2.377  10.283  0.8959  0.2362 -0.5050
  793MOL0     C 4556   1.878   2.442  10.302 -0.2673  0.0254 -0.2390
  793MOL0     C 4557   1.771   2.345  10.251  0.5355  0.2675 -0.4411
  793MOL0     C 4558   1.771   2.331  10.098 -0.3365 -0.0113 -0.5088
  793MOL0     C 4559   1.658   2.255  10.042  0.1279  0.2627  0.4999
  793MOL0     C 4560   1.532   2.341  10.044 -0.1762  0.7328 -0.3165
  793MOL0     N 4561   1.538   2.436   9.931 -0.0011  0.8159 -0.0306
  793MOL0     C 4562   1.566   2.568   9.948  0.4621 -0.0751 -0.0877
  793MOL0     C 4563   1.537   2.622   9.821  0.7951 -0.5233 -0.8389
  793MOL0     C 4564   1.534   2.774   9.788  0.4173 -0.8361  0.7886
  793MOL0     C 4565   1.652   2.809   9.702 -0.5305 -0.9113  0.3899
  793MOL0     C 4566   1.789   2.791   9.761  0.2230  0.0627  0.6783
  793MOL0     C 4567   1.911   2.803   9.661 -0.4561  0.0780 -0.0998
  793MOL0     O 4568   2.026   2.793   9.751  0.1640 -0.6635  0.1348
  793MOL0     C 4569   2.142   2.837   9.690 -0.0139 -1.3308 -0.2570
  793MOL0     C 4570   2.180   2.809   9.554  0.6448 -0.1546 -1.0308
  793MOL0     C 4571   2.306   2.842   9.503  0.7070  0.9147  0.2019
  793MOL0     C 4572   2.394   2.912   9.587 -0.7308  0.8872  0.2984
  793MOL0     C 4573   2.525   2.946   9.532 -0.1849 -0.3482  0.2269
  793MOL0     O 4574   2.583   3.066   9.578 -0.3821  0.0648  0.9717
  793MOL0     C 4575   2.713   3.086   9.542  0.2988  1.7711 -0.8696
  793MOL0     C 4576   2.816   2.986   9.557  0.0919  0.7507  0.0870
  793MOL0     C 4577   2.946   3.008   9.539 -0.1906 -0.3726  0.2832
  793MOL0     C 4578   2.994   3.135   9.508  0.2768  0.3587 -0.0554
  793MOL0     O 4579   3.123   3.172   9.505 -0.4046 -0.3737  0.1563
  793MOL0     C 4580   3.228   3.084   9.459 -0.4770  0.4520 -0.0843
  793MOL0     C 4581   3.197   3.032   9.313  0.3617 -0.6001  0.3267
  793MOL0     C 4582   3.297   2.938   9.253  0.0959  0.1857  0.2945
  793MOL0     C 4583   3.260   2.883   9.110 -0.0305 -0.0543  0.8817
  793MOL0     C 4584   3.213   2.741   9.099 -0.0692 -1.1929  0.1535
  793MOL0     C 4585   3.060   2.716   9.112  0.3368 -0.5594  0.3788
  793MOL0     C 4586   2.964   2.795   9.017  0.0711 -0.0971 -0.3506
  793MOL0     C 4587   2.829   2.733   9.002  0.4536 -0.3777  0.5467
  793MOL0    Cl 4588   2.777   2.752   8.841 -0.5360  0.5966  0.1075
  793MOL0     C 4589   2.897   3.231   9.501 -0.2289 -0.7802  1.3233
  793MOL0     C 4590   2.764   3.209   9.536 -0.1423 -0.9437  0.4260
  793MOL0     O 4591   2.572   2.864   9.456  0.4148 -0.9002 -0.1636
  793MOL0     C 4592   2.365   2.946   9.720 -0.7507  0.8086  0.2242
  793MOL0     C 4593   2.239   2.903   9.767 -0.0548  0.2489  0.5482
  793MOL0     N 4594   1.530   2.522   9.734  0.2552 -0.1720 -0.0789
  793MOL0     N 4595   1.515   2.411   9.801 -0.3321  0.0279 -0.4849
  793MOL0     C 4596   2.556   2.605  10.444  0.0901 -0.2784 -0.4103
  793MOL0     C 4597   2.697   2.592  10.447 -0.4046  0.6474 -1.2128
  793MOL0     C 4598   3.080   2.487  10.270  0.4225 -0.2629  0.3292
  793MOL0     C 4599   3.163   2.505  10.382  0.8547  0.2673  0.6975
  793MOL0     C 4600   3.300   2.546  10.373  0.3441  0.5195  0.7087
  793MOL0     C 4601   3.353   2.569  10.250  1.0538 -0.6517  0.7912
  793MOL0     O 4602   3.476   2.615  10.237  1.2232  0.0260 -0.2666
  793MOL0     C 4603   3.569   2.518  10.272 -0.2657  0.5240  0.2263
  793MOL0     C 4604   3.709   2.576  10.250  0.1508 -0.5026  0.6160
  793MOL0     C 4605   3.831   2.475  10.263 -0.4362 -0.3522  0.8684
  793MOL0     C 4606   3.961   2.554  10.301  0.2770 -0.4295  0.8194
  793MOL0     C 4607   3.994   2.649  10.194  1.0998  0.3087  0.0373
  793MOL0     C 4608   4.013   2.756  10.134 -0.2699  0.4764  0.7060
  793MOL0     C 4609   3.273   2.545  10.132 -0.2840  0.4502  0.5179
  793MOL0     C 4610   3.138   2.503  10.137  1.0066  0.5264  0.4357
  793MOL0     H 4611   2.714   2.252  10.391  3.1356  0.7593 -0.8045
  793MOL0     H 4612   2.490   2.267  10.403  2.1255 -0.9560  2.4688
  793MOL0     H 4613   2.276   2.314  10.335 -1.6440 -0.4880 -2.0351
  793MOL0     H 4614   2.302   2.453  10.238 -0.5738 -0.7370  0.0518
  793MOL0     H 4615   2.098   2.551  10.369 -0.5674 -0.8530  0.0178
  793MOL0     H 4616   2.096   2.405  10.465 -0.0675 -3.7671 -1.6547
  793MOL0     H 4617   2.029   2.272  10.312 -2.5427  0.4844  2.2522
  793MOL0     H 4618   2.050   2.384  10.178  3.2466 -2.8214 -0.1870
  793MOL0     H 4619   1.856   2.465  10.406  2.1248 -0.0951  0.3545
  793MOL0     H 4620   1.884   2.537  10.246  1.5704  0.2059  0.1900
  793MOL0     H 4621   1.669   2.364  10.285  0.4943 -1.2253  0.3691
  793MOL0     H 4622   1.790   2.245  10.291 -3.8099  0.1925  1.9637
  793MOL0     H 4623   1.861   2.280  10.063 -0.4831 -0.7161  0.1204
  793MOL0     H 4624   1.770   2.429  10.049 -0.6781  0.6153  0.7357
  793MOL0     H 4625   1.685   2.219   9.943  1.0126  0.3854  0.6955
  793MOL0     H 4626   1.645   2.168  10.107  2.0834 -0.4927 -0.0644
  793MOL0     H 4627   1.507   2.388  10.139  2.1013  1.9738 -0.2698
  793MOL0     H 4628   1.451   2.267  10.042  0.3235  0.1809 -0.4098
  793MOL0     H 4629   1.588   2.627  10.036  1.1568 -0.3734 -0.0550
  793MOL0     H 4630   1.538   2.843   9.873 -1.6269 -0.3857  0.5649
  793MOL0     H 4631   1.444   2.804   9.733  0.2273 -0.2033  1.4311
  793MOL0     H 4632   1.634   2.913   9.674 -0.3604 -1.1461 -0.6236
  793MOL0     H 4633   1.650   2.749   9.611 -0.4166 -1.0767  0.4966
  793MOL0     H 4634   1.813   2.876   9.826  2.4424  0.5690 -0.6812
  793MOL0     H 4635   1.796   2.692   9.807 -2.2669  0.4532  2.0697
  793MOL0     H 4636   1.906   2.891   9.597  0.4298 -0.6314 -1.1808
  793MOL0     H 4637   1.904   2.717   9.593 -0.4209 -0.0053  0.0013
  793MOL0     H 4638   2.112   2.759   9.486 -0.6289 -0.5362  0.4670
  793MOL0     H 4639   2.341   2.816   9.404 -2.6195  1.7046 -1.3329
  793MOL0     H 4640   2.785   2.888   9.593 -2.8899  1.2517 -0.8386
  793MOL0     H 4641   3.012   2.923   9.553 -1.0927 -1.3400 -1.1222
  793MOL0     H 4642   3.242   2.997   9.524  2.1641 -1.9373 -3.4864
  793MOL0     H 4643   3.323   3.137   9.458  0.4612 -1.0667  1.9313
  793MOL0     H 4644   3.183   3.108   9.236 -1.7385 -1.6595 -0.4213
  793MOL0     H 4645   3.103   2.977   9.324  0.3783 -0.2572  2.6183
  793MOL0     H 4646   3.312   2.861   9.329 -0.3426  2.0201  2.3500
  793MOL0     H 4647   3.396   2.982   9.240  0.5776 -0.7717  0.6227
  793MOL0     H 4648   3.201   2.949   9.046  0.3078  0.1777  0.8059
  793MOL0     H 4649   3.355   2.889   9.056  0.8439  1.6540  2.4979
  793MOL0     H 4650   3.278   2.678   9.161 -0.8033 -0.5999  1.5784
  793MOL0     H 4651   3.228   2.706   8.996 -2.3524 -1.7105 -0.0721
  793MOL0     H 4652   3.033   2.737   9.216 -1.3902 -3.2671  0.5733
  793MOL0     H 4653   3.063   2.608   9.094 -1.0145 -0.4346 -0.8501
  793MOL0     H 4654   2.948   2.899   9.048 -4.5025 -1.1173  1.4617
  793MOL0     H 4655   3.009   2.787   8.918 -0.7963  2.2810 -0.9932
  793MOL0     H 4656   2.752   2.785   9.061  2.1944  1.7076  1.1180
  793MOL0     H 4657   2.813   2.629   9.031  1.8206 -0.1364  2.2884
  793MOL0     H 4658   2.939   3.330   9.488 -1.4502 -0.4874 -0.7656
  793MOL0     H 4659   2.700   3.297   9.533  0.6019 -0.4102 -0.5707
  793MOL0     H 4660   2.444   2.985   9.783 -0.0827  0.6012 -0.4677
  793MOL0     H 4661   2.224   2.919   9.873  2.6498  1.2485  0.8520
  793MOL0     H 4662   2.518   2.704  10.464 -0.0197 -0.0310 -1.7449
  793MOL0     H 4663   2.753   2.674  10.492 -0.7891 -0.1501  0.8229
  793MOL0     H 4664   3.126   2.485  10.482 -2.0148  0.1932 -0.2862
  793MOL0     H 4665   3.349   2.576  10.465 -2.1907  3.4827  1.2775
  793MOL0     H 4666   3.551   2.422  10.222 -0.1406 -0.6981  2.3777
  793MOL0     H 4667   3.577   2.499  10.380  3.2869 -0.0666 -0.0152
  793MOL0     H 4668   3.711   2.631  10.155 -2.6077  0.1541  0.8722
  793MOL0     H 4669   3.722   2.644  10.334 -0.1052 -0.1382  0.3663
  793MOL0     H 4670   3.841   2.421  10.168  1.4798  0.3842  0.6115
  793MOL0     H 4671   3.819   2.412  10.351 -3.2906  2.4242  2.6818
  793MOL0     H 4672   3.952   2.602  10.399 -2.4358  0.1730  0.3376
  793MOL0     H 4673   4.040   2.478  10.305  0.0578 -0.6607  0.7732
  793MOL0     H 4674   4.001   2.845  10.076 -1.3998 -0.4333 -0.5204
  793MOL0     H 4675   3.313   2.569  10.035  1.1043 -2.7880  0.1532
  793MOL0     H 4676   3.084   2.490  10.044 -1.1289 -0.2031  1.7183
  794MOL0     O 4677   8.702   0.555   3.699 -0.2537 -0.3765 -0.1769
  794MOL0     C 4678   8.652   0.665   3.672 -1.1267  0.2924  0.6567
  794MOL0     O 4679   8.726   0.770   3.627  0.3292 -0.1659 -0.0426
  794MOL0     C 4680   8.861   0.750   3.598  0.7978  1.0336  0.5092
  794MOL0     C 4681   8.893   0.654   3.502  0.2046  0.3351  0.4524
  794MOL0     C 4682   9.034   0.624   3.466  0.1847 -0.1880 -0.7039
  794MOL0     C 4683   9.131   0.705   3.519 -0.0841 -0.2118 -0.3661
  794MOL0     O 4684   9.258   0.677   3.475 -0.0576  0.7705  0.2555
  794MOL0     C 4685   9.355   0.652   3.574 -1.0326 -0.4042 -1.4376
  794MOL0     C 4686   9.471   0.765   3.571 -0.7549 -0.7992 -0.7518
  794MOL0     C 4687   9.551   0.753   3.443 -0.3678  0.6069 -0.2866
  794MOL0     C 4688   9.641   0.876   3.434  0.4124 -1.0174  0.6470
  794MOL0     C 4689   9.725   0.854   3.306  0.1041  0.1946 -0.0930
  794MOL0     C 4690   9.805   0.988   3.255  0.3722  0.2497  0.5217
  794MOL0     C 4691   9.911   0.947   3.147  0.0478 -0.4945 -0.3615
  794MOL0     C 4692   9.988   1.071   3.100  0.2136 -0.6800  0.0560
  794MOL0     N 4693  10.067   1.033   2.977  0.0021 -0.1388  0.4212
  794MOL0     C 4694  10.177   0.948   2.971 -0.0639 -0.3474  0.2490
  794MOL0     C 4695  10.177   0.908   2.841 -1.1759  0.7806 -0.5030
  794MOL0     C 4696  10.272   0.804   2.780 -0.8844  0.3762  0.3079
  794MOL0     C 4697  10.193   0.667   2.775 -0.7516 -0.2854  0.2175
  794MOL0     C 4698  10.250   0.563   2.675 -0.0776  0.7796  0.2968
  794MOL0     C 4699  10.168   0.439   2.682  1.0715  0.0210 -0.2073
  794MOL0     O 4700  10.200   0.359   2.798  1.2354  0.2647  0.4500
  794MOL0     C 4701  10.098   0.282   2.851 -0.3347 -0.0085 -0.1285
  794MOL0     C 4702  10.127   0.226   2.972  0.1284  0.2915 -0.1214
  794MOL0     C 4703  10.032   0.138   3.033  0.1279  0.9772  0.5162
  794MOL0     C 4704   9.904   0.114   2.977  0.0598 -0.4254  0.3280
  794MOL0     C 4705   9.814   0.027   3.034  1.0355 -0.3346 -0.0605
  794MOL0     O 4706   9.717  -0.028   2.954 -0.5042  0.0787 -0.1251
  794MOL0     C 4707   9.646  -0.139   3.005 -0.0192  0.4235 -0.3614
  794MOL0     C 4708   9.706  -0.245   3.071  0.5382  0.2246  0.0432
  794MOL0     C 4709   9.633  -0.359   3.092 -0.0715  0.1066  0.1595
  794MOL0     C 4710   9.500  -0.362   3.059  0.2902 -0.7490  0.8668
  794MOL0     O 4711   9.441  -0.480   3.087 -0.2716  0.0779  0.6220
  794MOL0     C 4712   9.324  -0.493   3.167 -0.4952 -0.5498 -0.0464
  794MOL0     C 4713   9.276  -0.638   3.165 -0.3784 -0.2799 -0.7654
  794MOL0     C 4714   9.148  -0.658   3.252 -0.4373 -0.0920 -0.6947
  794MOL0     C 4715   9.143  -0.803   3.294  0.2507 -0.3895  0.5436
  794MOL0     C 4716   9.009  -0.842   3.362 -0.0163  0.0818  0.4052
  794MOL0     C 4717   8.899  -0.899   3.275 -0.1369 -0.2619 -0.5165
  794MOL0     C 4718   8.783  -0.949   3.353 -0.3870 -0.7943 -0.6424
  794MOL0     C 4719   8.824  -1.068   3.449  0.2008  0.0589  1.0982
  794MOL0    Cl 4720   8.700  -1.190   3.470 -0.0519 -0.8531  0.1218
  794MOL0     C 4721   9.440  -0.266   2.985  0.2680  0.4597 -0.9434
  794MOL0     C 4722   9.521  -0.150   2.955  0.2355  0.5653 -0.3468
  794MOL0     O 4723   9.833   0.002   3.149  0.4008  0.3377 -0.0895
  794MOL0     C 4724   9.878   0.175   2.854 -0.1888 -0.5305 -0.0071
  794MOL0     C 4725   9.971   0.256   2.791 -0.3517 -0.0293  0.1724
  794MOL0     N 4726  10.086   0.980   2.770  0.4476  0.0512 -0.4706
  794MOL0     N 4727  10.015   1.043   2.850 -0.1500 -0.7313  0.4112
  794MOL0     C 4728   9.101   0.808   3.605  0.4147  0.4215 -0.5870
  794MOL0     C 4729   8.967   0.828   3.650 -0.0220 -0.5993  0.1320
  794MOL0     C 4730   8.506   0.669   3.659  0.3209 -0.7427 -0.1361
  794MOL0     C 4731   8.450   0.799   3.652  0.2179 -0.0564 -0.0102
  794MOL0     C 4732   8.310   0.804   3.633  0.9051 -0.1246 -1.3774
  794MOL0     C 4733   8.231   0.695   3.616 -1.0241  0.5136  0.2420
  794MOL0     O 4734   8.101   0.722   3.580 -0.4032 -0.5795  0.4683
  794MOL0     C 4735   8.000   0.622   3.579  0.7716  0.1632  0.1021
  794MOL0     C 4736   7.883   0.652   3.490  0.4941  0.4261 -0.0349
  794MOL0     C 4737   7.800   0.793   3.526 -0.3620  0.3359 -0.0986
  794MOL0     C 4738   7.718   0.778   3.657 -0.2817 -0.1572  0.1711
  794MOL0     C 4739   7.634   0.659   3.667 -0.0932  0.0061  0.6426
  794MOL0     C 4740   7.577   0.554   3.680 -0.0359  0.7457 -0.6185
  794MOL0     C 4741   8.296   0.569   3.617 -0.1161 -0.3592 -0.2521
  794MOL0     C 4742   8.429   0.551   3.645 -0.5004 -0.6026  0.3151
  794MOL0     H 4743   8.822   0.578   3.471  2.8092 -2.3493  0.5693
  794MOL0     H 4744   9.051   0.534   3.408 -1.1761  0.5786 -2.3922
  794MOL0     H 4745   9.400   0.555   3.548  3.0414  1.3435 -1.6329
  794MOL0     H 4746   9.325   0.649   3.679  5.0227 -0.1999  0.7052
  794MOL0     H 4747   9.538   0.751   3.656 -2.0324 -0.8624  0.2750
  794MOL0     H 4748   9.419   0.861   3.576  1.4041  0.4034 -0.6171
  794MOL0     H 4749   9.491   0.742   3.353  0.0574  0.4625 -0.5539
  794MOL0     H 4750   9.615   0.665   3.452 -0.5295  0.4257 -0.8894
  794MOL0     H 4751   9.590   0.973   3.422  3.5939  0.7354  0.0386
  794MOL0     H 4752   9.703   0.878   3.524  0.3086 -1.3427  0.7274
  794MOL0     H 4753   9.661   0.813   3.227 -0.4328  2.0053 -0.6558
  794MOL0     H 4754   9.806   0.783   3.322  0.1811 -0.1272 -1.7220
  794MOL0     H 4755   9.857   1.051   3.328  2.4046 -2.0802  1.2578
  794MOL0     H 4756   9.732   1.049   3.202 -1.0427 -1.6166  0.2269
  794MOL0     H 4757   9.983   0.878   3.193  2.7583  0.8876 -2.2663
  794MOL0     H 4758   9.856   0.897   3.067 -2.6891 -0.7368  1.5196
  794MOL0     H 4759  10.033   1.118   3.188  0.2341  0.5275 -0.5767
  794MOL0     H 4760   9.911   1.144   3.071 -0.9031 -1.8835 -0.0769
  794MOL0     H 4761  10.222   0.905   3.061 -1.0127  0.1867  0.9950
  794MOL0     H 4762  10.369   0.796   2.829 -0.3303 -2.8007 -0.9956
  794MOL0     H 4763  10.303   0.833   2.679 -2.1620 -2.6470 -1.0876
  794MOL0     H 4764  10.087   0.688   2.763 -0.7366 -0.8522 -1.0540
  794MOL0     H 4765  10.207   0.622   2.874 -1.1140 -1.6506 -0.3326
  794MOL0     H 4766  10.262   0.605   2.575  1.1275  1.9598  0.9029
  794MOL0     H 4767  10.349   0.533   2.712  0.7221  0.8887 -1.6268
  794MOL0     H 4768  10.210   0.385   2.596  0.2922  1.1184 -1.3103
  794MOL0     H 4769  10.065   0.475   2.675  1.5560  2.7691  3.7493
  794MOL0     H 4770  10.215   0.247   3.031 -0.8197 -0.5377  1.6434
  794MOL0     H 4771  10.060   0.079   3.120 -2.2245  1.1513  1.4562
  794MOL0     H 4772   9.811  -0.235   3.099 -0.0256  0.3243  2.2886
  794MOL0     H 4773   9.669  -0.441   3.153  1.7430 -1.0260 -2.2387
  794MOL0     H 4774   9.246  -0.422   3.138 -2.8910 -2.9792  0.0440
  794MOL0     H 4775   9.359  -0.474   3.269  1.0443 -1.7546 -0.3212
  794MOL0     H 4776   9.356  -0.702   3.202 -0.0815  2.0509  3.1670
  794MOL0     H 4777   9.246  -0.659   3.062  0.4208  2.7345 -1.7231
  794MOL0     H 4778   9.057  -0.626   3.200 -1.2959 -1.1171  0.1273
  794MOL0     H 4779   9.145  -0.597   3.342  1.2921  1.0335 -1.3547
  794MOL0     H 4780   9.161  -0.867   3.207 -0.3531 -0.4316  0.4460
  794MOL0     H 4781   9.224  -0.832   3.361  1.4455  1.6967  0.1101
  794MOL0     H 4782   8.973  -0.765   3.431 -1.2745 -0.0856 -0.0545
  794MOL0     H 4783   9.047  -0.931   3.413 -3.7963 -1.3792  0.9553
  794MOL0     H 4784   8.946  -0.977   3.215  2.4701  2.1447 -1.8246
  794MOL0     H 4785   8.865  -0.824   3.203 -1.5111 -2.8139 -2.6921
  794MOL0     H 4786   8.744  -0.871   3.418  1.6151 -2.4058  2.8156
  794MOL0     H 4787   8.709  -0.989   3.284 -0.5301 -4.3947  1.3537
  794MOL0     H 4788   8.851  -1.034   3.550  0.8934  1.1683  0.5708
  794MOL0     H 4789   8.913  -1.110   3.401  0.7263  1.3303  0.8982
  794MOL0     H 4790   9.339  -0.268   2.946 -0.2620 -1.5086  0.3927
  794MOL0     H 4791   9.474  -0.080   2.887  0.2924  1.3525  0.4098
  794MOL0     H 4792   9.794   0.157   2.787 -0.0713 -0.7600 -0.0922
  794MOL0     H 4793   9.952   0.288   2.689  2.3529  0.7635 -0.1600
  794MOL0     H 4794   9.179   0.856   3.663  3.4075 -2.6408 -1.7534
  794MOL0     H 4795   8.952   0.903   3.727 -0.0459  0.0018 -0.4510
  794MOL0     H 4796   8.517   0.879   3.680  1.3403 -0.0908 -2.3779
  794MOL0     H 4797   8.258   0.899   3.623 -2.8797 -1.9288 -0.7251
  794MOL0     H 4798   7.957   0.606   3.679  0.9256 -1.3698 -0.0435
  794MOL0     H 4799   8.041   0.523   3.555 -1.2298 -0.7306  0.1761
  794MOL0     H 4800   7.916   0.647   3.386 -1.3342 -2.5436 -0.5883
  794MOL0     H 4801   7.814   0.567   3.494  2.4638 -1.1921  2.5297
  794MOL0     H 4802   7.732   0.810   3.443 -3.3106 -1.3645  1.7998
  794MOL0     H 4803   7.866   0.880   3.539  0.4885  0.1192 -2.4210
  794MOL0     H 4804   7.792   0.763   3.736  0.4325  0.9389 -0.2728
  794MOL0     H 4805   7.651   0.862   3.678 -2.1792 -1.5977  0.1093
  794MOL0     H 4806   7.525   0.461   3.683  1.6082 -0.2422 -1.2230
  794MOL0     H 4807   8.243   0.479   3.588 -1.9100  0.9546 -1.2202
  794MOL0     H 4808   8.467   0.449   3.649 -0.1834 -0.6393 -2.3798
  795MOL0     O 4809   4.538   9.801   6.368 -0.1002 -0.5937 -0.0948
  795MOL0     C 4810   4.544   9.675   6.353  0.6277 -0.7116  0.3517
  795MOL0     O 4811   4.444   9.590   6.319 -0.3037 -0.0073  0.0130
  795MOL0     C 4812   4.331   9.628   6.254  0.5628 -0.1635 -0.1856
  795MOL0     C 4813   4.296   9.752   6.188  0.4960 -0.5192  0.6265
  795MOL0     C 4814   4.176   9.765   6.124  1.1189  0.5424 -0.7511
  795MOL0     C 4815   4.082   9.661   6.121  0.4918 -0.3838  0.1463
  795MOL0     O 4816   3.967   9.665   6.046 -0.6211 -0.1821  0.2271
  795MOL0     C 4817   3.850   9.591   6.079 -0.2652  0.0852 -0.5631
  795MOL0     C 4818   3.725   9.637   5.994  0.7161 -0.0591  0.8438
  795MOL0     C 4819   3.674   9.766   6.043  0.3703 -0.9163 -0.4926
  795MOL0     C 4820   3.547   9.804   5.964  0.1725  0.1352  0.7890
  795MOL0     C 4821   3.488   9.938   6.012 -0.5198 -0.1637 -0.1658
  795MOL0     C 4822   3.401   9.990   5.892 -0.7040 -0.6388  0.1414
  795MOL0     C 4823   3.264  10.061   5.932 -0.3595 -0.1904 -0.5706
  795MOL0     C 4824   3.287  10.203   5.991  0.0593 -0.1692  0.4476
  795MOL0     N 4825   3.160  10.266   6.006  0.6681 -0.0989 -0.2035
  795MOL0     C 4826   3.057  10.288   5.904 -0.5242 -0.2732  0.2897
  795MOL0     C 4827   2.974  10.366   5.973 -0.4457  0.2928  0.4676
  795MOL0     C 4828   2.843  10.430   5.914 -0.9436  0.2106 -0.6621
  795MOL0     C 4829   2.726  10.331   5.898 -0.5629  0.8471  0.0430
  795MOL0     C 4830   2.679  10.273   6.028 -0.6826  0.3111 -0.5173
  795MOL0     C 4831   2.614  10.367   6.129  0.3125 -0.6763  0.8069
  795MOL0     O 4832   2.505  10.438   6.073  0.5678  0.4610  0.4017
  795MOL0     C 4833   2.407  10.472   6.157 -0.5605 -0.3368  0.7951
  795MOL0     C 4834   2.279  10.497   6.103  0.3303 -0.8551 -0.3666
  795MOL0     C 4835   2.170  10.535   6.180  0.3730  0.4253 -0.1083
  795MOL0     C 4836   2.189  10.558   6.316 -0.8174  0.2093  0.0982
  795MOL0     C 4837   2.077  10.610   6.401  0.1104 -0.2112 -0.1262
  795MOL0     O 4838   2.085  10.626   6.529 -0.0935 -0.0520 -0.5793
  795MOL0     C 4839   1.975  10.666   6.611 -0.5414 -0.6431 -1.1781
  795MOL0     C 4840   1.851  10.723   6.581  0.0059  0.5140  0.5347
  795MOL0     C 4841   1.754  10.749   6.685 -0.1092 -0.4533  0.1924
  795MOL0     C 4842   1.794  10.740   6.822  0.2288  0.8646 -0.9459
  795MOL0     O 4843   1.722  10.774   6.928  0.7074 -0.5045 -0.4079
  795MOL0     C 4844   1.589  10.826   6.909  0.7312 -0.6077 -0.0848
  795MOL0     C 4845   1.528  10.856   7.045  0.0446 -0.3698 -0.1233
  795MOL0     C 4846   1.390  10.931   7.029 -0.1766  0.1539  0.3105
  795MOL0     C 4847   1.358  10.988   7.167  0.0260 -0.2232  0.8384
  795MOL0     C 4848   1.248  11.087   7.167  0.3260 -0.1662  0.2570
  795MOL0     C 4849   1.114  11.012   7.144 -0.1474  0.1048  0.1983
  795MOL0     C 4850   1.071  11.034   6.999  0.3728 -0.0182  0.0933
  795MOL0     C 4851   0.936  10.968   6.987 -0.3713 -0.0571 -0.0660
  795MOL0    Cl 4852   0.886  11.006   6.815  0.0409  0.1448 -0.1790
  795MOL0     C 4853   1.918  10.699   6.859 -0.7847 -0.0963 -0.1783
  795MOL0     C 4854   1.999  10.659   6.750 -0.6911  0.6371 -0.4068
  795MOL0     O 4855   1.974  10.625   6.330 -0.7853 -0.3611  0.0887
  795MOL0     C 4856   2.319  10.542   6.368  0.5435 -0.0459 -0.1451
  795MOL0     C 4857   2.424  10.493   6.294  0.6909 -0.5469 -0.0823
  795MOL0     N 4858   2.996  10.365   6.106 -0.0138  0.1170  0.9525
  795MOL0     N 4859   3.114  10.311   6.126 -0.7199 -1.4983  0.0627
  795MOL0     C 4860   4.120   9.543   6.190  0.1513  0.0550  0.7738
  795MOL0     C 4861   4.241   9.526   6.247 -0.2543  0.3798  0.1346
  795MOL0     C 4862   4.687   9.632   6.351  0.0867 -1.1220  0.1009
  795MOL0     C 4863   4.726   9.519   6.280  0.3439  0.1785  0.9031
  795MOL0     C 4864   4.852   9.462   6.266  1.6022 -0.5795 -0.5598
  795MOL0     C 4865   4.951   9.529   6.335 -0.5184 -0.2681 -0.1907
  795MOL0     O 4866   5.086   9.482   6.331  0.3977  0.5755 -0.8277
  795MOL0     C 4867   5.199   9.560   6.371  0.4075 -0.8636  0.6382
  795MOL0     C 4868   5.324   9.513   6.300 -0.7919 -0.9218 -0.1369
  795MOL0     C 4869   5.344   9.359   6.320  0.6402 -0.7691  0.2274
  795MOL0     C 4870   5.495   9.334   6.323 -0.6191  0.7751 -0.3310
  795MOL0     C 4871   5.512   9.194   6.386  0.0061  0.1299 -0.1762
  795MOL0     C 4872   5.532   9.081   6.429  0.2487  0.2632 -0.8107
  795MOL0     C 4873   4.920   9.637   6.412 -0.3703 -0.0131 -0.8789
  795MOL0     C 4874   4.792   9.697   6.419 -0.3975  0.6414  0.4491
  795MOL0     H 4875   4.356   9.842   6.174 -0.7851  0.2546  0.0392
  795MOL0     H 4876   4.164   9.852   6.061  1.7711  0.3014 -1.2186
  795MOL0     H 4877   3.832   9.614   6.185 -0.6600  0.5804 -0.7276
  795MOL0     H 4878   3.872   9.485   6.063  0.8974  0.3078 -0.4784
  795MOL0     H 4879   3.647   9.560   5.995  1.1510 -0.5955 -1.2469
  795MOL0     H 4880   3.753   9.648   5.888  3.8383 -0.5500  1.5148
  795MOL0     H 4881   3.747   9.847   6.033 -1.3467  1.1801  2.4042
  795MOL0     H 4882   3.638   9.762   6.146 -1.1022 -1.7786 -1.0099
  795MOL0     H 4883   3.575   9.797   5.858  1.1183 -3.1781  1.1315
  795MOL0     H 4884   3.475   9.722   5.977  0.7656 -1.4199 -3.7794
  795MOL0     H 4885   3.563  10.016   6.027 -0.1713 -0.5478  0.1098
  795MOL0     H 4886   3.433   9.925   6.106 -0.6842 -0.3162 -0.2822
  795MOL0     H 4887   3.372   9.904   5.830  1.4377 -1.6145  0.4240
  795MOL0     H 4888   3.451  10.064   5.831 -4.2119  0.5569 -1.5663
  795MOL0     H 4889   3.190  10.064   5.851 -3.1080  0.4755  1.7811
  795MOL0     H 4890   3.212  10.004   6.011 -0.5193  1.7794  0.8351
  795MOL0     H 4891   3.355  10.255   5.922  0.9142 -4.2395 -2.1414
  795MOL0     H 4892   3.334  10.209   6.089  0.5579 -0.2547  0.2189
  795MOL0     H 4893   3.051  10.244   5.805 -2.9791 -0.9770  0.6819
  795MOL0     H 4894   2.860  10.485   5.821 -1.8716 -1.0883 -1.6332
  795MOL0     H 4895   2.816  10.510   5.984  1.2138 -0.1375  0.6222
  795MOL0     H 4896   2.757  10.247   5.836  0.4799 -0.2804  1.9815
  795MOL0     H 4897   2.634  10.373   5.857 -1.0723 -1.4101 -1.2781
  795MOL0     H 4898   2.615  10.189   6.000 -0.2773 -0.2254  0.1227
  795MOL0     H 4899   2.757  10.221   6.084  1.0499  2.0976 -1.1556
  795MOL0     H 4900   2.685  10.444   6.158  1.3445 -1.7532  1.2276
  795MOL0     H 4901   2.572  10.310   6.212 -0.1289 -0.5338  0.6875
  795MOL0     H 4902   2.265  10.465   6.001  1.5756 -2.4133 -0.0925
  795MOL0     H 4903   2.071  10.548   6.138  0.4217  0.4647 -0.2101
  795MOL0     H 4904   1.818  10.737   6.479  0.7268 -0.4063  0.1620
  795MOL0     H 4905   1.653  10.766   6.651 -0.7828 -3.3834  0.4359
  795MOL0     H 4906   1.524  10.759   6.852  0.3345 -1.2891  1.1247
  795MOL0     H 4907   1.591  10.916   6.847 -1.9067 -1.7007 -1.9910
  795MOL0     H 4908   1.608  10.906   7.101  1.9056 -0.7135 -2.2799
  795MOL0     H 4909   1.503  10.760   7.091 -2.2533  0.3443  0.1941
  795MOL0     H 4910   1.319  10.858   6.988 -0.1871  0.8529 -0.9421
  795MOL0     H 4911   1.403  11.012   6.957  1.7679 -0.8542 -0.5293
  795MOL0     H 4912   1.333  10.904   7.232 -1.0271  1.8208  3.2305
  795MOL0     H 4913   1.444  11.034   7.218  0.0248 -0.0112  0.6508
  795MOL0     H 4914   1.256  11.174   7.102 -0.7193 -0.0375  0.2891
  795MOL0     H 4915   1.249  11.122   7.270 -1.0339 -2.7576  1.2504
  795MOL0     H 4916   1.036  11.056   7.207 -1.2273  0.5809 -1.3959
  795MOL0     H 4917   1.118  10.904   7.161  0.5067  0.0900 -0.0191
  795MOL0     H 4918   1.064  11.140   6.977 -1.7704 -0.6385 -2.8997
  795MOL0     H 4919   1.143  10.988   6.931  0.3067 -0.7881  0.5248
  795MOL0     H 4920   0.863  11.014   7.054 -0.3053  0.2851 -0.2249
  795MOL0     H 4921   0.938  10.861   7.008 -0.4554  0.4114  2.8569
  795MOL0     H 4922   1.943  10.685   6.964 -2.2974 -0.8232  0.1101
  795MOL0     H 4923   2.093  10.612   6.778 -0.6888  1.7469  1.6764
  795MOL0     H 4924   2.344  10.559   6.473 -0.6486  0.4777  0.0727
  795MOL0     H 4925   2.522  10.504   6.341  0.4647  2.2769 -0.1220
  795MOL0     H 4926   4.068   9.450   6.211 -1.2024  0.5129 -0.3580
  795MOL0     H 4927   4.273   9.428   6.282  1.7372  1.2404  0.8546
  795MOL0     H 4928   4.645   9.476   6.221 -0.3828  2.0080  0.5009
  795MOL0     H 4929   4.874   9.377   6.202 -0.7260 -1.2513 -0.5623
  795MOL0     H 4930   5.208   9.535   6.477 -0.1146 -1.3880  0.5624
  795MOL0     H 4931   5.183   9.668   6.357  0.5768 -0.6478  2.0009
  795MOL0     H 4932   5.324   9.535   6.192  0.9087  0.2223  0.0634
  795MOL0     H 4933   5.406   9.564   6.350  0.0653 -0.2023 -2.1658
  795MOL0     H 4934   5.309   9.300   6.235 -1.0748 -2.4847  2.0080
  795MOL0     H 4935   5.302   9.330   6.417  0.8802 -2.7959 -0.2365
  795MOL0     H 4936   5.537   9.318   6.223 -0.7513  2.0316 -0.6034
  795MOL0     H 4937   5.561   9.408   6.368 -1.7467  1.0197  0.9976
  795MOL0     H 4938   5.554   8.990   6.480  3.8875  1.4424  0.0552
  795MOL0     H 4939   4.989   9.689   6.477 -1.8261  3.1145 -1.6479
  795MOL0     H 4940   4.773   9.795   6.461  0.1074  2.2878 -2.8211
  796MOL0     O 4941   1.916   5.210   1.523  0.3018  0.0253 -0.1923
  796MOL0     C 4942   2.023   5.270   1.522  0.8242 -0.2240  0.6831
  796MOL0     O 4943   2.032   5.402   1.497  0.0734 -0.1837  0.3241
  796MOL0     C 4944   1.918   5.468   1.462  0.2692 -0.6698  0.4461
  796MOL0     C 4945   1.817   5.511   1.548 -1.0946 -0.2159  0.2329
  796MOL0     C 4946   1.708   5.570   1.503 -0.0038  0.2734  0.2531
  796MOL0     C 4947   1.693   5.603   1.371  0.4609 -0.0399  0.4736
  796MOL0     O 4948   1.582   5.673   1.337  0.4640  0.5128  0.2408
  796MOL0     C 4949   1.476   5.588   1.284  0.3549 -0.2764  0.0333
  796MOL0     C 4950   1.345   5.661   1.290  0.7732  0.1845  0.3162
  796MOL0     C 4951   1.275   5.632   1.425  0.4483  0.1036 -0.2182
  796MOL0     C 4952   1.136   5.669   1.415  0.0808 -0.9605 -0.8439
  796MOL0     C 4953   1.062   5.656   1.553 -0.4311  0.2122  0.4390
  796MOL0     C 4954   1.034   5.509   1.576  0.0251  0.1367 -0.7587
  796MOL0     C 4955   0.935   5.486   1.685 -0.0158 -0.3210  0.6864
  796MOL0     C 4956   0.982   5.508   1.825  0.5773  1.0685 -0.0473
  796MOL0     N 4957   0.907   5.425   1.925  0.1505 -0.2228 -0.4518
  796MOL0     C 4958   0.766   5.436   1.928 -0.0628 -0.5471 -0.9972
  796MOL0     C 4959   0.732   5.322   1.986 -0.2520 -0.6514  0.1525
  796MOL0     C 4960   0.598   5.260   1.987 -0.0690  0.7147 -0.8661
  796MOL0     C 4961   0.527   5.272   2.126 -0.7535 -0.0939 -0.1124
  796MOL0     C 4962   0.380   5.229   2.111 -0.2718  0.0005 -0.1679
  796MOL0     C 4963   0.313   5.200   2.246 -0.3432 -0.1065 -0.4719
  796MOL0     O 4964   0.181   5.262   2.236  0.6722  0.1710 -0.6026
  796MOL0     C 4965   0.099   5.247   2.347 -0.0020 -0.5903  0.8224
  796MOL0     C 4966  -0.027   5.210   2.318 -0.3149 -0.8340 -0.1171
  796MOL0     C 4967  -0.124   5.204   2.415 -0.1135 -0.6114 -0.5003
  796MOL0     C 4968  -0.091   5.209   2.552 -0.6345  0.1632  0.5112
  796MOL0     C 4969  -0.209   5.221   2.647  0.2040  0.4648  0.1475
  796MOL0     O 4970  -0.326   5.147   2.620 -0.3753  0.4779  0.2412
  796MOL0     C 4971  -0.432   5.159   2.704  0.4571 -0.3556  0.1068
  796MOL0     C 4972  -0.473   5.285   2.763 -0.0007  0.8586 -0.6271
  796MOL0     C 4973  -0.588   5.292   2.835 -0.3373 -0.6388  0.0467
  796MOL0     C 4974  -0.679   5.186   2.840  0.1145  0.3433 -1.0574
  796MOL0     O 4975  -0.798   5.196   2.911 -0.0160 -0.1148  0.2285
  796MOL0     C 4976  -0.904   5.269   2.849  0.6647 -0.0353  0.5072
  796MOL0     C 4977  -1.032   5.187   2.837 -0.6551 -0.2033  0.1338
  796MOL0     C 4978  -1.017   5.052   2.764 -0.0338  0.0860 -0.0616
  796MOL0     C 4979  -1.144   4.975   2.774  0.1037  0.1418  0.4400
  796MOL0     C 4980  -1.132   4.846   2.702 -0.7254 -0.0077  0.4630
  796MOL0     C 4981  -1.244   4.803   2.600 -0.3334  0.0809  0.0716
  796MOL0     C 4982  -1.213   4.656   2.553  0.1031  0.1893  0.9441
  796MOL0     C 4983  -1.322   4.613   2.456  0.0418 -0.2906  0.5104
  796MOL0    Cl 4984  -1.471   4.552   2.549 -0.2623  0.2417  0.1318
  796MOL0     C 4985  -0.652   5.060   2.770  0.2010  0.0950  0.6296
  796MOL0     C 4986  -0.526   5.050   2.697 -0.3755 -0.0509 -0.1654
  796MOL0     O 4987  -0.186   5.288   2.740 -0.0899 -0.0003  0.0611
  796MOL0     C 4988   0.039   5.249   2.584 -0.0343 -1.1819 -0.2771
  796MOL0     C 4989   0.136   5.274   2.478 -0.0943 -0.0160  0.2808
  796MOL0     N 4990   0.846   5.257   2.031 -0.1912 -0.0252  0.2323
  796MOL0     N 4991   0.949   5.317   1.997 -0.9575 -0.3665  0.0890
  796MOL0     C 4992   1.796   5.571   1.276  0.4783 -0.5970 -0.7185
  796MOL0     C 4993   1.905   5.499   1.324  0.7242 -0.2574  0.0143
  796MOL0     C 4994   2.136   5.187   1.557  0.5312  0.3501  0.3625
  796MOL0     C 4995   2.135   5.048   1.589 -0.3939  0.1761  0.7610
  796MOL0     C 4996   2.254   4.984   1.623 -0.7134  0.0992 -0.1627
  796MOL0     C 4997   2.378   5.057   1.623 -0.2149  0.1777 -0.1140
  796MOL0     O 4998   2.493   4.993   1.660 -0.1983  0.6356  0.0082
  796MOL0     C 4999   2.612   5.028   1.593 -1.0250  0.0828  0.1471
  796MOL0     C 5000   2.721   4.933   1.641  0.4663 -0.0662  0.3227
  796MOL0     C 5001   2.701   4.782   1.602 -0.4235  0.2038  0.4044
  796MOL0     C 5002   2.812   4.694   1.668  0.0485  0.0740 -0.2955
  796MOL0     C 5003   2.802   4.685   1.819 -0.1447  0.1753  0.2617
  796MOL0     C 5004   2.778   4.659   1.934  0.1037 -0.8655 -0.0413
  796MOL0     C 5005   2.379   5.194   1.588 -0.1535  0.2195  0.2004
  796MOL0     C 5006   2.262   5.256   1.557 -0.1571  1.0854  0.4417
  796MOL0     H 5007   1.824   5.483   1.652  0.8686 -2.5125 -0.4253
  796MOL0     H 5008   1.635   5.597   1.578 -1.4013  0.3657 -1.1074
  796MOL0     H 5009   1.468   5.493   1.338  0.6019 -2.0394 -2.8353
  796MOL0     H 5010   1.489   5.583   1.175 -2.0075  2.0842 -0.4875
  796MOL0     H 5011   1.287   5.612   1.212 -2.0950  1.9933  1.1411
  796MOL0     H 5012   1.355   5.766   1.258  1.1490 -0.7201 -2.8549
  796MOL0     H 5013   1.309   5.696   1.507 -2.5477  2.0756 -0.3788
  796MOL0     H 5014   1.283   5.527   1.455  2.0667  0.2886  0.1338
  796MOL0     H 5015   1.134   5.774   1.385 -0.3730 -1.1212 -1.4215
  796MOL0     H 5016   1.088   5.607   1.338  1.7798 -1.1543 -1.7879
  796MOL0     H 5017   0.969   5.712   1.558 -0.5994 -0.0825  0.6653
  796MOL0     H 5018   1.126   5.703   1.628  0.1019  3.3045 -1.8002
  796MOL0     H 5019   1.126   5.452   1.595 -0.5257 -0.4521  0.2377
  796MOL0     H 5020   0.990   5.465   1.486 -0.3940 -0.6388 -0.1905
  796MOL0     H 5021   0.844   5.545   1.667  0.4462 -0.1904 -1.4959
  796MOL0     H 5022   0.907   5.380   1.675  0.9559 -0.5325  0.0738
  796MOL0     H 5023   0.967   5.612   1.856 -2.4357  0.8686 -0.5136
  796MOL0     H 5024   1.090   5.492   1.819  0.2316 -0.7604 -3.5766
  796MOL0     H 5025   0.704   5.516   1.890  1.8794  0.9338 -1.1956
  796MOL0     H 5026   0.600   5.158   1.948 -0.0338  2.0820 -4.9156
  796MOL0     H 5027   0.536   5.318   1.917 -0.2861  0.4516 -0.8947
  796MOL0     H 5028   0.527   5.378   2.155 -1.4253  0.2264 -1.2392
  796MOL0     H 5029   0.582   5.222   2.206 -1.0263 -2.1058 -1.1208
  796MOL0     H 5030   0.326   5.305   2.052 -1.8305 -1.0027 -0.1019
  796MOL0     H 5031   0.376   5.131   2.062 -1.7639 -0.6113  1.0964
  796MOL0     H 5032   0.371   5.247   2.327 -0.1084 -0.8175 -0.2217
  796MOL0     H 5033   0.310   5.098   2.286  1.6588  1.1929  3.5338
  796MOL0     H 5034  -0.041   5.201   2.210  1.4198 -2.1282 -0.2798
  796MOL0     H 5035  -0.227   5.174   2.400 -0.4079 -2.2190  3.5365
  796MOL0     H 5036  -0.416   5.377   2.760 -1.0183  1.4844 -0.9158
  796MOL0     H 5037  -0.608   5.385   2.889  2.2491  0.7664 -1.2162
  796MOL0     H 5038  -0.882   5.299   2.746 -0.0631 -1.1670  0.0028
  796MOL0     H 5039  -0.929   5.354   2.912  0.8002 -0.7160  1.4994
  796MOL0     H 5040  -1.102   5.252   2.783  0.4620  2.4817  1.6924
  796MOL0     H 5041  -1.078   5.163   2.933 -1.5051 -1.7586 -0.6232
  796MOL0     H 5042  -0.935   4.994   2.807 -0.9447 -2.5559 -1.6127
  796MOL0     H 5043  -0.987   5.061   2.659 -1.2861 -0.3548 -0.4649
  796MOL0     H 5044  -1.144   4.955   2.881  1.0768  2.3478  0.8924
  796MOL0     H 5045  -1.231   5.025   2.731  0.2347 -1.0006 -1.3002
  796MOL0     H 5046  -1.111   4.762   2.769  2.0681 -1.0920 -1.5947
  796MOL0     H 5047  -1.041   4.850   2.641 -1.6937  1.5341 -0.9728
  796MOL0     H 5048  -1.242   4.879   2.521 -0.6254 -0.3501 -0.3613
  796MOL0     H 5049  -1.337   4.796   2.656  0.7943 -0.5146  1.9292
  796MOL0     H 5050  -1.121   4.633   2.499 -0.7345 -2.1591  0.3854
  796MOL0     H 5051  -1.220   4.577   2.629 -2.3402 -1.4996 -0.9028
  796MOL0     H 5052  -1.284   4.538   2.385 -0.7281 -0.0297 -0.1850
  796MOL0     H 5053  -1.362   4.693   2.392 -0.7040 -0.3210  0.9344
  796MOL0     H 5054  -0.707   4.967   2.781 -1.3802  0.8643 -0.3771
  796MOL0     H 5055  -0.488   4.955   2.659 -0.5577 -0.5293  0.8362
  796MOL0     H 5056   0.073   5.286   2.680  2.2250  2.6868 -2.2986
  796MOL0     H 5057   0.240   5.292   2.503  0.5203 -2.8699  0.1568
  796MOL0     H 5058   1.800   5.617   1.178  1.4599 -0.8617 -0.8165
  796MOL0     H 5059   1.974   5.465   1.247 -1.7254 -2.5689 -1.3501
  796MOL0     H 5060   2.047   4.985   1.594  0.0919 -0.5542  0.2339
  796MOL0     H 5061   2.258   4.879   1.650 -2.1583  0.2770  0.8193
  796MOL0     H 5062   2.641   5.130   1.619  0.2316  0.5262 -2.6575
  796MOL0     H 5063   2.597   5.030   1.485  0.9103  4.0448 -0.2136
  796MOL0     H 5064   2.813   4.957   1.588  0.1565  1.1653  0.3138
  796MOL0     H 5065   2.736   4.949   1.748  1.4077 -1.7691  0.4847
  796MOL0     H 5066   2.712   4.772   1.494  2.4021  1.1394  0.5329
  796MOL0     H 5067   2.599   4.754   1.632 -0.8428  1.7931  0.5357
  796MOL0     H 5068   2.787   4.593   1.632 -1.7210  0.0347  0.8889
  796MOL0     H 5069   2.914   4.723   1.642  1.2206 -2.4596  1.1374
  796MOL0     H 5070   2.771   4.625   2.035 -2.4287 -3.3973 -0.9410
  796MOL0     H 5071   2.469   5.256   1.586  0.6123 -0.8553  0.4729
  796MOL0     H 5072   2.257   5.359   1.522 -0.1840  1.0247  0.2674
  797MOL0     O 5073   5.406   7.399   6.184 -0.7121 -0.4260 -0.0496
  797MOL0     C 5074   5.431   7.415   6.299 -0.3122 -0.1485 -0.7248
  797MOL0     O 5075   5.359   7.494   6.383  0.5664  0.2896  0.1678
  797MOL0     C 5076   5.235   7.559   6.343 -0.1786  0.7476 -0.6631
  797MOL0     C 5077   5.139   7.507   6.248  0.3733  0.9514 -0.2129
  797MOL0     C 5078   5.015   7.571   6.224  0.4115  0.7904  0.3865
  797MOL0     C 5079   4.985   7.694   6.287 -0.1568 -0.1258  1.0525
  797MOL0     O 5080   4.884   7.777   6.257  0.2293  0.0928 -0.2306
  797MOL0     C 5081   4.784   7.715   6.182  0.6092 -0.0685  1.0487
  797MOL0     C 5082   4.665   7.806   6.148  0.2312  0.2842 -0.2680
  797MOL0     C 5083   4.570   7.824   6.265 -0.3656 -0.5510  1.0980
  797MOL0     C 5084   4.461   7.932   6.220  0.3168 -0.3623 -0.2706
  797MOL0     C 5085   4.350   7.913   6.318  0.3871  0.0256  0.1744
  797MOL0     C 5086   4.243   7.814   6.271 -0.4175  0.1792 -0.3177
  797MOL0     C 5087   4.141   7.801   6.387 -0.2105  0.2233 -0.8322
  797MOL0     C 5088   4.030   7.692   6.357  0.4661 -0.3267  0.3427
  797MOL0     N 5089   4.091   7.569   6.294  0.9086 -0.5542  0.1723
  797MOL0     C 5090   4.178   7.482   6.360 -0.1178  0.5207 -0.3669
  797MOL0     C 5091   4.188   7.370   6.278  0.0546 -0.1887  0.2661
  797MOL0     C 5092   4.261   7.249   6.308  0.1726 -0.1540 -0.4700
  797MOL0     C 5093   4.404   7.261   6.267  0.1113 -0.8108  0.4174
  797MOL0     C 5094   4.483   7.393   6.298  0.6997 -0.0063  0.0556
  797MOL0     C 5095   4.512   7.417   6.449 -0.4068 -0.5914  0.0534
  797MOL0     O 5096   4.639   7.489   6.458  0.4867  0.2596  0.0430
  797MOL0     C 5097   4.759   7.424   6.487 -0.2211 -0.6389  0.4793
  797MOL0     C 5098   4.779   7.291   6.479 -0.3170  0.0311  0.6021
  797MOL0     C 5099   4.896   7.235   6.521  0.0186  0.2512  0.3879
  797MOL0     C 5100   5.005   7.316   6.577 -0.2928  0.4094 -0.1706
  797MOL0     C 5101   5.133   7.244   6.626  0.9300 -0.1553  0.3481
  797MOL0     O 5102   5.133   7.105   6.615  0.2060  0.1260 -0.7397
  797MOL0     C 5103   5.252   7.042   6.644 -0.0590  0.1290 -0.4110
  797MOL0     C 5104   5.366   7.044   6.569 -0.5902 -0.3878  0.3860
  797MOL0     C 5105   5.483   6.987   6.607  0.6259  0.0771  0.4699
  797MOL0     C 5106   5.486   6.901   6.718 -0.2278  1.1443 -0.2790
  797MOL0     O 5107   5.591   6.833   6.763 -0.4213 -0.5522  0.2950
  797MOL0     C 5108   5.726   6.858   6.712  1.1887 -0.3201  0.3388
  797MOL0     C 5109   5.815   6.785   6.816 -0.1735 -1.4396  0.2403
  797MOL0     C 5110   5.960   6.832   6.782  0.2677  0.7403 -1.1514
  797MOL0     C 5111   6.032   6.768   6.669  0.0527 -0.1434  1.2844
  797MOL0     C 5112   6.182   6.809   6.667  0.2959 -0.2596  0.1712
  797MOL0     C 5113   6.286   6.733   6.581 -0.5825  0.1466 -0.6770
  797MOL0     C 5114   6.309   6.581   6.613 -0.1225  0.2203 -0.1478
  797MOL0     C 5115   6.383   6.554   6.746  0.6573 -0.1359 -0.9173
  797MOL0    Cl 5116   6.560   6.575   6.722  0.1691 -0.1766  0.0415
  797MOL0     C 5117   5.370   6.887   6.792 -0.1191  0.4460 -0.2842
  797MOL0     C 5118   5.256   6.962   6.756 -0.4682 -0.8927  0.9040
  797MOL0     O 5119   5.220   7.314   6.674 -0.6673 -0.3710  0.4805
  797MOL0     C 5120   4.990   7.453   6.577 -0.2593  0.3305  0.2913
  797MOL0     C 5121   4.864   7.505   6.533 -0.4382  0.0601 -0.8151
  797MOL0     N 5122   4.118   7.400   6.171  0.3449 -0.1118  0.5907
  797MOL0     N 5123   4.049   7.509   6.182 -0.4822  0.6105  0.0385
  797MOL0     C 5124   5.082   7.739   6.384 -0.1351 -0.3469  0.0362
  797MOL0     C 5125   5.200   7.674   6.410 -0.2200  0.1063 -0.0803
  797MOL0     C 5126   5.558   7.360   6.359 -0.2284 -0.3915  0.5562
  797MOL0     C 5127   5.589   7.362   6.490 -1.0522  0.9972 -0.6638
  797MOL0     C 5128   5.702   7.295   6.549  0.8965  0.5617 -0.4119
  797MOL0     C 5129   5.792   7.233   6.459 -0.2288  0.4020 -0.4526
  797MOL0     O 5130   5.899   7.154   6.506  0.3019  0.4818 -0.2102
  797MOL0     C 5131   5.996   7.093   6.424 -0.3644  0.2509  1.4147
  797MOL0     C 5132   6.126   7.180   6.404  1.1797 -0.2075 -0.4970
  797MOL0     C 5133   6.248   7.104   6.340 -0.0376 -0.2298  0.4871
  797MOL0     C 5134   6.372   7.194   6.316 -0.8052  0.3384  0.2148
  797MOL0     C 5135   6.451   7.125   6.214  0.1618  0.0161  0.1208
  797MOL0     C 5136   6.508   7.059   6.129 -0.6042 -0.9749  1.3054
  797MOL0     C 5137   5.767   7.246   6.327 -0.9921 -0.7841  0.0050
  797MOL0     C 5138   5.658   7.307   6.272 -0.2298  0.0963 -0.6294
  797MOL0     H 5139   5.149   7.414   6.193 -3.2278 -0.3909  1.1241
  797MOL0     H 5140   4.953   7.524   6.149 -1.5154  2.7736  0.6270
  797MOL0     H 5141   4.753   7.635   6.249  0.0585  1.9086  3.3000
  797MOL0     H 5142   4.829   7.674   6.092 -1.7557  1.0720 -0.7743
  797MOL0     H 5143   4.597   7.754   6.080 -2.3896  1.0660  1.5819
  797MOL0     H 5144   4.709   7.895   6.101  2.5803 -1.1362 -0.8925
  797MOL0     H 5145   4.618   7.863   6.355  3.3252 -0.5890 -0.6807
  797MOL0     H 5146   4.528   7.726   6.292 -0.6891 -0.8485 -0.4311
  797MOL0     H 5147   4.502   8.034   6.222  0.3053 -0.3547 -0.3977
  797MOL0     H 5148   4.421   7.916   6.119  0.2547  0.3261 -0.3604
  797MOL0     H 5149   4.307   8.013   6.333  2.7030  0.9339  1.2797
  797MOL0     H 5150   4.385   7.872   6.413  1.2315 -0.8116 -0.4859
  797MOL0     H 5151   4.292   7.720   6.243 -0.6348  0.1001 -0.4280
  797MOL0     H 5152   4.188   7.855   6.186 -1.2928  1.5623  0.8686
  797MOL0     H 5153   4.188   7.776   6.482  0.9922  0.3046 -1.3820
  797MOL0     H 5154   4.099   7.900   6.405 -2.1924 -0.7309  0.1554
  797MOL0     H 5155   3.963   7.736   6.284 -0.4661 -2.5340 -0.2191
  797MOL0     H 5156   3.968   7.649   6.437 -0.0931  1.2501  0.7887
  797MOL0     H 5157   4.211   7.494   6.463 -0.9774  4.6075 -0.3814
  797MOL0     H 5158   4.215   7.156   6.274 -2.4864  0.4697  1.0453
  797MOL0     H 5159   4.267   7.238   6.416  1.5768 -5.1218 -0.7986
  797MOL0     H 5160   4.395   7.253   6.158 -2.5311  1.4187  0.3776
  797MOL0     H 5161   4.468   7.181   6.307  2.2311  2.4175  4.1693
  797MOL0     H 5162   4.574   7.364   6.243  0.2665 -0.8931 -0.2195
  797MOL0     H 5163   4.440   7.483   6.254  0.1047 -0.2683  0.0959
  797MOL0     H 5164   4.520   7.324   6.506  2.1698 -0.7189 -0.4326
  797MOL0     H 5165   4.437   7.481   6.498  1.2482  0.8808  0.7522
  797MOL0     H 5166   4.691   7.239   6.442 -2.0832  2.7033  0.7023
  797MOL0     H 5167   4.905   7.126   6.520  2.3551  0.3825  1.0043
  797MOL0     H 5168   5.359   7.102   6.477 -1.0943 -0.1914  0.5422
  797MOL0     H 5169   5.571   7.007   6.547  1.7331  0.5089  2.1552
  797MOL0     H 5170   5.756   6.963   6.701  0.1312 -0.1443 -1.1847
  797MOL0     H 5171   5.738   6.816   6.612 -0.1528 -0.9628  0.4237
  797MOL0     H 5172   5.812   6.676   6.808  1.8603 -1.6125  1.2225
  797MOL0     H 5173   5.789   6.825   6.914 -0.3352  1.9937 -1.0679
  797MOL0     H 5174   6.009   6.800   6.874  0.3508 -2.7442 -2.2772
  797MOL0     H 5175   5.941   6.938   6.763  0.6986  1.3813  1.5637
  797MOL0     H 5176   6.026   6.659   6.659  0.2809  0.0048 -5.5789
  797MOL0     H 5177   5.992   6.803   6.573 -1.3537 -1.9623  1.1441
  797MOL0     H 5178   6.225   6.807   6.768 -0.1174 -2.7423  0.3653
  797MOL0     H 5179   6.180   6.917   6.653 -2.6640 -0.0889  1.3758
  797MOL0     H 5180   6.384   6.773   6.610 -0.2404 -1.5032  0.5527
  797MOL0     H 5181   6.253   6.748   6.478  0.8523 -0.5832 -1.2635
  797MOL0     H 5182   6.211   6.533   6.614 -0.5904  1.0275  2.7057
  797MOL0     H 5183   6.371   6.533   6.537 -0.0249 -0.0679  0.1127
  797MOL0     H 5184   6.359   6.452   6.779 -1.1179  0.4692 -0.2324
  797MOL0     H 5185   6.362   6.628   6.824  0.7944  1.2279 -2.1238
  797MOL0     H 5186   5.363   6.823   6.880  0.8716  2.5033  1.3791
  797MOL0     H 5187   5.166   6.952   6.815 -1.4729 -0.2781 -0.4584
  797MOL0     H 5188   5.071   7.514   6.616 -0.4476  0.9055 -0.1994
  797MOL0     H 5189   4.839   7.610   6.538 -1.7877 -0.3001  0.6847
  797MOL0     H 5190   5.055   7.834   6.429 -3.9893 -1.2593 -0.0757
  797MOL0     H 5191   5.272   7.702   6.486 -1.2628  1.1755  0.5511
  797MOL0     H 5192   5.525   7.405   6.567 -0.6038 -0.8037  0.7848
  797MOL0     H 5193   5.715   7.287   6.656  2.7916 -1.1104 -0.7215
  797MOL0     H 5194   5.940   7.062   6.334 -1.3228  1.3686  1.6044
  797MOL0     H 5195   6.033   7.005   6.477 -1.0544 -1.1818 -0.3492
  797MOL0     H 5196   6.104   7.273   6.350  0.0946 -0.6949 -0.9340
  797MOL0     H 5197   6.149   7.207   6.508  2.4018 -2.4320 -0.1365
  797MOL0     H 5198   6.208   7.076   6.242  1.4446  1.3376 -0.6277
  797MOL0     H 5199   6.271   7.013   6.396 -1.6302 -1.0678 -0.1442
  797MOL0     H 5200   6.334   7.291   6.284 -4.2248 -1.1640 -0.7183
  797MOL0     H 5201   6.430   7.214   6.407  2.7798  2.2053 -2.2111
  797MOL0     H 5202   6.564   7.009   6.053  2.7286  3.2749  0.6400
  797MOL0     H 5203   5.843   7.208   6.260  0.9384  3.8025 -0.7763
  797MOL0     H 5204   5.639   7.293   6.166  2.4774  0.5486 -1.2534
  798MOL0     O 5205   2.428  10.418   3.829 -0.1099 -0.4882  0.0070
  798MOL0     C 5206   2.334  10.495   3.851 -0.2263  0.3909  0.6416
  798MOL0     O 5207   2.208  10.479   3.816  0.5312  0.0158  1.0472
  798MOL0     C 5208   2.169  10.369   3.740  0.1508 -0.3082 -0.0508
  798MOL0     C 5209   2.060  10.390   3.658 -0.2215 -0.9947  0.2130
  798MOL0     C 5210   2.007  10.292   3.571 -0.3146 -0.1289 -0.8562
  798MOL0     C 5211   2.048  10.157   3.592 -0.7136 -0.7200 -0.1260
  798MOL0     O 5212   1.987  10.057   3.526  0.2441 -0.4339  0.2040
  798MOL0     C 5213   1.847  10.053   3.545  0.2728  0.0909 -0.9747
  798MOL0     C 5214   1.806  10.031   3.693 -0.9783 -0.3145 -0.4283
  798MOL0     C 5215   1.663  10.005   3.706 -0.1959  1.2671  0.2839
  798MOL0     C 5216   1.612   9.945   3.852 -0.1081 -0.0411  0.8787
  798MOL0     C 5217   1.479   9.876   3.855  0.0362 -0.0590  0.9810
  798MOL0     C 5218   1.472   9.793   3.978  0.0942 -1.2684  0.4168
  798MOL0     C 5219   1.493   9.866   4.111 -0.2200  0.3849 -0.4321
  798MOL0     C 5220   1.613   9.793   4.184 -0.1214 -0.3077 -0.2834
  798MOL0     N 5221   1.619   9.826   4.329 -0.5334 -0.0176  0.5009
  798MOL0     C 5222   1.527   9.782   4.419 -0.6206 -0.3952 -0.7156
  798MOL0     C 5223   1.551   9.868   4.526 -0.5682  0.4158 -0.1932
  798MOL0     C 5224   1.505   9.857   4.671 -0.3980  0.1750  0.3316
  798MOL0     C 5225   1.353   9.896   4.684  0.5663  0.2864 -0.2677
  798MOL0     C 5226   1.323  10.034   4.644  0.5119  0.3791  0.0158
  798MOL0     C 5227   1.183  10.070   4.656  0.5523  0.7324 -0.1367
  798MOL0     O 5228   1.155  10.109   4.788 -0.2459 -0.0323 -0.8524
  798MOL0     C 5229   1.030  10.130   4.838  0.5113  1.0958  0.6016
  798MOL0     C 5230   0.993  10.149   4.975 -0.4942 -0.2872  1.2288
  798MOL0     C 5231   0.860  10.166   5.019 -0.3728  1.1143  0.1663
  798MOL0     C 5232   0.753  10.146   4.936  1.0827  0.4430  0.0673
  798MOL0     C 5233   0.614  10.154   4.984 -0.2206 -0.8175 -0.6136
  798MOL0     O 5234   0.521  10.145   4.891 -0.0771  0.4523  0.5415
  798MOL0     C 5235   0.401  10.105   4.940  0.7405 -0.3386 -0.2546
  798MOL0     C 5236   0.365   9.974   4.974 -0.7476 -0.2119  0.5656
  798MOL0     C 5237   0.232   9.943   5.019 -0.3474  0.2772  0.5122
  798MOL0     C 5238   0.137  10.043   5.037  1.1943  0.3403  0.7425
  798MOL0     O 5239   0.009  10.009   5.073  0.0771  1.0476  0.9684
  798MOL0     C 5240  -0.101  10.089   5.040  0.0283 -0.4514  0.2530
  798MOL0     C 5241  -0.135  10.166   5.170  0.7218  0.0618 -0.8991
  798MOL0     C 5242  -0.263  10.245   5.163 -0.4694  0.0125  0.4821
  798MOL0     C 5243  -0.258  10.342   5.296 -0.4248  1.2811 -0.4030
  798MOL0     C 5244  -0.375  10.436   5.312  0.1568 -0.3612  0.2813
  798MOL0     C 5245  -0.509  10.375   5.278  0.3995 -0.5678 -0.1213
  798MOL0     C 5246  -0.622  10.479   5.253  0.6674  0.4446 -0.3438
  798MOL0     C 5247  -0.683  10.540   5.383 -0.8339  0.6021 -1.0993
  798MOL0    Cl 5248  -0.855  10.589   5.367  0.3524 -0.3158 -0.1298
  798MOL0     C 5249   0.174  10.177   5.011  0.1293 -1.2604 -0.0645
  798MOL0     C 5250   0.303  10.205   4.966  0.0335  0.2858  0.3249
  798MOL0     O 5251   0.596  10.156   5.105  0.2187  0.5551 -0.6913
  798MOL0     C 5252   0.786  10.107   4.801 -0.5654  0.0812 -0.0888
  798MOL0     C 5253   0.920  10.105   4.756  0.3747 -0.0477  0.2799
  798MOL0     N 5254   1.648   9.957   4.495 -0.7370  0.3948  0.2953
  798MOL0     N 5255   1.682   9.937   4.370  0.8791 -0.8232  0.0177
  798MOL0     C 5256   2.152  10.134   3.689  0.0451 -0.6155  0.0475
  798MOL0     C 5257   2.206  10.239   3.758 -0.8820 -0.6132  0.5272
  798MOL0     C 5258   2.359  10.611   3.942 -0.5158  0.6347 -0.4097
  798MOL0     C 5259   2.257  10.694   3.968  0.1083 -0.7339 -0.1230
  798MOL0     C 5260   2.278  10.785   4.075 -1.2004 -1.0918  0.0884
  798MOL0     C 5261   2.402  10.797   4.137 -0.0757  0.6497  0.0724
  798MOL0     O 5262   2.411  10.879   4.245 -0.2450  0.2677 -0.1722
  798MOL0     C 5263   2.459  10.822   4.360 -0.5785  0.1634 -0.5441
  798MOL0     C 5264   2.558  10.906   4.444 -0.0344  0.1022  0.4476
  798MOL0     C 5265   2.486  11.026   4.487 -0.1988 -0.8712 -0.6630
  798MOL0     C 5266   2.479  11.143   4.382 -0.4905  0.2752 -0.6550
  798MOL0     C 5267   2.587  11.233   4.399  0.3576  0.5899  0.3340
  798MOL0     C 5268   2.690  11.298   4.394  0.1945  1.1734 -0.7508
  798MOL0     C 5269   2.505  10.709   4.105  1.2344 -0.0355  0.2685
  798MOL0     C 5270   2.482  10.612   4.004  0.3781 -0.7740 -0.4519
  798MOL0     H 5271   2.025  10.493   3.654 -0.5399 -1.0720  0.9369
  798MOL0     H 5272   1.917  10.320   3.516 -1.1632  3.2818  1.9146
  798MOL0     H 5273   1.811   9.967   3.488  0.4428  1.3378 -3.0751
  798MOL0     H 5274   1.790  10.140   3.512 -0.0084 -0.3651 -1.7251
  798MOL0     H 5275   1.817  10.129   3.741  3.3525  0.5553 -2.6757
  798MOL0     H 5276   1.877   9.968   3.748 -0.2822  0.3752 -0.5219
  798MOL0     H 5277   1.642   9.933   3.626 -0.7863  0.7247  0.9128
  798MOL0     H 5278   1.608  10.098   3.685  2.1467  2.3269 -1.7288
  798MOL0     H 5279   1.683   9.865   3.876 -0.8291 -0.8720  0.2854
  798MOL0     H 5280   1.615  10.024   3.927 -0.9579 -2.0113  3.1042
  798MOL0     H 5281   1.458   9.823   3.761 -0.1885  1.3140  0.2192
  798MOL0     H 5282   1.406   9.958   3.857 -1.9780 -1.7269  0.0555
  798MOL0     H 5283   1.538   9.706   3.973  2.2993  0.3127  0.9418
  798MOL0     H 5284   1.366   9.766   3.983  0.2001 -1.5343  1.5618
  798MOL0     H 5285   1.506   9.971   4.081 -0.4023 -0.5473 -4.3294
  798MOL0     H 5286   1.402   9.864   4.171 -1.1616  0.0457 -1.8182
  798MOL0     H 5287   1.712   9.810   4.141 -0.0149  0.6603  0.3150
  798MOL0     H 5288   1.598   9.684   4.183  2.0848 -0.6670 -1.9717
  798MOL0     H 5289   1.457   9.699   4.417  0.1556 -1.2130  2.1448
  798MOL0     H 5290   1.570   9.923   4.730  2.5454 -0.7922 -1.5901
  798MOL0     H 5291   1.512   9.754   4.707  0.9702  0.5718  1.2995
  798MOL0     H 5292   1.325   9.879   4.789 -0.6050 -1.2273 -0.7917
  798MOL0     H 5293   1.291   9.838   4.615 -0.1417  1.5804 -0.7712
  798MOL0     H 5294   1.384  10.099   4.707 -0.3482 -0.3020  1.5904
  798MOL0     H 5295   1.357  10.043   4.540 -2.8038 -1.0666 -1.3510
  798MOL0     H 5296   1.124   9.981   4.632  2.4419 -1.9181  3.9380
  798MOL0     H 5297   1.172  10.161   4.597  0.8910  1.5063  0.9692
  798MOL0     H 5298   1.080  10.163   5.038  1.3214  1.5813 -1.4831
  798MOL0     H 5299   0.839  10.202   5.119  0.1446  2.6359 -0.2521
  798MOL0     H 5300   0.440   9.900   4.949 -0.8897  0.1271 -0.9721
  798MOL0     H 5301   0.208   9.837   5.021  0.6205  0.0178 -0.3600
  798MOL0     H 5302  -0.192  10.034   5.012 -0.7349  1.6796 -1.7446
  798MOL0     H 5303  -0.074  10.162   4.964 -0.5143 -0.3394  0.1610
  798MOL0     H 5304  -0.049  10.228   5.193 -0.3236  0.6428  1.8484
  798MOL0     H 5305  -0.157  10.096   5.251 -1.2109  0.3859 -1.0928
  798MOL0     H 5306  -0.346  10.175   5.162 -1.4622  1.1627 -0.0262
  798MOL0     H 5307  -0.267  10.300   5.068 -0.7346  1.6723  1.4162
  798MOL0     H 5308  -0.248  10.274   5.381  1.4116  0.8972 -0.8893
  798MOL0     H 5309  -0.163  10.396   5.295  1.2911 -1.4849  0.1844
  798MOL0     H 5310  -0.363  10.505   5.228 -1.3198 -2.2109 -1.5501
  798MOL0     H 5311  -0.389  10.491   5.406  3.3993 -2.4936  2.2164
  798MOL0     H 5312  -0.542  10.302   5.353 -0.6368 -1.6809 -1.6087
  798MOL0     H 5313  -0.503  10.317   5.185  1.5736 -2.9019  1.3053
  798MOL0     H 5314  -0.577  10.560   5.194 -2.3446  1.3686 -1.5615
  798MOL0     H 5315  -0.699  10.434   5.191 -1.2741 -1.7518  3.2906
  798MOL0     H 5316  -0.623  10.627   5.414  0.4980  0.3545 -2.7648
  798MOL0     H 5317  -0.675  10.466   5.463  2.5276  0.8996 -1.0079
  798MOL0     H 5318   0.103  10.257   5.029 -0.8088 -2.5112  2.0971
  798MOL0     H 5319   0.334  10.306   4.944  1.0924 -0.4794 -1.9322
  798MOL0     H 5320   0.706  10.093   4.729  0.3527 -0.9234 -0.9497
  798MOL0     H 5321   0.943  10.100   4.650 -0.5285 -0.9066  0.1084
  798MOL0     H 5322   2.185  10.035   3.719  1.8164  0.5957  2.4449
  798MOL0     H 5323   2.279  10.211   3.834 -0.4115  0.1666  0.3646
  798MOL0     H 5324   2.158  10.692   3.924 -0.3976  3.5431  0.3636
  798MOL0     H 5325   2.205  10.857   4.108 -2.4986 -1.3712 -1.9498
  798MOL0     H 5326   2.514  10.730   4.341 -1.5040 -0.5343  0.0827
  798MOL0     H 5327   2.373  10.796   4.422  1.7962 -0.3072  2.8822
  798MOL0     H 5328   2.577  10.842   4.531 -0.7003 -0.1980  0.3803
  798MOL0     H 5329   2.649  10.935   4.391 -1.7515 -0.4978 -3.1439
  798MOL0     H 5330   2.533  11.061   4.579  1.8975 -1.6438 -1.3888
  798MOL0     H 5331   2.381  10.998   4.501 -0.9267 -0.2152 -3.9620
  798MOL0     H 5332   2.477  11.113   4.277  1.3380  0.8054 -0.8745
  798MOL0     H 5333   2.383  11.194   4.386 -0.4591  0.2635  1.4099
  798MOL0     H 5334   2.787  11.337   4.369  0.7962 -1.0589 -2.2029
  798MOL0     H 5335   2.601  10.712   4.157  1.1077 -2.4253  0.7188
  798MOL0     H 5336   2.569  10.550   3.980  0.9175 -0.9993  1.8575
  799MOL0     O 5337   7.836   3.688   4.631  0.3264  0.1290 -0.1470
  799MOL0     C 5338   7.861   3.735   4.746  0.0659  0.9931  0.8136
  799MOL0     O 5339   7.773   3.723   4.848  0.1182 -0.2577  0.0382
  799MOL0     C 5340   7.660   3.653   4.833 -0.0372  0.2629 -0.9838
  799MOL0     C 5341   7.655   3.519   4.785  1.2613 -0.7660  0.9838
  799MOL0     C 5342   7.529   3.453   4.774  0.3539  0.1849  0.2370
  799MOL0     C 5343   7.406   3.520   4.811 -0.3570 -0.2525 -0.1265
  799MOL0     O 5344   7.285   3.450   4.794 -0.0773 -0.5754  0.2825
  799MOL0     C 5345   7.158   3.509   4.835 -0.2350  0.6682 -0.1065
  799MOL0     C 5346   7.076   3.561   4.719  0.1309  0.1923  0.5998
  799MOL0     C 5347   6.981   3.673   4.764 -0.3583  0.4102 -0.1627
  799MOL0     C 5348   6.907   3.751   4.646 -0.2593  0.9302 -0.7887
  799MOL0     C 5349   6.808   3.853   4.694 -0.0431 -0.6579  0.6631
  799MOL0     C 5350   6.725   3.892   4.567  0.1468 -0.2502 -0.4654
  799MOL0     C 5351   6.610   3.983   4.606  0.8326 -0.3632  0.6905
  799MOL0     C 5352   6.542   4.044   4.471 -0.3675  0.4721  0.0989
  799MOL0     N 5353   6.480   3.945   4.378  0.2105  0.6871  0.4379
  799MOL0     C 5354   6.374   3.859   4.401  0.9020 -0.4425 -0.4156
  799MOL0     C 5355   6.362   3.786   4.285  1.1548 -0.3756 -0.7451
  799MOL0     C 5356   6.273   3.658   4.273  0.1165 -0.3041 -1.1673
  799MOL0     C 5357   6.166   3.689   4.171 -0.1720  0.0500  0.0814
  799MOL0     C 5358   6.074   3.570   4.148 -0.2829 -0.4604  0.3495
  799MOL0     C 5359   6.003   3.573   4.008  0.9546 -0.4719 -0.1262
  799MOL0     O 5360   5.921   3.692   4.013  0.3011  0.6323 -0.2262
  799MOL0     C 5361   5.846   3.714   3.902  0.4355  0.4351  0.3505
  799MOL0     C 5362   5.755   3.822   3.906  0.2878 -0.7214 -0.2069
  799MOL0     C 5363   5.663   3.854   3.815 -0.4913 -0.3278  0.4602
  799MOL0     C 5364   5.662   3.780   3.698  0.5080  0.5242 -0.2717
  799MOL0     C 5365   5.578   3.809   3.586  0.5127 -0.0016  0.1628
  799MOL0     O 5366   5.460   3.874   3.628  0.3349  0.1681 -0.1982
  799MOL0     C 5367   5.402   3.953   3.537  1.2995 -0.2420  0.5064
  799MOL0     C 5368   5.310   3.903   3.441  0.0057 -0.4575  0.7351
  799MOL0     C 5369   5.241   3.997   3.367 -0.0408 -0.7361  0.4203
  799MOL0     C 5370   5.252   4.141   3.391 -0.0438  0.8187  0.6975
  799MOL0     O 5371   5.190   4.235   3.314 -0.4551 -0.2230 -0.7583
  799MOL0     C 5372   5.200   4.234   3.174  0.5516 -0.3183 -0.2308
  799MOL0     C 5373   5.094   4.339   3.108 -0.1119  0.4811 -0.9410
  799MOL0     C 5374   5.122   4.489   3.143 -0.5708  0.8869  0.4461
  799MOL0     C 5375   5.011   4.588   3.123 -0.1844 -0.2911 -1.0434
  799MOL0     C 5376   4.941   4.587   3.259  0.6195  0.0988  0.5045
  799MOL0     C 5377   4.799   4.640   3.239 -0.6616  0.3254  0.6077
  799MOL0     C 5378   4.710   4.524   3.203 -0.6085  0.8220 -0.2779
  799MOL0     C 5379   4.577   4.584   3.166  0.3077  0.0128  0.1004
  799MOL0    Cl 5380   4.474   4.460   3.083 -0.1937 -0.7024  0.0917
  799MOL0     C 5381   5.344   4.187   3.485  0.0839  0.6963  0.9432
  799MOL0     C 5382   5.424   4.091   3.553  0.1989 -0.1381  0.5220
  799MOL0     O 5383   5.604   3.780   3.471  0.4481 -0.3699  0.0215
  799MOL0     C 5384   5.749   3.668   3.683 -0.1436  0.5159  0.4664
  799MOL0     C 5385   5.834   3.632   3.791 -0.1723  0.3140  0.5496
  799MOL0     N 5386   6.456   3.828   4.197  0.1785 -0.7243 -1.1084
  799MOL0     N 5387   6.525   3.926   4.251 -0.2666  0.6736  0.3649
  799MOL0     C 5388   7.419   3.652   4.854 -0.4917  0.3423 -0.2737
  799MOL0     C 5389   7.541   3.714   4.872  0.1080 -0.1197  0.0276
  799MOL0     C 5390   7.998   3.784   4.784 -0.5108  0.1751 -0.3491
  799MOL0     C 5391   8.037   3.831   4.918  0.6765  0.3824  0.8608
  799MOL0     C 5392   8.174   3.868   4.948  0.8654 -0.0082 -0.5051
  799MOL0     C 5393   8.269   3.864   4.851 -0.3274  0.1679  0.6563
  799MOL0     O 5394   8.390   3.910   4.891 -0.1552  0.6318  0.8191
  799MOL0     C 5395   8.492   3.948   4.790  0.1380  0.2802 -0.7644
  799MOL0     C 5396   8.613   4.014   4.870  0.3755  0.3615 -0.3534
  799MOL0     C 5397   8.701   4.094   4.777 -0.3210 -0.2328  0.3467
  799MOL0     C 5398   8.819   4.157   4.854  0.4816  0.6234  0.0936
  799MOL0     C 5399   8.894   4.248   4.767 -0.6687 -0.3070 -0.0285
  799MOL0     C 5400   8.967   4.321   4.707 -0.7482  0.0066 -0.1843
  799MOL0     C 5401   8.230   3.820   4.722 -0.2062 -1.1246 -0.0124
  799MOL0     C 5402   8.100   3.776   4.692  0.7133 -0.8740  0.9822
  799MOL0     H 5403   7.744   3.466   4.752  2.1489 -0.1931  2.3690
  799MOL0     H 5404   7.528   3.354   4.729  1.1876  0.7768 -1.1233
  799MOL0     H 5405   7.162   3.572   4.924  1.9771  0.1732  0.1902
  799MOL0     H 5406   7.088   3.431   4.865 -1.5847  2.6182  2.1497
  799MOL0     H 5407   7.025   3.482   4.664  0.3662  1.6755 -1.9119
  799MOL0     H 5408   7.153   3.605   4.654 -0.4274  0.9690  0.4566
  799MOL0     H 5409   7.047   3.740   4.820  1.1725 -0.7434 -0.4918
  799MOL0     H 5410   6.903   3.637   4.832 -0.4279 -0.1961 -0.5562
  799MOL0     H 5411   6.971   3.807   4.577  1.6363 -0.7338 -0.4644
  799MOL0     H 5412   6.854   3.676   4.587  1.4780  0.1863 -1.4675
  799MOL0     H 5413   6.867   3.940   4.725 -0.1283  1.1543 -3.6140
  799MOL0     H 5414   6.752   3.814   4.779 -0.9916 -0.9184 -0.0698
  799MOL0     H 5415   6.688   3.802   4.517  1.3340 -1.1988  0.3080
  799MOL0     H 5416   6.788   3.952   4.499 -0.2299 -0.7543 -1.2758
  799MOL0     H 5417   6.527   3.937   4.660 -0.9368  2.4576  0.5321
  799MOL0     H 5418   6.655   4.065   4.662 -1.6326  1.3792  0.2613
  799MOL0     H 5419   6.629   4.093   4.426  0.0695  0.3464  0.7726
  799MOL0     H 5420   6.467   4.120   4.492 -1.9375 -0.5113 -1.6820
  799MOL0     H 5421   6.303   3.848   4.481  1.9647  1.8562  0.9599
  799MOL0     H 5422   6.240   3.627   4.372  3.7585  0.5690  0.5074
  799MOL0     H 5423   6.338   3.580   4.230 -0.6834 -0.3883 -2.2758
  799MOL0     H 5424   6.221   3.699   4.076  1.8669 -1.6391  0.9978
  799MOL0     H 5425   6.121   3.784   4.200 -1.7225 -0.8740  0.7894
  799MOL0     H 5426   6.126   3.476   4.168  1.7227  0.7848  1.2437
  799MOL0     H 5427   6.006   3.562   4.233  0.6397  0.6631  1.2217
  799MOL0     H 5428   5.937   3.487   4.001  1.3941 -0.8499  0.2737
  799MOL0     H 5429   6.077   3.577   3.927  0.3903  0.2452 -0.6245
  799MOL0     H 5430   5.764   3.883   3.995  1.8152  2.7970 -2.5532
  799MOL0     H 5431   5.588   3.931   3.828  0.7914  0.4614  5.0063
  799MOL0     H 5432   5.316   3.800   3.407  0.3929  0.4915 -2.2794
  799MOL0     H 5433   5.188   3.965   3.277  0.5278 -4.0481  1.1305
  799MOL0     H 5434   5.181   4.133   3.139  0.1469 -0.5495  0.6326
  799MOL0     H 5435   5.305   4.256   3.154  0.4025  2.8663  1.7377
  799MOL0     H 5436   5.000   4.326   3.163 -0.2533  0.0911 -1.2654
  799MOL0     H 5437   5.074   4.307   3.005 -3.9308 -3.5973  0.7198
  799MOL0     H 5438   5.206   4.526   3.084 -0.0588  0.0076  0.5942
  799MOL0     H 5439   5.169   4.490   3.242 -0.0642  1.0625  0.2104
  799MOL0     H 5440   5.046   4.690   3.109  0.0303  0.7165  4.6720
  799MOL0     H 5441   4.945   4.547   3.046  0.5138 -1.7024 -0.9317
  799MOL0     H 5442   4.975   4.662   3.332  0.2352 -0.7859  1.6117
  799MOL0     H 5443   4.935   4.486   3.299  0.5954  0.5952  1.8075
  799MOL0     H 5444   4.784   4.723   3.168 -1.9766  0.2051  0.7278
  799MOL0     H 5445   4.759   4.680   3.332 -1.6459  0.4781  0.1322
  799MOL0     H 5446   4.760   4.478   3.118  2.4743  1.0992  1.2483
  799MOL0     H 5447   4.700   4.450   3.282  1.2766  1.5970  0.7608
  799MOL0     H 5448   4.582   4.671   3.101 -0.5340  1.0470  1.3723
  799MOL0     H 5449   4.527   4.619   3.257 -0.4547  0.5755 -0.5216
  799MOL0     H 5450   5.335   4.292   3.508 -0.9574  1.0443 -0.8647
  799MOL0     H 5451   5.500   4.126   3.623 -1.1402  0.2753  1.8302
  799MOL0     H 5452   5.757   3.602   3.597  0.8324 -3.4295  3.3058
  799MOL0     H 5453   5.882   3.535   3.782 -1.5813 -0.4033  0.4167
  799MOL0     H 5454   7.331   3.715   4.849  0.1258  1.1168 -2.4871
  799MOL0     H 5455   7.544   3.820   4.897  4.5521  0.9291 -3.6930
  799MOL0     H 5456   7.959   3.824   4.993 -1.8405  0.7507 -1.5770
  799MOL0     H 5457   8.191   3.913   5.045  1.7046  3.6141 -2.1656
  799MOL0     H 5458   8.456   4.010   4.708  1.8541  2.1403 -0.1944
  799MOL0     H 5459   8.531   3.864   4.733  1.8927  0.3939  0.1793
  799MOL0     H 5460   8.566   4.080   4.943  0.4406 -0.7163  0.6838
  799MOL0     H 5461   8.666   3.942   4.932  2.7759  2.5849  0.3737
  799MOL0     H 5462   8.638   4.171   4.730 -1.3234 -2.0655 -1.4593
  799MOL0     H 5463   8.749   4.030   4.702  1.2397  2.0090 -0.7313
  799MOL0     H 5464   8.773   4.208   4.938 -0.6620 -0.1775 -0.0256
  799MOL0     H 5465   8.885   4.078   4.890 -0.7709 -1.2716 -1.5241
  799MOL0     H 5466   9.023   4.392   4.650  2.2447  0.4560  3.0087
  799MOL0     H 5467   8.309   3.828   4.647  0.4893  2.7554  0.8865
  799MOL0     H 5468   8.086   3.734   4.592 -2.4089  2.4868 -0.2320
  800MOL0     O 5469   5.679   1.130   3.087  0.4054  0.2081 -0.8175
  800MOL0     C 5470   5.647   1.155   3.206  0.4917 -0.4857 -0.1230
  800MOL0     O 5471   5.733   1.214   3.298  0.4438  0.2867  0.1570
  800MOL0     C 5472   5.848   1.281   3.260 -0.2908 -1.1528 -0.7178
  800MOL0     C 5473   5.875   1.350   3.140 -0.5869 -0.1666  0.3301
  800MOL0     C 5474   5.979   1.447   3.121  0.9168 -0.3422 -0.4062
  800MOL0     C 5475   6.071   1.465   3.227 -0.4059 -0.8555 -0.5300
  800MOL0     O 5476   6.174   1.556   3.209  0.0841  0.1166 -0.2332
  800MOL0     C 5477   6.262   1.589   3.320  0.5957 -1.1388 -0.1721
  800MOL0     C 5478   6.364   1.694   3.269  0.5320  1.1977  0.5217
  800MOL0     C 5479   6.442   1.746   3.382  0.4776 -0.1185 -0.0869
  800MOL0     C 5480   6.543   1.855   3.325  0.4582 -0.0835 -0.9208
  800MOL0     C 5481   6.669   1.809   3.251  0.6909 -0.3387 -0.7924
  800MOL0     C 5482   6.771   1.922   3.238  0.0355  0.2043  0.1439
  800MOL0     C 5483   6.717   2.048   3.177 -0.1157  1.2710 -0.0686
  800MOL0     C 5484   6.843   2.145   3.174 -1.5255 -0.4628  0.4807
  800MOL0     N 5485   6.933   2.132   3.057  0.3818 -0.4566 -0.2622
  800MOL0     C 5486   7.063   2.093   3.049  0.5098 -0.1477 -0.5723
  800MOL0     C 5487   7.093   2.085   2.918 -0.2851  0.5160  0.4826
  800MOL0     C 5488   7.226   2.054   2.856  0.5440  0.3845 -0.5953
  800MOL0     C 5489   7.338   2.128   2.928 -0.2963  0.1887  0.6597
  800MOL0     C 5490   7.458   2.043   2.897  0.0331  0.8236  0.4524
  800MOL0     C 5491   7.591   2.087   2.934 -0.1537 -0.5968 -0.2888
  800MOL0     O 5492   7.678   1.974   2.924 -0.4031  0.3846  0.1330
  800MOL0     C 5493   7.817   1.995   2.957  0.2272  0.8259 -0.4444
  800MOL0     C 5494   7.888   1.876   2.948  0.6019 -0.8962 -0.1830
  800MOL0     C 5495   8.026   1.874   2.943  0.6243 -0.0614  0.6369
  800MOL0     C 5496   8.095   1.989   2.980 -0.1399  0.1888 -0.2062
  800MOL0     C 5497   8.246   1.985   3.001  0.3624  0.7196  0.7638
  800MOL0     O 5498   8.305   2.076   3.090 -0.4565  0.5821 -0.4071
  800MOL0     C 5499   8.446   2.089   3.100  0.9290 -0.0747  0.4094
  800MOL0     C 5500   8.481   2.226   3.124 -0.5210 -0.1723  0.3200
  800MOL0     C 5501   8.616   2.257   3.147  0.4159 -0.3707  0.9043
  800MOL0     C 5502   8.707   2.146   3.164  0.2301 -0.6998  0.5961
  800MOL0     O 5503   8.838   2.155   3.202 -0.3661  0.0332 -0.1642
  800MOL0     C 5504   8.886   2.256   3.307  0.0400  0.2511  0.4992
  800MOL0     C 5505   8.954   2.381   3.255  0.3214 -0.2821  0.7304
  800MOL0     C 5506   9.011   2.479   3.366 -0.4291  0.2171 -0.2840
  800MOL0     C 5507   9.017   2.620   3.308  0.2330 -0.2591  0.2312
  800MOL0     C 5508   9.070   2.718   3.408 -0.2290 -0.4533 -0.0163
  800MOL0     C 5509   9.094   2.850   3.336 -0.6257 -0.6932  0.1941
  800MOL0     C 5510   9.108   2.961   3.449 -0.2636  0.2572 -0.6794
  800MOL0     C 5511   9.182   3.085   3.392 -0.4709  0.0601  0.1368
  800MOL0    Cl 5512   9.344   3.055   3.353 -0.1104  0.5444 -0.0461
  800MOL0     C 5513   8.668   2.023   3.126  0.0682  0.1139  0.4094
  800MOL0     C 5514   8.536   1.989   3.095  0.0899 -0.1560 -0.3355
  800MOL0     O 5515   8.303   1.903   2.929 -0.5061 -0.2141  0.5694
  800MOL0     C 5516   8.017   2.104   3.000 -0.6030 -0.6354 -0.2698
  800MOL0     C 5517   7.888   2.109   2.980 -0.1020 -0.2636 -0.2288
  800MOL0     N 5518   6.983   2.118   2.847 -0.4267 -0.0550 -0.5193
  800MOL0     N 5519   6.887   2.150   2.933  0.1233  0.5276  0.2837
  800MOL0     C 5520   6.049   1.391   3.350 -0.1894 -0.1062  0.2839
  800MOL0     C 5521   5.930   1.309   3.364 -0.7502  0.0238 -0.0892
  800MOL0     C 5522   5.530   1.078   3.272 -0.3276  0.2386  0.9625
  800MOL0     C 5523   5.421   1.052   3.193  0.7273 -0.0029  0.7158
  800MOL0     C 5524   5.306   1.005   3.252 -0.0774 -0.9371  0.5590
  800MOL0     C 5525   5.307   0.961   3.382  0.2161 -0.3208 -0.3303
  800MOL0     O 5526   5.187   0.912   3.435 -0.6244 -0.0222 -0.4769
  800MOL0     C 5527   5.194   0.833   3.554 -0.4888  0.2695  0.1701
  800MOL0     C 5528   5.056   0.780   3.600  0.4024 -0.1594 -0.5400
  800MOL0     C 5529   4.946   0.891   3.613 -0.2949  0.4142  0.3610
  800MOL0     C 5530   4.990   1.005   3.703  0.4708  0.7483  0.3094
  800MOL0     C 5531   4.881   1.098   3.734 -0.5356 -0.0158  0.2051
  800MOL0     C 5532   4.793   1.164   3.781 -0.0912 -0.3205  0.3297
  800MOL0     C 5533   5.423   0.988   3.468  0.8484  0.0630  0.5465
  800MOL0     C 5534   5.533   1.051   3.411  0.5596  0.4592  0.0072
  800MOL0     H 5535   5.795   1.344   3.067 -0.3132  3.6689 -0.5061
  800MOL0     H 5536   5.986   1.510   3.033  0.8596  1.1538  0.6228
  800MOL0     H 5537   6.311   1.499   3.359 -0.4103  0.2610  5.1571
  800MOL0     H 5538   6.200   1.617   3.405  1.1099  0.2084 -0.2178
  800MOL0     H 5539   6.315   1.774   3.214  1.5150  2.2112  1.0803
  800MOL0     H 5540   6.430   1.636   3.203 -2.1481 -1.4953 -0.0419
  800MOL0     H 5541   6.492   1.674   3.448  3.3342  2.2318  0.5295
  800MOL0     H 5542   6.367   1.803   3.437  2.3898  1.5359  0.9556
  800MOL0     H 5543   6.482   1.912   3.255 -1.2855 -0.3766  0.2841
  800MOL0     H 5544   6.567   1.925   3.406  1.4577  2.6167 -3.3806
  800MOL0     H 5545   6.638   1.759   3.159  0.4907 -3.1369  0.6910
  800MOL0     H 5546   6.727   1.729   3.298 -0.5005 -0.4833  0.5133
  800MOL0     H 5547   6.853   1.889   3.174 -1.4262  3.3611 -3.7210
  800MOL0     H 5548   6.804   1.933   3.342  1.5198 -0.4108 -0.2301
  800MOL0     H 5549   6.675   2.053   3.076  1.3625  1.9799 -0.6846
  800MOL0     H 5550   6.639   2.083   3.244 -0.0014 -0.9881  1.3606
  800MOL0     H 5551   6.899   2.136   3.267  1.4018  0.9426 -1.0344
  800MOL0     H 5552   6.814   2.250   3.183  1.8435  0.4668  1.7316
  800MOL0     H 5553   7.119   2.061   3.137  0.6327  0.6070 -0.3687
  800MOL0     H 5554   7.233   2.070   2.748 -0.9438 -3.6571 -1.4797
  800MOL0     H 5555   7.229   1.945   2.866 -0.5498  0.2868 -1.1642
  800MOL0     H 5556   7.338   2.111   3.036  4.0247  2.3290  1.1921
  800MOL0     H 5557   7.353   2.229   2.887 -2.2697 -0.6125 -2.3859
  800MOL0     H 5558   7.450   1.943   2.939 -0.1642  0.3961 -0.5522
  800MOL0     H 5559   7.457   2.032   2.788  0.2674  0.3389  0.4968
  800MOL0     H 5560   7.599   2.116   3.039  2.0762 -0.7818 -0.3680
  800MOL0     H 5561   7.637   2.160   2.867  1.2793  0.4456  1.7168
  800MOL0     H 5562   7.836   1.782   2.930  3.0509 -2.2844 -0.4443
  800MOL0     H 5563   8.069   1.776   2.930  0.4760  0.0879 -1.1594
  800MOL0     H 5564   8.423   2.318   3.120  2.9317  2.2106  0.7167
  800MOL0     H 5565   8.641   2.362   3.161  4.1420 -1.0015  0.0816
  800MOL0     H 5566   8.956   2.205   3.374  0.1641  0.8557  0.8318
  800MOL0     H 5567   8.797   2.292   3.360 -1.1649  1.3358 -2.0487
  800MOL0     H 5568   8.881   2.433   3.192  1.5225  0.1834 -0.3414
  800MOL0     H 5569   9.033   2.355   3.184 -0.6519 -1.0055 -0.1160
  800MOL0     H 5570   9.108   2.443   3.400 -1.0442 -1.5754 -0.3067
  800MOL0     H 5571   8.945   2.483   3.454 -0.4936  1.2416 -0.3654
  800MOL0     H 5572   9.083   2.627   3.220 -0.4109 -3.2694 -0.6156
  800MOL0     H 5573   8.920   2.650   3.268  0.1490  0.6392  1.0794
  800MOL0     H 5574   9.169   2.684   3.440 -1.2049 -1.8056  1.7897
  800MOL0     H 5575   9.005   2.744   3.493 -0.7200  0.8572 -0.7585
  800MOL0     H 5576   9.008   2.871   3.272  1.0983 -1.1706 -2.4388
  800MOL0     H 5577   9.185   2.854   3.276  0.3894  0.8667  1.7258
  800MOL0     H 5578   9.005   2.982   3.477 -0.3968 -1.9444  0.7548
  800MOL0     H 5579   9.160   2.907   3.530 -2.5423 -0.8137  0.1446
  800MOL0     H 5580   9.178   3.159   3.473 -0.9681  4.2337 -3.3297
  800MOL0     H 5581   9.133   3.124   3.303  0.7061  1.4420  0.0665
  800MOL0     H 5582   8.745   1.947   3.135  3.2650  2.8225 -1.9796
  800MOL0     H 5583   8.517   1.885   3.069  3.5158 -0.6788 -1.2686
  800MOL0     H 5584   8.070   2.192   3.035  1.4287 -1.5595 -0.8809
  800MOL0     H 5585   7.838   2.205   2.979 -5.6731 -2.7108  1.6316
  800MOL0     H 5586   6.092   1.412   3.447 -3.4278  1.1736  1.5705
  800MOL0     H 5587   5.920   1.258   3.459  2.3873  0.1709  0.4295
  800MOL0     H 5588   5.417   1.072   3.086 -0.4114 -1.5416  0.4353
  800MOL0     H 5589   5.220   0.992   3.187  1.1852  0.3918 -1.4919
  800MOL0     H 5590   5.236   0.880   3.643 -0.2606  0.3248  0.0365
  800MOL0     H 5591   5.263   0.750   3.536 -1.1531  0.2177 -2.5610
  800MOL0     H 5592   5.011   0.716   3.523  0.6608  2.1697 -2.7501
  800MOL0     H 5593   5.069   0.723   3.693  0.3220  1.4808  0.5030
  800MOL0     H 5594   4.848   0.855   3.645  0.8278 -1.5092  1.8909
  800MOL0     H 5595   4.926   0.933   3.514  1.6304  3.7451  1.2138
  800MOL0     H 5596   5.022   0.967   3.800 -5.3938 -3.7848  1.0257
  800MOL0     H 5597   5.058   1.060   3.638  0.3250 -0.5183 -0.9692
  800MOL0     H 5598   4.709   1.217   3.821 -0.0268 -0.3078  0.4477
  800MOL0     H 5599   5.421   0.963   3.573 -2.3453  2.7739  1.2905
  800MOL0     H 5600   5.628   1.068   3.459 -0.3000  2.4243  1.1533
  801MOL0     O 5601  10.749   0.921   6.119 -0.0318 -0.0894  0.1208
  801MOL0     C 5602  10.709   0.808   6.138  0.1651  0.1683 -0.4125
  801MOL0     O 5603  10.582   0.770   6.178  0.0319  0.3227  0.2698
  801MOL0     C 5604  10.501   0.872   6.220 -0.0710 -0.3587 -0.3317
  801MOL0     C 5605  10.420   0.917   6.121  0.2690  0.1857 -0.3523
  801MOL0     C 5606  10.313   1.010   6.144  0.3709 -0.2098 -0.7010
  801MOL0     C 5607  10.305   1.071   6.276  0.7133  0.5747  0.4455
  801MOL0     O 5608  10.219   1.165   6.309 -0.0000 -0.0493 -0.1208
  801MOL0     C 5609  10.111   1.121   6.402 -0.5892 -0.7914  0.4941
  801MOL0     C 5610   9.991   1.210   6.395 -0.2280 -0.0234  0.5970
  801MOL0     C 5611   9.887   1.179   6.498  0.8026  0.5010 -0.7530
  801MOL0     C 5612   9.841   1.037   6.499 -0.0268 -0.6712  0.3698
  801MOL0     C 5613   9.716   1.013   6.589 -0.6885  0.0987  0.3542
  801MOL0     C 5614   9.665   0.871   6.558 -0.0262  0.1110  0.6868
  801MOL0     C 5615   9.520   0.866   6.611  0.5437 -0.1070 -0.3326
  801MOL0     C 5616   9.461   0.733   6.578  0.1877 -0.3136  1.3452
  801MOL0     N 5617   9.322   0.721   6.620 -0.1009 -1.2591 -0.6736
  801MOL0     C 5618   9.218   0.719   6.527 -0.3181 -0.6408  0.0045
  801MOL0     C 5619   9.105   0.692   6.588  0.0436  0.4543 -0.6407
  801MOL0     C 5620   8.968   0.644   6.533 -0.3989 -1.5369  0.1389
  801MOL0     C 5621   8.981   0.506   6.462  0.4470 -0.5121  0.5381
  801MOL0     C 5622   9.010   0.399   6.563 -0.3608  0.4445 -0.2741
  801MOL0     C 5623   9.061   0.279   6.489 -0.5109 -1.0170 -0.1623
  801MOL0     O 5624   9.118   0.181   6.575  0.2087  0.0093 -0.0382
  801MOL0     C 5625   9.185   0.076   6.517  0.2468 -0.2860 -0.6158
  801MOL0     C 5626   9.187   0.047   6.380  0.2484 -0.0869 -0.7261
  801MOL0     C 5627   9.261  -0.063   6.334 -0.2257 -0.1369 -0.1245
  801MOL0     C 5628   9.328  -0.151   6.422 -0.4759 -0.0041 -0.2805
  801MOL0     C 5629   9.398  -0.268   6.370  0.3502  1.2385 -1.0326
  801MOL0     O 5630   9.457  -0.349   6.468  0.0521 -0.6509 -0.2760
  801MOL0     C 5631   9.506  -0.470   6.432 -0.3232  0.4537 -0.5809
  801MOL0     C 5632   9.471  -0.561   6.328 -0.1179 -0.2477  0.1774
  801MOL0     C 5633   9.541  -0.688   6.314  0.1846 -0.3088  0.2197
  801MOL0     C 5634   9.635  -0.728   6.403 -0.3997  0.0839 -0.1768
  801MOL0     O 5635   9.693  -0.850   6.377 -0.1420  0.6223 -0.4321
  801MOL0     C 5636   9.810  -0.884   6.443 -0.0327 -0.3923  0.7817
  801MOL0     C 5637   9.894  -1.010   6.401  0.6209  0.4843  0.4122
  801MOL0     C 5638   9.946  -0.996   6.264 -0.1292 -0.1117  1.4085
  801MOL0     C 5639  10.042  -1.119   6.234 -0.1183 -0.3193 -0.1816
  801MOL0     C 5640  10.098  -1.099   6.090  0.6067 -0.1400  0.8347
  801MOL0     C 5641  10.169  -1.228   6.046 -0.2245 -0.0443 -0.1227
  801MOL0     C 5642  10.275  -1.194   5.937  0.6908  0.3122 -0.9730
  801MOL0     C 5643  10.362  -1.311   5.887 -0.2843  0.1620 -0.5255
  801MOL0    Cl 5644  10.490  -1.242   5.774  0.2607  0.1789 -0.1661
  801MOL0     C 5645   9.666  -0.640   6.508  0.3390  0.2896  0.2509
  801MOL0     C 5646   9.602  -0.517   6.527  0.3543 -0.1463 -0.4844
  801MOL0     O 5647   9.396  -0.292   6.251 -0.0042  0.3384 -0.2057
  801MOL0     C 5648   9.327  -0.116   6.559 -0.4220  0.5536 -0.1918
  801MOL0     C 5649   9.247  -0.013   6.600  0.8636  0.2732 -0.9993
  801MOL0     N 5650   9.138   0.673   6.721 -0.5875 -0.3352 -0.5878
  801MOL0     N 5651   9.267   0.684   6.735  0.9965  0.1898 -0.9212
  801MOL0     C 5652  10.410   1.038   6.373  0.4717  0.2197  0.6206
  801MOL0     C 5653  10.496   0.926   6.340 -0.4677 -0.5507 -0.4095
  801MOL0     C 5654  10.809   0.694   6.122 -0.5065  0.2968 -0.5612
  801MOL0     C 5655  10.912   0.709   6.031  0.3086 -0.1565 -0.0034
  801MOL0     C 5656  11.021   0.618   6.017  1.2493 -0.6150  0.1737
  801MOL0     C 5657  11.016   0.504   6.087 -0.2207  0.1911 -0.1733
  801MOL0     O 5658  11.124   0.421   6.071 -0.4460 -0.5908 -0.4009
  801MOL0     C 5659  11.134   0.295   6.142  0.0975  0.1794 -0.3021
  801MOL0     C 5660  11.282   0.236   6.130  0.4416 -0.1386  0.8785
  801MOL0     C 5661  11.312   0.170   5.999  0.0621  0.1011  0.2836
  801MOL0     C 5662  11.462   0.151   5.982  0.3515  0.6602  0.4335
  801MOL0     C 5663  11.506   0.026   6.056 -0.4168  0.3770  0.4748
  801MOL0     C 5664  11.540  -0.083   6.099  0.5282  1.0691  0.1238
  801MOL0     C 5665  10.902   0.473   6.168 -0.1366 -0.2928 -1.0072
  801MOL0     C 5666  10.807   0.576   6.201  0.0024  0.4216  0.6824
  801MOL0     H 5667  10.425   0.872   6.022  0.4015  2.0419 -1.2432
  801MOL0     H 5668  10.239   1.047   6.074  0.3052 -0.4021 -0.7331
  801MOL0     H 5669  10.147   1.114   6.505 -2.1072  0.3206  1.1427
  801MOL0     H 5670  10.090   1.021   6.363 -0.2980 -0.4390 -0.5863
  801MOL0     H 5671   9.949   1.208   6.294  0.5362 -3.0196  0.2500
  801MOL0     H 5672  10.033   1.307   6.424 -1.1861  1.4771 -2.5913
  801MOL0     H 5673   9.807   1.248   6.472  0.9037  1.8578  2.1678
  801MOL0     H 5674   9.899   1.216   6.601  0.8861  2.0013 -1.2719
  801MOL0     H 5675   9.818   1.005   6.397 -1.1514 -0.4709  0.5479
  801MOL0     H 5676   9.933   0.991   6.538  0.6818  0.7025  0.4031
  801MOL0     H 5677   9.636   1.082   6.562 -0.6538  0.1745  0.4447
  801MOL0     H 5678   9.741   1.026   6.695 -1.6967 -1.1198  0.7559
  801MOL0     H 5679   9.730   0.795   6.603  0.1491 -0.5487 -0.6324
  801MOL0     H 5680   9.658   0.849   6.452 -0.2093  0.9708  0.5109
  801MOL0     H 5681   9.521   0.876   6.720  1.8496 -0.8955 -0.2429
  801MOL0     H 5682   9.451   0.943   6.576 -1.4356 -1.1419  1.0971
  801MOL0     H 5683   9.516   0.655   6.632 -2.3604 -2.6895  0.7592
  801MOL0     H 5684   9.479   0.722   6.470  1.1778  2.0891  1.2090
  801MOL0     H 5685   9.240   0.733   6.422  4.3094 -1.8194  0.6003
  801MOL0     H 5686   8.930   0.714   6.458 -0.7920  1.2297  2.7252
  801MOL0     H 5687   8.886   0.639   6.605 -1.1165  1.7474 -0.2624
  801MOL0     H 5688   9.056   0.518   6.384  0.5970  0.8616  0.8662
  801MOL0     H 5689   8.894   0.478   6.403  1.4874  2.7862 -2.9084
  801MOL0     H 5690   9.089   0.433   6.630  1.9914 -0.9957 -2.1509
  801MOL0     H 5691   8.916   0.380   6.616 -1.7964 -0.0339 -2.7973
  801MOL0     H 5692   9.141   0.309   6.420 -0.4755 -3.3736 -1.2566
  801MOL0     H 5693   8.984   0.254   6.414  0.5116 -0.4208 -1.4575
  801MOL0     H 5694   9.134   0.114   6.314  1.9321  2.6428  0.4866
  801MOL0     H 5695   9.258  -0.083   6.227 -0.1463  1.3096 -0.4099
  801MOL0     H 5696   9.390  -0.539   6.259  0.5719  1.0607 -0.2452
  801MOL0     H 5697   9.527  -0.760   6.234 -1.8678  2.1743 -1.8334
  801MOL0     H 5698   9.791  -0.903   6.549  3.0091  1.8732  1.9022
  801MOL0     H 5699   9.877  -0.798   6.453 -1.9015  0.9303  2.7969
  801MOL0     H 5700   9.821  -1.091   6.396 -1.0565  1.6814  3.0106
  801MOL0     H 5701   9.968  -1.041   6.476 -2.1378 -4.1776  1.6172
  801MOL0     H 5702   9.992  -0.902   6.235  2.3841 -2.5968 -4.2706
  801MOL0     H 5703   9.856  -1.004   6.202  0.7705  1.4826 -0.1991
  801MOL0     H 5704  10.111  -1.115   6.319 -1.0781 -0.2241  0.6061
  801MOL0     H 5705   9.987  -1.213   6.240 -4.3019  1.9219  0.2816
  801MOL0     H 5706  10.164  -1.012   6.084  0.5942 -0.2371 -2.9893
  801MOL0     H 5707  10.025  -1.078   6.011 -0.0459 -1.3640  1.0920
  801MOL0     H 5708  10.104  -1.306   6.005  1.4872  0.3818 -4.1085
  801MOL0     H 5709  10.221  -1.284   6.124 -2.1143 -0.5199  0.8599
  801MOL0     H 5710  10.226  -1.151   5.849  1.4919  1.5120 -0.8552
  801MOL0     H 5711  10.340  -1.124   5.989 -2.7345  0.2861  4.1120
  801MOL0     H 5712  10.299  -1.378   5.827  0.7153 -1.2942 -0.0030
  801MOL0     H 5713  10.412  -1.366   5.967 -2.0592  3.5105  3.2135
  801MOL0     H 5714   9.740  -0.672   6.580  0.5884  1.8576  0.7166
  801MOL0     H 5715   9.641  -0.459   6.610 -2.0701  0.6594  0.1799
  801MOL0     H 5716   9.369  -0.176   6.639 -0.0557  1.0550 -0.0015
  801MOL0     H 5717   9.244  -0.003   6.707  0.3457 -0.7660 -0.9002
  801MOL0     H 5718  10.418   1.081   6.473  2.9915  0.5701  0.3491
  801MOL0     H 5719  10.566   0.883   6.410 -1.9538 -1.1538  0.7569
  801MOL0     H 5720  10.906   0.801   5.974 -0.6974 -1.2511 -1.7630
  801MOL0     H 5721  11.108   0.631   5.954  2.2880 -1.5519  1.3804
  801MOL0     H 5722  11.068   0.219   6.099 -1.5439  1.5710 -0.3427
  801MOL0     H 5723  11.111   0.307   6.248  1.1645 -2.3924  0.2955
  801MOL0     H 5724  11.351   0.319   6.147 -0.3217  1.3372 -2.3880
  801MOL0     H 5725  11.301   0.156   6.201 -0.6762 -2.9835 -1.7720
  801MOL0     H 5726  11.284   0.242   5.921 -2.1320  1.9170  2.5666
  801MOL0     H 5727  11.262   0.073   5.989  3.0347 -1.9188  3.2237
  801MOL0     H 5728  11.478   0.135   5.875 -0.4284  0.4488  0.3445
  801MOL0     H 5729  11.516   0.242   6.010 -0.5088  1.4672 -0.4535
  801MOL0     H 5730  11.579  -0.177   6.135  1.0091  1.1718 -0.1158
  801MOL0     H 5731  10.900   0.382   6.227 -0.3841  0.3179 -0.0436
  801MOL0     H 5732  10.732   0.550   6.274  0.5806 -5.0130 -0.2121
  802MOL0     O 5733   4.280   5.782   3.612  0.0766  0.3815 -0.2416
  802MOL0     C 5734   4.301   5.692   3.693 -0.0056  0.5169  0.3788
  802MOL0     O 5735   4.256   5.565   3.666 -1.4370 -0.1470  0.1500
  802MOL0     C 5736   4.175   5.530   3.563 -0.5481 -0.3334  0.0825
  802MOL0     C 5737   4.188   5.571   3.428  0.4686  0.6978  0.8915
  802MOL0     C 5738   4.101   5.536   3.331 -0.0343  1.2639 -0.3922
  802MOL0     C 5739   3.992   5.444   3.362 -0.2585  0.0776 -0.5322
  802MOL0     O 5740   3.909   5.386   3.272 -0.1398 -0.1257  0.2861
  802MOL0     C 5741   3.906   5.450   3.135 -0.6328  1.3164  0.1531
  802MOL0     C 5742   4.004   5.380   3.029 -0.5322  0.7816 -0.8421
  802MOL0     C 5743   4.036   5.479   2.914  0.5474 -0.0208  0.5006
  802MOL0     C 5744   4.134   5.434   2.809 -0.2169  0.0938 -0.4991
  802MOL0     C 5745   4.106   5.283   2.783 -0.5698  0.0064 -1.3348
  802MOL0     C 5746   4.212   5.243   2.686 -0.0480  0.3362 -0.6957
  802MOL0     C 5747   4.361   5.259   2.733  0.3745 -0.3839  0.7234
  802MOL0     C 5748   4.446   5.153   2.666 -0.0806 -0.3565 -0.3907
  802MOL0     N 5749   4.442   5.149   2.519 -0.0897 -0.3862 -0.8364
  802MOL0     C 5750   4.489   5.254   2.442  0.3051 -0.5480  0.2601
  802MOL0     C 5751   4.465   5.217   2.315 -0.3800  0.8037  0.2067
  802MOL0     C 5752   4.495   5.303   2.195  0.1844 -0.0342  0.4153
  802MOL0     C 5753   4.565   5.212   2.088 -1.0457  0.1554 -0.7117
  802MOL0     C 5754   4.683   5.273   2.014 -0.0152  0.7529 -0.2799
  802MOL0     C 5755   4.764   5.174   1.934  0.7238 -0.8919  0.2274
  802MOL0     O 5756   4.853   5.098   2.021  0.5366 -0.2472 -0.2072
  802MOL0     C 5757   4.960   5.047   1.951  0.2177  0.9140 -1.6191
  802MOL0     C 5758   5.058   4.999   2.031 -0.4647 -0.1274 -0.1936
  802MOL0     C 5759   5.172   4.931   1.978  0.0823  1.9601 -0.0252
  802MOL0     C 5760   5.203   4.935   1.845 -0.1870  0.4354  0.5480
  802MOL0     C 5761   5.331   4.868   1.797  0.1033 -0.8922 -0.1462
  802MOL0     O 5762   5.424   4.831   1.888  0.6048  0.4360 -0.1483
  802MOL0     C 5763   5.553   4.804   1.861 -0.0276 -1.5806 -0.5854
  802MOL0     C 5764   5.633   4.828   1.968 -1.4154  0.1707 -0.3924
  802MOL0     C 5765   5.769   4.828   1.959  0.3197 -0.7479  0.6031
  802MOL0     C 5766   5.830   4.816   1.837  0.8183 -0.2981 -0.4809
  802MOL0     O 5767   5.964   4.836   1.810  0.8952 -0.2967 -0.5230
  802MOL0     C 5768   6.054   4.869   1.924 -0.1770  0.6829 -0.5238
  802MOL0     C 5769   6.199   4.880   1.882 -1.0320 -0.8671 -0.6846
  802MOL0     C 5770   6.294   4.876   2.000  0.5424 -1.0205  0.1254
  802MOL0     C 5771   6.440   4.908   1.964 -0.9469 -0.0469  0.3138
  802MOL0     C 5772   6.531   4.860   2.081  1.3483  0.2182 -0.4056
  802MOL0     C 5773   6.682   4.903   2.070  0.6033 -0.3584  0.1136
  802MOL0     C 5774   6.770   4.875   2.191 -0.2501 -0.1361  0.0921
  802MOL0     C 5775   6.907   4.920   2.172 -0.2338 -0.0470 -0.6089
  802MOL0    Cl 5776   6.918   5.102   2.186  0.0612  0.0163 -0.0992
  802MOL0     C 5777   5.756   4.783   1.726  0.1510  0.4984 -0.0766
  802MOL0     C 5778   5.616   4.778   1.739  0.8597  0.6781  1.4451
  802MOL0     O 5779   5.338   4.841   1.680  0.3522 -0.3270  0.2362
  802MOL0     C 5780   5.099   4.988   1.753 -0.5222 -0.5949 -1.0105
  802MOL0     C 5781   4.983   5.043   1.812 -0.1537 -0.5429  0.6012
  802MOL0     N 5782   4.416   5.088   2.317  0.4129  0.4091 -0.3665
  802MOL0     N 5783   4.413   5.040   2.434  0.6863  0.6934 -0.3805
  802MOL0     C 5784   3.974   5.410   3.490  0.1760 -0.6388 -0.9573
  802MOL0     C 5785   4.059   5.454   3.595 -0.0423  0.0831  0.2739
  802MOL0     C 5786   4.367   5.723   3.818  0.6506 -0.3509 -0.4938
  802MOL0     C 5787   4.393   5.853   3.867 -0.7542  0.5265 -0.6743
  802MOL0     C 5788   4.473   5.867   3.985 -0.3141  0.4538 -0.3186
  802MOL0     C 5789   4.508   5.756   4.059  0.2832 -0.7675  0.9854
  802MOL0     O 5790   4.598   5.779   4.162 -0.6780 -0.2701  0.3881
  802MOL0     C 5791   4.676   5.682   4.233 -0.7727  0.4793  0.2574
  802MOL0     C 5792   4.735   5.751   4.354 -0.4709 -0.0699  0.1657
  802MOL0     C 5793   4.833   5.861   4.293 -0.0648 -1.0422 -0.1473
  802MOL0     C 5794   4.894   5.941   4.417 -0.7762  0.0506  0.7572
  802MOL0     C 5795   5.014   5.999   4.371 -1.0478 -0.8953 -0.1884
  802MOL0     C 5796   5.124   6.049   4.353 -0.9234  0.7235  0.3222
  802MOL0     C 5797   4.483   5.629   4.007 -0.5568 -0.3246  0.3806
  802MOL0     C 5798   4.408   5.616   3.893  0.1791 -0.6600 -0.4144
  802MOL0     H 5799   4.271   5.628   3.389  1.0910 -0.8204 -0.0727
  802MOL0     H 5800   4.124   5.574   3.232 -0.1887 -0.8605 -1.3038
  802MOL0     H 5801   3.932   5.556   3.148 -0.3274  1.1015  1.5389
  802MOL0     H 5802   3.805   5.439   3.096 -0.7605  0.5282  0.6868
  802MOL0     H 5803   3.958   5.285   2.999  0.6567  1.2810 -4.9249
  802MOL0     H 5804   4.100   5.357   3.076 -2.1544 -0.4755  2.1686
  802MOL0     H 5805   4.063   5.581   2.943  1.0471  0.8203 -2.5607
  802MOL0     H 5806   3.937   5.483   2.869 -0.9478 -4.0759  2.8955
  802MOL0     H 5807   4.106   5.491   2.720  0.5056 -0.1429 -0.8837
  802MOL0     H 5808   4.237   5.457   2.838 -0.8726  3.6295 -0.6071
  802MOL0     H 5809   4.005   5.272   2.743 -0.7826  3.0077 -1.8557
  802MOL0     H 5810   4.117   5.222   2.873 -0.9980  0.8437 -0.6936
  802MOL0     H 5811   4.181   5.307   2.603  1.6411  0.3791 -1.3381
  802MOL0     H 5812   4.190   5.137   2.668 -0.7744  0.4906 -0.7468
  802MOL0     H 5813   4.393   5.361   2.709 -1.2396  0.0388  0.2302
  802MOL0     H 5814   4.360   5.259   2.842 -1.0086  2.8790  0.8447
  802MOL0     H 5815   4.398   5.060   2.698 -0.7152  0.2694  0.5325
  802MOL0     H 5816   4.545   5.150   2.713 -0.6488 -0.1154  0.8618
  802MOL0     H 5817   4.525   5.350   2.478 -2.7942  1.1940 -0.8439
  802MOL0     H 5818   4.570   5.373   2.233 -0.9917  1.0758  0.7749
  802MOL0     H 5819   4.410   5.351   2.146  0.5030 -2.7060 -3.1422
  802MOL0     H 5820   4.494   5.170   2.016 -0.4631 -1.5519 -0.3414
  802MOL0     H 5821   4.607   5.125   2.140 -1.9900  0.6329  0.9145
  802MOL0     H 5822   4.651   5.347   1.940  0.0986 -0.0826 -1.1849
  802MOL0     H 5823   4.749   5.311   2.093  1.0021  0.2193 -0.8530
  802MOL0     H 5824   4.807   5.238   1.856 -1.2040 -1.0198 -0.9919
  802MOL0     H 5825   4.698   5.105   1.881  1.0733 -1.0436 -0.0199
  802MOL0     H 5826   5.062   5.024   2.137  0.0811  1.0304 -0.4662
  802MOL0     H 5827   5.246   4.892   2.047  1.3111 -0.3055 -2.4133
  802MOL0     H 5828   5.587   4.860   2.062 -0.3293  0.6530 -0.0144
  802MOL0     H 5829   5.824   4.847   2.051  0.8544 -0.0672  0.1462
  802MOL0     H 5830   6.050   4.792   2.002  0.6013  1.3810  0.2117
  802MOL0     H 5831   6.032   4.966   1.969  1.3625  0.2021  1.4068
  802MOL0     H 5832   6.202   4.977   1.833  1.7128  0.2360  1.4201
  802MOL0     H 5833   6.221   4.808   1.801 -1.5151 -2.5152  0.5859
  802MOL0     H 5834   6.295   4.780   2.053 -1.6857 -1.2874 -0.2082
  802MOL0     H 5835   6.280   4.960   2.068  0.5955 -2.9959  2.7483
  802MOL0     H 5836   6.461   4.851   1.873 -0.3688 -1.0759  1.0824
  802MOL0     H 5837   6.445   5.015   1.940 -1.6787  0.1713  1.1030
  802MOL0     H 5838   6.507   4.753   2.081 -0.6111  0.5908  1.0474
  802MOL0     H 5839   6.481   4.906   2.167  1.4250  1.3619 -0.9485
  802MOL0     H 5840   6.674   5.012   2.063 -2.1544 -0.4709  0.4063
  802MOL0     H 5841   6.728   4.869   1.977 -1.2624  2.1156 -1.8579
  802MOL0     H 5842   6.731   4.919   2.283  1.4839 -0.5250  1.0732
  802MOL0     H 5843   6.772   4.771   2.223  1.1373  0.0621  0.7634
  802MOL0     H 5844   6.948   4.887   2.076 -0.4849 -0.6654 -0.5063
  802MOL0     H 5845   6.973   4.890   2.254 -0.4044  1.1535 -0.0038
  802MOL0     H 5846   5.808   4.768   1.632  1.1732  0.3026  0.5069
  802MOL0     H 5847   5.554   4.761   1.652  4.3418 -2.1848 -0.7312
  802MOL0     H 5848   5.103   5.006   1.646 -0.6752  2.7718 -0.5704
  802MOL0     H 5849   4.918   5.085   1.736  2.2641  2.0239 -0.2046
  802MOL0     H 5850   3.891   5.344   3.511  2.1160 -3.0335 -0.2375
  802MOL0     H 5851   4.033   5.423   3.696 -1.7842 -0.1395 -0.2202
  802MOL0     H 5852   4.368   5.938   3.804  1.0301 -0.0045 -2.2087
  802MOL0     H 5853   4.514   5.963   4.013  3.2656 -1.2983  1.0393
  802MOL0     H 5854   4.746   5.634   4.164 -2.1460 -1.4187  0.0877
  802MOL0     H 5855   4.611   5.598   4.260  2.8749 -2.7333 -0.0691
  802MOL0     H 5856   4.658   5.786   4.424  0.9428  2.1469  0.7310
  802MOL0     H 5857   4.799   5.682   4.411  0.4960 -1.8155 -2.8185
  802MOL0     H 5858   4.777   5.931   4.231  0.3789 -0.4457  0.1254
  802MOL0     H 5859   4.910   5.810   4.235 -0.5373 -1.7656 -0.1526
  802MOL0     H 5860   4.822   6.014   4.455 -1.8156 -0.4517 -0.1928
  802MOL0     H 5861   4.915   5.874   4.501 -0.9040 -0.2062  0.5849
  802MOL0     H 5862   5.223   6.087   4.366  0.2120 -1.1336 -2.1191
  802MOL0     H 5863   4.519   5.535   4.047  0.9590  0.1720  0.2413
  802MOL0     H 5864   4.396   5.515   3.858  0.3020 -1.2081  1.0497
  803MOL0     O 5865   5.020   0.210   9.765  0.3490  0.8397  0.0669
  803MOL0     C 5866   4.984   0.312   9.711  0.3898 -0.2126  0.4606
  803MOL0     O 5867   5.066   0.400   9.655 -0.0639 -0.3249 -0.2616
  803MOL0     C 5868   5.198   0.391   9.682  0.3006  0.2247 -0.3875
  803MOL0     C 5869   5.249   0.382   9.817 -0.6637 -0.6084 -0.3219
  803MOL0     C 5870   5.391   0.383   9.835 -0.6015 -0.4433  0.1688
  803MOL0     C 5871   5.482   0.380   9.720 -0.5932  0.2076 -0.1211
  803MOL0     O 5872   5.617   0.357   9.740  0.0082 -0.4032 -0.8113
  803MOL0     C 5873   5.679   0.416   9.846  0.5192 -0.1342 -0.3379
  803MOL0     C 5874   5.823   0.403   9.847 -0.8153  0.4323 -0.6988
  803MOL0     C 5875   5.885   0.485   9.970  0.6517 -0.2077 -0.3431
  803MOL0     C 5876   6.037   0.496   9.944 -0.0674 -0.5321 -0.6527
  803MOL0     C 5877   6.086   0.601   9.844 -0.4009 -0.8480 -0.5137
  803MOL0     C 5878   6.121   0.738   9.913  0.5471  0.0294 -0.5614
  803MOL0     C 5879   6.178   0.843   9.823  0.7646  0.0165 -0.5367
  803MOL0     C 5880   6.171   0.992   9.872 -0.4918 -0.1653  0.7296
  803MOL0     N 5881   6.256   1.018   9.989  0.3305  0.6901 -0.2201
  803MOL0     C 5882   6.379   1.065   9.990 -0.3378  0.4295 -0.1362
  803MOL0     C 5883   6.415   1.087  10.122  0.8669  1.2089 -0.6316
  803MOL0     C 5884   6.537   1.148  10.174 -0.0925  0.6205 -0.5945
  803MOL0     C 5885   6.647   1.048  10.217  0.0104 -0.9961 -0.4611
  803MOL0     C 5886   6.704   0.988  10.092 -0.6776  0.4133  0.2257
  803MOL0     C 5887   6.816   0.892  10.127 -1.1282 -0.5377 -0.4636
  803MOL0     O 5888   6.895   0.867  10.010  0.0275  0.2736 -0.3319
  803MOL0     C 5889   7.014   0.929   9.986 -0.3953  0.5625  0.0216
  803MOL0     C 5890   7.104   0.867   9.890  0.3110 -0.0276  0.3984
  803MOL0     C 5891   7.232   0.915   9.864 -0.0034 -0.0176  0.8905
  803MOL0     C 5892   7.282   1.027   9.935  0.7011  0.5573  0.6569
  803MOL0     C 5893   7.414   1.088   9.892 -0.0948 -0.2960  0.2982
  803MOL0     O 5894   7.473   1.027   9.788 -0.4483  0.0142 -0.4562
  803MOL0     C 5895   7.580   1.093   9.728  0.4646 -0.6309 -0.5794
  803MOL0     C 5896   7.590   1.232   9.710 -0.5689  0.1301  0.0218
  803MOL0     C 5897   7.702   1.290   9.643  1.3542  1.3202  0.8675
  803MOL0     C 5898   7.807   1.205   9.590  0.3540 -0.2604  0.2297
  803MOL0     O 5899   7.917   1.238   9.526  0.1291 -0.8145  0.7897
  803MOL0     C 5900   7.944   1.378   9.504 -0.6940 -0.7202  0.2390
  803MOL0     C 5901   7.878   1.453   9.388 -0.1772 -0.5032  0.5447
  803MOL0     C 5902   7.971   1.576   9.347  0.2908  0.1386  0.3882
  803MOL0     C 5903   7.959   1.686   9.448 -0.8594  0.6307  0.6925
  803MOL0     C 5904   8.023   1.806   9.390  0.5942  0.3258 -0.0947
  803MOL0     C 5905   8.163   1.783   9.325  0.5218 -0.4719 -0.0486
  803MOL0     C 5906   8.199   1.928   9.282 -0.2465  0.7139 -0.7331
  803MOL0     C 5907   8.327   1.933   9.203  0.0980 -0.6981  0.2418
  803MOL0    Cl 5908   8.364   1.795   9.100  0.3883 -0.2481  0.1497
  803MOL0     C 5909   7.781   1.072   9.596 -0.0469  0.0383  0.8189
  803MOL0     C 5910   7.672   1.015   9.672 -0.5293 -0.3253  0.1048
  803MOL0     O 5911   7.464   1.181   9.949  1.1208  0.0974 -0.5347
  803MOL0     C 5912   7.194   1.087  10.027 -0.0648  0.3971 -0.3802
  803MOL0     C 5913   7.066   1.041  10.062  0.7925  0.1531 -0.6245
  803MOL0     N 5914   6.302   1.063  10.194  0.6097  0.0672 -0.0204
  803MOL0     N 5915   6.210   1.019  10.113  0.1635 -0.0977 -0.2864
  803MOL0     C 5916   5.431   0.386   9.588  0.1176 -0.2157 -0.4334
  803MOL0     C 5917   5.294   0.401   9.575  0.8366  0.3735  0.2663
  803MOL0     C 5918   4.841   0.341   9.706  0.1324  0.0548 -0.9701
  803MOL0     C 5919   4.806   0.471   9.666 -0.2698 -0.4403 -0.0334
  803MOL0     C 5920   4.672   0.504   9.657 -0.4755 -0.1916 -0.5303
  803MOL0     C 5921   4.571   0.416   9.693 -0.0656 -0.7131 -0.2996
  803MOL0     O 5922   4.432   0.436   9.694 -0.3405 -0.2408  0.0675
  803MOL0     C 5923   4.372   0.553   9.636 -0.0102  0.5274  0.3819
  803MOL0     C 5924   4.376   0.536   9.482 -0.8051 -0.7798  0.9469
  803MOL0     C 5925   4.328   0.403   9.430 -0.4490 -0.3950 -0.4896
  803MOL0     C 5926   4.234   0.415   9.303  0.6863 -0.7475 -0.4830
  803MOL0     C 5927   4.276   0.523   9.212 -0.3725 -0.8620 -0.3124
  803MOL0     C 5928   4.302   0.609   9.124 -0.6619  0.4600 -0.1541
  803MOL0     C 5929   4.605   0.282   9.710 -0.9061 -0.0016 -0.5779
  803MOL0     C 5930   4.736   0.246   9.717 -0.2545  0.5255 -0.0932
  803MOL0     H 5931   5.189   0.373   9.907  0.8102 -0.9549  0.6531
  803MOL0     H 5932   5.429   0.371   9.936 -3.0821  2.2780  1.5605
  803MOL0     H 5933   5.639   0.372   9.938 -1.2256 -0.1188 -1.0613
  803MOL0     H 5934   5.672   0.526   9.846  0.1600 -0.1548  0.1008
  803MOL0     H 5935   5.864   0.446   9.755  1.5295 -0.7015 -0.2660
  803MOL0     H 5936   5.855   0.299   9.842  2.4425  1.3848 -3.1281
  803MOL0     H 5937   5.866   0.439  10.067  1.1213  1.3006  0.4864
  803MOL0     H 5938   5.839   0.583   9.979  0.3858 -0.4720  1.6756
  803MOL0     H 5939   6.081   0.512  10.043 -2.0538 -2.1163  0.5511
  803MOL0     H 5940   6.065   0.396   9.909 -1.0812 -0.7704 -0.7966
  803MOL0     H 5941   6.001   0.624   9.780 -1.1790 -0.3792  0.6482
  803MOL0     H 5942   6.177   0.570   9.792  1.3684 -1.4754  2.6514
  803MOL0     H 5943   6.183   0.723  10.001  0.9317  0.4997 -0.7548
  803MOL0     H 5944   6.032   0.790   9.949 -2.1054 -3.7670 -1.0102
  803MOL0     H 5945   6.282   0.809   9.812  1.9257  2.3174  2.1731
  803MOL0     H 5946   6.144   0.847   9.719 -1.1109  1.3763  0.0707
  803MOL0     H 5947   6.076   1.041   9.893  0.5787  2.6641 -0.4682
  803MOL0     H 5948   6.210   1.038   9.780 -0.1997  0.2956  1.0819
  803MOL0     H 5949   6.443   1.095   9.907  1.9669  1.5157  1.8952
  803MOL0     H 5950   6.513   1.204  10.265  0.9965 -0.6930  0.5549
  803MOL0     H 5951   6.565   1.225  10.101 -2.3562  0.7622 -1.3765
  803MOL0     H 5952   6.605   0.969  10.280 -1.8735 -0.7713 -1.3540
  803MOL0     H 5953   6.728   1.104  10.265 -0.6374  0.4130 -0.9441
  803MOL0     H 5954   6.630   0.933  10.034 -1.3163  1.5124 -0.0186
  803MOL0     H 5955   6.742   1.072  10.033  1.1218 -1.1369 -0.9110
  803MOL0     H 5956   6.771   0.798  10.159 -1.6023 -1.7068 -4.0790
  803MOL0     H 5957   6.876   0.936  10.207 -1.4190  0.7996 -0.9494
  803MOL0     H 5958   7.069   0.780   9.836  0.6371  1.2109 -1.9509
  803MOL0     H 5959   7.276   0.874   9.774  0.9720 -0.1286  1.4015
  803MOL0     H 5960   7.508   1.295   9.743  0.6268  1.6801  0.1386
  803MOL0     H 5961   7.703   1.398   9.633 -2.0344  1.2899 -1.4154
  803MOL0     H 5962   8.053   1.391   9.501 -0.8945  2.2065  1.9988
  803MOL0     H 5963   7.929   1.426   9.601  1.5032  2.4350 -0.7936
  803MOL0     H 5964   7.776   1.470   9.421 -1.6399 -4.5212 -1.3148
  803MOL0     H 5965   7.886   1.385   9.302  1.0218 -0.6970  0.7912
  803MOL0     H 5966   7.932   1.607   9.249 -0.1906 -2.7084 -0.3969
  803MOL0     H 5967   8.076   1.554   9.326 -0.2176  0.3592 -2.8798
  803MOL0     H 5968   7.855   1.715   9.468 -1.0023 -0.2900  1.3370
  803MOL0     H 5969   8.004   1.669   9.547 -0.5784 -1.8238  0.2026
  803MOL0     H 5970   8.037   1.889   9.460  1.5316 -0.7091  0.9926
  803MOL0     H 5971   7.947   1.837   9.318 -0.3060  1.1750  1.1875
  803MOL0     H 5972   8.160   1.733   9.227  0.8440  2.8968 -1.9422
  803MOL0     H 5973   8.231   1.733   9.394  0.4925  0.9765  1.0783
  803MOL0     H 5974   8.118   1.965   9.218 -0.4047  0.7508 -0.5124
  803MOL0     H 5975   8.201   1.992   9.371  0.4675 -0.3627  0.0547
  803MOL0     H 5976   8.414   1.943   9.268  0.4908 -2.4016  0.0378
  803MOL0     H 5977   8.320   2.022   9.139  0.8400  1.8154  3.3984
  803MOL0     H 5978   7.839   0.994   9.547 -2.6375  0.3957 -3.2282
  803MOL0     H 5979   7.663   0.907   9.673 -2.2622 -0.3020 -2.6682
  803MOL0     H 5980   7.214   1.177  10.083 -0.0657  1.2292 -1.6635
  803MOL0     H 5981   7.007   1.086  10.142 -3.7808  0.4209 -3.8040
  803MOL0     H 5982   5.490   0.368   9.498  0.3862 -1.7435  0.0076
  803MOL0     H 5983   5.257   0.416   9.474  1.0347 -1.2366 -0.0748
  803MOL0     H 5984   4.883   0.543   9.637 -0.3794 -0.1318  0.4306
  803MOL0     H 5985   4.630   0.599   9.625  1.2471  0.4931 -0.8247
  803MOL0     H 5986   4.438   0.631   9.674  0.5377 -1.1183  3.0615
  803MOL0     H 5987   4.269   0.563   9.671 -0.3095  0.4852 -0.4427
  803MOL0     H 5988   4.312   0.618   9.446 -0.1018  0.1377  1.7375
  803MOL0     H 5989   4.476   0.555   9.442 -1.5001  2.2083  0.3380
  803MOL0     H 5990   4.271   0.361   9.514  1.4926  0.8897  1.5722
  803MOL0     H 5991   4.405   0.329   9.408  0.1741  0.5064 -1.4331
  803MOL0     H 5992   4.242   0.321   9.246 -0.7933 -0.4234 -1.2507
  803MOL0     H 5993   4.132   0.437   9.335 -0.2366 -1.3550 -2.8179
  803MOL0     H 5994   4.336   0.671   9.043  1.0551 -0.2746 -0.0233
  803MOL0     H 5995   4.522   0.214   9.727  0.0924 -1.2292 -0.5358
  803MOL0     H 5996   4.758   0.140   9.733 -0.6135 -0.6052 -5.4214
  804MOL0     O 5997  10.071   7.123   0.547 -0.3185 -0.5427 -1.1430
  804MOL0     C 5998  10.071   7.091   0.430  0.0858  0.2235  0.5137
  804MOL0     O 5999  10.168   7.123   0.339 -0.2738 -0.5067 -0.2650
  804MOL0     C 6000  10.293   7.138   0.398 -0.1975  1.0351  0.1412
  804MOL0     C 6001  10.365   7.045   0.474 -0.4636 -0.6401  0.0554
  804MOL0     C 6002  10.490   7.067   0.524 -0.3495  0.5579  0.6698
  804MOL0     C 6003  10.553   7.185   0.507  0.1526  1.2382 -0.1467
  804MOL0     O 6004  10.679   7.194   0.564 -0.0101  0.5517  0.8688
  804MOL0     C 6005  10.709   7.324   0.630 -0.9346  0.7464  0.3280
  804MOL0     C 6006  10.852   7.347   0.662  0.5860  0.1883  0.4999
  804MOL0     C 6007  10.938   7.359   0.541 -0.3931 -0.4983 -0.1310
  804MOL0     C 6008  10.922   7.505   0.495 -0.0661  0.0669  0.3033
  804MOL0     C 6009  11.022   7.536   0.388  0.1992  0.6171  1.3039
  804MOL0     C 6010  11.025   7.433   0.275  0.2145 -0.2717  0.0017
  804MOL0     C 6011  10.921   7.474   0.167 -0.0217 -0.0092  0.3850
  804MOL0     C 6012  10.938   7.396   0.035  0.1256 -0.1789 -0.2327
  804MOL0     N 6013  10.837   7.417  -0.078 -0.4105 -0.6701  0.0493
  804MOL0     C 6014  10.788   7.310  -0.143  0.2181  0.2460 -0.1899
  804MOL0     C 6015  10.727   7.364  -0.248  1.2929  0.4116 -0.6429
  804MOL0     C 6016  10.664   7.279  -0.354  0.3162  0.5616 -0.5055
  804MOL0     C 6017  10.518   7.329  -0.391  0.4289  0.3710 -0.0607
  804MOL0     C 6018  10.448   7.237  -0.500  0.3755  0.3513  0.1743
  804MOL0     C 6019  10.319   7.292  -0.559  0.0341 -0.5198  1.0885
  804MOL0     O 6020  10.223   7.309  -0.461  0.4064  0.0883  0.1078
  804MOL0     C 6021  10.137   7.209  -0.418  0.1975 -0.9837 -0.0834
  804MOL0     C 6022  10.044   7.239  -0.315  0.2177 -0.0560  0.3794
  804MOL0     C 6023   9.962   7.135  -0.268 -0.2539  0.0911 -0.5900
  804MOL0     C 6024   9.961   7.004  -0.324  0.7626  0.3329  0.8255
  804MOL0     C 6025   9.880   6.888  -0.275  0.9278 -0.0724 -0.8156
  804MOL0     O 6026   9.910   6.766  -0.336  0.0236  0.2304  0.2095
  804MOL0     C 6027   9.828   6.657  -0.297  0.0143  0.5126 -0.1754
  804MOL0     C 6028   9.705   6.643  -0.354  0.3541 -0.3284 -0.6818
  804MOL0     C 6029   9.624   6.539  -0.323 -0.2115  0.9767  0.0803
  804MOL0     C 6030   9.670   6.445  -0.229  0.9010 -0.5000  0.5018
  804MOL0     O 6031   9.576   6.350  -0.196  1.0969 -0.0787  0.2833
  804MOL0     C 6032   9.608   6.232  -0.123 -0.5644  1.2902 -0.4775
  804MOL0     C 6033   9.488   6.128  -0.105  0.2337  0.3122  1.1302
  804MOL0     C 6034   9.436   6.084  -0.250  0.2974  0.1478 -0.3440
  804MOL0     C 6035   9.405   5.934  -0.275 -0.2511  0.1229 -0.3058
  804MOL0     C 6036   9.311   5.928  -0.400  0.5759  0.3785 -0.3665
  804MOL0     C 6037   9.286   5.779  -0.436  1.0404 -0.9907  0.7601
  804MOL0     C 6038   9.216   5.790  -0.570  0.3093 -0.0001  0.1683
  804MOL0     C 6039   9.157   5.652  -0.608  0.5272  0.0223 -0.6168
  804MOL0    Cl 6040   9.284   5.539  -0.638  0.0159 -0.4148 -0.2277
  804MOL0     C 6041   9.808   6.459  -0.173  0.7147  0.4589  1.0227
  804MOL0     C 6042   9.883   6.563  -0.207  0.0215 -0.6059  0.3726
  804MOL0     O 6043   9.816   6.895  -0.170 -0.0154 -0.2740 -0.0570
  804MOL0     C 6044  10.040   6.980  -0.435  0.3067 -0.1277 -0.4053
  804MOL0     C 6045  10.126   7.080  -0.475 -0.0409  0.0330 -1.0780
  804MOL0     N 6046  10.752   7.499  -0.255 -0.6566 -0.7168  0.5040
  804MOL0     N 6047  10.822   7.533  -0.151  0.5991  0.0270 -0.0092
  804MOL0     C 6048  10.490   7.283   0.427 -0.5721  0.3876  0.6836
  804MOL0     C 6049  10.364   7.257   0.371  0.2310 -0.8650  0.0336
  804MOL0     C 6050   9.962   7.012   0.376  0.4616  0.8230 -0.2567
  804MOL0     C 6051   9.933   6.997   0.242  0.9679  1.0219 -0.0455
  804MOL0     C 6052   9.830   6.913   0.199 -0.6562 -0.2375  0.9832
  804MOL0     C 6053   9.747   6.845   0.290 -1.0539  1.0095  1.1179
  804MOL0     O 6054   9.636   6.774   0.242  0.5257  0.0148  0.0469
  804MOL0     C 6055   9.616   6.762   0.097  0.2986  0.2039 -0.3325
  804MOL0     C 6056   9.500   6.664   0.070  0.2390  0.1579  0.6467
  804MOL0     C 6057   9.513   6.523   0.135  0.1873  0.4824  0.4518
  804MOL0     C 6058   9.380   6.447   0.138 -0.3048  0.5028  0.1173
  804MOL0     C 6059   9.337   6.414   0.004  0.5985  0.8043 -0.4650
  804MOL0     C 6060   9.299   6.406  -0.110 -0.4917  0.0297  0.0848
  804MOL0     C 6061   9.772   6.861   0.423  0.4156 -0.5252 -0.4333
  804MOL0     C 6062   9.879   6.939   0.466 -0.1545  0.5892  1.5359
  804MOL0     H 6063  10.327   6.944   0.488  1.0800 -1.2292  0.1921
  804MOL0     H 6064  10.532   6.978   0.570 -1.4943 -1.6168 -2.1209
  804MOL0     H 6065  10.651   7.333   0.722 -3.0306 -4.0516 -0.2619
  804MOL0     H 6066  10.675   7.408   0.569 -3.3504 -1.3677 -1.4394
  804MOL0     H 6067  10.899   7.263   0.713  0.2354  0.6086  1.5436
  804MOL0     H 6068  10.852   7.440   0.719 -3.5679  0.0805  0.9929
  804MOL0     H 6069  10.910   7.282   0.469  2.8362 -2.1808  0.2336
  804MOL0     H 6070  11.042   7.339   0.566 -1.1996 -0.6218  3.8275
  804MOL0     H 6071  10.817   7.519   0.467  0.0323 -0.4912 -0.3488
  804MOL0     H 6072  10.942   7.580   0.573  0.3589 -0.8511  1.0967
  804MOL0     H 6073  11.110   7.534   0.452  0.3707  0.0494  1.0550
  804MOL0     H 6074  11.011   7.639   0.353 -3.1292  0.0434  0.2931
  804MOL0     H 6075  11.010   7.331   0.311  2.8955 -0.6392  0.2383
  804MOL0     H 6076  11.123   7.429   0.226 -0.4238 -6.3268 -1.6568
  804MOL0     H 6077  10.831   7.455   0.227 -0.3968  2.3367  0.6778
  804MOL0     H 6078  10.928   7.581   0.148  2.1825 -0.3874 -1.2109
  804MOL0     H 6079  10.923   7.291   0.060 -2.3158 -0.2548 -1.5876
  804MOL0     H 6080  11.039   7.416  -0.001  0.9589 -1.6991  1.1241
  804MOL0     H 6081  10.812   7.207  -0.120  2.1023  0.5807 -0.4874
  804MOL0     H 6082  10.663   7.175  -0.322  0.5193  0.0119 -2.1737
  804MOL0     H 6083  10.725   7.280  -0.445 -1.6775 -1.2509 -1.9697
  804MOL0     H 6084  10.525   7.431  -0.428 -0.3060  0.2917 -0.4462
  804MOL0     H 6085  10.444   7.322  -0.310 -2.2433 -0.6515 -2.4098
  804MOL0     H 6086  10.513   7.206  -0.582 -0.8547  0.9187 -1.0500
  804MOL0     H 6087  10.417   7.144  -0.452  0.4247 -0.2205 -0.8718
  804MOL0     H 6088  10.286   7.237  -0.648  3.4332  1.7307 -1.8317
  804MOL0     H 6089  10.328   7.398  -0.585 -1.2311 -0.9147 -1.1717
  804MOL0     H 6090  10.053   7.338  -0.270 -2.9078  1.6305 -2.2696
  804MOL0     H 6091   9.892   7.154  -0.188  0.6297 -2.7056  0.9825
  804MOL0     H 6092   9.668   6.721  -0.421 -0.6303  0.0608  0.2947
  804MOL0     H 6093   9.525   6.520  -0.363 -0.1596 -1.0827  0.7679
  804MOL0     H 6094   9.645   6.254  -0.022  1.4332  0.8377 -1.0683
  804MOL0     H 6095   9.694   6.180  -0.167 -1.1673 -0.8603  0.7642
  804MOL0     H 6096   9.412   6.160  -0.034 -0.9419 -1.7302  0.8757
  804MOL0     H 6097   9.527   6.039  -0.056  0.1220 -0.6956 -0.5449
  804MOL0     H 6098   9.500   6.133  -0.323 -1.5890  0.8955 -1.5563
  804MOL0     H 6099   9.343   6.137  -0.272  1.2335  0.7882 -3.1433
  804MOL0     H 6100   9.497   5.877  -0.292 -0.3232  0.0341 -0.3960
  804MOL0     H 6101   9.353   5.882  -0.193  0.6038 -0.0680  0.1291
  804MOL0     H 6102   9.356   5.996  -0.472  0.6727  0.9490  0.2289
  804MOL0     H 6103   9.217   5.977  -0.372  1.5069  1.0600  1.7625
  804MOL0     H 6104   9.249   5.714  -0.356  1.4245 -2.8474 -0.4962
  804MOL0     H 6105   9.389   5.742  -0.448  1.1664 -0.0384 -1.6822
  804MOL0     H 6106   9.133   5.861  -0.570  2.0837  2.1755  1.4341
  804MOL0     H 6107   9.281   5.815  -0.654  0.1341  0.3486  0.1389
  804MOL0     H 6108   9.087   5.654  -0.692 -2.8094 -2.2773  1.8527
  804MOL0     H 6109   9.102   5.621  -0.519 -0.7162  1.9464 -0.6524
  804MOL0     H 6110   9.843   6.390  -0.098  2.0351 -0.6445 -0.5276
  804MOL0     H 6111   9.974   6.593  -0.156  1.6393 -0.3533 -2.4444
  804MOL0     H 6112  10.055   6.884  -0.483  1.3671 -0.5886  0.7709
  804MOL0     H 6113  10.197   7.045  -0.548 -0.9723  0.9074 -2.4554
  804MOL0     H 6114  10.528   7.384   0.417  1.4989 -0.2082  1.8761
  804MOL0     H 6115  10.307   7.324   0.307  1.1253 -1.7888 -1.8098
  804MOL0     H 6116   9.989   7.047   0.164 -0.4069  0.4455 -1.4624
  804MOL0     H 6117   9.809   6.901   0.093  0.7380  0.8367  0.5472
  804MOL0     H 6118   9.698   6.724   0.035  0.6331  1.3423 -0.6091
  804MOL0     H 6119   9.593   6.864   0.064 -0.2809  1.0491  2.3764
  804MOL0     H 6120   9.398   6.697   0.089  1.0878  3.5337 -0.0884
  804MOL0     H 6121   9.505   6.654  -0.039 -0.9810 -2.3494  0.7433
  804MOL0     H 6122   9.554   6.526   0.236  0.9073 -0.0714  0.1845
  804MOL0     H 6123   9.589   6.462   0.086  2.8688  1.6359  2.8751
  804MOL0     H 6124   9.387   6.352   0.191  2.0278 -1.2748 -3.0215
  804MOL0     H 6125   9.307   6.511   0.189 -1.3219  0.3392 -1.0964
  804MOL0     H 6126   9.285   6.411  -0.216  3.9725  1.6221 -0.6853
  804MOL0     H 6127   9.695   6.835   0.494 -0.4509 -1.3694 -1.6376
  804MOL0     H 6128   9.897   6.955   0.572 -1.4728  3.1848  1.4497
  805MOL0     O 6129   2.377   6.897   7.951 -0.5786 -0.7563 -0.0644
  805MOL0     C 6130   2.445   6.801   7.918 -0.4780  0.0238 -0.6042
  805MOL0     O 6131   2.425   6.711   7.818 -0.1481 -0.3622 -0.5752
  805MOL0     C 6132   2.297   6.712   7.765 -0.5794  0.6195 -0.1243
  805MOL0     C 6133   2.271   6.791   7.657  0.3629 -0.3405  0.6686
  805MOL0     C 6134   2.142   6.798   7.592  0.4373 -0.1553  0.6768
  805MOL0     C 6135   2.040   6.727   7.643 -0.0137 -0.4465 -0.0155
  805MOL0     O 6136   1.922   6.721   7.578 -0.0089  0.1154 -0.1680
  805MOL0     C 6137   1.791   6.715   7.647 -0.3094 -0.1062 -0.7417
  805MOL0     C 6138   1.727   6.842   7.690  0.5679 -0.0351  0.4085
  805MOL0     C 6139   1.592   6.817   7.755  1.5866  0.5982 -0.1838
  805MOL0     C 6140   1.481   6.775   7.660  0.9627 -0.2210  1.0238
  805MOL0     C 6141   1.343   6.746   7.721 -0.2000 -0.0097  0.0398
  805MOL0     C 6142   1.264   6.877   7.733  0.0747  0.4447  0.4624
  805MOL0     C 6143   1.151   6.867   7.837  0.1302 -0.1050  0.1987
  805MOL0     C 6144   1.039   6.774   7.788 -0.6093  0.0589 -0.4138
  805MOL0     N 6145   0.911   6.798   7.862 -0.0350  0.0224  1.0189
  805MOL0     C 6146   0.890   6.750   7.987  0.3012 -0.7629  0.0390
  805MOL0     C 6147   0.758   6.770   8.011 -0.5981  0.4600  0.5019
  805MOL0     C 6148   0.678   6.717   8.128  0.0375 -0.2869  0.2060
  805MOL0     C 6149   0.544   6.794   8.127 -0.0514  0.3401 -0.7910
  805MOL0     C 6150   0.469   6.754   8.252  0.2410  0.5978 -0.3910
  805MOL0     C 6151   0.325   6.808   8.239 -0.5074 -0.2597  0.6213
  805MOL0     O 6152   0.247   6.716   8.165 -1.5200  0.0655  0.1342
  805MOL0     C 6153   0.105   6.723   8.174 -0.4463  0.5904 -0.1731
  805MOL0     C 6154   0.039   6.846   8.212 -0.0624 -0.4838  0.1428
  805MOL0     C 6155  -0.099   6.851   8.235  0.9087 -0.3103 -0.2990
  805MOL0     C 6156  -0.176   6.735   8.228  0.4977  0.2308  0.2202
  805MOL0     C 6157  -0.331   6.733   8.233  0.2378  0.1556  0.9465
  805MOL0     O 6158  -0.386   6.857   8.252  0.4103  0.1998  0.4271
  805MOL0     C 6159  -0.522   6.885   8.278 -1.1712 -0.0266  0.9423
  805MOL0     C 6160  -0.626   6.819   8.204  0.0520 -0.4203  0.1281
  805MOL0     C 6161  -0.757   6.849   8.238 -0.5269 -1.0589 -0.5305
  805MOL0     C 6162  -0.790   6.944   8.330 -0.2325  0.8569  0.2145
  805MOL0     O 6163  -0.925   6.966   8.340 -0.9406  0.4706 -0.3241
  805MOL0     C 6164  -0.974   7.055   8.440  0.0495  0.1109  0.1132
  805MOL0     C 6165  -1.114   7.091   8.406 -0.1237 -0.0291  0.0709
  805MOL0     C 6166  -1.174   7.189   8.509  0.6973  0.4060 -1.0484
  805MOL0     C 6167  -1.310   7.258   8.465  0.8894  0.3224 -0.3858
  805MOL0     C 6168  -1.389   7.329   8.577 -0.2604  0.7478  0.0120
  805MOL0     C 6169  -1.301   7.407   8.673 -0.3109  0.2380 -0.8175
  805MOL0     C 6170  -1.242   7.534   8.613 -0.0091 -0.4423 -0.2432
  805MOL0     C 6171  -1.153   7.602   8.717  0.4292  0.6854  0.2867
  805MOL0    Cl 6172  -1.049   7.714   8.627 -0.0268 -0.0240 -0.0400
  805MOL0     C 6173  -0.682   7.002   8.411  0.6768 -0.5230 -0.5525
  805MOL0     C 6174  -0.546   6.967   8.385  0.9911 -0.0213 -0.1526
  805MOL0     O 6175  -0.381   6.622   8.236  0.1031  0.0672  0.5085
  805MOL0     C 6176  -0.111   6.608   8.192  0.2528  0.0236 -0.3503
  805MOL0     C 6177   0.020   6.609   8.162 -0.4880 -0.6547 -0.9555
  805MOL0     N 6178   0.702   6.825   7.901  0.5296 -0.8394  0.4230
  805MOL0     N 6179   0.795   6.860   7.819 -0.2680  0.9217 -0.2783
  805MOL0     C 6180   2.066   6.642   7.756  0.1265  0.8346  0.3954
  805MOL0     C 6181   2.192   6.633   7.817 -0.1711  0.3615 -0.4618
  805MOL0     C 6182   2.576   6.792   7.984  0.2492 -0.1479  0.5271
  805MOL0     C 6183   2.601   6.857   8.116  0.4716  0.1546 -0.0935
  805MOL0     C 6184   2.726   6.856   8.174  0.3641 -0.2258 -0.7383
  805MOL0     C 6185   2.838   6.797   8.115 -0.0041 -0.2409 -0.2335
  805MOL0     O 6186   2.950   6.785   8.189  0.4494  0.5054 -0.1796
  805MOL0     C 6187   3.064   6.734   8.122  0.1953 -0.2651  0.4517
  805MOL0     C 6188   3.104   6.588   8.149  0.1056 -0.0824 -0.2818
  805MOL0     C 6189   3.143   6.565   8.299 -0.1047  0.1213 -0.3798
  805MOL0     C 6190   3.013   6.544   8.388  0.4710 -0.1286  0.5633
  805MOL0     C 6191   2.943   6.413   8.377  0.3671 -0.5759  0.7509
  805MOL0     C 6192   2.876   6.315   8.345  0.0437 -0.7179  0.3569
  805MOL0     C 6193   2.816   6.730   7.993 -0.6349 -0.0611 -0.7005
  805MOL0     C 6194   2.686   6.722   7.932 -0.5959 -0.5512  0.0545
  805MOL0     H 6195   2.357   6.846   7.620  0.8252 -1.3846  0.1423
  805MOL0     H 6196   2.129   6.860   7.504  0.6458 -0.0428  0.7233
  805MOL0     H 6197   1.784   6.643   7.729 -1.7439 -0.9826 -1.5987
  805MOL0     H 6198   1.737   6.671   7.563 -0.4600 -1.2443 -0.0645
  805MOL0     H 6199   1.722   6.905   7.600  3.1187 -1.7024 -1.0297
  805MOL0     H 6200   1.803   6.892   7.751  1.4265 -1.2729  0.3827
  805MOL0     H 6201   1.565   6.903   7.818 -1.9311 -1.8545  2.0276
  805MOL0     H 6202   1.603   6.724   7.812 -0.5454  0.6942  0.4784
  805MOL0     H 6203   1.469   6.842   7.574  2.3274 -2.9756 -1.4717
  805MOL0     H 6204   1.505   6.676   7.621 -2.4677 -1.6141  2.1267
  805MOL0     H 6205   1.369   6.697   7.815  1.2668 -0.5007 -0.5950
  805MOL0     H 6206   1.289   6.675   7.658  1.3236  0.5714 -2.0059
  805MOL0     H 6207   1.227   6.895   7.631 -1.7212 -0.4850  0.9044
  805MOL0     H 6208   1.323   6.964   7.762  1.0062  0.1807 -0.5761
  805MOL0     H 6209   1.193   6.829   7.931  1.3762  1.9296  0.5392
  805MOL0     H 6210   1.111   6.965   7.864  2.0175  0.1628  2.4237
  805MOL0     H 6211   1.077   6.672   7.798 -1.0889 -0.2150 -1.3193
  805MOL0     H 6212   1.022   6.799   7.683 -1.2231  1.0997 -0.0848
  805MOL0     H 6213   0.956   6.703   8.058 -0.3583 -0.3819  0.9228
  805MOL0     H 6214   0.728   6.750   8.220 -3.2802 -0.3941  2.2395
  805MOL0     H 6215   0.680   6.608   8.122  1.9773 -0.4704  2.4443
  805MOL0     H 6216   0.489   6.755   8.041  2.5597 -2.0629 -1.5164
  805MOL0     H 6217   0.553   6.903   8.123  0.3028  0.4760  1.9274
  805MOL0     H 6218   0.480   6.647   8.268  0.0556  0.8020  1.2438
  805MOL0     H 6219   0.522   6.809   8.331 -0.4674  0.6291  0.0721
  805MOL0     H 6220   0.327   6.905   8.189  1.9739 -2.3670 -4.0355
  805MOL0     H 6221   0.290   6.822   8.342  0.9257  1.2198  0.9440
  805MOL0     H 6222   0.093   6.940   8.222 -0.1822 -0.5848  2.2976
  805MOL0     H 6223  -0.138   6.950   8.254  0.5423  0.1898 -3.1645
  805MOL0     H 6224  -0.603   6.737   8.136  0.2087  0.6138 -1.1171
  805MOL0     H 6225  -0.833   6.792   8.186 -0.3831 -0.3357 -1.5778
  805MOL0     H 6226  -0.916   7.147   8.425  1.7759 -1.3825 -3.6222
  805MOL0     H 6227  -0.976   7.017   8.543 -2.2640 -1.0706 -0.3134
  805MOL0     H 6228  -1.180   7.006   8.389 -0.3141  0.3968 -1.4075
  805MOL0     H 6229  -1.113   7.138   8.308 -2.0441 -0.5521 -0.2241
  805MOL0     H 6230  -1.103   7.269   8.530 -2.2931  2.6981  1.2175
  805MOL0     H 6231  -1.199   7.126   8.595  0.7915 -1.1564 -2.1055
  805MOL0     H 6232  -1.283   7.337   8.395  2.3918  0.7391  0.6078
  805MOL0     H 6233  -1.381   7.193   8.413 -0.5651  1.7249 -0.2147
  805MOL0     H 6234  -1.449   7.256   8.631 -0.8996 -0.0224 -1.6714
  805MOL0     H 6235  -1.460   7.397   8.529  0.3553  0.1318 -1.8449
  805MOL0     H 6236  -1.226   7.345   8.721  0.0737  1.1213 -0.2595
  805MOL0     H 6237  -1.372   7.438   8.750  2.1729  2.3534  0.8008
  805MOL0     H 6238  -1.186   7.515   8.521  2.2629 -0.5518  1.0988
  805MOL0     H 6239  -1.316   7.611   8.589  1.5296  1.6496  1.2981
  805MOL0     H 6240  -1.083   7.534   8.766  1.2687 -0.0421 -1.8097
  805MOL0     H 6241  -1.214   7.650   8.795 -1.1415 -0.5902 -0.1074
  805MOL0     H 6242  -0.709   7.065   8.495 -0.7844 -1.8081 -0.0131
  805MOL0     H 6243  -0.468   7.007   8.448  0.6018 -0.6222  0.7260
  805MOL0     H 6244  -0.167   6.517   8.172  1.6467 -0.8800 -0.2241
  805MOL0     H 6245   0.075   6.523   8.127 -0.1631  0.3428 -3.0371
  805MOL0     H 6246   1.997   6.569   7.799  1.6423  0.2549  1.9439
  805MOL0     H 6247   2.199   6.573   7.907 -2.7015  0.3737 -0.1918
  805MOL0     H 6248   2.517   6.908   8.162 -0.0918 -1.3413  0.5914
  805MOL0     H 6249   2.721   6.898   8.274  0.7154  2.7066 -1.8748
  805MOL0     H 6250   3.150   6.788   8.164 -0.5030  0.5455  0.8766
  805MOL0     H 6251   3.055   6.753   8.015  0.0923 -0.5393  0.4113
  805MOL0     H 6252   3.011   6.534   8.130 -1.1890  1.5656  1.0475
  805MOL0     H 6253   3.182   6.559   8.079 -2.5500  0.3129 -3.6634
  805MOL0     H 6254   3.204   6.650   8.330 -0.4350  0.1960  0.0732
  805MOL0     H 6255   3.205   6.476   8.305  3.7460  2.6121  0.0719
  805MOL0     H 6256   3.033   6.556   8.495 -0.8992 -0.4635  0.8758
  805MOL0     H 6257   2.942   6.623   8.357  0.1409 -1.2305 -1.6866
  805MOL0     H 6258   2.811   6.230   8.337 -0.5147 -0.1100 -2.7387
  805MOL0     H 6259   2.888   6.664   7.946 -1.7624 -0.5513 -1.7757
  805MOL0     H 6260   2.676   6.680   7.832 -0.6087  0.7217 -0.5082
  806MOL0     O 6261   3.302   4.288   3.785 -0.2909 -0.0318 -0.2293
  806MOL0     C 6262   3.356   4.217   3.695 -0.6650  0.5698  0.0817
  806MOL0     O 6263   3.289   4.155   3.590 -0.1112 -0.3440 -0.0554
  806MOL0     C 6264   3.150   4.176   3.578  0.2835  0.4284 -0.1400
  806MOL0     C 6265   3.059   4.068   3.587  1.0873 -0.6639 -0.4389
  806MOL0     C 6266   2.930   4.089   3.535 -0.0767  0.5879 -0.0781
  806MOL0     C 6267   2.881   4.215   3.496  0.2526 -0.3459 -0.9485
  806MOL0     O 6268   2.750   4.211   3.455  0.0262  0.3214 -0.4464
  806MOL0     C 6269   2.726   4.291   3.350 -0.3276 -0.1235  1.3225
  806MOL0     C 6270   2.570   4.308   3.350  0.2983 -0.0469 -0.5795
  806MOL0     C 6271   2.517   4.426   3.268  0.7228 -0.5007  0.3565
  806MOL0     C 6272   2.366   4.427   3.262  0.9761  0.2357 -0.4098
  806MOL0     C 6273   2.327   4.535   3.167  0.2792 -0.2885  0.3670
  806MOL0     C 6274   2.169   4.546   3.138 -0.5226  0.2776 -0.8758
  806MOL0     C 6275   2.091   4.594   3.265 -0.0251  0.3280 -0.4751
  806MOL0     C 6276   1.949   4.603   3.212 -0.1092 -0.0094 -0.7269
  806MOL0     N 6277   1.862   4.639   3.328 -0.3203 -0.8807 -0.1661
  806MOL0     C 6278   1.816   4.776   3.340  0.0633  0.6882 -0.0790
  806MOL0     C 6279   1.741   4.767   3.451 -0.2020 -0.3966  0.0516
  806MOL0     C 6280   1.667   4.878   3.523 -1.6906  0.0141  0.5666
  806MOL0     C 6281   1.516   4.857   3.499 -0.5306 -0.2760 -0.0744
  806MOL0     C 6282   1.445   4.951   3.598 -0.4191 -0.3971 -0.3761
  806MOL0     C 6283   1.292   4.962   3.591 -0.3746 -0.1695  0.6216
  806MOL0     O 6284   1.263   5.067   3.693  0.0861  0.0100 -0.1088
  806MOL0     C 6285   1.129   5.094   3.735 -0.0421 -1.0089  0.8457
  806MOL0     C 6286   1.104   5.227   3.781 -0.6611  0.1843  0.2499
  806MOL0     C 6287   0.974   5.273   3.821  0.3217 -0.4034  0.0015
  806MOL0     C 6288   0.866   5.174   3.821 -0.1235  0.5852 -0.4682
  806MOL0     C 6289   0.726   5.217   3.853  0.4694 -0.1822  0.1631
  806MOL0     O 6290   0.621   5.140   3.798  0.3066  0.3605 -0.2692
  806MOL0     C 6291   0.490   5.163   3.848 -0.2732  0.2011 -0.8142
  806MOL0     C 6292   0.454   5.217   3.975 -0.0354  0.5118  0.1672
  806MOL0     C 6293   0.327   5.250   3.999 -0.0568  0.8287  0.4920
  806MOL0     C 6294   0.219   5.215   3.916  0.0484 -0.5439 -0.0346
  806MOL0     O 6295   0.087   5.242   3.940 -0.8127  0.4049 -0.2837
  806MOL0     C 6296   0.050   5.358   4.014  0.3664 -0.0688 -0.0183
  806MOL0     C 6297  -0.097   5.379   3.999 -0.3550 -0.6775 -0.2483
  806MOL0     C 6298  -0.134   5.488   4.096  0.8589 -0.6676  0.2664
  806MOL0     C 6299  -0.279   5.534   4.096  0.2894 -0.4601  0.2372
  806MOL0     C 6300  -0.286   5.660   4.191 -0.6195 -0.2806 -0.6577
  806MOL0     C 6301  -0.433   5.705   4.229 -0.3414  0.1173  0.0711
  806MOL0     C 6302  -0.510   5.601   4.311  0.5648 -0.6303  0.4732
  806MOL0     C 6303  -0.630   5.655   4.391  0.0602  0.1179  0.8903
  806MOL0    Cl 6304  -0.681   5.543   4.519  0.1915  0.1559 -0.0985
  806MOL0     C 6305   0.244   5.128   3.814 -0.8110  0.3958  0.3735
  806MOL0     C 6306   0.381   5.116   3.773  0.6606 -0.4876 -0.1829
  806MOL0     O 6307   0.714   5.321   3.920  0.5086  0.3448  0.1302
  806MOL0     C 6308   0.895   5.052   3.760  1.0830  0.3702 -0.5379
  806MOL0     C 6309   1.024   5.008   3.725  0.4184  1.2698 -0.2435
  806MOL0     N 6310   1.737   4.633   3.492  0.5438  0.3741  1.0725
  806MOL0     N 6311   1.806   4.558   3.416 -0.3080 -0.1070 -0.3065
  806MOL0     C 6312   2.967   4.326   3.513 -0.5830  0.9103 -0.9028
  806MOL0     C 6313   3.100   4.304   3.552  0.0438  0.3557 -0.8297
  806MOL0     C 6314   3.505   4.183   3.700 -0.2048  0.0582  0.4337
  806MOL0     C 6315   3.573   4.090   3.618 -1.0226  0.2791 -0.2619
  806MOL0     C 6316   3.711   4.067   3.632 -0.0468  0.1162  1.1544
  806MOL0     C 6317   3.791   4.136   3.725  0.0720 -1.1370 -0.0051
  806MOL0     O 6318   3.929   4.117   3.729 -0.4248 -0.1910  0.1080
  806MOL0     C 6319   3.957   3.983   3.762 -0.9181  1.1367  0.6602
  806MOL0     C 6320   4.055   3.918   3.652 -0.4642  0.4205  0.4612
  806MOL0     C 6321   4.094   3.779   3.695 -0.0289  0.3352 -0.1711
  806MOL0     C 6322   4.144   3.704   3.572 -0.8461  0.0914  1.5537
  806MOL0     C 6323   4.210   3.575   3.615  0.2006  1.2599 -0.4725
  806MOL0     C 6324   4.261   3.476   3.661  0.8873  0.7939  0.2079
  806MOL0     C 6325   3.719   4.221   3.808 -0.1359  0.0188 -0.0941
  806MOL0     C 6326   3.582   4.249   3.795  0.0341 -0.4546  0.0252
  806MOL0     H 6327   3.095   3.966   3.594  0.0074 -1.1406 -1.4673
  806MOL0     H 6328   2.871   3.999   3.524 -0.2760  0.4169  1.9647
  806MOL0     H 6329   2.752   4.240   3.256  3.5988 -2.3002  3.3264
  806MOL0     H 6330   2.774   4.390   3.351  3.7815 -1.8703  0.0090
  806MOL0     H 6331   2.555   4.338   3.455  1.8392 -0.7644 -0.1225
  806MOL0     H 6332   2.518   4.217   3.321 -1.3490  0.3442  0.9392
  806MOL0     H 6333   2.561   4.425   3.168  1.3959 -0.0387  0.6379
  806MOL0     H 6334   2.542   4.524   3.311 -1.5628  0.4126 -0.2592
  806MOL0     H 6335   2.327   4.329   3.233  0.0892  0.7160 -0.9108
  806MOL0     H 6336   2.316   4.454   3.356  0.2324  2.0962 -1.2765
  806MOL0     H 6337   2.385   4.523   3.075 -1.4552 -2.2177 -0.5481
  806MOL0     H 6338   2.358   4.635   3.199  0.2558  0.1977 -1.0546
  806MOL0     H 6339   2.130   4.452   3.098  0.2036 -0.0836 -0.7498
  806MOL0     H 6340   2.154   4.617   3.056  1.9092  1.7631 -0.1371
  806MOL0     H 6341   2.096   4.518   3.344 -4.9702 -4.6537 -4.2231
  806MOL0     H 6342   2.122   4.695   3.294 -1.0947  0.6357 -0.3464
  806MOL0     H 6343   1.923   4.504   3.173  0.1484  0.4402 -2.1105
  806MOL0     H 6344   1.947   4.677   3.131 -1.3341  1.8593  0.9328
  806MOL0     H 6345   1.839   4.856   3.271  4.6969  0.4815  0.9603
  806MOL0     H 6346   1.694   4.981   3.497  1.4228 -0.4144  1.6902
  806MOL0     H 6347   1.684   4.877   3.631 -0.8823  2.1973  0.5179
  806MOL0     H 6348   1.489   4.753   3.516  1.7665 -0.9226 -0.0250
  806MOL0     H 6349   1.497   4.883   3.394  4.0293 -0.4164 -1.1783
  806MOL0     H 6350   1.481   4.924   3.698  3.7631  0.4946 -1.4574
  806MOL0     H 6351   1.492   5.047   3.574 -1.1765  0.3930  1.1055
  806MOL0     H 6352   1.259   4.860   3.611 -1.1757 -0.4518 -1.7971
  806MOL0     H 6353   1.266   4.983   3.487 -0.9629  1.0849  0.9993
  806MOL0     H 6354   1.178   5.306   3.772 -1.9251  1.2751 -1.1906
  806MOL0     H 6355   0.961   5.375   3.855 -1.1081 -0.2731 -0.8723
  806MOL0     H 6356   0.524   5.247   4.053 -0.7452  2.3674  0.1435
  806MOL0     H 6357   0.315   5.312   4.087 -1.4628  2.5360 -0.8368
  806MOL0     H 6358   0.109   5.444   3.980  0.4304 -0.5905 -1.3142
  806MOL0     H 6359   0.082   5.340   4.117  0.6755 -2.7968 -0.5352
  806MOL0     H 6360  -0.150   5.289   4.032 -1.6574 -0.5694 -1.8878
  806MOL0     H 6361  -0.137   5.399   3.899 -1.4338 -1.0094  0.1043
  806MOL0     H 6362  -0.085   5.579   4.063 -2.8407  1.2916 -0.3432
  806MOL0     H 6363  -0.095   5.461   4.195  0.5846 -1.3253  0.2034
  806MOL0     H 6364  -0.320   5.573   4.002 -0.0248 -0.6449  0.2986
  806MOL0     H 6365  -0.338   5.450   4.130  0.1455 -0.4451  0.0271
  806MOL0     H 6366  -0.237   5.745   4.143  1.1507  0.0300  1.5587
  806MOL0     H 6367  -0.230   5.637   4.282  2.3108  1.8190 -1.7867
  806MOL0     H 6368  -0.485   5.728   4.136  0.3355 -0.9776 -0.5983
  806MOL0     H 6369  -0.430   5.794   4.293  3.2145 -0.0760  0.3949
  806MOL0     H 6370  -0.543   5.520   4.244 -0.3269  1.8897 -2.3662
  806MOL0     H 6371  -0.438   5.556   4.379  2.2902 -0.2052 -0.9924
  806MOL0     H 6372  -0.714   5.673   4.324  1.3207  1.9867 -0.2732
  806MOL0     H 6373  -0.605   5.752   4.436 -0.2249  0.6082  0.0216
  806MOL0     H 6374   0.164   5.090   3.751 -1.8793  1.8686  0.7694
  806MOL0     H 6375   0.403   5.067   3.679 -0.0143  0.3380 -0.7858
  806MOL0     H 6376   0.809   4.985   3.761  1.9298 -0.8462  3.0770
  806MOL0     H 6377   1.033   4.910   3.679  2.1292  0.7261  1.1660
  806MOL0     H 6378   2.925   4.425   3.499  1.1714  1.9729  0.8099
  806MOL0     H 6379   3.167   4.388   3.565  0.6825 -0.2948  0.2936
  806MOL0     H 6380   3.523   4.055   3.528 -3.5309 -0.5050  1.3375
  806MOL0     H 6381   3.755   3.998   3.560 -1.9838  1.2965 -1.3088
  806MOL0     H 6382   3.875   3.917   3.789  0.5314 -1.5977 -1.2304
  806MOL0     H 6383   4.010   3.980   3.858 -3.4296 -0.7577  2.0793
  806MOL0     H 6384   3.982   3.916   3.570  2.9759 -0.0959 -2.9020
  806MOL0     H 6385   4.146   3.974   3.627  0.2690  0.3818  2.8267
  806MOL0     H 6386   4.014   3.716   3.735 -0.6830  1.5642  0.5028
  806MOL0     H 6387   4.170   3.783   3.774 -0.0923 -0.1986 -0.0762
  806MOL0     H 6388   4.068   3.683   3.498  0.5834 -0.0468  0.0674
  806MOL0     H 6389   4.223   3.762   3.523  0.5046 -1.2455  2.0607
  806MOL0     H 6390   4.316   3.392   3.697 -0.6346  0.1780  1.2017
  806MOL0     H 6391   3.773   4.269   3.889  2.2673 -1.1595 -0.9143
  806MOL0     H 6392   3.542   4.307   3.877  1.9607  1.3595 -0.2126
  807MOL0     O 6393  11.173   8.055   9.974 -0.3564 -0.5308 -0.7316
  807MOL0     C 6394  11.178   7.988   9.874  0.9165  0.2010 -0.0645
  807MOL0     O 6395  11.086   7.984   9.772 -0.7397 -0.6371  0.1891
  807MOL0     C 6396  10.955   8.023   9.787  1.5144  0.7555 -1.0787
  807MOL0     C 6397  10.883   7.985   9.902 -0.1843  0.5981 -0.5115
  807MOL0     C 6398  10.751   8.010   9.906  0.0667 -0.6394 -0.7852
  807MOL0     C 6399  10.669   8.060   9.798 -0.1629 -0.0260 -0.6479
  807MOL0     O 6400  10.532   8.083   9.805  0.9070 -0.0823  0.0986
  807MOL0     C 6401  10.461   8.064   9.928  0.9926 -0.4765 -0.3530
  807MOL0     C 6402  10.331   8.135   9.911  0.5909 -0.3134  0.3756
  807MOL0     C 6403  10.231   8.146  10.032  1.1329  0.4998 -0.3070
  807MOL0     C 6404  10.130   8.033  10.026  0.3630  0.7873 -1.2345
  807MOL0     C 6405  10.033   8.081  10.135  0.2379  0.3355  0.8043
  807MOL0     C 6406   9.921   7.980  10.145  0.5203 -0.1407 -0.3062
  807MOL0     C 6407   9.808   8.007  10.247 -0.5264 -0.1268 -0.1613
  807MOL0     C 6408   9.859   7.998  10.394 -0.4886  0.0855 -0.5396
  807MOL0     N 6409   9.740   7.967  10.480 -0.6013  0.6327 -0.0630
  807MOL0     C 6410   9.688   7.843  10.511 -0.0693 -0.7906 -0.1343
  807MOL0     C 6411   9.581   7.869  10.582  0.7289 -0.5516 -0.8682
  807MOL0     C 6412   9.482   7.780  10.642 -0.2212  0.2353 -0.2607
  807MOL0     C 6413   9.351   7.747  10.562 -0.1230  0.3450 -0.4159
  807MOL0     C 6414   9.246   7.666  10.649  0.6298 -0.2523 -1.0247
  807MOL0     C 6415   9.105   7.639  10.594 -0.3150 -0.1136  0.3058
  807MOL0     O 6416   9.058   7.766  10.547  0.0829  0.0450  0.3239
  807MOL0     C 6417   8.925   7.786  10.547  0.1174  0.7500  0.1143
  807MOL0     C 6418   8.824   7.687  10.553 -0.0095  0.0310 -0.0798
  807MOL0     C 6419   8.694   7.733  10.543  0.5423 -0.4034 -0.3880
  807MOL0     C 6420   8.664   7.875  10.533  0.0805  0.0437  0.3899
  807MOL0     C 6421   8.522   7.918  10.505  0.9903 -0.2995 -0.4787
  807MOL0     O 6422   8.421   7.827  10.473 -0.0713 -0.3871  0.0904
  807MOL0     C 6423   8.285   7.854  10.463  0.2971 -0.0889  0.6174
  807MOL0     C 6424   8.201   7.949  10.531 -0.8592  0.4281  0.2785
  807MOL0     C 6425   8.061   7.943  10.520 -0.0712 -0.9419  0.0170
  807MOL0     C 6426   7.998   7.863  10.435 -0.0323  0.5284 -0.3484
  807MOL0     O 6427   7.863   7.852  10.422  0.4445  0.4403 -0.3326
  807MOL0     C 6428   7.782   7.967  10.470 -0.2598  0.6919  0.6203
  807MOL0     C 6429   7.631   7.957  10.445 -0.1460 -0.5815  0.5365
  807MOL0     C 6430   7.554   8.020  10.566  0.0994  0.2170 -0.8220
  807MOL0     C 6431   7.406   8.032  10.531  0.0391  0.5487 -0.3718
  807MOL0     C 6432   7.334   7.893  10.508 -0.2496 -0.3723  0.7633
  807MOL0     C 6433   7.174   7.914  10.492 -0.5118  0.2688 -0.4068
  807MOL0     C 6434   7.135   7.973  10.353 -0.1364 -0.9294 -0.8193
  807MOL0     C 6435   6.989   7.983  10.316 -0.5403  1.0317  0.0372
  807MOL0    Cl 6436   6.979   8.034  10.144  0.0017  0.1360  0.0067
  807MOL0     C 6437   8.076   7.761  10.380 -0.7858 -0.4865  0.3166
  807MOL0     C 6438   8.212   7.753  10.398 -1.3613  0.2932  0.4716
  807MOL0     O 6439   8.509   8.038  10.510  0.3620 -0.2186 -0.7092
  807MOL0     C 6440   8.769   7.967  10.534  0.2243  0.3976  0.1123
  807MOL0     C 6441   8.897   7.925  10.550 -0.7758 -0.3965 -0.2066
  807MOL0     N 6442   9.564   8.009  10.594 -0.0397  0.7092  0.2860
  807MOL0     N 6443   9.661   8.063  10.533  1.2934  0.1114 -0.4704
  807MOL0     C 6444  10.745   8.095   9.687  0.0132  0.0564 -0.4289
  807MOL0     C 6445  10.890   8.081   9.674 -0.1619  1.0862 -0.6540
  807MOL0     C 6446  11.312   7.922   9.849  1.2703  0.5654 -0.0156
  807MOL0     C 6447  11.336   7.874   9.717 -0.2279  0.2811  0.0686
  807MOL0     C 6448  11.470   7.823   9.694 -0.1354 -0.3372 -0.9073
  807MOL0     C 6449  11.575   7.837   9.791 -1.4489  0.4975 -0.1210
  807MOL0     O 6450  11.707   7.810   9.776 -0.4193 -0.2455 -0.4560
  807MOL0     C 6451  11.754   7.791   9.639  0.6358 -0.8515 -0.3432
  807MOL0     C 6452  11.905   7.794   9.644  0.3471  0.1379  0.5858
  807MOL0     C 6453  11.957   7.688   9.742  0.2519  0.5660  0.2708
  807MOL0     C 6454  12.073   7.608   9.668  0.1998  0.1381  0.1757
  807MOL0     C 6455  12.044   7.527   9.545 -0.8784 -0.0343 -0.4227
  807MOL0     C 6456  12.023   7.477   9.440 -0.1082 -0.1961 -0.8348
  807MOL0     C 6457  11.535   7.867   9.924 -0.2183 -0.6439 -0.9820
  807MOL0     C 6458  11.406   7.914   9.953  0.0328 -0.1875  1.0359
  807MOL0     H 6459  10.937   7.932   9.980  0.7310  3.0121  0.5756
  807MOL0     H 6460  10.708   7.981  10.002 -0.1290 -1.2613 -1.0538
  807MOL0     H 6461  10.513   8.100  10.017  0.6551  0.8976 -0.6920
  807MOL0     H 6462  10.443   7.956   9.936 -1.4473 -0.1626 -0.7917
  807MOL0     H 6463  10.289   8.091   9.820  4.5298  0.8017 -2.2238
  807MOL0     H 6464  10.363   8.238   9.889  0.3829 -0.4096 -0.4126
  807MOL0     H 6465  10.179   8.242  10.034 -1.5148 -0.8609  1.4556
  807MOL0     H 6466  10.293   8.141  10.122  0.2451 -1.1263  0.2491
  807MOL0     H 6467  10.073   8.036   9.932 -4.3407 -0.6898  1.2130
  807MOL0     H 6468  10.171   7.934  10.045  1.5709  1.7782  1.9310
  807MOL0     H 6469   9.980   8.176  10.125 -0.4461 -0.0330  0.8413
  807MOL0     H 6470  10.079   8.081  10.235 -0.6748  0.8494  1.2320
  807MOL0     H 6471   9.967   7.886  10.177  0.6797  1.1213  3.8399
  807MOL0     H 6472   9.885   7.962  10.044 -0.6313  0.6637 -0.0593
  807MOL0     H 6473   9.764   8.107  10.237  2.1928  1.2765  0.8247
  807MOL0     H 6474   9.731   7.932  10.229 -0.1683 -0.4685 -0.2923
  807MOL0     H 6475   9.897   8.098  10.414  0.3475  0.2872 -2.9048
  807MOL0     H 6476   9.932   7.919  10.413  0.7524  0.7044 -2.5343
  807MOL0     H 6477   9.734   7.748  10.486 -0.6239 -0.9216 -0.6658
  807MOL0     H 6478   9.451   7.827  10.737 -0.1223  1.2626 -0.7244
  807MOL0     H 6479   9.529   7.683  10.661  0.0214  0.3102 -0.4823
  807MOL0     H 6480   9.380   7.674  10.486 -0.6641  0.5190 -0.7923
  807MOL0     H 6481   9.314   7.842  10.520 -0.3231  2.3048  3.6889
  807MOL0     H 6482   9.293   7.570  10.672  0.2517 -0.2353 -0.1261
  807MOL0     H 6483   9.239   7.727  10.740 -1.9597 -0.9475 -0.6765
  807MOL0     H 6484   9.041   7.574  10.655 -1.7829 -0.7830 -1.8257
  807MOL0     H 6485   9.131   7.574  10.510  1.2915  1.1257 -0.1979
  807MOL0     H 6486   8.838   7.580  10.562 -1.1479  0.0020  2.2024
  807MOL0     H 6487   8.618   7.660  10.519 -0.1366 -0.4128  1.5967
  807MOL0     H 6488   8.237   8.020  10.605 -0.2787 -0.1890  0.5952
  807MOL0     H 6489   8.005   8.018  10.575  2.2543 -0.8089  2.3758
  807MOL0     H 6490   7.807   8.061  10.421  2.3519 -0.3119 -0.1210
  807MOL0     H 6491   7.801   7.969  10.578 -0.5887 -0.1123  0.7039
  807MOL0     H 6492   7.603   7.852  10.432  0.8228 -0.7194 -0.5618
  807MOL0     H 6493   7.600   8.001  10.350 -2.0071 -2.2565  0.3166
  807MOL0     H 6494   7.597   8.119  10.585  2.1041 -1.2914  3.9832
  807MOL0     H 6495   7.565   7.959  10.656  1.8402  1.9785  0.2278
  807MOL0     H 6496   7.354   8.073  10.617  1.7198 -1.1049  1.5601
  807MOL0     H 6497   7.388   8.108  10.455 -0.8992  2.2110  1.4510
  807MOL0     H 6498   7.348   7.841  10.604  4.4998  1.6175  1.4085
  807MOL0     H 6499   7.378   7.849  10.419 -0.6829  0.6012  0.0482
  807MOL0     H 6500   7.145   7.980  10.574  1.5533 -0.4999  1.0369
  807MOL0     H 6501   7.139   7.812  10.508  2.6685 -0.6926  1.5179
  807MOL0     H 6502   7.172   8.074  10.331 -0.4961 -0.8880 -1.2482
  807MOL0     H 6503   7.190   7.915  10.278  1.1220  0.2191 -0.8224
  807MOL0     H 6504   6.930   8.041  10.388  0.1524 -0.3539  1.8075
  807MOL0     H 6505   6.953   7.879  10.315  0.1720  0.5637 -5.0745
  807MOL0     H 6506   8.036   7.680  10.321 -0.9753 -1.3314  1.5516
  807MOL0     H 6507   8.280   7.674  10.371  0.2370  0.0921  4.4391
  807MOL0     H 6508   8.754   8.072  10.515  2.0886  0.0792 -3.9493
  807MOL0     H 6509   8.981   7.993  10.563  1.0956 -1.9197 -3.1903
  807MOL0     H 6510  10.696   8.150   9.606 -0.4987  1.0887  0.5554
  807MOL0     H 6511  10.952   8.093   9.586 -0.2886  1.1517 -0.7364
  807MOL0     H 6512  11.267   7.874   9.633 -0.4899 -0.3560  0.2801
  807MOL0     H 6513  11.493   7.785   9.595 -1.4804 -0.1336 -1.3127
  807MOL0     H 6514  11.725   7.872   9.571 -0.5129 -0.7629  0.2283
  807MOL0     H 6515  11.712   7.700   9.596 -1.0517 -0.7945  1.0645
  807MOL0     H 6516  11.937   7.770   9.542  1.1241 -0.0754  0.8709
  807MOL0     H 6517  11.942   7.892   9.674  0.6721 -0.5207  2.4847
  807MOL0     H 6518  11.884   7.616   9.781  1.2958 -1.9676 -2.0672
  807MOL0     H 6519  12.008   7.730   9.829  0.7904 -0.8937  0.6907
  807MOL0     H 6520  12.166   7.658   9.642  1.2204 -1.0450  1.3874
  807MOL0     H 6521  12.096   7.530   9.741 -3.0249 -0.4214  0.7549
  807MOL0     H 6522  11.998   7.444   9.341 -1.2920 -2.0532  0.0279
  807MOL0     H 6523  11.618   7.852   9.991  0.0778  0.5480 -1.0743
  807MOL0     H 6524  11.381   7.955  10.050  0.1050  1.7974  0.2752
  808MOL0     O 6525   1.463   2.882   8.517 -0.3563 -0.5609 -0.5635
  808MOL0     C 6526   1.520   2.991   8.532  0.0591 -0.3702  0.4098
  808MOL0     O 6527   1.466   3.097   8.599  0.8266  0.3081  0.5194
  808MOL0     C 6528   1.343   3.083   8.666 -0.8273  0.4839  0.8737
  808MOL0     C 6529   1.340   3.056   8.801 -0.3648 -0.0396 -0.1189
  808MOL0     C 6530   1.227   3.048   8.878 -0.5056  0.7627 -0.1926
  808MOL0     C 6531   1.105   3.078   8.817  0.3058  0.4397 -0.4067
  808MOL0     O 6532   0.999   3.078   8.905  0.5172  0.6079 -0.1602
  808MOL0     C 6533   0.867   3.037   8.841  0.2176 -0.4211 -0.7816
  808MOL0     C 6534   0.756   3.026   8.945 -0.6718 -0.1615  0.1742
  808MOL0     C 6535   0.634   2.951   8.898  0.2116 -0.4489  0.0125
  808MOL0     C 6536   0.510   2.955   8.992 -0.5769 -0.3260  0.2258
  808MOL0     C 6537   0.390   2.865   8.938  0.1393 -0.6407  0.0035
  808MOL0     C 6538   0.394   2.720   8.969  0.0103 -0.2058  0.1853
  808MOL0     C 6539   0.271   2.655   8.907 -0.2813  0.6693  0.6084
  808MOL0     C 6540   0.232   2.527   8.975  0.3347  0.3752 -0.5265
  808MOL0     N 6541   0.116   2.461   8.913  0.0606  0.5813  0.7021
  808MOL0     C 6542  -0.015   2.498   8.930 -1.4392 -0.5807  0.8825
  808MOL0     C 6543  -0.089   2.434   8.834 -0.5136  0.0407  0.1216
  808MOL0     C 6544  -0.240   2.452   8.802  0.4065 -0.5573 -0.7857
  808MOL0     C 6545  -0.309   2.328   8.761  1.2041  0.2614 -0.2854
  808MOL0     C 6546  -0.444   2.351   8.677 -0.9910  0.6199 -0.1482
  808MOL0     C 6547  -0.566   2.384   8.768  0.5603 -0.2825  0.5836
  808MOL0     O 6548  -0.693   2.395   8.701  0.0571  0.4024  0.1047
  808MOL0     C 6549  -0.806   2.374   8.787 -0.1483  0.1681  0.3320
  808MOL0     C 6550  -0.925   2.345   8.720 -0.5013 -0.3859 -0.4263
  808MOL0     C 6551  -1.049   2.334   8.790 -0.5116 -0.2627 -0.2350
  808MOL0     C 6552  -1.041   2.345   8.927  0.3159  0.1261 -0.7336
  808MOL0     C 6553  -1.163   2.333   9.020 -0.4628 -0.0995  1.3155
  808MOL0     O 6554  -1.157   2.387   9.147 -0.3132 -0.5669  0.8696
  808MOL0     C 6555  -1.265   2.375   9.234 -0.0284 -0.3104  1.0719
  808MOL0     C 6556  -1.389   2.444   9.213  0.4968  0.2405  0.2557
  808MOL0     C 6557  -1.508   2.424   9.282 -0.8233  0.3592 -0.9183
  808MOL0     C 6558  -1.506   2.325   9.384 -0.1766  0.4721 -0.2563
  808MOL0     O 6559  -1.615   2.284   9.467  0.3035  0.2071 -0.1292
  808MOL0     C 6560  -1.742   2.341   9.444 -0.2806  0.7096 -0.1724
  808MOL0     C 6561  -1.868   2.243   9.476 -0.2206 -0.6284  0.3554
  808MOL0     C 6562  -1.996   2.291   9.403  0.4153  0.2615  0.9373
  808MOL0     C 6563  -2.069   2.167   9.371  0.7571 -0.0542  0.2272
  808MOL0     C 6564  -2.120   2.079   9.492  0.0487  0.3890 -0.1749
  808MOL0     C 6565  -2.234   2.167   9.565 -0.2834  0.4432 -0.0468
  808MOL0     C 6566  -2.319   2.073   9.655 -0.1763 -0.4671 -0.6178
  808MOL0     C 6567  -2.422   2.156   9.726  0.1462 -0.5002 -1.2118
  808MOL0    Cl 6568  -2.355   2.299   9.810 -0.3519 -0.5187 -0.0438
  808MOL0     C 6569  -1.383   2.256   9.399 -0.1089 -0.2402  0.4329
  808MOL0     C 6570  -1.267   2.279   9.331 -0.1079  0.3182 -0.1859
  808MOL0     O 6571  -1.263   2.284   8.968  0.3284 -0.7519  0.4419
  808MOL0     C 6572  -0.921   2.371   8.988  0.3125  0.1543  0.7350
  808MOL0     C 6573  -0.804   2.386   8.922  0.3607 -1.4965 -0.2695
  808MOL0     N 6574  -0.001   2.345   8.773  0.1724  0.2906  0.3106
  808MOL0     N 6575   0.128   2.359   8.823  0.5918 -0.1422  0.2990
  808MOL0     C 6576   1.102   3.106   8.676 -0.1837  0.4096  0.1254
  808MOL0     C 6577   1.220   3.106   8.605  0.1518  0.1818 -0.7644
  808MOL0     C 6578   1.657   3.011   8.493  0.4464  0.5520 -0.4491
  808MOL0     C 6579   1.728   2.903   8.439 -0.1823 -0.6232  0.6768
  808MOL0     C 6580   1.850   2.929   8.381 -1.1895 -0.2114  0.0390
  808MOL0     C 6581   1.915   3.056   8.391  0.3893 -0.3332 -0.1068
  808MOL0     O 6582   2.040   3.085   8.336  0.3674  0.5201 -0.4943
  808MOL0     C 6583   2.054   3.079   8.194 -0.0094  0.7416 -0.1266
  808MOL0     C 6584   1.963   3.179   8.130  0.3984  0.4907  0.0901
  808MOL0     C 6585   1.985   3.219   7.983 -0.1404  1.1108 -0.6166
  808MOL0     C 6586   1.903   3.336   7.951  0.1291  0.4915 -0.4810
  808MOL0     C 6587   1.913   3.362   7.810 -0.5898  0.3768  0.7044
  808MOL0     C 6588   1.927   3.386   7.695 -0.0999  0.8481  0.3361
  808MOL0     C 6589   1.843   3.162   8.439 -0.7483 -0.4389 -0.2459
  808MOL0     C 6590   1.711   3.139   8.498  0.0868 -0.3792  0.2660
  808MOL0     H 6591   1.436   3.042   8.849 -1.0351 -1.1058  0.9600
  808MOL0     H 6592   1.224   3.032   8.985 -2.6204 -1.4435 -0.5044
  808MOL0     H 6593   0.883   2.940   8.793 -0.4444 -0.4291 -0.9910
  808MOL0     H 6594   0.839   3.105   8.760 -3.0840 -0.6948 -0.0035
  808MOL0     H 6595   0.726   3.124   8.981  1.4502  1.6587 -2.6398
  808MOL0     H 6596   0.795   2.969   9.031 -2.1645  2.6596  2.9108
  808MOL0     H 6597   0.661   2.846   8.883  0.9084 -0.0654 -1.7248
  808MOL0     H 6598   0.603   2.993   8.801 -0.3834 -0.9578 -0.0232
  808MOL0     H 6599   0.544   2.922   9.091  0.2239  1.2936  0.5399
  808MOL0     H 6600   0.474   3.058   9.000 -0.0746  0.0522 -1.8566
  808MOL0     H 6601   0.382   2.886   8.831  1.4971  2.3340  0.3899
  808MOL0     H 6602   0.299   2.905   8.983  0.9489  1.1597  0.1269
  808MOL0     H 6603   0.401   2.701   9.077  2.2507 -1.1830 -0.0770
  808MOL0     H 6604   0.480   2.676   8.918 -1.4644 -0.4907 -2.1918
  808MOL0     H 6605   0.179   2.712   8.921 -1.7044 -1.1012 -1.0083
  808MOL0     H 6606   0.282   2.635   8.801  1.6018 -1.2946  1.1102
  808MOL0     H 6607   0.204   2.542   9.080 -2.0835  0.2075 -1.1047
  808MOL0     H 6608   0.317   2.458   8.987  0.1263 -0.1437 -1.9011
  808MOL0     H 6609  -0.048   2.582   8.990  0.4798  1.0562 -0.2460
  808MOL0     H 6610  -0.235   2.537   8.733  4.8970  0.5018  0.5196
  808MOL0     H 6611  -0.299   2.494   8.884  1.7497 -0.5767  0.2256
  808MOL0     H 6612  -0.330   2.273   8.853 -1.8448  1.9464  0.1502
  808MOL0     H 6613  -0.242   2.264   8.703  3.1558  0.2731  1.8091
  808MOL0     H 6614  -0.433   2.420   8.593  1.0417 -1.7154 -1.9384
  808MOL0     H 6615  -0.471   2.257   8.628 -0.3876  1.2694 -1.7824
  808MOL0     H 6616  -0.552   2.484   8.812 -0.7298  0.4673 -0.6315
  808MOL0     H 6617  -0.563   2.309   8.847  3.1564 -0.3161  0.5488
  808MOL0     H 6618  -0.926   2.340   8.612  0.7163  1.8905 -0.6071
  808MOL0     H 6619  -1.137   2.308   8.733 -0.1890  0.3204 -1.0174
  808MOL0     H 6620  -1.401   2.523   9.139 -0.7488 -0.3903 -0.2568
  808MOL0     H 6621  -1.595   2.480   9.250 -0.5308  0.2561 -1.9009
  808MOL0     H 6622  -1.749   2.350   9.336 -2.4781 -1.1321 -0.2570
  808MOL0     H 6623  -1.752   2.442   9.486  0.2659  0.4667  0.5619
  808MOL0     H 6624  -1.893   2.232   9.582  0.7196  1.2786  0.8299
  808MOL0     H 6625  -1.840   2.141   9.449 -3.2861 -0.7697 -3.0306
  808MOL0     H 6626  -1.978   2.346   9.310 -1.3513  2.3968  1.7624
  808MOL0     H 6627  -2.035   2.366   9.473  2.6569  0.0204  2.5563
  808MOL0     H 6628  -2.159   2.198   9.318  0.5853 -0.0415  0.5230
  808MOL0     H 6629  -2.001   2.107   9.310  0.9544  0.5565 -0.1623
  808MOL0     H 6630  -2.038   2.052   9.559  1.8727  1.1541 -1.9856
  808MOL0     H 6631  -2.169   1.992   9.446  2.2796 -0.5727 -0.8306
  808MOL0     H 6632  -2.304   2.209   9.492 -2.4792 -0.9301  1.1591
  808MOL0     H 6633  -2.180   2.247   9.616 -0.4966  1.2106 -0.9935
  808MOL0     H 6634  -2.365   1.997   9.592  1.2732  0.6578 -3.1891
  808MOL0     H 6635  -2.255   2.018   9.725 -1.8226  1.8128  3.0103
  808MOL0     H 6636  -2.473   2.086   9.793  0.8355 -0.4725 -0.6499
  808MOL0     H 6637  -2.502   2.193   9.661 -1.6912  0.4317  1.3942
  808MOL0     H 6638  -1.379   2.185   9.481  0.0012  0.8969  1.4480
  808MOL0     H 6639  -1.185   2.209   9.344 -1.6890 -1.2749  1.6008
  808MOL0     H 6640  -0.921   2.371   9.097  0.5894  0.0923  0.7356
  808MOL0     H 6641  -0.713   2.419   8.971  0.7617  2.1692 -3.0557
  808MOL0     H 6642   1.015   3.133   8.617  2.0948  0.1272 -3.6779
  808MOL0     H 6643   1.229   3.129   8.499  0.1265  0.1289 -0.7788
  808MOL0     H 6644   1.688   2.802   8.434  2.0746 -1.6956  2.3404
  808MOL0     H 6645   1.904   2.847   8.337 -2.2250 -1.0253  0.2558
  808MOL0     H 6646   2.052   2.973   8.167  1.0934  0.8403 -0.6049
  808MOL0     H 6647   2.156   3.109   8.169  0.4525  0.1803  0.9735
  808MOL0     H 6648   1.865   3.138   8.155  1.0504  0.0051  2.0447
  808MOL0     H 6649   1.971   3.272   8.189 -3.9444  2.7190 -2.3503
  808MOL0     H 6650   1.961   3.138   7.915 -0.4500 -0.2300  1.0169
  808MOL0     H 6651   2.091   3.239   7.964  0.9984 -3.2505  0.1944
  808MOL0     H 6652   1.798   3.317   7.973  0.3204  0.0095  0.0380
  808MOL0     H 6653   1.941   3.419   8.012  4.4822 -1.2045 -0.4916
  808MOL0     H 6654   1.938   3.406   7.590  1.9244 -0.3412  0.2675
  808MOL0     H 6655   1.887   3.261   8.431 -0.7579 -0.5219 -1.5234
  808MOL0     H 6656   1.649   3.221   8.532 -0.3446  0.1868 -1.7381
  809MOL0     O 6657   0.354   3.327   7.513  0.1699 -0.3758 -0.4541
  809MOL0     C 6658   0.460   3.269   7.501 -0.2699  0.0527  0.9487
  809MOL0     O 6659   0.482   3.156   7.425  0.2179 -0.2717 -0.4877
  809MOL0     C 6660   0.378   3.067   7.410  0.0355  0.1939  0.9906
  809MOL0     C 6661   0.247   3.068   7.451  0.9437 -0.6402  0.4987
  809MOL0     C 6662   0.161   2.959   7.472  0.1120  0.3148 -0.1867
  809MOL0     C 6663   0.208   2.835   7.442 -0.4393 -0.2713  0.6145
  809MOL0     O 6664   0.140   2.718   7.468 -0.4395 -0.2534 -0.0452
  809MOL0     C 6665  -0.007   2.721   7.450  0.1341  0.9814 -0.3106
  809MOL0     C 6666  -0.053   2.583   7.394  0.6093  0.3737 -0.1167
  809MOL0     C 6667  -0.204   2.542   7.411  0.4745 -0.8424 -0.3337
  809MOL0     C 6668  -0.315   2.645   7.381 -0.8111 -0.5603 -0.5629
  809MOL0     C 6669  -0.436   2.645   7.476 -0.2263  0.4044 -0.0411
  809MOL0     C 6670  -0.520   2.519   7.457 -0.9463 -0.8496  0.3825
  809MOL0     C 6671  -0.664   2.539   7.522 -0.6760 -0.9144 -1.0143
  809MOL0     C 6672  -0.745   2.409   7.512 -0.8278 -0.7593 -1.0368
  809MOL0     N 6673  -0.869   2.425   7.587  0.0980 -0.0583  0.9050
  809MOL0     C 6674  -0.887   2.356   7.702 -0.7517  0.5784 -0.9184
  809MOL0     C 6675  -1.016   2.358   7.735 -0.6624 -0.3802 -0.3846
  809MOL0     C 6676  -1.074   2.286   7.851 -0.2230 -0.8285 -0.0113
  809MOL0     C 6677  -1.221   2.318   7.859  0.3241 -0.3571 -0.7887
  809MOL0     C 6678  -1.292   2.210   7.946  0.6654 -0.0898 -0.6028
  809MOL0     C 6679  -1.443   2.230   7.945  0.0126 -0.1968 -0.3178
  809MOL0     O 6680  -1.489   2.219   7.812  0.4310  0.0422  0.4300
  809MOL0     C 6681  -1.570   2.114   7.794  0.0351 -0.0428 -0.0049
  809MOL0     C 6682  -1.512   1.992   7.770 -0.4470  0.6603 -0.0479
  809MOL0     C 6683  -1.592   1.880   7.736  0.6635  0.3019  0.4404
  809MOL0     C 6684  -1.730   1.886   7.757 -0.6017 -0.0575 -0.2543
  809MOL0     C 6685  -1.806   1.766   7.736 -0.0368 -0.6392  0.3469
  809MOL0     O 6686  -1.940   1.787   7.750 -0.0043 -0.0539  0.2145
  809MOL0     C 6687  -2.019   1.678   7.764  0.3449 -0.7196  0.8306
  809MOL0     C 6688  -2.057   1.639   7.898  0.0705 -0.5649  0.3731
  809MOL0     C 6689  -2.143   1.528   7.906  0.0317 -1.0365 -0.2580
  809MOL0     C 6690  -2.189   1.459   7.794  1.0739 -0.4880  0.2869
  809MOL0     O 6691  -2.268   1.345   7.818  0.1198  0.2408  0.3761
  809MOL0     C 6692  -2.287   1.250   7.714  0.9649 -0.5419 -1.0477
  809MOL0     C 6693  -2.392   1.307   7.618  0.7560 -0.1762 -0.3824
  809MOL0     C 6694  -2.520   1.343   7.697  1.0686 -0.7230  0.2862
  809MOL0     C 6695  -2.624   1.408   7.605  0.0496 -0.3156  0.1674
  809MOL0     C 6696  -2.768   1.385   7.655 -0.2763 -0.1568  0.0228
  809MOL0     C 6697  -2.812   1.236   7.640  0.6490 -0.7018  0.0857
  809MOL0     C 6698  -2.976   1.217   7.645  0.6647 -0.4774 -0.2106
  809MOL0     C 6699  -3.044   1.279   7.760 -0.2566  0.2333 -0.0376
  809MOL0    Cl 6700  -3.210   1.258   7.796  0.3255  0.1807 -0.0878
  809MOL0     C 6701  -2.135   1.489   7.670 -0.5302 -0.3307 -0.2202
  809MOL0     C 6702  -2.056   1.598   7.653  0.4396 -0.4034 -0.5903
  809MOL0     O 6703  -1.760   1.655   7.712 -0.4089 -0.0935  0.3480
  809MOL0     C 6704  -1.788   2.006   7.803 -1.5105  0.2402 -0.5731
  809MOL0     C 6705  -1.708   2.122   7.817  0.9937  0.9550 -0.3336
  809MOL0     N 6706  -1.084   2.422   7.628  0.7191 -0.0505 -0.0951
  809MOL0     N 6707  -1.001   2.467   7.547  0.5160  0.5347  0.1520
  809MOL0     C 6708   0.337   2.823   7.396  0.1161 -0.9137  0.2918
  809MOL0     C 6709   0.419   2.936   7.372 -0.3886  0.5950  0.2067
  809MOL0     C 6710   0.585   3.333   7.543  0.2966 -0.0755 -0.8502
  809MOL0     C 6711   0.710   3.274   7.514  0.0965  0.9390  0.9450
  809MOL0     C 6712   0.830   3.334   7.549 -0.0129 -0.2471  0.7444
  809MOL0     C 6713   0.832   3.465   7.602  0.6298 -0.7213  0.7583
  809MOL0     O 6714   0.946   3.542   7.619 -0.6190 -0.2291  0.1332
  809MOL0     C 6715   1.074   3.471   7.633  0.7522 -0.7002 -1.0009
  809MOL0     C 6716   1.140   3.476   7.495  0.8970 -0.3757  0.4528
  809MOL0     C 6717   1.280   3.436   7.523 -0.0717  0.2990  0.0609
  809MOL0     C 6718   1.357   3.432   7.396 -0.7927 -0.4489 -0.2981
  809MOL0     C 6719   1.477   3.346   7.405  0.0739 -0.6877  0.1909
  809MOL0     C 6720   1.561   3.257   7.414  0.5514 -0.5755 -0.1229
  809MOL0     C 6721   0.706   3.527   7.621 -0.3726 -0.2692 -0.2734
  809MOL0     C 6722   0.587   3.455   7.598 -0.5079  0.2584  0.4898
  809MOL0     H 6723   0.200   3.163   7.477  0.7079 -0.5680 -0.1784
  809MOL0     H 6724   0.059   2.980   7.503 -2.1036  0.9128 -6.3540
  809MOL0     H 6725  -0.036   2.801   7.382  1.1441 -0.2629 -2.3012
  809MOL0     H 6726  -0.057   2.741   7.545 -0.8716  1.0428 -0.8432
  809MOL0     H 6727  -0.011   2.501   7.453 -0.9694  0.1497  0.7401
  809MOL0     H 6728  -0.023   2.570   7.290 -0.8743 -6.2453 -0.1468
  809MOL0     H 6729  -0.232   2.512   7.513 -0.8047  1.1725 -0.0356
  809MOL0     H 6730  -0.224   2.450   7.356  1.5884 -1.3985  0.1618
  809MOL0     H 6731  -0.272   2.746   7.387 -0.4404 -0.7247 -0.4060
  809MOL0     H 6732  -0.342   2.638   7.275 -1.1604 -0.4477 -0.4855
  809MOL0     H 6733  -0.504   2.730   7.466 -2.5386 -1.4523 -1.0696
  809MOL0     H 6734  -0.394   2.654   7.577 -0.2113 -1.1493  0.1163
  809MOL0     H 6735  -0.464   2.432   7.491 -0.9101  0.1508  3.1629
  809MOL0     H 6736  -0.513   2.510   7.348 -2.0459  3.3541 -0.1958
  809MOL0     H 6737  -0.655   2.565   7.628 -1.4488 -3.4848 -0.2375
  809MOL0     H 6738  -0.724   2.618   7.477 -0.0276  0.5679  0.6035
  809MOL0     H 6739  -0.689   2.324   7.550 -0.8739 -0.3530 -0.0148
  809MOL0     H 6740  -0.771   2.395   7.407 -2.0547 -0.6938 -0.7582
  809MOL0     H 6741  -0.810   2.311   7.764  0.4304  1.9199 -1.3735
  809MOL0     H 6742  -1.023   2.325   7.940  1.5694 -2.0621 -0.4530
  809MOL0     H 6743  -1.072   2.177   7.842 -1.5227 -0.9174  0.5448
  809MOL0     H 6744  -1.267   2.304   7.760 -0.1050 -1.7943 -0.4112
  809MOL0     H 6745  -1.239   2.417   7.903  1.8828  1.2251 -3.4113
  809MOL0     H 6746  -1.263   2.110   7.912  1.2638 -0.5328  1.0869
  809MOL0     H 6747  -1.266   2.201   8.052 -2.7133 -3.1532  0.1812
  809MOL0     H 6748  -1.459   2.331   7.984  0.4649 -0.8579  1.6991
  809MOL0     H 6749  -1.478   2.162   8.024  3.0117 -0.5012  0.8994
  809MOL0     H 6750  -1.404   1.977   7.769 -0.6607 -1.4388  1.4569
  809MOL0     H 6751  -1.555   1.791   7.685 -0.3748  1.7098 -3.0686
  809MOL0     H 6752  -2.026   1.700   7.982 -0.2961  3.8034 -2.3484
  809MOL0     H 6753  -2.188   1.511   8.003  1.3666 -1.2654  0.3428
  809MOL0     H 6754  -2.314   1.151   7.750  0.6070 -1.1238 -2.8494
  809MOL0     H 6755  -2.189   1.232   7.668  1.0338 -0.8285 -0.7892
  809MOL0     H 6756  -2.421   1.237   7.539 -2.2044 -0.3017  0.6768
  809MOL0     H 6757  -2.366   1.404   7.574  1.2708 -0.8836 -1.6808
  809MOL0     H 6758  -2.507   1.411   7.781 -3.0387  0.8557 -0.1142
  809MOL0     H 6759  -2.560   1.255   7.749  2.1287 -0.0405  2.3727
  809MOL0     H 6760  -2.602   1.514   7.591  1.0648 -0.4167  0.9241
  809MOL0     H 6761  -2.615   1.373   7.502  0.7507  2.2257 -0.7196
  809MOL0     H 6762  -2.834   1.449   7.595 -1.2632 -0.5044  0.7154
  809MOL0     H 6763  -2.782   1.411   7.760  0.1191  0.8684 -0.1679
  809MOL0     H 6764  -2.770   1.174   7.720  0.4644  0.8617  1.4287
  809MOL0     H 6765  -2.761   1.196   7.552  0.7921  0.2579 -0.2777
  809MOL0     H 6766  -3.035   1.249   7.559  0.4621 -2.9076 -1.0618
  809MOL0     H 6767  -2.987   1.108   7.652  3.6030 -0.9847 -2.0277
  809MOL0     H 6768  -3.028   1.387   7.756 -1.6039  0.4318 -1.6555
  809MOL0     H 6769  -2.991   1.234   7.844 -0.0679  0.0706 -0.2417
  809MOL0     H 6770  -2.154   1.435   7.577 -1.5788 -1.9715  0.8940
  809MOL0     H 6771  -2.019   1.628   7.555  0.4586  1.1940 -0.1350
  809MOL0     H 6772  -1.892   2.007   7.831 -0.5013 -1.5779  4.1860
  809MOL0     H 6773  -1.738   2.221   7.849  0.9695  1.4943 -1.9183
  809MOL0     H 6774   0.374   2.722   7.378  1.2100 -0.3609 -0.7001
  809MOL0     H 6775   0.521   2.919   7.339 -0.2291 -0.0487  1.0080
  809MOL0     H 6776   0.715   3.179   7.461  1.3724  0.2750  2.2045
  809MOL0     H 6777   0.922   3.292   7.510  0.7521  1.8058  0.1862
  809MOL0     H 6778   1.076   3.368   7.671 -0.6090 -1.8639 -3.8009
  809MOL0     H 6779   1.119   3.537   7.708  1.9205 -1.5318 -0.9460
  809MOL0     H 6780   1.087   3.408   7.427 -1.6699  0.6978  1.2483
  809MOL0     H 6781   1.137   3.579   7.459 -4.7135 -0.6791 -0.9967
  809MOL0     H 6782   1.288   3.340   7.574  0.8540  1.3569  2.0038
  809MOL0     H 6783   1.314   3.508   7.597  2.9312 -0.0441 -0.8350
  809MOL0     H 6784   1.291   3.391   7.319 -0.5538 -1.6729  0.1371
  809MOL0     H 6785   1.402   3.526   7.363  0.1113 -0.0900  1.8244
  809MOL0     H 6786   1.645   3.191   7.426  0.7533 -0.1980  0.5727
  809MOL0     H 6787   0.696   3.631   7.652  1.9139  1.2912 -4.0380
  809MOL0     H 6788   0.491   3.505   7.608 -0.8254  0.2447 -1.9102
  810MOL0     O 6789   4.288   7.443   6.700 -0.7011  0.1707 -0.8756
  810MOL0     C 6790   4.308   7.338   6.761 -0.5534 -1.0158 -0.0522
  810MOL0     O 6791   4.212   7.249   6.798  0.0744  0.5467 -0.2779
  810MOL0     C 6792   4.085   7.265   6.756  0.1343  0.3391  0.1191
  810MOL0     C 6793   4.047   7.218   6.628  0.0683 -0.0506  0.2980
  810MOL0     C 6794   3.917   7.237   6.577 -0.1850  0.5448  0.8718
  810MOL0     C 6795   3.813   7.294   6.652 -0.8021  1.1281  0.1298
  810MOL0     O 6796   3.682   7.300   6.605  0.2561  0.3380 -0.8362
  810MOL0     C 6797   3.668   7.340   6.476 -0.0730  0.1287  0.5964
  810MOL0     C 6798   3.521   7.376   6.436  0.0740 -0.0556  0.0295
  810MOL0     C 6799   3.466   7.488   6.509 -0.0447 -0.6164 -0.9380
  810MOL0     C 6800   3.313   7.524   6.476  0.3790  0.1303  0.5342
  810MOL0     C 6801   3.260   7.643   6.552 -0.7606 -1.1393 -0.5253
  810MOL0     C 6802   3.126   7.689   6.494 -0.2507 -0.0473  0.2381
  810MOL0     C 6803   3.072   7.813   6.556  0.7769 -0.1277 -1.2313
  810MOL0     C 6804   2.949   7.858   6.469  0.0934  0.4786  0.4913
  810MOL0     N 6805   2.870   7.966   6.525  0.5773  0.0831 -1.3223
  810MOL0     C 6806   2.847   7.986   6.662  0.6403  0.2893 -0.0817
  810MOL0     C 6807   2.812   8.110   6.673 -0.0669  0.3821 -0.4086
  810MOL0     C 6808   2.771   8.177   6.798  0.2272  0.2087 -0.4027
  810MOL0     C 6809   2.630   8.230   6.774 -0.5762  0.5441 -0.1687
  810MOL0     C 6810   2.575   8.250   6.910  0.4826  0.2091  0.1945
  810MOL0     C 6811   2.455   8.347   6.906 -0.8874  0.2755 -0.0471
  810MOL0     O 6812   2.493   8.482   6.863 -0.0143  0.1748 -0.3508
  810MOL0     C 6813   2.396   8.573   6.849 -0.2012 -0.4842  0.6134
  810MOL0     C 6814   2.256   8.550   6.822 -0.4342 -0.5228 -0.3942
  810MOL0     C 6815   2.163   8.658   6.791 -0.3536 -1.0024 -0.7349
  810MOL0     C 6816   2.210   8.786   6.778 -0.1561 -0.2692  0.0651
  810MOL0     C 6817   2.120   8.904   6.744 -0.2806 -0.2278 -0.4018
  810MOL0     O 6818   2.179   9.012   6.706  0.0368 -0.4173  0.3867
  810MOL0     C 6819   2.093   9.117   6.673 -0.1109 -0.4685 -0.4436
  810MOL0     C 6820   2.046   9.194   6.772 -0.1558 -0.1354 -0.7081
  810MOL0     C 6821   1.952   9.289   6.737  0.5778 -0.4008  0.3379
  810MOL0     C 6822   1.917   9.318   6.598  0.2830 -0.4900  0.5546
  810MOL0     O 6823   1.837   9.419   6.545  0.4595  0.2301 -0.2858
  810MOL0     C 6824   1.742   9.488   6.633 -1.0140  0.3917 -0.2070
  810MOL0     C 6825   1.595   9.474   6.590 -0.3315 -0.8570  0.1948
  810MOL0     C 6826   1.541   9.327   6.582 -0.7123 -0.8934 -0.3689
  810MOL0     C 6827   1.401   9.341   6.521  0.2231  0.7196 -0.0007
  810MOL0     C 6828   1.329   9.204   6.516  0.0367 -0.3985  0.0738
  810MOL0     C 6829   1.193   9.231   6.438 -0.7888 -0.5957 -0.3629
  810MOL0     C 6830   1.104   9.337   6.503  0.1075 -0.2760 -0.0414
  810MOL0     C 6831   0.948   9.329   6.476  0.3354 -0.5114 -0.3643
  810MOL0    Cl 6832   0.904   9.326   6.300 -0.0214 -0.4031  0.1312
  810MOL0     C 6833   1.974   9.238   6.501 -1.2099 -0.0565 -0.4649
  810MOL0     C 6834   2.055   9.132   6.540 -0.3074 -0.1954  0.1478
  810MOL0     O 6835   2.000   8.887   6.725  0.0102  0.1711  0.1046
  810MOL0     C 6836   2.344   8.811   6.803 -0.9244  0.5421 -0.5201
  810MOL0     C 6837   2.430   8.704   6.839 -0.8063 -0.8958  0.8269
  810MOL0     N 6838   2.800   8.158   6.550  0.6834  0.0725  0.3926
  810MOL0     N 6839   2.815   8.068   6.456  0.7610  0.1875  0.2486
  810MOL0     C 6840   3.850   7.327   6.789  0.2977  0.5884  0.7758
  810MOL0     C 6841   3.980   7.312   6.837 -0.7767  0.4037 -1.1765
  810MOL0     C 6842   4.448   7.307   6.808 -0.1607 -0.2262 -0.7413
  810MOL0     C 6843   4.486   7.181   6.852 -0.0143  0.4079 -0.3913
  810MOL0     C 6844   4.606   7.166   6.907 -0.0943  0.3220 -0.1858
  810MOL0     C 6845   4.697   7.262   6.913 -0.9738 -0.4998 -0.1508
  810MOL0     O 6846   4.806   7.234   6.987 -0.4967  0.9107  0.2471
  810MOL0     C 6847   4.921   7.188   6.914  0.2890  0.5984  0.9466
  810MOL0     C 6848   5.054   7.205   6.995  0.9301 -0.4892  0.5600
  810MOL0     C 6849   5.084   7.362   7.001 -0.7461 -0.0614 -0.1710
  810MOL0     C 6850   5.213   7.383   7.084  1.1663  0.5501  0.0277
  810MOL0     C 6851   5.210   7.337   7.224 -0.5132 -0.2487 -0.3695
  810MOL0     C 6852   5.223   7.307   7.342  0.6615  0.1763 -0.1446
  810MOL0     C 6853   4.676   7.386   6.864  0.6610 -0.0894  1.0984
  810MOL0     C 6854   4.555   7.401   6.807  0.1324  0.3621 -0.3255
  810MOL0     H 6855   4.106   7.181   6.545  1.2140  1.8950  0.1929
  810MOL0     H 6856   3.893   7.200   6.478  0.5531 -0.4122  1.0475
  810MOL0     H 6857   3.709   7.259   6.414 -0.3373 -2.0732  3.1375
  810MOL0     H 6858   3.725   7.432   6.464  0.4805 -0.2590  0.2090
  810MOL0     H 6859   3.463   7.290   6.471  1.4285 -0.8714  0.3517
  810MOL0     H 6860   3.500   7.389   6.329 -0.9349  0.0860  0.2359
  810MOL0     H 6861   3.522   7.579   6.483 -1.8819  1.3075  1.3492
  810MOL0     H 6862   3.496   7.482   6.614 -0.9685 -0.8630 -0.6855
  810MOL0     H 6863   3.298   7.539   6.369 -0.6799  3.0696  0.9920
  810MOL0     H 6864   3.247   7.444   6.510 -0.5060  0.2531 -0.7987
  810MOL0     H 6865   3.323   7.733   6.547 -0.4578 -1.4001 -1.6968
  810MOL0     H 6866   3.250   7.615   6.657 -1.0463  0.5290 -0.0707
  810MOL0     H 6867   3.056   7.605   6.497 -0.6764  0.2743 -0.4360
  810MOL0     H 6868   3.138   7.703   6.386  3.1348  0.5351  0.5799
  810MOL0     H 6869   3.041   7.796   6.659  1.0326 -1.3485 -1.3360
  810MOL0     H 6870   3.145   7.895   6.553  1.9900 -1.1964 -2.0675
  810MOL0     H 6871   2.889   7.767   6.460 -0.1404  0.0130  4.6251
  810MOL0     H 6872   2.988   7.896   6.374  2.7082  0.9929  1.6783
  810MOL0     H 6873   2.861   7.914   6.742 -0.2785  0.5815  0.3598
  810MOL0     H 6874   2.836   8.255   6.839 -0.6853  1.1480 -0.7001
  810MOL0     H 6875   2.778   8.096   6.872  3.2843 -0.1548 -0.9413
  810MOL0     H 6876   2.570   8.173   6.703  0.5450 -0.1489 -0.5952
  810MOL0     H 6877   2.630   8.331   6.732 -1.9487 -0.6050 -3.1823
  810MOL0     H 6878   2.551   8.154   6.957 -1.4228 -1.0888 -3.0727
  810MOL0     H 6879   2.648   8.295   6.978 -0.9748 -0.6479  2.4477
  810MOL0     H 6880   2.397   8.354   6.999 -2.6821 -0.7467 -1.0158
  810MOL0     H 6881   2.389   8.304   6.830 -0.4988 -1.7934  0.7195
  810MOL0     H 6882   2.220   8.449   6.833 -1.0072 -0.3055 -0.2815
  810MOL0     H 6883   2.061   8.645   6.758 -0.9735 -2.5217  1.4963
  810MOL0     H 6884   2.076   9.180   6.876  2.4412  0.3660 -1.3175
  810MOL0     H 6885   1.916   9.335   6.828 -5.5905 -3.8163  0.1514
  810MOL0     H 6886   1.764   9.595   6.626 -0.1734  0.3165  1.0752
  810MOL0     H 6887   1.735   9.460   6.738  0.2769 -0.9595 -0.4420
  810MOL0     H 6888   1.596   9.531   6.497  2.6758  0.7842  1.1014
  810MOL0     H 6889   1.536   9.525   6.667  1.4536 -1.1031  1.7936
  810MOL0     H 6890   1.540   9.279   6.680  2.6344 -0.4966 -0.0139
  810MOL0     H 6891   1.609   9.269   6.518  1.7714  1.3460  0.0480
  810MOL0     H 6892   1.341   9.406   6.584  1.1603  2.0805 -0.4564
  810MOL0     H 6893   1.400   9.376   6.417  0.6441 -0.6040 -0.4744
  810MOL0     H 6894   1.315   9.161   6.616 -1.6702  0.4592  0.2453
  810MOL0     H 6895   1.388   9.131   6.461 -1.9807 -0.8584 -1.6076
  810MOL0     H 6896   1.140   9.136   6.434 -2.2613  0.1055  1.2711
  810MOL0     H 6897   1.215   9.262   6.336 -1.0206  0.9410  0.0287
  810MOL0     H 6898   1.127   9.352   6.609  2.5176 -0.4814 -0.4583
  810MOL0     H 6899   1.127   9.433   6.456  4.1819 -0.4059  1.2888
  810MOL0     H 6900   0.897   9.413   6.524 -0.1206 -2.3407  2.6820
  810MOL0     H 6901   0.911   9.243   6.532  1.0721 -1.6257 -1.5443
  810MOL0     H 6902   1.969   9.262   6.395  1.7613 -3.5657 -1.6219
  810MOL0     H 6903   2.091   9.066   6.462  2.2143  4.2282 -2.8223
  810MOL0     H 6904   2.394   8.908   6.804  3.6722 -1.5734  0.7182
  810MOL0     H 6905   2.529   8.735   6.873 -0.4780  1.0064 -1.5495
  810MOL0     H 6906   3.778   7.369   6.858 -0.9606 -0.1412 -0.0673
  810MOL0     H 6907   3.990   7.347   6.939 -0.0813 -0.7367 -0.8349
  810MOL0     H 6908   4.418   7.097   6.837  2.9994 -1.7380 -3.7673
  810MOL0     H 6909   4.619   7.075   6.965 -3.1893  0.9215  1.6975
  810MOL0     H 6910   4.933   7.246   6.822 -4.2097 -1.2628 -1.1162
  810MOL0     H 6911   4.904   7.082   6.894  3.2959 -0.0733  1.4242
  810MOL0     H 6912   5.037   7.165   7.095 -1.1515 -0.8635  0.1070
  810MOL0     H 6913   5.129   7.147   6.940 -0.6064 -0.6110 -1.5573
  810MOL0     H 6914   4.999   7.426   7.027  1.4994  3.6074 -1.1267
  810MOL0     H 6915   5.102   7.393   6.898 -1.3177 -0.7081 -0.4702
  810MOL0     H 6916   5.291   7.328   7.032 -0.6890  0.1128 -2.4722
  810MOL0     H 6917   5.220   7.492   7.073 -1.6668  0.8154  0.0046
  810MOL0     H 6918   5.217   7.276   7.444  0.6571 -0.0987 -0.2250
  810MOL0     H 6919   4.750   7.466   6.873  0.6045 -0.0251  0.9943
  810MOL0     H 6920   4.531   7.501   6.772  0.5281  1.4405  2.3011
  811MOL0     O 6921   6.819   1.934   5.370  0.3530 -0.1218 -0.1742
  811MOL0     C 6922   6.891   1.863   5.305 -0.3160  0.0350 -0.3477
  811MOL0     O 6923   6.871   1.799   5.191  0.2783  0.4358  1.0569
  811MOL0     C 6924   6.738   1.799   5.147 -0.5697  0.4390  0.8109
  811MOL0     C 6925   6.676   1.673   5.134  0.9255  0.5528  0.0956
  811MOL0     C 6926   6.540   1.663   5.089  0.1843 -0.1320  0.0555
  811MOL0     C 6927   6.458   1.777   5.075 -0.2592 -0.6288  0.3370
  811MOL0     O 6928   6.327   1.785   5.031 -0.6108 -0.5856 -0.7183
  811MOL0     C 6929   6.246   1.674   5.059 -0.0410  0.7005 -0.4947
  811MOL0     C 6930   6.105   1.711   5.048  0.1553 -0.8080 -0.3715
  811MOL0     C 6931   6.062   1.757   4.907 -0.6897 -0.3628 -0.2445
  811MOL0     C 6932   5.931   1.825   4.917  0.6709 -0.4338  0.6423
  811MOL0     C 6933   5.877   1.875   4.783  0.3501  0.2753 -0.5100
  811MOL0     C 6934   5.727   1.906   4.791  0.3645 -0.0809  0.0636
  811MOL0     C 6935   5.678   1.928   4.652  0.2854  0.2173 -0.7586
  811MOL0     C 6936   5.529   1.962   4.648 -0.0612 -0.1981  0.4198
  811MOL0     N 6937   5.440   1.855   4.682 -0.2129  0.8071 -0.1233
  811MOL0     C 6938   5.418   1.754   4.600 -0.3252 -0.3911  0.0111
  811MOL0     C 6939   5.371   1.655   4.681  0.0992  0.0049 -0.4623
  811MOL0     C 6940   5.319   1.524   4.636  0.4568 -0.2570  0.2063
  811MOL0     C 6941   5.404   1.473   4.525 -0.6160  0.3251 -0.6859
  811MOL0     C 6942   5.538   1.419   4.581 -0.6820  0.4467  0.4965
  811MOL0     C 6943   5.655   1.434   4.477  0.9403 -0.7021 -0.3683
  811MOL0     O 6944   5.767   1.341   4.491 -0.3929  0.1289 -0.2031
  811MOL0     C 6945   5.853   1.343   4.602  0.7914 -0.2612 -0.0096
  811MOL0     C 6946   5.947   1.239   4.613 -0.6059  0.5167 -0.0420
  811MOL0     C 6947   6.048   1.228   4.718  0.1898  0.3278  0.3270
  811MOL0     C 6948   6.048   1.323   4.826 -0.0947  0.5359  0.5309
  811MOL0     C 6949   6.148   1.314   4.935 -0.0317 -1.0695 -0.6080
  811MOL0     O 6950   6.268   1.243   4.899 -0.4846  0.3412 -0.3254
  811MOL0     C 6951   6.382   1.264   4.969 -0.5012 -0.6509 -0.6042
  811MOL0     C 6952   6.488   1.325   4.895  0.4920 -0.0585  0.6656
  811MOL0     C 6953   6.616   1.337   4.938  0.5607 -0.4290 -0.1658
  811MOL0     C 6954   6.638   1.320   5.071 -0.5339  0.4850  0.4114
  811MOL0     O 6955   6.755   1.341   5.143  0.1868  0.4409  0.3899
  811MOL0     C 6956   6.868   1.362   5.059 -0.1420  0.1841 -0.0962
  811MOL0     C 6957   6.995   1.343   5.140  0.8998 -0.7749 -0.4278
  811MOL0     C 6958   7.120   1.414   5.075  0.0632  0.1026  0.5153
  811MOL0     C 6959   7.260   1.400   5.137  0.4737 -0.0673 -0.1538
  811MOL0     C 6960   7.354   1.471   5.036 -0.4531 -1.1829 -0.5179
  811MOL0     C 6961   7.496   1.463   5.096  0.3267  0.0264  1.1500
  811MOL0     C 6962   7.607   1.530   5.000 -0.8785 -0.0477  0.6844
  811MOL0     C 6963   7.689   1.643   5.074  0.2261  0.1139 -0.6294
  811MOL0    Cl 6964   7.784   1.554   5.193 -0.5234 -0.2292  0.0340
  811MOL0     C 6965   6.538   1.269   5.154  0.2502  0.4545  0.6335
  811MOL0     C 6966   6.408   1.234   5.098  0.0237  0.7630  0.0166
  811MOL0     O 6967   6.130   1.375   5.041 -0.2986 -0.6416  0.0976
  811MOL0     C 6968   5.934   1.413   4.825  0.3306 -0.1233 -0.7315
  811MOL0     C 6969   5.848   1.425   4.719 -0.3326 -0.5818 -0.2755
  811MOL0     N 6970   5.364   1.700   4.811  0.4370  0.2081 -0.4345
  811MOL0     N 6971   5.407   1.823   4.805  0.0495  0.5599 -0.8531
  811MOL0     C 6972   6.529   1.905   5.083  1.6369  0.3243 -0.0406
  811MOL0     C 6973   6.666   1.916   5.110  0.3417 -0.3014  0.1607
  811MOL0     C 6974   7.026   1.853   5.359  0.0581 -0.4273  0.1254
  811MOL0     C 6975   7.110   1.746   5.322 -0.3917 -0.3426  0.0321
  811MOL0     C 6976   7.240   1.737   5.367  0.0872 -0.4269  0.1696
  811MOL0     C 6977   7.293   1.833   5.441  0.0441  0.3832 -0.6811
  811MOL0     O 6978   7.425   1.844   5.490  0.7565  0.8439  0.4244
  811MOL0     C 6979   7.503   1.730   5.478  0.1995  0.6043  0.0948
  811MOL0     C 6980   7.649   1.756   5.523  0.3980  0.4927  0.0417
  811MOL0     C 6981   7.673   1.757   5.672 -0.0620  0.0245  0.1163
  811MOL0     C 6982   7.809   1.820   5.701  0.1183 -0.2775  0.0365
  811MOL0     C 6983   7.922   1.728   5.672 -0.0489 -0.7778  0.3428
  811MOL0     C 6984   8.015   1.652   5.669 -0.0500  0.5797  0.5597
  811MOL0     C 6985   7.212   1.942   5.475  0.1378 -0.2730 -0.0518
  811MOL0     C 6986   7.078   1.953   5.439  0.2499 -0.4729 -0.7159
  811MOL0     H 6987   6.732   1.582   5.155  0.2007 -0.2476 -1.2587
  811MOL0     H 6988   6.494   1.567   5.068 -0.4739  0.3260 -0.6260
  811MOL0     H 6989   6.269   1.648   5.163  3.9050  0.8529 -1.1672
  811MOL0     H 6990   6.269   1.597   4.984 -0.5854 -0.6788  0.7060
  811MOL0     H 6991   6.092   1.791   5.121  2.1927 -1.7577  1.1185
  811MOL0     H 6992   6.048   1.623   5.080 -0.6640 -0.0668  0.2304
  811MOL0     H 6993   6.073   1.668   4.843 -1.8073 -1.6223  1.2401
  811MOL0     H 6994   6.130   1.830   4.862 -0.1318  0.3384  1.6705
  811MOL0     H 6995   5.859   1.756   4.961  0.0282  0.0668  0.3927
  811MOL0     H 6996   5.952   1.916   4.974 -0.6993  1.7515 -2.0861
  811MOL0     H 6997   5.886   1.787   4.719  2.2102 -1.5139  2.0032
  811MOL0     H 6998   5.942   1.954   4.746 -1.9212  1.7673 -1.5066
  811MOL0     H 6999   5.717   2.003   4.839 -0.4305 -0.0240 -0.2047
  811MOL0     H 7000   5.684   1.822   4.847  1.6171 -1.3548 -0.7955
  811MOL0     H 7001   5.733   2.010   4.606  2.1521 -0.2776  0.4398
  811MOL0     H 7002   5.684   1.839   4.589 -1.6370 -2.3333  2.3111
  811MOL0     H 7003   5.514   1.998   4.546 -1.2593  1.2159  1.0561
  811MOL0     H 7004   5.501   2.053   4.702 -2.9691  0.0734 -1.3252
  811MOL0     H 7005   5.426   1.753   4.492 -1.0968 -0.1901 -0.0512
  811MOL0     H 7006   5.221   1.540   4.589 -0.8119  2.1173  3.3281
  811MOL0     H 7007   5.309   1.460   4.724 -0.3790  0.1936  0.4508
  811MOL0     H 7008   5.410   1.552   4.449 -0.4574  1.1701  0.1806
  811MOL0     H 7009   5.357   1.391   4.470 -0.1909 -0.1019 -0.4138
  811MOL0     H 7010   5.563   1.467   4.676 -0.5376  3.2124 -0.8473
  811MOL0     H 7011   5.525   1.312   4.598 -1.0749  0.2544 -0.8771
  811MOL0     H 7012   5.673   1.541   4.479  0.7359 -0.6139  2.9643
  811MOL0     H 7013   5.601   1.404   4.387 -1.3311 -2.1593  1.3544
  811MOL0     H 7014   5.957   1.171   4.529  0.1165 -1.4541  1.5737
  811MOL0     H 7015   6.130   1.158   4.710  0.3448  0.7309 -3.5319
  811MOL0     H 7016   6.467   1.341   4.790 -1.2413 -2.9032  0.4890
  811MOL0     H 7017   6.693   1.381   4.876  0.8313  1.8923  1.6894
  811MOL0     H 7018   6.873   1.461   5.013  0.5759  0.0245 -0.3895
  811MOL0     H 7019   6.884   1.298   4.971  2.2745  0.7671 -0.1549
  811MOL0     H 7020   7.012   1.235   5.147 -0.1118 -1.0380 -1.7165
  811MOL0     H 7021   6.980   1.401   5.231  3.0292  3.0756 -2.3184
  811MOL0     H 7022   7.109   1.523   5.070  0.5287  0.2668  2.2772
  811MOL0     H 7023   7.132   1.388   4.970 -3.0550 -0.7038  0.2575
  811MOL0     H 7024   7.264   1.444   5.237  0.1215  0.8213 -0.5168
  811MOL0     H 7025   7.293   1.300   5.166  0.7803  0.6371  2.1297
  811MOL0     H 7026   7.326   1.575   5.017  0.0793 -0.9713 -0.1629
  811MOL0     H 7027   7.369   1.416   4.943  1.0766 -1.1329 -0.3324
  811MOL0     H 7028   7.517   1.356   5.109  0.8076 -0.0085  0.1863
  811MOL0     H 7029   7.501   1.497   5.200 -0.4672 -2.2888  2.0134
  811MOL0     H 7030   7.667   1.451   4.954 -1.0763 -0.1182  0.5465
  811MOL0     H 7031   7.558   1.578   4.915 -2.8435 -3.8699 -0.5718
  811MOL0     H 7032   7.618   1.708   5.124  1.3306 -0.5410  1.9183
  811MOL0     H 7033   7.742   1.710   5.006  0.1267  0.0558 -0.7662
  811MOL0     H 7034   6.556   1.254   5.260 -2.1858  2.6001  1.4397
  811MOL0     H 7035   6.341   1.174   5.159  3.3939 -2.2583  1.0440
  811MOL0     H 7036   5.918   1.482   4.908 -5.6251  2.2712 -3.3006
  811MOL0     H 7037   5.770   1.500   4.722 -1.6542 -1.9036  2.7100
  811MOL0     H 7038   6.469   1.993   5.066  0.4041 -0.8799 -2.5570
  811MOL0     H 7039   6.702   2.018   5.112  0.6532 -0.4212  0.8004
  811MOL0     H 7040   7.088   1.667   5.251  2.1937 -1.0032 -0.1215
  811MOL0     H 7041   7.293   1.650   5.329 -0.5663 -0.1818 -1.3758
  811MOL0     H 7042   7.514   1.685   5.379  2.1180 -0.2297  0.6329
  811MOL0     H 7043   7.469   1.654   5.549  1.0434 -1.2895 -1.4230
  811MOL0     H 7044   7.712   1.680   5.475  0.2991 -0.1287  0.8820
  811MOL0     H 7045   7.680   1.853   5.483  0.8932  0.2285 -0.2293
  811MOL0     H 7046   7.661   1.657   5.715  3.4243 -0.2371  0.7419
  811MOL0     H 7047   7.595   1.822   5.711  1.3345  2.2451 -0.6041
  811MOL0     H 7048   7.820   1.911   5.641 -2.5107 -1.5570 -2.6353
  811MOL0     H 7049   7.822   1.851   5.805  0.4295 -2.2268  0.6078
  811MOL0     H 7050   8.099   1.588   5.652 -1.7199 -1.5050 -0.2659
  811MOL0     H 7051   7.248   2.017   5.545  1.9362 -1.1070 -0.0571
  811MOL0     H 7052   7.029   2.046   5.470  1.5773  0.5752 -1.6380
  812MOL0     O 7053   0.957  10.359   1.407  0.0407 -0.1629  0.5047
  812MOL0     C 7054   0.920  10.471   1.376 -0.4749  1.0019  0.2459
  812MOL0     O 7055   0.806  10.532   1.422  0.6428  0.6425 -0.7216
  812MOL0     C 7056   0.712  10.464   1.499 -0.5678 -0.4397 -1.3080
  812MOL0     C 7057   0.607  10.541   1.547 -0.8073  0.1094 -0.0483
  812MOL0     C 7058   0.505  10.489   1.621  0.5679 -1.2084 -0.6221
  812MOL0     C 7059   0.512  10.365   1.665 -0.4475 -0.2132 -0.7829
  812MOL0     O 7060   0.411  10.329   1.753  0.1961  0.4064  0.1265
  812MOL0     C 7061   0.411  10.206   1.825  0.3753  0.2385  0.7960
  812MOL0     C 7062   0.522  10.176   1.924 -0.9012  0.4082 -0.5405
  812MOL0     C 7063   0.534  10.285   2.033  0.0554  0.1123 -0.2618
  812MOL0     C 7064   0.426  10.267   2.142 -0.2963 -0.0814  0.2606
  812MOL0     C 7065   0.454  10.337   2.265  0.1826 -0.3587 -0.2607
  812MOL0     C 7066   0.328  10.325   2.374 -0.5645 -0.2994  0.4349
  812MOL0     C 7067   0.293  10.181   2.416  0.0800 -0.2383 -0.3712
  812MOL0     C 7068   0.152  10.186   2.472 -0.9415 -0.0112  0.4021
  812MOL0     N 7069   0.110  10.058   2.522  0.1101 -0.2761  0.6868
  812MOL0     C 7070   0.154   9.936   2.490 -0.3614  0.3383  0.3337
  812MOL0     C 7071   0.096   9.843   2.568 -0.7377  0.0613 -0.9871
  812MOL0     C 7072   0.146   9.709   2.607 -0.0999  0.5021  0.0641
  812MOL0     C 7073   0.090   9.610   2.502  1.1845 -0.3268 -0.1944
  812MOL0     C 7074  -0.065   9.600   2.509 -0.4073  0.6041 -0.7386
  812MOL0     C 7075  -0.130   9.541   2.390 -0.5408 -0.1795  0.1808
  812MOL0     O 7076  -0.108   9.401   2.375 -0.7964 -0.1405 -0.2059
  812MOL0     C 7077  -0.202   9.337   2.301 -0.1029 -0.0853 -0.4277
  812MOL0     C 7078  -0.265   9.400   2.200  0.1542  0.7566 -0.5604
  812MOL0     C 7079  -0.363   9.346   2.114  1.5263 -0.0138  0.0826
  812MOL0     C 7080  -0.411   9.214   2.139 -0.5284  0.3208  0.8554
  812MOL0     C 7081  -0.518   9.156   2.061 -0.3650  0.3916  0.1672
  812MOL0     O 7082  -0.580   9.241   1.968  0.4904 -0.9995  0.4164
  812MOL0     C 7083  -0.676   9.194   1.886  0.0925 -0.2770  0.4283
  812MOL0     C 7084  -0.799   9.142   1.935  0.2735  0.6661 -0.6110
  812MOL0     C 7085  -0.915   9.128   1.859 -0.2753  0.1794  0.5469
  812MOL0     C 7086  -0.919   9.162   1.723 -0.2973  0.2509 -0.7354
  812MOL0     O 7087  -1.026   9.135   1.641 -0.3348 -0.1905  0.6593
  812MOL0     C 7088  -1.140   9.059   1.693  0.0746  0.1400  0.5539
  812MOL0     C 7089  -1.245   9.062   1.581 -0.7306  0.2048 -0.2480
  812MOL0     C 7090  -1.351   8.960   1.598 -0.0101 -0.4417  0.7830
  812MOL0     C 7091  -1.432   8.955   1.461  0.0313  0.7327 -0.1381
  812MOL0     C 7092  -1.539   8.841   1.478  0.6426 -0.5159 -0.2223
  812MOL0     C 7093  -1.637   8.844   1.366  0.1295  0.1983 -0.2848
  812MOL0     C 7094  -1.760   8.757   1.397  0.2952 -0.6945 -0.0094
  812MOL0     C 7095  -1.757   8.609   1.343 -0.2042  0.0753  0.3500
  812MOL0    Cl 7096  -1.933   8.541   1.348 -0.5742 -0.3619 -0.4762
  812MOL0     C 7097  -0.798   9.215   1.668  0.1780 -0.3010  0.1625
  812MOL0     C 7098  -0.681   9.233   1.753  0.5966  0.0173  0.2315
  812MOL0     O 7099  -0.559   9.044   2.080  0.1140 -0.6007  0.2995
  812MOL0     C 7100  -0.341   9.141   2.235 -0.3569 -0.2407  0.0139
  812MOL0     C 7101  -0.237   9.201   2.313 -0.6369  0.0287  0.1994
  812MOL0     N 7102   0.008   9.919   2.645 -0.4288  0.3330  0.1202
  812MOL0     N 7103   0.013  10.044   2.616  0.0150  1.1590 -0.8262
  812MOL0     C 7104   0.618  10.277   1.622  1.1635  0.7399 -0.4352
  812MOL0     C 7105   0.707  10.320   1.530  0.2818 -0.0901  0.5643
  812MOL0     C 7106   1.015  10.543   1.293  0.4720 -0.4188 -0.0073
  812MOL0     C 7107   1.017  10.683   1.293  0.1902 -0.1761  0.4396
  812MOL0     C 7108   1.097  10.753   1.207 -0.2171 -0.1302  0.2694
  812MOL0     C 7109   1.181  10.689   1.119  0.4483  0.6801 -0.5587
  812MOL0     O 7110   1.256  10.772   1.044 -0.3167  0.0579 -0.4246
  812MOL0     C 7111   1.370  10.713   0.982  0.0692  0.2794 -0.0383
  812MOL0     C 7112   1.468  10.834   0.941 -0.9382  0.6572 -0.3324
  812MOL0     C 7113   1.597  10.799   0.873  0.5665  0.3303 -0.2957
  812MOL0     C 7114   1.667  10.938   0.837 -0.2172 -0.2673 -0.0729
  812MOL0     C 7115   1.782  10.919   0.760  0.0506  0.3632  0.2341
  812MOL0     C 7116   1.878  10.891   0.687 -0.6471 -0.9456 -0.2131
  812MOL0     C 7117   1.185  10.551   1.123 -0.0797  0.7184  0.3045
  812MOL0     C 7118   1.102  10.481   1.206  0.1831 -0.2286 -0.6264
  812MOL0     H 7119   0.610  10.649   1.536  3.2039  0.3180  1.4726
  812MOL0     H 7120   0.423  10.552   1.654  1.9351 -0.6208  1.8710
  812MOL0     H 7121   0.406  10.113   1.767 -0.2293 -1.0130  2.7797
  812MOL0     H 7122   0.320  10.209   1.886 -0.1552  5.7484  0.2276
  812MOL0     H 7123   0.622  10.178   1.880  1.0984  0.3568  3.4902
  812MOL0     H 7124   0.520  10.076   1.967 -1.1907 -0.3713 -2.3163
  812MOL0     H 7125   0.523  10.383   1.986 -2.7719  0.4142  0.8529
  812MOL0     H 7126   0.632  10.282   2.080  0.5466 -0.0106 -1.2698
  812MOL0     H 7127   0.326  10.301   2.112 -1.6425  0.6406  4.8662
  812MOL0     H 7128   0.407  10.162   2.165 -3.6757  0.5216  0.7398
  812MOL0     H 7129   0.484  10.441   2.251 -0.3841 -0.1706 -0.0986
  812MOL0     H 7130   0.540  10.286   2.310  0.7367 -0.8442 -1.8086
  812MOL0     H 7131   0.238  10.371   2.333 -0.1074  0.3644  0.1384
  812MOL0     H 7132   0.354  10.390   2.458  0.4571  1.6030 -1.2536
  812MOL0     H 7133   0.298  10.117   2.328 -0.8660  0.4597 -0.9438
  812MOL0     H 7134   0.373  10.152   2.485 -1.1055  0.5048  1.3933
  812MOL0     H 7135   0.089  10.210   2.386  0.6799  4.5960  0.2055
  812MOL0     H 7136   0.146  10.269   2.542 -2.1152  1.3328 -1.2124
  812MOL0     H 7137   0.237   9.919   2.422 -0.9888  2.6734 -1.1688
  812MOL0     H 7138   0.109   9.701   2.709 -0.1211  1.3260  0.1311
  812MOL0     H 7139   0.254   9.705   2.621 -0.3723 -0.0968  2.3170
  812MOL0     H 7140   0.140   9.513   2.505  2.2379  0.1447 -1.3971
  812MOL0     H 7141   0.103   9.642   2.398  0.1162 -0.5525 -0.4003
  812MOL0     H 7142  -0.086   9.557   2.607 -0.7048  1.0527 -0.5985
  812MOL0     H 7143  -0.098   9.705   2.507 -0.8877  0.5248  1.1901
  812MOL0     H 7144  -0.094   9.604   2.308  1.8418 -0.2403  1.1233
  812MOL0     H 7145  -0.235   9.567   2.410 -0.7560 -0.0565 -1.0507
  812MOL0     H 7146  -0.248   9.502   2.168  3.1435  1.1109  1.7379
  812MOL0     H 7147  -0.410   9.398   2.032 -0.2580  0.5650  1.4040
  812MOL0     H 7148  -0.801   9.110   2.038  0.7791 -2.1278 -1.3879
  812MOL0     H 7149  -1.007   9.096   1.906 -1.0489  4.2725  2.2553
  812MOL0     H 7150  -1.170   9.107   1.788  2.1139 -2.4484  2.6434
  812MOL0     H 7151  -1.108   8.960   1.724 -0.1215 -0.3324 -0.7152
  812MOL0     H 7152  -1.196   9.049   1.484  0.2852  3.1291 -0.2448
  812MOL0     H 7153  -1.285   9.164   1.572  4.7733  3.0861  2.7318
  812MOL0     H 7154  -1.414   8.991   1.682 -2.0702  1.1147 -1.1947
  812MOL0     H 7155  -1.308   8.861   1.612  1.7077 -0.4027 -2.8595
  812MOL0     H 7156  -1.477   9.052   1.436  1.9364  2.1447  1.5483
  812MOL0     H 7157  -1.372   8.933   1.371 -1.1761  1.5345 -1.1728
  812MOL0     H 7158  -1.588   8.864   1.573 -1.7069 -1.9725 -0.9839
  812MOL0     H 7159  -1.491   8.744   1.488  0.9550 -0.2504  1.0208
  812MOL0     H 7160  -1.584   8.825   1.272  3.1652 -0.4521  1.4247
  812MOL0     H 7161  -1.672   8.947   1.371  2.5840  1.0382  1.8117
  812MOL0     H 7162  -1.776   8.754   1.505  0.6298  1.0630  0.1179
  812MOL0     H 7163  -1.857   8.797   1.366 -1.8276 -3.2717  2.6382
  812MOL0     H 7164  -1.683   8.565   1.411  0.5346  1.8314  0.7426
  812MOL0     H 7165  -1.728   8.599   1.238  1.6980 -0.3512  0.8717
  812MOL0     H 7166  -0.781   9.247   1.565  1.4939  0.8411  0.7018
  812MOL0     H 7167  -0.591   9.281   1.713  0.0389  2.1840  1.4395
  812MOL0     H 7168  -0.373   9.040   2.262  0.0943 -1.0198 -2.1747
  812MOL0     H 7169  -0.204   9.133   2.390 -0.5668 -1.2812 -0.9333
  812MOL0     H 7170   0.627  10.177   1.663 -0.1625  1.6402  2.2751
  812MOL0     H 7171   0.771  10.248   1.481 -0.2638 -1.2029  1.4360
  812MOL0     H 7172   0.946  10.742   1.350 -1.8789 -1.6726 -0.4574
  812MOL0     H 7173   1.098  10.860   1.192  0.6418 -0.4748 -2.8335
  812MOL0     H 7174   1.340  10.649   0.899  1.8967  1.1160 -1.4112
  812MOL0     H 7175   1.420  10.647   1.054 -3.1050 -1.8306  0.4588
  812MOL0     H 7176   1.421  10.900   0.867 -1.7807 -1.8952 -2.1833
  812MOL0     H 7177   1.492  10.880   1.038  3.4221 -2.2513  0.2290
  812MOL0     H 7178   1.568  10.744   0.783 -3.5249  0.8959  0.4988
  812MOL0     H 7179   1.653  10.731   0.939 -1.2070 -1.4790 -0.5611
  812MOL0     H 7180   1.605  11.018   0.795  0.6677 -0.9846 -3.0231
  812MOL0     H 7181   1.702  10.969   0.936  0.8220 -2.0893  0.1762
  812MOL0     H 7182   1.977  10.881   0.648 -1.0799 -1.4580 -1.2200
  812MOL0     H 7183   1.244  10.496   1.050 -1.0611 -2.5791  1.8231
  812MOL0     H 7184   1.100  10.372   1.204 -0.8569 -0.2094 -1.2130
  813MOL0     O 7185   1.377   6.392   0.028  0.5097  0.4510  0.6903
  813MOL0     C 7186   1.489   6.446   0.005 -0.3929  0.0392 -0.7870
  813MOL0     O 7187   1.505   6.573  -0.033  0.0117 -0.1285 -0.0269
  813MOL0     C 7188   1.405   6.669  -0.009  0.8553 -0.5026  0.3744
  813MOL0     C 7189   1.353   6.689   0.125 -0.5712  0.5263  0.7640
  813MOL0     C 7190   1.254   6.774   0.145  0.3304  1.1421  0.7403
  813MOL0     C 7191   1.190   6.837   0.037  0.4439 -0.5854  0.3243
  813MOL0     O 7192   1.081   6.920   0.058  0.0388 -0.1344  0.6380
  813MOL0     C 7193   0.975   6.926  -0.032  0.5535 -0.1768 -0.5182
  813MOL0     C 7194   0.848   6.898   0.047  0.7154  0.1761  0.0515
  813MOL0     C 7195   0.725   6.895  -0.055  0.3531  0.9784 -0.3114
  813MOL0     C 7196   0.593   6.878   0.027 -0.6376 -0.2337  0.7311
  813MOL0     C 7197   0.469   6.932  -0.045 -0.8522  0.1752  0.1481
  813MOL0     C 7198   0.344   6.901   0.021  0.2340  0.0609 -0.3775
  813MOL0     C 7199   0.234   6.998  -0.019 -0.2358  1.2364 -0.6496
  813MOL0     C 7200   0.111   6.971   0.064  0.3726 -0.1114 -0.0603
  813MOL0     N 7201  -0.007   7.045   0.023  0.5619 -0.9473  0.0315
  813MOL0     C 7202  -0.085   7.028  -0.094 -0.8777 -0.2626 -0.6443
  813MOL0     C 7203  -0.175   7.125  -0.104  0.7134 -0.3596  0.9520
  813MOL0     C 7204  -0.272   7.111  -0.219 -0.6806 -1.0685  0.8717
  813MOL0     C 7205  -0.225   7.093  -0.362 -0.5939 -0.0043 -0.2608
  813MOL0     C 7206  -0.344   7.084  -0.455  0.0352  0.9654  1.1708
  813MOL0     C 7207  -0.466   6.985  -0.427 -0.0765  0.4361  0.0714
  813MOL0     O 7208  -0.558   6.992  -0.538  0.0115 -0.2968  0.0574
  813MOL0     C 7209  -0.679   6.930  -0.532 -1.0074 -0.1188  0.3816
  813MOL0     C 7210  -0.740   6.902  -0.415  0.3407 -0.1787  0.1035
  813MOL0     C 7211  -0.868   6.847  -0.421 -0.0474  0.2770  0.0547
  813MOL0     C 7212  -0.929   6.807  -0.540 -0.9970 -0.0438 -0.3305
  813MOL0     C 7213  -1.050   6.726  -0.536  0.5709  0.4421 -0.3812
  813MOL0     O 7214  -1.118   6.706  -0.657 -0.2703  0.8763  0.2024
  813MOL0     C 7215  -1.250   6.671  -0.660  0.0301  0.7554  0.0255
  813MOL0     C 7216  -1.290   6.559  -0.596 -0.1796  0.5493  0.2354
  813MOL0     C 7217  -1.422   6.511  -0.616  1.3435 -0.6923  0.4201
  813MOL0     C 7218  -1.513   6.581  -0.699  0.3284  0.8348  0.3408
  813MOL0     O 7219  -1.643   6.543  -0.710  0.3725  0.6284 -0.0647
  813MOL0     C 7220  -1.693   6.413  -0.678 -0.3293 -0.2977  0.0746
  813MOL0     C 7221  -1.853   6.419  -0.687 -0.8065 -0.1109  0.6950
  813MOL0     C 7222  -1.936   6.312  -0.614 -0.4481  0.2665  0.2603
  813MOL0     C 7223  -2.080   6.363  -0.614  0.4128 -0.1378 -0.6625
  813MOL0     C 7224  -2.169   6.259  -0.536  0.5122 -0.4091 -0.2744
  813MOL0     C 7225  -2.314   6.302  -0.551 -0.0120  1.3082  0.8271
  813MOL0     C 7226  -2.404   6.221  -0.461 -0.8771  0.2653  0.3414
  813MOL0     C 7227  -2.394   6.232  -0.302  0.1894  0.3113 -0.2256
  813MOL0    Cl 7228  -2.347   6.401  -0.263  0.4101  0.2900  0.2460
  813MOL0     C 7229  -1.473   6.697  -0.766  0.2107  0.3737  0.3129
  813MOL0     C 7230  -1.349   6.746  -0.733  1.1547  0.2498 -0.4225
  813MOL0     O 7231  -1.102   6.698  -0.430 -0.1247  0.3388 -0.7285
  813MOL0     C 7232  -0.861   6.845  -0.655 -0.6179 -0.7262  0.2522
  813MOL0     C 7233  -0.738   6.902  -0.649  0.3830  0.1520 -0.3813
  813MOL0     N 7234  -0.164   7.206   0.011  0.2182  0.1697  0.3467
  813MOL0     N 7235  -0.065   7.151   0.082  0.6565  0.1703 -0.1103
  813MOL0     C 7236   1.235   6.819  -0.098 -0.3744  0.1371  0.1446
  813MOL0     C 7237   1.341   6.737  -0.114 -1.1687  0.2389  0.5097
  813MOL0     C 7238   1.611   6.366  -0.003  0.9208 -0.1720  0.4303
  813MOL0     C 7239   1.738   6.426  -0.014  0.6087  0.2331  1.2252
  813MOL0     C 7240   1.853   6.345  -0.010 -0.4374 -0.3699  0.4952
  813MOL0     C 7241   1.841   6.204   0.007  0.1717  0.1575 -0.0097
  813MOL0     O 7242   1.949   6.120   0.019 -0.2993  0.7403 -0.5795
  813MOL0     C 7243   2.083   6.170   0.002 -1.0222  0.8548 -0.4900
  813MOL0     C 7244   2.141   6.241   0.123  0.3569  0.4103  0.0881
  813MOL0     C 7245   2.156   6.154   0.246  0.4018 -1.0664 -0.5007
  813MOL0     C 7246   2.243   6.229   0.344  0.4204  0.7741 -0.7266
  813MOL0     C 7247   2.218   6.373   0.373  0.1377  0.0236 -0.3307
  813MOL0     C 7248   2.193   6.491   0.376  0.6867 -0.0209  0.5506
  813MOL0     C 7249   1.709   6.147   0.001 -0.4694  0.5435  0.4759
  813MOL0     C 7250   1.599   6.229  -0.004  0.0745 -0.1894  0.0814
  813MOL0     H 7251   1.389   6.616   0.196 -0.3106  1.3267  1.4744
  813MOL0     H 7252   1.202   6.779   0.240  0.9485  1.7046  1.0520
  813MOL0     H 7253   0.980   6.860  -0.119  2.2125 -0.1262 -0.4803
  813MOL0     H 7254   0.970   7.026  -0.075 -0.0498  0.6339  1.3276
  813MOL0     H 7255   0.845   6.962   0.135 -0.2065  1.2577 -0.7304
  813MOL0     H 7256   0.850   6.792   0.075 -0.2242 -1.1049 -3.9701
  813MOL0     H 7257   0.748   6.821  -0.132  1.2827  1.0707 -0.1362
  813MOL0     H 7258   0.708   6.987  -0.112 -2.6097  1.7713  1.5926
  813MOL0     H 7259   0.582   6.771   0.048  1.1352  0.2355  5.1370
  813MOL0     H 7260   0.601   6.928   0.124  1.2553  0.7308  0.1289
  813MOL0     H 7261   0.459   6.904  -0.150 -5.9846  0.9258  0.2080
  813MOL0     H 7262   0.487   7.039  -0.040 -1.6996  0.3771 -0.9508
  813MOL0     H 7263   0.349   6.890   0.129 -1.3865 -1.3776 -0.4074
  813MOL0     H 7264   0.314   6.802  -0.016  0.9510 -1.9894  3.9154
  813MOL0     H 7265   0.273   7.096   0.012  3.1216 -0.3786  0.7210
  813MOL0     H 7266   0.217   6.994  -0.127  0.0544  1.7359 -0.7177
  813MOL0     H 7267   0.141   6.984   0.169  0.7158  1.6704 -0.3501
  813MOL0     H 7268   0.088   6.866   0.046  0.3231  0.2033 -1.9442
  813MOL0     H 7269  -0.074   6.950  -0.169 -2.5320  0.5074 -1.7452
  813MOL0     H 7270  -0.311   7.212  -0.232  0.5922 -0.8544 -2.1970
  813MOL0     H 7271  -0.353   7.047  -0.183  0.6934 -1.6642  3.1609
  813MOL0     H 7272  -0.171   6.998  -0.363  1.6702  1.0324  3.3268
  813MOL0     H 7273  -0.150   7.171  -0.383  2.8415 -3.2602 -1.2165
  813MOL0     H 7274  -0.384   7.183  -0.478  0.0688  0.5121 -1.0672
  813MOL0     H 7275  -0.300   7.054  -0.551 -1.5316  1.8609  0.1396
  813MOL0     H 7276  -0.507   7.013  -0.329  1.6151  1.9274  0.4081
  813MOL0     H 7277  -0.432   6.882  -0.418 -2.2812 -0.3734 -0.0593
  813MOL0     H 7278  -0.687   6.926  -0.324  1.5560 -3.8672  0.5549
  813MOL0     H 7279  -0.924   6.822  -0.332  1.1039 -0.1295  0.6791
  813MOL0     H 7280  -1.228   6.504  -0.526  2.2116  0.7120 -1.6281
  813MOL0     H 7281  -1.446   6.415  -0.572 -1.1866 -1.2024 -1.8173
  813MOL0     H 7282  -1.664   6.378  -0.579 -0.7103 -1.6995 -0.2847
  813MOL0     H 7283  -1.663   6.334  -0.747  0.4074 -1.0319  1.2071
  813MOL0     H 7284  -1.890   6.416  -0.790 -3.6264 -0.6075  1.6309
  813MOL0     H 7285  -1.880   6.520  -0.653 -1.6572  0.0650 -0.4614
  813MOL0     H 7286  -1.892   6.312  -0.514  0.9704  1.9749 -0.3062
  813MOL0     H 7287  -1.922   6.210  -0.649  2.2669  1.2110 -1.7724
  813MOL0     H 7288  -2.088   6.460  -0.563 -0.6578  0.1386 -1.3442
  813MOL0     H 7289  -2.120   6.380  -0.714 -1.8779  1.9661  0.4868
  813MOL0     H 7290  -2.133   6.258  -0.432  1.2338 -1.1394 -0.5230
  813MOL0     H 7291  -2.147   6.157  -0.567 -1.5041 -1.1710  0.6595
  813MOL0     H 7292  -2.355   6.283  -0.650 -1.2999  1.4754  1.3121
  813MOL0     H 7293  -2.332   6.407  -0.527  1.0598  0.7481  4.9322
  813MOL0     H 7294  -2.509   6.218  -0.493 -1.0125 -1.9717  0.8364
  813MOL0     H 7295  -2.380   6.116  -0.480 -0.5614  0.6005 -1.3045
  813MOL0     H 7296  -2.325   6.155  -0.265  3.4110  2.9370 -0.2812
  813MOL0     H 7297  -2.499   6.214  -0.279  0.2178 -1.0655 -1.0707
  813MOL0     H 7298  -1.531   6.757  -0.836  1.4746 -1.7258 -2.7512
  813MOL0     H 7299  -1.329   6.836  -0.790 -0.3058  0.1261 -1.1840
  813MOL0     H 7300  -0.893   6.835  -0.758 -2.7897  2.3376  0.4883
  813MOL0     H 7301  -0.700   6.949  -0.739 -0.5015  3.1283  0.6469
  813MOL0     H 7302   1.195   6.846  -0.195  0.3918 -2.0477 -0.8663
  813MOL0     H 7303   1.366   6.716  -0.217 -0.3270  1.2727  0.4765
  813MOL0     H 7304   1.750   6.533  -0.024  0.5342  0.1302 -0.2352
  813MOL0     H 7305   1.951   6.388  -0.023  0.7530 -3.5758 -3.8610
  813MOL0     H 7306   2.092   6.240  -0.082  4.9055  1.2287  0.0420
  813MOL0     H 7307   2.142   6.082  -0.023 -2.2657 -0.5383  1.2866
  813MOL0     H 7308   2.242   6.273   0.095  0.8300 -0.3768  0.8437
  813MOL0     H 7309   2.087   6.335   0.139 -0.5921 -0.1196  0.0769
  813MOL0     H 7310   2.198   6.057   0.219  2.6968 -1.2273  2.9598
  813MOL0     H 7311   2.061   6.127   0.294  1.3294 -0.1498  2.0209
  813MOL0     H 7312   2.264   6.164   0.429 -0.0407  0.6403 -0.7075
  813MOL0     H 7313   2.344   6.226   0.304  2.2258 -1.1658  3.3870
  813MOL0     H 7314   2.160   6.593   0.368  0.0551  0.0256  2.8573
  813MOL0     H 7315   1.705   6.040   0.021  0.6856  0.4959  0.5519
  813MOL0     H 7316   1.501   6.184   0.007 -0.7455  1.7273  1.1404
  814MOL0     O 7317   2.013   9.144   2.339  0.2317 -0.3229 -0.3705
  814MOL0     C 7318   2.058   9.198   2.245  0.2809  0.5796 -0.2695
  814MOL0     O 7319   2.008   9.170   2.120  1.0264 -0.5464  0.2790
  814MOL0     C 7320   1.907   9.083   2.096 -0.8266 -0.6107 -0.3867
  814MOL0     C 7321   1.927   8.947   2.129  0.2916 -0.5817 -0.7361
  814MOL0     C 7322   1.826   8.857   2.107  0.1471 -0.1384 -0.6071
  814MOL0     C 7323   1.711   8.895   2.048  0.5621  0.0343  0.0062
  814MOL0     O 7324   1.611   8.796   2.049  0.5406  0.3690  0.4948
  814MOL0     C 7325   1.521   8.794   1.940 -0.8016 -0.4837 -0.0108
  814MOL0     C 7326   1.383   8.829   2.002 -0.2706 -0.3170 -0.5120
  814MOL0     C 7327   1.346   8.726   2.109 -0.5246 -0.0277  0.0116
  814MOL0     C 7328   1.197   8.748   2.159  1.2388  0.4117  0.3144
  814MOL0     C 7329   1.160   8.672   2.289  0.3938 -0.3448 -0.1139
  814MOL0     C 7330   1.116   8.530   2.257  0.7479 -0.8764  0.4621
  814MOL0     C 7331   1.079   8.449   2.377  0.0888  0.2794 -0.6178
  814MOL0     C 7332   1.059   8.303   2.314 -0.9367  0.1248 -0.4104
  814MOL0     N 7333   0.990   8.213   2.409 -0.7008  0.0172  0.5032
  814MOL0     C 7334   1.057   8.171   2.515 -0.3666  0.2094  0.3173
  814MOL0     C 7335   0.988   8.067   2.564 -0.0921  0.1512  0.2287
  814MOL0     C 7336   1.026   7.997   2.694 -1.2583  0.4536  0.1550
  814MOL0     C 7337   1.150   7.914   2.681 -0.5292 -0.4287 -0.0227
  814MOL0     C 7338   1.105   7.772   2.639  0.0428 -0.3647  0.1168
  814MOL0     C 7339   1.224   7.683   2.613 -0.3636  0.1118  0.1826
  814MOL0     O 7340   1.255   7.678   2.475 -0.3955 -0.3205  0.7029
  814MOL0     C 7341   1.385   7.650   2.436  0.3016  0.2590  0.1220
  814MOL0     C 7342   1.415   7.677   2.303 -0.1732 -0.3425  0.5533
  814MOL0     C 7343   1.547   7.665   2.257 -0.1613  0.0874 -0.1756
  814MOL0     C 7344   1.641   7.617   2.349  0.3248 -0.2032 -0.6481
  814MOL0     C 7345   1.780   7.601   2.302  0.0097 -0.5535 -0.4869
  814MOL0     O 7346   1.821   7.672   2.189 -0.7982 -0.2307  0.1327
  814MOL0     C 7347   1.955   7.699   2.156 -0.1722  0.2146 -0.0517
  814MOL0     C 7348   2.055   7.716   2.255 -0.1082 -0.8282  0.2934
  814MOL0     C 7349   2.180   7.743   2.204 -0.2030 -0.4021 -0.1188
  814MOL0     C 7350   2.220   7.736   2.069 -0.5987 -0.9746 -0.0186
  814MOL0     O 7351   2.353   7.755   2.049  0.3598  0.0097 -0.3005
  814MOL0     C 7352   2.392   7.769   1.910  0.1243 -0.7273 -1.3019
  814MOL0     C 7353   2.517   7.862   1.902  0.0536  0.3426 -0.2474
  814MOL0     C 7354   2.643   7.787   1.950 -0.1825 -0.5806  0.2890
  814MOL0     C 7355   2.770   7.849   1.896 -1.2367 -0.9030  0.8834
  814MOL0     C 7356   2.804   7.997   1.921 -1.1989  0.4187  0.0030
  814MOL0     C 7357   2.937   8.045   1.851 -0.0720 -0.5273 -0.2190
  814MOL0     C 7358   3.045   7.976   1.921  0.3704 -0.0127  0.3882
  814MOL0     C 7359   3.183   8.025   1.872  0.9857 -0.2148 -0.4976
  814MOL0    Cl 7360   3.200   8.203   1.875 -0.1602  0.2515  0.2538
  814MOL0     C 7361   2.119   7.725   1.973 -0.0293 -0.3454 -0.3321
  814MOL0     C 7362   1.988   7.710   2.024 -0.9315 -0.5075  0.1813
  814MOL0     O 7363   1.856   7.544   2.379 -0.6947 -0.6121 -0.0194
  814MOL0     C 7364   1.615   7.590   2.486 -0.7647  0.6732 -0.9991
  814MOL0     C 7365   1.486   7.606   2.529 -0.1336  0.0533  0.0740
  814MOL0     N 7366   0.890   8.036   2.476 -0.3258 -0.2617 -0.1671
  814MOL0     N 7367   0.885   8.134   2.388  0.0652  0.1417 -0.1281
  814MOL0     C 7368   1.692   9.026   2.012  0.2826 -0.7972  1.1985
  814MOL0     C 7369   1.787   9.124   2.035 -0.1220 -0.5691 -0.1848
  814MOL0     C 7370   2.173   9.282   2.262 -0.1297 -0.4468 -0.2605
  814MOL0     C 7371   2.240   9.352   2.156 -1.4913  0.1753  0.2490
  814MOL0     C 7372   2.360   9.420   2.178  0.3320  0.0585 -0.6183
  814MOL0     C 7373   2.419   9.434   2.303  0.0995  0.6819 -0.7049
  814MOL0     O 7374   2.524   9.520   2.326 -0.0241 -0.3859  0.5489
  814MOL0     C 7375   2.598   9.566   2.216  0.1497 -0.4873 -0.0839
  814MOL0     C 7376   2.742   9.608   2.262 -0.2502 -0.1160 -0.0207
  814MOL0     C 7377   2.813   9.496   2.349 -0.5959  0.0754  0.4219
  814MOL0     C 7378   2.917   9.409   2.263 -0.0671  0.3367  0.2589
  814MOL0     C 7379   3.023   9.487   2.209  0.0866 -0.4012  0.0723
  814MOL0     C 7380   3.113   9.563   2.180  0.4647 -0.5033 -0.6876
  814MOL0     C 7381   2.357   9.363   2.409  0.5535  0.0456  0.2933
  814MOL0     C 7382   2.241   9.287   2.389 -0.0175  0.1702  1.2248
  814MOL0     H 7383   2.014   8.926   2.190  0.1112 -0.5458 -0.4656
  814MOL0     H 7384   1.821   8.761   2.156  0.4458  1.1190  2.0708
  814MOL0     H 7385   1.515   8.699   1.887 -1.0357 -1.0602  1.0197
  814MOL0     H 7386   1.546   8.852   1.851 -2.9704  3.9369  1.9282
  814MOL0     H 7387   1.313   8.827   1.919  0.4103  1.2969 -1.1528
  814MOL0     H 7388   1.392   8.932   2.037  0.4628  0.7207 -3.4938
  814MOL0     H 7389   1.409   8.744   2.197  0.6202 -1.6952 -0.4292
  814MOL0     H 7390   1.363   8.622   2.079  0.3703  0.6721 -2.0944
  814MOL0     H 7391   1.190   8.850   2.199  2.8225  0.6710  0.0253
  814MOL0     H 7392   1.138   8.728   2.069  2.1105  2.7828 -0.8902
  814MOL0     H 7393   1.078   8.721   2.343  2.1458  0.5039  1.9211
  814MOL0     H 7394   1.250   8.678   2.350  0.6456 -2.5453 -0.2007
  814MOL0     H 7395   1.194   8.480   2.199  0.9394  1.9933 -1.9560
  814MOL0     H 7396   1.031   8.537   2.188 -0.4085  0.2777  1.9429
  814MOL0     H 7397   1.157   8.451   2.454 -0.8260 -2.7445  0.5495
  814MOL0     H 7398   0.984   8.478   2.423  0.0963 -3.0276  1.8761
  814MOL0     H 7399   1.161   8.265   2.302 -1.0829 -0.0749 -1.0918
  814MOL0     H 7400   1.002   8.308   2.221 -2.4851  1.0077  0.5372
  814MOL0     H 7401   1.148   8.219   2.550  0.6781 -1.4826  0.0480
  814MOL0     H 7402   0.939   7.937   2.723  0.1647 -2.7551 -1.6229
  814MOL0     H 7403   1.034   8.072   2.773 -1.5614 -1.8979  2.5885
  814MOL0     H 7404   1.206   7.910   2.775 -0.3276 -0.2936 -0.1394
  814MOL0     H 7405   1.223   7.949   2.608  0.3519 -3.6154 -0.8496
  814MOL0     H 7406   1.047   7.723   2.718 -0.3225 -0.5557 -0.2678
  814MOL0     H 7407   1.044   7.769   2.549  0.5751 -0.0301 -0.2632
  814MOL0     H 7408   1.200   7.588   2.661  0.0530  0.1044  0.3789
  814MOL0     H 7409   1.310   7.726   2.665  0.6136  0.7826 -1.8658
  814MOL0     H 7410   1.344   7.694   2.223  2.2646 -0.8399 -1.8633
  814MOL0     H 7411   1.554   7.685   2.151 -1.7612 -0.6005 -0.4448
  814MOL0     H 7412   2.029   7.712   2.360  0.2472 -4.2668  0.3817
  814MOL0     H 7413   2.263   7.756   2.273  3.0187  0.5115 -3.7352
  814MOL0     H 7414   2.307   7.812   1.856 -2.5283 -1.6094  1.8068
  814MOL0     H 7415   2.416   7.672   1.866  0.6030 -0.1527 -2.3466
  814MOL0     H 7416   2.494   7.952   1.961 -1.7252  0.1160 -0.5447
  814MOL0     H 7417   2.528   7.894   1.798 -3.3061 -1.0930 -1.1821
  814MOL0     H 7418   2.639   7.683   1.916 -0.9059 -0.6090  0.4547
  814MOL0     H 7419   2.655   7.780   2.058  0.2527  3.3849  0.6382
  814MOL0     H 7420   2.851   7.784   1.931  1.8172  2.9912  1.8109
  814MOL0     H 7421   2.780   7.840   1.787 -1.1349  3.0539  0.4122
  814MOL0     H 7422   2.814   8.009   2.029 -1.6090  1.2706 -0.0478
  814MOL0     H 7423   2.723   8.062   1.887 -0.0798  1.9189  0.1467
  814MOL0     H 7424   2.948   8.152   1.870  0.2140 -0.7509  0.9360
  814MOL0     H 7425   2.939   8.027   1.743  0.7115 -0.8771 -0.1538
  814MOL0     H 7426   3.028   7.976   2.029 -1.3254  0.3727  0.1446
  814MOL0     H 7427   3.046   7.869   1.896  1.3841  0.6482 -2.8866
  814MOL0     H 7428   3.201   7.985   1.771  3.3002  1.0052 -0.6215
  814MOL0     H 7429   3.262   7.971   1.924  1.4867  0.4185 -0.5942
  814MOL0     H 7430   2.142   7.720   1.867  0.7557  3.6667 -0.5174
  814MOL0     H 7431   1.901   7.721   1.959 -2.9358 -2.0290  2.4356
  814MOL0     H 7432   1.694   7.561   2.554 -0.3609 -0.7095 -2.0194
  814MOL0     H 7433   1.469   7.580   2.632  1.1517 -0.2884  0.2232
  814MOL0     H 7434   1.596   9.052   1.969  0.3648 -0.1141  1.4247
  814MOL0     H 7435   1.765   9.230   2.022 -0.6852 -0.1634  3.2399
  814MOL0     H 7436   2.209   9.337   2.053  0.0888 -0.8908 -0.1081
  814MOL0     H 7437   2.415   9.462   2.095  1.7441  1.7369  1.0797
  814MOL0     H 7438   2.554   9.653   2.166  1.2808 -2.5134 -5.1752
  814MOL0     H 7439   2.617   9.484   2.147  2.3938  1.5361 -2.0340
  814MOL0     H 7440   2.797   9.628   2.169 -2.0935 -2.0804 -1.6446
  814MOL0     H 7441   2.736   9.700   2.321  1.4422 -0.3358  0.5470
  814MOL0     H 7442   2.741   9.424   2.388  0.3854 -2.0287 -1.3991
  814MOL0     H 7443   2.863   9.535   2.438 -1.2102  1.0019  0.3827
  814MOL0     H 7444   2.958   9.329   2.325  0.5700 -0.8132 -1.5586
  814MOL0     H 7445   2.867   9.361   2.178  2.2386 -1.5577 -0.1488
  814MOL0     H 7446   3.199   9.616   2.145 -1.4888  2.2084 -1.7386
  814MOL0     H 7447   2.393   9.358   2.511 -1.5306  0.7730  1.1049
  814MOL0     H 7448   2.189   9.239   2.471 -0.2137 -3.2487 -0.7143
  815MOL0     O 7449   4.383   4.617   5.578  0.1377 -0.2171 -0.1566
  815MOL0     C 7450   4.416   4.594   5.463  0.6677 -0.3034 -0.6333
  815MOL0     O 7451   4.338   4.542   5.364  0.4937  0.5535  0.3685
  815MOL0     C 7452   4.206   4.529   5.394  0.1498 -0.1283 -0.0752
  815MOL0     C 7453   4.163   4.401   5.417  0.9942  0.6024  0.3121
  815MOL0     C 7454   4.028   4.386   5.450 -0.8207  1.0441  0.0605
  815MOL0     C 7455   3.938   4.491   5.460  0.3337  0.0204  0.7244
  815MOL0     O 7456   3.808   4.461   5.492  0.2359  0.0507 -0.4283
  815MOL0     C 7457   3.699   4.555   5.453 -0.4390  0.5359 -0.0266
  815MOL0     C 7458   3.562   4.483   5.461  0.2678  0.0588 -0.0035
  815MOL0     C 7459   3.449   4.586   5.464  0.7696  0.5080 -0.4638
  815MOL0     C 7460   3.312   4.519   5.446  0.1884 -0.2608 -0.7723
  815MOL0     C 7461   3.196   4.608   5.465 -0.4135 -0.4434 -0.1505
  815MOL0     C 7462   3.206   4.751   5.384  0.3456  0.2118 -0.7980
  815MOL0     C 7463   3.093   4.847   5.415  0.3561 -0.7261  1.0275
  815MOL0     C 7464   3.115   4.993   5.359  0.1189 -0.6088 -0.1800
  815MOL0     N 7465   3.012   5.084   5.404  0.4644  0.3370 -0.2680
  815MOL0     C 7466   3.025   5.224   5.412  0.2758 -0.0345  0.0097
  815MOL0     C 7467   2.901   5.262   5.451 -1.0515  0.1963  0.1476
  815MOL0     C 7468   2.855   5.405   5.457  0.6268 -0.2901  0.7847
  815MOL0     C 7469   2.850   5.479   5.589  0.0253  1.1383  0.5859
  815MOL0     C 7470   2.979   5.466   5.682  0.8985  0.6017  0.3749
  815MOL0     C 7471   2.950   5.351   5.778  0.3222  0.0128  0.6831
  815MOL0     O 7472   3.049   5.256   5.740  0.1013  0.0161 -0.1617
  815MOL0     C 7473   3.167   5.236   5.808  0.3297 -0.4096 -0.6645
  815MOL0     C 7474   3.260   5.160   5.735 -1.2757  0.8350 -0.7222
  815MOL0     C 7475   3.382   5.121   5.784  0.0989  0.6705  0.2821
  815MOL0     C 7476   3.414   5.169   5.908  0.9195  0.3752 -0.4961
  815MOL0     C 7477   3.528   5.107   5.974  0.2010  0.3141 -0.3153
  815MOL0     O 7478   3.515   5.094   6.113  0.4746  0.5955  0.2462
  815MOL0     C 7479   3.587   4.992   6.173 -0.4504 -0.4802 -0.2148
  815MOL0     C 7480   3.517   4.881   6.224 -0.2177  0.8770  0.5594
  815MOL0     C 7481   3.591   4.769   6.260  0.0046 -0.5657  0.7314
  815MOL0     C 7482   3.728   4.768   6.262 -0.1366  0.3342 -0.5760
  815MOL0     O 7483   3.785   4.658   6.323  0.2761 -0.6657  0.2175
  815MOL0     C 7484   3.911   4.606   6.261  0.7841 -0.0823 -1.1304
  815MOL0     C 7485   4.026   4.623   6.363 -0.4900 -0.1171  0.4545
  815MOL0     C 7486   4.155   4.633   6.273 -0.8483 -0.3785  0.2048
  815MOL0     C 7487   4.286   4.613   6.359 -0.1029 -0.4236 -0.0956
  815MOL0     C 7488   4.408   4.596   6.272 -0.9556 -0.3801  1.1233
  815MOL0     C 7489   4.535   4.576   6.351  0.3353  0.5076 -1.5798
  815MOL0     C 7490   4.553   4.436   6.414 -0.1712  0.0992 -0.3149
  815MOL0     C 7491   4.643   4.438   6.545  0.3776 -0.0429  0.0764
  815MOL0    Cl 7492   4.811   4.483   6.506 -0.4924 -0.0864  0.2669
  815MOL0     C 7493   3.796   4.878   6.221 -0.4749 -0.6249  0.6299
  815MOL0     C 7494   3.724   4.993   6.175 -0.9094 -0.5110  0.5111
  815MOL0     O 7495   3.630   5.075   5.911  0.5908 -0.1342 -0.4702
  815MOL0     C 7496   3.329   5.259   5.989 -0.5229 -0.5016  0.4052
  815MOL0     C 7497   3.210   5.299   5.932  0.8641 -0.2900  0.0925
  815MOL0     N 7498   2.810   5.160   5.444  0.0871 -0.0215 -0.2023
  815MOL0     N 7499   2.875   5.051   5.424 -0.6307  0.0871  0.4029
  815MOL0     C 7500   3.984   4.614   5.413 -0.3560 -0.0999 -0.6076
  815MOL0     C 7501   4.121   4.638   5.388 -0.2188  0.6910 -0.3673
  815MOL0     C 7502   4.550   4.635   5.424 -0.2226  0.2028  0.2603
  815MOL0     C 7503   4.601   4.627   5.297 -0.7285 -0.8882  0.5451
  815MOL0     C 7504   4.738   4.673   5.267  0.1078  0.1855 -0.3381
  815MOL0     C 7505   4.817   4.716   5.370  0.5432  0.4691 -0.1057
  815MOL0     O 7506   4.941   4.764   5.336  0.5766 -0.1337 -0.3260
  815MOL0     C 7507   5.028   4.672   5.271 -0.0105  0.5453  0.2822
  815MOL0     C 7508   5.154   4.760   5.264  0.6612 -0.6688 -0.6479
  815MOL0     C 7509   5.229   4.774   5.398  0.5043 -0.3530 -0.1284
  815MOL0     C 7510   5.362   4.860   5.418  0.3875 -1.5118  0.5579
  815MOL0     C 7511   5.351   4.994   5.366 -0.2922 -0.9026  0.9619
  815MOL0     C 7512   5.354   5.118   5.337 -0.3197 -0.6884 -0.3760
  815MOL0     C 7513   4.766   4.727   5.496 -0.9811 -0.9680  0.8498
  815MOL0     C 7514   4.636   4.693   5.520  0.2605 -0.1572  0.4970
  815MOL0     H 7515   4.240   4.325   5.401 -0.7246 -1.2206  0.3012
  815MOL0     H 7516   3.979   4.290   5.457 -0.8350  1.0740  0.3702
  815MOL0     H 7517   3.703   4.586   5.349 -3.1975 -2.5808 -1.2367
  815MOL0     H 7518   3.699   4.635   5.528 -0.4782  0.3344  0.1910
  815MOL0     H 7519   3.561   4.429   5.556 -1.0726  0.3133  0.1435
  815MOL0     H 7520   3.552   4.416   5.375 -0.1210 -2.1229  1.6602
  815MOL0     H 7521   3.463   4.661   5.385 -3.4011  3.3429  1.1833
  815MOL0     H 7522   3.446   4.634   5.562  3.1459 -0.7492  0.3107
  815MOL0     H 7523   3.307   4.477   5.345  0.3380 -1.4473 -0.3129
  815MOL0     H 7524   3.285   4.437   5.514 -0.6503  0.8843  0.3389
  815MOL0     H 7525   3.198   4.640   5.570 -0.3701  1.3203 -0.6740
  815MOL0     H 7526   3.104   4.559   5.431 -0.1286  0.3537 -2.1897
  815MOL0     H 7527   3.210   4.728   5.277  3.1905  1.4096 -1.0436
  815MOL0     H 7528   3.294   4.811   5.411 -0.5114  0.0695  2.8169
  815MOL0     H 7529   3.006   4.805   5.364 -0.4261 -0.0290  1.7755
  815MOL0     H 7530   3.076   4.850   5.523  3.4816 -0.9130  1.6369
  815MOL0     H 7531   3.102   4.984   5.251  0.6743  1.4622 -0.4640
  815MOL0     H 7532   3.211   5.042   5.380 -0.5559 -0.0719  1.9656
  815MOL0     H 7533   3.113   5.282   5.386 -1.4554  2.7511 -0.0271
  815MOL0     H 7534   2.755   5.409   5.412 -0.0874  1.4177  2.3912
  815MOL0     H 7535   2.932   5.463   5.404 -0.9578  2.7460  1.5585
  815MOL0     H 7536   2.768   5.430   5.641  2.1392 -4.0316 -0.3157
  815MOL0     H 7537   2.826   5.584   5.568 -1.8010  0.8446  1.1074
  815MOL0     H 7538   3.062   5.441   5.615 -0.7058 -5.1395  0.0123
  815MOL0     H 7539   2.996   5.552   5.748  2.8337 -1.3181  2.5898
  815MOL0     H 7540   2.849   5.310   5.768  0.5087 -0.2729 -0.0845
  815MOL0     H 7541   2.959   5.385   5.882 -1.6594  2.1278  0.2454
  815MOL0     H 7542   3.235   5.117   5.638 -1.3761  0.2955 -0.4614
  815MOL0     H 7543   3.448   5.061   5.722 -0.5422 -0.4949  0.7094
  815MOL0     H 7544   3.409   4.878   6.213 -0.0570 -3.0991 -1.3779
  815MOL0     H 7545   3.540   4.682   6.300 -0.1379 -0.9444 -0.2326
  815MOL0     H 7546   3.925   4.662   6.169 -0.8174  0.2655 -1.2020
  815MOL0     H 7547   3.897   4.503   6.227 -0.0485  0.2209 -1.7536
  815MOL0     H 7548   4.026   4.533   6.425 -1.8721 -1.8360 -1.8608
  815MOL0     H 7549   4.022   4.722   6.409 -0.4066 -0.1175  0.4604
  815MOL0     H 7550   4.170   4.726   6.216 -0.8813 -1.1129 -1.0314
  815MOL0     H 7551   4.150   4.554   6.198  2.4227 -1.0363  0.5544
  815MOL0     H 7552   4.303   4.704   6.418  0.2529  0.0338 -0.8836
  815MOL0     H 7553   4.273   4.543   6.442 -1.5474  0.0372  0.1092
  815MOL0     H 7554   4.406   4.681   6.204 -1.5894 -2.6396 -1.9013
  815MOL0     H 7555   4.396   4.516   6.198 -2.3987  1.1266 -0.3523
  815MOL0     H 7556   4.559   4.649   6.429  0.0974 -1.6470  0.6453
  815MOL0     H 7557   4.613   4.568   6.275  0.2658  0.0683 -1.6094
  815MOL0     H 7558   4.459   4.401   6.458  0.5363  0.5499  1.6415
  815MOL0     H 7559   4.582   4.363   6.338  0.0556 -0.2670  0.1162
  815MOL0     H 7560   4.625   4.341   6.592 -2.4895 -0.2049 -1.1042
  815MOL0     H 7561   4.595   4.509   6.613 -3.0365 -0.8551 -1.2799
  815MOL0     H 7562   3.900   4.865   6.193  0.2006 -1.4640  3.2358
  815MOL0     H 7563   3.774   5.077   6.127 -0.6284  0.2370  2.0586
  815MOL0     H 7564   3.359   5.293   6.088  2.0997  2.7936 -1.3032
  815MOL0     H 7565   3.134   5.345   5.995  1.2299 -2.4237  2.2177
  815MOL0     H 7566   3.918   4.699   5.395  0.2785  0.4233 -0.5373
  815MOL0     H 7567   4.163   4.731   5.352 -1.3208  0.8821 -1.1806
  815MOL0     H 7568   4.543   4.603   5.209  1.1090  1.4759 -1.4563
  815MOL0     H 7569   4.774   4.670   5.164 -1.3682  0.9832 -0.9100
  815MOL0     H 7570   5.001   4.638   5.171  2.0294 -1.1901  0.2589
  815MOL0     H 7571   5.041   4.582   5.332 -2.1620 -0.6326 -0.8935
  815MOL0     H 7572   5.229   4.737   5.188  1.9706 -0.4648  0.5458
  815MOL0     H 7573   5.117   4.858   5.232 -0.6255  0.2333  3.0225
  815MOL0     H 7574   5.272   4.676   5.421  5.6338  1.3441 -1.2555
  815MOL0     H 7575   5.158   4.795   5.478  0.5354 -0.0782 -0.1707
  815MOL0     H 7576   5.385   4.869   5.525  1.7377 -1.0491  0.2532
  815MOL0     H 7577   5.442   4.808   5.365  1.7632  1.2780 -0.2773
  815MOL0     H 7578   5.355   5.219   5.302 -1.7686 -0.3078  0.5723
  815MOL0     H 7579   4.818   4.774   5.579 -3.1473  1.0959  1.1543
  815MOL0     H 7580   4.599   4.701   5.622 -1.0259  2.4122 -0.0693
  816MOL0     O 7581  11.029   6.881   4.701  0.0355  0.3141 -0.2125
  816MOL0     C 7582  11.065   6.957   4.616 -0.9943 -0.7275  0.3987
  816MOL0     O 7583  11.002   7.055   4.558 -0.3042 -0.2617 -0.0425
  816MOL0     C 7584  10.865   7.069   4.587 -0.3464 -0.2944 -0.2100
  816MOL0     C 7585  10.769   6.970   4.569 -0.3959  0.2189 -1.1036
  816MOL0     C 7586  10.635   7.000   4.594 -0.2131 -0.3258 -0.4475
  816MOL0     C 7587  10.600   7.130   4.631 -0.1265  0.5434 -0.0910
  816MOL0     O 7588  10.460   7.152   4.656 -0.1103  0.9690 -0.9755
  816MOL0     C 7589  10.410   7.284   4.648  0.2440 -0.0749  0.4990
  816MOL0     C 7590  10.252   7.282   4.663 -0.3332 -0.3447  0.0356
  816MOL0     C 7591  10.197   7.139   4.646  0.2505 -0.0400 -0.1117
  816MOL0     C 7592  10.044   7.140   4.698 -0.5409  0.2761  0.4862
  816MOL0     C 7593   9.946   7.192   4.582 -0.3328  0.5927 -0.3246
  816MOL0     C 7594   9.803   7.220   4.638  0.5090 -0.1490 -0.3660
  816MOL0     C 7595   9.717   7.278   4.533  0.4651  0.0834  0.9008
  816MOL0     C 7596   9.681   7.198   4.408  0.9433  0.5424  0.8135
  816MOL0     N 7597   9.637   7.057   4.445  0.1697 -0.4315  0.6010
  816MOL0     C 7598   9.522   7.028   4.514  0.3428  0.1336  0.2438
  816MOL0     C 7599   9.525   6.899   4.541 -0.6235  0.2987 -0.4466
  816MOL0     C 7600   9.420   6.814   4.616  0.2510 -0.7599 -0.0401
  816MOL0     C 7601   9.292   6.793   4.529 -0.3722 -0.5864 -0.8331
  816MOL0     C 7602   9.209   6.705   4.628 -0.1962  0.0403  0.2310
  816MOL0     C 7603   9.080   6.656   4.569  0.3762 -0.2688 -0.2755
  816MOL0     O 7604   9.009   6.760   4.496 -0.1534 -0.4549  0.1420
  816MOL0     C 7605   8.901   6.738   4.422 -0.3147  0.3989  0.4242
  816MOL0     C 7606   8.834   6.615   4.406 -0.1131 -0.2941  0.2164
  816MOL0     C 7607   8.703   6.604   4.353  0.4214 -0.0405  0.6149
  816MOL0     C 7608   8.639   6.716   4.300  0.1429 -0.5797 -0.4454
  816MOL0     C 7609   8.509   6.699   4.237 -0.0970 -0.4329 -0.2918
  816MOL0     O 7610   8.447   6.582   4.238  0.0400  0.8916  0.5434
  816MOL0     C 7611   8.323   6.554   4.184  0.3203 -0.5157  0.5005
  816MOL0     C 7612   8.254   6.442   4.233 -0.3099 -0.1577  0.4705
  816MOL0     C 7613   8.133   6.399   4.192  0.5526 -0.2939 -0.1535
  816MOL0     C 7614   8.063   6.473   4.098 -0.1936 -0.7914  0.3574
  816MOL0     O 7615   7.939   6.422   4.060  0.7795  0.3553  0.4569
  816MOL0     C 7616   7.889   6.450   3.934  0.9631 -0.6655  0.3398
  816MOL0     C 7617   7.772   6.543   3.950 -0.4857  0.3150 -0.5856
  816MOL0     C 7618   7.679   6.546   3.827  0.2459 -0.3799  0.0645
  816MOL0     C 7619   7.554   6.638   3.850 -0.2747  0.4639 -0.1059
  816MOL0     C 7620   7.468   6.658   3.720  0.0403  0.5894  0.0161
  816MOL0     C 7621   7.386   6.532   3.694  0.2132  0.3534  0.1077
  816MOL0     C 7622   7.268   6.565   3.612  0.7072  0.1392  0.4453
  816MOL0     C 7623   7.183   6.440   3.571 -0.0710  0.0943  0.1796
  816MOL0    Cl 7624   7.251   6.354   3.424 -0.3323 -0.1176 -0.1881
  816MOL0     C 7625   8.113   6.597   4.056 -0.4336  0.0311  0.0092
  816MOL0     C 7626   8.250   6.628   4.087  1.0331 -0.6399 -0.1193
  816MOL0     O 7627   8.448   6.805   4.219  0.4883 -0.1514 -0.4166
  816MOL0     C 7628   8.712   6.833   4.292 -0.6614  0.3864  0.2034
  816MOL0     C 7629   8.838   6.846   4.354  0.4725  1.1719  0.3406
  816MOL0     N 7630   9.638   6.841   4.479 -0.1280  0.6314 -0.6756
  816MOL0     N 7631   9.712   6.941   4.424  0.5179 -0.1499  0.0824
  816MOL0     C 7632  10.696   7.234   4.636  0.3641 -0.0934 -1.4484
  816MOL0     C 7633  10.832   7.199   4.621 -0.3594 -0.7318 -0.7447
  816MOL0     C 7634  11.206   6.932   4.572 -0.2174 -0.3591 -0.2383
  816MOL0     C 7635  11.281   7.011   4.476  0.1127  0.4795 -0.1086
  816MOL0     C 7636  11.418   6.987   4.447  0.3164 -0.2113  0.2457
  816MOL0     C 7637  11.479   6.868   4.497 -0.0638 -0.4218 -0.5444
  816MOL0     O 7638  11.614   6.833   4.487  0.2939  0.0664  0.4525
  816MOL0     C 7639  11.688   6.922   4.402  0.1367 -1.1578  0.0971
  816MOL0     C 7640  11.839   6.883   4.400  0.6546 -0.3092  0.4610
  816MOL0     C 7641  11.928   6.956   4.302 -0.0040 -0.5248 -0.9608
  816MOL0     C 7642  12.080   6.918   4.327  0.0245 -0.9763 -0.2155
  816MOL0     C 7643  12.150   6.979   4.214 -0.0044  0.3349 -1.2083
  816MOL0     C 7644  12.194   7.035   4.118 -0.7746  0.3071  0.5278
  816MOL0     C 7645  11.405   6.790   4.590  0.7876 -0.6015 -1.2632
  816MOL0     C 7646  11.280   6.819   4.630  0.5152  0.0143  0.8378
  816MOL0     H 7647  10.793   6.867   4.543  0.7296  0.0453  0.4698
  816MOL0     H 7648  10.558   6.926   4.577 -1.1833  0.9632 -1.9082
  816MOL0     H 7649  10.431   7.330   4.551  1.7982  1.8009  1.6386
  816MOL0     H 7650  10.454   7.342   4.730 -0.1002 -2.1030  2.2013
  816MOL0     H 7651  10.201   7.358   4.603  2.6620  1.6254 -0.2320
  816MOL0     H 7652  10.244   7.319   4.766  1.2260 -0.1292  0.1093
  816MOL0     H 7653  10.257   7.060   4.693  1.2843  0.2826 -0.8620
  816MOL0     H 7654  10.176   7.116   4.541 -2.0363  0.4735  0.1750
  816MOL0     H 7655  10.024   7.036   4.723  0.3647 -0.0446 -0.0640
  816MOL0     H 7656  10.024   7.199   4.788 -0.3413  2.4485 -0.7985
  816MOL0     H 7657   9.932   7.114   4.507 -0.2721  0.5646 -0.3069
  816MOL0     H 7658   9.982   7.284   4.536  0.1560  1.0308  0.8709
  816MOL0     H 7659   9.823   7.299   4.712  0.6071  1.6554 -2.2303
  816MOL0     H 7660   9.750   7.138   4.687 -1.7142  0.1513 -2.1061
  816MOL0     H 7661   9.620   7.296   4.580 -0.0563 -2.1710  0.8089
  816MOL0     H 7662   9.767   7.367   4.493  0.2184 -1.3260 -2.9323
  816MOL0     H 7663   9.762   7.180   4.337  0.1094 -1.2006  0.2413
  816MOL0     H 7664   9.614   7.257   4.345 -0.6819 -0.5707  1.4381
  816MOL0     H 7665   9.434   7.089   4.528 -0.6697 -1.2932  0.3164
  816MOL0     H 7666   9.394   6.882   4.697 -1.4172 -1.0900 -0.2647
  816MOL0     H 7667   9.470   6.720   4.642  0.9646 -0.9202 -1.7956
  816MOL0     H 7668   9.307   6.751   4.429 -3.8097  1.9001 -2.5945
  816MOL0     H 7669   9.244   6.890   4.513  1.6094  0.5418 -0.3220
  816MOL0     H 7670   9.275   6.635   4.680  2.7361  1.1730 -1.6896
  816MOL0     H 7671   9.163   6.779   4.694 -0.7984 -1.1392  1.1761
  816MOL0     H 7672   9.010   6.620   4.646 -0.3618 -0.5825 -1.0769
  816MOL0     H 7673   9.093   6.574   4.498 -1.2094  0.9764 -2.1129
  816MOL0     H 7674   8.887   6.525   4.438 -0.2826 -1.0925 -1.6150
  816MOL0     H 7675   8.643   6.514   4.353 -1.0171  0.8334 -1.5187
  816MOL0     H 7676   8.316   6.387   4.303  1.7294  1.1010 -0.2902
  816MOL0     H 7677   8.086   6.312   4.237 -1.0041  1.7164  2.3697
  816MOL0     H 7678   7.861   6.358   3.882 -2.6548  0.2559  0.4139
  816MOL0     H 7679   7.965   6.489   3.864 -1.2903 -2.3802 -3.3718
  816MOL0     H 7680   7.805   6.644   3.973  0.0927  0.8724 -3.4328
  816MOL0     H 7681   7.711   6.498   4.029  1.4239  0.1886  0.8628
  816MOL0     H 7682   7.637   6.446   3.815 -0.8067 -0.2489  2.0453
  816MOL0     H 7683   7.721   6.585   3.734 -1.4257  0.7163 -0.2831
  816MOL0     H 7684   7.493   6.602   3.934  0.4790 -1.9448 -0.5143
  816MOL0     H 7685   7.594   6.734   3.882  0.3022  0.9244 -2.1235
  816MOL0     H 7686   7.525   6.678   3.628  0.5765  1.1015  0.4507
  816MOL0     H 7687   7.404   6.745   3.733 -1.0466 -0.4642  2.1073
  816MOL0     H 7688   7.350   6.488   3.788 -1.5211  0.6490 -0.3943
  816MOL0     H 7689   7.455   6.465   3.642  0.8034  0.5396  0.6289
  816MOL0     H 7690   7.199   6.630   3.667  1.1887  1.9067 -0.9277
  816MOL0     H 7691   7.295   6.624   3.524  1.6303 -0.6414  0.1910
  816MOL0     H 7692   7.080   6.476   3.557  0.7186  2.2447 -0.3373
  816MOL0     H 7693   7.185   6.370   3.655  0.7354 -0.1949 -0.0727
  816MOL0     H 7694   8.055   6.661   3.991  3.1255  0.5706 -3.0089
  816MOL0     H 7695   8.283   6.721   4.041 -0.5907 -1.1906 -2.5747
  816MOL0     H 7696   8.669   6.917   4.237  0.9665 -1.4110 -4.2312
  816MOL0     H 7697   8.867   6.950   4.368 -0.2324  1.6738 -1.5866
  816MOL0     H 7698  10.660   7.332   4.666 -0.2299 -1.0463  1.2002
  816MOL0     H 7699  10.912   7.270   4.641  0.5760 -2.5588  3.0601
  816MOL0     H 7700  11.231   7.100   4.437 -0.8300  0.2699  0.5652
  816MOL0     H 7701  11.463   7.063   4.383 -0.2341 -1.6049 -1.8838
  816MOL0     H 7702  11.677   7.020   4.449  0.0801 -1.9073  1.7148
  816MOL0     H 7703  11.645   6.928   4.301 -0.5067  2.7253  0.4438
  816MOL0     H 7704  11.874   6.887   4.504  2.1864  2.4816 -0.0651
  816MOL0     H 7705  11.837   6.781   4.363 -0.5143 -0.5447  1.1117
  816MOL0     H 7706  11.908   7.063   4.313 -1.4151 -1.0003  1.9427
  816MOL0     H 7707  11.894   6.928   4.202  0.3924  0.4677 -1.3851
  816MOL0     H 7708  12.109   6.957   4.424 -0.1143  1.1843 -0.9813
  816MOL0     H 7709  12.097   6.811   4.312  0.4629 -0.8115 -0.9574
  816MOL0     H 7710  12.224   7.086   4.029 -1.0563  2.5058  1.6300
  816MOL0     H 7711  11.442   6.704   4.644 -2.1243 -1.6106 -0.6927
  816MOL0     H 7712  11.230   6.746   4.693 -0.6731  0.2933  0.2488
  817MOL0     O 7713  10.703   6.581   3.748  0.5255 -0.5325 -0.3581
  817MOL0     C 7714  10.715   6.616   3.631 -0.4101 -0.2555 -0.1378
  817MOL0     O 7715  10.611   6.616   3.526  0.9252 -0.5033 -1.0361
  817MOL0     C 7716  10.478   6.575   3.558 -0.7285  0.2483 -0.2784
  817MOL0     C 7717  10.445   6.471   3.648  0.7699 -0.5397  0.4745
  817MOL0     C 7718  10.309   6.445   3.679  0.4690  0.7939  0.3676
  817MOL0     C 7719  10.208   6.520   3.623  0.2429  0.0662 -0.2027
  817MOL0     O 7720  10.082   6.485   3.659 -0.4699 -0.4858 -0.4598
  817MOL0     C 7721   9.969   6.544   3.594  0.5508  0.2027  0.0215
  817MOL0     C 7722   9.856   6.442   3.636 -0.5644 -0.6974 -0.9009
  817MOL0     C 7723   9.717   6.491   3.596  0.1265  0.0565  0.6131
  817MOL0     C 7724   9.595   6.389   3.614  0.7435  0.5450 -0.1058
  817MOL0     C 7725   9.625   6.252   3.569 -0.2555 -0.0109 -0.2877
  817MOL0     C 7726   9.523   6.140   3.584 -0.2283  0.2248  0.4933
  817MOL0     C 7727   9.475   6.094   3.449  0.9797  0.0360  0.1584
  817MOL0     C 7728   9.409   6.200   3.362  0.1007 -0.3250  0.8594
  817MOL0     N 7729   9.275   6.230   3.408 -0.2389  0.2977 -0.0885
  817MOL0     C 7730   9.220   6.355   3.405  0.8146 -0.3533 -0.1198
  817MOL0     C 7731   9.085   6.330   3.396 -0.2827  0.0140  0.1932
  817MOL0     C 7732   8.975   6.433   3.394  0.6408  0.4279  0.5835
  817MOL0     C 7733   8.877   6.414   3.281  0.1892  0.6211  0.6085
  817MOL0     C 7734   8.775   6.531   3.293 -0.1925  0.0413  0.1940
  817MOL0     C 7735   8.663   6.526   3.192  0.0693  0.8107 -0.0761
  817MOL0     O 7736   8.724   6.504   3.060 -0.1012  0.1908 -0.3495
  817MOL0     C 7737   8.641   6.507   2.949 -0.6773 -0.4121 -0.3650
  817MOL0     C 7738   8.704   6.473   2.827  0.8585  0.2874  0.0123
  817MOL0     C 7739   8.640   6.477   2.702 -0.0585 -0.1556 -0.0244
  817MOL0     C 7740   8.498   6.494   2.704  0.5951 -0.1475  0.1392
  817MOL0     C 7741   8.425   6.481   2.579 -0.1486 -0.4980  0.9601
  817MOL0     O 7742   8.499   6.420   2.470 -0.4947 -0.0589 -0.2683
  817MOL0     C 7743   8.431   6.406   2.348  0.2398  0.2447  0.4258
  817MOL0     C 7744   8.436   6.278   2.295  0.0421 -1.2720 -0.5590
  817MOL0     C 7745   8.357   6.236   2.187 -0.0060 -0.5151 -0.1526
  817MOL0     C 7746   8.275   6.340   2.129  0.1517  0.0108  0.1524
  817MOL0     O 7747   8.194   6.313   2.027  0.6712  0.1881  0.0094
  817MOL0     C 7748   8.107   6.204   2.046 -0.8002 -0.0788 -0.1781
  817MOL0     C 7749   7.987   6.223   1.948  0.2982  0.2691 -0.5410
  817MOL0     C 7750   7.897   6.351   1.984 -0.1985 -0.0341 -0.5529
  817MOL0     C 7751   7.772   6.346   1.899  1.0459 -0.1880 -0.3433
  817MOL0     C 7752   7.685   6.460   1.954 -0.1140  0.0877  0.0388
  817MOL0     C 7753   7.538   6.452   1.905  0.6236  0.6548 -0.4149
  817MOL0     C 7754   7.473   6.594   1.887 -0.3660 -0.2199 -0.7375
  817MOL0     C 7755   7.359   6.592   1.794  0.4606  0.5053  0.4427
  817MOL0    Cl 7756   7.242   6.727   1.826  0.0319 -0.6485 -0.0346
  817MOL0     C 7757   8.286   6.470   2.182 -0.1853  0.8310 -0.2834
  817MOL0     C 7758   8.359   6.513   2.293  0.0860 -0.0134  0.1295
  817MOL0     O 7759   8.312   6.518   2.565 -0.1805 -0.3645 -0.3120
  817MOL0     C 7760   8.436   6.524   2.826  1.0647  0.3961 -0.0519
  817MOL0     C 7761   8.505   6.544   2.943 -0.1506 -0.3035 -0.1173
  817MOL0     N 7762   9.064   6.190   3.408 -0.0266 -0.3366 -0.2121
  817MOL0     N 7763   9.175   6.134   3.402 -0.9584  0.6383  0.7970
  817MOL0     C 7764  10.244   6.630   3.535  0.1837 -0.7505 -0.6228
  817MOL0     C 7765  10.375   6.660   3.500 -0.3370 -1.0576 -0.3031
  817MOL0     C 7766  10.844   6.664   3.589 -0.3219  1.1108 -0.2435
  817MOL0     C 7767  10.946   6.694   3.675  1.1257 -0.1576  0.1921
  817MOL0     C 7768  11.065   6.744   3.629 -0.3121  0.8441 -0.1502
  817MOL0     C 7769  11.085   6.771   3.494  0.2757 -0.4635  0.6259
  817MOL0     O 7770  11.213   6.807   3.464 -0.4030 -0.6238  0.7557
  817MOL0     C 7771  11.237   6.850   3.328  0.5619  0.0459 -0.0298
  817MOL0     C 7772  11.383   6.877   3.310 -0.4047 -0.5741  0.5535
  817MOL0     C 7773  11.445   6.958   3.422 -0.9579 -0.8247 -0.0962
  817MOL0     C 7774  11.576   7.027   3.381  0.7213 -0.5316 -0.1386
  817MOL0     C 7775  11.571   7.096   3.249  0.6493  0.5296 -0.1718
  817MOL0     C 7776  11.588   7.133   3.134 -0.4287  0.1021  0.3268
  817MOL0     C 7777  10.981   6.741   3.400  0.0722 -1.0308  1.1367
  817MOL0     C 7778  10.862   6.686   3.450 -0.8254  0.8677  0.0008
  817MOL0     H 7779  10.521   6.412   3.700  1.2535 -1.1607 -0.8779
  817MOL0     H 7780  10.280   6.369   3.752 -2.4237 -1.8273 -3.1397
  817MOL0     H 7781   9.985   6.547   3.486 -1.2334  1.0256 -0.2662
  817MOL0     H 7782   9.955   6.646   3.630 -1.2238 -0.4033  1.2094
  817MOL0     H 7783   9.858   6.413   3.741 -4.2074  0.4621 -0.3659
  817MOL0     H 7784   9.878   6.353   3.576  2.3737  0.8020 -2.2661
  817MOL0     H 7785   9.717   6.532   3.494  0.1808  0.6115  0.8316
  817MOL0     H 7786   9.687   6.574   3.661  0.3140  0.7440 -0.1601
  817MOL0     H 7787   9.558   6.394   3.716  1.0963  1.5084 -0.0164
  817MOL0     H 7788   9.511   6.429   3.556  0.2070  2.1458  1.7026
  817MOL0     H 7789   9.704   6.225   3.639  1.5556  3.4227 -0.7826
  817MOL0     H 7790   9.663   6.261   3.467 -0.8289  0.3993 -0.4691
  817MOL0     H 7791   9.442   6.164   3.654  0.2794  2.2385  0.4452
  817MOL0     H 7792   9.577   6.057   3.632  0.7344 -0.0610 -1.0092
  817MOL0     H 7793   9.557   6.067   3.382  0.5649  2.0954 -1.2897
  817MOL0     H 7794   9.406   6.010   3.459  1.5229 -0.3604  0.6552
  817MOL0     H 7795   9.404   6.168   3.258  1.6742 -1.3337  1.0575
  817MOL0     H 7796   9.466   6.292   3.358 -1.8956  0.9523  0.4392
  817MOL0     H 7797   9.268   6.452   3.411 -0.0657  0.1657 -1.0805
  817MOL0     H 7798   9.019   6.533   3.381  2.7592 -0.5201  0.0715
  817MOL0     H 7799   8.924   6.440   3.490  2.5633  1.7833  1.5631
  817MOL0     H 7800   8.832   6.315   3.289 -0.6068  0.7800 -1.1995
  817MOL0     H 7801   8.925   6.424   3.183 -1.4450  2.4963 -0.0729
  817MOL0     H 7802   8.734   6.540   3.394 -0.2168  1.7668  0.0596
  817MOL0     H 7803   8.819   6.628   3.267 -0.7023  0.3566  0.4925
  817MOL0     H 7804   8.612   6.622   3.204 -2.6455 -0.8173  3.1854
  817MOL0     H 7805   8.600   6.447   3.232  4.0999 -1.9544  1.4447
  817MOL0     H 7806   8.812   6.463   2.827  0.9654  1.2730 -0.5907
  817MOL0     H 7807   8.700   6.464   2.612  0.3343  0.1886  0.1837
  817MOL0     H 7808   8.504   6.211   2.346  0.4441 -2.3118 -2.3883
  817MOL0     H 7809   8.352   6.139   2.139 -0.3596 -0.2271 -0.7198
  817MOL0     H 7810   8.073   6.203   2.150 -0.8513 -0.5389 -0.2005
  817MOL0     H 7811   8.155   6.112   2.012 -0.4049  0.1049 -0.1320
  817MOL0     H 7812   7.920   6.137   1.959 -0.1182  0.7021  0.4680
  817MOL0     H 7813   8.025   6.221   1.846  3.0227 -0.2986  0.3983
  817MOL0     H 7814   7.966   6.433   1.963  1.9538 -1.9049 -1.2839
  817MOL0     H 7815   7.870   6.360   2.089 -1.0511  0.3929 -0.8033
  817MOL0     H 7816   7.779   6.360   1.791  0.0667  3.5762 -0.0544
  817MOL0     H 7817   7.710   6.261   1.930 -2.8537  2.5932  0.3014
  817MOL0     H 7818   7.724   6.556   1.920 -1.3733 -0.4499 -3.2532
  817MOL0     H 7819   7.686   6.467   2.064 -3.6209  1.0665  0.1285
  817MOL0     H 7820   7.485   6.404   1.988  0.0949  4.2831  1.5439
  817MOL0     H 7821   7.532   6.388   1.816  0.6027  0.4606 -0.2742
  817MOL0     H 7822   7.430   6.637   1.978 -0.9402  1.1386 -1.6198
  817MOL0     H 7823   7.552   6.665   1.860 -1.1557  0.7510 -0.5614
  817MOL0     H 7824   7.307   6.497   1.787 -0.6898  1.2509 -2.3710
  817MOL0     H 7825   7.407   6.617   1.699  0.9363  0.2189  0.6046
  817MOL0     H 7826   8.226   6.551   2.141 -0.7025  0.0942 -1.0296
  817MOL0     H 7827   8.364   6.613   2.335 -1.3977 -0.2542  0.9314
  817MOL0     H 7828   8.330   6.538   2.810  0.2416  0.7728  4.4393
  817MOL0     H 7829   8.464   6.580   3.037  1.8266 -3.5012  2.2085
  817MOL0     H 7830  10.168   6.676   3.473  1.6247 -0.8052 -2.5398
  817MOL0     H 7831  10.394   6.741   3.430 -2.3404 -1.1197 -0.9613
  817MOL0     H 7832  10.924   6.691   3.782  2.8535  0.8112  0.6021
  817MOL0     H 7833  11.146   6.755   3.700  0.7869 -0.5317 -1.1307
  817MOL0     H 7834  11.171   6.935   3.307  0.3510  0.5334  2.3755
  817MOL0     H 7835  11.213   6.768   3.259  0.1447 -0.2523  0.4658
  817MOL0     H 7836  11.432   6.779   3.303 -0.3121 -0.5591  0.9742
  817MOL0     H 7837  11.411   6.916   3.212 -0.8724  0.8763  0.9775
  817MOL0     H 7838  11.451   6.897   3.513  0.0576 -1.2168 -0.4204
  817MOL0     H 7839  11.365   7.031   3.441  1.2774  1.9463 -0.6936
  817MOL0     H 7840  11.619   7.086   3.463  1.3064 -1.6714  0.4077
  817MOL0     H 7841  11.641   6.940   3.367 -1.1404 -1.7741 -1.5149
  817MOL0     H 7842  11.623   7.151   3.035 -2.0582 -1.7902 -0.6733
  817MOL0     H 7843  10.986   6.762   3.294 -2.6192  1.0140  1.2901
  817MOL0     H 7844  10.786   6.652   3.380 -0.3606  1.0890 -0.6232
  818MOL0     O 7845   3.604   9.261   9.812  0.1556 -0.0018  0.0520
  818MOL0     C 7846   3.699   9.295   9.880  0.2359 -0.5046  0.2186
  818MOL0     O 7847   3.697   9.382   9.977  0.3803 -0.5889  0.0803
  818MOL0     C 7848   3.595   9.473   9.986  0.1485 -0.1685 -0.9492
  818MOL0     C 7849   3.608   9.606   9.933 -0.3288  1.0291 -0.1447
  818MOL0     C 7850   3.499   9.698   9.952  0.1172 -1.3043 -0.2850
  818MOL0     C 7851   3.374   9.656  10.009  0.4275 -0.1772  0.0117
  818MOL0     O 7852   3.273   9.742  10.017  0.2030 -0.2553  0.2827
  818MOL0     C 7853   3.147   9.698  10.073 -0.4888  1.1677 -0.3289
  818MOL0     C 7854   3.052   9.809  10.096 -0.1224  0.4524  0.1741
  818MOL0     C 7855   2.937   9.777  10.188  0.0770  0.1199 -0.5952
  818MOL0     C 7856   2.860   9.644  10.142 -1.1857 -0.3383 -0.3554
  818MOL0     C 7857   2.745   9.617  10.231  0.0198  0.3191 -0.9689
  818MOL0     C 7858   2.710   9.467  10.247 -0.2414 -0.3840  0.5807
  818MOL0     C 7859   2.592   9.457  10.347  0.5772  0.8736 -0.3711
  818MOL0     C 7860   2.540   9.305  10.351 -0.4556 -1.1564  0.6627
  818MOL0     N 7861   2.438   9.285  10.450  0.1237 -0.2379  0.1367
  818MOL0     C 7862   2.435   9.182  10.545 -0.4153 -0.3050  0.2427
  818MOL0     C 7863   2.308   9.178  10.587 -0.0730 -0.3759  0.8244
  818MOL0     C 7864   2.248   9.074  10.684 -0.6334  0.4944  0.3504
  818MOL0     C 7865   2.115   9.012  10.624 -0.5013  0.2780  0.4124
  818MOL0     C 7866   2.087   8.872  10.691 -0.1067  0.1931 -0.2924
  818MOL0     C 7867   1.970   8.800  10.623  0.1991  0.5093  0.1253
  818MOL0     O 7868   1.858   8.868  10.652 -0.8432  0.6505 -0.1250
  818MOL0     C 7869   1.729   8.825  10.640  0.2659 -0.2679  0.7442
  818MOL0     C 7870   1.692   8.690  10.615  0.0075 -0.6227  0.3215
  818MOL0     C 7871   1.560   8.642  10.603 -0.5949  0.2267  1.0077
  818MOL0     C 7872   1.459   8.734  10.619  0.3657  0.0169  0.3383
  818MOL0     C 7873   1.316   8.697  10.600  0.8585  0.8886  0.3954
  818MOL0     O 7874   1.237   8.806  10.605  0.5915  0.6644 -0.2411
  818MOL0     C 7875   1.102   8.796  10.572 -0.6190 -0.3630 -0.1905
  818MOL0     C 7876   1.013   8.718  10.636 -0.6416  0.1929  0.4454
  818MOL0     C 7877   0.874   8.742  10.633 -0.1519 -0.0108  0.2256
  818MOL0     C 7878   0.832   8.845  10.547 -0.2263 -0.4306  1.0588
  818MOL0     O 7879   0.698   8.862  10.523  0.0290 -0.6204 -0.4394
  818MOL0     C 7880   0.620   8.945  10.608 -0.7464  0.1197  0.1774
  818MOL0     C 7881   0.503   9.001  10.522 -0.0819  0.1477  0.3739
  818MOL0     C 7882   0.545   9.070  10.388  0.1854  0.0935  0.1223
  818MOL0     C 7883   0.437   9.116  10.303  0.4314  0.2727 -0.5275
  818MOL0     C 7884   0.498   9.184  10.174  0.7840 -0.0720 -0.1101
  818MOL0     C 7885   0.406   9.177  10.055 -0.3679 -0.4357  0.3967
  818MOL0     C 7886   0.470   9.213   9.923  0.4388  0.0669  0.3178
  818MOL0     C 7887   0.568   9.108   9.872  0.9605  0.2704 -0.1095
  818MOL0    Cl 7888   0.494   8.951   9.835 -0.0669 -0.3737  0.1046
  818MOL0     C 7889   0.917   8.907  10.462 -0.7824 -0.5383 -0.1479
  818MOL0     C 7890   1.056   8.880  10.468  0.2471  0.2761 -0.5992
  818MOL0     O 7891   1.278   8.580  10.581  1.2289 -0.1894 -0.0617
  818MOL0     C 7892   1.488   8.867  10.658 -0.1501 -0.5234 -0.3272
  818MOL0     C 7893   1.622   8.906  10.678 -0.7653  0.0665 -0.4228
  818MOL0     N 7894   2.243   9.289  10.530  0.4117 -0.4943  0.0615
  818MOL0     N 7895   2.321   9.348  10.452 -0.4286  0.1001  0.1303
  818MOL0     C 7896   3.369   9.522  10.068 -0.3832 -0.0284  0.4960
  818MOL0     C 7897   3.477   9.432  10.059  0.3004 -0.9487  0.1064
  818MOL0     C 7898   3.823   9.220   9.858 -0.4724  1.0801  0.2558
  818MOL0     C 7899   3.939   9.251   9.940  1.1123  0.6659 -0.6034
  818MOL0     C 7900   4.062   9.191   9.909  0.3879 -0.4220 -0.5171
  818MOL0     C 7901   4.078   9.089   9.824  0.1007 -0.3086 -0.1237
  818MOL0     O 7902   4.211   9.049   9.821  0.6447  0.4630 -0.2687
  818MOL0     C 7903   4.235   8.960   9.708 -0.2717 -0.2969  0.1136
  818MOL0     C 7904   4.383   8.957   9.703 -1.4809  0.1668 -0.1033
  818MOL0     C 7905   4.438   9.087   9.642 -0.0068 -0.8535 -0.5496
  818MOL0     C 7906   4.585   9.073   9.599 -0.8013  0.3696 -0.2580
  818MOL0     C 7907   4.642   9.202   9.552  0.2964 -0.0183  0.5822
  818MOL0     C 7908   4.686   9.312   9.509  0.2534  0.3966 -0.9257
  818MOL0     C 7909   3.971   9.058   9.744 -0.3676  0.8039  0.2779
  818MOL0     C 7910   3.843   9.120   9.767 -0.3953  0.7408 -0.2720
  818MOL0     H 7911   3.706   9.639   9.901  0.6101 -0.2943  1.2022
  818MOL0     H 7912   3.501   9.797   9.906 -1.8351 -0.1655  1.8280
  818MOL0     H 7913   3.167   9.658  10.173  0.5793 -0.4050 -1.1507
  818MOL0     H 7914   3.103   9.621  10.008  1.7375 -0.5848  0.1296
  818MOL0     H 7915   3.004   9.829  10.000 -4.0230  3.8659  2.4758
  818MOL0     H 7916   3.113   9.893  10.134  1.2312 -0.1210 -0.6618
  818MOL0     H 7917   2.871   9.858  10.221 -0.2906 -0.6820  0.7177
  818MOL0     H 7918   2.979   9.742  10.283 -0.5317 -0.2679 -0.4614
  818MOL0     H 7919   2.822   9.657  10.039 -1.0538  0.8320 -0.2736
  818MOL0     H 7920   2.930   9.560  10.149 -0.3942  0.4301  1.2870
  818MOL0     H 7921   2.665   9.667  10.176  0.7836  2.7405 -0.0473
  818MOL0     H 7922   2.745   9.666  10.330  2.8576  0.0047 -0.7221
  818MOL0     H 7923   2.797   9.415  10.286 -0.5731 -2.3126 -1.0990
  818MOL0     H 7924   2.691   9.425  10.148  1.7607  0.5759 -0.2771
  818MOL0     H 7925   2.614   9.492  10.448 -0.6216  0.6025  0.0044
  818MOL0     H 7926   2.514   9.524  10.311  0.0217 -0.9381 -2.8073
  818MOL0     H 7927   2.633   9.257  10.383 -0.3374 -1.0499  0.4812
  818MOL0     H 7928   2.509   9.259  10.257 -1.2850 -0.3743  0.5452
  818MOL0     H 7929   2.517   9.114  10.567  0.2271  0.1858 -0.5631
  818MOL0     H 7930   2.230   9.110  10.786 -2.8343 -0.2444  0.2634
  818MOL0     H 7931   2.330   9.002  10.692 -1.0124  0.0500  0.2641
  818MOL0     H 7932   2.120   8.992  10.517  0.9669  0.7378  0.3711
  818MOL0     H 7933   2.031   9.082  10.632  0.6141  1.6678  0.3886
  818MOL0     H 7934   2.169   8.800  10.676 -1.3829 -0.8819 -2.7039
  818MOL0     H 7935   2.075   8.891  10.798 -1.6728  1.6444 -0.6850
  818MOL0     H 7936   1.970   8.706  10.678 -0.4328  1.4734  1.8404
  818MOL0     H 7937   1.987   8.802  10.515 -0.2873  0.1906  0.0404
  818MOL0     H 7938   1.778   8.626  10.597  1.2593  0.6717  1.4255
  818MOL0     H 7939   1.542   8.536  10.588  1.8346 -0.0880 -0.1091
  818MOL0     H 7940   1.052   8.636  10.696  0.0676 -0.7699 -1.2677
  818MOL0     H 7941   0.796   8.698  10.693 -1.3067  0.1577 -1.1062
  818MOL0     H 7942   0.686   9.020  10.652  0.2242 -2.0330  2.6273
  818MOL0     H 7943   0.583   8.885  10.691  2.8797  2.6949  4.0681
  818MOL0     H 7944   0.441   9.065  10.585  1.1666  1.2443  0.5126
  818MOL0     H 7945   0.432   8.923  10.492  3.5448 -2.9396 -1.0791
  818MOL0     H 7946   0.612   9.002  10.336 -0.3016 -0.5699  0.3411
  818MOL0     H 7947   0.602   9.154  10.428 -1.2417 -0.6705  4.3918
  818MOL0     H 7948   0.365   9.039  10.274  0.4887 -0.0563  0.1885
  818MOL0     H 7949   0.372   9.187  10.356 -1.8160 -2.7490  1.0632
  818MOL0     H 7950   0.589   9.126  10.153 -0.4062 -1.7967 -0.7268
  818MOL0     H 7951   0.517   9.289  10.201 -1.3065 -0.0703  1.6181
  818MOL0     H 7952   0.319   9.241  10.074 -1.2762 -1.0387 -1.4696
  818MOL0     H 7953   0.367   9.074  10.051  0.2593 -0.6738  0.1986
  818MOL0     H 7954   0.388   9.219   9.850 -0.2734 -0.4727  1.0450
  818MOL0     H 7955   0.524   9.307   9.929  3.0745 -1.3590  0.4449
  818MOL0     H 7956   0.657   9.085   9.930 -0.3413  0.1900  1.9290
  818MOL0     H 7957   0.604   9.143   9.774 -1.8759  1.8515 -0.7273
  818MOL0     H 7958   0.863   8.976  10.397 -2.2604 -1.5180 -0.0216
  818MOL0     H 7959   1.124   8.935  10.405  1.7805  0.5647  1.2148
  818MOL0     H 7960   1.408   8.936  10.682  0.4526  0.0690  0.0386
  818MOL0     H 7961   1.647   9.004  10.718 -0.2567 -0.4894  0.6706
  818MOL0     H 7962   3.284   9.481  10.120 -0.5546 -2.0195 -1.2512
  818MOL0     H 7963   3.470   9.332  10.100 -1.6422 -1.3291 -1.0444
  818MOL0     H 7964   3.940   9.339  10.004 -0.1126 -1.5880  2.8482
  818MOL0     H 7965   4.149   9.226   9.964  1.2734 -1.1254 -1.4133
  818MOL0     H 7966   4.203   8.988   9.607  1.1699 -2.4938 -1.0350
  818MOL0     H 7967   4.181   8.870   9.739 -2.1392 -0.1108 -2.3105
  818MOL0     H 7968   4.420   8.931   9.803 -0.6674  0.5756 -0.2850
  818MOL0     H 7969   4.411   8.868   9.646 -0.4912 -1.5772  2.8846
  818MOL0     H 7970   4.425   9.164   9.718  1.0228 -1.1285 -0.0900
  818MOL0     H 7971   4.376   9.119   9.557 -1.7678 -2.2318  0.1497
  818MOL0     H 7972   4.633   9.036   9.690 -1.5405  0.5635  0.2209
  818MOL0     H 7973   4.607   8.993   9.528  0.7849  1.0851 -0.6080
  818MOL0     H 7974   4.728   9.404   9.474  0.7709  1.7216  2.7704
  818MOL0     H 7975   3.982   8.988   9.662  1.9584  2.4788 -0.9569
  818MOL0     H 7976   3.767   9.093   9.695 -1.6398  2.5176  0.3271
  819MOL0     O 7977   7.091   4.715   8.657 -0.3875 -0.5228 -0.4407
  819MOL0     C 7978   7.055   4.728   8.775 -0.7699  0.8229 -0.0937
  819MOL0     O 7979   7.126   4.790   8.875 -0.4732  0.9359  0.4251
  819MOL0     C 7980   7.254   4.839   8.861  0.5868 -0.3919  0.0954
  819MOL0     C 7981   7.306   4.886   8.739  0.4935  0.4890  0.7857
  819MOL0     C 7982   7.446   4.925   8.745  0.4203 -0.3184  0.5739
  819MOL0     C 7983   7.517   4.916   8.865  0.3676 -0.4767 -0.2731
  819MOL0     O 7984   7.645   4.944   8.859 -0.2609  0.1085 -0.1577
  819MOL0     C 7985   7.708   5.041   8.950 -0.2096  0.4037  0.2369
  819MOL0     C 7986   7.647   5.175   8.917 -0.2713 -0.0943 -1.1186
  819MOL0     C 7987   7.720   5.285   8.989 -0.1015 -0.1453  0.1408
  819MOL0     C 7988   7.632   5.404   8.994  0.2642 -0.5665 -0.3286
  819MOL0     C 7989   7.706   5.514   9.065 -0.5311  0.2263  0.0453
  819MOL0     C 7990   7.623   5.647   9.047  0.0770 -0.1284  0.7010
  819MOL0     C 7991   7.677   5.778   9.122 -0.3014  0.1505  0.3905
  819MOL0     C 7992   7.610   5.891   9.052  0.0454  0.0050  0.0891
  819MOL0     N 7993   7.465   5.894   9.062 -0.7171  0.4251  0.4956
  819MOL0     C 7994   7.399   5.938   9.168  0.9312  0.1918  0.2870
  819MOL0     C 7995   7.271   5.955   9.117 -0.4255  0.2778 -0.6635
  819MOL0     C 7996   7.153   6.001   9.193  0.7817 -0.5572 -0.7425
  819MOL0     C 7997   7.011   6.017   9.128  0.1754  0.2487  0.0622
  819MOL0     C 7998   6.950   5.876   9.107 -0.0444  1.3627 -1.2951
  819MOL0     C 7999   6.796   5.863   9.108 -0.5264 -0.8436  0.7737
  819MOL0     O 8000   6.743   5.943   9.212  0.2709 -0.2833  0.3902
  819MOL0     C 8001   6.617   5.913   9.251 -0.2857 -0.3581  0.3565
  819MOL0     C 8002   6.567   5.950   9.377 -0.0401  0.1117 -0.4028
  819MOL0     C 8003   6.426   5.944   9.407 -0.2869 -0.1734 -0.4708
  819MOL0     C 8004   6.334   5.893   9.319  0.1767  0.5382 -0.1059
  819MOL0     C 8005   6.185   5.895   9.332 -0.2172 -0.3602 -0.4481
  819MOL0     O 8006   6.105   5.857   9.225 -0.8641 -0.4124  0.2251
  819MOL0     C 8007   5.977   5.839   9.256 -0.2278 -0.1711  0.8552
  819MOL0     C 8008   5.938   5.706   9.289 -0.0212  0.6713  0.0644
  819MOL0     C 8009   5.804   5.677   9.325 -0.4745 -0.3219 -0.0695
  819MOL0     C 8010   5.710   5.788   9.314  0.6335  0.2837 -0.7585
  819MOL0     O 8011   5.579   5.779   9.361  0.3030 -0.4172 -0.3440
  819MOL0     C 8012   5.519   5.654   9.361  0.4099  0.0835 -0.5896
  819MOL0     C 8013   5.368   5.648   9.373  0.4157  0.5910 -0.3113
  819MOL0     C 8014   5.330   5.502   9.408 -0.6400 -0.4732  0.6532
  819MOL0     C 8015   5.174   5.503   9.400  0.2523  0.2860  0.4590
  819MOL0     C 8016   5.138   5.351   9.377 -0.0097  0.4729 -0.2911
  819MOL0     C 8017   4.988   5.341   9.358  0.7127 -0.3190  0.5914
  819MOL0     C 8018   4.967   5.199   9.313  0.8752 -0.1924  0.1766
  819MOL0     C 8019   4.823   5.167   9.299 -1.2063  0.6838 -0.4265
  819MOL0    Cl 8020   4.781   4.993   9.317  0.2063  0.1554  0.5748
  819MOL0     C 8021   5.745   5.912   9.260  0.1448 -0.6822  0.3333
  819MOL0     C 8022   5.883   5.936   9.235  0.6689 -0.4734 -0.0308
  819MOL0     O 8023   6.143   5.967   9.420  0.1202 -0.1102 -0.1068
  819MOL0     C 8024   6.391   5.846   9.201 -0.3504  0.1335  0.7462
  819MOL0     C 8025   6.529   5.848   9.168  0.3299 -0.6654  0.1252
  819MOL0     N 8026   7.261   5.900   8.990  0.7301 -0.0101 -0.0421
  819MOL0     N 8027   7.376   5.867   8.958 -0.2821 -0.3759 -0.9376
  819MOL0     C 8028   7.456   4.881   8.986  0.0323  0.0848 -0.2051
  819MOL0     C 8029   7.321   4.837   8.977 -0.5543 -0.7389  0.6138
  819MOL0     C 8030   6.931   4.678   8.808  0.4092 -0.2096 -0.9948
  819MOL0     C 8031   6.886   4.695   8.939 -0.3405 -0.4608  0.8673
  819MOL0     C 8032   6.747   4.668   8.958 -1.1348 -0.2462 -1.1130
  819MOL0     C 8033   6.668   4.611   8.865  0.4219 -0.2336 -0.5234
  819MOL0     O 8034   6.532   4.585   8.910  0.3831 -0.2238  0.6705
  819MOL0     C 8035   6.449   4.550   8.806 -0.8920 -0.3578  0.5638
  819MOL0     C 8036   6.312   4.532   8.868 -0.5452 -0.4489  0.5466
  819MOL0     C 8037   6.189   4.548   8.768 -0.8818 -0.2670  0.2892
  819MOL0     C 8038   6.187   4.445   8.660  0.2301 -0.3914  0.4887
  819MOL0     C 8039   6.061   4.449   8.590 -0.1432 -0.1471  0.4675
  819MOL0     C 8040   5.966   4.461   8.516 -0.7434  0.0081  0.2633
  819MOL0     C 8041   6.716   4.589   8.739  0.2836  0.1085  0.0231
  819MOL0     C 8042   6.847   4.619   8.712  0.4932  0.0741  0.1153
  819MOL0     H 8043   7.250   4.903   8.647  2.5570 -2.0149 -1.0715
  819MOL0     H 8044   7.491   4.968   8.656 -2.5560  2.9151  0.4058
  819MOL0     H 8045   7.810   5.045   8.912 -0.9679  0.7965 -1.9119
  819MOL0     H 8046   7.707   5.003   9.052  0.4498  0.7003  0.3573
  819MOL0     H 8047   7.543   5.171   8.952  0.7461  0.0564  2.2595
  819MOL0     H 8048   7.653   5.202   8.811  1.5023  1.9252 -0.5613
  819MOL0     H 8049   7.812   5.320   8.941 -0.4441  0.2435 -0.2457
  819MOL0     H 8050   7.755   5.249   9.086  2.0840 -0.3170 -0.6533
  819MOL0     H 8051   7.611   5.437   8.892  2.0740 -0.5202 -0.7238
  819MOL0     H 8052   7.537   5.384   9.045 -1.1981  1.8750 -1.8770
  819MOL0     H 8053   7.804   5.545   9.027 -1.0369 -1.5332 -3.1225
  819MOL0     H 8054   7.727   5.491   9.170  4.2955  2.4479 -0.1240
  819MOL0     H 8055   7.520   5.630   9.077 -0.3311 -0.5296 -0.8275
  819MOL0     H 8056   7.619   5.668   8.940  2.9098 -5.7577 -0.9359
  819MOL0     H 8057   7.661   5.770   9.230  1.2537  0.0945  0.6373
  819MOL0     H 8058   7.785   5.791   9.110 -0.6144  0.8179 -2.2594
  819MOL0     H 8059   7.637   5.884   8.946  0.1677  3.1686 -0.1880
  819MOL0     H 8060   7.644   5.989   9.089  0.4123  0.5146 -1.5281
  819MOL0     H 8061   7.437   5.962   9.268 -0.0510  1.6893  0.3401
  819MOL0     H 8062   7.175   6.102   9.230 -1.4439 -0.6398  1.0535
  819MOL0     H 8063   7.152   5.931   9.277 -0.7408  0.6840  0.3454
  819MOL0     H 8064   7.004   6.085   9.043  2.6964  0.3235 -0.1337
  819MOL0     H 8065   6.937   6.053   9.200 -0.1060 -0.8735  0.3549
  819MOL0     H 8066   6.983   5.825   9.016  1.7887 -1.8982  0.9720
  819MOL0     H 8067   6.993   5.818   9.190 -1.4279  0.2442 -1.3282
  819MOL0     H 8068   6.768   5.757   9.114 -2.7463 -0.6185 -2.5974
  819MOL0     H 8069   6.760   5.901   9.012  1.3910 -1.3762 -0.2134
  819MOL0     H 8070   6.636   5.990   9.449 -0.7111 -0.2107  0.4328
  819MOL0     H 8071   6.402   5.989   9.502  1.4630 -0.3340  0.0712
  819MOL0     H 8072   6.020   5.634   9.290  0.3052  1.0276 -0.3477
  819MOL0     H 8073   5.759   5.586   9.364 -2.6656 -0.0142 -1.6325
  819MOL0     H 8074   5.546   5.596   9.450 -2.3499 -1.9422 -0.9126
  819MOL0     H 8075   5.545   5.600   9.270  1.0670 -2.1699  0.8431
  819MOL0     H 8076   5.320   5.680   9.280 -1.4693 -0.3541  0.2984
  819MOL0     H 8077   5.329   5.726   9.439 -1.2700 -1.5142  1.2857
  819MOL0     H 8078   5.361   5.479   9.510 -0.1598 -0.3274  0.5407
  819MOL0     H 8079   5.369   5.430   9.336 -1.9978 -1.9936  1.3688
  819MOL0     H 8080   5.128   5.557   9.483 -1.3606 -2.0423  1.1964
  819MOL0     H 8081   5.140   5.551   9.309 -1.1692 -1.6360 -0.0934
  819MOL0     H 8082   5.160   5.294   9.468 -1.3288  2.1619  1.1734
  819MOL0     H 8083   5.193   5.312   9.291 -0.0564  2.6201 -1.3589
  819MOL0     H 8084   4.957   5.415   9.284 -4.5612 -1.5937  1.1258
  819MOL0     H 8085   4.945   5.364   9.456  1.2356 -1.2042  1.0403
  819MOL0     H 8086   5.018   5.191   9.217  0.7857  0.2986  0.0858
  819MOL0     H 8087   5.020   5.136   9.385 -2.1266 -0.3467  2.4641
  819MOL0     H 8088   4.780   5.211   9.208 -0.9360  1.1805 -0.3210
  819MOL0     H 8089   4.774   5.218   9.383 -1.0099 -1.0293  0.7733
  819MOL0     H 8090   5.676   5.993   9.240  0.2169  0.5762  4.3119
  819MOL0     H 8091   5.916   6.034   9.202 -0.3787 -0.0985  0.0030
  819MOL0     H 8092   6.334   5.810   9.115  1.3716 -0.5109 -0.1823
  819MOL0     H 8093   6.564   5.810   9.072  1.9224  1.1273 -0.0793
  819MOL0     H 8094   7.512   4.878   9.079  0.3103 -0.8393 -0.3957
  819MOL0     H 8095   7.272   4.802   9.067  3.7342  0.6769  3.8788
  819MOL0     H 8096   6.945   4.724   9.025  0.1528 -3.5577  1.7205
  819MOL0     H 8097   6.709   4.698   9.055 -0.9182 -4.8289  0.6371
  819MOL0     H 8098   6.473   4.452   8.764 -2.7442 -0.7065  0.2454
  819MOL0     H 8099   6.455   4.628   8.730  0.4032  2.0695  2.9454
  819MOL0     H 8100   6.308   4.432   8.912 -1.6802 -1.2363 -1.2611
  819MOL0     H 8101   6.297   4.614   8.940 -1.8256  0.0809 -0.2885
  819MOL0     H 8102   6.190   4.646   8.719  0.5791  0.0773  0.9647
  819MOL0     H 8103   6.100   4.529   8.828 -2.7289 -0.3625 -2.2943
  819MOL0     H 8104   6.271   4.460   8.590 -0.8414  1.8093 -0.4131
  819MOL0     H 8105   6.209   4.344   8.696  3.4017 -0.0166 -0.0760
  819MOL0     H 8106   5.890   4.469   8.441 -0.4512  0.7258  0.0388
  819MOL0     H 8107   6.656   4.551   8.657 -2.0326  4.5507 -0.6568
  819MOL0     H 8108   6.880   4.617   8.609 -0.5719 -0.2224 -0.2321
  820MOL0     O 8109   1.529   0.672  10.720 -0.4777 -0.1980 -0.9099
  820MOL0     C 8110   1.618   0.587  10.729 -0.0678 -1.5888 -0.7054
  820MOL0     O 8111   1.604   0.453  10.734 -0.4629  0.1032  1.0230
  820MOL0     C 8112   1.482   0.399  10.753 -0.2248  0.5216 -0.7751
  820MOL0     C 8113   1.410   0.419  10.877  0.3834 -0.7345  0.1600
  820MOL0     C 8114   1.271   0.400  10.885 -0.1110 -0.0261 -1.1284
  820MOL0     C 8115   1.200   0.328  10.790 -0.4997  0.1932 -0.0398
  820MOL0     O 8116   1.073   0.291  10.822  0.2846 -0.0882 -0.3920
  820MOL0     C 8117   0.973   0.286  10.721  0.1276 -0.6838  0.7979
  820MOL0     C 8118   0.852   0.202  10.748 -1.4840  0.2093  0.2678
  820MOL0     C 8119   0.765   0.261  10.859 -0.7727  0.4523 -0.2012
  820MOL0     C 8120   0.658   0.163  10.886  0.2660  0.4569  0.2949
  820MOL0     C 8121   0.568   0.201  11.000  0.0432  0.0084 -0.5542
  820MOL0     C 8122   0.483   0.323  10.982  0.3076 -0.2540  0.8615
  820MOL0     C 8123   0.405   0.363  11.103  0.2394  0.1556 -0.6812
  820MOL0     C 8124   0.294   0.256  11.124  0.2731  0.1048 -1.1697
  820MOL0     N 8125   0.277   0.255  11.263 -0.1329  0.4081  0.2728
  820MOL0     C 8126   0.162   0.278  11.342 -0.7986  0.2474  0.0370
  820MOL0     C 8127   0.195   0.222  11.463  0.0821  0.7106 -0.6275
  820MOL0     C 8128   0.107   0.223  11.580  0.1455 -0.4720  0.1608
  820MOL0     C 8129   0.127   0.348  11.681 -0.2597  0.7892  0.4971
  820MOL0     C 8130   0.249   0.323  11.772 -0.3121  0.1213 -0.1136
  820MOL0     C 8131   0.224   0.220  11.886  0.3673  0.4162  0.6045
  820MOL0     O 8132   0.191   0.277  12.007 -0.7440  0.9591  1.0039
  820MOL0     C 8133   0.059   0.294  12.047 -0.2644 -0.5219 -0.2104
  820MOL0     C 8134   0.043   0.361  12.166  0.3774 -0.1142 -1.1413
  820MOL0     C 8135  -0.082   0.399  12.216 -0.3068 -0.4202 -0.8606
  820MOL0     C 8136  -0.198   0.373  12.155 -0.0809 -0.3866 -0.1246
  820MOL0     C 8137  -0.337   0.423  12.188  0.0143  0.8401 -0.6772
  820MOL0     O 8138  -0.441   0.351  12.144 -0.2559 -0.6806  0.5780
  820MOL0     C 8139  -0.567   0.414  12.154 -0.3137  1.2114  0.5331
  820MOL0     C 8140  -0.618   0.457  12.276  0.5100  0.3103  0.6412
  820MOL0     C 8141  -0.747   0.510  12.278 -0.1587 -0.2812  0.1836
  820MOL0     C 8142  -0.819   0.521  12.153 -0.8096 -0.1836  0.5483
  820MOL0     O 8143  -0.942   0.576  12.148 -0.9195  0.0302 -0.5461
  820MOL0     C 8144  -1.043   0.559  12.045 -0.8896 -0.4669 -1.3787
  820MOL0     C 8145  -1.181   0.556  12.101  0.0861 -0.3201  0.5408
  820MOL0     C 8146  -1.279   0.597  11.995 -0.5163  0.0359 -0.4808
  820MOL0     C 8147  -1.421   0.607  12.056 -0.0102 -0.0389 -0.6779
  820MOL0     C 8148  -1.528   0.616  11.955 -0.0433  0.3233 -0.0438
  820MOL0     C 8149  -1.657   0.667  12.016 -0.6117  0.6910 -0.1976
  820MOL0     C 8150  -1.773   0.677  11.910 -0.4308  0.6694  0.2299
  820MOL0     C 8151  -1.891   0.749  11.971 -1.0435 -0.0023  0.4708
  820MOL0    Cl 8152  -1.906   0.710  12.156  0.0858  0.0081 -0.1315
  820MOL0     C 8153  -0.766   0.472  12.040  0.3515  1.1844  0.4047
  820MOL0     C 8154  -0.640   0.418  12.037 -0.7922 -0.2196 -0.3548
  820MOL0     O 8155  -0.342   0.525  12.258 -0.1230 -0.9643  0.1768
  820MOL0     C 8156  -0.186   0.289  12.036  0.4222 -1.2105  1.3810
  820MOL0     C 8157  -0.060   0.261  11.983 -0.0398  0.6084 -0.0241
  820MOL0     N 8158   0.327   0.181  11.461 -0.0044  0.3032 -0.3498
  820MOL0     N 8159   0.370   0.192  11.337 -0.0157  0.1086  0.3756
  820MOL0     C 8160   1.273   0.300  10.671 -0.2899  0.0065  0.3504
  820MOL0     C 8161   1.406   0.336  10.650 -0.3774 -0.4793 -0.0106
  820MOL0     C 8162   1.763   0.630  10.737 -0.4271  0.2318  0.6390
  820MOL0     C 8163   1.870   0.533  10.736  0.5875 -1.6388 -0.4761
  820MOL0     C 8164   2.000   0.585  10.737 -0.0594  0.4129 -0.6516
  820MOL0     C 8165   2.025   0.723  10.751 -0.8361 -1.0109  0.1116
  820MOL0     O 8166   2.148   0.770  10.763 -0.3435 -1.1298  0.3000
  820MOL0     C 8167   2.256   0.679  10.760 -0.0574 -0.7983  0.3263
  820MOL0     C 8168   2.366   0.770  10.695 -0.0330  0.9936  0.0175
  820MOL0     C 8169   2.499   0.698  10.711 -0.3019 -0.6446  0.2348
  820MOL0     C 8170   2.618   0.772  10.648  0.0177  0.2514 -0.5727
  820MOL0     C 8171   2.735   0.693  10.676  0.2816  0.6388  0.0308
  820MOL0     C 8172   2.829   0.622  10.699 -0.3000 -0.0250 -1.0728
  820MOL0     C 8173   1.927   0.818  10.745  0.6479  0.2156 -0.1854
  820MOL0     C 8174   1.790   0.771  10.736  1.0273  0.0477 -0.5403
  820MOL0     H 8175   1.472   0.471  10.950  0.7060  2.7496 -2.3179
  820MOL0     H 8176   1.220   0.437  10.973  1.6249  0.0122 -0.0816
  820MOL0     H 8177   1.017   0.238  10.633 -0.3870 -2.5490  1.5101
  820MOL0     H 8178   0.937   0.388  10.707  0.6770 -0.5254  0.4905
  820MOL0     H 8179   0.895   0.106  10.776  2.6377  0.8386 -2.8530
  820MOL0     H 8180   0.789   0.177  10.663 -0.5272 -2.6860  0.2905
  820MOL0     H 8181   0.719   0.356  10.829  0.2658  2.8302  4.6914
  820MOL0     H 8182   0.822   0.283  10.950 -1.3002 -1.1797  0.5640
  820MOL0     H 8183   0.593   0.151  10.800 -0.4087  1.8865  0.5810
  820MOL0     H 8184   0.696   0.062  10.905 -0.2674 -0.0458 -1.1803
  820MOL0     H 8185   0.638   0.218  11.083 -0.3368 -2.5269  0.3686
  820MOL0     H 8186   0.513   0.112  11.029  3.2589 -2.0054 -0.1965
  820MOL0     H 8187   0.412   0.303  10.901  1.2768  0.7402 -0.2697
  820MOL0     H 8188   0.549   0.409  10.965 -0.0613  1.0350  4.9371
  820MOL0     H 8189   0.480   0.376  11.182 -2.0789 -2.6862  2.2199
  820MOL0     H 8190   0.346   0.453  11.083 -0.9168 -0.8233 -1.8725
  820MOL0     H 8191   0.314   0.151  11.101  1.0730 -1.1505  4.0454
  820MOL0     H 8192   0.192   0.275  11.088 -2.0830  0.8018  4.8119
  820MOL0     H 8193   0.070   0.322  11.304  0.1701  1.6539 -0.7906
  820MOL0     H 8194   0.115   0.128  11.634  0.6995  0.9561  2.7493
  820MOL0     H 8195   0.006   0.232  11.538  0.7345  1.8061 -0.9309
  820MOL0     H 8196   0.030   0.361  11.731 -1.6130  0.2261 -1.8583
  820MOL0     H 8197   0.132   0.443  11.628 -1.5961  1.4702  1.5167
  820MOL0     H 8198   0.337   0.285  11.720 -0.5738 -1.0167  0.2437
  820MOL0     H 8199   0.289   0.418  11.809  2.1983 -1.4512  1.4963
  820MOL0     H 8200   0.325   0.187  11.910 -0.4697  0.2401  4.5531
  820MOL0     H 8201   0.147   0.145  11.864  0.2132  0.1660  1.9074
  820MOL0     H 8202   0.130   0.375  12.229 -1.1472 -0.3551  1.1388
  820MOL0     H 8203  -0.092   0.447  12.313  1.4840 -2.4158  0.4203
  820MOL0     H 8204  -0.557   0.430  12.362 -0.0388 -0.6326  0.7559
  820MOL0     H 8205  -0.787   0.517  12.379 -0.5404 -2.7349  0.2868
  820MOL0     H 8206  -1.043   0.469  11.983 -2.3681 -2.4763  1.3364
  820MOL0     H 8207  -1.027   0.646  11.980  0.0526  0.9676  0.6318
  820MOL0     H 8208  -1.198   0.629  12.180 -1.3004  0.0845 -0.0970
  820MOL0     H 8209  -1.211   0.456  12.132  1.5545 -0.7128  0.7569
  820MOL0     H 8210  -1.266   0.536  11.905  1.6783 -1.0451  0.4750
  820MOL0     H 8211  -1.247   0.697  11.966  2.1926  0.5661  3.5001
  820MOL0     H 8212  -1.433   0.534  12.137 -0.7191  0.3670 -0.4090
  820MOL0     H 8213  -1.425   0.706  12.102  1.0278 -0.3010  0.0024
  820MOL0     H 8214  -1.561   0.521  11.911 -3.6836  1.4425 -0.0742
  820MOL0     H 8215  -1.490   0.680  11.875  1.9649  2.8185  2.6868
  820MOL0     H 8216  -1.646   0.754  12.081 -3.2322  2.3146 -1.7034
  820MOL0     H 8217  -1.689   0.597  12.093  0.1225  0.1727 -0.3554
  820MOL0     H 8218  -1.743   0.731  11.820 -0.1568 -1.3386 -0.9531
  820MOL0     H 8219  -1.815   0.578  11.888 -1.2622  1.0614  0.0099
  820MOL0     H 8220  -1.983   0.719  11.919 -2.5973 -2.6669  4.2663
  820MOL0     H 8221  -1.868   0.856  11.969  2.1201 -0.5546  1.6924
  820MOL0     H 8222  -0.818   0.477  11.944  0.5259  0.1815  0.2515
  820MOL0     H 8223  -0.590   0.380  11.950  0.9161 -1.5219  1.1310
  820MOL0     H 8224  -0.276   0.259  11.985  2.6736 -5.0496 -0.8090
  820MOL0     H 8225  -0.054   0.207  11.889 -0.3927  0.9869 -0.2668
  820MOL0     H 8226   1.237   0.237  10.591 -2.1424 -0.0267  1.1650
  820MOL0     H 8227   1.465   0.316  10.561  0.8295  1.7125  0.2157
  820MOL0     H 8228   1.843   0.428  10.737 -1.3009 -1.2085  1.3699
  820MOL0     H 8229   2.071   0.503  10.734 -1.6218 -1.1712  1.5910
  820MOL0     H 8230   2.242   0.591  10.697  0.5141 -2.2034  2.0892
  820MOL0     H 8231   2.279   0.642  10.860  0.5664 -1.1094  0.0785
  820MOL0     H 8232   2.348   0.784  10.589  1.1287  0.0034 -0.3306
  820MOL0     H 8233   2.370   0.873  10.732 -1.7224  1.8883 -2.1307
  820MOL0     H 8234   2.502   0.597  10.669  2.9219 -1.3006  1.7531
  820MOL0     H 8235   2.512   0.678  10.818 -1.4331  0.3132  0.5687
  820MOL0     H 8236   2.601   0.782  10.540 -2.4976  1.5586 -0.1430
  820MOL0     H 8237   2.631   0.871  10.693 -2.4436  0.8206 -0.9614
  820MOL0     H 8238   2.912   0.556  10.719 -1.7148 -1.3668  0.7371
  820MOL0     H 8239   1.952   0.924  10.748 -2.6893  1.1254 -0.3321
  820MOL0     H 8240   1.716   0.851  10.733  1.8859  0.8421 -1.1325
  821MOL0     O 8241   3.061   8.718   4.818  0.1769 -0.6464 -0.3116
  821MOL0     C 8242   3.143   8.813   4.810 -0.3756 -0.2129  0.4161
  821MOL0     O 8243   3.109   8.938   4.845  0.1250 -0.1233  0.5195
  821MOL0     C 8244   2.985   8.970   4.912 -0.1154 -0.8474 -0.3812
  821MOL0     C 8245   2.883   9.037   4.845  0.4555  0.1420  0.0072
  821MOL0     C 8246   2.760   9.080   4.908  0.7606  0.7993 -0.6475
  821MOL0     C 8247   2.742   9.050   5.043  0.0069 -0.7397  0.1592
  821MOL0     O 8248   2.632   9.100   5.113 -0.4197 -0.2325 -0.2152
  821MOL0     C 8249   2.534   9.190   5.054 -0.0564 -0.3100  0.5554
  821MOL0     C 8250   2.442   9.245   5.164 -0.8337  0.1461 -0.8307
  821MOL0     C 8251   2.319   9.326   5.133 -0.3852 -0.7873 -1.1534
  821MOL0     C 8252   2.242   9.376   5.258  0.6743  0.7259 -0.3659
  821MOL0     C 8253   2.124   9.452   5.211 -0.0430 -0.1751 -0.3800
  821MOL0     C 8254   2.057   9.486   5.341  0.5457  0.3952  0.0234
  821MOL0     C 8255   1.914   9.547   5.318  0.8468 -0.4674  0.6096
  821MOL0     C 8256   1.903   9.691   5.260  0.5524 -0.4782  0.3492
  821MOL0     N 8257   1.765   9.704   5.202  0.0041 -0.7767 -0.1333
  821MOL0     C 8258   1.652   9.706   5.273 -0.1732 -0.9342  0.0333
  821MOL0     C 8259   1.557   9.676   5.178  0.0125  0.6037  0.8399
  821MOL0     C 8260   1.415   9.669   5.207 -0.8912  0.0148  0.3892
  821MOL0     C 8261   1.366   9.812   5.159  0.5756 -0.0287  0.1765
  821MOL0     C 8262   1.215   9.819   5.175 -0.2264  0.9007  0.3988
  821MOL0     C 8263   1.160   9.864   5.312  0.2518  0.2800  0.0857
  821MOL0     O 8264   1.036   9.932   5.289 -0.0098 -0.3465 -0.0393
  821MOL0     C 8265   0.914   9.869   5.288 -0.9492  0.5517 -0.5978
  821MOL0     C 8266   0.793   9.939   5.277 -0.0384 -0.7140 -0.3753
  821MOL0     C 8267   0.673   9.875   5.257 -0.1079 -0.4812  1.0683
  821MOL0     C 8268   0.678   9.731   5.242 -0.1965 -0.4227  0.6455
  821MOL0     C 8269   0.548   9.655   5.221  0.0842 -0.1311  0.4096
  821MOL0     O 8270   0.539   9.531   5.270 -0.3925  0.0206 -0.5658
  821MOL0     C 8271   0.424   9.453   5.278 -0.4491  0.3003 -1.0726
  821MOL0     C 8272   0.452   9.325   5.335 -0.3624 -0.1091  0.6608
  821MOL0     C 8273   0.356   9.225   5.339 -0.7126 -0.4134  0.2930
  821MOL0     C 8274   0.226   9.248   5.294 -0.4886  0.2952  0.0332
  821MOL0     O 8275   0.144   9.140   5.287 -0.4881  0.5216  0.1165
  821MOL0     C 8276   0.012   9.156   5.225 -0.2331 -0.1744  1.2839
  821MOL0     C 8277  -0.061   9.029   5.270  0.5465 -0.6466 -0.1876
  821MOL0     C 8278  -0.014   8.899   5.198  0.0711 -0.0700 -0.1364
  821MOL0     C 8279  -0.104   8.780   5.234 -0.0181 -0.2407 -0.1490
  821MOL0     C 8280  -0.067   8.666   5.157  0.3544  0.7222  0.3241
  821MOL0     C 8281   0.060   8.599   5.216 -0.2928  0.4701  0.1258
  821MOL0     C 8282   0.071   8.454   5.166 -0.0955  0.4257 -0.0276
  821MOL0     C 8283   0.020   8.353   5.277  0.4074  0.3565  0.3987
  821MOL0    Cl 8284   0.154   8.309   5.392  0.1196 -0.4087  0.2494
  821MOL0     C 8285   0.197   9.375   5.250 -0.2698 -0.1830  0.9178
  821MOL0     C 8286   0.289   9.477   5.244 -0.4543 -0.9041  0.2523
  821MOL0     O 8287   0.448   9.721   5.178 -0.6806 -0.1042 -0.0217
  821MOL0     C 8288   0.796   9.663   5.263 -0.5294  0.7547 -0.0736
  821MOL0     C 8289   0.913   9.728   5.288 -0.0171 -0.6110  0.0594
  821MOL0     N 8290   1.618   9.661   5.054  0.4326  0.7119  0.1552
  821MOL0     N 8291   1.745   9.686   5.070  0.0354  0.0116  0.0277
  821MOL0     C 8292   2.843   8.984   5.114 -0.7979 -0.3841 -0.5114
  821MOL0     C 8293   2.967   8.954   5.051  0.6926 -0.7464  1.2879
  821MOL0     C 8294   3.271   8.795   4.750 -0.1108  0.0423 -0.4819
  821MOL0     C 8295   3.322   8.668   4.731  0.3385  0.6400 -0.0958
  821MOL0     C 8296   3.445   8.643   4.679  0.1104  0.9005  1.1530
  821MOL0     C 8297   3.523   8.746   4.624  0.5248 -0.0591  0.2576
  821MOL0     O 8298   3.642   8.710   4.563  0.1738  0.5947 -0.4033
  821MOL0     C 8299   3.703   8.812   4.481  0.6312  0.1526  0.7461
  821MOL0     C 8300   3.622   8.831   4.355 -0.7348  0.6566 -0.4331
  821MOL0     C 8301   3.580   8.701   4.271  0.5414 -0.7514 -0.0765
  821MOL0     C 8302   3.699   8.615   4.223 -0.3324  0.7308  0.2124
  821MOL0     C 8303   3.750   8.689   4.105 -0.2966  0.3591  0.0628
  821MOL0     C 8304   3.798   8.755   4.014  0.0411 -0.1301  0.0992
  821MOL0     C 8305   3.473   8.879   4.649  1.2231 -0.1697 -0.5761
  821MOL0     C 8306   3.355   8.902   4.721  0.1450 -0.1328  0.2120
  821MOL0     H 8307   2.909   9.058   4.741 -0.1004  0.6334 -0.0451
  821MOL0     H 8308   2.678   9.121   4.851 -2.4789 -3.8330  0.1311
  821MOL0     H 8309   2.476   9.135   4.980  0.0453  0.7645 -0.3533
  821MOL0     H 8310   2.585   9.266   4.994  2.5462 -4.1042 -2.5211
  821MOL0     H 8311   2.496   9.302   5.240 -5.0097  3.0180  0.2805
  821MOL0     H 8312   2.412   9.157   5.221 -0.2403  0.5824  0.1781
  821MOL0     H 8313   2.246   9.279   5.066  0.6195 -2.5756 -1.0565
  821MOL0     H 8314   2.357   9.416   5.082  1.5191 -1.6535 -1.3616
  821MOL0     H 8315   2.211   9.295   5.324 -0.6085  0.6365 -1.0468
  821MOL0     H 8316   2.303   9.443   5.320 -1.2186  3.6004 -1.4060
  821MOL0     H 8317   2.068   9.383   5.147  1.9448 -1.0081 -1.3075
  821MOL0     H 8318   2.157   9.538   5.150 -1.7549 -1.1124 -2.7740
  821MOL0     H 8319   2.121   9.549   5.404  2.7828 -3.0231  1.4075
  821MOL0     H 8320   2.031   9.397   5.399  0.1177  1.1367  1.0009
  821MOL0     H 8321   1.863   9.477   5.252  0.8178 -1.1733  1.3524
  821MOL0     H 8322   1.856   9.529   5.410  0.3877 -3.7479 -0.1703
  821MOL0     H 8323   1.981   9.700   5.184  0.3346 -0.9519  0.0675
  821MOL0     H 8324   1.925   9.760   5.342  2.0859 -3.1938  2.4199
  821MOL0     H 8325   1.631   9.728   5.377 -1.4749 -0.8941 -0.2219
  821MOL0     H 8326   1.405   9.657   5.315 -0.9812 -2.8179  0.1307
  821MOL0     H 8327   1.365   9.593   5.146 -1.0564  1.2695 -1.1175
  821MOL0     H 8328   1.385   9.823   5.052 -0.0407  2.3268  0.2701
  821MOL0     H 8329   1.422   9.896   5.200  2.5003 -0.5065 -1.3334
  821MOL0     H 8330   1.181   9.898   5.108 -1.9594  0.2273  0.4319
  821MOL0     H 8331   1.169   9.723   5.153 -1.0617  0.6685  2.8584
  821MOL0     H 8332   1.226   9.939   5.357 -0.1090  1.7113 -1.6693
  821MOL0     H 8333   1.162   9.775   5.376 -0.2965 -0.6908 -1.2116
  821MOL0     H 8334   0.806  10.046   5.286  0.4793 -0.9266  2.5872
  821MOL0     H 8335   0.588   9.934   5.226  0.3520 -0.8797 -1.1976
  821MOL0     H 8336   0.553   9.312   5.371  0.0520 -0.1723 -0.4766
  821MOL0     H 8337   0.386   9.129   5.378  1.0389 -1.1188 -2.4700
  821MOL0     H 8338   0.026   9.155   5.116  1.9575  0.0082  1.5290
  821MOL0     H 8339  -0.041   9.250   5.247 -1.5146 -0.0289 -1.8295
  821MOL0     H 8340  -0.167   9.045   5.248  0.5213 -1.0836 -0.3890
  821MOL0     H 8341  -0.052   9.005   5.377 -1.2916 -0.7898 -0.0243
  821MOL0     H 8342   0.095   8.894   5.208  0.2332 -0.8390 -1.8666
  821MOL0     H 8343  -0.022   8.908   5.089 -0.0560 -1.6794 -0.2941
  821MOL0     H 8344  -0.099   8.764   5.342 -2.1691 -2.4988 -0.2845
  821MOL0     H 8345  -0.207   8.808   5.210  0.0810 -0.5763 -1.0089
  821MOL0     H 8346  -0.040   8.698   5.056 -0.0157  1.7429  0.5381
  821MOL0     H 8347  -0.149   8.594   5.154 -0.4913  1.6548  0.3373
  821MOL0     H 8348   0.057   8.592   5.325 -0.5094  0.7307  0.1399
  821MOL0     H 8349   0.147   8.657   5.185 -0.1288  2.6678  4.0730
  821MOL0     H 8350   0.020   8.442   5.069 -2.3894  4.3872  0.4921
  821MOL0     H 8351   0.171   8.414   5.148 -0.1624 -0.0488  0.5858
  821MOL0     H 8352  -0.022   8.261   5.237 -2.2049  0.1397  3.2165
  821MOL0     H 8353  -0.067   8.397   5.328 -0.8997 -2.1911  0.5087
  821MOL0     H 8354   0.095   9.398   5.219 -0.7064 -0.1459  2.3122
  821MOL0     H 8355   0.267   9.573   5.198 -0.2770 -0.0436  1.8794
  821MOL0     H 8356   0.805   9.555   5.259  1.0775  0.8576  0.0036
  821MOL0     H 8357   0.995   9.665   5.320  0.3568 -0.1974 -0.0754
  821MOL0     H 8358   2.837   8.960   5.220 -0.1015  0.3233 -0.3020
  821MOL0     H 8359   3.042   8.903   5.110 -0.5410 -1.6502  2.1225
  821MOL0     H 8360   3.262   8.582   4.760 -2.4628  1.8243 -1.9654
  821MOL0     H 8361   3.462   8.540   4.649  0.0913  0.7889  1.5143
  821MOL0     H 8362   3.807   8.788   4.459  1.7962  4.6300  0.3184
  821MOL0     H 8363   3.712   8.904   4.541  1.6739 -0.1589  1.0822
  821MOL0     H 8364   3.531   8.886   4.383 -1.4715 -0.5859 -0.2917
  821MOL0     H 8365   3.680   8.905   4.300  1.0719  0.0601  0.5882
  821MOL0     H 8366   3.527   8.727   4.179  0.0269 -0.5740  0.2675
  821MOL0     H 8367   3.514   8.642   4.334  1.4732  0.2781  1.9456
  821MOL0     H 8368   3.771   8.598   4.304 -0.6199  0.6419  0.4514
  821MOL0     H 8369   3.661   8.517   4.190 -0.5250  0.1862  1.9373
  821MOL0     H 8370   3.837   8.804   3.927  2.6520 -3.7909 -1.0883
  821MOL0     H 8371   3.522   8.967   4.609  0.6094  0.4782  0.0608
  821MOL0     H 8372   3.326   9.004   4.742  0.2964 -0.4337  1.9755
  822MOL0     O 8373   6.828   1.503   8.177  0.7905  0.0228 -0.1722
  822MOL0     C 8374   6.849   1.612   8.218  0.0530  0.1135 -0.4665
  822MOL0     O 8375   6.902   1.643   8.343 -0.2977 -0.4640 -0.6089
  822MOL0     C 8376   6.965   1.540   8.410 -0.2491 -0.5250 -0.2303
  822MOL0     C 8377   7.106   1.560   8.449 -0.3824  0.1066  0.7112
  822MOL0     C 8378   7.173   1.469   8.532 -0.5593  0.3975 -0.1709
  822MOL0     C 8379   7.110   1.357   8.574  0.6916  0.4772  0.4208
  822MOL0     O 8380   7.188   1.256   8.628 -0.2329 -0.4108 -0.1042
  822MOL0     C 8381   7.150   1.121   8.601  0.1190  0.4940  0.1083
  822MOL0     C 8382   7.260   1.030   8.645 -0.5751 -1.0221 -0.6622
  822MOL0     C 8383   7.267   0.905   8.550  0.8620  1.3974 -0.3969
  822MOL0     C 8384   7.141   0.810   8.530 -0.0871  0.0861  0.4711
  822MOL0     C 8385   7.179   0.677   8.474 -0.2186  0.1263  0.9090
  822MOL0     C 8386   7.226   0.579   8.588  0.4880 -0.5345  0.3742
  822MOL0     C 8387   7.128   0.467   8.615 -0.1988  0.1162 -0.8295
  822MOL0     C 8388   7.000   0.519   8.683  0.1129 -1.0558  0.6229
  822MOL0     N 8389   6.914   0.421   8.734  0.3158 -0.1984 -0.1877
  822MOL0     C 8390   6.870   0.311   8.667 -0.9908 -0.1332 -1.1229
  822MOL0     C 8391   6.854   0.213   8.768  0.1037 -0.6286 -1.3055
  822MOL0     C 8392   6.798   0.076   8.757  0.0936  0.7140  0.7672
  822MOL0     C 8393   6.650   0.084   8.720 -0.3840  0.2548  0.0150
  822MOL0     C 8394   6.569   0.096   8.846  0.5571 -0.9175  0.2605
  822MOL0     C 8395   6.420   0.109   8.832 -0.1023  0.3512  0.3605
  822MOL0     O 8396   6.371  -0.019   8.800  0.5345 -0.5954  0.4339
  822MOL0     C 8397   6.239  -0.024   8.823  0.4007 -0.2673  0.3347
  822MOL0     C 8398   6.192  -0.091   8.940 -0.3323  0.7326  0.8932
  822MOL0     C 8399   6.055  -0.108   8.965 -0.7732  0.1243  0.6294
  822MOL0     C 8400   5.957  -0.060   8.860 -0.6946  0.4632 -0.3177
  822MOL0     C 8401   5.815  -0.083   8.885 -0.3392  0.0942  0.5576
  822MOL0     O 8402   5.779  -0.150   8.995  0.1692 -0.2606  0.0612
  822MOL0     C 8403   5.654  -0.191   9.029 -0.2673  0.1068 -0.2821
  822MOL0     C 8404   5.635  -0.289   9.130  0.1614  0.6544 -0.0965
  822MOL0     C 8405   5.509  -0.342   9.171  0.2994 -0.2380 -0.9515
  822MOL0     C 8406   5.396  -0.285   9.115 -1.0103 -0.5629  0.0140
  822MOL0     O 8407   5.277  -0.338   9.155  0.0601 -0.2681 -0.6032
  822MOL0     C 8408   5.152  -0.292   9.110  0.2344  0.2752  0.6643
  822MOL0     C 8409   5.119  -0.152   9.170 -0.5201 -0.5411  1.3135
  822MOL0     C 8410   4.981  -0.109   9.127  0.5031  0.4735 -0.7915
  822MOL0     C 8411   4.937   0.003   9.220 -0.3878  0.2641 -0.5517
  822MOL0     C 8412   4.797   0.059   9.187  0.3300 -0.2816  0.1482
  822MOL0     C 8413   4.750   0.176   9.270 -0.3971 -0.3127 -0.3023
  822MOL0     C 8414   4.849   0.285   9.296 -0.3199  0.1926  0.2087
  822MOL0     C 8415   4.784   0.425   9.339 -0.3340 -0.1791 -0.0317
  822MOL0    Cl 8416   4.717   0.529   9.208  0.0128 -0.1015 -0.0004
  822MOL0     C 8417   5.408  -0.198   9.016 -0.3342 -0.1520  0.6973
  822MOL0     C 8418   5.532  -0.144   8.973 -0.5484 -0.7024  0.1561
  822MOL0     O 8419   5.744  -0.034   8.800  0.4711 -0.5769  0.2583
  822MOL0     C 8420   6.009   0.016   8.749  0.7089  1.0416  0.3111
  822MOL0     C 8421   6.147   0.024   8.735 -1.2669 -0.4339  0.2603
  822MOL0     N 8422   6.870   0.272   8.887  0.1481 -0.0367 -0.4956
  822MOL0     N 8423   6.923   0.389   8.867 -0.1717 -0.2055  0.3846
  822MOL0     C 8424   6.971   1.338   8.548 -0.0706 -0.8168  0.2343
  822MOL0     C 8425   6.901   1.428   8.464 -0.0102 -0.0855 -0.5656
  822MOL0     C 8426   6.789   1.718   8.136 -0.1945  0.4977  0.6005
  822MOL0     C 8427   6.828   1.850   8.146  0.7190 -0.4607  0.3061
  822MOL0     C 8428   6.762   1.957   8.080  0.5556  0.8494 -0.8334
  822MOL0     C 8429   6.650   1.933   8.000 -0.3331 -0.2697  0.1743
  822MOL0     O 8430   6.586   2.036   7.945 -1.0338  0.2131  0.4865
  822MOL0     C 8431   6.485   2.007   7.852 -0.3990 -0.5211  0.0793
  822MOL0     C 8432   6.416   2.144   7.836 -0.4857 -0.3855  0.8003
  822MOL0     C 8433   6.335   2.179   7.950  0.7673 -0.9978 -0.4883
  822MOL0     C 8434   6.239   2.309   7.913 -0.0624  0.9260 -0.6716
  822MOL0     C 8435   6.223   2.399   8.032 -0.4914  0.0460 -0.6762
  822MOL0     C 8436   6.196   2.452   8.140 -0.2946  0.4380  0.9420
  822MOL0     C 8437   6.620   1.797   7.980  1.0198 -0.2385 -0.6238
  822MOL0     C 8438   6.684   1.685   8.051 -0.4992 -0.3491  0.0952
  822MOL0     H 8439   7.161   1.643   8.406  0.0980  0.9308  2.8241
  822MOL0     H 8440   7.278   1.492   8.542 -1.2188  2.3961  4.5379
  822MOL0     H 8441   7.146   1.107   8.493 -2.1243 -0.9755  0.3101
  822MOL0     H 8442   7.054   1.093   8.646  0.9780 -2.5596  0.2589
  822MOL0     H 8443   7.256   0.997   8.749 -2.3643 -1.2866 -0.7773
  822MOL0     H 8444   7.349   1.091   8.628  0.1318 -2.1798 -1.3087
  822MOL0     H 8445   7.346   0.841   8.591  1.3501  0.9566 -1.9584
  822MOL0     H 8446   7.296   0.941   8.450 -2.2603  0.1626 -1.8757
  822MOL0     H 8447   7.087   0.800   8.625  1.0098 -2.0712  0.9123
  822MOL0     H 8448   7.072   0.869   8.469 -4.1466 -0.3073  4.2450
  822MOL0     H 8449   7.260   0.686   8.402 -0.1362 -0.2334  0.9593
  822MOL0     H 8450   7.086   0.640   8.430  0.7261 -4.8307  2.5382
  822MOL0     H 8451   7.252   0.637   8.677  0.2226 -0.2746  0.2860
  822MOL0     H 8452   7.317   0.535   8.547 -0.6617  0.6511 -4.0979
  822MOL0     H 8453   7.093   0.428   8.519 -0.0338  0.4382 -1.0216
  822MOL0     H 8454   7.174   0.389   8.677  0.2524  1.8326  1.0871
  822MOL0     H 8455   6.946   0.580   8.609 -0.5272 -3.4064 -0.9568
  822MOL0     H 8456   7.024   0.582   8.770 -1.0752  0.2324  0.0631
  822MOL0     H 8457   6.870   0.302   8.559 -1.1945 -4.6076 -0.9565
  822MOL0     H 8458   6.809   0.013   8.846 -1.0781 -0.6981 -0.0505
  822MOL0     H 8459   6.854   0.024   8.680  1.5351  1.0337  1.5718
  822MOL0     H 8460   6.609  -0.005   8.671 -0.5265  0.2540  0.1346
  822MOL0     H 8461   6.630   0.158   8.642  0.0467 -1.3460 -1.6667
  822MOL0     H 8462   6.590   0.018   8.920 -1.6484 -4.0759 -2.1544
  822MOL0     H 8463   6.598   0.190   8.894  1.4220 -0.6250 -0.8084
  822MOL0     H 8464   6.379   0.178   8.758  0.0365  0.1550  0.1028
  822MOL0     H 8465   6.375   0.142   8.926 -0.5522  0.1354  0.2245
  822MOL0     H 8466   6.260  -0.124   9.018 -0.3149 -0.6032  0.3317
  822MOL0     H 8467   6.032  -0.157   9.059 -0.2838  1.3798  1.4428
  822MOL0     H 8468   5.727  -0.333   9.168 -0.9104 -2.6620 -1.0591
  822MOL0     H 8469   5.496  -0.412   9.253  0.6580 -1.3661 -1.8298
  822MOL0     H 8470   5.068  -0.355   9.138  0.7266 -0.6428  0.1278
  822MOL0     H 8471   5.149  -0.289   9.001 -0.5148 -2.1541  0.5629
  822MOL0     H 8472   5.186  -0.068   9.152 -1.6355  1.0555  3.9922
  822MOL0     H 8473   5.120  -0.166   9.279 -0.8396 -0.6874  1.2987
  822MOL0     H 8474   4.916  -0.197   9.131  0.8168  0.2564 -0.2698
  822MOL0     H 8475   4.985  -0.068   9.026 -1.4594  0.9395 -0.7172
  822MOL0     H 8476   4.939  -0.044   9.319 -0.0557 -2.4297 -1.7433
  822MOL0     H 8477   5.011   0.083   9.211  0.1561  0.2978  2.9231
  822MOL0     H 8478   4.731  -0.028   9.194  2.3040 -1.8706 -0.0045
  822MOL0     H 8479   4.794   0.087   9.081  0.0571  1.7225  0.6474
  822MOL0     H 8480   4.712   0.131   9.362 -0.4964  0.0105 -0.1821
  822MOL0     H 8481   4.661   0.210   9.215  0.4436  1.8745 -0.4110
  822MOL0     H 8482   4.913   0.239   9.372  0.7210 -0.7808 -1.2093
  822MOL0     H 8483   4.904   0.308   9.204 -0.7817  0.5236  0.0160
  822MOL0     H 8484   4.864   0.476   9.394 -1.2296  0.5876  0.5972
  822MOL0     H 8485   4.705   0.413   9.414  1.7408 -0.9593  2.1900
  822MOL0     H 8486   5.322  -0.147   8.974  0.5500 -0.4782 -1.6836
  822MOL0     H 8487   5.539  -0.058   8.907  0.9290 -0.8439  0.0827
  822MOL0     H 8488   5.940   0.069   8.684 -1.4415 -1.2514  0.5854
  822MOL0     H 8489   6.200   0.077   8.657  1.5160 -2.2922  0.7012
  822MOL0     H 8490   6.913   1.260   8.595 -1.2240  0.3501  0.8068
  822MOL0     H 8491   6.793   1.419   8.456 -0.1394  1.3370 -0.7058
  822MOL0     H 8492   6.912   1.870   8.210  0.5664 -1.9940  1.0196
  822MOL0     H 8493   6.802   2.057   8.097 -1.4483  1.8141 -1.4334
  822MOL0     H 8494   6.407   1.930   7.865 -2.5195  1.2063 -1.6386
  822MOL0     H 8495   6.528   1.970   7.759  2.5940  1.5567  0.5149
  822MOL0     H 8496   6.489   2.225   7.823 -0.1903 -0.6520  0.7941
  822MOL0     H 8497   6.354   2.136   7.746  1.0095 -2.0979 -0.1566
  822MOL0     H 8498   6.408   2.208   8.026  0.9206 -0.8182 -0.7015
  822MOL0     H 8499   6.274   2.099   7.993  0.5469 -0.2175  0.6831
  822MOL0     H 8500   6.297   2.366   7.840 -0.0751 -0.2077 -1.5891
  822MOL0     H 8501   6.142   2.275   7.876  0.2870 -2.7470  1.3422
  822MOL0     H 8502   6.176   2.513   8.225  1.2361  0.2226  1.4957
  822MOL0     H 8503   6.543   1.764   7.911  1.9024 -1.4015 -1.0984
  822MOL0     H 8504   6.652   1.583   8.031 -1.0020  0.4952 -4.6157
  823MOL0     O 8505   7.331  10.673   7.012 -0.5121  0.2680  0.7370
  823MOL0     C 8506   7.358  10.776   6.946 -0.1182 -0.9563 -0.1384
  823MOL0     O 8507   7.261  10.850   6.882 -1.6240  0.2024  0.3236
  823MOL0     C 8508   7.129  10.845   6.906 -0.1817  0.0546 -0.5385
  823MOL0     C 8509   7.035  10.874   6.803  0.1116  0.0645  0.4354
  823MOL0     C 8510   6.900  10.878   6.832 -0.2743 -0.9190 -0.4596
  823MOL0     C 8511   6.853  10.859   6.961  0.0045  0.2167  0.0808
  823MOL0     O 8512   6.718  10.839   6.973  0.1954 -0.2585  0.4014
  823MOL0     C 8513   6.646  10.948   7.035 -0.0142  0.8868  0.4597
  823MOL0     C 8514   6.526  10.882   7.094 -0.2937 -0.2592 -0.2397
  823MOL0     C 8515   6.432  10.984   7.170 -1.7989  0.1640 -0.0478
  823MOL0     C 8516   6.325  10.916   7.254  0.3832  0.1909 -0.6502
  823MOL0     C 8517   6.205  10.998   7.290 -0.3388  0.4162 -0.1924
  823MOL0     C 8518   6.229  11.133   7.357 -0.9004 -0.6083 -0.1941
  823MOL0     C 8519   6.269  11.109   7.504 -0.4422  0.2207 -0.0169
  823MOL0     C 8520   6.151  11.065   7.588  0.0349 -0.4860  0.1731
  823MOL0     N 8521   6.193  11.071   7.722  0.1683  0.6385  0.1333
  823MOL0     C 8522   6.233  10.962   7.802 -0.3137 -0.8480  0.6313
  823MOL0     C 8523   6.217  10.994   7.928  0.6912  0.0060  0.4743
  823MOL0     C 8524   6.231  10.909   8.049 -0.6426 -0.0975 -0.7362
  823MOL0     C 8525   6.097  10.881   8.125 -0.4028 -1.3654 -0.1820
  823MOL0     C 8526   5.993  10.799   8.045 -0.0322 -0.2365 -0.6167
  823MOL0     C 8527   5.849  10.819   8.098  0.4207  0.1303 -0.2193
  823MOL0     O 8528   5.767  10.866   7.990  0.4135 -0.5458 -0.0419
  823MOL0     C 8529   5.668  10.957   8.021 -0.3247  0.2618 -0.1923
  823MOL0     C 8530   5.660  11.080   7.949 -0.7298 -1.1350 -0.0245
  823MOL0     C 8531   5.567  11.178   7.984 -0.1593  0.7149 -0.2139
  823MOL0     C 8532   5.461  11.148   8.080 -0.1553 -0.3327 -0.2403
  823MOL0     C 8533   5.355  11.236   8.091 -0.3448 -0.0904  0.7216
  823MOL0     O 8534   5.319  11.318   7.981  0.3433 -0.6144 -0.2714
  823MOL0     C 8535   5.196  11.374   7.991 -0.6944 -0.4741  0.8026
  823MOL0     C 8536   5.182  11.514   7.987 -0.3232  0.1918 -0.3664
  823MOL0     C 8537   5.052  11.562   7.983  0.1260 -0.6244  0.4849
  823MOL0     C 8538   4.943  11.485   7.971  0.3481  0.0353 -0.6731
  823MOL0     O 8539   4.814  11.543   7.952 -0.0543 -0.2278 -0.9324
  823MOL0     C 8540   4.690  11.471   7.906  0.1981 -0.9764  0.6599
  823MOL0     C 8541   4.597  11.581   7.870  0.3889  0.0970 -0.7428
  823MOL0     C 8542   4.480  11.520   7.810  0.1658  0.2213  0.5748
  823MOL0     C 8543   4.387  11.633   7.764 -0.7226 -0.0714 -0.2936
  823MOL0     C 8544   4.252  11.572   7.716  0.5690 -0.1739 -0.0655
  823MOL0     C 8545   4.141  11.567   7.823 -0.4383  0.5091 -0.6954
  823MOL0     C 8546   4.038  11.455   7.795 -0.9896  1.1487 -0.4879
  823MOL0     C 8547   3.907  11.482   7.848  0.4368  0.3861  0.1733
  823MOL0    Cl 8548   3.779  11.403   7.737 -0.2706 -0.2444  0.0916
  823MOL0     C 8549   4.951  11.346   7.978 -1.0366 -0.3337 -0.0909
  823MOL0     C 8550   5.080  11.293   7.980  0.1359  0.0778  0.2220
  823MOL0     O 8551   5.296  11.237   8.199 -0.2887  0.5371 -0.3125
  823MOL0     C 8552   5.479  11.040   8.161  0.6018 -0.2498  0.6378
  823MOL0     C 8553   5.580  10.938   8.130  0.2497 -0.3606  0.1413
  823MOL0     N 8554   6.190  11.126   7.933  1.1874  0.0208 -0.2756
  823MOL0     N 8555   6.176  11.172   7.812  0.0124 -0.2086  0.4133
  823MOL0     C 8556   6.938  10.831   7.065  0.0734 -0.1624 -0.1269
  823MOL0     C 8557   7.075  10.827   7.038 -0.2064  0.1785  0.2175
  823MOL0     C 8558   7.494  10.830   6.939  1.2285 -0.6209 -0.3029
  823MOL0     C 8559   7.599  10.764   6.999 -0.1526 -0.2132 -1.1036
  823MOL0     C 8560   7.728  10.825   7.006  1.0242  0.0239 -0.1208
  823MOL0     C 8561   7.761  10.935   6.932  0.9295 -0.6284  0.6855
  823MOL0     O 8562   7.879  11.003   6.935 -0.6759 -0.0507  0.3077
  823MOL0     C 8563   7.935  11.058   6.815  0.1441  0.1770  0.4910
  823MOL0     C 8564   8.071  11.107   6.849 -0.8787 -0.4565 -0.8835
  823MOL0     C 8565   8.168  10.997   6.905 -0.1261 -0.1347 -0.8403
  823MOL0     C 8566   8.213  10.900   6.787  0.4766 -0.1829 -0.7533
  823MOL0     C 8567   8.242  10.967   6.663 -0.4701 -1.2553  0.5405
  823MOL0     C 8568   8.262  11.020   6.558  0.7591  0.2615  0.1323
  823MOL0     C 8569   7.649  10.996   6.862  0.5138  0.4827 -0.3174
  823MOL0     C 8570   7.519  10.947   6.862 -0.2547  1.0442 -1.1048
  823MOL0     H 8571   7.061  10.891   6.698 -3.1543  1.4330 -0.2749
  823MOL0     H 8572   6.830  10.889   6.749  2.4946 -1.2640 -3.0169
  823MOL0     H 8573   6.640  11.030   6.963  0.8021  1.4474  1.0194
  823MOL0     H 8574   6.693  10.982   7.128 -1.3600  0.3058  1.3829
  823MOL0     H 8575   6.558  10.804   7.163 -0.1675  0.0554  0.0565
  823MOL0     H 8576   6.476  10.827   7.013  2.4167 -0.6502 -1.7616
  823MOL0     H 8577   6.384  11.045   7.093 -1.9299 -0.2460 -0.2914
  823MOL0     H 8578   6.489  11.055   7.230 -1.7352  1.0803 -1.1599
  823MOL0     H 8579   6.285  10.832   7.196 -0.0607  0.6474 -1.0158
  823MOL0     H 8580   6.364  10.883   7.351 -3.9249 -0.0910  1.2362
  823MOL0     H 8581   6.141  10.936   7.352  0.3118  1.8922  2.0587
  823MOL0     H 8582   6.154  11.013   7.194  1.3209 -2.0859 -1.6001
  823MOL0     H 8583   6.134  11.187   7.355 -0.4625  0.2880  1.4865
  823MOL0     H 8584   6.302  11.199   7.310 -1.6194  0.4877  0.1900
  823MOL0     H 8585   6.361  11.051   7.513  1.0044  2.7511  3.1901
  823MOL0     H 8586   6.297  11.211   7.532  2.8029  0.3684 -3.0461
  823MOL0     H 8587   6.110  10.967   7.561 -0.9496 -0.4744  1.5189
  823MOL0     H 8588   6.078  11.145   7.574  1.7108  1.2026  0.7201
  823MOL0     H 8589   6.254  10.863   7.763  3.8020  0.2678 -0.4862
  823MOL0     H 8590   6.295  10.957   8.124  0.0526 -0.5849 -1.0127
  823MOL0     H 8591   6.284  10.817   8.024 -0.6801 -0.1132 -0.7591
  823MOL0     H 8592   6.062  10.984   8.141  3.2820 -0.3686  3.2400
  823MOL0     H 8593   6.108  10.847   8.228  1.7823  1.3481  0.5963
  823MOL0     H 8594   5.997  10.836   7.942  0.5416  0.4710 -0.3489
  823MOL0     H 8595   6.017  10.692   8.035  1.1769  0.1191 -1.8679
  823MOL0     H 8596   5.839  10.884   8.186 -0.1739 -0.1954 -0.0379
  823MOL0     H 8597   5.800  10.727   8.131 -2.8214  2.0488  0.8323
  823MOL0     H 8598   5.722  11.100   7.863 -2.1575  0.5685 -0.7105
  823MOL0     H 8599   5.556  11.264   7.918  2.0730  1.5031  0.3458
  823MOL0     H 8600   5.270  11.575   8.004  0.1758 -0.3412 -1.0063
  823MOL0     H 8601   5.045  11.670   7.981 -0.0238 -0.6443 -1.5597
  823MOL0     H 8602   4.640  11.399   7.972  1.2324 -1.6247  0.7536
  823MOL0     H 8603   4.710  11.415   7.814 -0.7598 -0.4466  0.1117
  823MOL0     H 8604   4.646  11.648   7.799  2.0883 -0.1344  0.1528
  823MOL0     H 8605   4.575  11.626   7.967  0.6959 -2.1011  0.4251
  823MOL0     H 8606   4.427  11.461   7.886  1.6204 -2.3655 -0.3199
  823MOL0     H 8607   4.498  11.455   7.724 -2.1539  0.5337 -0.2256
  823MOL0     H 8608   4.371  11.706   7.844  3.7541  0.0595  0.7547
  823MOL0     H 8609   4.431  11.680   7.676  2.1091  0.3339  1.2074
  823MOL0     H 8610   4.272  11.470   7.682 -3.3772 -0.7920 -1.0625
  823MOL0     H 8611   4.214  11.633   7.634  2.0828  0.4556 -0.3220
  823MOL0     H 8612   4.089  11.663   7.824 -0.4820  0.6881  3.9723
  823MOL0     H 8613   4.190  11.558   7.921  1.4283  2.0955 -1.4272
  823MOL0     H 8614   4.024  11.451   7.686 -4.3252 -0.9782 -0.1009
  823MOL0     H 8615   4.065  11.352   7.820 -1.4762  0.9964 -0.5697
  823MOL0     H 8616   3.898  11.590   7.835  1.1027  0.6097  1.3943
  823MOL0     H 8617   3.893  11.469   7.956 -0.8545  2.8131  0.3563
  823MOL0     H 8618   4.863  11.284   7.964  0.1196 -1.6552 -2.1884
  823MOL0     H 8619   5.076  11.185   7.975 -2.5299  0.1237 -0.3412
  823MOL0     H 8620   5.411  11.012   8.241  2.0295 -1.1692  1.5786
  823MOL0     H 8621   5.594  10.852   8.195 -1.0567  1.0548  2.4193
  823MOL0     H 8622   6.906  10.812   7.167  1.9795 -0.7512  0.4134
  823MOL0     H 8623   7.138  10.811   7.125 -2.0708  0.2699  1.6322
  823MOL0     H 8624   7.566  10.673   7.048  0.2082  0.2375  0.0039
  823MOL0     H 8625   7.805  10.769   7.057 -0.2434  0.3112  2.2776
  823MOL0     H 8626   7.875  11.145   6.790 -1.7224 -0.4495  2.4940
  823MOL0     H 8627   7.929  10.989   6.730 -0.0879  0.7615  0.0272
  823MOL0     H 8628   8.114  11.162   6.764 -1.0537  2.8386  1.0169
  823MOL0     H 8629   8.067  11.193   6.916 -1.3182  0.9903 -2.6913
  823MOL0     H 8630   8.111  10.933   6.973 -0.6122  0.5726 -0.5747
  823MOL0     H 8631   8.249  11.036   6.967 -0.7869 -2.0788  1.3947
  823MOL0     H 8632   8.292  10.836   6.826 -0.8814 -2.5599 -1.7375
  823MOL0     H 8633   8.137  10.825   6.765 -0.7070  0.4773  0.8289
  823MOL0     H 8634   8.304  11.062   6.469  0.1188  0.0848 -0.2557
  823MOL0     H 8635   7.668  11.090   6.812  2.1636 -0.4051 -1.4416
  823MOL0     H 8636   7.447  10.996   6.797 -0.4669  0.7244 -1.1090
  824MOL0     O 8637   0.592   2.834   7.770  0.7066 -0.4696  0.4243
  824MOL0     C 8638   0.617   2.955   7.774  0.7475  0.0491 -0.3461
  824MOL0     O 8639   0.526   3.058   7.784  0.3520 -0.8136 -0.2570
  824MOL0     C 8640   0.390   3.034   7.797 -0.2257  0.2504 -0.7505
  824MOL0     C 8641   0.313   2.921   7.763 -0.0012  0.0151  0.4204
  824MOL0     C 8642   0.173   2.932   7.780  0.4612  0.3160  0.1053
  824MOL0     C 8643   0.111   3.030   7.858 -0.1605  0.4698 -0.6250
  824MOL0     O 8644  -0.025   3.012   7.885  1.0766 -0.5285 -0.4825
  824MOL0     C 8645  -0.122   3.013   7.775 -0.8138 -0.3765 -0.6965
  824MOL0     C 8646  -0.192   3.145   7.773 -0.4688  0.5859 -0.2884
  824MOL0     C 8647  -0.292   3.157   7.888 -0.4294  0.1206 -0.3897
  824MOL0     C 8648  -0.366   3.288   7.885 -1.0982 -0.2742  0.6146
  824MOL0     C 8649  -0.474   3.296   7.997 -0.0310 -0.0559 -0.7132
  824MOL0     C 8650  -0.547   3.428   7.975  0.1228 -0.8069 -0.9621
  824MOL0     C 8651  -0.654   3.460   8.083  1.3057 -0.3458  0.4527
  824MOL0     C 8652  -0.777   3.374   8.053  0.8995 -0.2648 -0.1929
  824MOL0     N 8653  -0.892   3.441   8.136 -1.4925 -0.5538 -0.0419
  824MOL0     C 8654  -0.966   3.540   8.086  0.0463  0.5505 -0.5935
  824MOL0     C 8655  -1.025   3.602   8.189 -0.1770 -0.5344  0.4959
  824MOL0     C 8656  -1.132   3.709   8.198 -0.5894  0.0282  0.3880
  824MOL0     C 8657  -1.265   3.632   8.222  0.3102 -0.6500  0.7216
  824MOL0     C 8658  -1.386   3.725   8.191  1.2083  0.3441 -0.4205
  824MOL0     C 8659  -1.398   3.793   8.050  0.2630 -0.7199  0.9405
  824MOL0     O 8660  -1.347   3.923   8.060  0.2182  0.5250 -0.5484
  824MOL0     C 8661  -1.300   3.974   7.946 -0.3216  0.5014  0.4059
  824MOL0     C 8662  -1.211   4.079   7.965  0.8034 -0.1729 -0.1696
  824MOL0     C 8663  -1.141   4.141   7.856  0.5556  1.0617 -0.4263
  824MOL0     C 8664  -1.184   4.123   7.725  0.2177 -0.0444  0.1530
  824MOL0     C 8665  -1.108   4.188   7.613  0.7948 -1.3045 -0.5156
  824MOL0     O 8666  -1.174   4.178   7.498  0.0777  0.0147  0.2323
  824MOL0     C 8667  -1.114   4.221   7.376 -0.7203 -0.7935  0.0670
  824MOL0     C 8668  -1.111   4.360   7.349 -0.2319 -0.5042  0.4348
  824MOL0     C 8669  -1.056   4.407   7.229  0.1915  0.5557  0.6411
  824MOL0     C 8670  -0.996   4.321   7.137  0.4644 -0.5974  0.5488
  824MOL0     O 8671  -0.942   4.369   7.016  0.2008 -0.2471 -1.0267
  824MOL0     C 8672  -0.832   4.452   7.044 -0.2781  0.0191  0.6326
  824MOL0     C 8673  -0.747   4.446   6.927 -0.0783 -1.0389  0.8977
  824MOL0     C 8674  -0.707   4.297   6.911  0.3386 -0.1664  0.1364
  824MOL0     C 8675  -0.618   4.282   6.791  0.1559  0.7093 -0.4158
  824MOL0     C 8676  -0.563   4.134   6.794  0.2882 -0.4242  1.3134
  824MOL0     C 8677  -0.480   4.102   6.668  0.4313  0.4999 -0.4052
  824MOL0     C 8678  -0.415   3.969   6.686 -0.4784  0.7900  1.1081
  824MOL0     C 8679  -0.296   3.955   6.586  0.6596 -1.0949  0.5364
  824MOL0    Cl 8680  -0.347   4.018   6.423 -0.1325 -0.0878 -0.0017
  824MOL0     C 8681  -1.006   4.179   7.158  0.4969 -0.0373  0.5242
  824MOL0     C 8682  -1.072   4.131   7.273  1.2834  0.2092 -0.0225
  824MOL0     O 8683  -1.003   4.244   7.626 -0.4883  0.1936  0.0767
  824MOL0     C 8684  -1.293   4.027   7.703  0.4989 -0.2111 -1.0738
  824MOL0     C 8685  -1.339   3.953   7.807 -1.2209 -0.4947 -0.6136
  824MOL0     N 8686  -0.972   3.543   8.306  0.1437 -0.2067 -0.4054
  824MOL0     N 8687  -0.892   3.445   8.269  0.2481 -0.0909 -0.5594
  824MOL0     C 8688   0.186   3.139   7.896 -0.7644 -0.0349 -0.3957
  824MOL0     C 8689   0.323   3.141   7.862  0.8061 -0.3553 -0.3070
  824MOL0     C 8690   0.757   2.985   7.768  0.5829  0.8863  0.9398
  824MOL0     C 8691   0.804   3.103   7.832 -0.5275 -0.2304  0.0986
  824MOL0     C 8692   0.946   3.127   7.848 -0.7148 -0.0519  0.0304
  824MOL0     C 8693   1.037   3.040   7.795  0.3069 -1.3961  0.3307
  824MOL0     O 8694   1.169   3.078   7.825  0.4367 -0.8920 -0.2673
  824MOL0     C 8695   1.276   3.016   7.752  0.4505  0.4629 -0.0388
  824MOL0     C 8696   1.407   3.082   7.789  0.0588 -0.3549  0.5811
  824MOL0     C 8697   1.531   3.027   7.719 -0.0066 -0.2110 -0.6346
  824MOL0     C 8698   1.654   3.084   7.802  0.1934 -0.2248 -0.7037
  824MOL0     C 8699   1.782   3.033   7.747  0.6090  0.9004 -0.4707
  824MOL0     C 8700   1.884   2.968   7.710 -0.1355  0.8264 -0.2867
  824MOL0     C 8701   0.986   2.926   7.728  0.1077  0.7388 -0.2444
  824MOL0     C 8702   0.850   2.898   7.706 -1.4199  0.2641 -0.0391
  824MOL0     H 8703   0.350   2.833   7.713  2.8000 -1.8940  5.1400
  824MOL0     H 8704   0.101   2.858   7.747 -1.3201  3.3128 -3.5059
  824MOL0     H 8705  -0.193   2.930   7.785  1.6015 -2.9139 -2.8691
  824MOL0     H 8706  -0.065   3.001   7.682  0.0714 -0.6108 -0.1416
  824MOL0     H 8707  -0.240   3.161   7.676 -0.6967  1.5723 -0.0280
  824MOL0     H 8708  -0.118   3.225   7.785 -0.9765  0.8440  1.5298
  824MOL0     H 8709  -0.241   3.149   7.985 -1.2589 -0.1675  0.0260
  824MOL0     H 8710  -0.368   3.079   7.887 -1.9831  1.4445  2.2471
  824MOL0     H 8711  -0.293   3.366   7.911 -0.7638 -0.2437 -0.3474
  824MOL0     H 8712  -0.414   3.301   7.787  0.1091  1.2398  0.1727
  824MOL0     H 8713  -0.424   3.308   8.094 -1.1412  3.4805 -0.4441
  824MOL0     H 8714  -0.543   3.212   8.009 -1.6372  1.4425  1.3222
  824MOL0     H 8715  -0.593   3.419   7.877  0.0149 -0.9108 -0.9015
  824MOL0     H 8716  -0.475   3.510   7.979 -1.5595  0.7034 -0.0846
  824MOL0     H 8717  -0.613   3.425   8.178  0.6986 -1.7410  0.2294
  824MOL0     H 8718  -0.684   3.565   8.084  1.6247 -0.2579  2.1751
  824MOL0     H 8719  -0.756   3.276   8.096  0.2248  0.9962  3.3411
  824MOL0     H 8720  -0.809   3.381   7.949  0.9554  0.1986 -0.1829
  824MOL0     H 8721  -0.971   3.549   7.978 -1.0819  2.1491 -0.4387
  824MOL0     H 8722  -1.135   3.770   8.107 -0.0526  2.0067  1.6162
  824MOL0     H 8723  -1.111   3.779   8.280 -0.6857 -0.2051  0.6122
  824MOL0     H 8724  -1.270   3.599   8.326  1.5036  1.4543  1.4897
  824MOL0     H 8725  -1.267   3.546   8.154 -0.0247 -2.4855  2.9115
  824MOL0     H 8726  -1.478   3.671   8.216  1.2121  0.8193  0.6910
  824MOL0     H 8727  -1.383   3.814   8.254 -3.5295  1.2412 -1.1396
  824MOL0     H 8728  -1.497   3.774   8.007  0.3718  0.3786  0.1639
  824MOL0     H 8729  -1.326   3.741   7.986 -1.6938 -2.2056 -0.1572
  824MOL0     H 8730  -1.187   4.105   8.068 -0.9225  1.8038 -0.2088
  824MOL0     H 8731  -1.054   4.204   7.872  1.4749 -0.3816  0.4333
  824MOL0     H 8732  -1.143   4.420   7.434  0.5747 -1.2854  1.3171
  824MOL0     H 8733  -1.063   4.515   7.218  1.2419  0.6559  0.8649
  824MOL0     H 8734  -0.765   4.424   7.127  0.4960 -0.1599 -0.0371
  824MOL0     H 8735  -0.878   4.550   7.062  2.0723  1.5326 -0.9626
  824MOL0     H 8736  -0.661   4.510   6.949 -0.1168 -1.2165  1.5851
  824MOL0     H 8737  -0.786   4.485   6.832  6.6570 -0.1366 -2.0570
  824MOL0     H 8738  -0.787   4.224   6.892 -4.3540  4.3792  0.2339
  824MOL0     H 8739  -0.646   4.266   6.996 -0.4742  1.3109  1.2930
  824MOL0     H 8740  -0.673   4.296   6.698 -0.4314 -1.0892 -0.3833
  824MOL0     H 8741  -0.528   4.344   6.800  1.1826 -0.5557 -1.5111
  824MOL0     H 8742  -0.645   4.062   6.803  1.6457 -1.8475  3.2186
  824MOL0     H 8743  -0.501   4.123   6.884  0.7966 -5.0493  0.6472
  824MOL0     H 8744  -0.398   4.170   6.644  0.9329 -0.3423 -1.1708
  824MOL0     H 8745  -0.538   4.097   6.575 -1.4534 -0.6723  0.7607
  824MOL0     H 8746  -0.379   3.944   6.786  3.9828 -0.2970 -0.5418
  824MOL0     H 8747  -0.489   3.894   6.656  1.0898 -0.4824  0.2315
  824MOL0     H 8748  -0.265   3.850   6.584  3.8104 -0.2632  0.3037
  824MOL0     H 8749  -0.220   4.020   6.629  0.9627 -1.8842  1.2162
  824MOL0     H 8750  -0.968   4.114   7.080  0.3606 -1.0810  1.3085
  824MOL0     H 8751  -1.093   4.028   7.299 -0.3791  0.0631 -1.7377
  824MOL0     H 8752  -1.323   4.007   7.601  2.7278 -1.4997 -1.5503
  824MOL0     H 8753  -1.424   3.889   7.784 -1.2447 -0.4942 -0.5309
  824MOL0     H 8754   0.139   3.218   7.953 -0.8441 -0.9444  0.8377
  824MOL0     H 8755   0.384   3.228   7.884 -1.8560  1.9045 -1.2388
  824MOL0     H 8756   0.735   3.171   7.880 -0.0969  1.4288 -1.5431
  824MOL0     H 8757   0.974   3.228   7.873 -2.5067  0.1373  1.5003
  824MOL0     H 8758   1.284   3.031   7.644  3.8118  1.8644  0.3110
  824MOL0     H 8759   1.288   2.909   7.772  2.4716  0.8061  0.8551
  824MOL0     H 8760   1.399   3.190   7.773 -0.9312 -0.8818 -3.7110
  824MOL0     H 8761   1.423   3.058   7.894  2.5685 -2.0184 -0.1008
  824MOL0     H 8762   1.519   3.050   7.613  0.9462  0.6527 -0.5668
  824MOL0     H 8763   1.536   2.918   7.722 -0.9369 -0.2791 -1.0086
  824MOL0     H 8764   1.647   3.193   7.800 -1.0012 -0.1329  2.5968
  824MOL0     H 8765   1.655   3.060   7.908 -0.9998  3.6366  0.3223
  824MOL0     H 8766   1.973   2.912   7.691 -3.0513 -4.7852  0.4345
  824MOL0     H 8767   1.060   2.861   7.681  1.8021  2.1869  0.2974
  824MOL0     H 8768   0.829   2.800   7.664  2.3337 -2.0687  2.8492
  825MOL0     O 8769   6.424   3.132   0.080 -0.6329 -0.1259 -0.4565
  825MOL0     C 8770   6.519   3.055   0.097 -0.7243 -0.7251 -0.3367
  825MOL0     O 8771   6.522   2.932   0.052 -0.2138 -1.0265 -0.1357
  825MOL0     C 8772   6.397   2.881   0.010 -0.0407 -0.1191  0.0758
  825MOL0     C 8773   6.283   2.866   0.090 -0.1250  0.1548  0.5057
  825MOL0     C 8774   6.168   2.817   0.042  0.4037 -0.1736  0.7138
  825MOL0     C 8775   6.159   2.764  -0.086 -0.0547  0.0795  0.2117
  825MOL0     O 8776   6.053   2.704  -0.144 -0.1940  0.2057 -0.7373
  825MOL0     C 8777   5.951   2.656  -0.062  0.3636  0.6659 -0.4284
  825MOL0     C 8778   5.844   2.763  -0.024  0.1965  1.0831  0.1894
  825MOL0     C 8779   5.756   2.805  -0.140 -0.2250 -0.9208  0.3060
  825MOL0     C 8780   5.666   2.924  -0.106 -0.0330 -0.1567  0.4420
  825MOL0     C 8781   5.574   2.940  -0.224 -0.4132  0.2712  0.6181
  825MOL0     C 8782   5.476   3.043  -0.192  0.0489 -0.4561 -0.3807
  825MOL0     C 8783   5.373   3.062  -0.308 -0.1821  0.3776  0.2397
  825MOL0     C 8784   5.296   3.180  -0.297 -1.5181  0.0171 -0.2070
  825MOL0     N 8785   5.189   3.188  -0.398 -1.3351  0.6092 -0.7290
  825MOL0     C 8786   5.055   3.156  -0.371 -0.6380 -0.7640 -0.9492
  825MOL0     C 8787   4.988   3.180  -0.485 -1.4675  0.1595  0.1142
  825MOL0     C 8788   4.842   3.144  -0.518  0.2743 -1.1672 -0.4786
  825MOL0     C 8789   4.781   3.265  -0.591  1.1667 -1.0200 -0.1321
  825MOL0     C 8790   4.638   3.224  -0.651 -0.9982  0.1502  0.1524
  825MOL0     C 8791   4.634   3.200  -0.804 -0.2336  0.2124  0.4548
  825MOL0     O 8792   4.569   3.078  -0.829 -0.4876 -0.1122 -0.5347
  825MOL0     C 8793   4.429   3.073  -0.823  0.1704 -0.3534 -0.2049
  825MOL0     C 8794   4.343   3.184  -0.828 -1.1652 -0.1561  0.0608
  825MOL0     C 8795   4.200   3.174  -0.830 -0.4711 -0.5033  0.4874
  825MOL0     C 8796   4.140   3.047  -0.842 -0.1420 -0.3305  0.6918
  825MOL0     C 8797   3.990   3.035  -0.847  0.4564 -0.2503  0.2808
  825MOL0     O 8798   3.952   2.903  -0.820  0.0145 -0.3147 -0.2508
  825MOL0     C 8799   3.821   2.895  -0.798  0.7132 -0.0693  0.0816
  825MOL0     C 8800   3.769   2.887  -0.666 -0.6467 -0.4708  0.2729
  825MOL0     C 8801   3.633   2.870  -0.644  0.6351 -0.3990  0.7676
  825MOL0     C 8802   3.543   2.869  -0.757  0.7137 -0.2358 -0.1441
  825MOL0     O 8803   3.406   2.846  -0.742  0.1459  0.3831 -0.0789
  825MOL0     C 8804   3.318   2.945  -0.804  1.5215 -0.0286 -0.1956
  825MOL0     C 8805   3.204   2.872  -0.873  0.6022  0.5958  0.0343
  825MOL0     C 8806   3.087   2.959  -0.909  0.7284 -0.2844  0.3610
  825MOL0     C 8807   2.974   2.875  -0.989  0.1031  0.6733  0.1289
  825MOL0     C 8808   3.025   2.848  -1.131  0.2254 -0.6092  0.0686
  825MOL0     C 8809   2.916   2.785  -1.215 -0.4167 -0.3927  0.2458
  825MOL0     C 8810   2.968   2.750  -1.355 -0.0525 -0.5478 -0.3683
  825MOL0     C 8811   2.876   2.668  -1.447  0.4604 -0.2687 -0.3409
  825MOL0    Cl 8812   2.743   2.773  -1.494  0.0422  0.1621  0.1647
  825MOL0     C 8813   3.605   2.870  -0.884  0.5281 -0.3301 -0.5154
  825MOL0     C 8814   3.740   2.878  -0.901 -0.0318 -0.5663  0.4749
  825MOL0     O 8815   3.917   3.133  -0.876 -0.1180 -0.8681 -0.3308
  825MOL0     C 8816   4.228   2.936  -0.831  0.7149  0.2899 -0.4820
  825MOL0     C 8817   4.369   2.952  -0.819 -0.5005 -0.1935 -0.7371
  825MOL0     N 8818   5.079   3.224  -0.580 -1.0056  0.7302  0.1515
  825MOL0     N 8819   5.197   3.230  -0.527  1.0199  0.9261 -0.1865
  825MOL0     C 8820   6.273   2.772  -0.166 -0.6232  0.5059 -0.4662
  825MOL0     C 8821   6.395   2.832  -0.121  0.9053  0.1495 -0.0774
  825MOL0     C 8822   6.644   3.096   0.162 -0.5128 -0.1848 -1.6551
  825MOL0     C 8823   6.684   3.223   0.173  0.8252  0.2591 -0.6084
  825MOL0     C 8824   6.819   3.251   0.216 -1.3013  0.4959  0.1864
  825MOL0     C 8825   6.911   3.156   0.238  0.3002 -0.4648  0.0006
  825MOL0     O 8826   7.047   3.174   0.253  0.1760  0.0127  0.3703
  825MOL0     C 8827   7.105   3.308   0.231  0.2965 -0.0062 -0.3719
  825MOL0     C 8828   7.252   3.291   0.258 -0.0335 -0.1820 -0.2231
  825MOL0     C 8829   7.315   3.419   0.315  0.3635 -0.6529  0.0370
  825MOL0     C 8830   7.331   3.529   0.201 -0.0320 -0.1682 -0.2772
  825MOL0     C 8831   7.389   3.654   0.256  0.1875  0.2561  0.8382
  825MOL0     C 8832   7.434   3.759   0.305  0.0395  0.6122 -0.1277
  825MOL0     C 8833   6.866   3.026   0.238  0.0923 -0.4312  0.2736
  825MOL0     C 8834   6.737   2.995   0.200 -0.0673 -0.2781 -0.1583
  825MOL0     H 8835   6.297   2.887   0.195  1.3458  0.2260  0.3251
  825MOL0     H 8836   6.100   2.811   0.126 -0.6940  0.3710 -0.1072
  825MOL0     H 8837   5.992   2.594   0.019 -1.6083 -2.0945 -1.4329
  825MOL0     H 8838   5.907   2.574  -0.119  2.1946  0.4256 -1.5966
  825MOL0     H 8839   5.903   2.855  -0.015 -0.3832  1.6797 -1.6856
  825MOL0     H 8840   5.790   2.742   0.068  2.5734 -0.1409  1.4105
  825MOL0     H 8841   5.695   2.718  -0.165 -2.8955  0.3859  1.9384
  825MOL0     H 8842   5.822   2.837  -0.222 -0.5176  2.8675  1.3435
  825MOL0     H 8843   5.598   2.909  -0.021 -1.1785 -0.4953 -0.5193
  825MOL0     H 8844   5.729   3.010  -0.083 -1.5948  1.3997 -0.8112
  825MOL0     H 8845   5.527   2.847  -0.256 -0.9543  0.7725 -0.0834
  825MOL0     H 8846   5.643   2.970  -0.305  3.6978  1.2468  4.0976
  825MOL0     H 8847   5.528   3.133  -0.159 -1.0801  0.2595 -0.5003
  825MOL0     H 8848   5.418   3.007  -0.106  3.2995 -1.5617  1.5115
  825MOL0     H 8849   5.425   3.068  -0.404  2.2116 -2.3832  1.2012
  825MOL0     H 8850   5.308   2.975  -0.320  2.3306 -1.6753  0.5047
  825MOL0     H 8851   5.359   3.267  -0.319 -1.3643  0.3252  1.3406
  825MOL0     H 8852   5.265   3.190  -0.192 -0.5080 -1.6205  0.2692
  825MOL0     H 8853   5.013   3.119  -0.278  1.6661  0.4040  0.6368
  825MOL0     H 8854   4.793   3.136  -0.421  1.6473 -2.2709  0.1529
  825MOL0     H 8855   4.834   3.051  -0.574  0.8565 -1.9852  0.7527
  825MOL0     H 8856   4.843   3.312  -0.668 -2.6594  0.7573 -2.3879
  825MOL0     H 8857   4.760   3.346  -0.521 -0.1701 -0.4223 -1.1925
  825MOL0     H 8858   4.607   3.132  -0.601  0.0806  1.2628  3.0458
  825MOL0     H 8859   4.567   3.304  -0.629  0.6102  1.0311  2.4569
  825MOL0     H 8860   4.738   3.193  -0.839  1.2492  0.4802  4.3014
  825MOL0     H 8861   4.583   3.281  -0.855 -1.0884 -1.1595 -0.9538
  825MOL0     H 8862   4.383   3.284  -0.840  0.2163 -0.7476 -0.5377
  825MOL0     H 8863   4.151   3.271  -0.831 -0.2580 -0.3793  1.4321
  825MOL0     H 8864   3.845   2.873  -0.590  0.2793 -1.0729 -0.7221
  825MOL0     H 8865   3.589   2.884  -0.547 -0.2652 -0.6895  0.4064
  825MOL0     H 8866   3.355   3.015  -0.880 -3.2847  5.5710  1.9312
  825MOL0     H 8867   3.271   3.011  -0.731  1.1965  3.0465 -2.9283
  825MOL0     H 8868   3.155   2.796  -0.812  0.0625 -1.0234 -2.2581
  825MOL0     H 8869   3.254   2.815  -0.952  0.8844  0.6092  0.2041
  825MOL0     H 8870   3.118   3.049  -0.962 -2.1047 -1.0721 -2.9960
  825MOL0     H 8871   3.042   3.002  -0.819  0.4592  0.8625 -0.3132
  825MOL0     H 8872   2.957   2.777  -0.944 -0.2629  0.5172 -0.3431
  825MOL0     H 8873   2.884   2.937  -0.999  0.3248  1.3291  1.8307
  825MOL0     H 8874   3.114   2.784  -1.126 -0.2934 -1.2798  1.4366
  825MOL0     H 8875   3.056   2.940  -1.181 -2.5875  0.9029  0.9060
  825MOL0     H 8876   2.839   2.862  -1.227  1.7420  1.4128 -4.8097
  825MOL0     H 8877   2.874   2.695  -1.171  0.5467 -1.5537 -1.1294
  825MOL0     H 8878   2.986   2.844  -1.409 -1.7554  0.1008  0.1291
  825MOL0     H 8879   3.059   2.691  -1.345  0.0679 -0.1719  0.8936
  825MOL0     H 8880   2.853   2.572  -1.400  2.7092 -1.3583 -1.3131
  825MOL0     H 8881   2.929   2.643  -1.539 -1.4851  0.9784 -1.8849
  825MOL0     H 8882   3.537   2.861  -0.968  0.5071  2.0999 -0.8237
  825MOL0     H 8883   3.777   2.867  -1.003 -2.1690  2.6558 -0.8296
  825MOL0     H 8884   4.185   2.837  -0.840  1.2167  0.0110  0.1021
  825MOL0     H 8885   4.423   2.859  -0.803 -2.7573 -2.2176 -3.7949
  825MOL0     H 8886   6.273   2.724  -0.263  0.7598 -1.5114  0.4503
  825MOL0     H 8887   6.477   2.847  -0.190 -0.4046  1.1299 -1.5000
  825MOL0     H 8888   6.618   3.307   0.152  1.4342  0.7406 -0.6386
  825MOL0     H 8889   6.843   3.352   0.250  0.4878  0.5466 -1.1173
  825MOL0     H 8890   7.057   3.370   0.307  1.0875 -2.7139  2.5778
  825MOL0     H 8891   7.087   3.354   0.134 -2.1596  0.7717  0.3690
  825MOL0     H 8892   7.267   3.213   0.332 -0.7911  0.8086  1.0105
  825MOL0     H 8893   7.295   3.249   0.166 -2.7173  0.2960 -1.8216
  825MOL0     H 8894   7.411   3.389   0.360  1.3321  3.3568  1.0730
  825MOL0     H 8895   7.257   3.444   0.405 -1.1599 -3.8261  0.0939
  825MOL0     H 8896   7.387   3.498   0.112  0.8502  0.8060 -0.0729
  825MOL0     H 8897   7.233   3.545   0.154  0.3181 -0.7966 -1.2619
  825MOL0     H 8898   7.478   3.847   0.346 -0.6843  0.5827  0.7164
  825MOL0     H 8899   6.929   2.940   0.258  0.9967  0.1946  0.2102
  825MOL0     H 8900   6.717   2.888   0.195  2.5661 -1.0285  2.4253
  826MOL0     O 8901   0.206  10.878  11.193  0.2968 -0.5398 -0.4883
  826MOL0     C 8902   0.255  10.992  11.220  0.8951  0.8541 -0.6471
  826MOL0     O 8903   0.193  11.100  11.281  0.6033  0.4381  0.7113
  826MOL0     C 8904   0.054  11.101  11.299 -0.5042 -0.2474 -0.2962
  826MOL0     C 8905   0.003  11.223  11.363 -0.2314 -0.5150  0.4834
  826MOL0     C 8906  -0.129  11.246  11.377  0.3481 -0.2195 -0.6644
  826MOL0     C 8907  -0.220  11.156  11.331 -0.2015 -0.5738 -0.3777
  826MOL0     O 8908  -0.349  11.199  11.331  0.8190  0.1311  0.4847
  826MOL0     C 8909  -0.440  11.126  11.409  0.2746 -0.1749  0.2611
  826MOL0     C 8910  -0.583  11.138  11.343  0.3618  0.8260  0.1227
  826MOL0     C 8911  -0.632  11.280  11.336  0.2419 -0.2189 -0.6759
  826MOL0     C 8912  -0.711  11.322  11.455 -0.1086 -0.0937 -0.4881
  826MOL0     C 8913  -0.720  11.474  11.459 -0.3043  0.7028 -0.1392
  826MOL0     C 8914  -0.766  11.543  11.332  0.4594  0.8928 -0.6170
  826MOL0     C 8915  -0.753  11.696  11.346 -0.3432  1.0209 -0.2736
  826MOL0     C 8916  -0.853  11.766  11.261 -0.0439 -0.5824  0.5902
  826MOL0     N 8917  -0.771  11.884  11.206 -0.3341  0.0635  0.5103
  826MOL0     C 8918  -0.799  12.011  11.243 -0.5360  0.1584  0.5671
  826MOL0     C 8919  -0.720  12.084  11.158  0.4954 -0.5808 -0.2974
  826MOL0     C 8920  -0.695  12.229  11.158  0.0931 -0.4666  0.2840
  826MOL0     C 8921  -0.564  12.265  11.225 -0.7812  0.9261  0.4210
  826MOL0     C 8922  -0.561  12.422  11.233 -0.4079  0.6091  0.2276
  826MOL0     C 8923  -0.418  12.479  11.247  0.7949 -0.4572 -0.7239
  826MOL0     O 8924  -0.384  12.467  11.387  0.4740 -0.2565  0.3271
  826MOL0     C 8925  -0.264  12.411  11.419 -0.9653  0.1597 -0.1230
  826MOL0     C 8926  -0.243  12.362  11.557 -0.2817  1.3975  0.0259
  826MOL0     C 8927  -0.123  12.292  11.586  0.3563 -0.7145  0.1676
  826MOL0     C 8928  -0.023  12.290  11.498 -1.0475  0.3242  0.1612
  826MOL0     C 8929   0.105  12.217  11.538 -0.4146  0.0745  0.0438
  826MOL0     O 8930   0.196  12.197  11.431 -0.9440 -0.7905 -0.4982
  826MOL0     C 8931   0.297  12.113  11.467  0.4969  0.2934 -0.0152
  826MOL0     C 8932   0.299  11.981  11.412 -0.3967  0.0933  0.4045
  826MOL0     C 8933   0.405  11.896  11.448 -0.2151  0.2058 -0.0135
  826MOL0     C 8934   0.500  11.933  11.545 -0.0971  0.2821 -0.0260
  826MOL0     O 8935   0.601  11.838  11.579  0.6505  0.0775 -0.4563
  826MOL0     C 8936   0.657  11.852  11.709 -0.1137  0.1791 -0.0622
  826MOL0     C 8937   0.679  11.709  11.761 -0.4196 -0.1001  0.4442
  826MOL0     C 8938   0.758  11.703  11.895 -0.0977  0.6195 -0.4952
  826MOL0     C 8939   0.768  11.556  11.955 -0.5723  0.3172 -0.0358
  826MOL0     C 8940   0.795  11.568  12.105  0.3217 -0.1913  0.1636
  826MOL0     C 8941   0.928  11.634  12.138  0.4575 -0.2948  0.2132
  826MOL0     C 8942   0.978  11.601  12.272 -0.6218 -0.3738 -1.1109
  826MOL0     C 8943   1.093  11.697  12.323  1.5631  1.2513  0.3505
  826MOL0    Cl 8944   1.240  11.666  12.227 -0.7378 -0.3280 -0.1605
  826MOL0     C 8945   0.499  12.069  11.590 -0.3238  0.2760 -0.5775
  826MOL0     C 8946   0.402  12.154  11.554  0.2940 -0.6313  0.5155
  826MOL0     O 8947   0.113  12.170  11.652  0.4757  0.1065  0.7773
  826MOL0     C 8948  -0.038  12.345  11.371  0.1076 -0.3313 -0.6062
  826MOL0     C 8949  -0.153  12.406  11.330 -0.0280  1.0041  0.3869
  826MOL0     N 8950  -0.648  11.998  11.073  0.6075  0.1134  0.1758
  826MOL0     N 8951  -0.689  11.876  11.103  0.0493  0.5035 -0.0649
  826MOL0     C 8952  -0.173  11.035  11.284  0.5075 -0.6747  1.0780
  826MOL0     C 8953  -0.037  11.001  11.276  0.3389 -0.1727 -0.1558
  826MOL0     C 8954   0.395  11.023  11.179 -0.6162  0.0167 -0.9370
  826MOL0     C 8955   0.472  10.952  11.091  0.2589 -0.1566 -0.0946
  826MOL0     C 8956   0.597  10.985  11.046  0.5197  0.1771  0.1178
  826MOL0     C 8957   0.652  11.107  11.093 -0.3485  0.3178 -0.2872
  826MOL0     O 8958   0.753  11.182  11.030  0.6615  0.7797  0.0690
  826MOL0     C 8959   0.848  11.112  10.948 -0.4441  0.5672  0.6826
  826MOL0     C 8960   0.980  11.184  10.976  0.6040 -0.4940  0.6547
  826MOL0     C 8961   1.068  11.182  10.854 -0.0876  0.4341 -0.6061
  826MOL0     C 8962   1.188  11.283  10.889 -1.6104  0.1643 -0.4456
  826MOL0     C 8963   1.273  11.220  10.996  0.6509  0.5112  1.0158
  826MOL0     C 8964   1.350  11.184  11.084  0.5022 -0.7969 -0.7468
  826MOL0     C 8965   0.594  11.172  11.199 -0.7729  0.3822 -0.3575
  826MOL0     C 8966   0.466  11.136  11.238 -0.2809  0.4854  0.6874
  826MOL0     H 8967   0.081  11.294  11.388 -0.5065 -0.1084  0.1838
  826MOL0     H 8968  -0.176  11.332  11.424  0.8370 -1.3095  1.9793
  826MOL0     H 8969  -0.443  11.172  11.508 -2.7083 -0.8442  0.5724
  826MOL0     H 8970  -0.415  11.020  11.422  0.0693 -0.1472  0.8912
  826MOL0     H 8971  -0.641  11.066  11.402  1.2941 -0.3033 -0.2998
  826MOL0     H 8972  -0.566  11.104  11.241  1.9524  3.4435 -0.5583
  826MOL0     H 8973  -0.692  11.268  11.245  1.3312 -2.0385 -1.1800
  826MOL0     H 8974  -0.549  11.351  11.330 -1.2059  1.6109 -0.2418
  826MOL0     H 8975  -0.811  11.281  11.471  0.8205 -1.2188  3.8769
  826MOL0     H 8976  -0.659  11.297  11.548 -2.2895  3.5067  1.9800
  826MOL0     H 8977  -0.624  11.512  11.493 -0.7952  0.8443  1.1397
  826MOL0     H 8978  -0.792  11.498  11.538 -1.8791  0.7968 -1.5477
  826MOL0     H 8979  -0.870  11.509  11.323  0.4494 -0.3272  2.8069
  826MOL0     H 8980  -0.703  11.500  11.254  1.4100 -2.1275  1.6361
  826MOL0     H 8981  -0.747  11.736  11.448 -0.2695 -0.8130  0.4725
  826MOL0     H 8982  -0.652  11.708  11.305 -0.8787  0.4259 -1.8650
  826MOL0     H 8983  -0.938  11.801  11.319  0.4051  0.4707  0.6337
  826MOL0     H 8984  -0.896  11.708  11.179  0.1293 -0.5218  0.4541
  826MOL0     H 8985  -0.854  12.040  11.332 -0.9808  0.8412  0.0806
  826MOL0     H 8986  -0.770  12.279  11.221  0.3744  0.4510 -0.0985
  826MOL0     H 8987  -0.702  12.267  11.056  0.4106  2.1871  1.1734
  826MOL0     H 8988  -0.492  12.224  11.153 -3.6381 -2.3931 -0.8252
  826MOL0     H 8989  -0.540  12.221  11.322  3.5098  1.9874  0.0477
  826MOL0     H 8990  -0.599  12.464  11.139  1.0230  0.8286 -0.2811
  826MOL0     H 8991  -0.617  12.461  11.318  3.7610  1.3136  2.9514
  826MOL0     H 8992  -0.427  12.584  11.220 -4.2354 -0.2261  0.7598
  826MOL0     H 8993  -0.353  12.438  11.170 -0.5415 -2.6158 -0.7956
  826MOL0     H 8994  -0.320  12.383  11.631  0.6111  2.6168  0.6476
  826MOL0     H 8995  -0.111  12.249  11.685  1.1284 -2.2674 -0.5592
  826MOL0     H 8996   0.234  11.934  11.339  1.7457  0.5788 -2.0015
  826MOL0     H 8997   0.412  11.795  11.408  0.2312 -0.4474  1.6107
  826MOL0     H 8998   0.584  11.903  11.773 -1.3003  0.4279 -1.5779
  826MOL0     H 8999   0.749  11.911  11.712 -0.0463  0.2662 -2.4032
  826MOL0     H 9000   0.740  11.659  11.686  0.3983  1.5819 -0.0724
  826MOL0     H 9001   0.591  11.646  11.773  1.3134 -2.5769  0.8796
  826MOL0     H 9002   0.700  11.752  11.973  2.2113 -0.2284  1.9193
  826MOL0     H 9003   0.847  11.764  11.914 -0.8869  1.3634  0.9442
  826MOL0     H 9004   0.677  11.498  11.937 -0.3592  0.0628 -0.3076
  826MOL0     H 9005   0.846  11.493  11.911 -1.5271  0.0749 -1.4566
  826MOL0     H 9006   0.792  11.472  12.158  3.2559  0.8778  2.5669
  826MOL0     H 9007   0.712  11.623  12.152 -0.4845 -1.9179  0.8565
  826MOL0     H 9008   0.917  11.742  12.128 -1.9423 -0.4809  0.2291
  826MOL0     H 9009   1.002  11.596  12.068  0.2492 -1.5833  0.6538
  826MOL0     H 9010   0.895  11.592  12.343  0.8830 -1.6685  0.5851
  826MOL0     H 9011   1.023  11.502  12.269 -2.1224 -1.2332  1.3833
  826MOL0     H 9012   1.111  11.660  12.424  2.2523 -3.3705 -1.2173
  826MOL0     H 9013   1.054  11.799  12.318 -1.6607  0.1221 -0.2518
  826MOL0     H 9014   0.585  12.102  11.648  1.7130 -2.0100 -2.1391
  826MOL0     H 9015   0.388  12.252  11.598  1.3553  0.7862 -2.0474
  826MOL0     H 9016   0.029  12.309  11.293  1.0683  2.2249 -1.0619
  826MOL0     H 9017  -0.150  12.423  11.223  0.5394 -2.2057 -0.2053
  826MOL0     H 9018  -0.234  10.955  11.244 -1.1865  0.7851  0.6090
  826MOL0     H 9019  -0.011  10.905  11.231  0.8486 -0.3472  0.4921
  826MOL0     H 9020   0.414  10.869  11.050  1.6680 -1.2354  0.0145
  826MOL0     H 9021   0.626  10.941  10.951  0.0779 -0.1902  0.1483
  826MOL0     H 9022   0.825  11.118  10.842  1.0252  0.2863  0.3335
  826MOL0     H 9023   0.861  11.004  10.962  1.6952  0.1182 -3.4303
  826MOL0     H 9024   0.950  11.288  10.991 -0.8066 -0.8839  0.6375
  826MOL0     H 9025   1.026  11.153  11.070 -2.3601  0.3838  2.5327
  826MOL0     H 9026   1.007  11.208  10.767 -0.1722 -3.0355 -1.7420
  826MOL0     H 9027   1.109  11.082  10.835  1.4084  1.1048 -1.0932
  826MOL0     H 9028   1.256  11.282  10.803 -0.1125 -0.0619  0.7017
  826MOL0     H 9029   1.170  11.387  10.918  0.2670  0.1723  0.8587
  826MOL0     H 9030   1.405  11.157  11.171  2.9400 -1.6594 -2.4465
  826MOL0     H 9031   0.644  11.259  11.241  0.6898 -0.2995 -0.6146
  826MOL0     H 9032   0.419  11.200  11.312 -3.9117 -0.8805 -0.1947
  827MOL0     O 9033   0.141   0.233   7.043 -0.6628 -0.7366 -0.2768
  827MOL0     C 9034   0.188   0.303   6.952  1.1951  0.4146  0.3629
  827MOL0     O 9035   0.116   0.363   6.849 -0.5416  0.2186 -0.3715
  827MOL0     C 9036  -0.021   0.367   6.849  1.4511  0.5504  0.3751
  827MOL0     C 9037  -0.095   0.488   6.881 -0.3961  0.2089  0.6681
  827MOL0     C 9038  -0.229   0.478   6.906 -0.5383 -0.2074  0.0585
  827MOL0     C 9039  -0.298   0.355   6.899  0.7048 -0.6415 -0.6361
  827MOL0     O 9040  -0.433   0.355   6.942  0.4728  0.4687 -0.3058
  827MOL0     C 9041  -0.523   0.239   6.923  0.7187 -0.3670  0.6371
  827MOL0     C 9042  -0.659   0.278   6.981  0.8127  0.8984  0.3509
  827MOL0     C 9043  -0.762   0.297   6.875  0.6133 -0.5127  0.7624
  827MOL0     C 9044  -0.827   0.168   6.820  0.6500 -0.1226 -0.4589
  827MOL0     C 9045  -0.918   0.189   6.708 -0.0440 -0.2736  0.9213
  827MOL0     C 9046  -1.038   0.280   6.731  0.2349 -0.6084  0.0813
  827MOL0     C 9047  -1.121   0.245   6.855 -0.2958 -0.1731 -0.8179
  827MOL0     C 9048  -1.243   0.321   6.862 -0.2770 -1.0038  0.1325
  827MOL0     N 9049  -1.335   0.291   6.747  0.5826  0.2216 -0.0340
  827MOL0     C 9050  -1.405   0.174   6.709 -0.3031  0.4350  0.7869
  827MOL0     C 9051  -1.471   0.200   6.592  0.5147 -0.2779  0.1751
  827MOL0     C 9052  -1.566   0.115   6.511 -0.4616 -0.0157  0.2885
  827MOL0     C 9053  -1.495  -0.003   6.457  0.7170  1.4514 -0.2041
  827MOL0     C 9054  -1.593  -0.104   6.392  0.9845  0.1762 -0.1797
  827MOL0     C 9055  -1.543  -0.242   6.375 -0.6031  0.4526  0.4953
  827MOL0     O 9056  -1.426  -0.240   6.293  0.1327  0.4242  0.4338
  827MOL0     C 9057  -1.327  -0.338   6.298 -0.3037 -0.4244 -0.7955
  827MOL0     C 9058  -1.194  -0.302   6.262 -0.1153  1.2400  0.0192
  827MOL0     C 9059  -1.090  -0.397   6.256 -0.1102 -0.1414 -0.0467
  827MOL0     C 9060  -1.125  -0.537   6.277  0.1984 -0.1652 -0.0670
  827MOL0     C 9061  -1.022  -0.640   6.246  0.6146 -0.3752  0.8955
  827MOL0     O 9062  -0.888  -0.602   6.254  0.3256 -0.0882  0.1236
  827MOL0     C 9063  -0.775  -0.671   6.225 -0.3274 -0.2439 -0.0507
  827MOL0     C 9064  -0.664  -0.585   6.198  0.4589 -0.2001 -0.0250
  827MOL0     C 9065  -0.527  -0.636   6.174  0.9853  0.5271 -0.3654
  827MOL0     C 9066  -0.520  -0.775   6.165 -0.1051  0.0421  0.3712
  827MOL0     O 9067  -0.405  -0.844   6.135 -0.3477  0.0833  0.1502
  827MOL0     C 9068  -0.278  -0.776   6.109  0.1200  0.5588 -0.2629
  827MOL0     C 9069  -0.173  -0.891   6.088 -0.0960  0.4096 -0.1806
  827MOL0     C 9070  -0.037  -0.823   6.103 -0.3147  0.5523  1.0193
  827MOL0     C 9071   0.081  -0.911   6.077  0.4069 -0.2438  0.4521
  827MOL0     C 9072   0.208  -0.835   6.079 -0.6882  0.5765 -0.1412
  827MOL0     C 9073   0.336  -0.918   6.097  0.7252 -0.5953 -0.3442
  827MOL0     C 9074   0.461  -0.822   6.104  1.2967  0.0766  0.1008
  827MOL0     C 9075   0.589  -0.899   6.063  0.2726 -0.1216  0.0870
  827MOL0    Cl 9076   0.617  -1.052   6.140 -0.1673 -0.4946  0.2848
  827MOL0     C 9077  -0.630  -0.857   6.186  0.7619 -0.0548 -0.8982
  827MOL0     C 9078  -0.759  -0.806   6.219 -0.3350 -0.3627  0.3285
  827MOL0     O 9079  -1.056  -0.751   6.211  0.3555 -0.4920  0.2132
  827MOL0     C 9080  -1.258  -0.576   6.304  0.2946  0.1309  0.0873
  827MOL0     C 9081  -1.346  -0.477   6.329 -0.4688  1.2918  0.2996
  827MOL0     N 9082  -1.440   0.327   6.557 -0.5714 -0.1807 -0.3673
  827MOL0     N 9083  -1.360   0.378   6.643 -0.4298 -0.6071  0.2299
  827MOL0     C 9084  -0.229   0.242   6.857 -0.5737 -0.0141 -0.2995
  827MOL0     C 9085  -0.094   0.243   6.829 -0.0731  0.5809  0.9030
  827MOL0     C 9086   0.331   0.325   6.966  0.4522  0.2625  0.9664
  827MOL0     C 9087   0.410   0.273   7.069 -0.1603 -0.2848 -0.3500
  827MOL0     C 9088   0.545   0.307   7.066  0.7491 -0.2465  0.2429
  827MOL0     C 9089   0.604   0.384   6.975  0.5670 -1.1099 -0.1878
  827MOL0     O 9090   0.735   0.424   6.975  0.4031 -0.2232  0.8736
  827MOL0     C 9091   0.786   0.466   7.095  0.2212 -0.2668  0.3798
  827MOL0     C 9092   0.935   0.440   7.096  0.3747 -0.0509  0.5395
  827MOL0     C 9093   0.994   0.514   7.222  0.4792  0.0913 -0.0467
  827MOL0     C 9094   0.995   0.660   7.223  0.0542  0.0218  0.0138
  827MOL0     C 9095   1.040   0.715   7.348 -0.5250 -0.3169 -0.4704
  827MOL0     C 9096   1.055   0.740   7.469  0.0076  0.2987 -0.1848
  827MOL0     C 9097   0.523   0.441   6.871 -0.8631 -1.3136  0.0133
  827MOL0     C 9098   0.390   0.415   6.874 -0.1736  0.0667  1.2073
  827MOL0     H 9099  -0.044   0.578   6.914 -2.5288  0.7502  2.8495
  827MOL0     H 9100  -0.279   0.568   6.941  0.0840  0.1322  0.0762
  827MOL0     H 9101  -0.491   0.150   6.978  0.1982  0.1854  1.8737
  827MOL0     H 9102  -0.531   0.224   6.816  2.1996  0.2495  0.4071
  827MOL0     H 9103  -0.646   0.370   7.039  2.2350  0.0046  1.5096
  827MOL0     H 9104  -0.691   0.196   7.045 -1.4805 -0.1207 -1.9342
  827MOL0     H 9105  -0.718   0.346   6.787 -1.6625 -0.7571 -0.5966
  827MOL0     H 9106  -0.835   0.363   6.922 -0.0133  0.3806 -1.3229
  827MOL0     H 9107  -0.753   0.098   6.782  0.9667 -1.1804  1.9323
  827MOL0     H 9108  -0.874   0.125   6.909  0.7394  2.0776  0.7313
  827MOL0     H 9109  -0.952   0.094   6.668  0.9338  0.2278 -1.2398
  827MOL0     H 9110  -0.865   0.231   6.622  0.7085  2.2416  2.5019
  827MOL0     H 9111  -1.095   0.280   6.637  1.1420  0.4279 -0.4931
  827MOL0     H 9112  -1.002   0.383   6.741 -3.6335  0.9960 -0.5222
  827MOL0     H 9113  -1.145   0.138   6.863 -3.5482  0.5740  1.6050
  827MOL0     H 9114  -1.067   0.264   6.948  0.2222  0.1989 -1.1904
  827MOL0     H 9115  -1.210   0.425   6.853 -0.9784 -0.8762 -1.2299
  827MOL0     H 9116  -1.300   0.314   6.956  0.4819  2.2178  0.9742
  827MOL0     H 9117  -1.424   0.083   6.765  0.7193 -0.8525 -0.8369
  827MOL0     H 9118  -1.609   0.171   6.427  1.8897  0.0195 -0.9819
  827MOL0     H 9119  -1.629   0.077   6.591  1.4716 -1.8376  1.0346
  827MOL0     H 9120  -1.459  -0.054   6.548 -1.9297  1.3865  0.8971
  827MOL0     H 9121  -1.414   0.019   6.387 -0.2751  3.0952 -0.8824
  827MOL0     H 9122  -1.686  -0.098   6.450  0.3269  1.5928 -1.3020
  827MOL0     H 9123  -1.615  -0.066   6.292 -1.7892  2.3725  1.1164
  827MOL0     H 9124  -1.621  -0.306   6.332  0.2750  0.1113 -0.6272
  827MOL0     H 9125  -1.507  -0.275   6.473  0.1726  0.0194  0.0780
  827MOL0     H 9126  -1.163  -0.203   6.232 -0.5576  0.4063 -3.7279
  827MOL0     H 9127  -0.994  -0.356   6.223 -0.4636  0.8464  0.1152
  827MOL0     H 9128  -0.678  -0.479   6.217 -0.4011 -0.7578  2.9141
  827MOL0     H 9129  -0.440  -0.576   6.153  1.8671 -1.0467 -1.4025
  827MOL0     H 9130  -0.248  -0.717   6.195 -3.3338  1.5681  0.3878
  827MOL0     H 9131  -0.305  -0.713   6.024 -0.1498  1.7120  0.6527
  827MOL0     H 9132  -0.184  -0.930   5.986  2.4243  1.5593 -0.9859
  827MOL0     H 9133  -0.191  -0.972   6.159 -1.0970 -0.2497 -1.1552
  827MOL0     H 9134  -0.030  -0.790   6.207 -1.3395  2.1171  0.6437
  827MOL0     H 9135  -0.042  -0.742   6.029 -1.9354 -3.1951 -3.4676
  827MOL0     H 9136   0.089  -0.987   6.156 -1.6088 -2.4398 -1.3033
  827MOL0     H 9137   0.071  -0.965   5.982  1.0778  0.7326 -0.1963
  827MOL0     H 9138   0.202  -0.761   6.160  2.5592  0.3802  0.3922
  827MOL0     H 9139   0.216  -0.784   5.982 -0.0800 -0.2837 -0.5566
  827MOL0     H 9140   0.345  -1.001   6.026  0.0642 -0.5159 -0.5262
  827MOL0     H 9141   0.333  -0.965   6.195 -0.0543  2.5957  1.3125
  827MOL0     H 9142   0.432  -0.736   6.042  0.9592  0.9127  1.3879
  827MOL0     H 9143   0.470  -0.783   6.205 -0.8011  1.6453 -0.2559
  827MOL0     H 9144   0.664  -0.820   6.064 -1.7736  1.9410 -0.2200
  827MOL0     H 9145   0.594  -0.916   5.955  4.1684 -0.6926  0.2119
  827MOL0     H 9146  -0.598  -0.960   6.176 -0.5330 -0.4282 -1.4327
  827MOL0     H 9147  -0.848  -0.865   6.233 -1.4744  0.9771 -0.9151
  827MOL0     H 9148  -1.275  -0.682   6.323 -0.1712  0.2278  0.2178
  827MOL0     H 9149  -1.442  -0.525   6.343  0.1547  0.3831  1.6995
  827MOL0     H 9150  -0.291   0.153   6.854 -0.8167  0.0143  2.0112
  827MOL0     H 9151  -0.049   0.153   6.788 -2.2868  0.7440 -2.2303
  827MOL0     H 9152   0.361   0.214   7.145 -1.1383  2.3186  1.1681
  827MOL0     H 9153   0.596   0.264   7.152  1.1516  2.5102  1.4790
  827MOL0     H 9154   0.743   0.419   7.184 -0.0014 -0.5396  0.1350
  827MOL0     H 9155   0.764   0.573   7.091  1.4917 -0.0169 -0.5447
  827MOL0     H 9156   0.961   0.335   7.112 -0.2398 -0.2718  0.1424
  827MOL0     H 9157   0.980   0.472   7.001  1.3641  0.5986  1.2127
  827MOL0     H 9158   1.100   0.485   7.224  0.0559 -1.5233  0.2912
  827MOL0     H 9159   0.949   0.476   7.314  0.9254 -0.8379 -0.2004
  827MOL0     H 9160   1.057   0.698   7.141  1.5242 -0.1524  1.0076
  827MOL0     H 9161   0.890   0.689   7.214 -0.1826 -1.0997 -1.0906
  827MOL0     H 9162   1.048   0.784   7.566 -2.8409 -0.1201 -0.1313
  827MOL0     H 9163   0.578   0.496   6.796  1.8612 -0.8593  2.2204
  827MOL0     H 9164   0.331   0.472   6.803  0.0083 -2.4232 -1.1326
  828MOL0     O 9165   0.834   3.146  10.005  0.2146 -0.7892 -0.7505
  828MOL0     C 9166   0.873   3.036  10.053  0.3347  0.0229 -0.4016
  828MOL0     O 9167   0.800   2.922  10.059  0.3115 -0.1756  0.2941
  828MOL0     C 9168   0.681   2.926   9.989 -0.1770  0.0943 -0.5978
  828MOL0     C 9169   0.670   2.948   9.851 -0.5403 -0.8309  0.6031
  828MOL0     C 9170   0.550   2.943   9.781 -0.8172 -0.1455 -0.5018
  828MOL0     C 9171   0.431   2.944   9.855 -0.2947  0.5164 -0.1941
  828MOL0     O 9172   0.323   2.931   9.777  0.1189 -0.4997 -0.7872
  828MOL0     C 9173   0.193   2.985   9.819  0.3874  0.3837  0.2963
  828MOL0     C 9174   0.082   2.977   9.719 -0.7236 -0.0222  1.1279
  828MOL0     C 9175  -0.048   3.046   9.766 -0.8429 -0.6947  0.8798
  828MOL0     C 9176  -0.160   3.033   9.656  0.9319 -0.0492  0.1661
  828MOL0     C 9177  -0.284   3.076   9.731  0.3202  0.2379 -1.0920
  828MOL0     C 9178  -0.401   3.012   9.680 -0.0969  0.8581  0.1929
  828MOL0     C 9179  -0.529   3.067   9.745  0.1988  0.2408 -0.2358
  828MOL0     C 9180  -0.619   3.134   9.647 -1.1602  1.9001  0.1740
  828MOL0     N 9181  -0.726   3.216   9.694  0.2420 -0.6163  0.1263
  828MOL0     C 9182  -0.826   3.164   9.761  0.1138  0.8290 -0.6410
  828MOL0     C 9183  -0.911   3.266   9.783  0.0587 -0.1611  0.1893
  828MOL0     C 9184  -1.042   3.261   9.858  0.6293  0.0181 -0.3310
  828MOL0     C 9185  -1.144   3.327   9.761 -0.3463  0.4506  0.1278
  828MOL0     C 9186  -1.282   3.331   9.828 -0.5153 -0.7430 -0.4812
  828MOL0     C 9187  -1.385   3.378   9.727 -0.5726  0.5613 -1.2823
  828MOL0     O 9188  -1.490   3.447   9.800  0.0130  0.0376  0.4593
  828MOL0     C 9189  -1.592   3.520   9.739 -0.3942  0.9130 -0.3944
  828MOL0     C 9190  -1.708   3.530   9.817  0.5153  0.5610 -0.1298
  828MOL0     C 9191  -1.812   3.605   9.776  0.6915  0.7471 -0.2286
  828MOL0     C 9192  -1.811   3.664   9.645  0.5365 -0.1503  0.0418
  828MOL0     C 9193  -1.938   3.721   9.595  0.4801 -0.6908 -0.9754
  828MOL0     O 9194  -1.959   3.754   9.458 -0.2613 -0.6167  0.1422
  828MOL0     C 9195  -2.091   3.798   9.429  0.2188  0.3527  0.0719
  828MOL0     C 9196  -2.207   3.722   9.453  0.7388 -0.3997 -0.3264
  828MOL0     C 9197  -2.326   3.771   9.404 -0.1705  0.2440 -0.6031
  828MOL0     C 9198  -2.341   3.893   9.341 -1.0859  0.2218 -0.6343
  828MOL0     O 9199  -2.470   3.929   9.297  0.3434  0.1142 -0.0476
  828MOL0     C 9200  -2.492   4.023   9.185 -0.4896  0.4803 -0.1807
  828MOL0     C 9201  -2.646   4.056   9.161 -0.1567 -0.1275 -0.2535
  828MOL0     C 9202  -2.698   4.204   9.142  1.0881 -0.0776  0.1982
  828MOL0     C 9203  -2.856   4.205   9.134 -0.0976  0.4376 -0.1707
  828MOL0     C 9204  -2.933   4.341   9.126  0.0397  0.6105  0.3717
  828MOL0     C 9205  -3.072   4.323   9.084  0.0097 -0.9800 -0.3393
  828MOL0     C 9206  -3.115   4.470   9.052 -0.6793  0.5654 -0.2526
  828MOL0     C 9207  -3.269   4.485   9.070 -0.3388  0.1320 -0.0796
  828MOL0    Cl 9208  -3.315   4.562   9.223 -0.5254  0.0026  0.3635
  828MOL0     C 9209  -2.223   3.971   9.325  1.0943  0.0365 -0.3936
  828MOL0     C 9210  -2.102   3.917   9.369 -0.1650 -0.2692 -0.6440
  828MOL0     O 9211  -2.018   3.754   9.684 -0.0810 -0.0734 -0.0608
  828MOL0     C 9212  -1.700   3.651   9.562 -0.1684 -0.8476 -0.0610
  828MOL0     C 9213  -1.580   3.586   9.607 -0.4901 -0.9688 -0.2221
  828MOL0     N 9214  -0.850   3.379   9.740 -0.0763 -0.1094  0.5874
  828MOL0     N 9215  -0.733   3.353   9.687  0.7228  0.6139 -0.0276
  828MOL0     C 9216   0.434   2.938   9.994 -0.2465  0.6887  0.2270
  828MOL0     C 9217   0.557   2.916  10.055 -0.7042 -0.5957  0.5368
  828MOL0     C 9218   1.019   3.036  10.097 -0.0642  0.1710 -1.2523
  828MOL0     C 9219   1.095   3.156  10.103  0.1454  0.5821 -0.5746
  828MOL0     C 9220   1.229   3.152  10.149  0.2968 -0.6016 -0.8075
  828MOL0     C 9221   1.296   3.035  10.190  0.3299  0.0218 -1.2946
  828MOL0     O 9222   1.428   3.016  10.218  0.0966 -0.1676 -0.0283
  828MOL0     C 9223   1.518   3.119  10.175 -0.1899  0.0231 -0.6781
  828MOL0     C 9224   1.658   3.073  10.220  0.9226 -0.0160 -0.1740
  828MOL0     C 9225   1.701   2.956  10.134 -0.3260  0.5929 -0.1260
  828MOL0     C 9226   1.849   2.921  10.161  0.4609  0.5985 -0.6462
  828MOL0     C 9227   1.870   2.880  10.299  0.3619  0.0127 -0.0785
  828MOL0     C 9228   1.880   2.866  10.425 -0.0991  0.2491  0.3657
  828MOL0     C 9229   1.223   2.920  10.188  0.4313 -0.5335 -0.0768
  828MOL0     C 9230   1.083   2.922  10.147 -0.2476  0.4355 -0.0561
  828MOL0     H 9231   0.766   2.957   9.801 -0.7729 -0.6240  0.1842
  828MOL0     H 9232   0.544   2.956   9.673  1.5533 -0.6335 -0.7299
  828MOL0     H 9233   0.197   3.089   9.851  0.0403  0.7258 -0.7370
  828MOL0     H 9234   0.151   2.924   9.900 -0.8821  0.2914 -0.4137
  828MOL0     H 9235   0.086   2.871   9.693  0.8922  0.8782 -3.1357
  828MOL0     H 9236   0.119   3.030   9.631 -0.3383  0.5452  1.6258
  828MOL0     H 9237  -0.025   3.152   9.780 -1.2210 -0.4299 -0.3578
  828MOL0     H 9238  -0.074   2.986   9.854 -1.2914  0.8008  1.8035
  828MOL0     H 9239  -0.150   3.094   9.565 -1.5669 -0.7112 -0.6523
  828MOL0     H 9240  -0.175   2.931   9.618 -0.9763  0.6961 -1.2632
  828MOL0     H 9241  -0.292   3.185   9.737  0.6671  0.1883  2.5402
  828MOL0     H 9242  -0.277   3.042   9.835  0.6665 -3.8066 -2.2801
  828MOL0     H 9243  -0.407   2.903   9.691 -1.0120  0.9837  1.1480
  828MOL0     H 9244  -0.409   3.032   9.573  1.4244 -1.8860 -0.5358
  828MOL0     H 9245  -0.585   2.992   9.802  3.2873  0.6963  3.8586
  828MOL0     H 9246  -0.488   3.140   9.815 -1.9872  3.3798 -1.9730
  828MOL0     H 9247  -0.646   3.059   9.571  2.2437  0.9859 -0.2654
  828MOL0     H 9248  -0.548   3.204   9.602 -1.0225  0.7055 -1.5671
  828MOL0     H 9249  -0.838   3.068   9.810  2.5367  1.8912  2.4043
  828MOL0     H 9250  -1.030   3.320   9.949  0.8376  2.9972 -2.1384
  828MOL0     H 9251  -1.062   3.157   9.885  1.7005  0.1696  1.1490
  828MOL0     H 9252  -1.157   3.262   9.673 -1.1069  1.7112 -0.7307
  828MOL0     H 9253  -1.114   3.431   9.743 -2.3746  2.1400  5.0395
  828MOL0     H 9254  -1.294   3.236   9.881  5.8876  0.1102  3.5802
  828MOL0     H 9255  -1.271   3.403   9.910  0.5589 -1.2324 -0.1733
  828MOL0     H 9256  -1.430   3.298   9.668 -2.8509  0.3931  0.5637
  828MOL0     H 9257  -1.341   3.455   9.662  0.1971  2.2751  1.1443
  828MOL0     H 9258  -1.706   3.482   9.914  1.1294 -0.6215 -0.6982
  828MOL0     H 9259  -1.899   3.611   9.841 -0.8044 -1.1122 -1.9151
  828MOL0     H 9260  -2.204   3.622   9.494 -2.6945 -1.3306 -2.0343
  828MOL0     H 9261  -2.415   3.710   9.417 -2.4041  2.9625 -2.0437
  828MOL0     H 9262  -2.456   3.962   9.102  4.0586  0.3819  1.5794
  828MOL0     H 9263  -2.426   4.107   9.208 -1.1872  1.4342 -1.5577
  828MOL0     H 9264  -2.701   4.020   9.249 -2.6230  1.9945 -0.8112
  828MOL0     H 9265  -2.690   3.999   9.079 -0.2385 -1.1937  0.4979
  828MOL0     H 9266  -2.655   4.253   9.054  0.0662  1.9393  0.7596
  828MOL0     H 9267  -2.668   4.258   9.232 -1.7958  0.7369  0.7864
  828MOL0     H 9268  -2.885   4.139   9.052  1.8518  0.9363 -1.3000
  828MOL0     H 9269  -2.911   4.151   9.213 -1.7605  0.7419 -1.0833
  828MOL0     H 9270  -2.879   4.411   9.062  2.4349 -1.0994  0.4040
  828MOL0     H 9271  -2.930   4.376   9.229 -1.5753 -2.5048  1.6133
  828MOL0     H 9272  -3.132   4.277   9.163 -0.1975  0.7601  0.5557
  828MOL0     H 9273  -3.071   4.270   8.988 -1.1079  0.7605 -1.3788
  828MOL0     H 9274  -3.058   4.537   9.116  0.2740 -1.0124  0.6253
  828MOL0     H 9275  -3.098   4.504   8.949  0.3505  1.9363  0.3371
  828MOL0     H 9276  -3.324   4.391   9.065  0.1872 -0.6171  4.5052
  828MOL0     H 9277  -3.299   4.545   8.983  1.5543  0.6598 -0.4291
  828MOL0     H 9278  -2.235   4.070   9.283  0.8860  0.8104  1.4143
  828MOL0     H 9279  -2.009   3.972   9.355  1.0520 -2.3561 -1.1930
  828MOL0     H 9280  -1.702   3.693   9.462 -0.2559 -0.6910  0.0059
  828MOL0     H 9281  -1.485   3.582   9.555 -1.3416  1.0083 -2.0479
  828MOL0     H 9282   0.348   2.938  10.059 -1.0642  2.1325 -0.8165
  828MOL0     H 9283   0.568   2.895  10.161  1.9045  1.8218  0.8648
  828MOL0     H 9284   1.056   3.255  10.078 -0.5671  0.5575  0.3636
  828MOL0     H 9285   1.283   3.245  10.136 -0.5985 -0.1094 -1.0432
  828MOL0     H 9286   1.503   3.216  10.223 -2.1299 -1.4007  1.8631
  828MOL0     H 9287   1.515   3.124  10.066  1.0194 -1.1512 -0.7853
  828MOL0     H 9288   1.722   3.161  10.205 -1.1275  1.5564 -0.2320
  828MOL0     H 9289   1.653   3.042  10.324 -3.0052  0.6642  0.0032
  828MOL0     H 9290   1.683   2.983  10.030 -1.2668  1.0049  0.1325
  828MOL0     H 9291   1.631   2.873  10.154 -2.3402  2.3148  0.3392
  828MOL0     H 9292   1.866   2.831  10.101 -2.3471  0.4893 -1.3929
  828MOL0     H 9293   1.916   3.001  10.126  2.2025 -1.3779 -2.1190
  828MOL0     H 9294   1.897   2.841  10.527  0.3562 -1.2668 -0.0547
  828MOL0     H 9295   1.260   2.828  10.232  1.3983 -0.1491 -0.0711
  828MOL0     H 9296   1.011   2.842  10.161 -0.2754 -0.0343 -2.4660
  829MOL0     O 9297   8.121   1.735  10.692  0.3359 -0.2653  0.6137
  829MOL0     C 9298   8.232   1.771  10.653  0.5877 -0.6871 -0.3082
  829MOL0     O 9299   8.342   1.687  10.647  0.2388  0.1160 -0.1311
  829MOL0     C 9300   8.330   1.556  10.665  0.4712 -0.8917  0.5236
  829MOL0     C 9301   8.398   1.470  10.574 -0.3512  0.8651 -0.6847
  829MOL0     C 9302   8.420   1.331  10.608  0.7970 -0.6012 -0.3964
  829MOL0     C 9303   8.368   1.278  10.722  0.2010  0.3639 -0.0435
  829MOL0     O 9304   8.383   1.143  10.750 -0.1316  0.2703 -0.4418
  829MOL0     C 9305   8.317   1.084  10.858 -0.3923  0.2484 -0.2240
  829MOL0     C 9306   8.361   0.945  10.873 -0.7294 -0.3777  0.5415
  829MOL0     C 9307   8.258   0.852  10.807 -0.2721 -0.4994 -0.3757
  829MOL0     C 9308   8.307   0.708  10.829 -0.3655  1.0140  0.9225
  829MOL0     C 9309   8.218   0.605  10.750  0.2108  0.0970  0.0258
  829MOL0     C 9310   8.263   0.468  10.794  0.1360 -0.5207  0.1051
  829MOL0     C 9311   8.167   0.364  10.725 -0.7270 -0.4378 -0.5523
  829MOL0     C 9312   8.245   0.232  10.765 -0.3706  0.5476  0.4071
  829MOL0     N 9313   8.188   0.114  10.695 -0.7527  0.3418 -0.2576
  829MOL0     C 9314   8.250   0.029  10.608  0.1345 -0.9126  0.2340
  829MOL0     C 9315   8.162  -0.073  10.592 -0.9312  0.2442 -0.2467
  829MOL0     C 9316   8.196  -0.189  10.491  0.2333 -0.6194 -0.8807
  829MOL0     C 9317   8.091  -0.286  10.476 -0.4120  0.6244 -0.5422
  829MOL0     C 9318   7.967  -0.233  10.398  0.0771  0.6470 -0.0852
  829MOL0     C 9319   7.854  -0.340  10.392 -0.3504  0.1497  0.0312
  829MOL0     O 9320   7.800  -0.360  10.524 -0.2524 -0.7387  0.0030
  829MOL0     C 9321   7.681  -0.433  10.533  0.3977 -0.4625 -0.0918
  829MOL0     C 9322   7.618  -0.472  10.663  0.6459 -0.2385 -0.0809
  829MOL0     C 9323   7.498  -0.547  10.661 -0.2870  0.8982 -0.4415
  829MOL0     C 9324   7.438  -0.589  10.554  0.3694 -0.3114 -0.7346
  829MOL0     C 9325   7.314  -0.662  10.556 -0.2273 -0.5157  0.4553
  829MOL0     O 9326   7.259  -0.682  10.679  0.4522  0.0299 -0.6313
  829MOL0     C 9327   7.166  -0.784  10.686 -0.5026  0.3598  0.8727
  829MOL0     C 9328   7.202  -0.908  10.736 -0.8891  0.2295 -0.1109
  829MOL0     C 9329   7.105  -1.007  10.756 -0.3201 -0.5007  1.3207
  829MOL0     C 9330   6.970  -0.988  10.736  1.0108  0.4198  0.8276
  829MOL0     O 9331   6.881  -1.090  10.771 -0.4840 -0.1638 -0.0136
  829MOL0     C 9332   6.745  -1.069  10.722  0.1750 -0.1589 -0.1000
  829MOL0     C 9333   6.669  -1.205  10.746  0.7553 -0.5999  0.6657
  829MOL0     C 9334   6.530  -1.194  10.682 -0.8068 -0.1525  0.4259
  829MOL0     C 9335   6.477  -1.331  10.684  0.2589 -0.3716 -0.1948
  829MOL0     C 9336   6.332  -1.339  10.626 -0.3936 -0.3324 -0.1821
  829MOL0     C 9337   6.325  -1.326  10.474 -0.0138 -0.4093 -0.4100
  829MOL0     C 9338   6.230  -1.427  10.398  1.3377 -0.5776  0.6162
  829MOL0     C 9339   6.083  -1.368  10.390  0.3521 -0.0518  0.3976
  829MOL0    Cl 9340   5.966  -1.475  10.302 -0.0700 -0.0154  0.4980
  829MOL0     C 9341   6.937  -0.864  10.671  0.0931  0.0601 -0.9216
  829MOL0     C 9342   7.035  -0.769  10.654  0.1296  0.3161  0.2975
  829MOL0     O 9343   7.259  -0.681  10.448 -0.4842 -0.4328  0.6111
  829MOL0     C 9344   7.505  -0.561  10.437 -0.1266  0.2280 -0.0628
  829MOL0     C 9345   7.614  -0.478  10.422  0.4882  0.5332  0.5723
  829MOL0     N 9346   8.064  -0.065  10.691  0.1151 -0.3731 -0.0686
  829MOL0     N 9347   8.074   0.057  10.738  0.1638  0.2814  0.3689
  829MOL0     C 9348   8.297   1.366  10.810 -0.4171 -0.5319 -0.3101
  829MOL0     C 9349   8.275   1.504  10.774  0.3582  0.5343 -0.6909
  829MOL0     C 9350   8.246   1.906  10.607 -0.4263  0.1864  0.6975
  829MOL0     C 9351   8.175   2.010  10.667 -0.0568  0.1871  1.0570
  829MOL0     C 9352   8.184   2.141  10.618 -0.8212  0.6756 -0.5326
  829MOL0     C 9353   8.270   2.166  10.507  0.0640  0.0733 -0.5164
  829MOL0     O 9354   8.289   2.290  10.451 -0.5191  0.2528  0.1165
  829MOL0     C 9355   8.210   2.391  10.507 -0.2485  0.1176 -0.2892
  829MOL0     C 9356   8.229   2.510  10.420 -0.8048  0.1018  0.6325
  829MOL0     C 9357   8.155   2.640  10.451  0.0717 -0.7473 -0.5131
  829MOL0     C 9358   8.221   2.729  10.564 -0.1828 -0.5162  0.0837
  829MOL0     C 9359   8.352   2.783  10.515 -0.1397  0.0327  1.1796
  829MOL0     C 9360   8.460   2.807  10.464 -0.0516  0.3741 -0.2270
  829MOL0     C 9361   8.335   2.065  10.442  0.4086  0.1469  0.0537
  829MOL0     C 9362   8.336   1.940  10.501 -0.3017 -0.6433 -0.6096
  829MOL0     H 9363   8.448   1.512  10.487  2.0054 -2.2821 -0.9972
  829MOL0     H 9364   8.468   1.271  10.531  0.7059  2.0039 -2.6759
  829MOL0     H 9365   8.209   1.099  10.857 -0.7725 -1.4380  2.8167
  829MOL0     H 9366   8.348   1.126  10.954  0.6244 -2.5072  0.7484
  829MOL0     H 9367   8.364   0.918  10.979  1.7078  0.7691  0.8197
  829MOL0     H 9368   8.464   0.922  10.846  0.4570  2.9844  1.7013
  829MOL0     H 9369   8.250   0.873  10.700 -0.6304  1.8360  0.0575
  829MOL0     H 9370   8.162   0.868  10.856 -1.1817 -1.3170 -1.8172
  829MOL0     H 9371   8.408   0.700  10.788 -1.1712  0.6064 -1.0777
  829MOL0     H 9372   8.306   0.680  10.935 -1.1204 -1.7852  0.2718
  829MOL0     H 9373   8.225   0.601  10.641  0.5231  4.3169 -0.2590
  829MOL0     H 9374   8.113   0.624  10.772 -0.0405  2.5217 -2.6975
  829MOL0     H 9375   8.259   0.450  10.902  0.3890 -1.2366 -0.0049
  829MOL0     H 9376   8.366   0.455  10.761 -1.0354 -1.0055 -3.9376
  829MOL0     H 9377   8.070   0.361  10.776  0.9310  0.5869  2.9550
  829MOL0     H 9378   8.158   0.386  10.618  0.4136  1.4954 -0.2907
  829MOL0     H 9379   8.238   0.216  10.873 -0.6819  0.7224  0.4131
  829MOL0     H 9380   8.348   0.236  10.727 -0.9510  1.4303 -1.1617
  829MOL0     H 9381   8.349   0.049  10.567  0.1624 -2.6964 -0.6426
  829MOL0     H 9382   8.294  -0.235  10.511  2.3036  3.5810 -0.3366
  829MOL0     H 9383   8.195  -0.138  10.395  0.4490  3.7902  1.2059
  829MOL0     H 9384   8.073  -0.317  10.580  2.2306  2.0296  0.4310
  829MOL0     H 9385   8.128  -0.377  10.428 -1.8776  0.4994 -1.5119
  829MOL0     H 9386   7.929  -0.142  10.444 -0.8028 -0.3828  1.3121
  829MOL0     H 9387   7.993  -0.210  10.294  1.5110 -4.9859 -1.3323
  829MOL0     H 9388   7.889  -0.429  10.339 -0.2244  0.4386 -0.3740
  829MOL0     H 9389   7.774  -0.292  10.335 -0.7443 -1.6803 -1.0658
  829MOL0     H 9390   7.664  -0.437  10.755  2.0686  0.0684 -0.8729
  829MOL0     H 9391   7.447  -0.554  10.757 -0.3642  2.9971 -0.2759
  829MOL0     H 9392   7.300  -0.943  10.767 -0.2904  0.6150 -1.4754
  829MOL0     H 9393   7.131  -1.103  10.800 -0.9465 -1.9677 -1.2929
  829MOL0     H 9394   6.744  -1.038  10.617  2.3390 -1.3232 -0.5242
  829MOL0     H 9395   6.687  -0.993  10.774 -3.4366 -3.2470  0.8183
  829MOL0     H 9396   6.657  -1.234  10.850  2.0928  4.1427  2.3906
  829MOL0     H 9397   6.724  -1.292  10.711  1.0473  0.3843 -1.5056
  829MOL0     H 9398   6.532  -1.151  10.581 -0.9275  0.9809  0.8953
  829MOL0     H 9399   6.467  -1.118  10.727  0.4790  1.1353  0.1093
  829MOL0     H 9400   6.541  -1.405  10.634  1.0609  1.1948 -1.5688
  829MOL0     H 9401   6.474  -1.369  10.787  3.7113 -1.7541 -0.4734
  829MOL0     H 9402   6.267  -1.263  10.670 -1.3396 -0.4780 -1.2891
  829MOL0     H 9403   6.287  -1.433  10.660  1.6038 -1.5294 -0.6692
  829MOL0     H 9404   6.428  -1.357  10.454  1.2406  2.0968  1.5443
  829MOL0     H 9405   6.322  -1.223  10.436 -1.1678  1.1188  3.2845
  829MOL0     H 9406   6.267  -1.445  10.297  0.8697  2.2034 -0.1191
  829MOL0     H 9407   6.238  -1.520  10.456  0.2989  0.7963  3.1517
  829MOL0     H 9408   6.098  -1.272  10.340 -1.8921  1.0299  1.6409
  829MOL0     H 9409   6.034  -1.361  10.487 -2.0350  1.5677 -0.8117
  829MOL0     H 9410   6.835  -0.831  10.659 -0.9660 -2.1336  1.1016
  829MOL0     H 9411   7.007  -0.674  10.609  0.4823  0.3666  0.1791
  829MOL0     H 9412   7.466  -0.573  10.336  2.0342  1.6928 -1.1434
  829MOL0     H 9413   7.636  -0.441  10.323  2.9966  0.4570  1.0480
  829MOL0     H 9414   8.252   1.324  10.900  0.6388 -1.2102 -0.0769
  829MOL0     H 9415   8.232   1.553  10.861 -0.4083 -0.6932 -0.3574
  829MOL0     H 9416   8.104   1.971  10.740 -0.9142 -2.7692 -1.1852
  829MOL0     H 9417   8.120   2.214  10.666 -3.5369 -2.2901  0.6857
  829MOL0     H 9418   8.257   2.430  10.597 -1.8258  2.5755 -0.4205
  829MOL0     H 9419   8.106   2.365  10.531  0.4645  0.4188  3.7086
  829MOL0     H 9420   8.334   2.540  10.418 -0.2629 -1.6584  0.5488
  829MOL0     H 9421   8.203   2.478  10.318 -0.9775  4.3364 -0.8703
  829MOL0     H 9422   8.055   2.613  10.486  0.4897 -1.8465 -0.1300
  829MOL0     H 9423   8.145   2.710  10.368  0.9926 -0.5726 -0.4882
  829MOL0     H 9424   8.149   2.806  10.594  0.1437 -1.2754  3.1014
  829MOL0     H 9425   8.244   2.658  10.644 -4.8652 -4.9531 -1.9399
  829MOL0     H 9426   8.550   2.835  10.411  1.5231 -1.9329  1.0307
  829MOL0     H 9427   8.396   2.093  10.357  0.5509  0.7568  0.3497
  829MOL0     H 9428   8.402   1.864  10.462 -1.4134  0.0785 -4.3223
  830MOL0     O 9429   1.580   1.963   0.863 -1.1344  1.3842 -0.8035
  830MOL0     C 9430   1.623   2.071   0.819  1.0502  0.5535 -0.7565
  830MOL0     O 9431   1.565   2.136   0.718 -1.0534  0.0362  0.5582
  830MOL0     C 9432   1.440   2.089   0.675  0.9003  0.6726  0.4537
  830MOL0     C 9433   1.334   2.174   0.686  0.5106  0.0373 -0.2941
  830MOL0     C 9434   1.202   2.135   0.648 -0.1255  0.3543  0.1199
  830MOL0     C 9435   1.172   2.006   0.602  0.4206  0.2352 -0.5203
  830MOL0     O 9436   1.045   1.959   0.564 -0.1675  0.0115 -0.1345
  830MOL0     C 9437   0.950   2.045   0.509  0.2850 -0.5619 -1.7611
  830MOL0     C 9438   0.850   2.045   0.622 -0.2722  0.8753  0.1144
  830MOL0     C 9439   0.719   2.107   0.586  0.4701 -0.6618  1.4103
  830MOL0     C 9440   0.620   2.121   0.707  0.5961  0.1700 -0.2704
  830MOL0     C 9441   0.469   2.130   0.659 -0.6188  0.7087  0.8473
  830MOL0     C 9442   0.428   2.252   0.570  0.5878 -0.1934 -0.4408
  830MOL0     C 9443   0.319   2.226   0.465  0.6287  0.2801 -0.9942
  830MOL0     C 9444   0.196   2.160   0.528 -1.2211 -0.6050 -0.9762
  830MOL0     N 9445   0.091   2.134   0.426 -0.0486 -0.1024 -0.6666
  830MOL0     C 9446   0.028   2.239   0.364  0.1633  0.0961 -0.7723
  830MOL0     C 9447  -0.052   2.189   0.270  0.2249 -0.2708  0.3955
  830MOL0     C 9448  -0.152   2.270   0.186 -0.0091  0.0611 -0.5883
  830MOL0     C 9449  -0.281   2.282   0.269 -0.1114  0.2469 -0.2418
  830MOL0     C 9450  -0.401   2.320   0.176 -0.2498  0.3869  0.4862
  830MOL0     C 9451  -0.377   2.444   0.092 -0.6010  0.3953  0.5653
  830MOL0     O 9452  -0.442   2.457  -0.034  0.3007 -0.0088 -0.3566
  830MOL0     C 9453  -0.580   2.469  -0.042  0.2481  0.3276 -0.3170
  830MOL0     C 9454  -0.666   2.474   0.068 -1.3417  0.2919 -0.5482
  830MOL0     C 9455  -0.798   2.475   0.065  0.6372 -0.8003 -0.0823
  830MOL0     C 9456  -0.861   2.471  -0.058 -1.1696  0.0592 -0.4245
  830MOL0     C 9457  -1.006   2.481  -0.055 -0.4446 -0.8919  0.3011
  830MOL0     O 9458  -1.060   2.477   0.073  0.2023 -0.3917  0.5060
  830MOL0     C 9459  -1.193   2.516   0.080  0.3650  0.5139  0.2015
  830MOL0     C 9460  -1.287   2.427   0.025 -0.3083  0.6696 -0.1630
  830MOL0     C 9461  -1.429   2.454   0.028 -0.1966 -0.2428  0.0446
  830MOL0     C 9462  -1.466   2.581   0.070  0.5031  0.2302  0.1711
  830MOL0     O 9463  -1.592   2.624   0.086 -0.5179 -0.5607 -1.1860
  830MOL0     C 9464  -1.694   2.524   0.084  0.2175  0.3077 -0.8506
  830MOL0     C 9465  -1.823   2.597   0.085 -0.0903  0.4550  0.1990
  830MOL0     C 9466  -1.859   2.666   0.221  0.4061 -0.4203 -0.3313
  830MOL0     C 9467  -1.982   2.760   0.223  1.1072  0.2270 -0.2237
  830MOL0     C 9468  -1.988   2.851   0.348 -0.4928  0.5798 -0.6877
  830MOL0     C 9469  -1.895   2.972   0.352 -0.2533  0.0907 -0.1133
  830MOL0     C 9470  -1.897   3.040   0.483 -0.1404 -0.2722 -0.7300
  830MOL0     C 9471  -1.801   3.154   0.495 -0.6414  0.1464  0.2576
  830MOL0    Cl 9472  -1.634   3.115   0.445 -0.2080 -0.1585  0.0964
  830MOL0     C 9473  -1.371   2.673   0.120  0.5301 -0.0967 -0.7468
  830MOL0     C 9474  -1.234   2.640   0.126 -0.0901 -0.4404 -0.3281
  830MOL0     O 9475  -1.060   2.506  -0.165  0.5917  0.2374  0.0417
  830MOL0     C 9476  -0.785   2.459  -0.176 -0.3522  0.2270  0.0161
  830MOL0     C 9477  -0.647   2.457  -0.165 -0.1125  0.8591  0.8682
  830MOL0     N 9478  -0.023   2.054   0.257 -0.1895 -0.3787 -0.9477
  830MOL0     N 9479   0.067   2.023   0.353  0.0245  0.2190  0.5647
  830MOL0     C 9480   1.284   1.924   0.584  0.0620  0.1723  0.4824
  830MOL0     C 9481   1.412   1.959   0.625 -0.4618 -0.6065  0.0320
  830MOL0     C 9482   1.741   2.120   0.885  0.5888 -0.0308 -0.3886
  830MOL0     C 9483   1.778   2.255   0.890  0.1048 -0.9788  0.3988
  830MOL0     C 9484   1.899   2.296   0.940  0.1567 -0.8118 -0.1475
  830MOL0     C 9485   1.997   2.199   0.977  0.0143 -0.3967  0.7377
  830MOL0     O 9486   2.126   2.224   1.011 -0.0611 -0.3798  0.1259
  830MOL0     C 9487   2.165   2.361   1.020 -0.4960  0.5589  1.2582
  830MOL0     C 9488   2.318   2.375   1.034  0.0804  0.3195  0.3275
  830MOL0     C 9489   2.407   2.336   0.916  0.0590 -0.4012 -0.5021
  830MOL0     C 9490   2.554   2.358   0.958  0.2952  0.1244 -0.4567
  830MOL0     C 9491   2.646   2.321   0.855 -0.9018  1.0972 -0.0096
  830MOL0     C 9492   2.699   2.272   0.757  0.0951 -0.2770 -0.5603
  830MOL0     C 9493   1.954   2.061   0.980 -0.0056  1.2523 -0.5116
  830MOL0     C 9494   1.837   2.022   0.926  1.1156  0.5842 -1.0666
  830MOL0     H 9495   1.365   2.275   0.710  0.2104  0.3395 -1.1556
  830MOL0     H 9496   1.116   2.201   0.648 -0.1016  0.4061 -1.3511
  830MOL0     H 9497   0.890   2.003   0.428 -0.8862  2.2093 -2.4489
  830MOL0     H 9498   0.994   2.143   0.490  0.5775 -0.3481 -0.1434
  830MOL0     H 9499   0.891   2.100   0.707  0.9952  0.5904 -0.2848
  830MOL0     H 9500   0.832   1.946   0.665 -0.4990  0.8209 -0.1063
  830MOL0     H 9501   0.680   2.054   0.499  3.3262  1.6133 -1.4702
  830MOL0     H 9502   0.736   2.207   0.547 -0.9782 -1.5991 -2.0031
  830MOL0     H 9503   0.629   2.026   0.762 -4.0338 -1.6968 -2.1698
  830MOL0     H 9504   0.636   2.209   0.770 -0.7639 -3.3376  5.8212
  830MOL0     H 9505   0.400   2.115   0.742 -1.4187 -0.6365 -0.0279
  830MOL0     H 9506   0.450   2.048   0.590 -2.0712  0.8106  1.0951
  830MOL0     H 9507   0.521   2.286   0.523  1.4957 -0.5518  1.0377
  830MOL0     H 9508   0.393   2.328   0.640  2.4165  0.3074 -0.0134
  830MOL0     H 9509   0.297   2.323   0.420  0.1011  1.4818  1.6223
  830MOL0     H 9510   0.356   2.158   0.389  0.6708 -2.0586  1.0126
  830MOL0     H 9511   0.149   2.230   0.597  1.9517  0.5600  0.1330
  830MOL0     H 9512   0.230   2.075   0.587  0.0070  1.9571  2.2852
  830MOL0     H 9513   0.043   2.345   0.382 -2.4292  0.6447 -1.3928
  830MOL0     H 9514  -0.163   2.215   0.092 -1.3447 -0.8095  0.0334
  830MOL0     H 9515  -0.105   2.367   0.167  2.4495 -0.7539  0.9366
  830MOL0     H 9516  -0.267   2.352   0.352 -1.0006 -1.7949  1.7540
  830MOL0     H 9517  -0.310   2.188   0.318 -2.5629  0.1990 -1.6351
  830MOL0     H 9518  -0.416   2.227   0.120 -0.1508  0.4501  0.3572
  830MOL0     H 9519  -0.493   2.338   0.232 -0.0673  0.2560  0.8333
  830MOL0     H 9520  -0.272   2.450   0.061  0.5053 -0.5264  3.6708
  830MOL0     H 9521  -0.395   2.531   0.157 -0.1178 -0.4796  1.9260
  830MOL0     H 9522  -0.620   2.488   0.165  3.9331 -0.5499 -2.6050
  830MOL0     H 9523  -0.850   2.486   0.160  0.4165 -0.3274 -0.2568
  830MOL0     H 9524  -1.250   2.341  -0.029  0.3944 -0.0435  1.3964
  830MOL0     H 9525  -1.498   2.375   0.001 -1.1079  1.2943 -2.4645
  830MOL0     H 9526  -1.683   2.467   0.177 -0.6037  2.3036  0.5674
  830MOL0     H 9527  -1.699   2.463  -0.006 -0.0469 -2.4431  0.9009
  830MOL0     H 9528  -1.904   2.523   0.072 -0.5304  0.8038  0.8723
  830MOL0     H 9529  -1.830   2.672   0.006 -3.4019 -0.5703 -0.6499
  830MOL0     H 9530  -1.776   2.731   0.250 -0.5382 -0.7800  3.6685
  830MOL0     H 9531  -1.877   2.594   0.300 -0.4055  1.8478  1.6676
  830MOL0     H 9532  -2.001   2.813   0.129  1.0407  3.4359  1.4610
  830MOL0     H 9533  -2.070   2.697   0.236 -0.8102  2.4723 -1.5152
  830MOL0     H 9534  -1.980   2.788   0.437  1.4414 -1.8515 -2.4086
  830MOL0     H 9535  -2.095   2.875   0.352 -0.9749 -1.4797  0.1852
  830MOL0     H 9536  -1.918   3.041   0.270  0.9827  1.0720  0.3260
  830MOL0     H 9537  -1.790   2.942   0.346  0.0432  1.3199 -3.6804
  830MOL0     H 9538  -1.995   3.084   0.502 -1.3330 -2.2081 -2.1048
  830MOL0     H 9539  -1.881   2.980   0.573 -0.4480  3.4292  2.0539
  830MOL0     H 9540  -1.808   3.199   0.594  0.6615 -1.4186  1.1131
  830MOL0     H 9541  -1.834   3.231   0.425 -2.1072 -1.9884 -1.5604
  830MOL0     H 9542  -1.413   2.766   0.156  0.5757 -0.6917  0.9671
  830MOL0     H 9543  -1.167   2.718   0.157  1.0869 -0.3508 -2.8446
  830MOL0     H 9544  -0.830   2.471  -0.274  0.7186 -0.0620 -0.5332
  830MOL0     H 9545  -0.576   2.467  -0.247 -0.4713  1.2071  0.5971
  830MOL0     H 9546   1.249   1.828   0.548 -1.4835  0.5576  0.8690
  830MOL0     H 9547   1.485   1.880   0.614  0.2928  0.3935 -3.0863
  830MOL0     H 9548   1.717   2.339   0.860  0.6250 -0.3720  1.0050
  830MOL0     H 9549   1.915   2.403   0.950 -2.3549 -0.2104 -1.6800
  830MOL0     H 9550   2.123   2.408   1.109 -1.2757  0.3446  1.0055
  830MOL0     H 9551   2.133   2.411   0.928  2.5608 -0.8909 -0.7671
  830MOL0     H 9552   2.347   2.478   1.057  6.3378 -0.3242 -2.4178
  830MOL0     H 9553   2.341   2.308   1.117  0.6463 -1.5008 -1.2274
  830MOL0     H 9554   2.377   2.392   0.827 -0.5455 -0.7487 -0.5264
  830MOL0     H 9555   2.396   2.228   0.898 -0.0132 -0.6260  0.7402
  830MOL0     H 9556   2.581   2.462   0.978  0.8241 -0.2560  0.8951
  830MOL0     H 9557   2.568   2.300   1.050  0.0147 -0.3591 -0.7143
  830MOL0     H 9558   2.758   2.233   0.677  2.6224 -2.0509  1.9922
  830MOL0     H 9559   2.012   1.978   1.020 -1.4753 -0.8367 -2.4631
  830MOL0     H 9560   1.806   1.918   0.920 -3.0692  1.3878  1.9853
  831MOL0     O 9561   3.886   7.990   0.351  0.4156 -0.2435  0.2651
  831MOL0     C 9562   3.959   8.081   0.399  0.2934 -0.0414  0.7261
  831MOL0     O 9563   3.918   8.211   0.435 -0.1170  0.4679 -0.4228
  831MOL0     C 9564   3.809   8.272   0.382  0.1129  0.0163 -0.7062
  831MOL0     C 9565   3.772   8.268   0.251 -1.0090  0.6517  0.7129
  831MOL0     C 9566   3.659   8.333   0.202 -1.0187  0.1524 -0.3873
  831MOL0     C 9567   3.588   8.423   0.288 -0.5980 -0.6144 -0.0472
  831MOL0     O 9568   3.479   8.499   0.245  0.5751 -0.0910  0.1993
  831MOL0     C 9569   3.434   8.505   0.108 -0.5411 -0.4023  0.7027
  831MOL0     C 9570   3.334   8.625   0.075 -1.1944  0.2069  0.8304
  831MOL0     C 9571   3.212   8.574   0.150  0.2943  0.0459  0.4161
  831MOL0     C 9572   3.077   8.648   0.146  0.3616 -0.7372  0.5151
  831MOL0     C 9573   3.057   8.731   0.276 -0.0910 -0.2597 -0.3289
  831MOL0     C 9574   2.976   8.863   0.283 -0.0176  0.8598  0.4122
  831MOL0     C 9575   2.836   8.858   0.245  0.6885  0.2283 -0.3045
  831MOL0     C 9576   2.760   8.820   0.369 -0.0765 -0.1806 -0.6864
  831MOL0     N 9577   2.639   8.755   0.319  0.3961  0.4152 -0.3611
  831MOL0     C 9578   2.518   8.821   0.296 -0.2539  0.4721 -0.0519
  831MOL0     C 9579   2.445   8.728   0.221  0.4613 -0.7337  0.9205
  831MOL0     C 9580   2.315   8.749   0.155  0.2161  0.3982  0.1513
  831MOL0     C 9581   2.214   8.851   0.222  0.9340  1.4685  0.6204
  831MOL0     C 9582   2.151   8.801   0.354 -0.7506 -0.0118 -0.5544
  831MOL0     C 9583   1.998   8.769   0.346  0.8631 -0.2328  1.1894
  831MOL0     O 9584   1.949   8.802   0.474 -0.5740  0.2917 -0.5040
  831MOL0     C 9585   1.815   8.809   0.486 -0.0392  0.2807 -0.5655
  831MOL0     C 9586   1.721   8.770   0.388  0.6908  0.0883 -0.5371
  831MOL0     C 9587   1.582   8.778   0.425  0.1268  1.0963  0.3447
  831MOL0     C 9588   1.541   8.817   0.552  0.3298 -0.4127  0.0628
  831MOL0     C 9589   1.395   8.832   0.588  0.2216 -0.6882 -0.2562
  831MOL0     O 9590   1.309   8.834   0.479  0.0075 -0.4430 -0.0718
  831MOL0     C 9591   1.178   8.864   0.491  0.2962 -1.1588 -0.0376
  831MOL0     C 9592   1.143   8.972   0.569  0.4461 -0.5914 -0.8763
  831MOL0     C 9593   1.012   9.010   0.584  0.6607  0.7905 -0.5160
  831MOL0     C 9594   0.909   8.926   0.525  0.3134  0.2659  0.4016
  831MOL0     O 9595   0.773   8.929   0.564 -0.4498 -0.4283 -0.6670
  831MOL0     C 9596   0.688   8.970   0.457  0.7944  0.1012 -0.3138
  831MOL0     C 9597   0.547   9.023   0.508 -0.1669 -0.2426  0.0617
  831MOL0     C 9598   0.544   9.116   0.630  1.1332 -0.4510  0.2343
  831MOL0     C 9599   0.392   9.144   0.650 -0.1895 -0.6447  0.3758
  831MOL0     C 9600   0.355   9.204   0.786 -0.8238 -0.1197 -0.2319
  831MOL0     C 9601   0.206   9.212   0.813 -0.7201 -0.4288  0.4962
  831MOL0     C 9602   0.160   9.281   0.944 -0.0960 -0.7702  0.8392
  831MOL0     C 9603   0.170   9.432   0.935 -0.2737 -0.2471  0.0588
  831MOL0    Cl 9604   0.125   9.510   1.090 -0.3658 -0.5651  0.1883
  831MOL0     C 9605   0.943   8.823   0.441  0.4801  0.7744  0.2149
  831MOL0     C 9606   1.083   8.795   0.430 -0.4642  0.1218  0.5258
  831MOL0     O 9607   1.361   8.843   0.704  0.0128 -0.3537 -0.2290
  831MOL0     C 9608   1.640   8.839   0.647  0.6010  0.1791 -0.3266
  831MOL0     C 9609   1.776   8.832   0.617  0.1757 -0.5420 -0.1673
  831MOL0     N 9610   2.515   8.619   0.208 -0.1709 -0.2622 -0.8979
  831MOL0     N 9611   2.628   8.624   0.264 -1.0920 -0.1635  0.0441
  831MOL0     C 9612   3.631   8.433   0.423  0.3126 -0.8059  0.1562
  831MOL0     C 9613   3.743   8.358   0.467  0.4811  0.1292 -0.7888
  831MOL0     C 9614   4.108   8.056   0.389 -0.2392 -0.1805  0.3765
  831MOL0     C 9615   4.203   8.150   0.440  0.2147  0.5272  0.3550
  831MOL0     C 9616   4.343   8.116   0.440 -0.9410 -0.1666  0.4404
  831MOL0     C 9617   4.386   8.003   0.375 -0.4163  0.3474  0.7976
  831MOL0     O 9618   4.513   7.969   0.332 -0.5807 -0.0523 -0.6145
  831MOL0     C 9619   4.614   8.074   0.344  0.1849 -0.3146  0.4842
  831MOL0     C 9620   4.680   8.072   0.481 -0.1961 -0.1126 -0.0810
  831MOL0     C 9621   4.761   7.944   0.499  0.8497  0.4835  0.1517
  831MOL0     C 9622   4.895   7.952   0.426  0.7006 -0.1577 -0.5278
  831MOL0     C 9623   4.964   8.084   0.448 -0.0354  0.3389 -0.1075
  831MOL0     C 9624   5.052   8.167   0.458 -0.7563  0.8035  0.6969
  831MOL0     C 9625   4.289   7.916   0.335  0.8751 -0.5228 -0.1267
  831MOL0     C 9626   4.146   7.937   0.345 -0.2672  0.8679  0.6105
  831MOL0     H 9627   3.839   8.208   0.189 -2.8035 -1.1598  0.4357
  831MOL0     H 9628   3.631   8.318   0.098  1.3429  0.2057 -1.0766
  831MOL0     H 9629   3.402   8.406   0.072 -0.2422 -0.5403  0.8114
  831MOL0     H 9630   3.522   8.512   0.044 -1.9612 -2.4477 -1.6588
  831MOL0     H 9631   3.317   8.632  -0.033  3.2407 -2.8650 -0.3772
  831MOL0     H 9632   3.368   8.724   0.107  1.8938 -0.0208 -1.2996
  831MOL0     H 9633   3.233   8.554   0.255  0.6346 -3.8848 -0.2352
  831MOL0     H 9634   3.192   8.476   0.106  4.7704 -0.5786 -0.6880
  831MOL0     H 9635   3.081   8.709   0.056 -4.1174  2.2979  2.0076
  831MOL0     H 9636   2.982   8.595   0.132 -0.7556  1.7310 -2.2121
  831MOL0     H 9637   3.160   8.760   0.300 -0.8424  0.6131  2.0869
  831MOL0     H 9638   3.026   8.671   0.362  1.5157  0.1205  0.5650
  831MOL0     H 9639   3.029   8.937   0.223  3.5156 -0.4486  1.6184
  831MOL0     H 9640   2.991   8.903   0.384  0.3485  1.5419  0.0955
  831MOL0     H 9641   2.805   8.957   0.211  0.6794  0.6836  0.9870
  831MOL0     H 9642   2.821   8.786   0.164 -0.2761 -0.2485  0.2753
  831MOL0     H 9643   2.743   8.906   0.435  1.2243  0.6196 -1.3561
  831MOL0     H 9644   2.802   8.739   0.429 -3.9288 -2.1309 -0.2971
  831MOL0     H 9645   2.493   8.925   0.314 -0.6326  0.1763  1.2495
  831MOL0     H 9646   2.269   8.652   0.135  1.3883 -0.6385  2.1589
  831MOL0     H 9647   2.353   8.781   0.057  0.5174  1.1275  0.4994
  831MOL0     H 9648   2.132   8.854   0.150  2.5618 -1.3719 -1.5804
  831MOL0     H 9649   2.254   8.951   0.235  0.0249  1.8592  0.4806
  831MOL0     H 9650   2.208   8.716   0.392  0.3655  0.9188 -0.1013
  831MOL0     H 9651   2.166   8.879   0.429  2.8539 -0.5951 -0.5173
  831MOL0     H 9652   1.984   8.662   0.329 -1.4569 -0.8381  5.5050
  831MOL0     H 9653   1.955   8.829   0.265  1.7781 -0.0233  0.8539
  831MOL0     H 9654   1.755   8.745   0.288 -2.2516 -2.2351 -1.1160
  831MOL0     H 9655   1.506   8.767   0.349  0.1140 -0.7309  0.5729
  831MOL0     H 9656   1.216   9.040   0.612 -0.7005  0.8611 -1.1627
  831MOL0     H 9657   0.993   9.098   0.644  2.4553  0.6392  0.3575
  831MOL0     H 9658   0.681   8.890   0.383 -0.3380 -1.6111  1.5374
  831MOL0     H 9659   0.747   9.047   0.407  0.7288 -0.2681 -0.9682
  831MOL0     H 9660   0.497   8.930   0.534  2.4432 -1.4792  1.0761
  831MOL0     H 9661   0.509   9.077   0.421  1.8989  0.2070 -0.6293
  831MOL0     H 9662   0.597   9.210   0.618  2.1428 -0.7851  1.6871
  831MOL0     H 9663   0.588   9.069   0.719 -1.5050 -0.9329  1.3851
  831MOL0     H 9664   0.366   9.213   0.569 -1.1539 -1.4700 -0.0398
  831MOL0     H 9665   0.344   9.047   0.634 -0.6512 -0.8159  2.4941
  831MOL0     H 9666   0.398   9.304   0.798  2.6736 -1.2713 -1.7845
  831MOL0     H 9667   0.405   9.137   0.857  0.1784  3.0443  2.3011
  831MOL0     H 9668   0.160   9.115   0.833 -2.8958  0.6928  1.3513
  831MOL0     H 9669   0.146   9.264   0.737 -1.9291 -1.4579  0.7171
  831MOL0     H 9670   0.054   9.265   0.965 -1.5876  2.2241 -3.1460
  831MOL0     H 9671   0.227   9.254   1.026  0.9320  0.7258  0.5345
  831MOL0     H 9672   0.104   9.464   0.854 -1.9069 -4.2434 -0.4400
  831MOL0     H 9673   0.270   9.467   0.908 -1.3201  3.3440  0.3738
  831MOL0     H 9674   0.871   8.766   0.383  1.4540 -0.0503 -0.2006
  831MOL0     H 9675   1.129   8.720   0.366 -3.0032  0.8325 -2.3749
  831MOL0     H 9676   1.601   8.865   0.745  1.8981 -1.5504  0.7046
  831MOL0     H 9677   1.856   8.845   0.690 -0.8782 -0.3121  0.9671
  831MOL0     H 9678   3.593   8.514   0.484  0.5480  0.2510 -1.0461
  831MOL0     H 9679   3.780   8.361   0.569 -0.2592  2.6223 -0.5396
  831MOL0     H 9680   4.172   8.235   0.499  1.7245  1.5367 -0.2666
  831MOL0     H 9681   4.409   8.185   0.490 -1.8875  1.6637 -0.6916
  831MOL0     H 9682   4.571   8.171   0.318 -1.0501 -0.4039  2.0516
  831MOL0     H 9683   4.689   8.070   0.264  0.5349  2.2672  0.6010
  831MOL0     H 9684   4.745   8.158   0.497  1.2440 -1.2340  0.3151
  831MOL0     H 9685   4.606   8.081   0.562  0.4939 -0.9795  0.6725
  831MOL0     H 9686   4.703   7.856   0.470  0.6347  0.5746  0.2989
  831MOL0     H 9687   4.780   7.932   0.606  0.8321 -2.4315 -0.1012
  831MOL0     H 9688   4.954   7.870   0.468  0.4846 -2.3098 -3.9829
  831MOL0     H 9689   4.893   7.931   0.319  0.3139  0.8628 -0.7339
  831MOL0     H 9690   5.135   8.235   0.450  0.7119 -1.0445 -0.7195
  831MOL0     H 9691   4.326   7.823   0.293  0.7136 -1.0119  0.7714
  831MOL0     H 9692   4.083   7.857   0.308 -1.2935  1.5027  0.9268
  832MOL0     O 9693   0.273  11.298   0.724 -0.7881  0.3289  0.2868
  832MOL0     C 9694   0.281  11.201   0.797 -0.2617 -0.5925 -1.3433
  832MOL0     O 9695   0.393  11.122   0.819  0.1802 -0.5717  1.2021
  832MOL0     C 9696   0.519  11.150   0.767 -0.7177  0.5052 -0.5297
  832MOL0     C 9697   0.615  11.193   0.857 -0.8133  0.3129 -0.3623
  832MOL0     C 9698   0.756  11.211   0.819 -0.0619 -0.8791 -0.4511
  832MOL0     C 9699   0.797  11.189   0.688 -0.0516  0.0227  0.8481
  832MOL0     O 9700   0.933  11.207   0.660  0.0579  1.2243 -0.4357
  832MOL0     C 9701   0.973  11.217   0.520 -1.0282  0.2989 -0.4260
  832MOL0     C 9702   1.119  11.260   0.513 -0.8711  0.0904 -0.5220
  832MOL0     C 9703   1.157  11.408   0.536  0.8575  0.3672  0.1345
  832MOL0     C 9704   1.296  11.442   0.485 -0.5278  0.1033  0.1337
  832MOL0     C 9705   1.325  11.583   0.533  0.0912  0.2816  0.0375
  832MOL0     C 9706   1.380  11.673   0.421 -0.4453 -0.4317 -0.3318
  832MOL0     C 9707   1.303  11.706   0.294  0.6800 -0.5695 -0.5597
  832MOL0     C 9708   1.161  11.760   0.330 -0.1143 -0.1917  0.6282
  832MOL0     N 9709   1.087  11.816   0.210  0.8665  0.0468 -0.1338
  832MOL0     C 9710   1.012  11.745   0.114 -0.3642  0.3538  0.1184
  832MOL0     C 9711   0.991  11.828   0.010 -0.6907 -1.1577 -0.3031
  832MOL0     C 9712   0.907  11.793  -0.106 -0.5437 -0.0614  0.9147
  832MOL0     C 9713   0.770  11.854  -0.103  0.6716  0.6476  0.2525
  832MOL0     C 9714   0.769  11.985  -0.178 -0.5366  0.0110 -0.1031
  832MOL0     C 9715   0.640  12.059  -0.167 -0.0738 -0.0589 -0.2666
  832MOL0     O 9716   0.637  12.148  -0.280  0.3908  0.4468 -0.2203
  832MOL0     C 9717   0.516  12.188  -0.323 -0.1509  0.3878 -0.5564
  832MOL0     C 9718   0.498  12.230  -0.456 -0.4943 -0.3737  0.0811
  832MOL0     C 9719   0.378  12.274  -0.505 -1.0129 -0.5647  0.8129
  832MOL0     C 9720   0.267  12.286  -0.418  0.6372  0.0595 -0.4527
  832MOL0     C 9721   0.126  12.319  -0.472  0.6977 -0.3397  0.2240
  832MOL0     O 9722   0.024  12.347  -0.386 -0.3684  0.3962  0.6099
  832MOL0     C 9723  -0.104  12.343  -0.436 -0.4428 -0.0724  0.8733
  832MOL0     C 9724  -0.177  12.229  -0.475  0.0715 -0.0139  0.1409
  832MOL0     C 9725  -0.318  12.236  -0.497 -0.8445  0.1776  0.1140
  832MOL0     C 9726  -0.370  12.367  -0.493 -0.3117  0.3780 -0.7510
  832MOL0     O 9727  -0.504  12.380  -0.511  0.0428 -1.0865 -0.0751
  832MOL0     C 9728  -0.553  12.362  -0.650 -0.3681 -0.8115 -0.0897
  832MOL0     C 9729  -0.707  12.389  -0.672 -0.0045 -0.2094  0.3552
  832MOL0     C 9730  -0.803  12.317  -0.576  0.1023 -0.0699 -0.0834
  832MOL0     C 9731  -0.937  12.403  -0.573 -0.6750  1.1225  0.6980
  832MOL0     C 9732  -1.001  12.385  -0.709  0.2026 -0.4493  0.7071
  832MOL0     C 9733  -1.139  12.460  -0.713 -0.2770  0.0949 -0.1289
  832MOL0     C 9734  -1.223  12.454  -0.844 -0.7135 -0.2661  0.3844
  832MOL0     C 9735  -1.373  12.484  -0.828  0.4940 -0.7965 -0.1299
  832MOL0    Cl 9736  -1.391  12.662  -0.839 -0.2722 -0.2985  0.1012
  832MOL0     C 9737  -0.302  12.486  -0.463 -0.2564  0.9717 -0.2836
  832MOL0     C 9738  -0.162  12.472  -0.430  0.7871  0.0390 -0.4945
  832MOL0     O 9739   0.111  12.290  -0.592 -0.4257 -0.4661  0.0799
  832MOL0     C 9740   0.277  12.242  -0.281 -0.2619 -0.1005  0.3450
  832MOL0     C 9741   0.397  12.193  -0.236  0.2591 -0.2189  0.6772
  832MOL0     N 9742   1.055  11.948   0.037  0.1121 -0.0704 -0.2019
  832MOL0     N 9743   1.114  11.933   0.152  0.2403  0.0752  0.1791
  832MOL0     C 9744   0.700  11.154   0.592  0.3205 -0.2100  0.1207
  832MOL0     C 9745   0.561  11.135   0.630  0.5845  0.5382 -0.6130
  832MOL0     C 9746   0.151  11.152   0.845  0.9924 -0.6495  0.0269
  832MOL0     C 9747   0.138  11.029   0.905 -0.3268  0.5160  0.0477
  832MOL0     C 9748   0.019  10.980   0.951 -0.1513 -0.1208 -0.2581
  832MOL0     C 9749  -0.104  11.049   0.936  0.2076  0.4140  0.7733
  832MOL0     O 9750  -0.216  10.980   0.985 -0.3504 -0.2641  0.0817
  832MOL0     C 9751  -0.344  11.034   0.963  0.1225 -1.2967 -0.2599
  832MOL0     C 9752  -0.407  11.087   1.088 -0.8790  0.4672 -0.7301
  832MOL0     C 9753  -0.544  11.149   1.059  0.3073 -0.0275  0.0832
  832MOL0     C 9754  -0.638  11.049   1.006  0.1237  0.0359  0.0634
  832MOL0     C 9755  -0.766  11.103   1.011 -0.3585 -0.0467 -0.3412
  832MOL0     C 9756  -0.868  11.163   1.010 -0.2745 -0.8935  0.3503
  832MOL0     C 9757  -0.097  11.162   0.862 -0.5239 -0.2603  0.6816
  832MOL0     C 9758   0.026  11.215   0.816 -0.3979  0.1309 -0.8482
  832MOL0     H 9759   0.599  11.207   0.963 -1.2068 -0.1207 -0.3622
  832MOL0     H 9760   0.825  11.243   0.896  2.1110 -2.6550 -1.5695
  832MOL0     H 9761   0.910  11.287   0.465 -3.6914 -2.1565 -0.7581
  832MOL0     H 9762   0.962  11.117   0.476 -0.6580  1.0256 -2.2766
  832MOL0     H 9763   1.153  11.227   0.414 -1.4165 -3.7459  0.3904
  832MOL0     H 9764   1.179  11.205   0.586  0.5971  2.6522  0.3095
  832MOL0     H 9765   1.142  11.434   0.642 -1.0967 -2.8890  0.7836
  832MOL0     H 9766   1.081  11.470   0.488  1.2419 -0.5187 -1.6763
  832MOL0     H 9767   1.367  11.373   0.531  1.0606  0.5027 -1.5918
  832MOL0     H 9768   1.309  11.428   0.378 -1.3737  0.9055 -0.0881
  832MOL0     H 9769   1.396  11.586   0.616 -0.2748  3.7255  0.3757
  832MOL0     H 9770   1.236  11.631   0.574 -0.9597 -2.1201  0.7326
  832MOL0     H 9771   1.469  11.628   0.376 -0.2724 -0.5627  0.1365
  832MOL0     H 9772   1.415  11.767   0.464  0.0618 -0.5571 -0.4692
  832MOL0     H 9773   1.360  11.783   0.241  1.2922 -0.9868 -0.5162
  832MOL0     H 9774   1.290  11.611   0.241 -1.7029 -1.1597  0.9046
  832MOL0     H 9775   1.165  11.843   0.401 -0.7138  2.2933 -2.0451
  832MOL0     H 9776   1.102  11.686   0.385  0.8606 -0.0233  1.9523
  832MOL0     H 9777   0.988  11.639   0.123  0.9719 -0.1890 -2.1572
  832MOL0     H 9778   0.897  11.684  -0.107 -2.1121  0.0484  1.2049
  832MOL0     H 9779   0.955  11.826  -0.198  0.8718 -0.5485  1.4540
  832MOL0     H 9780   0.735  11.856   0.001  1.9181  0.3955  0.7003
  832MOL0     H 9781   0.701  11.796  -0.165  1.5729  0.2078 -0.3664
  832MOL0     H 9782   0.847  12.058  -0.156 -2.2021  1.9914 -0.4024
  832MOL0     H 9783   0.781  11.966  -0.285 -3.4575  2.4186 -1.0149
  832MOL0     H 9784   0.627  12.107  -0.069  2.2389  0.5329 -0.1759
  832MOL0     H 9785   0.559  11.986  -0.170 -1.3058  1.2630 -3.4437
  832MOL0     H 9786   0.588  12.242  -0.515 -0.4524  2.4228  0.6063
  832MOL0     H 9787   0.381  12.296  -0.611 -0.1858 -1.5977  0.6052
  832MOL0     H 9788  -0.127  12.133  -0.465 -0.2942 -0.3629 -1.1203
  832MOL0     H 9789  -0.390  12.156  -0.506 -0.9949  0.5388 -3.3671
  832MOL0     H 9790  -0.530  12.261  -0.683  0.3941 -0.0642 -1.9781
  832MOL0     H 9791  -0.490  12.422  -0.716  1.1046 -2.9947 -0.7886
  832MOL0     H 9792  -0.730  12.360  -0.775 -0.4208 -1.3076  0.7413
  832MOL0     H 9793  -0.721  12.496  -0.657  3.3249  0.6577 -1.6294
  832MOL0     H 9794  -0.755  12.306  -0.478 -2.2402 -0.8406  1.0599
  832MOL0     H 9795  -0.811  12.216  -0.617 -0.7968 -0.4252  0.9120
  832MOL0     H 9796  -1.007  12.357  -0.503  1.0577 -1.3091  0.9449
  832MOL0     H 9797  -0.914  12.507  -0.547 -1.4229  0.9495  2.1465
  832MOL0     H 9798  -1.023  12.278  -0.723  2.1343 -0.8963  0.8207
  832MOL0     H 9799  -0.932  12.412  -0.789  1.9582 -3.6356  0.9558
  832MOL0     H 9800  -1.127  12.561  -0.673  2.7686 -0.7523  1.4746
  832MOL0     H 9801  -1.203  12.402  -0.646  0.1750 -4.7763 -3.3473
  832MOL0     H 9802  -1.186  12.522  -0.921 -2.3642 -1.9231 -2.0289
  832MOL0     H 9803  -1.216  12.353  -0.885 -1.9453  0.3263 -1.4115
  832MOL0     H 9804  -1.410  12.440  -0.735 -1.4374 -0.6430 -0.7780
  832MOL0     H 9805  -1.433  12.431  -0.902 -1.6768  1.9905 -0.5384
  832MOL0     H 9806  -0.365  12.574  -0.456 -1.3895  0.4713 -2.9886
  832MOL0     H 9807  -0.110  12.563  -0.404 -0.0395  0.0264  1.4074
  832MOL0     H 9808   0.183  12.252  -0.228 -0.3025 -0.0518  0.2621
  832MOL0     H 9809   0.409  12.157  -0.134  1.9923 -4.2078 -0.7414
  832MOL0     H 9810   0.722  11.147   0.485 -0.7562  0.4724 -0.1616
  832MOL0     H 9811   0.503  11.106   0.543  0.1072 -0.9080  0.1539
  832MOL0     H 9812   0.214  10.957   0.933 -2.8785 -2.1763  0.5558
  832MOL0     H 9813   0.007  10.879   0.987  3.1102 -0.2414  0.8581
  832MOL0     H 9814  -0.402  10.951   0.919  1.1690 -2.7913  1.0634
  832MOL0     H 9815  -0.345  11.125   0.902  0.6312  0.5920  2.3768
  832MOL0     H 9816  -0.426  11.002   1.154 -0.6748 -1.3043 -2.8703
  832MOL0     H 9817  -0.332  11.151   1.136  2.6565 -1.7276 -2.8477
  832MOL0     H 9818  -0.531  11.225   0.982 -3.1500 -0.9027 -1.5596
  832MOL0     H 9819  -0.591  11.192   1.148 -1.7883 -1.1572 -0.4019
  832MOL0     H 9820  -0.604  11.021   0.906  1.6000 -1.8380  1.0355
  832MOL0     H 9821  -0.632  10.952   1.056  0.3054  0.7577  1.4960
  832MOL0     H 9822  -0.964  11.211   1.003 -0.9897 -2.3418 -0.1414
  832MOL0     H 9823  -0.178  11.229   0.835  1.2329  3.7777  4.2376
  832MOL0     H 9824   0.039  11.297   0.746  3.1486 -0.5694 -1.2084
  833MOL0     O 9825   0.417   1.498   2.166  0.0440  0.0500  0.0415
  833MOL0     C 9826   0.429   1.617   2.165 -0.2764 -0.7998  0.3791
  833MOL0     O 9827   0.331   1.714   2.176  0.0629 -0.0971 -0.5279
  833MOL0     C 9828   0.200   1.685   2.179  0.6637  0.5639  0.0883
  833MOL0     C 9829   0.118   1.792   2.220 -0.8737 -0.0941  0.2642
  833MOL0     C 9830  -0.020   1.773   2.221  0.1260 -0.0814  0.4495
  833MOL0     C 9831  -0.075   1.656   2.177 -0.7999  0.1328  0.3092
  833MOL0     O 9832  -0.215   1.651   2.190 -0.4202  0.2922  0.7385
  833MOL0     C 9833  -0.288   1.548   2.127 -0.0904  0.5793 -0.2663
  833MOL0     C 9834  -0.431   1.567   2.159  0.0715 -0.8068  0.5851
  833MOL0     C 9835  -0.473   1.636   2.285 -0.3192 -0.2004 -0.1281
  833MOL0     C 9836  -0.620   1.632   2.313 -0.7459 -0.4906  0.7267
  833MOL0     C 9837  -0.657   1.710   2.444 -0.3871  0.2223 -0.2916
  833MOL0     C 9838  -0.630   1.630   2.575  0.0128 -0.8696  0.1500
  833MOL0     C 9839  -0.694   1.699   2.700 -0.1656  0.6808  0.4383
  833MOL0     C 9840  -0.654   1.623   2.821 -0.3867 -0.1510  0.4738
  833MOL0     N 9841  -0.533   1.674   2.885  0.2057 -0.0140  0.4332
  833MOL0     C 9842  -0.410   1.602   2.874 -0.3140 -0.1463 -0.0239
  833MOL0     C 9843  -0.318   1.676   2.947 -0.5699  1.0420  0.0239
  833MOL0     C 9844  -0.159   1.660   2.958 -0.4094 -0.2197 -0.2476
  833MOL0     C 9845  -0.129   1.613   3.103 -0.6272  0.4450  0.0156
  833MOL0     C 9846   0.015   1.659   3.145 -0.2677  0.2803  0.6677
  833MOL0     C 9847   0.118   1.641   3.037  0.1222 -0.7756  0.5190
  833MOL0     O 9848   0.241   1.652   3.112  0.4165  0.6320 -1.0721
  833MOL0     C 9849   0.353   1.620   3.045 -0.1548  0.5208  0.1721
  833MOL0     C 9850   0.368   1.620   2.908  0.7706 -0.6261  0.4471
  833MOL0     C 9851   0.497   1.587   2.853  0.2831  0.1643  0.7224
  833MOL0     C 9852   0.600   1.546   2.933 -0.6165 -0.0782 -0.9761
  833MOL0     C 9853   0.729   1.492   2.875 -0.0291 -0.0051  1.6505
  833MOL0     O 9854   0.830   1.466   2.968  0.4641  0.6159  0.4518
  833MOL0     C 9855   0.958   1.451   2.927 -0.0532 -0.3141  0.6256
  833MOL0     C 9856   1.007   1.340   2.849  0.8402 -0.4520 -0.1044
  833MOL0     C 9857   1.140   1.338   2.810  0.8526 -0.2984  0.4020
  833MOL0     C 9858   1.235   1.433   2.856 -0.1967 -0.3802  1.0187
  833MOL0     O 9859   1.364   1.430   2.810  0.0405  0.3884 -0.3424
  833MOL0     C 9860   1.457   1.474   2.906 -0.6113 -0.6397 -0.4952
  833MOL0     C 9861   1.591   1.405   2.857  0.5815  0.8590 -0.7105
  833MOL0     C 9862   1.651   1.467   2.730  0.0078 -0.9866 -0.1010
  833MOL0     C 9863   1.794   1.422   2.694  0.5303 -0.0038  0.7254
  833MOL0     C 9864   1.832   1.273   2.666 -0.0822 -0.3430  0.0920
  833MOL0     C 9865   1.955   1.273   2.571 -0.2547  0.8404 -0.1260
  833MOL0     C 9866   2.044   1.148   2.563 -0.0337 -0.0876 -0.4766
  833MOL0     C 9867   1.962   1.023   2.535  0.2415  0.6454  0.4566
  833MOL0    Cl 9868   2.069   0.899   2.500 -0.0932 -0.2516 -0.0030
  833MOL0     C 9869   1.187   1.543   2.929  0.9831  0.1384  0.2210
  833MOL0     C 9870   1.051   1.549   2.973 -0.6119 -0.6847 -0.0241
  833MOL0     O 9871   0.736   1.469   2.754 -0.3494 -0.2599  0.3707
  833MOL0     C 9872   0.588   1.563   3.070 -0.4906  0.3023 -0.4382
  833MOL0     C 9873   0.461   1.594   3.122  0.4667 -0.0782 -0.0096
  833MOL0     N 9874  -0.387   1.786   2.988 -0.5640 -0.0839 -0.3486
  833MOL0     N 9875  -0.513   1.789   2.950 -0.2077 -0.3485  0.8592
  833MOL0     C 9876   0.004   1.548   2.126  0.8387  1.0349 -0.7517
  833MOL0     C 9877   0.145   1.570   2.126 -0.1540 -0.3158  0.0142
  833MOL0     C 9878   0.567   1.680   2.156 -0.7536 -0.2910 -0.7481
  833MOL0     C 9879   0.674   1.598   2.143  0.0112 -0.4804  0.0101
  833MOL0     C 9880   0.803   1.658   2.134  0.1246  0.7823 -0.2283
  833MOL0     C 9881   0.821   1.794   2.166  0.0845 -0.1727  1.7299
  833MOL0     O 9882   0.954   1.843   2.177  0.6771  0.1353 -0.1953
  833MOL0     C 9883   0.985   1.980   2.193 -0.1229 -0.1344 -0.0634
  833MOL0     C 9884   1.141   1.998   2.201  0.1741  0.9509 -0.0595
  833MOL0     C 9885   1.213   1.886   2.287 -0.5582  0.6553  0.5381
  833MOL0     C 9886   1.358   1.869   2.249 -0.1711 -0.6534  0.2945
  833MOL0     C 9887   1.372   1.773   2.144  0.5223 -0.1079  0.0730
  833MOL0     C 9888   1.398   1.700   2.047 -0.4145  0.4863  0.6818
  833MOL0     C 9889   0.708   1.874   2.180  0.3038  0.3074 -0.1257
  833MOL0     C 9890   0.583   1.817   2.171 -0.0368  1.2174  0.7075
  833MOL0     H 9891   0.163   1.890   2.231  2.1491 -0.8528 -3.2531
  833MOL0     H 9892  -0.091   1.848   2.254 -0.3452 -0.2200 -0.2382
  833MOL0     H 9893  -0.253   1.457   2.177  0.8989  1.5103  0.7814
  833MOL0     H 9894  -0.274   1.549   2.018 -0.0920  2.5124 -0.2757
  833MOL0     H 9895  -0.478   1.469   2.167  1.1375 -1.2765  1.2626
  833MOL0     H 9896  -0.470   1.616   2.068  2.0041 -1.3799 -0.6133
  833MOL0     H 9897  -0.439   1.739   2.277  1.9708 -1.0477 -3.0238
  833MOL0     H 9898  -0.420   1.598   2.373  1.3734 -0.8483 -1.3638
  833MOL0     H 9899  -0.670   1.685   2.231 -1.5755 -0.0991  1.4718
  833MOL0     H 9900  -0.666   1.533   2.309 -2.1063  0.1463 -3.0331
  833MOL0     H 9901  -0.762   1.740   2.442  0.0414  1.8622  0.5777
  833MOL0     H 9902  -0.601   1.803   2.442 -0.0846  0.2932  3.7309
  833MOL0     H 9903  -0.521   1.621   2.579  0.3245 -0.0465 -3.2793
  833MOL0     H 9904  -0.670   1.529   2.564  0.5223 -1.1149  0.5140
  833MOL0     H 9905  -0.657   1.802   2.705 -2.5434  1.5227  2.8629
  833MOL0     H 9906  -0.803   1.704   2.694 -0.0920  1.6851 -0.4157
  833MOL0     H 9907  -0.644   1.520   2.786 -4.9229  0.0492 -2.1802
  833MOL0     H 9908  -0.725   1.614   2.904 -0.0714 -1.7050  0.6090
  833MOL0     H 9909  -0.389   1.522   2.804 -0.9261  0.7839 -1.3075
  833MOL0     H 9910  -0.125   1.764   2.951  4.6941 -1.4813  1.1406
  833MOL0     H 9911  -0.108   1.601   2.882 -0.3458 -1.1230  0.4816
  833MOL0     H 9912  -0.134   1.504   3.118 -1.1489  0.4408 -0.1644
  833MOL0     H 9913  -0.202   1.657   3.172 -2.4618 -0.3350 -1.3499
  833MOL0     H 9914  -0.004   1.764   3.169 -3.8133 -0.2545  0.8069
  833MOL0     H 9915   0.055   1.617   3.237  1.2751 -0.4134 -0.2873
  833MOL0     H 9916   0.113   1.714   2.955 -0.6292 -1.9066 -0.4684
  833MOL0     H 9917   0.103   1.545   2.988  0.7559  0.1615 -1.6393
  833MOL0     H 9918   0.286   1.651   2.844  0.5417 -1.0036  0.5541
  833MOL0     H 9919   0.500   1.578   2.745  1.3946 -2.7065  0.8943
  833MOL0     H 9920   0.928   1.272   2.819 -0.5079  1.5212 -1.2715
  833MOL0     H 9921   1.172   1.258   2.743  1.3599  1.7837 -1.9785
  833MOL0     H 9922   1.426   1.425   2.999 -3.4867 -2.1433 -2.0984
  833MOL0     H 9923   1.461   1.583   2.911 -2.8629 -0.4880 -0.6537
  833MOL0     H 9924   1.568   1.302   2.830  1.4581  1.1699 -2.8538
  833MOL0     H 9925   1.667   1.403   2.935  1.5167  0.2092 -1.6046
  833MOL0     H 9926   1.671   1.572   2.750  1.4238 -1.4442  1.1261
  833MOL0     H 9927   1.579   1.435   2.654  0.0991  0.5635 -0.8851
  833MOL0     H 9928   1.811   1.477   2.601  3.7802  3.8255  3.2544
  833MOL0     H 9929   1.871   1.465   2.758  3.1830 -2.3163 -0.7202
  833MOL0     H 9930   1.747   1.218   2.624 -0.0614  0.1212 -0.5672
  833MOL0     H 9931   1.854   1.229   2.764 -0.3003  0.0689  0.3295
  833MOL0     H 9932   2.026   1.349   2.603 -1.5890  1.3457  1.7674
  833MOL0     H 9933   1.915   1.290   2.470  2.5723  1.3056 -1.2635
  833MOL0     H 9934   2.134   1.149   2.501  1.2287  2.5028  1.2698
  833MOL0     H 9935   2.102   1.144   2.655  0.7484  3.7395 -0.6568
  833MOL0     H 9936   1.909   1.024   2.439  3.5405  0.0927 -1.5331
  833MOL0     H 9937   1.898   1.004   2.621  0.5249 -1.3709  0.2531
  833MOL0     H 9938   1.249   1.628   2.957 -0.8417  0.8201  2.5551
  833MOL0     H 9939   1.027   1.631   3.039  1.6452 -1.0885  1.4239
  833MOL0     H 9940   0.675   1.570   3.135 -0.8522 -0.0881  0.0949
  833MOL0     H 9941   0.450   1.605   3.229 -0.3990 -0.7983 -0.0075
  833MOL0     H 9942  -0.034   1.452   2.092  1.2701  0.7037 -0.3051
  833MOL0     H 9943   0.205   1.493   2.080  1.6254  0.2366  1.2878
  833MOL0     H 9944   0.659   1.491   2.133 -2.1976 -0.2071  0.0070
  833MOL0     H 9945   0.893   1.600   2.117  0.3445 -0.0912  3.1883
  833MOL0     H 9946   0.937   2.014   2.285  0.8276 -0.5197  0.5968
  833MOL0     H 9947   0.946   2.036   2.108 -0.1701  0.4706  0.3453
  833MOL0     H 9948   1.181   1.988   2.100  1.3981  0.6438  0.4432
  833MOL0     H 9949   1.165   2.096   2.243 -0.2592  0.6449  0.9417
  833MOL0     H 9950   1.165   1.788   2.288 -0.7080  0.4900 -3.7345
  833MOL0     H 9951   1.201   1.935   2.384  2.7641  1.4363  0.6860
  833MOL0     H 9952   1.416   1.959   2.228  0.2714 -1.1061 -0.4662
  833MOL0     H 9953   1.411   1.830   2.336  0.1167  1.1193  0.9451
  833MOL0     H 9954   1.415   1.635   1.964 -2.6503 -2.0534  2.0991
  833MOL0     H 9955   0.724   1.981   2.189 -2.8314  0.8288  0.3420
  833MOL0     H 9956   0.500   1.884   2.150  1.3881  2.3077 -1.8146
  834MOL0     O 9957   7.015   8.967   3.469 -0.2290 -0.0127 -0.5917
  834MOL0     C 9958   7.036   9.040   3.373 -0.1432 -0.0113  0.2475
  834MOL0     O 9959   6.940   9.117   3.307  0.0830 -0.7061  0.0196
  834MOL0     C 9960   6.820   9.146   3.362  0.3098  1.2133 -0.0303
  834MOL0     C 9961   6.796   9.167   3.495 -0.0279 -0.1399  0.8432
  834MOL0     C 9962   6.668   9.190   3.541  0.7155 -0.8159  0.3655
  834MOL0     C 9963   6.553   9.179   3.454 -0.5015 -0.0933  0.4005
  834MOL0     O 9964   6.424   9.181   3.493 -0.5316 -0.5074 -0.1065
  834MOL0     C 9965   6.388   9.204   3.627 -1.0204 -0.3757 -0.3905
  834MOL0     C 9966   6.238   9.161   3.655 -0.1161 -0.7696 -0.2361
  834MOL0     C 9967   6.215   9.105   3.797 -0.2630 -0.0172 -0.5986
  834MOL0     C 9968   6.067   9.110   3.845  0.0838 -0.5772 -0.0817
  834MOL0     C 9969   6.054   9.233   3.944 -0.3637 -0.7759 -0.8855
  834MOL0     C 9970   5.911   9.235   4.017  0.8511 -0.0021 -1.1210
  834MOL0     C 9971   5.893   9.373   4.087 -0.6437 -0.9942  0.1879
  834MOL0     C 9972   5.900   9.489   3.995  0.1742 -0.5707 -0.4567
  834MOL0     N 9973   5.885   9.606   4.077  0.4126 -0.0063  0.1486
  834MOL0     C 9974   5.971   9.666   4.168  0.0897 -0.7386 -0.6834
  834MOL0     C 9975   5.900   9.762   4.225  0.1272 -0.1103 -0.0790
  834MOL0     C 9976   5.947   9.847   4.345  0.1432 -0.8952 -0.8063
  834MOL0     C 9977   5.998   9.995   4.307 -0.1274  0.4428 -0.2994
  834MOL0     C 9978   6.140   9.987   4.249 -0.0081 -0.6694 -0.4088
  834MOL0     C 9979   6.196  10.113   4.182 -0.5019  0.7589  0.3862
  834MOL0     O 9980   6.314  10.076   4.112 -1.0069  0.7260  0.7031
  834MOL0     C 9981   6.435  10.031   4.158  0.0304  0.5337  0.4867
  834MOL0     C 9982   6.523   9.959   4.077  0.3217 -0.2199 -0.0413
  834MOL0     C 9983   6.642   9.898   4.112 -0.5427  0.1909  0.5179
  834MOL0     C 9984   6.677   9.920   4.249 -0.9252 -0.0100  0.1640
  834MOL0     C 9985   6.809   9.868   4.292  0.4076  0.3561 -0.3816
  834MOL0     O 9986   6.881   9.789   4.202 -0.0146 -0.0844 -0.1104
  834MOL0     C 9987   7.008   9.756   4.252 -0.2948  0.3365  1.3381
  834MOL0     C 9988   7.105   9.850   4.277 -0.5697 -0.0675 -0.9675
  834MOL0     C 9989   7.224   9.809   4.335  0.6298 -1.1417  0.4200
  834MOL0     C 9990   7.240   9.671   4.361 -1.1775  0.2306 -0.2693
  834MOL0     O 9991   7.361   9.626   4.422 -0.4629 -0.2121  0.6339
  834MOL0     C 9992   7.356   9.587   4.563  1.1285 -0.4865 -0.4590
  834MOL0     C 9993   7.487   9.638   4.627 -0.0115  0.0862  0.3502
  834MOL0     C 9994   7.465   9.780   4.691 -0.4096 -0.2698 -0.5025
  834MOL0     C 9995   7.598   9.811   4.760  0.4079 -0.1957  0.0902
  834MOL0     C 9996   7.702   9.890   4.668  0.0907 -0.5104  1.0232
  834MOL0     C 9997   7.820   9.947   4.742 -0.6656 -0.4415 -0.7592
  834MOL0     C 9998   7.902  10.042   4.654 -0.4144 -0.1912 -0.5619
  834MOL0     C 9999   7.999  10.129   4.745 -0.3480 -0.0412 -0.0882
  834MOL0    Cl10000   8.093  10.221   4.623 -0.1694 -0.1027 -0.2053
  834MOL0     C10001   7.140   9.575   4.331 -1.0651 -0.0314  0.3906
  834MOL0     C10002   7.020   9.622   4.286 -0.7118 -0.3914 -0.8316
  834MOL0     O10003   6.833   9.894   4.412 -0.6745 -1.3863  0.0709
  834MOL0     C10004   6.599  10.003   4.331 -0.7705  0.1613 -0.5418
  834MOL0     C10005   6.479  10.049   4.290 -0.5286 -0.7261 -0.0385
  834MOL0     N10006   5.787   9.782   4.146 -0.1051 -0.1890 -0.1546
  834MOL0     N10007   5.773   9.686   4.062  0.1022  0.5319 -1.0651
  834MOL0     C10008   6.581   9.172   3.319 -0.5569 -0.5405 -0.2451
  834MOL0     C10009   6.713   9.141   3.271  0.0124  0.0431 -0.6090
  834MOL0     C10010   7.177   9.044   3.331  0.9820  0.9170  0.3071
  834MOL0     C10011   7.214   9.143   3.246  0.6080  0.4430 -0.0795
  834MOL0     C10012   7.350   9.169   3.227  0.3610 -0.0667 -0.4270
  834MOL0     C10013   7.449   9.083   3.287 -1.0399  0.0859  0.6782
  834MOL0     O10014   7.583   9.110   3.255 -0.0644 -0.1687 -0.1930
  834MOL0     C10015   7.689   9.091   3.355 -0.1427 -0.8204  0.7402
  834MOL0     C10016   7.681   9.211   3.447 -0.1462  0.5801  0.0482
  834MOL0     C10017   7.733   9.177   3.587  0.2323 -0.1160  0.0403
  834MOL0     C10018   7.760   9.301   3.669 -0.0396  0.2345  0.6146
  834MOL0     C10019   7.849   9.267   3.779  0.8760  0.1812 -0.7391
  834MOL0     C10020   7.918   9.249   3.880 -0.4792 -0.0006  0.4887
  834MOL0     C10021   7.405   8.981   3.365  0.0975 -0.3116  0.6265
  834MOL0     C10022   7.275   8.951   3.376  0.0389 -0.1455 -0.0003
  834MOL0     H10023   6.877   9.184   3.566 -0.3577  1.3803  0.8844
  834MOL0     H10024   6.666   9.233   3.641  0.7940 -0.2502  0.1230
  834MOL0     H10025   6.414   9.309   3.639  0.0671 -0.4086 -2.1733
  834MOL0     H10026   6.464   9.153   3.688  0.8045  1.5586 -0.9322
  834MOL0     H10027   6.215   9.084   3.581  0.7969 -0.8252 -0.4682
  834MOL0     H10028   6.172   9.246   3.632 -3.3827 -3.6455 -2.4879
  834MOL0     H10029   6.278   9.160   3.867 -1.7317  0.8316  0.1071
  834MOL0     H10030   6.257   9.004   3.785  0.5068 -0.3776  3.6454
  834MOL0     H10031   5.997   9.109   3.761  0.7946 -0.9351 -0.6769
  834MOL0     H10032   6.040   9.024   3.906 -2.8794  0.2474 -0.0695
  834MOL0     H10033   6.068   9.324   3.886 -3.8897  0.1806 -0.4526
  834MOL0     H10034   6.128   9.248   4.024 -0.2755  0.5450 -1.2030
  834MOL0     H10035   5.913   9.153   4.089  0.5728 -0.0246 -1.1379
  834MOL0     H10036   5.829   9.224   3.945 -0.0871  0.3842 -0.1525
  834MOL0     H10037   5.797   9.365   4.139 -1.4678 -2.4129 -1.4220
  834MOL0     H10038   5.970   9.379   4.164  0.8442 -3.1193 -1.0471
  834MOL0     H10039   5.822   9.488   3.917 -0.1603  2.8588 -0.2985
  834MOL0     H10040   5.999   9.499   3.950 -0.5972  1.0764 -1.8898
  834MOL0     H10041   6.061   9.628   4.214 -0.5660 -0.7492  0.6113
  834MOL0     H10042   6.024   9.802   4.408 -1.6745 -1.0504  1.4178
  834MOL0     H10043   5.870   9.856   4.423  3.3360 -0.4620  2.5541
  834MOL0     H10044   5.984  10.057   4.396 -2.5827  0.1671 -0.4103
  834MOL0     H10045   5.935  10.035   4.228 -0.7746 -1.4920 -0.8328
  834MOL0     H10046   6.213   9.960   4.326 -1.4052 -2.5683  0.3262
  834MOL0     H10047   6.139   9.904   4.177  1.5642  0.1426 -1.4190
  834MOL0     H10048   6.216  10.203   4.242  1.8862 -0.3344  1.3650
  834MOL0     H10049   6.126  10.151   4.108 -1.5672  3.1140  2.4508
  834MOL0     H10050   6.491   9.950   3.973  0.4682  3.0539 -0.4855
  834MOL0     H10051   6.703   9.840   4.044 -1.5760 -1.2487  0.7665
  834MOL0     H10052   7.095   9.953   4.246  0.5639 -0.5941 -3.3811
  834MOL0     H10053   7.296   9.878   4.376 -1.4688  1.2506  0.3606
  834MOL0     H10054   7.337   9.480   4.557  4.7818 -1.2081 -1.7558
  834MOL0     H10055   7.272   9.631   4.618 -2.3386 -3.9683 -2.5000
  834MOL0     H10056   7.558   9.635   4.544  0.6780 -2.7623  0.9354
  834MOL0     H10057   7.516   9.563   4.701 -0.5119 -0.6939 -0.2281
  834MOL0     H10058   7.388   9.801   4.765 -1.4492 -0.6799 -1.4376
  834MOL0     H10059   7.437   9.852   4.613  0.0169  0.1476 -0.2753
  834MOL0     H10060   7.577   9.877   4.845  1.8344  1.2360 -0.6277
  834MOL0     H10061   7.653   9.719   4.783 -0.6167 -1.1557 -1.1869
  834MOL0     H10062   7.649   9.967   4.610  3.1317 -0.8435 -2.5703
  834MOL0     H10063   7.738   9.822   4.590 -0.1907  0.8575 -0.3621
  834MOL0     H10064   7.873   9.861   4.783  1.8325  1.5906  0.6005
  834MOL0     H10065   7.782  10.010   4.823 -0.9236 -3.9486  2.0827
  834MOL0     H10066   7.957   9.991   4.574  0.1391 -1.7091  0.7240
  834MOL0     H10067   7.840  10.114   4.599  1.5905  0.3430 -2.2272
  834MOL0     H10068   8.058  10.052   4.797 -0.4562 -0.3818 -0.4644
  834MOL0     H10069   7.944  10.195   4.812 -0.8124  0.7811 -1.2536
  834MOL0     H10070   7.173   9.474   4.354  1.2737  1.0259  2.0087
  834MOL0     H10071   6.930   9.561   4.282 -0.7975 -0.6203  2.3238
  834MOL0     H10072   6.627  10.023   4.434 -1.6549  0.0618 -0.2753
  834MOL0     H10073   6.408  10.099   4.355 -1.5328 -0.4424 -1.3077
  834MOL0     H10074   6.500   9.184   3.247  2.8987  2.7135 -4.0368
  834MOL0     H10075   6.732   9.121   3.166  0.0827 -1.5782 -0.3140
  834MOL0     H10076   7.147   9.220   3.209  2.8112  2.4994 -0.1036
  834MOL0     H10077   7.391   9.251   3.170  0.8636 -1.7317 -2.6250
  834MOL0     H10078   7.786   9.091   3.304 -0.2792 -3.0016  0.3885
  834MOL0     H10079   7.678   9.000   3.414 -1.7300 -1.7433 -0.8545
  834MOL0     H10080   7.730   9.304   3.416 -1.2726  1.0897 -0.2558
  834MOL0     H10081   7.578   9.246   3.446 -0.8353 -1.1000  2.6740
  834MOL0     H10082   7.826   9.121   3.577 -0.7271 -1.6707 -0.5105
  834MOL0     H10083   7.674   9.102   3.639  2.0733 -1.4843  0.2567
  834MOL0     H10084   7.804   9.378   3.605  1.1062 -0.3022  0.7353
  834MOL0     H10085   7.669   9.349   3.705 -0.7406 -1.0638  0.6567
  834MOL0     H10086   7.970   9.227   3.971 -2.0105 -4.3033  0.5494
  834MOL0     H10087   7.475   8.900   3.387 -0.3359  0.0184  3.7064
  834MOL0     H10088   7.231   8.878   3.442  1.2413 -1.0482 -0.1577
  835MOL0     O10089   1.763   3.891   4.965  0.4717 -0.6212  0.2221
  835MOL0     C10090   1.759   3.886   5.087  0.3967  0.6629  0.8214
  835MOL0     O10091   1.662   3.818   5.152  0.0899 -0.4719  0.1590
  835MOL0     C10092   1.562   3.747   5.088 -0.1722 -0.3773  0.0138
  835MOL0     C10093   1.569   3.654   4.983  0.2061 -0.0431 -0.4564
  835MOL0     C10094   1.454   3.580   4.941  0.7686 -0.6826 -0.4774
  835MOL0     C10095   1.326   3.601   5.006  0.0784 -0.3140  0.3473
  835MOL0     O10096   1.217   3.537   4.965  0.3460  0.6963 -0.3554
  835MOL0     C10097   1.222   3.388   4.970  0.4809  0.1770 -0.9335
  835MOL0     C10098   1.248   3.329   5.107  0.2617 -0.3204 -0.8655
  835MOL0     C10099   1.135   3.325   5.215  0.0163  0.0624  0.8750
  835MOL0     C10100   1.174   3.274   5.348 -0.2473 -0.0283  0.0152
  835MOL0     C10101   1.056   3.272   5.439 -0.1724  0.1902  0.5036
  835MOL0     C10102   1.083   3.180   5.565 -0.6531 -0.8433  0.0928
  835MOL0     C10103   1.175   3.264   5.662 -0.7793 -0.5930  0.1443
  835MOL0     C10104   1.248   3.171   5.760  0.5971  0.8447 -0.6598
  835MOL0     N10105   1.372   3.223   5.823  1.2526 -0.1186  0.4545
  835MOL0     C10106   1.485   3.250   5.755  0.3320 -0.3745  0.0366
  835MOL0     C10107   1.580   3.277   5.850 -0.3716  0.4735  0.3773
  835MOL0     C10108   1.729   3.285   5.820 -0.5180  0.2044  0.3710
  835MOL0     C10109   1.806   3.160   5.855 -0.4359  0.9912  0.1517
  835MOL0     C10110   1.954   3.195   5.858  0.0432  0.5498 -0.3648
  835MOL0     C10111   2.012   3.256   5.727  0.1334  0.0031  0.4715
  835MOL0     O10112   2.158   3.265   5.727  0.4314  0.2799  0.0628
  835MOL0     C10113   2.211   3.364   5.816 -0.3625  0.7560 -0.1725
  835MOL0     C10114   2.348   3.366   5.819  0.3608 -0.1177 -0.7787
  835MOL0     C10115   2.424   3.440   5.914  0.3324  1.1362 -0.5401
  835MOL0     C10116   2.356   3.529   5.994  0.8876 -0.4132 -0.1668
  835MOL0     C10117   2.434   3.600   6.098  0.7089  0.4678 -0.6903
  835MOL0     O10118   2.568   3.556   6.122  0.3371  0.3030  0.9707
  835MOL0     C10119   2.648   3.622   6.203 -0.1539  0.2160 -0.2619
  835MOL0     C10120   2.788   3.619   6.183  0.2403  0.4575  0.3343
  835MOL0     C10121   2.880   3.653   6.285  0.5804  0.4749 -0.2895
  835MOL0     C10122   2.830   3.689   6.410 -1.3022 -0.3420  0.1587
  835MOL0     O10123   2.909   3.718   6.523 -0.1448  0.0964 -0.1011
  835MOL0     C10124   3.051   3.672   6.526  0.3396 -0.9661  0.2459
  835MOL0     C10125   3.074   3.525   6.554  0.0979 -0.0501  0.8642
  835MOL0     C10126   3.228   3.497   6.525 -0.0594 -0.3705  0.7155
  835MOL0     C10127   3.335   3.590   6.595 -0.5054 -1.4635 -1.0418
  835MOL0     C10128   3.461   3.580   6.513  0.6258  0.5250 -0.2399
  835MOL0     C10129   3.537   3.458   6.531  0.0060  0.5142  0.1936
  835MOL0     C10130   3.687   3.464   6.492  0.4486  0.3057  0.5346
  835MOL0     C10131   3.729   3.315   6.478 -0.1304 -0.3535 -0.2188
  835MOL0    Cl10132   3.693   3.222   6.619 -0.2422  0.1326  0.3602
  835MOL0     C10133   2.699   3.708   6.424 -0.6002  0.5132 -0.7653
  835MOL0     C10134   2.610   3.665   6.330 -0.1849 -0.3206  0.6427
  835MOL0     O10135   2.371   3.672   6.169  0.4951  0.3879  0.5339
  835MOL0     C10136   2.218   3.550   5.983 -0.2548 -0.4662 -0.3433
  835MOL0     C10137   2.145   3.469   5.891  0.1710 -0.0421  0.5830
  835MOL0     N10138   1.522   3.256   5.974  0.2443 -0.4940  0.1552
  835MOL0     N10139   1.389   3.231   5.959 -0.1413  0.0979 -0.1490
  835MOL0     C10140   1.331   3.690   5.116  0.8764  0.3361 -0.4572
  835MOL0     C10141   1.443   3.757   5.151  0.4824  0.8705  0.3818
  835MOL0     C10142   1.870   3.941   5.172  0.3259  0.7588  0.3021
  835MOL0     C10143   1.884   3.921   5.308  0.4156  0.5962  0.6637
  835MOL0     C10144   2.002   3.966   5.370  0.1934 -0.6928  0.6915
  835MOL0     C10145   2.096   4.043   5.304 -0.5090  0.1779  0.4755
  835MOL0     O10146   2.205   4.097   5.354 -0.0408  0.0741 -0.1459
  835MOL0     C10147   2.226   4.074   5.502  0.3391  0.0692  0.5416
  835MOL0     C10148   2.329   4.192   5.540 -0.2260  0.8344 -0.2120
  835MOL0     C10149   2.465   4.163   5.483 -0.2837 -0.6968  0.1195
  835MOL0     C10150   2.566   4.262   5.549 -0.3583  0.3299 -0.7816
  835MOL0     C10151   2.702   4.227   5.513  0.1046  0.5530  0.0220
  835MOL0     C10152   2.823   4.199   5.492  0.4216 -0.4126 -0.3452
  835MOL0     C10153   2.085   4.057   5.169 -0.6837  1.3801  0.9317
  835MOL0     C10154   1.972   4.014   5.101  0.8123  0.5780 -0.4787
  835MOL0     H10155   1.658   3.649   4.922  0.2202 -2.0439 -0.3453
  835MOL0     H10156   1.480   3.515   4.858  0.1318  0.2391 -1.4335
  835MOL0     H10157   1.300   3.366   4.898  0.9387  0.7326 -0.6239
  835MOL0     H10158   1.122   3.353   4.944 -1.3312  2.9689  1.5581
  835MOL0     H10159   1.334   3.379   5.153  1.5316 -3.9289  1.0780
  835MOL0     H10160   1.270   3.223   5.092  2.0919  0.1622 -1.8319
  835MOL0     H10161   1.055   3.266   5.170  0.4001  0.9589 -1.0618
  835MOL0     H10162   1.094   3.425   5.232  0.8399  0.5830 -0.0984
  835MOL0     H10163   1.207   3.171   5.332  2.1955  0.4806  1.2847
  835MOL0     H10164   1.247   3.344   5.390 -0.6208  0.1783  0.3241
  835MOL0     H10165   0.973   3.237   5.377 -1.2579  0.9626  1.4542
  835MOL0     H10166   1.031   3.370   5.483 -0.4819 -0.6500  2.3038
  835MOL0     H10167   1.135   3.090   5.531 -0.8165 -0.4223 -1.3844
  835MOL0     H10168   0.991   3.160   5.621 -1.2228  1.8481  0.2469
  835MOL0     H10169   1.251   3.320   5.606 -1.3070 -1.4706 -1.5234
  835MOL0     H10170   1.117   3.343   5.710 -0.8910 -0.0201 -0.8858
  835MOL0     H10171   1.279   3.080   5.707  0.0546  2.6830 -4.4837
  835MOL0     H10172   1.193   3.159   5.853  1.2761  0.0435 -0.3500
  835MOL0     H10173   1.500   3.245   5.648 -1.8792  0.2529 -0.3496
  835MOL0     H10174   1.764   3.370   5.879  4.4322  0.7672 -2.8263
  835MOL0     H10175   1.744   3.319   5.717  1.5921  1.7643  1.1306
  835MOL0     H10176   1.789   3.075   5.789 -3.7213  2.1089 -0.5932
  835MOL0     H10177   1.774   3.114   5.949 -2.7232 -1.2133 -1.5593
  835MOL0     H10178   1.990   3.273   5.926  0.0948  2.4231 -2.3968
  835MOL0     H10179   2.009   3.103   5.878  1.1931  1.3128  0.1522
  835MOL0     H10180   1.966   3.355   5.725 -0.9065 -0.3807  2.4652
  835MOL0     H10181   1.972   3.199   5.643 -1.0041 -0.1941  1.1209
  835MOL0     H10182   2.400   3.291   5.761  0.8136  0.8918 -1.7003
  835MOL0     H10183   2.529   3.413   5.924  0.2757  1.0356 -0.1857
  835MOL0     H10184   2.821   3.574   6.090 -0.3401  1.2126 -0.2484
  835MOL0     H10185   2.987   3.643   6.270  1.0249  1.1789  1.9920
  835MOL0     H10186   3.097   3.732   6.605  0.1724 -0.7685  0.1960
  835MOL0     H10187   3.094   3.690   6.427 -3.0636 -0.8840 -1.3810
  835MOL0     H10188   3.011   3.473   6.481  1.1320  0.9450 -0.8171
  835MOL0     H10189   3.027   3.505   6.650 -1.0813 -0.8240  0.1424
  835MOL0     H10190   3.235   3.505   6.416 -0.9377  0.9440  0.7332
  835MOL0     H10191   3.251   3.392   6.546 -1.2391 -0.3154  2.4699
  835MOL0     H10192   3.315   3.697   6.581 -0.3226 -1.6866 -3.4776
  835MOL0     H10193   3.336   3.565   6.702 -1.0359 -2.3531 -1.2327
  835MOL0     H10194   3.532   3.659   6.538  2.8196 -1.8433  1.6400
  835MOL0     H10195   3.434   3.592   6.408  1.7222  0.3050 -0.5708
  835MOL0     H10196   3.488   3.377   6.476 -0.7836  1.2828 -0.2445
  835MOL0     H10197   3.528   3.424   6.634  3.5706  0.4087  0.5997
  835MOL0     H10198   3.698   3.510   6.394  0.6802  1.2488  0.9916
  835MOL0     H10199   3.749   3.511   6.569  0.2317 -2.1485  2.3378
  835MOL0     H10200   3.837   3.317   6.460  0.0121  3.4286  0.2102
  835MOL0     H10201   3.668   3.266   6.401 -1.6155  1.2649 -0.1285
  835MOL0     H10202   2.660   3.755   6.514  2.7589  3.7615 -0.7639
  835MOL0     H10203   2.509   3.671   6.369 -0.3687 -0.1548  0.1402
  835MOL0     H10204   2.174   3.630   6.040  0.8434  0.9579 -1.4200
  835MOL0     H10205   2.037   3.469   5.895  0.1312 -2.5339  1.5247
  835MOL0     H10206   1.244   3.701   5.180 -0.2715 -1.8678 -1.5470
  835MOL0     H10207   1.446   3.808   5.247  1.3437  3.1906 -0.7962
  835MOL0     H10208   1.807   3.867   5.362 -1.5755  1.5229 -1.0920
  835MOL0     H10209   2.020   3.944   5.474  1.2100  1.1796  0.9699
  835MOL0     H10210   2.288   3.986   5.516  0.1431 -0.2658 -0.5729
  835MOL0     H10211   2.139   4.074   5.568  0.2670 -0.3438  0.4444
  835MOL0     H10212   2.295   4.289   5.501 -0.6385  0.3833 -0.9938
  835MOL0     H10213   2.333   4.193   5.650 -1.9192  1.4598 -0.1228
  835MOL0     H10214   2.469   4.174   5.375  0.7161 -0.6408  0.1533
  835MOL0     H10215   2.497   4.062   5.509 -3.7527 -2.0921 -0.4249
  835MOL0     H10216   2.538   4.359   5.507  2.1890  1.4117 -0.1255
  835MOL0     H10217   2.556   4.289   5.654  2.1704  2.7925 -1.0824
  835MOL0     H10218   2.923   4.184   5.456 -0.5652 -1.1669 -2.9959
  835MOL0     H10219   2.159   4.110   5.109 -2.2305 -0.0250 -2.4838
  835MOL0     H10220   1.951   4.037   4.997  2.6597  2.1675 -0.5521
  836MOL0     O10221   2.464   5.649   1.376  0.4677 -0.4563  0.0485
  836MOL0     C10222   2.439   5.556   1.305  0.0445  0.4921  0.3830
  836MOL0     O10223   2.327   5.532   1.233  0.4055  0.0854 -0.5166
  836MOL0     C10224   2.230   5.625   1.209 -0.3489  0.9062 -0.6478
  836MOL0     C10225   2.173   5.604   1.084 -1.1955 -0.5293 -0.3596
  836MOL0     C10226   2.073   5.690   1.036 -0.1056 -1.1491 -0.2517
  836MOL0     C10227   2.022   5.793   1.124  0.3979 -0.4867 -0.1815
  836MOL0     O10228   1.924   5.885   1.088 -0.4067 -0.4273  0.1334
  836MOL0     C10229   1.835   5.853   0.984 -0.1100  0.2911  0.0752
  836MOL0     C10230   1.733   5.963   0.974 -0.0344 -0.8927  0.1873
  836MOL0     C10231   1.627   5.967   1.088 -0.4157 -0.7854  0.2938
  836MOL0     C10232   1.552   6.103   1.082 -0.2685 -0.1126 -0.9272
  836MOL0     C10233   1.464   6.128   0.958  0.0404  0.9486 -0.2967
  836MOL0     C10234   1.395   6.261   0.982  0.5221 -0.7460 -0.3582
  836MOL0     C10235   1.323   6.293   0.845 -0.0104  0.4719  0.4985
  836MOL0     C10236   1.408   6.319   0.711  0.2183  0.4900 -0.0188
  836MOL0     N10237   1.325   6.367   0.592  0.5889  0.6022  0.2932
  836MOL0     C10238   1.243   6.291   0.510  0.5240 -0.6751 -0.1753
  836MOL0     C10239   1.215   6.384   0.414 -0.0162  0.0031 -0.4905
  836MOL0     C10240   1.136   6.335   0.285  0.4577 -0.1500 -0.3401
  836MOL0     C10241   0.978   6.353   0.307 -0.1565  0.5689  0.3463
  836MOL0     C10242   0.921   6.439   0.186  0.2173  0.3064  0.1388
  836MOL0     C10243   0.778   6.498   0.221 -0.7378  0.3024  0.0446
  836MOL0     O10244   0.688   6.389   0.228  0.2199 -0.4917  0.0997
  836MOL0     C10245   0.552   6.423   0.208 -0.6345  0.3100 -0.1542
  836MOL0     C10246   0.463   6.320   0.190  0.0410 -0.0529  0.0793
  836MOL0     C10247   0.329   6.327   0.181  0.0923 -0.3837  0.0375
  836MOL0     C10248   0.275   6.460   0.196 -0.2463 -0.1158  0.8835
  836MOL0     C10249   0.124   6.475   0.193  0.2750  0.4135  0.2568
  836MOL0     O10250   0.054   6.359   0.173  0.3829  0.5735  0.6087
  836MOL0     C10251  -0.084   6.361   0.166 -1.0805  0.2359  0.1573
  836MOL0     C10252  -0.138   6.399   0.041  0.3438  0.7142 -0.1542
  836MOL0     C10253  -0.274   6.391   0.009  1.0181 -0.9985  0.6892
  836MOL0     C10254  -0.367   6.367   0.113 -0.3475  1.3010 -0.3054
  836MOL0     O10255  -0.502   6.381   0.098 -0.2605 -0.0056 -0.4425
  836MOL0     C10256  -0.557   6.486   0.174 -0.0253 -0.1139 -0.1080
  836MOL0     C10257  -0.672   6.421   0.262 -0.7263  0.1152  0.1746
  836MOL0     C10258  -0.750   6.506   0.359  0.2561  0.2749 -0.1377
  836MOL0     C10259  -0.662   6.551   0.480  0.2891  0.7080  0.7242
  836MOL0     C10260  -0.764   6.640   0.553 -0.1027  0.3635  0.1523
  836MOL0     C10261  -0.695   6.685   0.681 -0.6528 -0.1322 -1.0836
  836MOL0     C10262  -0.564   6.754   0.652  0.7411 -0.0063 -0.3242
  836MOL0     C10263  -0.502   6.821   0.774 -0.3748 -0.4407 -0.4024
  836MOL0    Cl10264  -0.596   6.977   0.802  0.2887  0.3339  0.0130
  836MOL0     C10265  -0.320   6.325   0.238 -0.5072  0.3313 -0.0934
  836MOL0     C10266  -0.175   6.323   0.266  1.0128  0.5215 -0.5488
  836MOL0     O10267   0.067   6.582   0.215 -0.5929 -0.0564 -0.8215
  836MOL0     C10268   0.360   6.564   0.230  1.0642  0.1369 -0.0075
  836MOL0     C10269   0.502   6.551   0.236  0.6893  0.3407 -0.6020
  836MOL0     N10270   1.262   6.517   0.448 -0.5760 -0.4435 -0.4034
  836MOL0     N10271   1.326   6.492   0.559 -0.6829 -0.1575 -0.8383
  836MOL0     C10272   2.086   5.809   1.251 -0.4046  0.3498  0.2975
  836MOL0     C10273   2.186   5.726   1.301  0.4608  0.9505  1.0000
  836MOL0     C10274   2.549   5.454   1.298  0.4165 -0.2248  0.7587
  836MOL0     C10275   2.537   5.343   1.210  0.1815  0.3906  0.2197
  836MOL0     C10276   2.629   5.238   1.220  0.4367  0.5856 -0.4463
  836MOL0     C10277   2.739   5.228   1.311  0.7920 -0.4402  0.8393
  836MOL0     O10278   2.825   5.119   1.309 -0.1468  0.3000 -0.3068
  836MOL0     C10279   2.960   5.143   1.358  0.0113  0.7125  0.1167
  836MOL0     C10280   3.025   5.004   1.357 -0.1071 -0.2673  0.1956
  836MOL0     C10281   3.163   5.005   1.423 -0.2741 -0.0471  0.3141
  836MOL0     C10282   3.233   4.866   1.430  0.3657 -0.2821  0.3775
  836MOL0     C10283   3.374   4.890   1.460 -0.0191  0.0559 -0.2720
  836MOL0     C10284   3.497   4.905   1.486 -0.0751  0.5961 -1.2367
  836MOL0     C10285   2.755   5.338   1.380  0.4659 -1.0664 -0.2594
  836MOL0     C10286   2.659   5.447   1.388  0.2678  0.8344 -0.9041
  836MOL0     H10287   2.218   5.531   1.017 -1.4319  0.1345 -1.2678
  836MOL0     H10288   2.033   5.690   0.935 -1.3143  1.6116  0.1343
  836MOL0     H10289   1.794   5.753   0.998 -1.0722  0.6863  0.1457
  836MOL0     H10290   1.890   5.861   0.889  0.3061 -0.5118  0.2430
  836MOL0     H10291   1.674   5.960   0.882  1.9787 -4.2066 -1.1655
  836MOL0     H10292   1.785   6.059   0.974 -2.3831  0.5532 -3.0258
  836MOL0     H10293   1.667   5.945   1.187 -1.1090  0.4049  0.8662
  836MOL0     H10294   1.555   5.887   1.065 -0.7406 -0.2632 -0.5550
  836MOL0     H10295   1.499   6.108   1.178 -0.4856  1.9705 -1.1231
  836MOL0     H10296   1.630   6.179   1.080  2.0302 -2.3385 -1.1409
  836MOL0     H10297   1.388   6.050   0.949 -0.8264  1.6271  0.8005
  836MOL0     H10298   1.523   6.128   0.867  1.9704 -2.1200  0.8123
  836MOL0     H10299   1.471   6.339   0.995 -0.0619 -0.3300  0.7202
  836MOL0     H10300   1.334   6.262   1.073  1.4524  3.2319  0.4275
  836MOL0     H10301   1.241   6.221   0.830  1.2966 -1.5268  2.3673
  836MOL0     H10302   1.274   6.389   0.862  2.2046  1.4901  1.4238
  836MOL0     H10303   1.467   6.230   0.688  0.4144  0.5980  0.0674
  836MOL0     H10304   1.481   6.400   0.719 -0.2506  1.0482 -1.2091
  836MOL0     H10305   1.223   6.185   0.521  2.7653 -1.0909  0.4957
  836MOL0     H10306   1.156   6.228   0.279 -1.9732 -0.6256 -1.0954
  836MOL0     H10307   1.166   6.383   0.191 -2.8504  4.5877  0.6650
  836MOL0     H10308   0.956   6.402   0.402  1.8174 -1.2070  1.8255
  836MOL0     H10309   0.942   6.250   0.310 -0.0799  0.4025 -2.1579
  836MOL0     H10310   0.992   6.521   0.169 -3.2924  3.4393 -0.7533
  836MOL0     H10311   0.924   6.377   0.096 -2.7588 -4.0408  2.6879
  836MOL0     H10312   0.743   6.573   0.150  0.2785  1.8846  1.1539
  836MOL0     H10313   0.768   6.540   0.321 -2.2184  2.1896 -0.8375
  836MOL0     H10314   0.501   6.219   0.178  0.7907  0.4894 -2.6317
  836MOL0     H10315   0.268   6.241   0.155 -1.5875  0.4099  1.1948
  836MOL0     H10316  -0.077   6.442  -0.038  0.5618  2.3386  0.8390
  836MOL0     H10317  -0.318   6.422  -0.085  0.2249 -0.8678  1.1002
  836MOL0     H10318  -0.600   6.560   0.106 -2.4004 -1.3736 -0.1142
  836MOL0     H10319  -0.480   6.532   0.236  1.1585 -0.7707 -1.0453
  836MOL0     H10320  -0.620   6.347   0.323 -3.1431 -2.1622 -0.3318
  836MOL0     H10321  -0.744   6.363   0.203 -1.6326  0.0063  1.3568
  836MOL0     H10322  -0.834   6.442   0.386  0.3945  0.5942  1.1005
  836MOL0     H10323  -0.785   6.595   0.305  1.9406 -0.3292 -2.4035
  836MOL0     H10324  -0.623   6.464   0.533  1.1108  1.4893  1.4440
  836MOL0     H10325  -0.570   6.602   0.449  0.2774  0.9498  1.0694
  836MOL0     H10326  -0.860   6.593   0.574 -1.0432  0.3819 -3.4538
  836MOL0     H10327  -0.798   6.720   0.487  1.4704 -0.0416 -1.2284
  836MOL0     H10328  -0.679   6.601   0.749 -0.8376  0.5668 -0.1480
  836MOL0     H10329  -0.756   6.760   0.732 -3.9891 -2.4325 -1.4166
  836MOL0     H10330  -0.494   6.675   0.621 -1.8667 -3.6037  2.1176
  836MOL0     H10331  -0.596   6.823   0.573 -0.9058  1.1086  1.2547
  836MOL0     H10332  -0.395   6.830   0.753 -1.0138 -1.0069 -4.6173
  836MOL0     H10333  -0.497   6.753   0.859  0.4983 -0.7798 -0.7192
  836MOL0     H10334  -0.392   6.297   0.314  1.8709 -1.4434  1.6464
  836MOL0     H10335  -0.123   6.312   0.360 -0.9749 -0.1106  0.5256
  836MOL0     H10336   0.318   6.663   0.242  2.0283  1.0898 -3.5365
  836MOL0     H10337   0.553   6.636   0.280 -0.1403  1.2635 -1.3618
  836MOL0     H10338   2.062   5.889   1.320 -0.8185  1.5253 -1.1708
  836MOL0     H10339   2.231   5.732   1.400 -0.9929  0.6538  1.7021
  836MOL0     H10340   2.451   5.335   1.145 -0.8608  1.5430  1.3771
  836MOL0     H10341   2.619   5.167   1.138 -3.3735 -0.0369  0.3865
  836MOL0     H10342   2.962   5.179   1.462  0.2988  0.9961  0.0160
  836MOL0     H10343   3.012   5.218   1.297  0.1550  0.5132 -0.0062
  836MOL0     H10344   2.973   4.933   1.421  0.5186 -0.8253  0.1000
  836MOL0     H10345   3.036   4.967   1.255  1.4482  1.8311 -0.4696
  836MOL0     H10346   3.165   5.036   1.528 -0.6205  0.0073  0.3061
  836MOL0     H10347   3.218   5.082   1.369 -2.8499 -1.1172 -4.4298
  836MOL0     H10348   3.178   4.805   1.502 -1.0984  3.1235  2.3687
  836MOL0     H10349   3.226   4.820   1.331 -0.1534  0.7700 -0.0786
  836MOL0     H10350   3.597   4.934   1.511 -0.3984 -1.1620  2.8212
  836MOL0     H10351   2.837   5.354   1.450  1.5770 -0.9031 -1.5663
  836MOL0     H10352   2.664   5.527   1.461  2.2281 -0.0768  0.0428
  837MOL0     O10353   0.364   7.784   2.931  0.5304 -0.2584  0.2892
  837MOL0     C10354   0.300   7.766   2.824  0.1812 -0.4892 -0.6424
  837MOL0     O10355   0.188   7.683   2.816  0.9653 -0.0359  0.7764
  837MOL0     C10356   0.148   7.618   2.925 -0.6978  1.3622 -0.3280
  837MOL0     C10357   0.117   7.677   3.050 -0.0095  0.5043 -0.1754
  837MOL0     C10358   0.075   7.603   3.156  0.5409 -0.2527 -0.4576
  837MOL0     C10359   0.056   7.467   3.143 -0.2816  0.9025 -0.3917
  837MOL0     O10360  -0.006   7.391   3.243 -1.0896 -0.8627 -0.2133
  837MOL0     C10361   0.011   7.431   3.387  0.3716  0.2593  0.3106
  837MOL0     C10362  -0.029   7.320   3.487  0.6862 -0.7536  0.3366
  837MOL0     C10363  -0.175   7.292   3.469  0.0062  0.1744  0.5573
  837MOL0     C10364  -0.214   7.210   3.584  0.8920  0.2433 -0.3771
  837MOL0     C10365  -0.364   7.158   3.579  0.3494  1.4976 -0.5308
  837MOL0     C10366  -0.409   7.078   3.707 -0.4941  0.6857  0.2667
  837MOL0     C10367  -0.564   7.044   3.706  0.1009 -0.2719  0.4780
  837MOL0     C10368  -0.611   6.978   3.834  0.7682  0.6347  0.1255
  837MOL0     N10369  -0.764   6.981   3.826 -1.0925 -0.3566  0.1554
  837MOL0     C10370  -0.841   6.871   3.809 -0.3560  0.0871 -0.5881
  837MOL0     C10371  -0.966   6.918   3.817 -0.4620 -0.2255  0.8499
  837MOL0     C10372  -1.090   6.842   3.802  0.8000 -0.1494 -0.3514
  837MOL0     C10373  -1.153   6.818   3.952 -0.0755 -0.2295 -0.3001
  837MOL0     C10374  -1.221   6.684   3.965  0.2172 -0.3548  0.1059
  837MOL0     C10375  -1.301   6.675   4.089  0.9617  0.4301 -0.8402
  837MOL0     O10376  -1.310   6.535   4.117 -0.0801 -0.2779 -0.1982
  837MOL0     C10377  -1.443   6.485   4.132 -0.9039  1.0161 -0.0799
  837MOL0     C10378  -1.468   6.361   4.072  0.0294 -0.4700  0.1014
  837MOL0     C10379  -1.599   6.310   4.070  0.8220 -0.1751  0.1634
  837MOL0     C10380  -1.708   6.381   4.138  0.8403  0.3550  0.3646
  837MOL0     C10381  -1.854   6.325   4.137  0.3465  0.5811  1.2433
  837MOL0     O10382  -1.950   6.398   4.189 -0.5612 -0.2770 -0.0880
  837MOL0     C10383  -2.080   6.347   4.207  0.0964 -0.9567  0.4510
  837MOL0     C10384  -2.117   6.213   4.230  0.0388 -0.2485 -0.7286
  837MOL0     C10385  -2.252   6.178   4.230  0.6209 -0.4066  0.3942
  837MOL0     C10386  -2.352   6.278   4.194  0.0536  0.1812 -0.1416
  837MOL0     O10387  -2.483   6.259   4.192  0.4047 -0.8187  0.3191
  837MOL0     C10388  -2.537   6.150   4.280 -0.5779 -0.1050 -0.0572
  837MOL0     C10389  -2.686   6.145   4.289  0.3070  0.2532  0.8148
  837MOL0     C10390  -2.737   6.128   4.149 -1.2989  0.1625 -0.0485
  837MOL0     C10391  -2.886   6.090   4.148 -0.6452 -0.0791 -0.7682
  837MOL0     C10392  -2.959   6.106   4.023 -0.4178 -0.3494 -0.5941
  837MOL0     C10393  -3.109   6.082   4.029 -0.3528 -0.0124 -0.4245
  837MOL0     C10394  -3.147   5.937   4.024 -0.4648 -0.2550 -0.4096
  837MOL0     C10395  -3.302   5.906   4.047 -0.4319 -0.7561  0.5306
  837MOL0    Cl10396  -3.351   5.974   4.210 -0.1859  0.1890 -0.3660
  837MOL0     C10397  -2.311   6.410   4.177 -0.4294 -0.4851  0.3414
  837MOL0     C10398  -2.179   6.449   4.184 -0.3727 -0.8080  0.1151
  837MOL0     O10399  -1.868   6.221   4.079  0.0536 -0.2199  0.3594
  837MOL0     C10400  -1.677   6.515   4.179  0.1886 -0.6216  0.4414
  837MOL0     C10401  -1.548   6.557   4.173  0.0848 -0.0261 -0.5116
  837MOL0     N10402  -0.962   7.053   3.852 -0.3470  0.2639 -0.0058
  837MOL0     N10403  -0.835   7.088   3.857  0.0373  0.4168  0.0509
  837MOL0     C10404   0.082   7.398   3.019  0.4892 -0.5601  0.1897
  837MOL0     C10405   0.129   7.475   2.911 -0.6606 -0.6095 -0.2932
  837MOL0     C10406   0.337   7.846   2.697  0.4847  0.5277 -0.6033
  837MOL0     C10407   0.468   7.883   2.673 -0.1608 -0.8131 -0.3802
  837MOL0     C10408   0.503   7.945   2.557 -0.5672 -0.6892  0.0494
  837MOL0     C10409   0.414   7.973   2.456 -0.0004 -0.3468 -0.7775
  837MOL0     O10410   0.436   8.053   2.346 -0.1459  0.3188  0.2851
  837MOL0     C10411   0.563   8.119   2.353 -0.6143  0.1458  0.7651
  837MOL0     C10412   0.565   8.218   2.248  0.5209 -0.1443 -0.9001
  837MOL0     C10413   0.516   8.176   2.112 -0.4804  0.3314 -0.3230
  837MOL0     C10414   0.506   8.284   2.005  0.5491  0.4766  0.8581
  837MOL0     C10415   0.627   8.285   1.917  0.0026  0.1171  0.4965
  837MOL0     C10416   0.725   8.319   1.852  0.3264 -0.3755 -0.6831
  837MOL0     C10417   0.278   7.934   2.480  0.1890 -1.0425  0.7278
  837MOL0     C10418   0.242   7.866   2.592 -0.1374  1.0762 -0.4438
  837MOL0     H10419   0.127   7.783   3.070 -2.0152  0.2300  3.2141
  837MOL0     H10420   0.053   7.646   3.253  1.5710  0.4904 -0.5354
  837MOL0     H10421  -0.058   7.513   3.410 -0.6479 -0.5845  0.3586
  837MOL0     H10422   0.115   7.463   3.397  0.2114  2.1265 -2.6391
  837MOL0     H10423  -0.006   7.348   3.590 -0.6910  0.9843  0.2272
  837MOL0     H10424   0.020   7.226   3.459 -1.0541 -1.4643 -0.4536
  837MOL0     H10425  -0.194   7.236   3.377 -0.4924  0.6892  0.3386
  837MOL0     H10426  -0.226   7.389   3.477  2.8044  1.7817  0.2295
  837MOL0     H10427  -0.138   7.135   3.607  1.6945  0.8621 -0.9300
  837MOL0     H10428  -0.208   7.276   3.671 -0.9924  1.1636 -0.8836
  837MOL0     H10429  -0.368   7.086   3.498 -1.8797 -0.0331  0.8467
  837MOL0     H10430  -0.439   7.236   3.562 -1.8490 -0.3666  0.0566
  837MOL0     H10431  -0.392   7.133   3.800 -0.6014  1.2969 -0.0731
  837MOL0     H10432  -0.354   6.984   3.711 -1.9305 -0.1421  2.0653
  837MOL0     H10433  -0.614   7.140   3.690 -0.4692 -0.6492 -0.0257
  837MOL0     H10434  -0.606   6.987   3.623 -2.2500  2.2962 -0.2702
  837MOL0     H10435  -0.581   7.034   3.923  1.8528 -0.8753  0.7553
  837MOL0     H10436  -0.583   6.873   3.830  1.0901  0.7555 -1.1008
  837MOL0     H10437  -0.789   6.776   3.801  0.4178  0.6277 -2.7755
  837MOL0     H10438  -1.061   6.753   3.746 -0.7547 -0.8113 -0.1734
  837MOL0     H10439  -1.152   6.887   3.724  2.5950  0.7803 -1.2892
  837MOL0     H10440  -1.218   6.901   3.983 -0.8136 -1.0356  0.4025
  837MOL0     H10441  -1.064   6.818   4.015 -0.7220 -1.9109  0.6905
  837MOL0     H10442  -1.275   6.665   3.872 -0.7608  3.0499 -0.1867
  837MOL0     H10443  -1.137   6.614   3.974 -1.9925 -3.0684  0.9278
  837MOL0     H10444  -1.396   6.724   4.064  1.3564  0.7882 -1.6834
  837MOL0     H10445  -1.251   6.731   4.168  0.5133  0.4805 -0.5922
  837MOL0     H10446  -1.389   6.309   4.019  3.3037  1.9992  2.1787
  837MOL0     H10447  -1.613   6.213   4.023  1.6673  0.3812 -1.2899
  837MOL0     H10448  -2.041   6.138   4.249  3.2174  3.3205  2.4369
  837MOL0     H10449  -2.281   6.074   4.246  2.7735 -0.8350  1.7453
  837MOL0     H10450  -2.511   6.174   4.384  0.4761 -2.8880  0.4125
  837MOL0     H10451  -2.494   6.051   4.261  0.7223  0.6029 -0.9972
  837MOL0     H10452  -2.739   6.228   4.338 -2.5073 -1.4716  0.8968
  837MOL0     H10453  -2.725   6.058   4.343 -1.6054  1.2816  1.1748
  837MOL0     H10454  -2.683   6.046   4.101  0.7080  1.6887 -0.5388
  837MOL0     H10455  -2.734   6.224   4.097  0.5387 -0.3854 -1.0235
  837MOL0     H10456  -2.909   5.992   4.189 -0.4967  0.8990  1.8527
  837MOL0     H10457  -2.926   6.167   4.216  2.6063  0.8644  0.2928
  837MOL0     H10458  -2.914   6.036   3.951  0.0420  0.7781 -1.4386
  837MOL0     H10459  -2.954   6.209   3.988 -2.1235 -0.4711 -1.3263
  837MOL0     H10460  -3.155   6.127   3.940  1.5922 -0.0898 -1.5316
  837MOL0     H10461  -3.142   6.130   4.122 -2.1114  0.6748 -1.3615
  837MOL0     H10462  -3.118   5.895   3.927 -3.2129 -1.9210 -0.6181
  837MOL0     H10463  -3.085   5.880   4.094 -1.0701  0.5906  0.8333
  837MOL0     H10464  -3.300   5.797   4.034 -1.4583 -0.5851 -1.4771
  837MOL0     H10465  -3.351   5.943   3.956  0.1467 -1.4406 -0.0718
  837MOL0     H10466  -2.384   6.487   4.153  1.7490  1.4363 -0.4168
  837MOL0     H10467  -2.154   6.552   4.162 -0.7717 -1.3373 -3.3786
  837MOL0     H10468  -1.753   6.579   4.223  0.7089  1.0894 -1.0118
  837MOL0     H10469  -1.527   6.654   4.216  0.6803 -1.0023  1.4909
  837MOL0     H10470   0.056   7.293   3.009  4.7620 -1.7569  0.0211
  837MOL0     H10471   0.155   7.419   2.821 -0.8406 -0.0231 -0.7182
  837MOL0     H10472   0.547   7.858   2.743  0.0406 -1.0227 -0.6770
  837MOL0     H10473   0.604   7.978   2.537 -1.5754  3.0432  0.3424
  837MOL0     H10474   0.644   8.049   2.331  1.0610  1.6725  1.7614
  837MOL0     H10475   0.569   8.164   2.452  0.4765 -3.0833  2.3234
  837MOL0     H10476   0.515   8.305   2.292 -0.0536 -1.1570  0.4968
  837MOL0     H10477   0.669   8.251   2.243  0.5059 -0.1774 -1.5467
  837MOL0     H10478   0.413   8.143   2.127 -0.1970  0.6918  2.9383
  837MOL0     H10479   0.572   8.089   2.075 -0.6026  0.3517 -0.5654
  837MOL0     H10480   0.417   8.272   1.942  2.7721  0.5567 -2.6128
  837MOL0     H10481   0.500   8.383   2.051  2.5631  0.4422  1.2972
  837MOL0     H10482   0.806   8.342   1.785 -1.3696  0.6890 -2.4879
  837MOL0     H10483   0.204   7.961   2.405 -0.4463 -0.6466  1.4874
  837MOL0     H10484   0.138   7.840   2.610 -0.2738 -0.1806 -2.6609
  838MOL0     O10485   7.212  11.130   3.715 -0.1727 -0.2316  0.2309
  838MOL0     C10486   7.122  11.093   3.794  0.8258  0.6541  0.3073
  838MOL0     O10487   7.004  11.153   3.829  0.0496  0.2857 -0.4451
  838MOL0     C10488   6.945  11.246   3.753  0.5232 -0.4092 -0.1759
  838MOL0     C10489   6.979  11.278   3.612  0.6443  1.2301 -0.9722
  838MOL0     C10490   6.904  11.375   3.542  0.2315  0.4787 -0.3657
  838MOL0     C10491   6.794  11.439   3.605 -0.2753  0.1979 -0.2898
  838MOL0     O10492   6.719  11.539   3.547  0.5796  0.7268  0.2377
  838MOL0     C10493   6.792  11.658   3.516  0.0745  0.4742  1.5531
  838MOL0     C10494   6.686  11.770   3.500 -0.7699  0.6298  0.6143
  838MOL0     C10495   6.747  11.899   3.443  0.0979  0.5504 -0.1409
  838MOL0     C10496   6.650  11.994   3.402  0.1227 -0.4502 -0.1139
  838MOL0     C10497   6.707  12.120   3.341 -0.1758  0.0590 -0.6427
  838MOL0     C10498   6.827  12.184   3.413 -0.3249 -0.3856 -0.0975
  838MOL0     C10499   6.801  12.228   3.555  0.2236 -0.4630 -0.0419
  838MOL0     C10500   6.933  12.207   3.630  0.2406  0.4998 -0.0640
  838MOL0     N10501   6.903  12.237   3.770 -0.2962  0.2769  0.0247
  838MOL0     C10502   6.984  12.313   3.849 -0.0262  0.4326  0.2619
  838MOL0     C10503   6.940  12.291   3.975 -0.2753 -0.5055  0.4201
  838MOL0     C10504   6.985  12.366   4.097  0.0461 -0.8333 -0.2751
  838MOL0     C10505   7.130  12.351   4.130  0.2327  0.7895  0.1120
  838MOL0     C10506   7.164  12.390   4.272 -0.1764 -0.6216  0.4798
  838MOL0     C10507   7.137  12.540   4.301 -0.1958 -1.5087 -0.5000
  838MOL0     O10508   7.150  12.563   4.438  0.2594  1.0729 -0.7736
  838MOL0     C10509   7.266  12.605   4.481 -0.1682  0.3177 -0.8750
  838MOL0     C10510   7.347  12.520   4.565 -0.2962 -0.1519  0.7454
  838MOL0     C10511   7.473  12.566   4.606  0.8519 -0.6901 -1.5072
  838MOL0     C10512   7.520  12.691   4.580  0.4883 -0.3515  0.1695
  838MOL0     C10513   7.652  12.727   4.615  0.1527  0.7200  1.2450
  838MOL0     O10514   7.699  12.832   4.544  0.4883  0.3404  0.1816
  838MOL0     C10515   7.822  12.880   4.580 -0.7854  0.6145 -0.2420
  838MOL0     C10516   7.846  12.937   4.706 -0.5073  0.4488 -0.8603
  838MOL0     C10517   7.961  13.012   4.724  0.2693 -0.4321 -0.7097
  838MOL0     C10518   8.047  13.034   4.623 -1.5031 -0.3394 -1.0341
  838MOL0     O10519   8.158  13.126   4.658  0.6584 -0.1505  0.0285
  838MOL0     C10520   8.296  13.078   4.615  0.4778  0.2510  0.5210
  838MOL0     C10521   8.394  13.182   4.642  0.5746 -0.2010 -0.8706
  838MOL0     C10522   8.538  13.134   4.622 -0.0270  0.1487 -0.2957
  838MOL0     C10523   8.634  13.251   4.638 -0.4066  0.2135  0.1299
  838MOL0     C10524   8.780  13.196   4.611 -0.0629  0.0218  0.6815
  838MOL0     C10525   8.893  13.295   4.642 -0.2600 -0.4206 -0.2650
  838MOL0     C10526   8.924  13.410   4.542  0.2446 -0.9997  0.5250
  838MOL0     C10527   9.025  13.517   4.582  0.2527 -0.5532 -0.3844
  838MOL0    Cl10528   9.187  13.449   4.589 -0.1167 -0.0904 -0.0267
  838MOL0     C10529   8.030  12.981   4.504 -0.0541  0.0754  0.3446
  838MOL0     C10530   7.921  12.895   4.484  0.1311 -0.8787  0.5936
  838MOL0     O10531   7.714  12.662   4.700 -0.6177 -0.1655 -0.0157
  838MOL0     C10532   7.436  12.781   4.509  0.1081  0.3448 -0.9651
  838MOL0     C10533   7.309  12.737   4.452 -0.3473 -0.3105  0.7444
  838MOL0     N10534   6.824  12.218   3.977 -0.6275  0.1517  0.2709
  838MOL0     N10535   6.807  12.183   3.857  0.6156 -0.3416 -0.0053
  838MOL0     C10536   6.759  11.399   3.732 -0.1866  0.5402 -0.2012
  838MOL0     C10537   6.837  11.307   3.810  0.1333 -0.2334 -1.2558
  838MOL0     C10538   7.166  10.961   3.864  0.1122  0.3134  0.9827
  838MOL0     C10539   7.079  10.901   3.940  0.7375  0.4262 -0.9417
  838MOL0     C10540   7.113  10.795   4.025 -0.3362 -0.1131 -0.3177
  838MOL0     C10541   7.244  10.738   4.018  0.4351 -0.0168  0.7073
  838MOL0     O10542   7.257  10.632   4.104  0.1914  0.7767 -0.2580
  838MOL0     C10543   7.341  10.524   4.064 -1.7576  0.3329 -0.4918
  838MOL0     C10544   7.405  10.462   4.187  0.9877 -0.3920  0.1920
  838MOL0     C10545   7.301  10.399   4.275  0.0474 -0.3046  0.5646
  838MOL0     C10546   7.351  10.261   4.331  0.3965 -0.6262  0.0708
  838MOL0     C10547   7.244  10.189   4.401  0.2003  0.7379 -0.3357
  838MOL0     C10548   7.159  10.124   4.467  0.1282 -0.2647  0.0893
  838MOL0     C10549   7.334  10.799   3.934 -0.1124 -0.4532 -0.6376
  838MOL0     C10550   7.299  10.905   3.854  0.2698 -0.5232  0.3929
  838MOL0     H10551   7.063  11.237   3.558  1.0242  1.2027 -0.3698
  838MOL0     H10552   6.938  11.399   3.442  0.2287  0.0746 -0.4668
  838MOL0     H10553   6.844  11.640   3.422 -1.6055  3.2618 -0.0282
  838MOL0     H10554   6.867  11.698   3.585  2.6958  1.3525 -1.5970
  838MOL0     H10555   6.634  11.797   3.593  0.5489 -0.3048  1.6650
  838MOL0     H10556   6.624  11.741   3.415  2.7021  0.2901 -1.9957
  838MOL0     H10557   6.811  11.878   3.357 -0.5874  0.3258 -0.6036
  838MOL0     H10558   6.810  11.940   3.522 -0.8711  0.3357  0.7625
  838MOL0     H10559   6.580  11.943   3.335  0.8458  0.5354 -1.6722
  838MOL0     H10560   6.591  12.029   3.488 -0.1274  0.9917 -0.8387
  838MOL0     H10561   6.626  12.193   3.332  0.4179  0.9672  0.9781
  838MOL0     H10562   6.736  12.102   3.237  0.8903 -1.8276 -0.0764
  838MOL0     H10563   6.851  12.268   3.348 -2.4019 -1.0977 -1.9092
  838MOL0     H10564   6.911  12.114   3.401 -1.8387 -2.2256 -0.5311
  838MOL0     H10565   6.767  12.332   3.562 -0.7279 -0.8349  1.6315
  838MOL0     H10566   6.715  12.178   3.601 -0.0198 -0.2830 -0.2976
  838MOL0     H10567   7.020  12.261   3.592  1.9432 -2.1049 -0.1008
  838MOL0     H10568   6.953  12.099   3.629 -0.0913  0.4173 -2.0980
  838MOL0     H10569   7.079  12.360   3.828  1.2394 -1.9085  0.4811
  838MOL0     H10570   6.924  12.349   4.186  1.2549 -2.1108  0.3440
  838MOL0     H10571   6.966  12.469   4.065  2.8826 -0.0890  0.1995
  838MOL0     H10572   7.179  12.421   4.062  1.1137 -0.9336 -1.1337
  838MOL0     H10573   7.161  12.247   4.116 -0.7465  0.1060  2.4690
  838MOL0     H10574   7.100  12.321   4.328 -4.7915 -0.0904 -3.5000
  838MOL0     H10575   7.270  12.375   4.292  0.3028 -0.7463 -1.9177
  838MOL0     H10576   7.035  12.562   4.270  0.0401  1.0490  0.3093
  838MOL0     H10577   7.210  12.603   4.250 -1.2305  0.7953  0.7239
  838MOL0     H10578   7.311  12.418   4.577 -1.0432 -0.0833 -0.7339
  838MOL0     H10579   7.528  12.495   4.667  1.6248  1.1620  0.0396
  838MOL0     H10580   7.780  12.919   4.790 -1.1621 -0.3763 -1.5348
  838MOL0     H10581   7.982  13.065   4.817  1.6915 -2.1779  0.0354
  838MOL0     H10582   8.301  13.058   4.508  1.6267  0.7985  0.4558
  838MOL0     H10583   8.319  12.996   4.682 -1.8953 -1.2804 -0.3903
  838MOL0     H10584   8.380  13.214   4.745  0.3125 -0.6280 -0.7735
  838MOL0     H10585   8.359  13.265   4.579 -0.8567  0.6933  1.0175
  838MOL0     H10586   8.542  13.092   4.521  0.6383  1.5248 -0.8701
  838MOL0     H10587   8.557  13.055   4.696 -1.9803  1.2993  1.5583
  838MOL0     H10588   8.595  13.330   4.573 -2.0169  1.2742  2.2464
  838MOL0     H10589   8.638  13.298   4.737 -2.1628  3.4635 -1.2099
  838MOL0     H10590   8.787  13.152   4.511  0.7198 -2.2689  1.6674
  838MOL0     H10591   8.800  13.118   4.685  0.8242 -0.6936 -0.2828
  838MOL0     H10592   8.984  13.238   4.660 -1.1833 -1.6350  0.8136
  838MOL0     H10593   8.868  13.345   4.737 -0.2632  3.2437 -2.0048
  838MOL0     H10594   8.965  13.374   4.447 -1.9465  0.2888 -0.9995
  838MOL0     H10595   8.829  13.463   4.531 -0.0118 -0.9593  2.5922
  838MOL0     H10596   8.994  13.558   4.679  0.5721 -2.1100  0.4030
  838MOL0     H10597   9.030  13.589   4.500  2.0140  1.5076  1.4152
  838MOL0     H10598   8.105  12.995   4.427 -0.1790 -0.8139  0.0498
  838MOL0     H10599   7.909  12.841   4.391 -1.2522 -4.6608  2.7343
  838MOL0     H10600   7.467  12.883   4.494  1.2520  0.3120  0.8727
  838MOL0     H10601   7.249  12.801   4.388 -0.1862 -3.4848 -2.9319
  838MOL0     H10602   6.676  11.446   3.783  1.3961  2.4217  0.8357
  838MOL0     H10603   6.807  11.302   3.914 -0.1588 -0.6505 -1.3580
  838MOL0     H10604   6.976  10.934   3.945  1.0539  1.2216  1.3485
  838MOL0     H10605   7.049  10.749   4.100  0.8334 -2.0255 -0.4346
  838MOL0     H10606   7.421  10.573   4.007 -0.1263  0.4642  1.7496
  838MOL0     H10607   7.296  10.444   4.006 -0.6381 -0.8336  0.1930
  838MOL0     H10608   7.477  10.383   4.164  0.7554 -1.3468  2.5499
  838MOL0     H10609   7.461  10.540   4.241 -0.6359  0.4938  0.6506
  838MOL0     H10610   7.209  10.391   4.217  0.8735 -1.2713 -0.6923
  838MOL0     H10611   7.292  10.460   4.365 -2.4075 -1.9385  1.5441
  838MOL0     H10612   7.372  10.197   4.244  0.7873  0.6651 -0.8134
  838MOL0     H10613   7.441  10.263   4.393 -0.1064 -3.5386  1.0620
  838MOL0     H10614   7.095  10.060   4.524  0.5397 -0.8550 -0.0965
  838MOL0     H10615   7.437  10.766   3.937 -0.0326 -0.3076 -1.5337
  838MOL0     H10616   7.376  10.949   3.791  0.8683 -2.7360 -0.5192
  839MOL0     O10617   8.175   8.168   0.003 -0.0937 -0.0241  0.4800
  839MOL0     C10618   8.213   8.251   0.086  1.3630 -1.2132  0.3410
  839MOL0     O10619   8.141   8.296   0.193  0.8419  0.2494 -0.6056
  839MOL0     C10620   8.003   8.282   0.191  0.4935  0.0565 -0.4601
  839MOL0     C10621   7.935   8.274   0.316  0.5044 -0.6960  0.0038
  839MOL0     C10622   7.796   8.276   0.323  0.1411  0.6008  0.1074
  839MOL0     C10623   7.714   8.290   0.211 -0.4078 -0.3727 -0.7093
  839MOL0     O10624   7.581   8.291   0.227  0.2509  0.2449  0.2643
  839MOL0     C10625   7.488   8.307   0.116 -0.4904 -0.3304  0.7540
  839MOL0     C10626   7.446   8.166   0.059  0.2127  0.6543 -0.3640
  839MOL0     C10627   7.357   8.074   0.145  0.9024 -0.8772 -0.1800
  839MOL0     C10628   7.215   8.137   0.173 -0.5277 -0.1870  0.5655
  839MOL0     C10629   7.125   8.150   0.047  0.0837 -0.6136 -0.1897
  839MOL0     C10630   6.986   8.194   0.086  0.4323 -0.4619 -0.3572
  839MOL0     C10631   6.901   8.084   0.158  0.2223 -0.6437 -0.1711
  839MOL0     C10632   6.790   8.031   0.083  0.2302 -0.5329  0.4305
  839MOL0     N10633   6.682   8.124   0.067 -0.6953  0.1130  0.1622
  839MOL0     C10634   6.575   8.141   0.157  0.3187  0.2864  0.4114
  839MOL0     C10635   6.478   8.202   0.078 -0.3320 -0.1893  0.4724
  839MOL0     C10636   6.346   8.246   0.137  0.2635  0.2735 -0.4412
  839MOL0     C10637   6.277   8.115   0.199 -0.5887  0.0355  0.4705
  839MOL0     C10638   6.153   8.146   0.280  0.2827 -0.1576  0.4239
  839MOL0     C10639   6.057   8.033   0.291  0.2650 -0.7098 -0.1774
  839MOL0     O10640   6.002   8.003   0.161  0.0571  0.4066  0.5506
  839MOL0     C10641   5.884   7.941   0.137  0.9395 -0.7583  0.1543
  839MOL0     C10642   5.862   7.937   0.001  0.5883  1.4853 -0.3722
  839MOL0     C10643   5.749   7.867  -0.051 -0.0993 -0.0117  0.1000
  839MOL0     C10644   5.655   7.825   0.037 -0.0473 -0.3076 -0.3074
  839MOL0     C10645   5.528   7.783  -0.023  0.2816  0.3891  0.0911
  839MOL0     O10646   5.517   7.777  -0.160 -0.3205  0.1492 -0.6840
  839MOL0     C10647   5.398   7.751  -0.211 -0.0851 -0.1904  0.2443
  839MOL0     C10648   5.377   7.622  -0.257  1.2613 -0.1947  0.3146
  839MOL0     C10649   5.246   7.591  -0.315  0.6022  0.0485  0.0931
  839MOL0     C10650   5.155   7.696  -0.356  0.3431  0.8513 -0.8668
  839MOL0     O10651   5.032   7.644  -0.392  0.1239  0.0051  0.4756
  839MOL0     C10652   4.961   7.734  -0.472  0.2817  0.9771  0.3425
  839MOL0     C10653   4.835   7.655  -0.526  0.1778 -0.1442 -0.4179
  839MOL0     C10654   4.807   7.721  -0.674 -0.4627  0.5286 -1.2566
  839MOL0     C10655   4.682   7.648  -0.733  0.6772  0.2796  0.9113
  839MOL0     C10656   4.558   7.716  -0.680  0.2860  0.3151 -0.5794
  839MOL0     C10657   4.432   7.637  -0.729 -0.3916 -0.2195  0.4196
  839MOL0     C10658   4.310   7.681  -0.652 -0.9323  0.3996 -0.5649
  839MOL0     C10659   4.191   7.589  -0.668  0.5661  0.0234  0.4892
  839MOL0    Cl10660   4.133   7.585  -0.836 -0.0204 -0.0548  0.0260
  839MOL0     C10661   5.183   7.825  -0.308  0.5824 -1.3061 -0.8842
  839MOL0     C10662   5.304   7.844  -0.238  0.9506  0.3543 -0.1251
  839MOL0     O10663   5.438   7.741   0.051 -0.6832  0.6323  0.2531
  839MOL0     C10664   5.674   7.826   0.178  0.6668  1.0838 -0.7424
  839MOL0     C10665   5.792   7.883   0.234  0.0254 -0.8593 -0.3026
  839MOL0     N10666   6.532   8.229  -0.049  0.4628 -0.2054  0.0347
  839MOL0     N10667   6.653   8.178  -0.049  0.2360  1.2614 -0.1484
  839MOL0     C10668   7.781   8.307   0.089  0.4861 -0.5491  0.5283
  839MOL0     C10669   7.923   8.299   0.081 -0.1589 -0.5606  0.1337
  839MOL0     C10670   8.359   8.278   0.087 -0.1721  0.5153  0.0971
  839MOL0     C10671   8.421   8.365   0.176  0.0031 -0.1757  0.5870
  839MOL0     C10672   8.557   8.406   0.159  0.4109 -0.1658  0.6589
  839MOL0     C10673   8.635   8.347   0.057  0.1672 -1.0265 -0.5874
  839MOL0     O10674   8.766   8.390   0.051 -0.4213  0.1625 -0.6520
  839MOL0     C10675   8.837   8.345  -0.068 -0.1537 -0.0323 -0.3497
  839MOL0     C10676   8.988   8.371  -0.058 -0.5197  0.4196  0.5980
  839MOL0     C10677   9.027   8.510  -0.117  0.1499 -0.1028  0.3408
  839MOL0     C10678   9.177   8.551  -0.081 -0.4457  0.2894  0.1935
  839MOL0     C10679   9.279   8.464  -0.145  1.3329 -0.6845 -0.0224
  839MOL0     C10680   9.373   8.400  -0.182 -0.2255  0.0520 -0.6393
  839MOL0     C10681   8.576   8.246  -0.014 -0.7441 -0.4055  0.2531
  839MOL0     C10682   8.443   8.211  -0.003  0.1538  0.7033 -0.1954
  839MOL0     H10683   7.981   8.281   0.414  0.5157 -0.3185 -0.0246
  839MOL0     H10684   7.750   8.266   0.421 -0.9610  1.5532 -0.2908
  839MOL0     H10685   7.534   8.366   0.037 -0.2941 -2.0185 -0.4529
  839MOL0     H10686   7.400   8.357   0.158 -0.3592 -0.4623  1.1916
  839MOL0     H10687   7.533   8.103   0.037  0.4482  0.8915 -0.1173
  839MOL0     H10688   7.395   8.175  -0.037 -0.2495 -2.3985 -0.5053
  839MOL0     H10689   7.405   8.076   0.243  1.2781  0.1730 -0.3687
  839MOL0     H10690   7.342   7.973   0.106 -4.3177  0.3385 -2.1380
  839MOL0     H10691   7.165   8.084   0.254 -1.3675 -1.1051 -0.5238
  839MOL0     H10692   7.229   8.239   0.211 -1.9159 -0.2736  1.3727
  839MOL0     H10693   7.120   8.063  -0.019 -1.5419 -0.3749 -0.4333
  839MOL0     H10694   7.173   8.221  -0.022  0.8441  0.2494  1.1701
  839MOL0     H10695   6.940   8.227  -0.008 -1.3885 -2.7493 -0.3563
  839MOL0     H10696   6.979   8.276   0.158 -2.0334  1.1333 -2.2504
  839MOL0     H10697   6.963   7.996   0.174 -1.0519 -2.1543 -2.7825
  839MOL0     H10698   6.868   8.115   0.258  2.0370  1.0974 -0.0614
  839MOL0     H10699   6.756   7.940   0.134  0.8788 -1.7495 -1.2150
  839MOL0     H10700   6.823   7.994  -0.015  2.1003 -3.3740  1.9839
  839MOL0     H10701   6.573   8.109   0.261  3.5576  1.0969  0.8267
  839MOL0     H10702   6.276   8.271   0.056 -0.7075 -1.9134 -0.3535
  839MOL0     H10703   6.350   8.326   0.211 -0.5579  0.5060 -0.6285
  839MOL0     H10704   6.351   8.062   0.260 -1.2842  0.5587  1.8204
  839MOL0     H10705   6.251   8.040   0.124  1.0671 -0.4319  0.3277
  839MOL0     H10706   6.182   8.165   0.384 -0.2168 -1.2889  0.7921
  839MOL0     H10707   6.111   8.237   0.237 -2.1461 -2.2561 -1.9613
  839MOL0     H10708   5.980   8.089   0.346  0.4317  2.6965 -3.0066
  839MOL0     H10709   6.094   7.952   0.355 -0.4929  0.1202  1.3677
  839MOL0     H10710   5.936   7.985  -0.062  1.4529  0.8434  0.1279
  839MOL0     H10711   5.744   7.852  -0.159  0.6105  0.7225 -0.0499
  839MOL0     H10712   5.445   7.538  -0.244  1.3985 -0.3468 -1.1774
  839MOL0     H10713   5.213   7.491  -0.341  2.1865 -0.3233 -0.6113
  839MOL0     H10714   5.027   7.768  -0.553 -0.0598  1.4835  0.2741
  839MOL0     H10715   4.931   7.822  -0.414  0.2959  2.2127 -1.4403
  839MOL0     H10716   4.753   7.673  -0.456  1.6444  1.1047  1.0525
  839MOL0     H10717   4.861   7.549  -0.534 -1.0102 -0.3930 -1.2247
  839MOL0     H10718   4.892   7.701  -0.741 -1.5058  2.1526 -3.1845
  839MOL0     H10719   4.786   7.828  -0.670  0.0065  0.7705 -3.5920
  839MOL0     H10720   4.686   7.670  -0.841  2.4816  3.3230  1.4802
  839MOL0     H10721   4.677   7.540  -0.717  2.4054 -0.1017 -0.7565
  839MOL0     H10722   4.557   7.816  -0.726 -0.7938  0.6632  0.1368
  839MOL0     H10723   4.566   7.726  -0.572  1.0199 -1.5739 -0.4369
  839MOL0     H10724   4.459   7.532  -0.719  4.8912  0.9868  2.5563
  839MOL0     H10725   4.414   7.654  -0.835 -0.5045  0.5206  0.5484
  839MOL0     H10726   4.332   7.681  -0.545 -0.1497 -3.6467 -0.5639
  839MOL0     H10727   4.288   7.784  -0.681  5.4036  2.8445  1.5463
  839MOL0     H10728   4.102   7.619  -0.612 -0.6506  1.0423 -1.8485
  839MOL0     H10729   4.217   7.490  -0.628 -1.2218 -0.2126  1.1346
  839MOL0     H10730   5.116   7.909  -0.325  4.3566  2.0480 -0.7000
  839MOL0     H10731   5.309   7.948  -0.206  0.9389  0.5029 -0.5951
  839MOL0     H10732   5.600   7.789   0.249  0.9204  0.6796 -0.6817
  839MOL0     H10733   5.817   7.887   0.340  0.7554 -0.9685 -0.4618
  839MOL0     H10734   7.736   8.327  -0.008  1.0607  0.9974  0.5606
  839MOL0     H10735   7.969   8.318  -0.016  1.7401  0.0153  1.1031
  839MOL0     H10736   8.362   8.403   0.259  0.3378  0.0520  0.7202
  839MOL0     H10737   8.601   8.472   0.234  1.0216  1.7594 -1.2890
  839MOL0     H10738   8.805   8.407  -0.152  2.2432 -1.7122 -2.6566
  839MOL0     H10739   8.830   8.238  -0.090 -0.9115  0.0110 -0.3459
  839MOL0     H10740   9.020   8.359   0.046 -0.9581 -0.8023  0.6114
  839MOL0     H10741   9.043   8.291  -0.107 -2.2246 -3.8333  4.8078
  839MOL0     H10742   8.959   8.586  -0.079 -2.1269 -1.1355 -1.3824
  839MOL0     H10743   9.011   8.505  -0.226  0.3138 -0.4407  0.3298
  839MOL0     H10744   9.192   8.655  -0.109 -0.3488  0.1544 -0.2512
  839MOL0     H10745   9.191   8.547   0.028  0.3737 -2.2333  0.0775
  839MOL0     H10746   9.451   8.336  -0.218 -0.3397 -0.7263  0.4402
  839MOL0     H10747   8.629   8.191  -0.091  1.5954  0.2423  1.3130
  839MOL0     H10748   8.400   8.127  -0.056 -0.8064 -0.2603  1.9555
  840MOL0     O10749  11.100   8.995   4.464  0.4399  0.3801  0.2199
  840MOL0     C10750  11.115   9.109   4.410  0.0720  0.7645 -0.1566
  840MOL0     O10751  11.028   9.212   4.427 -0.0710 -0.1816 -0.4364
  840MOL0     C10752  10.910   9.181   4.485  0.4656  0.9097  1.4346
  840MOL0     C10753  10.827   9.096   4.420  0.0340 -0.2566 -0.1560
  840MOL0     C10754  10.703   9.070   4.479 -0.5574 -0.1797 -0.8993
  840MOL0     C10755  10.653   9.124   4.602  0.0540  0.0371 -0.2782
  840MOL0     O10756  10.536   9.083   4.656 -0.0157  0.3430 -0.2958
  840MOL0     C10757  10.439   9.178   4.628  0.3766 -0.0406 -0.4186
  840MOL0     C10758  10.297   9.123   4.655  0.9930 -0.8603  0.1451
  840MOL0     C10759  10.295   9.068   4.797  0.6679 -0.5022  0.0276
  840MOL0     C10760  10.145   9.026   4.816  0.5531  0.4419 -0.2283
  840MOL0     C10761  10.129   8.954   4.951 -0.0743  0.4435 -0.3229
  840MOL0     C10762   9.986   8.917   4.979  0.2643  0.1499 -0.1644
  840MOL0     C10763   9.983   8.851   5.120  0.4747  0.9788  0.8241
  840MOL0     C10764   9.851   8.763   5.143 -0.3205  0.8999  0.7747
  840MOL0     N10765   9.741   8.856   5.142 -0.5144  0.4313 -0.7834
  840MOL0     C10766   9.642   8.863   5.046 -0.0948  0.1323 -0.6130
  840MOL0     C10767   9.551   8.954   5.090 -0.6325  0.0205 -0.3349
  840MOL0     C10768   9.421   9.003   5.038 -0.0421 -0.2134  0.2478
  840MOL0     C10769   9.301   8.936   5.093  0.3063 -0.2232 -0.9530
  840MOL0     C10770   9.184   9.021   5.047  0.2027  0.3506  0.3501
  840MOL0     C10771   9.051   8.974   5.101 -0.3811  0.6149 -0.2010
  840MOL0     O10772   8.961   9.085   5.119  0.5163  0.2836 -0.0636
  840MOL0     C10773   8.831   9.057   5.089 -0.3305 -0.2114  0.1201
  840MOL0     C10774   8.768   9.137   4.995  0.2827 -0.4263 -0.0438
  840MOL0     C10775   8.635   9.129   4.961 -0.3087 -0.7575 -0.3784
  840MOL0     C10776   8.551   9.048   5.040 -0.1297 -0.5872 -0.1172
  840MOL0     C10777   8.409   9.060   5.015  0.0181  0.2251 -0.1072
  840MOL0     O10778   8.370   9.091   4.882  0.5319  0.5590 -0.4102
  840MOL0     C10779   8.236   9.094   4.854 -0.1984 -0.2623  0.2148
  840MOL0     C10780   8.165   8.983   4.819 -0.5713 -0.5223 -0.1949
  840MOL0     C10781   8.030   9.015   4.781 -1.2391  0.6357 -0.0548
  840MOL0     C10782   7.979   9.144   4.765  0.0978 -0.9699  0.2578
  840MOL0     O10783   7.859   9.160   4.700 -0.4859 -0.0412 -0.0866
  840MOL0     C10784   7.751   9.223   4.782  0.5527  0.0978 -0.3217
  840MOL0     C10785   7.696   9.130   4.891 -0.3032  0.3683  0.7957
  840MOL0     C10786   7.590   9.202   4.970  0.2824  0.4113 -0.9523
  840MOL0     C10787   7.467   9.212   4.890  0.0327 -0.6035 -0.1775
  840MOL0     C10788   7.353   9.277   4.970 -0.1716 -0.3511  0.0740
  840MOL0     C10789   7.218   9.276   4.895 -0.0437 -0.3955  0.0120
  840MOL0     C10790   7.100   9.311   4.981 -0.1260 -0.4426  0.6873
  840MOL0     C10791   6.969   9.264   4.917 -0.3684 -0.2202 -0.1464
  840MOL0    Cl10792   6.830   9.269   5.018 -0.0268  0.3146  0.1216
  840MOL0     C10793   8.052   9.257   4.812  0.2170  0.2200  0.2385
  840MOL0     C10794   8.187   9.228   4.855 -0.1438  0.6490 -0.8051
  840MOL0     O10795   8.327   9.048   5.110  0.0414  0.4379  0.0126
  840MOL0     C10796   8.609   8.972   5.138  0.1410 -0.6934 -0.4183
  840MOL0     C10797   8.749   8.966   5.162  0.6164 -0.2080  0.7465
  840MOL0     N10798   9.604   8.995   5.215  0.2326  0.1991  0.4919
  840MOL0     N10799   9.724   8.950   5.237 -0.1238  0.0181 -0.0206
  840MOL0     C10800  10.740   9.224   4.657  0.4768  0.8753 -0.6125
  840MOL0     C10801  10.864   9.248   4.598 -1.0501 -1.0722 -0.3594
  840MOL0     C10802  11.232   9.120   4.328 -0.5080 -0.0772  0.5271
  840MOL0     C10803  11.255   9.244   4.258  0.8712 -0.4792 -0.4341
  840MOL0     C10804  11.352   9.265   4.165  1.1601 -0.7348  0.0119
  840MOL0     C10805  11.432   9.155   4.130 -0.1200  0.0696  0.7058
  840MOL0     O10806  11.536   9.170   4.037 -0.5082 -0.3124 -0.9604
  840MOL0     C10807  11.591   9.049   3.986 -0.1812 -0.6601 -0.0192
  840MOL0     C10808  11.720   9.085   3.899  0.4111  0.1733 -0.0412
  840MOL0     C10809  11.782   8.973   3.827  0.1049  0.9782 -0.4826
  840MOL0     C10810  11.892   9.016   3.744 -0.6445 -0.2297 -0.3907
  840MOL0     C10811  12.018   8.974   3.804  0.6459  0.1723 -0.6884
  840MOL0     C10812  12.109   8.924   3.864  0.9338  0.5554  0.2993
  840MOL0     C10813  11.409   9.036   4.194  0.5890 -0.2431 -0.4805
  840MOL0     C10814  11.317   9.020   4.300 -0.1738  0.1790  0.5814
  840MOL0     H10815  10.856   9.029   4.340  0.1644 -0.4960  0.0880
  840MOL0     H10816  10.640   8.988   4.445 -1.3211 -0.5524  1.1990
  840MOL0     H10817  10.438   9.208   4.523 -1.8761  1.0075 -0.1557
  840MOL0     H10818  10.438   9.259   4.702 -0.8075 -2.3322  2.2970
  840MOL0     H10819  10.287   9.033   4.594  3.4364 -1.0971 -0.0049
  840MOL0     H10820  10.226   9.202   4.631  2.7462  0.5603 -0.5684
  840MOL0     H10821  10.313   9.135   4.882  0.9966 -0.2250 -0.2626
  840MOL0     H10822  10.358   8.979   4.798  2.2561  0.4837 -2.3048
  840MOL0     H10823  10.081   9.115   4.810  2.6297  2.0555  0.5327
  840MOL0     H10824  10.114   8.954   4.740 -0.1952  0.7185 -0.1994
  840MOL0     H10825  10.180   9.023   5.018 -0.0223  2.5331 -2.3877
  840MOL0     H10826  10.193   8.868   4.971  0.2839  1.2720  2.4934
  840MOL0     H10827   9.947   8.845   4.906  3.2123 -0.6896 -1.0243
  840MOL0     H10828   9.924   9.007   4.982  1.1666  0.7929 -0.3210
  840MOL0     H10829  10.067   8.782   5.136 -0.2167 -1.2301 -3.5023
  840MOL0     H10830   9.986   8.925   5.201  1.1395 -0.9436  2.6626
  840MOL0     H10831   9.859   8.705   5.235 -1.5688 -2.0329 -0.8200
  840MOL0     H10832   9.850   8.699   5.054 -0.4881  2.7561 -0.6266
  840MOL0     H10833   9.643   8.803   4.956  1.3659 -1.4436  0.3919
  840MOL0     H10834   9.423   8.981   4.930  2.2022  1.8406 -0.2021
  840MOL0     H10835   9.420   9.112   5.048  2.7700 -0.2757  2.5006
  840MOL0     H10836   9.294   8.941   5.202  0.6998  1.7193 -0.9865
  840MOL0     H10837   9.306   8.839   5.044  1.3036 -0.1663 -0.9712
  840MOL0     H10838   9.199   9.125   5.077 -1.5362  0.4021  1.1842
  840MOL0     H10839   9.181   9.028   4.938 -0.5618  0.9500  0.3944
  840MOL0     H10840   9.073   8.920   5.194  0.4094 -1.0898 -1.3217
  840MOL0     H10841   9.023   8.904   5.022  1.4018  1.5666 -1.7680
  840MOL0     H10842   8.831   9.214   4.953 -1.5511  0.1181 -1.9586
  840MOL0     H10843   8.601   9.197   4.884 -1.9542 -1.8380 -0.6708
  840MOL0     H10844   8.208   8.884   4.817  0.6918  0.0281 -1.2501
  840MOL0     H10845   7.980   8.925   4.748 -0.3070 -0.8255  2.2608
  840MOL0     H10846   7.677   9.244   4.704 -0.4775  4.1205  1.5214
  840MOL0     H10847   7.779   9.318   4.827  0.4271  0.1487 -0.3519
  840MOL0     H10848   7.782   9.098   4.951  0.2385 -0.6143 -0.4759
  840MOL0     H10849   7.653   9.037   4.854 -2.5227  0.1983  3.4141
  840MOL0     H10850   7.622   9.305   4.988  1.9420  0.1068 -1.9580
  840MOL0     H10851   7.573   9.158   5.069  0.7400  0.8376 -0.6776
  840MOL0     H10852   7.485   9.277   4.804  1.3979  0.2399  0.7131
  840MOL0     H10853   7.441   9.109   4.862 -2.0092 -0.2093  0.0543
  840MOL0     H10854   7.382   9.382   4.981 -4.5216  1.2773 -1.8158
  840MOL0     H10855   7.354   9.231   5.069  0.8289  2.4371  1.4911
  840MOL0     H10856   7.206   9.170   4.868  0.9924  0.0156 -2.2952
  840MOL0     H10857   7.228   9.330   4.800  1.4265  0.6813  0.7516
  840MOL0     H10858   7.100   9.250   5.072  0.1570  1.1479  1.8046
  840MOL0     H10859   7.095   9.416   5.011  0.0794  0.0526 -0.9134
  840MOL0     H10860   6.994   9.169   4.868  3.5494  1.8246 -2.6401
  840MOL0     H10861   6.945   9.343   4.846  1.3322  2.9987  2.5935
  840MOL0     H10862   8.009   9.357   4.807  4.2567  2.2302  1.3824
  840MOL0     H10863   8.264   9.303   4.869 -0.3071  1.2023 -2.5696
  840MOL0     H10864   8.555   8.902   5.200  3.8313 -2.7466  0.8015
  840MOL0     H10865   8.780   8.883   5.224 -1.8302 -1.2404  0.7123
  840MOL0     H10866  10.701   9.271   4.746  1.0196 -1.2664  0.8188
  840MOL0     H10867  10.926   9.330   4.632 -0.4558 -0.1263 -3.3846
  840MOL0     H10868  11.185   9.324   4.281  0.5095 -1.0892  0.6991
  840MOL0     H10869  11.383   9.353   4.109  1.2089 -0.4383  0.4927
  840MOL0     H10870  11.518   8.992   3.928 -2.0228  0.3527  1.1970
  840MOL0     H10871  11.630   8.988   4.068  0.6534  0.5323  0.4998
  840MOL0     H10872  11.691   9.160   3.825 -1.0584  0.5637  0.8802
  840MOL0     H10873  11.785   9.144   3.964 -0.3391  2.6772 -1.4085
  840MOL0     H10874  11.705   8.949   3.752 -0.4732  1.3444 -0.0158
  840MOL0     H10875  11.820   8.891   3.887  1.5684  0.7909 -1.6172
  840MOL0     H10876  11.891   8.959   3.651 -1.8328 -1.0994  0.1180
  840MOL0     H10877  11.896   9.124   3.726  1.6003 -0.4375 -1.4109
  840MOL0     H10878  12.184   8.879   3.925 -0.9220  1.3626  3.3558
  840MOL0     H10879  11.471   8.948   4.176 -0.2882 -1.0944  0.5292
  840MOL0     H10880  11.324   8.931   4.361  0.2583 -0.8329 -0.8764
  841MOL0     O10881  10.815   1.227   8.613 -0.6976  0.0006 -1.3008
  841MOL0     C10882  10.862   1.336   8.650  0.3631  0.1243  0.0312
  841MOL0     O10883  10.797   1.457   8.639 -0.0146  0.1945  0.2221
  841MOL0     C10884  10.693   1.466   8.550  0.2211  0.2313 -0.1677
  841MOL0     C10885  10.569   1.421   8.588 -0.1064  0.2390 -0.4983
  841MOL0     C10886  10.462   1.432   8.496 -0.4334 -0.1733 -0.8058
  841MOL0     C10887  10.481   1.448   8.365  0.4118  0.0544 -0.1748
  841MOL0     O10888  10.392   1.405   8.275  1.0338 -0.1569  0.5340
  841MOL0     C10889  10.419   1.425   8.139  0.0553  0.2994  0.4069
  841MOL0     C10890  10.298   1.376   8.066  0.5265 -0.0696 -0.2397
  841MOL0     C10891  10.180   1.469   8.064  0.8249 -0.5155  0.0760
  841MOL0     C10892  10.055   1.370   8.043 -0.3330 -0.3508  0.0713
  841MOL0     C10893   9.927   1.453   8.043 -1.1012 -0.3186 -0.5468
  841MOL0     C10894   9.817   1.351   8.025  0.2649  0.0573  1.7065
  841MOL0     C10895   9.683   1.426   8.000 -0.1379  0.0472 -0.3785
  841MOL0     C10896   9.576   1.328   7.964 -0.0020  0.2721 -0.7747
  841MOL0     N10897   9.583   1.285   7.824 -0.4136  0.5043 -0.1272
  841MOL0     C10898   9.518   1.345   7.720  0.5495 -0.5354 -0.5019
  841MOL0     C10899   9.534   1.253   7.619  0.9737  0.1852 -0.5538
  841MOL0     C10900   9.486   1.281   7.476 -1.0308  0.6146  0.3015
  841MOL0     C10901   9.532   1.410   7.405 -0.2498 -0.7252 -0.6904
  841MOL0     C10902   9.463   1.422   7.268 -0.7002  0.3889  0.2903
  841MOL0     C10903   9.312   1.442   7.263  0.3442 -0.8480  0.0119
  841MOL0     O10904   9.245   1.316   7.281  0.1669 -0.1971  0.0083
  841MOL0     C10905   9.115   1.298   7.270  0.8094 -0.3756 -0.0616
  841MOL0     C10906   9.019   1.402   7.265  0.1098  0.4253 -0.3332
  841MOL0     C10907   8.885   1.373   7.251 -0.3557  0.7760  0.2737
  841MOL0     C10908   8.842   1.240   7.246  0.6154 -0.4127 -0.0455
  841MOL0     C10909   8.697   1.206   7.239 -0.1338  0.1702  0.2912
  841MOL0     O10910   8.657   1.077   7.257  0.3595  0.5230 -0.4819
  841MOL0     C10911   8.521   1.039   7.260  0.8024  0.4130  0.1631
  841MOL0     C10912   8.507   0.898   7.282  0.6904  0.7549 -0.2685
  841MOL0     C10913   8.380   0.840   7.290  0.8916 -1.0985 -0.3714
  841MOL0     C10914   8.262   0.911   7.295  0.2603 -0.8685  0.6429
  841MOL0     O10915   8.143   0.846   7.325  0.4181 -0.2005  0.0434
  841MOL0     C10916   8.037   0.922   7.388  0.5904 -0.2035 -1.0547
  841MOL0     C10917   7.948   0.845   7.483 -0.0753  0.4523  0.1982
  841MOL0     C10918   7.823   0.924   7.522  0.4597  0.6731 -0.6780
  841MOL0     C10919   7.744   0.970   7.406 -0.1114 -0.3051  0.4634
  841MOL0     C10920   7.595   1.016   7.438 -0.4951  0.2573 -0.9134
  841MOL0     C10921   7.562   1.118   7.340 -0.4136  0.5221  0.2224
  841MOL0     C10922   7.421   1.189   7.338  0.4004  0.3361 -0.0978
  841MOL0     C10923   7.415   1.317   7.258 -0.2601  0.2061 -0.5352
  841MOL0    Cl10924   7.442   1.465   7.358  0.5243 -0.0324 -0.1819
  841MOL0     C10925   8.270   1.054   7.278  0.8658  0.1893 -0.0604
  841MOL0     C10926   8.397   1.114   7.263 -0.2365 -0.2475 -0.1003
  841MOL0     O10927   8.628   1.298   7.203 -0.3411 -0.3809 -0.2370
  841MOL0     C10928   8.932   1.139   7.248 -0.0243  0.0780  0.0851
  841MOL0     C10929   9.069   1.166   7.260 -0.1993  0.1298 -0.6039
  841MOL0     N10930   9.625   1.163   7.654 -0.0758  0.2112 -0.3423
  841MOL0     N10931   9.641   1.166   7.789 -0.0077 -1.2463  0.7481
  841MOL0     C10932  10.611   1.489   8.324 -0.8133 -0.2746  0.7063
  841MOL0     C10933  10.718   1.494   8.414 -0.5505 -0.5533  0.5968
  841MOL0     C10934  10.997   1.341   8.706 -0.1124 -0.2373  0.0321
  841MOL0     C10935  11.072   1.224   8.729  0.0096  0.0434  0.2979
  841MOL0     C10936  11.198   1.242   8.795 -0.3966 -0.3457 -0.6038
  841MOL0     C10937  11.250   1.363   8.841 -0.6354  0.7701  0.0011
  841MOL0     O10938  11.382   1.358   8.897 -0.5601  0.7903  0.0136
  841MOL0     C10939  11.444   1.481   8.938 -0.3639  0.0228  0.2772
  841MOL0     C10940  11.588   1.464   8.977 -0.3025 -0.0493 -0.6904
  841MOL0     C10941  11.668   1.396   8.870 -0.7592 -0.0248  0.7917
  841MOL0     C10942  11.814   1.371   8.916 -0.5237 -1.0067  0.3413
  841MOL0     C10943  11.887   1.319   8.804  0.1165  0.0600  1.1830
  841MOL0     C10944  11.941   1.259   8.714 -0.3921 -0.0328 -0.4607
  841MOL0     C10945  11.173   1.475   8.814  0.5005 -0.2649  0.3853
  841MOL0     C10946  11.046   1.464   8.755 -0.8541  0.1312 -0.2658
  841MOL0     H10947  10.548   1.384   8.688  0.6680  0.2065 -0.3428
  841MOL0     H10948  10.365   1.397   8.532 -1.0170  1.4343 -0.7337
  841MOL0     H10949  10.501   1.361   8.107  1.1701  2.2776 -0.8631
  841MOL0     H10950  10.445   1.531   8.127  3.7675 -0.5159 -0.0191
  841MOL0     H10951  10.290   1.273   8.103  0.5898 -0.3599 -1.0124
  841MOL0     H10952  10.323   1.373   7.960 -0.0585  1.7637 -0.4605
  841MOL0     H10953  10.174   1.541   7.982 -0.0864 -3.0522 -2.2234
  841MOL0     H10954  10.181   1.531   8.154  0.8021 -0.4991  0.0656
  841MOL0     H10955  10.067   1.341   7.938 -0.9421  1.3084 -0.4774
  841MOL0     H10956  10.048   1.286   8.114  0.3086  0.2864  0.9106
  841MOL0     H10957   9.921   1.522   7.958 -3.3235  0.3005  0.0329
  841MOL0     H10958   9.911   1.502   8.139  2.2819 -1.9566  1.0220
  841MOL0     H10959   9.808   1.274   8.101 -1.6106 -1.0884  0.4060
  841MOL0     H10960   9.840   1.298   7.931 -1.1465  3.5145 -0.8069
  841MOL0     H10961   9.654   1.479   8.092 -0.8783 -1.3010  0.1867
  841MOL0     H10962   9.691   1.488   7.911 -3.2476 -2.6520 -2.7557
  841MOL0     H10963   9.478   1.369   7.988 -0.7361 -2.0850  0.5635
  841MOL0     H10964   9.588   1.244   8.033 -0.3816 -0.5668 -1.7048
  841MOL0     H10965   9.460   1.436   7.713  0.5889 -0.6173 -3.2696
  841MOL0     H10966   9.378   1.291   7.482 -1.1536 -0.0963 -0.4596
  841MOL0     H10967   9.511   1.197   7.410  0.7501  1.0558  0.3668
  841MOL0     H10968   9.641   1.408   7.397 -0.3360 -0.7063 -2.2072
  841MOL0     H10969   9.505   1.496   7.467 -2.0878  0.5358 -3.0639
  841MOL0     H10970   9.507   1.505   7.212 -1.2659  0.2224 -0.4191
  841MOL0     H10971   9.493   1.332   7.213 -1.1981  0.3251  0.1133
  841MOL0     H10972   9.292   1.478   7.161 -0.9139  0.4897  0.7020
  841MOL0     H10973   9.283   1.526   7.326  1.7180 -1.1791  1.1480
  841MOL0     H10974   9.056   1.504   7.256  0.2728  0.5707  1.4810
  841MOL0     H10975   8.828   1.464   7.234 -1.5475  0.6835  3.1578
  841MOL0     H10976   8.594   0.834   7.267  0.4337  0.4965 -0.6798
  841MOL0     H10977   8.374   0.732   7.303 -0.2167 -1.1465 -1.1115
  841MOL0     H10978   7.975   0.965   7.309  0.9488 -0.2079 -1.3349
  841MOL0     H10979   8.063   1.012   7.444 -1.4888 -0.4270  0.4158
  841MOL0     H10980   8.005   0.825   7.575 -2.7628 -1.0551  1.6386
  841MOL0     H10981   7.918   0.757   7.426 -2.6718  1.9306 -0.8990
  841MOL0     H10982   7.840   1.010   7.588  1.2563  1.1309 -1.4525
  841MOL0     H10983   7.772   0.853   7.587 -1.3940  1.8382 -0.7825
  841MOL0     H10984   7.801   1.053   7.365  0.2285 -1.0164 -0.5628
  841MOL0     H10985   7.738   0.907   7.316 -2.5748 -1.3923  1.3071
  841MOL0     H10986   7.593   1.062   7.537 -2.3473  2.2099 -1.7679
  841MOL0     H10987   7.518   0.938   7.438 -1.2799  0.9756  1.4559
  841MOL0     H10988   7.593   1.084   7.241  0.8044 -2.6036  1.5450
  841MOL0     H10989   7.625   1.204   7.365 -2.7104  1.7368  2.2299
  841MOL0     H10990   7.333   1.129   7.316 -1.7196  2.7587  1.1612
  841MOL0     H10991   7.403   1.215   7.443 -1.7391 -1.2647  0.0038
  841MOL0     H10992   7.314   1.334   7.219 -0.1357  2.2626 -0.0622
  841MOL0     H10993   7.482   1.304   7.172  0.2444 -2.7945  0.1978
  841MOL0     H10994   8.180   1.113   7.287 -0.0463 -1.0408 -0.7519
  841MOL0     H10995   8.382   1.222   7.261 -3.4866 -0.6079 -2.3356
  841MOL0     H10996   8.899   1.036   7.234 -0.7722  0.4869 -1.2900
  841MOL0     H10997   9.135   1.080   7.256 -0.9935 -0.4805 -1.0984
  841MOL0     H10998  10.639   1.492   8.219  1.0437 -4.2010  0.9012
  841MOL0     H10999  10.818   1.522   8.381  0.0079 -1.9742  1.0078
  841MOL0     H11000  11.029   1.126   8.709 -1.8071  0.8774 -0.1461
  841MOL0     H11001  11.256   1.153   8.816 -1.0945 -1.6841 -3.7591
  841MOL0     H11002  11.379   1.515   9.019 -1.4399  2.3495 -1.4196
  841MOL0     H11003  11.434   1.552   8.854  0.5185  0.6485  0.6851
  841MOL0     H11004  11.621   1.567   8.990 -1.6739  0.6491 -2.3393
  841MOL0     H11005  11.603   1.417   9.075 -0.4246  0.7106 -0.3010
  841MOL0     H11006  11.671   1.467   8.787  1.0612  2.0705  2.5398
  841MOL0     H11007  11.624   1.298   8.849 -3.4493  0.9303  1.6871
  841MOL0     H11008  11.859   1.468   8.935  1.3444 -2.1470  2.1298
  841MOL0     H11009  11.826   1.299   8.998  0.8611 -0.2330  0.8342
  841MOL0     H11010  12.004   1.199   8.651  1.3308  1.3435 -0.1073
  841MOL0     H11011  11.222   1.571   8.827 -2.8264  1.8127 -1.1007
  841MOL0     H11012  10.993   1.558   8.740  0.4866  1.3702  2.1876
  842MOL0     O11013   2.499   5.435   4.922 -0.6525  0.2560  0.1074
  842MOL0     C11014   2.598   5.489   4.978 -0.5387 -0.1946  0.1483
  842MOL0     O11015   2.677   5.432   5.070  0.0402  0.3499  0.5256
  842MOL0     C11016   2.675   5.294   5.086 -0.0783  0.5684 -1.0360
  842MOL0     C11017   2.799   5.233   5.095 -0.7721  0.0069 -0.5145
  842MOL0     C11018   2.816   5.097   5.090  0.7998  0.0679 -0.1553
  842MOL0     C11019   2.697   5.016   5.094 -0.3024 -0.4992 -0.4917
  842MOL0     O11020   2.686   4.880   5.077 -0.8277  0.0790 -0.1046
  842MOL0     C11021   2.747   4.805   5.180  0.0632  0.6667 -0.7224
  842MOL0     C11022   2.656   4.797   5.304  0.2310  0.2282  0.3058
  842MOL0     C11023   2.710   4.704   5.412 -0.1198 -0.3272  0.6302
  842MOL0     C11024   2.608   4.688   5.525 -0.9091  0.0041 -0.1055
  842MOL0     C11025   2.663   4.598   5.629 -0.0811  1.0086 -0.2895
  842MOL0     C11026   2.786   4.655   5.704  0.1523 -0.5144  0.1547
  842MOL0     C11027   2.812   4.599   5.846 -0.1812  0.2772  0.5693
  842MOL0     C11028   2.889   4.468   5.854 -0.4385 -0.6818  0.1449
  842MOL0     N11029   2.859   4.386   5.972  0.4816 -0.6448  0.7124
  842MOL0     C11030   2.742   4.314   5.982  1.2669  0.1953 -0.6807
  842MOL0     C11031   2.766   4.230   6.084  0.4747  1.0826  0.0010
  842MOL0     C11032   2.671   4.117   6.119 -0.1542 -0.7320 -0.3472
  842MOL0     C11033   2.553   4.178   6.187 -0.1491 -0.3146 -0.7139
  842MOL0     C11034   2.446   4.072   6.219  0.2785  0.5460 -0.1705
  842MOL0     C11035   2.341   4.120   6.327  0.6043 -0.4586  0.5377
  842MOL0     O11036   2.277   4.230   6.265  0.5187 -0.5458 -0.0935
  842MOL0     C11037   2.200   4.217   6.160 -0.1857  0.2288  0.2543
  842MOL0     C11038   2.126   4.103   6.142 -0.3316  1.2209  0.4558
  842MOL0     C11039   2.045   4.084   6.029  0.0446 -0.1001 -0.3373
  842MOL0     C11040   2.040   4.177   5.918 -1.7036  1.1508 -0.3043
  842MOL0     C11041   1.959   4.154   5.810  1.1522 -0.3123  0.5811
  842MOL0     O11042   1.848   4.062   5.819  0.8944 -0.7245  0.3497
  842MOL0     C11043   1.747   4.074   5.727  0.2401 -0.1338 -0.0615
  842MOL0     C11044   1.677   4.188   5.724  0.1909 -0.4102 -0.0943
  842MOL0     C11045   1.565   4.208   5.639  0.0594 -0.3745  0.5519
  842MOL0     C11046   1.539   4.107   5.538  0.0256  0.8100 -0.5638
  842MOL0     O11047   1.427   4.100   5.456  0.4274 -0.1791  0.1571
  842MOL0     C11048   1.367   4.220   5.418 -0.1129 -0.0456  0.3754
  842MOL0     C11049   1.269   4.195   5.307 -0.7114 -0.8524 -0.4538
  842MOL0     C11050   1.123   4.149   5.348 -0.0855 -0.1033 -0.3862
  842MOL0     C11051   1.044   4.101   5.224 -0.9806  0.5165 -0.8483
  842MOL0     C11052   0.901   4.056   5.260  1.0624  0.2465 -0.5582
  842MOL0     C11053   0.812   4.030   5.133 -0.4334 -0.4294  0.2737
  842MOL0     C11054   0.685   3.958   5.170  0.8438  0.2727 -0.1567
  842MOL0     C11055   0.566   4.049   5.144 -0.5064 -0.0946 -0.6069
  842MOL0    Cl11056   0.565   4.191   5.252  0.2048 -0.3995  0.6944
  842MOL0     C11057   1.615   3.994   5.542  0.2556  0.4446 -0.1034
  842MOL0     C11058   1.714   3.966   5.635  0.2457 -0.4627 -0.5541
  842MOL0     O11059   1.977   4.237   5.720 -0.1398  0.1202 -0.2765
  842MOL0     C11060   2.134   4.280   5.934  0.0023 -0.2745  0.1562
  842MOL0     C11061   2.202   4.309   6.061 -0.4991  0.2826 -0.5098
  842MOL0     N11062   2.895   4.250   6.141 -0.4670 -0.0712  0.1396
  842MOL0     N11063   2.942   4.344   6.067  0.4625 -0.2479 -0.8815
  842MOL0     C11064   2.572   5.067   5.105 -0.0613  0.0396 -0.3810
  842MOL0     C11065   2.557   5.206   5.089 -0.7026 -0.2845 -0.8474
  842MOL0     C11066   2.633   5.622   4.922  0.8641  0.2824 -0.4286
  842MOL0     C11067   2.767   5.642   4.879  0.0517 -0.4327  0.1030
  842MOL0     C11068   2.805   5.760   4.825  0.7315 -0.0041 -1.0184
  842MOL0     C11069   2.722   5.869   4.815 -0.2650  0.1505  0.9365
  842MOL0     O11070   2.784   5.984   4.766  0.2325 -0.5044 -0.0686
  842MOL0     C11071   2.749   6.109   4.831 -0.5201  0.2613  0.0687
  842MOL0     C11072   2.695   6.214   4.735 -0.3064 -0.7469 -0.6986
  842MOL0     C11073   2.692   6.346   4.804  0.5422 -0.1113 -0.3720
  842MOL0     C11074   2.611   6.448   4.716  0.1263  0.5503 -0.0846
  842MOL0     C11075   2.478   6.463   4.785  0.5953 -0.5119  0.1495
  842MOL0     C11076   2.386   6.488   4.855  0.7088 -0.2290  0.8740
  842MOL0     C11077   2.595   5.858   4.867 -0.1556 -0.1285 -0.8612
  842MOL0     C11078   2.545   5.733   4.916  0.9002 -0.5247  0.6501
  842MOL0     H11079   2.891   5.290   5.095 -1.1607  1.3500  5.6494
  842MOL0     H11080   2.908   5.049   5.058 -0.4644 -1.2879 -1.9568
  842MOL0     H11081   2.831   4.860   5.224 -3.1273  3.7749  2.1894
  842MOL0     H11082   2.767   4.701   5.153 -1.7013 -0.6397  2.3808
  842MOL0     H11083   2.562   4.754   5.271 -0.4298  2.2437 -0.5809
  842MOL0     H11084   2.637   4.898   5.341 -1.8266  1.4353 -3.4727
  842MOL0     H11085   2.794   4.758   5.457  0.8757 -0.4376 -1.0348
  842MOL0     H11086   2.742   4.609   5.368  0.8328  0.3181 -0.0997
  842MOL0     H11087   2.575   4.780   5.573 -0.1849 -0.7266  1.9097
  842MOL0     H11088   2.517   4.644   5.482 -1.0908 -0.4695  0.7398
  842MOL0     H11089   2.706   4.509   5.583 -1.0691  0.4672 -0.1907
  842MOL0     H11090   2.584   4.581   5.703  0.7215 -0.5698  0.2594
  842MOL0     H11091   2.771   4.763   5.712 -0.1193 -0.5413  0.0351
  842MOL0     H11092   2.876   4.623   5.650  1.7170 -2.3611  3.5008
  842MOL0     H11093   2.871   4.674   5.899  0.8382 -0.5536  0.6419
  842MOL0     H11094   2.715   4.584   5.894  0.0203 -0.6890  0.6872
  842MOL0     H11095   2.995   4.493   5.855 -0.3176 -1.0136  2.5813
  842MOL0     H11096   2.876   4.415   5.760 -0.3962 -0.7200  0.1607
  842MOL0     H11097   2.648   4.335   5.930  0.9463 -0.7103 -0.4768
  842MOL0     H11098   2.727   4.056   6.191  2.7853  2.2187  0.1075
  842MOL0     H11099   2.639   4.066   6.028 -3.1598 -2.4609  1.4939
  842MOL0     H11100   2.509   4.252   6.120 -2.0203  0.0436  0.8349
  842MOL0     H11101   2.592   4.223   6.278 -0.2313  1.3431 -1.4619
  842MOL0     H11102   2.399   4.048   6.124 -0.0339  0.6072 -0.0338
  842MOL0     H11103   2.495   3.980   6.255  0.6995 -0.0076 -2.0717
  842MOL0     H11104   2.402   4.163   6.407  3.4540  1.1684 -2.2693
  842MOL0     H11105   2.272   4.041   6.358  0.1870 -1.6271 -2.9762
  842MOL0     H11106   2.131   4.024   6.216  0.4511  0.6290 -0.1995
  842MOL0     H11107   1.969   4.007   6.032 -0.4033  0.3679  1.1969
  842MOL0     H11108   1.697   4.272   5.790 -0.4300  0.2418 -0.7262
  842MOL0     H11109   1.514   4.304   5.633  1.5367  0.4072 -0.2256
  842MOL0     H11110   1.441   4.294   5.386 -0.1776 -0.2341 -0.2092
  842MOL0     H11111   1.309   4.274   5.494 -0.9465  0.5684 -0.6791
  842MOL0     H11112   1.316   4.111   5.255  1.1588  0.0019 -0.2129
  842MOL0     H11113   1.270   4.281   5.238  1.4168  1.2135  1.9419
  842MOL0     H11114   1.063   4.228   5.394 -1.7023 -1.1481 -0.6045
  842MOL0     H11115   1.134   4.062   5.413 -0.5866  1.6453  2.1493
  842MOL0     H11116   1.028   4.191   5.165  1.4499  2.5913  1.4193
  842MOL0     H11117   1.095   4.027   5.161 -1.8817 -1.0845  0.2447
  842MOL0     H11118   0.845   4.136   5.311 -2.0775 -2.1148  0.0488
  842MOL0     H11119   0.908   3.969   5.327 -0.4353 -0.1620 -0.8759
  842MOL0     H11120   0.871   3.957   5.077  0.9440 -1.0567  2.3838
  842MOL0     H11121   0.798   4.118   5.071 -0.1123 -1.4412 -1.2869
  842MOL0     H11122   0.684   3.866   5.111 -4.6584  1.3297 -2.2808
  842MOL0     H11123   0.684   3.923   5.274 -2.7197 -1.2406 -0.5660
  842MOL0     H11124   0.472   3.997   5.161 -1.1129  1.0950 -0.1697
  842MOL0     H11125   0.579   4.084   5.041  3.8201 -0.2358 -0.2884
  842MOL0     H11126   1.576   3.919   5.474 -2.5006  0.5353  1.2294
  842MOL0     H11127   1.767   3.871   5.638 -0.5698 -1.0117 -2.0339
  842MOL0     H11128   2.149   4.345   5.848 -0.3789 -1.5566 -0.9072
  842MOL0     H11129   2.276   4.388   6.068 -0.5440  0.1568  2.5319
  842MOL0     H11130   2.489   4.997   5.099  0.0673 -0.0243 -2.1686
  842MOL0     H11131   2.463   5.258   5.076 -0.5064  0.0207 -1.0838
  842MOL0     H11132   2.838   5.561   4.879  1.8229  1.0437  0.6299
  842MOL0     H11133   2.902   5.787   4.784 -0.1526 -0.7619 -3.8568
  842MOL0     H11134   2.838   6.144   4.883 -0.3786  2.3797 -1.4708
  842MOL0     H11135   2.676   6.101   4.912 -0.0496  1.0409  0.5765
  842MOL0     H11136   2.756   6.205   4.645 -1.7133 -0.3213 -1.7224
  842MOL0     H11137   2.591   6.185   4.716 -1.7074  2.0221  1.7672
  842MOL0     H11138   2.795   6.377   4.826 -0.6061  2.3738  2.1424
  842MOL0     H11139   2.644   6.336   4.902 -0.8047 -0.3702 -1.0414
  842MOL0     H11140   2.668   6.541   4.727  0.3691  0.2205  1.8368
  842MOL0     H11141   2.600   6.409   4.614  1.0853  1.7265 -0.6778
  842MOL0     H11142   2.301   6.517   4.913 -0.2167 -1.1410  0.0382
  842MOL0     H11143   2.543   5.954   4.864 -0.1345 -0.1269 -1.2857
  842MOL0     H11144   2.441   5.730   4.945  0.2902  0.0789 -1.3155
  843MOL0     O11145   6.244   3.966   0.642  1.0779  0.0942 -0.3365
  843MOL0     C11146   6.284   3.856   0.678 -0.4163  0.4270  0.4610
  843MOL0     O11147   6.222   3.762   0.745 -0.4699 -0.4416  0.2889
  843MOL0     C11148   6.090   3.781   0.784  0.2231  0.9194  0.3289
  843MOL0     C11149   5.999   3.706   0.715  0.0341 -0.4971  0.1674
  843MOL0     C11150   5.864   3.718   0.752  0.1006 -0.0514 -0.0885
  843MOL0     C11151   5.823   3.803   0.858 -0.2209  0.3287  0.6094
  843MOL0     O11152   5.685   3.805   0.873 -0.2372  0.9832 -0.2256
  843MOL0     C11153   5.632   3.856   0.991 -0.4678 -0.5536  0.4951
  843MOL0     C11154   5.494   3.802   0.996  0.0662  0.3649 -0.5665
  843MOL0     C11155   5.385   3.900   1.021 -0.8169 -0.0637  0.4182
  843MOL0     C11156   5.248   3.834   1.009 -0.1748  0.7454  0.0677
  843MOL0     C11157   5.136   3.927   1.011 -0.3105 -0.3801  0.5670
  843MOL0     C11158   5.006   3.861   1.048  0.7684 -0.5588  0.0173
  843MOL0     C11159   4.888   3.953   1.057  0.4883 -0.5510  0.3545
  843MOL0     C11160   4.859   4.020   0.925  0.3128  0.4312 -0.0582
  843MOL0     N11161   4.721   4.060   0.892 -0.8105  0.0632 -0.1752
  843MOL0     C11162   4.661   4.164   0.943  0.0608 -0.7008 -0.2822
  843MOL0     C11163   4.538   4.150   0.896  0.7905 -0.3179 -0.1180
  843MOL0     C11164   4.406   4.223   0.943  0.9475  0.8447  0.6582
  843MOL0     C11165   4.424   4.339   1.044  0.2597  0.8207  0.2644
  843MOL0     C11166   4.488   4.468   0.982 -1.2157  0.3220 -0.1198
  843MOL0     C11167   4.525   4.573   1.087 -0.2666  0.7680  0.9438
  843MOL0     O11168   4.652   4.535   1.151  0.0809  0.3478 -0.3300
  843MOL0     C11169   4.768   4.506   1.075 -0.0367 -0.0080 -0.4915
  843MOL0     C11170   4.866   4.430   1.143 -0.0593  0.3427 -0.4426
  843MOL0     C11171   4.984   4.396   1.077  0.2112  0.6472 -0.0043
  843MOL0     C11172   5.009   4.442   0.950 -1.1931 -0.1480 -0.0171
  843MOL0     C11173   5.129   4.409   0.884 -0.4999  0.8075 -0.3681
  843MOL0     O11174   5.200   4.307   0.943  0.6169 -0.2625  0.0325
  843MOL0     C11175   5.314   4.266   0.882 -0.8263  0.5150 -0.0516
  843MOL0     C11176   5.316   4.218   0.754  0.0888  0.6242  0.7915
  843MOL0     C11177   5.436   4.196   0.684  0.1620 -0.0356 -0.2534
  843MOL0     C11178   5.563   4.223   0.741 -0.5296 -0.1013 -0.4274
  843MOL0     O11179   5.680   4.228   0.676  0.1479  0.6696  1.1621
  843MOL0     C11180   5.673   4.200   0.532  0.7369  0.7148  0.4669
  843MOL0     C11181   5.807   4.204   0.466  0.2393 -0.4875  0.3348
  843MOL0     C11182   5.868   4.349   0.477  0.5429  0.1317  0.5290
  843MOL0     C11183   5.955   4.386   0.354 -0.3110 -0.1794  0.3117
  843MOL0     C11184   6.069   4.478   0.383  0.2095  0.0559 -0.3189
  843MOL0     C11185   6.148   4.545   0.270  0.0195 -0.4426  0.0877
  843MOL0     C11186   6.262   4.646   0.307  0.3291  0.5699  0.7563
  843MOL0     C11187   6.324   4.709   0.182  0.3071  0.5467  0.2559
  843MOL0    Cl11188   6.202   4.778   0.066 -0.0004 -0.5114 -0.3366
  843MOL0     C11189   5.566   4.264   0.875 -0.2936 -0.2973  0.4084
  843MOL0     C11190   5.441   4.290   0.941 -0.1682 -0.3099 -0.6509
  843MOL0     O11191   5.176   4.472   0.792  0.1515 -0.0924  0.0374
  843MOL0     C11192   4.916   4.524   0.888 -0.0865 -0.4541  0.8943
  843MOL0     C11193   4.795   4.553   0.949  0.6357 -0.2595  0.4106
  843MOL0     N11194   4.525   4.054   0.792 -0.2636  0.5884  0.5743
  843MOL0     N11195   4.652   4.015   0.781  0.3392 -0.1443 -0.2960
  843MOL0     C11196   5.922   3.889   0.910  0.5200 -0.7484 -0.0611
  843MOL0     C11197   6.054   3.876   0.878 -0.7211 -0.6045  0.2183
  843MOL0     C11198   6.433   3.839   0.668 -0.0664 -0.5304 -0.0832
  843MOL0     C11199   6.503   3.883   0.552 -0.0360  0.1868  0.0384
  843MOL0     C11200   6.640   3.871   0.539 -0.2608 -0.0575 -0.3012
  843MOL0     C11201   6.714   3.811   0.636  0.3793  0.4064 -0.9555
  843MOL0     O11202   6.837   3.779   0.607 -0.1285  0.2181 -0.4004
  843MOL0     C11203   6.937   3.869   0.662  0.0323  1.0545  0.0993
  843MOL0     C11204   7.075   3.839   0.602 -0.2053  0.3286 -0.9423
  843MOL0     C11205   7.180   3.925   0.667  0.1764  0.4478  0.3241
  843MOL0     C11206   7.306   3.903   0.599  0.1707  0.1805 -0.9358
  843MOL0     C11207   7.362   3.770   0.606 -0.5787  0.2172  0.0857
  843MOL0     C11208   7.409   3.660   0.612 -0.4670  1.2134 -0.1339
  843MOL0     C11209   6.649   3.772   0.753  0.4164 -0.5974  0.6632
  843MOL0     C11210   6.513   3.783   0.769  0.6085 -0.0474 -0.3893
  843MOL0     H11211   6.036   3.643   0.635  1.9311  2.8964 -1.8899
  843MOL0     H11212   5.782   3.666   0.703 -0.8645 -2.0496  3.3411
  843MOL0     H11213   5.632   3.964   0.975  1.4232 -0.5527  0.3020
  843MOL0     H11214   5.689   3.833   1.082  0.5704  0.7077  0.1901
  843MOL0     H11215   5.496   3.747   1.091  0.6724 -0.1123 -0.8475
  843MOL0     H11216   5.478   3.724   0.920  2.0848 -1.6241  0.9015
  843MOL0     H11217   5.384   3.971   0.938  2.8834  0.3861  0.6210
  843MOL0     H11218   5.395   3.949   1.118  2.5346 -0.9030  0.6040
  843MOL0     H11219   5.242   3.754   0.935  3.5868 -0.4439  0.8450
  843MOL0     H11220   5.238   3.789   1.108 -3.7625  0.4911 -0.2663
  843MOL0     H11221   5.135   3.978   0.914 -0.7111 -0.4745  0.5201
  843MOL0     H11222   5.158   4.010   1.078 -1.3277  0.7654 -0.4552
  843MOL0     H11223   5.014   3.815   1.147  1.6290  0.2266  0.3248
  843MOL0     H11224   4.977   3.779   0.981  0.1336  0.1783 -0.6244
  843MOL0     H11225   4.805   3.895   1.097 -0.4880  0.4735 -0.1133
  843MOL0     H11226   4.915   4.039   1.120 -2.1178  2.3889 -2.1673
  843MOL0     H11227   4.870   3.937   0.854  1.2547 -1.2360  1.9194
  843MOL0     H11228   4.934   4.094   0.894  2.7172 -2.3836 -1.5159
  843MOL0     H11229   4.684   4.244   1.013 -1.3312 -0.8117  0.3405
  843MOL0     H11230   4.330   4.154   0.981 -0.7452  0.1707 -3.3768
  843MOL0     H11231   4.345   4.258   0.859 -0.8649  0.7581  1.8861
  843MOL0     H11232   4.488   4.306   1.126 -0.2657 -0.2110  0.2707
  843MOL0     H11233   4.325   4.371   1.079  0.5939  0.0101  2.0745
  843MOL0     H11234   4.572   4.430   0.924 -0.9098 -1.2509  1.2877
  843MOL0     H11235   4.405   4.499   0.918 -2.7735 -0.3933  1.4590
  843MOL0     H11236   4.443   4.582   1.159 -0.5985  0.3586  0.6254
  843MOL0     H11237   4.534   4.668   1.035 -0.7621 -0.0458 -0.6802
  843MOL0     H11238   4.860   4.404   1.248  1.8575 -0.3653 -0.4689
  843MOL0     H11239   5.058   4.336   1.128  0.5564  2.1513  1.3545
  843MOL0     H11240   5.225   4.192   0.701 -0.3590 -1.6257  2.5175
  843MOL0     H11241   5.419   4.176   0.579  1.2151 -0.9148 -0.2694
  843MOL0     H11242   5.604   4.274   0.491  3.7210  1.5279 -3.8282
  843MOL0     H11243   5.630   4.100   0.520  0.8900  0.7869 -0.7984
  843MOL0     H11244   5.811   4.154   0.368 -2.2361 -1.0880  0.4900
  843MOL0     H11245   5.875   4.142   0.525 -0.6875 -0.7888  1.0925
  843MOL0     H11246   5.911   4.368   0.575 -0.8811  1.6364  0.9011
  843MOL0     H11247   5.786   4.421   0.473 -1.1000 -1.6930 -1.2991
  843MOL0     H11248   6.013   4.305   0.307  1.3631  1.9474 -1.5421
  843MOL0     H11249   5.884   4.427   0.282 -0.5475  1.6080  1.5105
  843MOL0     H11250   6.138   4.420   0.445  0.8380 -1.1112 -2.0458
  843MOL0     H11251   6.046   4.562   0.449  2.8014  0.5750  0.0315
  843MOL0     H11252   6.073   4.604   0.217 -0.3214 -0.9549 -0.0109
  843MOL0     H11253   6.183   4.473   0.195 -1.6234 -2.5099  1.1668
  843MOL0     H11254   6.222   4.726   0.371  3.0452  2.3443  0.4188
  843MOL0     H11255   6.341   4.586   0.351  1.8613 -0.6197 -3.1852
  843MOL0     H11256   6.379   4.634   0.124 -0.7537  1.2265 -1.7004
  843MOL0     H11257   6.396   4.785   0.214 -0.3620  1.6678 -0.8261
  843MOL0     H11258   5.661   4.290   0.921 -0.1915  0.1245 -0.0396
  843MOL0     H11259   5.453   4.331   1.041  3.6744  0.0630 -1.1037
  843MOL0     H11260   4.937   4.549   0.785  1.3919  2.6689  1.8481
  843MOL0     H11261   4.718   4.596   0.886 -2.3258 -3.1861  1.7307
  843MOL0     H11262   5.893   3.955   0.991  0.3663  0.2105 -0.8789
  843MOL0     H11263   6.136   3.937   0.913  1.2640  0.5858 -5.3420
  843MOL0     H11264   6.443   3.926   0.473  1.7176 -1.7971 -2.5236
  843MOL0     H11265   6.698   3.904   0.453  1.7603  0.9880  1.3782
  843MOL0     H11266   6.936   3.866   0.772 -0.9793  2.9417  0.1762
  843MOL0     H11267   6.916   3.972   0.633  0.6292  0.8228 -1.2403
  843MOL0     H11268   7.102   3.733   0.614 -0.6761  0.3827  0.8375
  843MOL0     H11269   7.083   3.857   0.494  2.0337  1.5299 -0.6325
  843MOL0     H11270   7.190   3.905   0.774  1.9222  1.6565  0.4196
  843MOL0     H11271   7.157   4.031   0.654  2.5504  0.6737 -3.4184
  843MOL0     H11272   7.308   3.926   0.492 -1.4064  0.5678 -0.8977
  843MOL0     H11273   7.377   3.975   0.641 -1.3288  1.5905 -0.7321
  843MOL0     H11274   7.437   3.557   0.616 -0.7406  0.9448 -2.7991
  843MOL0     H11275   6.695   3.721   0.838  0.7304  0.2625  1.0158
  843MOL0     H11276   6.470   3.747   0.862  1.9865  2.9967  1.5987
  844MOL0     O11277   8.795   8.778   5.495  0.8527 -0.0988  0.3570
  844MOL0     C11278   8.865   8.693   5.553  0.4827 -0.0116  0.3082
  844MOL0     O11279   8.819   8.580   5.621  0.1413  0.0549  0.3378
  844MOL0     C11280   8.692   8.528   5.606  0.0013 -0.9711 -0.2040
  844MOL0     C11281   8.595   8.541   5.509 -0.5710 -0.5846 -0.0759
  844MOL0     C11282   8.475   8.464   5.509 -0.3158  0.1528 -0.0476
  844MOL0     C11283   8.444   8.387   5.616  1.5774  0.6458 -0.1664
  844MOL0     O11284   8.328   8.317   5.609  0.2861  0.0457  0.0723
  844MOL0     C11285   8.275   8.265   5.735  0.3756  0.7063 -0.2885
  844MOL0     C11286   8.163   8.160   5.711  0.3362 -0.1804 -0.1966
  844MOL0     C11287   8.030   8.227   5.701  1.1713 -0.7589 -1.0983
  844MOL0     C11288   7.945   8.135   5.619  0.0842 -0.2243  0.7831
  844MOL0     C11289   7.834   8.211   5.554  0.3073  0.2312  0.5700
  844MOL0     C11290   7.744   8.126   5.459  0.3923  0.5935 -0.1991
  844MOL0     C11291   7.631   8.206   5.394 -0.1609  0.9082 -0.1955
  844MOL0     C11292   7.540   8.286   5.478  0.3204  0.4190  0.3461
  844MOL0     N11293   7.425   8.205   5.526  0.4054  0.5627 -0.5146
  844MOL0     C11294   7.296   8.226   5.482  0.0289 -0.0851  0.8582
  844MOL0     C11295   7.217   8.155   5.564  0.9935 -0.3082  1.3321
  844MOL0     C11296   7.071   8.124   5.556  1.1546  0.2536 -0.2023
  844MOL0     C11297   6.987   8.219   5.468  1.2002 -0.2939 -0.2695
  844MOL0     C11298   6.836   8.205   5.502  0.1202  0.3289  0.1288
  844MOL0     C11299   6.737   8.277   5.426  0.0883 -0.2298  0.9792
  844MOL0     O11300   6.617   8.205   5.449 -0.1451  0.3844  0.2951
  844MOL0     C11301   6.493   8.263   5.400 -0.3951  0.7452 -0.2942
  844MOL0     C11302   6.484   8.376   5.307 -0.0007  0.0123 -0.1000
  844MOL0     C11303   6.357   8.424   5.259 -0.0137  0.5111  0.0797
  844MOL0     C11304   6.241   8.366   5.306  0.5703  0.0075 -0.0486
  844MOL0     C11305   6.111   8.420   5.260 -0.6619  0.0507  0.3973
  844MOL0     O11306   6.002   8.384   5.329  0.1022 -0.4614 -0.2001
  844MOL0     C11307   5.870   8.418   5.301  0.8769 -1.1509 -1.3137
  844MOL0     C11308   5.822   8.505   5.201  0.3012 -0.5305  0.7512
  844MOL0     C11309   5.687   8.547   5.185 -0.7976  0.8748 -0.1545
  844MOL0     C11310   5.592   8.491   5.265 -0.2945 -0.8218 -0.3856
  844MOL0     O11311   5.460   8.518   5.258  0.3399  0.7197  0.0050
  844MOL0     C11312   5.395   8.611   5.169 -0.3057 -0.2467 -0.0354
  844MOL0     C11313   5.413   8.763   5.211 -0.2496 -0.2384  0.6690
  844MOL0     C11314   5.367   8.851   5.095 -0.0542 -0.2957  0.9993
  844MOL0     C11315   5.357   8.987   5.159 -0.4571 -0.4894  0.7849
  844MOL0     C11316   5.283   9.105   5.074 -0.5273 -0.3591  0.2811
  844MOL0     C11317   5.375   9.157   4.953 -0.6796 -0.8537  0.4272
  844MOL0     C11318   5.346   9.296   4.898  0.1192 -0.3660  0.2159
  844MOL0     C11319   5.395   9.331   4.761 -0.0106 -0.8338  0.0049
  844MOL0    Cl11320   5.349   9.503   4.724  0.2255 -0.4193 -0.7798
  844MOL0     C11321   5.635   8.402   5.365 -0.6289 -0.1025 -0.0016
  844MOL0     C11322   5.769   8.362   5.382  0.1944 -0.6112  0.4462
  844MOL0     O11323   6.114   8.501   5.168 -0.4497  0.3877 -0.5766
  844MOL0     C11324   6.251   8.252   5.399  1.0089 -0.0152  0.1959
  844MOL0     C11325   6.375   8.200   5.437  1.0012 -0.7895 -0.1429
  844MOL0     N11326   7.292   8.094   5.664 -0.5686 -0.4641  0.0770
  844MOL0     N11327   7.414   8.126   5.637 -0.0450  0.9154 -1.0782
  844MOL0     C11328   8.531   8.373   5.720  0.1326  0.8150  0.0562
  844MOL0     C11329   8.655   8.444   5.711 -0.0122  0.5653 -0.2259
  844MOL0     C11330   9.009   8.709   5.541 -0.0230 -0.3403  0.3154
  844MOL0     C11331   9.065   8.833   5.495  0.2080 -0.3648  0.4611
  844MOL0     C11332   9.209   8.845   5.496  0.5811 -0.0703 -0.2137
  844MOL0     C11333   9.288   8.728   5.535  0.0481 -1.3876  0.3594
  844MOL0     O11334   9.430   8.730   5.542 -0.2489  0.3554 -0.8265
  844MOL0     C11335   9.493   8.854   5.512  0.7139  0.3094  0.9700
  844MOL0     C11336   9.644   8.858   5.514 -0.1975 -0.3147  0.0079
  844MOL0     C11337   9.708   8.834   5.649 -0.7367 -0.3109  0.7235
  844MOL0     C11338   9.854   8.862   5.666 -0.6021  0.4847  1.4266
  844MOL0     C11339   9.933   8.764   5.586  0.0286 -0.1867  0.9383
  844MOL0     C11340  10.002   8.692   5.516  0.4878  0.3502  0.5504
  844MOL0     C11341   9.232   8.616   5.576  0.7518  0.0795 -0.3727
  844MOL0     C11342   9.091   8.606   5.585 -0.5901 -0.4143 -0.5093
  844MOL0     H11343   8.614   8.613   5.430 -2.0474  0.8600  0.8393
  844MOL0     H11344   8.404   8.480   5.428  1.5098 -0.3123 -1.8184
  844MOL0     H11345   8.233   8.350   5.790 -0.1882  0.1220  0.1902
  844MOL0     H11346   8.353   8.214   5.793  0.7217 -2.1126 -2.9787
  844MOL0     H11347   8.164   8.082   5.788 -0.2199  0.1026  0.0976
  844MOL0     H11348   8.184   8.097   5.624 -1.6207  0.1638 -0.9700
  844MOL0     H11349   8.043   8.328   5.661  0.9213 -0.1506  0.3186
  844MOL0     H11350   7.979   8.228   5.797 -2.3727 -0.3642 -2.8249
  844MOL0     H11351   8.005   8.097   5.536  1.8151  0.3534  1.7148
  844MOL0     H11352   7.920   8.051   5.685  2.4456 -0.1189  1.9215
  844MOL0     H11353   7.888   8.279   5.488  2.7326  1.3799  3.5206
  844MOL0     H11354   7.778   8.260   5.634 -0.1633 -0.4612  0.6834
  844MOL0     H11355   7.710   8.047   5.527  2.3069  1.2289  1.6050
  844MOL0     H11356   7.806   8.081   5.381  0.8721 -1.6292  1.3561
  844MOL0     H11357   7.663   8.263   5.306 -1.8066 -0.2044 -1.6007
  844MOL0     H11358   7.561   8.130   5.357 -1.9855  1.6716  1.5162
  844MOL0     H11359   7.490   8.365   5.422  0.6889 -0.2345 -0.9410
  844MOL0     H11360   7.582   8.346   5.560 -0.0927  1.4228 -0.1748
  844MOL0     H11361   7.257   8.283   5.397 -0.5360 -3.2290 -1.1570
  844MOL0     H11362   7.042   8.132   5.662  1.8264 -0.1212  0.0141
  844MOL0     H11363   7.048   8.022   5.524 -0.9844 -0.8124  3.9710
  844MOL0     H11364   7.014   8.187   5.366 -0.4724  1.6188 -1.3906
  844MOL0     H11365   7.007   8.324   5.490 -0.8743 -0.3578  2.3416
  844MOL0     H11366   6.808   8.101   5.479 -1.8284  1.2749 -2.2604
  844MOL0     H11367   6.826   8.234   5.607  4.3568 -0.2057  0.8740
  844MOL0     H11368   6.781   8.274   5.326 -0.6534 -2.1883  0.6705
  844MOL0     H11369   6.741   8.383   5.453 -1.1701  0.2456 -0.6017
  844MOL0     H11370   6.574   8.431   5.285  0.6418  0.6902  3.6151
  844MOL0     H11371   6.369   8.505   5.189 -2.0334  0.1453 -0.7456
  844MOL0     H11372   5.882   8.544   5.119  0.6135  0.7700  1.5636
  844MOL0     H11373   5.659   8.623   5.113 -2.9173  1.3600  1.0955
  844MOL0     H11374   5.290   8.586   5.157 -0.5573  0.7420  0.0401
  844MOL0     H11375   5.448   8.597   5.075  0.3028  2.3433 -0.1551
  844MOL0     H11376   5.521   8.779   5.224  0.0442  0.2859 -1.8975
  844MOL0     H11377   5.357   8.786   5.302  1.1145 -1.0767  1.7561
  844MOL0     H11378   5.270   8.815   5.060 -0.4300  0.0782  1.6450
  844MOL0     H11379   5.446   8.867   5.021 -1.9894  3.1236 -0.5635
  844MOL0     H11380   5.291   8.984   5.246 -1.3670 -1.3885  0.0905
  844MOL0     H11381   5.456   9.027   5.182 -0.4623  0.2367 -0.3680
  844MOL0     H11382   5.269   9.195   5.134 -0.4778  0.0606 -0.3199
  844MOL0     H11383   5.188   9.064   5.038 -1.7357  0.2883  2.5568
  844MOL0     H11384   5.372   9.082   4.874 -2.6717 -0.8094  0.4127
  844MOL0     H11385   5.480   9.167   4.982 -0.3671 -0.8014 -0.7076
  844MOL0     H11386   5.238   9.310   4.892  0.3296  1.0339 -0.5892
  844MOL0     H11387   5.395   9.373   4.959 -2.8484 -0.4100  2.9104
  844MOL0     H11388   5.347   9.260   4.693 -1.2867 -1.5663  1.6054
  844MOL0     H11389   5.504   9.326   4.760  0.1439  1.5287 -1.5285
  844MOL0     H11390   5.563   8.350   5.427 -0.6501 -1.0720 -0.8048
  844MOL0     H11391   5.791   8.291   5.462 -2.9401 -1.4650  0.7097
  844MOL0     H11392   6.156   8.202   5.414 -0.0044  0.7942 -2.7674
  844MOL0     H11393   6.375   8.105   5.490 -2.7691 -0.8055  0.0724
  844MOL0     H11394   8.524   8.309   5.807  0.5258 -2.4930 -2.1665
  844MOL0     H11395   8.723   8.416   5.791 -1.0681  0.0214  0.4955
  844MOL0     H11396   9.005   8.913   5.451 -1.2079 -2.1203 -0.9565
  844MOL0     H11397   9.253   8.935   5.454 -0.2383  0.5859  0.3119
  844MOL0     H11398   9.449   8.932   5.575 -1.0302 -0.9822  1.4373
  844MOL0     H11399   9.456   8.873   5.411  0.2568 -1.7337  0.7199
  844MOL0     H11400   9.683   8.784   5.443 -2.9317 -1.1538 -0.7363
  844MOL0     H11401   9.677   8.960   5.489  0.6691 -1.3183 -3.5269
  844MOL0     H11402   9.684   8.730   5.675 -1.1428 -0.2882  0.4502
  844MOL0     H11403   9.663   8.905   5.719  1.0945 -0.7912  2.4770
  844MOL0     H11404   9.872   8.964   5.632  0.5453 -1.0417 -3.3384
  844MOL0     H11405   9.886   8.846   5.769 -0.2659 -2.9810  0.8927
  844MOL0     H11406  10.048   8.628   5.442  0.8497 -1.8106  2.5414
  844MOL0     H11407   9.299   8.532   5.577 -1.4742 -1.7989 -0.5115
  844MOL0     H11408   9.047   8.517   5.630  1.6586 -2.6401 -2.3533
  845MOL0     O11409   1.273   0.846   5.048  0.1917  0.1191  0.2613
  845MOL0     C11410   1.356   0.826   4.956  0.4258  0.4027 -0.5445
  845MOL0     O11411   1.335   0.824   4.818  0.4251 -0.2638 -0.1555
  845MOL0     C11412   1.200   0.837   4.793 -0.0597 -0.2799 -0.0628
  845MOL0     C11413   1.141   0.726   4.744  0.1144  0.3509 -0.6060
  845MOL0     C11414   1.005   0.721   4.723 -1.0548  0.1958  0.1649
  845MOL0     C11415   0.931   0.835   4.736 -0.1826  0.1328  0.4207
  845MOL0     O11416   0.801   0.834   4.692  0.3398  0.0770 -0.0223
  845MOL0     C11417   0.769   0.938   4.598  0.2309  0.4025 -0.2116
  845MOL0     C11418   0.628   0.938   4.557 -0.2740 -0.8134 -0.6737
  845MOL0     C11419   0.603   1.016   4.424 -0.6026 -0.4353 -1.0432
  845MOL0     C11420   0.453   1.018   4.404  0.6465  0.5891  0.0256
  845MOL0     C11421   0.412   1.045   4.258  0.3834  0.1343  0.5245
  845MOL0     C11422   0.277   1.111   4.246 -0.0789  0.0492 -0.1947
  845MOL0     C11423   0.257   1.191   4.113  0.0807  0.1276 -0.0273
  845MOL0     C11424   0.335   1.318   4.100  0.2240 -1.2340 -0.1208
  845MOL0     N11425   0.271   1.408   4.003 -0.5187 -0.1657  1.1579
  845MOL0     C11426   0.232   1.537   4.024 -0.3627  0.4496  0.6993
  845MOL0     C11427   0.167   1.571   3.913  0.4266 -0.1630  0.1551
  845MOL0     C11428   0.117   1.705   3.878  0.6847 -0.5951  0.0753
  845MOL0     C11429  -0.036   1.725   3.880  0.4792 -0.0913 -0.5586
  845MOL0     C11430  -0.100   1.865   3.895  0.1004  0.1746 -0.4339
  845MOL0     C11431  -0.248   1.865   3.849  0.3501  1.0098 -0.8233
  845MOL0     O11432  -0.335   1.797   3.945  0.4109 -0.2903 -1.2457
  845MOL0     C11433  -0.460   1.853   3.950  0.1221  0.0486 -0.8794
  845MOL0     C11434  -0.539   1.863   3.829 -0.5584 -0.0559  0.2874
  845MOL0     C11435  -0.676   1.896   3.836  0.8550 -0.6936  0.4007
  845MOL0     C11436  -0.733   1.935   3.965  0.2124  0.3020 -0.4015
  845MOL0     C11437  -0.868   1.995   3.961 -0.7677 -0.1459  0.6979
  845MOL0     O11438  -0.935   1.996   4.078 -0.7179  0.0857  0.9272
  845MOL0     C11439  -1.072   2.002   4.064  0.6043 -0.9630 -0.1767
  845MOL0     C11440  -1.158   1.907   4.010 -0.1556 -0.4713 -0.2890
  845MOL0     C11441  -1.297   1.920   3.992 -0.9874  0.4301  0.1287
  845MOL0     C11442  -1.357   2.031   4.061  0.3691  0.4619  0.0783
  845MOL0     O11443  -1.498   2.053   4.079 -0.2897  0.4904  0.3025
  845MOL0     C11444  -1.582   1.942   4.036 -0.0019  0.4493  0.1017
  845MOL0     C11445  -1.739   1.978   4.051 -0.4113  0.7487 -0.7342
  845MOL0     C11446  -1.783   2.123   4.029 -0.3801 -0.4983 -0.0464
  845MOL0     C11447  -1.899   2.162   4.111  0.7486 -1.0330  0.0848
  845MOL0     C11448  -2.029   2.088   4.069  0.3401  0.3415 -0.4516
  845MOL0     C11449  -2.144   2.150   4.150  0.7527 -0.5580  0.4562
  845MOL0     C11450  -2.278   2.104   4.098  0.4469 -0.3210  0.5714
  845MOL0     C11451  -2.316   1.964   4.097 -0.0655 -0.3536  1.0815
  845MOL0    Cl11452  -2.473   1.941   4.002 -0.1012 -0.1571  0.1925
  845MOL0     C11453  -1.273   2.121   4.128 -0.5525  0.1121 -0.0154
  845MOL0     C11454  -1.134   2.113   4.122 -0.4435  0.4936 -0.4984
  845MOL0     O11455  -0.915   2.025   3.858 -0.0174 -0.4942 -0.0838
  845MOL0     C11456  -0.655   1.926   4.081 -0.8103  0.0433  0.8597
  845MOL0     C11457  -0.525   1.879   4.076 -0.1672 -1.1532  0.5146
  845MOL0     N11458   0.145   1.463   3.833  0.6294  0.8301 -0.5935
  845MOL0     N11459   0.216   1.372   3.883 -0.2997  1.1216 -0.2450
  845MOL0     C11460   0.984   0.944   4.790  0.6391 -0.2351 -0.0712
  845MOL0     C11461   1.123   0.949   4.821  1.9003 -0.1502 -0.2017
  845MOL0     C11462   1.485   0.793   5.001  0.7747  0.0838  0.0934
  845MOL0     C11463   1.551   0.860   5.107  0.1138  0.1553  0.4795
  845MOL0     C11464   1.684   0.836   5.142  0.6491 -0.3266 -0.5780
  845MOL0     C11465   1.761   0.741   5.076 -0.0960  0.5936 -0.4293
  845MOL0     O11466   1.887   0.722   5.109  0.2912  0.5977  0.6316
  845MOL0     C11467   1.970   0.622   5.038  0.0294 -0.3953 -0.0101
  845MOL0     C11468   2.123   0.663   5.063 -0.1274  0.2991 -0.7702
  845MOL0     C11469   2.223   0.577   4.982 -0.0694 -0.2466 -0.6097
  845MOL0     C11470   2.364   0.642   5.001 -0.9752 -0.7619  0.3137
  845MOL0     C11471   2.478   0.552   4.984 -0.1979 -0.0183 -0.2370
  845MOL0     C11472   2.574   0.488   4.958 -0.6082  0.0390  0.3717
  845MOL0     C11473   1.698   0.674   4.966  0.0809 -0.9183 -0.1134
  845MOL0     C11474   1.560   0.693   4.935  0.3092  0.1140  0.8154
  845MOL0     H11475   1.195   0.633   4.737 -1.3993 -0.9305  2.6747
  845MOL0     H11476   0.961   0.632   4.680 -0.2901 -0.4521  0.6930
  845MOL0     H11477   0.825   0.912   4.508 -2.3563 -1.1143 -1.5005
  845MOL0     H11478   0.797   1.039   4.631  2.5601 -0.4056  0.5387
  845MOL0     H11479   0.570   0.989   4.635  1.3456  0.0915 -0.0097
  845MOL0     H11480   0.591   0.836   4.547  0.7477 -1.3840  1.0053
  845MOL0     H11481   0.661   0.965   4.347  1.4720  0.1896  0.0402
  845MOL0     H11482   0.649   1.115   4.429  1.8567 -1.5345 -0.7036
  845MOL0     H11483   0.410   0.921   4.429 -1.8839  1.5629 -0.2903
  845MOL0     H11484   0.417   1.097   4.471 -2.3063  0.7857 -1.6466
  845MOL0     H11485   0.400   0.950   4.205 -2.5338  1.2737 -1.0986
  845MOL0     H11486   0.489   1.101   4.204 -1.8016  0.9910 -1.9340
  845MOL0     H11487   0.260   1.178   4.330  2.9923 -0.6482  1.1246
  845MOL0     H11488   0.206   1.028   4.256 -0.7079  0.6990  0.8452
  845MOL0     H11489   0.272   1.126   4.027  1.1583  2.1161 -1.4195
  845MOL0     H11490   0.153   1.219   4.131  0.1139 -0.0767  0.5105
  845MOL0     H11491   0.431   1.298   4.052  0.7799  0.2084  0.3455
  845MOL0     H11492   0.342   1.373   4.195  1.0430 -0.9180 -0.3608
  845MOL0     H11493   0.256   1.608   4.102  0.4924  1.2755 -0.2720
  845MOL0     H11494   0.143   1.716   3.772 -2.1930 -3.0951 -1.0458
  845MOL0     H11495   0.164   1.776   3.947 -0.8237  0.6015 -0.0689
  845MOL0     H11496  -0.073   1.670   3.968 -2.1825  2.0240 -0.2141
  845MOL0     H11497  -0.082   1.673   3.796  0.9504  1.6193 -1.9270
  845MOL0     H11498  -0.099   1.890   4.001  0.2442 -1.3525 -0.0536
  845MOL0     H11499  -0.041   1.932   3.832  1.0644  1.3140  1.5859
  845MOL0     H11500  -0.256   1.805   3.757 -0.5271 -3.1161  1.6929
  845MOL0     H11501  -0.289   1.965   3.834 -0.4872  1.0234  1.2741
  845MOL0     H11502  -0.497   1.816   3.741  2.3254 -0.2461  1.6631
  845MOL0     H11503  -0.732   1.889   3.743  2.0291  0.7862 -0.4850
  845MOL0     H11504  -1.118   1.818   3.962  2.8044  0.0970  0.8876
  845MOL0     H11505  -1.351   1.839   3.944  5.2463 -2.4891 -3.1024
  845MOL0     H11506  -1.556   1.852   4.092  1.8260  3.0324  3.9210
  845MOL0     H11507  -1.571   1.921   3.930 -2.6210 -2.2619  0.2370
  845MOL0     H11508  -1.751   1.959   4.158  3.7533 -3.3589 -0.6867
  845MOL0     H11509  -1.807   1.918   3.989  0.4702  0.3864 -1.3728
  845MOL0     H11510  -1.805   2.144   3.924  2.0976 -0.8689 -0.7065
  845MOL0     H11511  -1.703   2.183   4.074 -2.5052  0.8836  2.1162
  845MOL0     H11512  -1.879   2.126   4.213 -0.7968 -0.8753  0.4755
  845MOL0     H11513  -1.913   2.270   4.120 -0.7496 -1.2261  0.5188
  845MOL0     H11514  -2.021   1.979   4.064 -2.9879  0.0511 -3.4526
  845MOL0     H11515  -2.043   2.125   3.967 -2.3404 -1.6935 -0.9125
  845MOL0     H11516  -2.132   2.258   4.162 -0.6631 -0.3539  0.1115
  845MOL0     H11517  -2.135   2.117   4.254  0.5739  2.5135  1.5393
  845MOL0     H11518  -2.349   2.154   4.165  1.4098 -2.1836  3.1174
  845MOL0     H11519  -2.307   2.141   3.999  0.3435 -0.6190  0.4909
  845MOL0     H11520  -2.320   1.928   4.200 -0.7233  0.3111  1.2970
  845MOL0     H11521  -2.242   1.900   4.048 -2.1050 -2.6127  0.7655
  845MOL0     H11522  -1.320   2.207   4.174 -0.4409 -2.5204  6.0713
  845MOL0     H11523  -1.076   2.192   4.170  1.8618 -0.0670 -2.1999
  845MOL0     H11524  -0.685   1.963   4.179  1.6219  1.9630  0.9745
  845MOL0     H11525  -0.477   1.874   4.173 -0.2001 -0.3413  0.5817
  845MOL0     H11526   0.931   1.038   4.803 -2.5084 -2.0532  1.8502
  845MOL0     H11527   1.171   1.040   4.858 -0.7872  1.3015 -0.0604
  845MOL0     H11528   1.501   0.939   5.163  0.5202 -0.0096  1.0909
  845MOL0     H11529   1.723   0.888   5.229  0.1863 -0.3401 -0.3566
  845MOL0     H11530   1.957   0.619   4.930 -2.4131  0.7850  0.1947
  845MOL0     H11531   1.941   0.525   5.078  2.4899  0.5162  4.8517
  845MOL0     H11532   2.141   0.769   5.040 -1.7620  0.6431 -0.6081
  845MOL0     H11533   2.151   0.646   5.168  0.5757 -2.8132 -1.3661
  845MOL0     H11534   2.196   0.564   4.876 -0.0695 -1.0179 -0.5188
  845MOL0     H11535   2.230   0.477   5.026 -0.9548 -0.6260 -1.2938
  845MOL0     H11536   2.380   0.723   4.930  2.2144 -2.1900 -0.7996
  845MOL0     H11537   2.369   0.688   5.100 -1.2325 -0.7700  0.3301
  845MOL0     H11538   2.657   0.426   4.931 -1.0379 -0.7043  0.7415
  845MOL0     H11539   1.758   0.604   4.909  2.2711 -0.3371  1.3889
  845MOL0     H11540   1.505   0.630   4.865  0.3457  0.4790  0.4541
  846MOL0     O11541  10.556   2.632  10.775 -0.6090 -0.2567 -0.8695
  846MOL0     C11542  10.582   2.606  10.662  0.2658  0.4229  1.2824
  846MOL0     O11543  10.500   2.629  10.553 -0.0775  0.4927 -0.9077
  846MOL0     C11544  10.369   2.674  10.566 -0.4393 -0.3043 -0.2675
  846MOL0     C11545  10.274   2.605  10.500 -0.1940 -0.9884  0.0166
  846MOL0     C11546  10.140   2.649  10.500  0.6725  0.0275  0.4742
  846MOL0     C11547  10.094   2.760  10.574  0.0660 -0.7239  0.4360
  846MOL0     O11548   9.961   2.807  10.565 -1.2376 -0.0151  1.2154
  846MOL0     C11549   9.871   2.746  10.668 -1.3166  0.1656  0.0272
  846MOL0     C11550   9.748   2.834  10.684 -0.0293 -1.2388 -0.0212
  846MOL0     C11551   9.784   2.995  10.684 -0.0625  0.3099  0.7818
  846MOL0     C11552   9.673   3.090  10.715  0.0849  0.1657  0.0809
  846MOL0     C11553   9.712   3.224  10.664  0.4082 -0.1667  0.1514
  846MOL0     C11554   9.608   3.331  10.688  0.3709  0.0803 -0.4625
  846MOL0     C11555   9.559   3.338  10.828 -0.1688 -0.3161  0.2342
  846MOL0     C11556   9.473   3.459  10.854 -0.0614 -0.2427 -0.7403
  846MOL0     N11557   9.382   3.491  10.746  0.1828  0.4430  0.3875
  846MOL0     C11558   9.403   3.588  10.658 -0.3346 -0.2470 -0.0163
  846MOL0     C11559   9.283   3.611  10.593 -0.2747 -1.0507 -0.0151
  846MOL0     C11560   9.245   3.703  10.484 -0.2943 -0.6183  0.0830
  846MOL0     C11561   9.109   3.678  10.427  0.1950 -0.4724 -0.6566
  846MOL0     C11562   8.992   3.744  10.508 -0.6632  0.2789 -0.5393
  846MOL0     C11563   8.847   3.696  10.468 -0.4623  0.5991  0.1853
  846MOL0     O11564   8.814   3.755  10.348 -0.3271  0.3618 -0.1810
  846MOL0     C11565   8.677   3.774  10.325  0.3587  0.2465  0.7751
  846MOL0     C11566   8.633   3.889  10.247 -0.5766  0.1922 -0.0699
  846MOL0     C11567   8.496   3.916  10.216  0.4757  0.5001  0.1750
  846MOL0     C11568   8.402   3.830  10.275 -0.2594 -0.0442 -0.0343
  846MOL0     C11569   8.252   3.858  10.275 -0.4259  0.0006 -1.0437
  846MOL0     O11570   8.224   3.981  10.213 -0.2230  1.4346 -0.3661
  846MOL0     C11571   8.093   3.999  10.175 -0.1271  0.1913  0.2229
  846MOL0     C11572   7.983   3.976  10.254 -0.0044 -0.5354  0.4107
  846MOL0     C11573   7.852   3.999  10.201  0.3300 -0.0246  0.5003
  846MOL0     C11574   7.841   4.058  10.075 -0.6131 -0.6694  0.3972
  846MOL0     O11575   7.716   4.087  10.028  0.4596 -0.3153 -0.2712
  846MOL0     C11576   7.670   4.010   9.918 -0.1399 -0.3111  0.1016
  846MOL0     C11577   7.534   4.059   9.864 -0.3344 -0.0042 -0.1732
  846MOL0     C11578   7.525   4.210   9.864 -0.3820  0.7616  0.4159
  846MOL0     C11579   7.636   4.290   9.781 -0.0285  0.0474 -0.4311
  846MOL0     C11580   7.572   4.416   9.716 -0.4860  0.1129 -0.1711
  846MOL0     C11581   7.547   4.524   9.824  0.3209  0.8092  0.8706
  846MOL0     C11582   7.471   4.645   9.764 -0.9145 -0.5457 -0.2597
  846MOL0     C11583   7.326   4.618   9.725 -0.1896 -0.7683 -0.4581
  846MOL0    Cl11584   7.225   4.619   9.869  0.0144 -0.0960  0.6952
  846MOL0     C11585   7.951   4.089  10.000  0.3514 -0.6653  0.1934
  846MOL0     C11586   8.078   4.058  10.046 -0.1904 -0.0824  0.3112
  846MOL0     O11587   8.169   3.770  10.316 -0.8268 -0.0079  0.2595
  846MOL0     C11588   8.451   3.715  10.335 -0.0422  0.0492 -0.8309
  846MOL0     C11589   8.580   3.685  10.363 -0.1588  0.1840  0.4318
  846MOL0     N11590   9.194   3.529  10.664 -0.3434  0.4164 -0.0814
  846MOL0     N11591   9.249   3.463  10.759 -0.5900  0.0083  1.1369
  846MOL0     C11592  10.196   2.821  10.653  1.0693 -0.1652  0.2732
  846MOL0     C11593  10.325   2.776  10.657  0.5314  0.4524 -0.1647
  846MOL0     C11594  10.715   2.543  10.635  0.1424  0.0907 -0.2410
  846MOL0     C11595  10.736   2.493  10.501 -0.2320  0.2377 -0.6996
  846MOL0     C11596  10.863   2.446  10.461  0.5833  0.0250 -0.2586
  846MOL0     C11597  10.976   2.455  10.545  0.9502  0.1996 -0.3694
  846MOL0     O11598  11.099   2.413  10.498 -0.9657 -0.3689  0.7306
  846MOL0     C11599  11.224   2.423  10.575  0.0306  0.0404  0.4037
  846MOL0     C11600  11.240   2.303  10.668  0.2288 -0.0778  0.4681
  846MOL0     C11601  11.395   2.270  10.719  0.8131  0.8807  0.4612
  846MOL0     C11602  11.411   2.205  10.865 -0.1483 -0.9370  0.2871
  846MOL0     C11603  11.558   2.182  10.893  0.2557  0.9953 -0.3208
  846MOL0     C11604  11.671   2.146  10.915 -0.4600 -0.3230 -0.7610
  846MOL0     C11605  10.952   2.505  10.672  0.0941 -0.3009  0.5240
  846MOL0     C11606  10.832   2.557  10.717  1.7663  0.1803  0.6060
  846MOL0     H11607  10.307   2.522  10.439 -2.2449 -0.0879 -2.5377
  846MOL0     H11608  10.070   2.599  10.433 -1.3359  1.4943  1.3744
  846MOL0     H11609   9.932   2.745  10.759 -0.9413 -1.7724 -0.1909
  846MOL0     H11610   9.836   2.643  10.653 -0.8464 -0.4263  2.4525
  846MOL0     H11611   9.709   2.819  10.785 -0.4299  0.6060  0.1361
  846MOL0     H11612   9.662   2.822  10.617  2.3472 -0.7267 -3.4203
  846MOL0     H11613   9.824   3.019  10.585  0.3994  1.4686  1.2330
  846MOL0     H11614   9.872   3.018  10.745  1.3290  0.2442 -1.1316
  846MOL0     H11615   9.578   3.058  10.670 -0.2431  0.9226  0.2147
  846MOL0     H11616   9.676   3.094  10.825 -0.4518  1.2328  0.0698
  846MOL0     H11617   9.725   3.222  10.556 -4.7889 -0.4627 -0.7306
  846MOL0     H11618   9.807   3.247  10.714  0.9667 -1.2269 -0.3903
  846MOL0     H11619   9.525   3.317  10.618 -0.2702 -0.5611  0.4012
  846MOL0     H11620   9.651   3.430  10.671 -0.5806  0.5560 -0.1531
  846MOL0     H11621   9.506   3.249  10.862 -0.2990  0.1755  1.4014
  846MOL0     H11622   9.642   3.370  10.891 -1.6263  1.1296  1.5320
  846MOL0     H11623   9.535   3.549  10.868  0.0697 -0.4695  0.2413
  846MOL0     H11624   9.422   3.423  10.944  1.2470 -0.4008 -0.0348
  846MOL0     H11625   9.495   3.641  10.635 -0.4468 -0.1969 -0.3538
  846MOL0     H11626   9.320   3.691  10.406  1.2585 -1.9439  1.6875
  846MOL0     H11627   9.248   3.807  10.518 -2.5830 -0.7104  0.7489
  846MOL0     H11628   9.079   3.573  10.417  1.1872 -0.9275  0.8349
  846MOL0     H11629   9.111   3.712  10.323 -1.6417 -2.8263 -1.5578
  846MOL0     H11630   9.005   3.709  10.611 -1.9298 -0.1758 -0.5200
  846MOL0     H11631   9.002   3.853  10.500 -0.9187  0.5248  1.6841
  846MOL0     H11632   8.771   3.728  10.540 -0.2620  1.6475 -0.0493
  846MOL0     H11633   8.843   3.587  10.460 -1.6396  0.1938  4.0546
  846MOL0     H11634   8.711   3.960  10.223 -0.3975  0.7696  1.9891
  846MOL0     H11635   8.466   4.014  10.180  2.2843  1.3648  0.8769
  846MOL0     H11636   7.991   3.930  10.352  0.3008 -2.2328 -0.3767
  846MOL0     H11637   7.760   3.982  10.256  1.8807  0.5803  3.5294
  846MOL0     H11638   7.648   3.909   9.954 -1.7856 -0.9288 -2.3964
  846MOL0     H11639   7.744   4.004   9.838 -0.9079  0.8305 -0.7162
  846MOL0     H11640   7.464   4.007   9.930  1.1490 -1.0659  0.6110
  846MOL0     H11641   7.504   4.013   9.769 -2.5461  0.2707  0.3213
  846MOL0     H11642   7.540   4.245   9.967 -1.3318  1.3422  0.3693
  846MOL0     H11643   7.422   4.238   9.841 -0.5285 -0.3523 -0.3364
  846MOL0     H11644   7.725   4.324   9.834  0.6394  0.5231 -1.8057
  846MOL0     H11645   7.688   4.227   9.708 -1.0999  0.1678 -1.3282
  846MOL0     H11646   7.477   4.380   9.674 -1.4980  3.1867 -0.7565
  846MOL0     H11647   7.617   4.439   9.619 -1.3124  1.0969 -0.3453
  846MOL0     H11648   7.644   4.561   9.857  0.7310  0.3560  0.2010
  846MOL0     H11649   7.483   4.484   9.903  0.8656  3.4633  2.7895
  846MOL0     H11650   7.469   4.727   9.837 -2.5357 -0.3476 -0.4894
  846MOL0     H11651   7.525   4.678   9.675 -0.8894 -0.2127 -0.1242
  846MOL0     H11652   7.313   4.521   9.676 -1.9858  0.5145 -2.6936
  846MOL0     H11653   7.282   4.690   9.656 -0.1445 -1.4618 -1.2166
  846MOL0     H11654   7.939   4.138   9.904  1.8936 -1.1377 -0.2686
  846MOL0     H11655   8.171   4.073   9.990  1.3523 -2.6275  1.9701
  846MOL0     H11656   8.376   3.648  10.375 -1.6688  2.6035  0.6852
  846MOL0     H11657   8.612   3.593  10.410 -0.8565 -0.0872  0.3749
  846MOL0     H11658  10.178   2.915  10.704 -1.2383 -0.7513  0.6488
  846MOL0     H11659  10.409   2.818  10.712 -1.5544  1.0018  2.8280
  846MOL0     H11660  10.653   2.485  10.432 -0.6261 -0.5400 -0.1484
  846MOL0     H11661  10.870   2.413  10.358 -0.6456  2.2079 -1.1117
  846MOL0     H11662  11.243   2.516  10.630  1.6740 -0.5010  0.7880
  846MOL0     H11663  11.305   2.409  10.503 -2.3276 -1.5845 -2.1850
  846MOL0     H11664  11.175   2.308  10.756 -1.0392  0.6369 -0.4737
  846MOL0     H11665  11.201   2.216  10.615  0.6370  0.4190 -0.6737
  846MOL0     H11666  11.464   2.355  10.706  3.8768 -1.7140 -1.8147
  846MOL0     H11667  11.440   2.192  10.657 -0.7325  1.3674 -1.3621
  846MOL0     H11668  11.373   2.268  10.946  0.5016  0.3310 -0.3658
  846MOL0     H11669  11.355   2.111  10.875 -1.9150  0.0613  0.0941
  846MOL0     H11670  11.777   2.132  10.926 -0.6437 -0.7232  0.7951
  846MOL0     H11671  11.034   2.517  10.742  0.3496  2.6703 -0.1545
  846MOL0     H11672  10.824   2.617  10.808  3.7152  0.5354  0.5853
  847MOL0     O11673   8.500   3.053   2.960 -0.1314 -0.0635 -0.4058
  847MOL0     C11674   8.399   3.127   2.966 -0.1343  1.2058 -0.3493
  847MOL0     O11675   8.403   3.255   3.002  0.1408 -0.7965  0.4290
  847MOL0     C11676   8.528   3.304   3.034  0.2907 -0.4167 -0.0485
  847MOL0     C11677   8.562   3.356   3.165  0.1040  0.5142  0.5781
  847MOL0     C11678   8.692   3.412   3.176  0.5243  1.0809  0.7148
  847MOL0     C11679   8.768   3.426   3.058 -0.6465  0.9942 -0.9440
  847MOL0     O11680   8.889   3.494   3.059  0.2676  0.1024 -0.9602
  847MOL0     C11681   8.899   3.636   3.100 -0.0890 -0.6307 -0.4382
  847MOL0     C11682   8.851   3.737   2.986 -0.7612  1.2502  0.0548
  847MOL0     C11683   8.936   3.702   2.864 -0.3284 -0.2492  0.0187
  847MOL0     C11684   8.901   3.815   2.762  1.4192  0.8239  0.2750
  847MOL0     C11685   8.954   3.795   2.626 -0.7041 -0.6959 -0.4445
  847MOL0     C11686   8.955   3.930   2.547  0.2135  0.2289 -0.1213
  847MOL0     C11687   9.000   3.925   2.405 -0.7125  0.8521  0.7589
  847MOL0     C11688   8.989   4.056   2.321  0.7785 -0.8235  0.4564
  847MOL0     N11689   8.853   4.091   2.292  0.1472  0.4910  0.0452
  847MOL0     C11690   8.755   4.182   2.341  1.1171  0.6603  0.0454
  847MOL0     C11691   8.656   4.176   2.259 -0.2035  0.8837 -0.5223
  847MOL0     C11692   8.531   4.258   2.267  1.4422 -0.0043  0.2989
  847MOL0     C11693   8.401   4.171   2.280 -0.3763  0.8106  0.4468
  847MOL0     C11694   8.284   4.254   2.249  0.2408  0.5672  0.6220
  847MOL0     C11695   8.164   4.173   2.235 -0.1297 -0.1846 -0.3811
  847MOL0     O11696   8.132   4.108   2.366 -0.1414 -0.4455  0.4804
  847MOL0     C11697   8.050   4.002   2.366  0.4166  0.2856  0.9539
  847MOL0     C11698   7.921   4.002   2.313 -0.2201  0.0168 -0.2633
  847MOL0     C11699   7.838   3.895   2.325  0.1337  0.0468  0.1615
  847MOL0     C11700   7.889   3.779   2.384  0.0534 -0.4103  0.0725
  847MOL0     C11701   7.804   3.669   2.401 -0.4447  0.8268 -0.1477
  847MOL0     O11702   7.677   3.684   2.388 -0.0109  0.4790 -0.5361
  847MOL0     C11703   7.573   3.588   2.397 -0.0865 -1.6047  0.8379
  847MOL0     C11704   7.446   3.647   2.405  0.6074  0.4160  0.5068
  847MOL0     C11705   7.330   3.561   2.399 -0.5193  0.0080 -0.5147
  847MOL0     C11706   7.342   3.418   2.381  0.1023 -0.1374  0.5759
  847MOL0     O11707   7.223   3.349   2.382 -0.7026  0.1402 -0.4585
  847MOL0     C11708   7.227   3.211   2.332 -0.0422 -0.0576 -0.8834
  847MOL0     C11709   7.100   3.133   2.352  0.6500 -0.4792  0.6324
  847MOL0     C11710   7.006   3.161   2.224 -0.1688 -0.2445  0.0753
  847MOL0     C11711   6.881   3.086   2.253 -0.1321  0.7838  0.4892
  847MOL0     C11712   6.799   3.054   2.126 -0.2843  0.0295 -0.0543
  847MOL0     C11713   6.773   3.186   2.054 -0.4387 -0.3573  0.1362
  847MOL0     C11714   6.665   3.166   1.950  0.2950  1.2999  0.8435
  847MOL0     C11715   6.629   3.283   1.867 -0.6887  0.2046 -0.3213
  847MOL0    Cl11716   6.557   3.423   1.953 -0.1451  0.2966  0.1144
  847MOL0     C11717   7.471   3.372   2.383 -0.1302 -0.4660  0.1601
  847MOL0     C11718   7.587   3.454   2.386  0.0275  0.9138  0.4841
  847MOL0     O11719   7.859   3.563   2.441  0.2681 -0.7696  1.2415
  847MOL0     C11720   8.023   3.771   2.422 -0.2180 -0.3068 -0.7957
  847MOL0     C11721   8.097   3.890   2.428 -0.0866  0.1369  0.1185
  847MOL0     N11722   8.690   4.105   2.150  0.4935 -0.1601 -0.0948
  847MOL0     N11723   8.804   4.055   2.169  0.1874  0.2937 -0.2111
  847MOL0     C11724   8.734   3.387   2.930  1.0446  0.0134  0.6568
  847MOL0     C11725   8.612   3.322   2.919 -0.0888 -0.4794 -0.9830
  847MOL0     C11726   8.262   3.064   2.950  0.7350  0.3608 -0.6819
  847MOL0     C11727   8.145   3.130   2.976  0.3297 -0.2970  0.3178
  847MOL0     C11728   8.022   3.066   2.982 -0.7576  0.6694 -0.1867
  847MOL0     C11729   8.013   2.921   2.958 -1.1100 -0.1606  0.6890
  847MOL0     O11730   7.891   2.856   2.969 -1.3457  0.5716  0.0437
  847MOL0     C11731   7.873   2.723   2.905 -0.1185 -0.0803  0.0063
  847MOL0     C11732   7.718   2.693   2.878  0.8295  0.1854  0.3660
  847MOL0     C11733   7.657   2.795   2.780  0.1118  0.0450  0.3233
  847MOL0     C11734   7.707   2.792   2.628  0.2773 -0.3933 -0.2091
  847MOL0     C11735   7.715   2.648   2.592  0.4460  0.2324 -0.7897
  847MOL0     C11736   7.711   2.532   2.572  0.4782  0.1144 -0.3694
  847MOL0     C11737   8.131   2.857   2.928 -0.4257  0.9729  0.0887
  847MOL0     C11738   8.249   2.927   2.920 -0.3502  0.8474 -0.2418
  847MOL0     H11739   8.488   3.345   3.243  0.6927  0.4569  1.1351
  847MOL0     H11740   8.732   3.450   3.270 -1.6169 -2.7752  3.4858
  847MOL0     H11741   8.999   3.663   3.138  0.7903 -3.0771 -0.8642
  847MOL0     H11742   8.836   3.642   3.190  3.5048  1.2312  2.2519
  847MOL0     H11743   8.860   3.843   3.013  1.3514  0.4173  2.9728
  847MOL0     H11744   8.747   3.704   2.975  0.5808 -3.4686 -0.2541
  847MOL0     H11745   8.910   3.604   2.823  2.9733 -0.7545 -1.1081
  847MOL0     H11746   9.044   3.713   2.878 -0.4109  2.4895 -0.8449
  847MOL0     H11747   8.792   3.817   2.752  0.9981 -1.0164  3.3491
  847MOL0     H11748   8.924   3.913   2.807  0.4015  0.1685  2.3322
  847MOL0     H11749   8.905   3.707   2.583 -0.1725 -1.7961  1.0940
  847MOL0     H11750   9.056   3.761   2.647  0.0382  1.2049 -0.7415
  847MOL0     H11751   9.027   4.000   2.591 -0.3209  1.0189 -0.4795
  847MOL0     H11752   8.851   3.963   2.544  1.1599  3.5922 -0.3078
  847MOL0     H11753   9.109   3.918   2.408 -0.2807  3.3202 -2.9825
  847MOL0     H11754   8.968   3.833   2.356  1.5849  0.7139 -0.6289
  847MOL0     H11755   9.034   4.036   2.223  0.9691  0.8036  0.1907
  847MOL0     H11756   9.044   4.136   2.372 -1.2133  1.0574 -0.2174
  847MOL0     H11757   8.761   4.241   2.432 -0.9358 -1.8742  1.9821
  847MOL0     H11758   8.528   4.315   2.174  1.6027  0.8271  0.7985
  847MOL0     H11759   8.539   4.331   2.348 -1.0740 -1.1729  1.7243
  847MOL0     H11760   8.393   4.125   2.379  0.4360 -0.7689 -0.1905
  847MOL0     H11761   8.395   4.092   2.205 -1.4942  0.0897  1.2545
  847MOL0     H11762   8.270   4.328   2.328  2.4805  1.3180  0.3905
  847MOL0     H11763   8.305   4.300   2.152  1.2003 -1.0684  0.0062
  847MOL0     H11764   8.162   4.100   2.154  2.7979 -2.3106  1.2751
  847MOL0     H11765   8.084   4.247   2.219  1.2259  1.9094  1.7385
  847MOL0     H11766   7.891   4.097   2.269  2.0464  2.4445  2.9621
  847MOL0     H11767   7.739   3.890   2.281 -0.2121  2.1452  0.5947
  847MOL0     H11768   7.423   3.749   2.434 -0.2258  0.0445  1.1914
  847MOL0     H11769   7.229   3.598   2.412  0.4070  1.5257  4.1182
  847MOL0     H11770   7.302   3.158   2.392  0.9153  1.2017 -0.9342
  847MOL0     H11771   7.261   3.206   2.229  3.5682  1.5144  0.0779
  847MOL0     H11772   7.057   3.173   2.444 -0.6616 -0.8717  0.2063
  847MOL0     H11773   7.123   3.026   2.356  0.4317 -0.6625 -1.4991
  847MOL0     H11774   7.050   3.121   2.132 -1.8317 -2.0893 -0.0094
  847MOL0     H11775   6.994   3.269   2.221  2.9149  0.2672  2.4566
  847MOL0     H11776   6.905   2.984   2.286  0.6617  0.8430  0.1145
  847MOL0     H11777   6.821   3.141   2.326  0.3838  0.6012  1.0632
  847MOL0     H11778   6.701   3.011   2.150 -1.4656  2.2921 -0.5814
  847MOL0     H11779   6.848   2.978   2.065 -2.5214 -1.0977 -0.5691
  847MOL0     H11780   6.866   3.213   2.001  0.4848  0.2055  1.9687
  847MOL0     H11781   6.751   3.270   2.121  0.2972  0.9464 -1.1790
  847MOL0     H11782   6.707   3.097   1.876  0.9803 -0.3287  2.6464
  847MOL0     H11783   6.572   3.114   1.976  0.5481 -1.0791 -2.3195
  847MOL0     H11784   6.561   3.237   1.795 -1.0437 -2.9697  1.8299
  847MOL0     H11785   6.720   3.318   1.817  1.1687  0.1634  2.7957
  847MOL0     H11786   7.501   3.268   2.372 -2.6313 -1.2579  0.1856
  847MOL0     H11787   7.688   3.416   2.389  0.4379  2.0129  1.4310
  847MOL0     H11788   8.061   3.687   2.478  1.1731 -0.0666 -1.3437
  847MOL0     H11789   8.196   3.899   2.471 -0.3968  1.2931  0.6185
  847MOL0     H11790   8.808   3.395   2.851  0.7299  1.9011  0.5250
  847MOL0     H11791   8.576   3.276   2.827 -0.0044 -3.3506  0.3033
  847MOL0     H11792   8.148   3.238   2.992  0.2464 -0.4197  1.1979
  847MOL0     H11793   7.931   3.123   2.995 -1.4129 -0.1734 -0.9063
  847MOL0     H11794   7.907   2.641   2.970 -1.5201 -0.3745  0.4092
  847MOL0     H11795   7.937   2.719   2.816  0.6478  1.5527  0.4547
  847MOL0     H11796   7.699   2.597   2.829 -0.7984 -0.3275  1.8809
  847MOL0     H11797   7.677   2.684   2.979  0.5452 -0.4005  0.2053
  847MOL0     H11798   7.664   2.896   2.821  3.0256  0.5361 -1.0945
  847MOL0     H11799   7.555   2.762   2.801  0.3740  1.8474  6.1528
  847MOL0     H11800   7.645   2.849   2.558 -0.6250 -1.0105  0.0590
  847MOL0     H11801   7.806   2.836   2.619 -0.6399  1.8667  0.0170
  847MOL0     H11802   7.690   2.427   2.565 -0.6170  0.1545  1.6498
  847MOL0     H11803   8.156   2.753   2.906  1.3527  1.2910  0.4038
  847MOL0     H11804   8.341   2.876   2.892  1.4441  1.2729  3.9799
  848MOL0     O11805   8.100   3.457   1.533  0.1289 -0.3980  0.0105
  848MOL0     C11806   8.141   3.460   1.418  0.0872  0.3930 -0.2096
  848MOL0     O11807   8.069   3.509   1.309 -0.8562  0.4806 -1.2659
  848MOL0     C11808   7.939   3.535   1.320  0.0578 -0.4252  0.4907
  848MOL0     C11809   7.892   3.554   1.193  1.8200  0.6118  0.1985
  848MOL0     C11810   7.749   3.570   1.168  0.4289  0.8052  0.4872
  848MOL0     C11811   7.658   3.560   1.271 -0.1939  0.2090  0.5055
  848MOL0     O11812   7.523   3.586   1.252  0.0620  0.3507 -0.3097
  848MOL0     C11813   7.482   3.716   1.303 -0.4823  0.4845 -0.1891
  848MOL0     C11814   7.389   3.778   1.202  0.3339 -0.5268  0.2580
  848MOL0     C11815   7.261   3.697   1.200 -0.2051 -1.4768  0.2665
  848MOL0     C11816   7.176   3.763   1.091 -0.4345 -0.6061 -0.1691
  848MOL0     C11817   7.058   3.667   1.044 -0.9046 -0.0386 -0.3170
  848MOL0     C11818   6.949   3.637   1.153  0.0543  0.6093 -0.4214
  848MOL0     C11819   6.821   3.605   1.088  0.4937  0.3607 -0.4153
  848MOL0     C11820   6.707   3.592   1.194  0.0333  0.1280 -0.7415
  848MOL0     N11821   6.573   3.549   1.149 -0.4037 -0.3899  0.3399
  848MOL0     C11822   6.529   3.436   1.082 -0.8140 -1.1585  0.4754
  848MOL0     C11823   6.406   3.449   1.052 -0.0011 -0.0654 -1.5847
  848MOL0     C11824   6.319   3.357   0.970 -0.0459 -1.5289  0.6061
  848MOL0     C11825   6.269   3.432   0.843  0.0291  1.2815 -0.0311
  848MOL0     C11826   6.209   3.331   0.744 -0.4669 -0.7350 -0.2356
  848MOL0     C11827   6.101   3.241   0.801 -0.5503 -0.2719  0.7593
  848MOL0     O11828   6.087   3.139   0.706  0.3459  0.1069  0.0453
  848MOL0     C11829   5.968   3.075   0.692  0.0084 -0.6666  0.1775
  848MOL0     C11830   5.950   2.943   0.736 -0.7581  0.1453 -0.1576
  848MOL0     C11831   5.828   2.877   0.714 -0.7070  0.3382 -1.1613
  848MOL0     C11832   5.723   2.953   0.651 -0.3215 -0.3890 -1.5108
  848MOL0     C11833   5.592   2.887   0.629  0.3348  0.1460  0.9804
  848MOL0     O11834   5.496   2.974   0.589 -0.1987 -0.2482  0.6717
  848MOL0     C11835   5.368   2.927   0.565  0.1955 -0.1842 -0.3668
  848MOL0     C11836   5.348   2.829   0.463  0.1662  0.2896 -0.1702
  848MOL0     C11837   5.223   2.767   0.443  0.1766  1.0376  0.0494
  848MOL0     C11838   5.104   2.816   0.502 -0.1620  1.2382  0.1689
  848MOL0     O11839   4.983   2.753   0.480 -0.2242 -0.3734 -0.0093
  848MOL0     C11840   4.889   2.739   0.589 -0.5814 -0.2250  0.4296
  848MOL0     C11841   4.770   2.659   0.545  0.4868  0.2571  1.1316
  848MOL0     C11842   4.675   2.743   0.450  0.0502  0.7803 -0.1139
  848MOL0     C11843   4.562   2.659   0.404 -0.6384  0.1638  0.2880
  848MOL0     C11844   4.464   2.620   0.515  1.5006 -1.0642 -0.6091
  848MOL0     C11845   4.320   2.592   0.480 -0.2209 -0.0397 -0.0924
  848MOL0     C11846   4.296   2.480   0.366 -0.4261  0.3195 -0.2316
  848MOL0     C11847   4.167   2.400   0.393 -0.7651 -0.2607 -0.3543
  848MOL0    Cl11848   4.146   2.262   0.282  0.2470 -0.2040 -0.0449
  848MOL0     C11849   5.131   2.923   0.594  0.2074 -1.5722 -0.3749
  848MOL0     C11850   5.254   2.982   0.621 -0.2227  0.2071 -0.2574
  848MOL0     O11851   5.580   2.768   0.644  0.6113  0.0000 -0.0362
  848MOL0     C11852   5.739   3.091   0.614  0.0294  1.0581 -1.0258
  848MOL0     C11853   5.864   3.148   0.628 -0.0800  0.2525  0.5326
  848MOL0     N11854   6.363   3.567   1.121 -0.4476  0.2219  0.1636
  848MOL0     N11855   6.464   3.621   1.175 -0.4093 -0.5372 -1.2778
  848MOL0     C11856   7.704   3.542   1.396  0.2984  0.1522  1.3080
  848MOL0     C11857   7.837   3.533   1.424  0.3596  0.2576  0.8774
  848MOL0     C11858   8.279   3.395   1.395  0.8237  0.0109 -0.0353
  848MOL0     C11859   8.331   3.383   1.266  0.1505  0.0874 -0.4787
  848MOL0     C11860   8.458   3.336   1.229 -0.5200  0.7755 -0.5473
  848MOL0     C11861   8.532   3.266   1.331 -0.4844  0.3804 -0.7901
  848MOL0     O11862   8.661   3.208   1.321 -0.8608 -0.5415 -0.9604
  848MOL0     C11863   8.717   3.184   1.190 -0.4962 -0.0395  0.0760
  848MOL0     C11864   8.805   3.308   1.155  0.2196 -0.3210 -0.5427
  848MOL0     C11865   8.859   3.308   1.012  0.6161 -0.3161 -0.2151
  848MOL0     C11866   8.754   3.296   0.903  0.5780 -0.3676  0.5545
  848MOL0     C11867   8.812   3.367   0.783  0.1885 -0.6514 -0.7210
  848MOL0     C11868   8.859   3.424   0.693  0.0437  0.9124 -0.6168
  848MOL0     C11869   8.482   3.276   1.466 -0.1993  0.5582 -0.1220
  848MOL0     C11870   8.354   3.332   1.498 -0.1665 -0.9549  0.1102
  848MOL0     H11871   7.956   3.564   1.107 -0.9258  0.8013 -1.9731
  848MOL0     H11872   7.709   3.591   1.070 -0.0867 -0.5029  0.3931
  848MOL0     H11873   7.571   3.776   1.322  1.3000 -1.6901 -1.2190
  848MOL0     H11874   7.414   3.706   1.388  1.4572  1.5241  1.5564
  848MOL0     H11875   7.434   3.777   1.103 -2.3480 -1.0688 -1.0356
  848MOL0     H11876   7.364   3.876   1.243 -0.8324 -1.1633  1.1309
  848MOL0     H11877   7.210   3.705   1.296 -2.0516  2.2020 -0.7940
  848MOL0     H11878   7.286   3.593   1.179 -0.0810 -1.5053  0.5574
  848MOL0     H11879   7.146   3.867   1.108 -0.2427  0.2712 -4.2809
  848MOL0     H11880   7.242   3.767   1.004  1.0900 -3.4235  0.7214
  848MOL0     H11881   7.094   3.570   1.007 -2.1127 -1.5266  2.0672
  848MOL0     H11882   7.001   3.715   0.965 -1.2415  0.4864  0.2381
  848MOL0     H11883   6.919   3.721   1.216  1.4949 -0.6456  2.0586
  848MOL0     H11884   6.985   3.553   1.213  1.1677  0.0116 -1.8728
  848MOL0     H11885   6.797   3.690   1.024  2.6151 -0.1209 -1.9467
  848MOL0     H11886   6.821   3.511   1.033  0.3078  0.9452 -1.4279
  848MOL0     H11887   6.698   3.685   1.251 -0.6084  0.6171 -1.6153
  848MOL0     H11888   6.741   3.523   1.271 -0.9925  0.0863 -0.3154
  848MOL0     H11889   6.603   3.363   1.051 -0.4097 -0.1423 -1.0924
  848MOL0     H11890   6.226   3.333   1.022 -1.6398 -0.4577 -1.5779
  848MOL0     H11891   6.369   3.261   0.954  1.5803 -0.6006 -0.1788
  848MOL0     H11892   6.360   3.472   0.798  1.0441 -0.9407 -0.1399
  848MOL0     H11893   6.203   3.507   0.886  0.0609  0.4379  1.5716
  848MOL0     H11894   6.151   3.396   0.678  0.2036  0.0160 -0.0957
  848MOL0     H11895   6.276   3.278   0.675 -0.8448  0.1321 -1.2929
  848MOL0     H11896   6.004   3.289   0.810 -0.1581  0.9123 -0.9454
  848MOL0     H11897   6.128   3.213   0.904  1.7885  3.2263  1.2557
  848MOL0     H11898   6.040   2.898   0.774  0.0585  0.8999 -1.1320
  848MOL0     H11899   5.815   2.779   0.759  0.4891  1.3731  1.6766
  848MOL0     H11900   5.444   2.807   0.417  1.8510  2.1955  2.2096
  848MOL0     H11901   5.209   2.679   0.381 -0.8317 -0.7754  2.6728
  848MOL0     H11902   4.854   2.835   0.626 -2.3185 -1.1596  1.3428
  848MOL0     H11903   4.927   2.686   0.677  1.7645 -0.5640 -0.6973
  848MOL0     H11904   4.717   2.629   0.635 -2.8479  1.6567 -0.1638
  848MOL0     H11905   4.798   2.569   0.490  0.3632 -0.0679  1.5964
  848MOL0     H11906   4.728   2.773   0.359 -1.8826 -0.3001 -1.6941
  848MOL0     H11907   4.625   2.829   0.497  0.1462  1.5475 -1.3540
  848MOL0     H11908   4.503   2.714   0.330 -3.0663 -2.1504  0.3251
  848MOL0     H11909   4.605   2.571   0.354 -1.2217 -0.3225  0.6194
  848MOL0     H11910   4.456   2.697   0.592  0.9920 -0.5777 -1.1411
  848MOL0     H11911   4.508   2.530   0.559  2.8961  0.1176  0.5184
  848MOL0     H11912   4.276   2.686   0.444  3.0863  1.8891  0.5533
  848MOL0     H11913   4.265   2.566   0.571  0.2377  2.5006  0.9744
  848MOL0     H11914   4.290   2.524   0.266 -2.4608  0.7763  0.0561
  848MOL0     H11915   4.383   2.413   0.369 -0.1340  0.7286  2.4861
  848MOL0     H11916   4.081   2.467   0.386 -1.5142 -0.9085  1.8593
  848MOL0     H11917   4.163   2.352   0.491  1.8205 -1.0575 -0.5560
  848MOL0     H11918   5.063   2.991   0.645  3.1679  0.3750  1.2127
  848MOL0     H11919   5.259   3.066   0.689  2.0217  0.2594 -0.4178
  848MOL0     H11920   5.654   3.152   0.584  0.0086  1.8890  0.6113
  848MOL0     H11921   5.875   3.252   0.600 -1.3296  0.2085 -0.2153
  848MOL0     H11922   7.627   3.536   1.472  0.5482 -2.1277  1.4478
  848MOL0     H11923   7.877   3.518   1.524 -0.0358 -0.7798  0.8963
  848MOL0     H11924   8.262   3.425   1.194 -0.1046  1.9683  0.7785
  848MOL0     H11925   8.501   3.330   1.130 -0.6380 -2.4217 -0.5052
  848MOL0     H11926   8.636   3.164   1.119 -1.3720  0.7951  0.7988
  848MOL0     H11927   8.785   3.099   1.190  3.3533  2.7450  1.7467
  848MOL0     H11928   8.733   3.390   1.162 -1.9227 -1.8336 -2.8708
  848MOL0     H11929   8.890   3.318   1.223 -0.1017 -0.0839 -0.1685
  848MOL0     H11930   8.921   3.219   0.999  0.9900 -0.0083 -0.5596
  848MOL0     H11931   8.919   3.397   0.993  1.9935 -0.7512  1.7930
  848MOL0     H11932   8.739   3.189   0.882  1.0681 -0.6442  1.5296
  848MOL0     H11933   8.658   3.334   0.937  1.2098  0.4928  1.4250
  848MOL0     H11934   8.909   3.478   0.615  2.0787  0.1225  0.0689
  848MOL0     H11935   8.540   3.236   1.549  0.4126  3.4710  1.0108
  848MOL0     H11936   8.323   3.324   1.602  0.5166 -1.3054  0.2927
  849MOL0     O11937   4.463   9.074   6.045  0.0049 -0.1760 -0.1021
  849MOL0     C11938   4.443   9.117   6.160  0.0537 -0.2794  0.1148
  849MOL0     O11939   4.327   9.175   6.199  0.2541 -0.6311  0.2730
  849MOL0     C11940   4.222   9.148   6.123  0.9704  1.0938  0.0324
  849MOL0     C11941   4.183   9.236   6.018 -0.5449  0.2680  0.2543
  849MOL0     C11942   4.083   9.200   5.927  0.4774 -0.1847  0.6286
  849MOL0     C11943   4.019   9.075   5.937  0.2463 -0.2179 -0.4827
  849MOL0     O11944   3.922   9.051   5.843 -0.2686  0.2194  0.9472
  849MOL0     C11945   3.871   8.921   5.801  0.1457 -0.0867 -0.4495
  849MOL0     C11946   3.749   8.890   5.883 -0.3039 -0.6262 -0.4073
  849MOL0     C11947   3.636   8.987   5.863 -0.3976 -0.6765  0.3129
  849MOL0     C11948   3.502   8.946   5.929 -1.0335 -0.2059  0.2173
  849MOL0     C11949   3.386   9.041   5.889 -0.4137 -0.4303  0.4562
  849MOL0     C11950   3.246   8.977   5.923 -0.5051  1.0401  0.6344
  849MOL0     C11951   3.130   9.057   5.865  0.5186 -0.2797  0.3427
  849MOL0     C11952   2.993   8.974   5.868  0.8477 -0.3710  0.1483
  849MOL0     N11953   2.897   9.036   5.776  0.5810  0.0496  0.7687
  849MOL0     C11954   2.905   9.027   5.634 -0.1912  0.2365 -0.2276
  849MOL0     C11955   2.819   9.119   5.594  0.4088 -0.3335  0.3481
  849MOL0     C11956   2.776   9.163   5.454  0.5797 -0.4270 -0.2599
  849MOL0     C11957   2.886   9.237   5.381  0.0178  0.1225  0.4148
  849MOL0     C11958   2.920   9.370   5.451  0.1540  0.0059  0.1188
  849MOL0     C11959   2.799   9.465   5.480 -0.3324  0.5299 -1.0553
  849MOL0     O11960   2.757   9.517   5.354 -0.3977  0.3649  0.6681
  849MOL0     C11961   2.643   9.593   5.351 -0.1415  0.0732 -0.0544
  849MOL0     C11962   2.571   9.584   5.225 -0.3055 -0.1751 -0.5779
  849MOL0     C11963   2.459   9.667   5.205  0.7606 -1.5483  0.0216
  849MOL0     C11964   2.401   9.749   5.303 -1.7973  0.6341 -0.0548
  849MOL0     C11965   2.279   9.823   5.294 -0.7376  0.1901 -0.4497
  849MOL0     O11966   2.230   9.852   5.172 -0.3083  0.1037  0.8053
  849MOL0     C11967   2.111   9.928   5.155  0.3091  0.3805 -0.1839
  849MOL0     C11968   2.063  10.018   5.250 -0.7294  0.4305  0.3430
  849MOL0     C11969   1.932  10.076   5.234 -0.5460 -0.7600 -0.0419
  849MOL0     C11970   1.858  10.050   5.114 -0.4380  0.4674 -0.6885
  849MOL0     O11971   1.741  10.110   5.082  0.4799  0.2181 -0.4356
  849MOL0     C11972   1.635  10.046   5.017  0.6430  0.2572  0.1301
  849MOL0     C11973   1.513  10.145   5.024 -0.2641  0.0738  0.3604
  849MOL0     C11974   1.476  10.183   5.170 -0.2980 -0.6246 -0.3772
  849MOL0     C11975   1.323  10.180   5.195 -0.1326  0.3106 -0.2456
  849MOL0     C11976   1.285  10.236   5.332  0.9337  0.3748 -0.8376
  849MOL0     C11977   1.128  10.243   5.368  0.4642 -0.0360 -1.0914
  849MOL0     C11978   1.115  10.345   5.481 -0.4158  0.5170  0.1917
  849MOL0     C11979   0.990  10.346   5.576  0.8031 -0.7758 -0.7194
  849MOL0    Cl11980   0.841  10.330   5.486  0.3130  0.2179  0.6728
  849MOL0     C11981   1.923   9.973   5.017  0.0560 -0.4823 -0.4152
  849MOL0     C11982   2.050   9.919   5.032 -0.2373  0.5318 -0.8409
  849MOL0     O11983   2.224   9.852   5.398 -0.1449 -0.2566 -0.3882
  849MOL0     C11984   2.479   9.757   5.424 -0.5877  0.4381 -0.2528
  849MOL0     C11985   2.600   9.683   5.445 -0.8534 -0.2026 -0.8503
  849MOL0     N11986   2.766   9.185   5.711 -0.6919 -0.4703 -0.6793
  849MOL0     N11987   2.813   9.138   5.816 -0.7267  0.5281  0.4567
  849MOL0     C11988   4.056   8.986   6.043 -0.2779  0.2883  0.4621
  849MOL0     C11989   4.165   9.021   6.122  0.6264 -0.5390  0.8462
  849MOL0     C11990   4.553   9.130   6.251  0.3659 -0.2332  0.5724
  849MOL0     C11991   4.688   9.113   6.212  0.7038 -0.6524  0.2129
  849MOL0     C11992   4.798   9.114   6.303  1.3086 -0.5505 -0.1465
  849MOL0     C11993   4.774   9.145   6.440 -0.1456  0.2478 -0.0280
  849MOL0     O11994   4.870   9.168   6.543 -0.8420 -0.4636  0.1422
  849MOL0     C11995   5.004   9.161   6.500 -1.0164 -0.4595 -0.0585
  849MOL0     C11996   5.046   9.013   6.503  0.1121 -0.6551 -0.2827
  849MOL0     C11997   5.192   8.982   6.464 -0.9218  0.2157  0.1091
  849MOL0     C11998   5.221   8.978   6.309  0.2725 -0.2720 -0.1732
  849MOL0     C11999   5.112   8.914   6.238  0.1260 -0.3634 -0.3223
  849MOL0     C12000   5.012   8.854   6.186 -0.2224 -0.0903 -1.2747
  849MOL0     C12001   4.641   9.163   6.475  0.5868 -0.9797 -0.6330
  849MOL0     C12002   4.533   9.154   6.387  0.7276 -0.5514  0.1675
  849MOL0     H12003   4.223   9.337   6.009 -2.7755  1.2762  1.0368
  849MOL0     H12004   4.062   9.273   5.849 -0.1569  0.7111  1.6034
  849MOL0     H12005   3.930   8.831   5.822 -3.3260 -2.0927  1.6855
  849MOL0     H12006   3.849   8.918   5.693  1.2481  0.6352 -0.7083
  849MOL0     H12007   3.773   8.909   5.988 -1.2824  0.4672 -0.3498
  849MOL0     H12008   3.727   8.784   5.873 -1.6312 -0.3957 -0.1001
  849MOL0     H12009   3.609   8.987   5.757  0.6370 -2.2419  0.0359
  849MOL0     H12010   3.661   9.088   5.898 -1.6976 -0.6901  1.3620
  849MOL0     H12011   3.466   8.845   5.907 -3.4809  0.4791  0.7138
  849MOL0     H12012   3.521   8.967   6.035 -0.9419  0.4765  0.0679
  849MOL0     H12013   3.395   9.071   5.784  0.1950 -2.2984 -0.0692
  849MOL0     H12014   3.391   9.134   5.946 -3.9654 -0.0800  0.4116
  849MOL0     H12015   3.236   8.956   6.030  1.8984  1.1104  0.9281
  849MOL0     H12016   3.233   8.879   5.876 -0.0868  1.0597  0.4764
  849MOL0     H12017   3.134   9.161   5.897 -0.0284 -0.4180  0.8742
  849MOL0     H12018   3.146   9.077   5.758 -2.1179 -0.8924 -0.2441
  849MOL0     H12019   2.948   8.980   5.967  0.6202  2.2118 -0.0462
  849MOL0     H12020   3.020   8.874   5.833  0.8207 -0.1042 -0.6772
  849MOL0     H12021   2.973   8.961   5.581  1.8957 -1.0998  3.7068
  849MOL0     H12022   2.685   9.223   5.468 -0.1898 -0.8261 -2.9190
  849MOL0     H12023   2.732   9.084   5.393 -0.7721 -1.2179  1.6477
  849MOL0     H12024   2.848   9.268   5.283 -3.0635  1.9574  2.0372
  849MOL0     H12025   2.982   9.183   5.377  1.7377  3.0384 -2.1551
  849MOL0     H12026   2.959   9.345   5.551  2.6993  2.0248 -0.2703
  849MOL0     H12027   2.993   9.431   5.398 -0.8698 -0.6369 -2.1700
  849MOL0     H12028   2.834   9.553   5.536 -0.9539  0.6239 -0.8037
  849MOL0     H12029   2.719   9.417   5.536  0.0427  2.0913  0.9121
  849MOL0     H12030   2.584   9.521   5.139  1.5846  0.4997 -0.8405
  849MOL0     H12031   2.404   9.646   5.114  1.8137  2.3301 -1.7587
  849MOL0     H12032   2.123  10.040   5.337  0.6031 -1.2942 -0.0915
  849MOL0     H12033   1.902  10.149   5.308  0.4133  1.2651 -1.5411
  849MOL0     H12034   1.610   9.960   5.080 -0.4629  0.8135  0.4694
  849MOL0     H12035   1.656  10.006   4.917 -1.5304 -0.6770 -0.0072
  849MOL0     H12036   1.432  10.102   4.965 -0.0920  0.2046  0.0211
  849MOL0     H12037   1.536  10.236   4.967  0.9001 -1.5149 -1.8950
  849MOL0     H12038   1.503  10.288   5.183 -0.2027 -0.8520  1.6531
  849MOL0     H12039   1.531  10.133   5.250  0.4807  0.1230 -0.4263
  849MOL0     H12040   1.273  10.241   5.119 -1.4162  0.2917  0.5471
  849MOL0     H12041   1.291  10.076   5.195  2.2596 -0.5016  1.6930
  849MOL0     H12042   1.328  10.337   5.334 -0.6288  1.0881 -1.6567
  849MOL0     H12043   1.323  10.175   5.415 -0.6574 -0.6984 -0.8442
  849MOL0     H12044   1.093  10.148   5.408  1.7584 -0.0547  0.0546
  849MOL0     H12045   1.062  10.279   5.288  0.2014 -2.0043 -1.7970
  849MOL0     H12046   1.196  10.331   5.553 -1.9243 -2.4779  1.4905
  849MOL0     H12047   1.119  10.441   5.430 -1.5445 -0.7291 -2.4466
  849MOL0     H12048   0.994  10.430   5.646  1.9135  0.5546 -2.3098
  849MOL0     H12049   1.002  10.263   5.646 -1.1824 -0.3377  0.1910
  849MOL0     H12050   1.879   9.948   4.921 -1.2905 -0.1795  0.0964
  849MOL0     H12051   2.079   9.865   4.943  0.4689 -1.5764  0.5790
  849MOL0     H12052   2.442   9.812   5.510 -0.6640  3.0726 -1.8464
  849MOL0     H12053   2.663   9.693   5.533 -0.0217 -0.2837 -1.4259
  849MOL0     H12054   4.022   8.883   6.053 -0.5431  0.0600 -2.0756
  849MOL0     H12055   4.201   8.949   6.195 -1.1442 -1.8721  0.4623
  849MOL0     H12056   4.717   9.101   6.108 -0.1087 -2.0093  0.1189
  849MOL0     H12057   4.900   9.108   6.268  0.7934 -0.9135 -1.6373
  849MOL0     H12058   5.064   9.221   6.568 -2.4617  1.0874 -0.0704
  849MOL0     H12059   5.019   9.200   6.399  0.4972 -0.5700  0.1024
  849MOL0     H12060   5.061   8.979   6.606 -1.2559  2.2997  1.0114
  849MOL0     H12061   4.970   8.947   6.460 -0.4416 -2.2612  2.8076
  849MOL0     H12062   5.225   8.883   6.499 -1.8668 -1.3917 -3.1990
  849MOL0     H12063   5.266   9.050   6.509 -2.9804  2.5261  0.1578
  849MOL0     H12064   5.225   9.081   6.273 -0.7107 -1.0652 -2.7108
  849MOL0     H12065   5.320   8.941   6.279 -0.5490 -1.8732 -0.9827
  849MOL0     H12066   4.925   8.792   6.171  0.5454 -2.8357  3.3537
  849MOL0     H12067   4.623   9.182   6.581 -1.0526 -0.2115 -1.0131
  849MOL0     H12068   4.437   9.174   6.432  2.1843  3.3506  2.0595
  850MOL0     O12069   7.678   7.310   5.631  1.0842  0.4081 -0.5737
  850MOL0     C12070   7.693   7.188   5.630  0.0981  0.1335 -0.4979
  850MOL0     O12071   7.599   7.104   5.580  0.1328  0.1001 -0.3385
  850MOL0     C12072   7.469   7.148   5.566  0.3603 -0.1821 -0.0273
  850MOL0     C12073   7.411   7.223   5.668 -0.5627 -0.2839  0.1889
  850MOL0     C12074   7.275   7.277   5.643 -0.6315  0.1119 -0.1841
  850MOL0     C12075   7.200   7.248   5.526  0.3695 -0.2210  0.0051
  850MOL0     O12076   7.065   7.293   5.497 -0.5024 -0.2501  0.5396
  850MOL0     C12077   6.976   7.297   5.611  0.3536  0.3056 -0.5498
  850MOL0     C12078   6.831   7.332   5.555  1.3492 -0.1365 -0.7149
  850MOL0     C12079   6.734   7.356   5.672 -0.5010 -0.2784  0.5113
  850MOL0     C12080   6.583   7.392   5.647  0.1713  0.0783  0.3312
  850MOL0     C12081   6.511   7.414   5.784  0.2976 -0.4269  0.3172
  850MOL0     C12082   6.369   7.457   5.767  0.6456 -0.8494 -0.4714
  850MOL0     C12083   6.300   7.515   5.888 -0.5738  0.1538 -0.5479
  850MOL0     C12084   6.156   7.533   5.870  0.5420  0.0723 -0.1430
  850MOL0     N12085   6.099   7.556   6.004 -0.1153 -0.3706  0.3497
  850MOL0     C12086   6.017   7.658   6.027  1.1632  0.1315  0.2227
  850MOL0     C12087   5.954   7.627   6.150 -0.0761 -0.5823 -0.3708
  850MOL0     C12088   5.853   7.703   6.233  0.2535  0.0269  0.2128
  850MOL0     C12089   5.717   7.701   6.156 -0.2783 -0.0599  0.5117
  850MOL0     C12090   5.603   7.746   6.243 -0.8338  0.2018 -0.8026
  850MOL0     C12091   5.473   7.744   6.162 -0.0671  0.3998 -0.5212
  850MOL0     O12092   5.476   7.854   6.073 -0.3284  0.1902 -0.2863
  850MOL0     C12093   5.356   7.885   6.010 -0.0933  0.5725  0.8076
  850MOL0     C12094   5.297   7.785   5.926  0.9259  0.0521 -1.3194
  850MOL0     C12095   5.172   7.796   5.873  1.0776  0.4565 -0.7219
  850MOL0     C12096   5.086   7.906   5.916 -0.0538 -0.1290 -0.4861
  850MOL0     C12097   4.946   7.906   5.879  0.4368 -0.1523  0.1476
  850MOL0     O12098   4.863   8.012   5.923 -0.7899  0.2124 -0.6549
  850MOL0     C12099   4.756   8.050   5.853  0.5464  0.1319  0.6291
  850MOL0     C12100   4.734   8.040   5.714 -0.2251 -0.4727 -0.4459
  850MOL0     C12101   4.612   8.092   5.654 -0.1957 -0.3915 -0.0039
  850MOL0     C12102   4.508   8.131   5.733  0.2033 -0.3573  0.2458
  850MOL0     O12103   4.383   8.171   5.683 -0.3088  0.1084  0.0281
  850MOL0     C12104   4.336   8.142   5.545  0.7651  0.3253  0.2814
  850MOL0     C12105   4.189   8.184   5.512 -0.1505 -0.2669  0.2399
  850MOL0     C12106   4.170   8.339   5.529  0.2825 -0.3386 -0.5992
  850MOL0     C12107   4.046   8.381   5.446 -0.8623 -0.5115 -0.6105
  850MOL0     C12108   4.029   8.541   5.432  0.2369  0.3871  0.5835
  850MOL0     C12109   3.908   8.571   5.351 -0.3494 -1.1651 -0.3526
  850MOL0     C12110   3.916   8.712   5.304 -0.3374 -0.1658 -0.1630
  850MOL0     C12111   3.879   8.810   5.416 -0.5357 -0.2685  0.9051
  850MOL0    Cl12112   3.712   8.793   5.467 -0.0154  0.4954  0.2505
  850MOL0     C12113   4.519   8.131   5.875  0.4273 -0.2431  0.4511
  850MOL0     C12114   4.645   8.099   5.931 -0.4713  0.7259 -0.3182
  850MOL0     O12115   4.915   7.822   5.794  1.0719 -0.7606  0.1134
  850MOL0     C12116   5.150   8.013   5.993 -0.2171 -0.4291  0.2583
  850MOL0     C12117   5.283   8.001   6.035  0.1192  0.0054  0.3182
  850MOL0     N12118   6.007   7.498   6.189 -0.3976 -0.3622  0.0571
  850MOL0     N12119   6.090   7.454   6.100 -0.4347 -0.5034  0.7745
  850MOL0     C12120   7.276   7.183   5.421  0.2321  0.1086  0.5699
  850MOL0     C12121   7.401   7.136   5.439  0.0161  0.2308  0.5273
  850MOL0     C12122   7.830   7.145   5.661  0.2038 -0.1101 -0.3692
  850MOL0     C12123   7.922   7.216   5.737  0.9541  0.2378 -0.2972
  850MOL0     C12124   8.034   7.162   5.782  0.0401  0.1807 -0.4449
  850MOL0     C12125   8.075   7.037   5.730 -0.0713 -0.0113 -0.2661
  850MOL0     O12126   8.183   6.977   5.778 -0.9018  0.4590 -0.6070
  850MOL0     C12127   8.310   7.037   5.750  0.1146 -0.7387 -0.3102
  850MOL0     C12128   8.429   6.962   5.786 -0.3506  0.1774 -0.0892
  850MOL0     C12129   8.561   6.997   5.716 -0.6229 -0.7009  0.8944
  850MOL0     C12130   8.674   6.940   5.797  0.3402  0.9786  0.7175
  850MOL0     C12131   8.795   6.974   5.731 -0.8969  1.0609  0.2711
  850MOL0     C12132   8.889   7.008   5.661  0.6177 -0.9033 -0.0911
  850MOL0     C12133   7.999   6.969   5.640  0.9121 -0.4105 -0.4117
  850MOL0     C12134   7.873   7.020   5.599  0.6624  0.1084 -0.9570
  850MOL0     H12135   7.468   7.248   5.756 -1.3711  1.2881  0.2995
  850MOL0     H12136   7.247   7.341   5.726  0.3661 -2.2263  2.0947
  850MOL0     H12137   7.005   7.361   5.694 -0.2913 -1.0192  0.7593
  850MOL0     H12138   6.964   7.194   5.649 -4.2845 -0.2737 -2.8777
  850MOL0     H12139   6.792   7.251   5.492  0.4615 -0.2996  0.0151
  850MOL0     H12140   6.821   7.419   5.490 -3.6860 -1.8063 -2.7072
  850MOL0     H12141   6.763   7.442   5.732 -1.2427  1.9907 -2.1667
  850MOL0     H12142   6.739   7.268   5.737 -0.4775  0.9863  2.2858
  850MOL0     H12143   6.578   7.478   5.579  3.5540  0.2525  0.1215
  850MOL0     H12144   6.524   7.312   5.604 -0.1342  0.0846  0.7324
  850MOL0     H12145   6.562   7.498   5.832 -1.5234  1.1105 -0.3474
  850MOL0     H12146   6.518   7.328   5.851 -3.2740 -0.8856  0.3285
  850MOL0     H12147   6.315   7.367   5.738 -1.1225 -0.2745  0.8769
  850MOL0     H12148   6.353   7.522   5.681 -1.9720 -3.0793 -1.8360
  850MOL0     H12149   6.337   7.457   5.973  3.0032 -0.1330 -2.1518
  850MOL0     H12150   6.327   7.620   5.901 -2.5379  0.5377  1.0261
  850MOL0     H12151   6.107   7.451   5.817 -0.4238  0.5925 -0.0781
  850MOL0     H12152   6.135   7.621   5.809  1.4115  2.4568  2.7952
  850MOL0     H12153   6.003   7.747   5.967 -1.4095  0.3415  1.0096
  850MOL0     H12154   5.889   7.804   6.255  1.7666 -0.8894  2.2440
  850MOL0     H12155   5.838   7.652   6.329  0.8242  1.3613  1.0381
  850MOL0     H12156   5.709   7.603   6.107  2.3161  0.1292 -0.4793
  850MOL0     H12157   5.723   7.766   6.069  0.4362 -0.3436  0.3404
  850MOL0     H12158   5.587   7.664   6.313  0.5641 -1.6595 -2.5318
  850MOL0     H12159   5.614   7.847   6.284 -1.1749 -0.6198  1.4337
  850MOL0     H12160   5.385   7.750   6.227 -1.3524 -3.3114 -1.6855
  850MOL0     H12161   5.464   7.652   6.104  1.2499 -0.1896  0.1669
  850MOL0     H12162   5.356   7.700   5.893 -0.7055 -1.2637 -0.9401
  850MOL0     H12163   5.127   7.722   5.807 -1.4087  0.2270  1.0796
  850MOL0     H12164   4.801   8.002   5.637 -0.5359  0.6994 -1.3223
  850MOL0     H12165   4.605   8.100   5.546 -0.8794  0.7103  0.1048
  850MOL0     H12166   4.334   8.033   5.540 -2.9244  0.3616 -2.7381
  850MOL0     H12167   4.406   8.187   5.474  2.0054  1.8718  2.3208
  850MOL0     H12168   4.123   8.132   5.582 -1.6993  0.5683 -0.5511
  850MOL0     H12169   4.160   8.156   5.411 -3.2540  0.9691  0.6756
  850MOL0     H12170   4.259   8.396   5.499  3.8032 -3.9266  1.9587
  850MOL0     H12171   4.156   8.357   5.636  1.8519  2.7579 -0.8039
  850MOL0     H12172   4.062   8.341   5.346 -0.1969 -0.9976 -0.3148
  850MOL0     H12173   3.951   8.348   5.490 -0.3427  0.6552  1.5454
  850MOL0     H12174   4.119   8.583   5.386  0.2839  1.3237  1.4782
  850MOL0     H12175   4.014   8.591   5.528  1.7828  0.8029  0.6341
  850MOL0     H12176   3.819   8.561   5.414  1.3477 -0.0005  2.4223
  850MOL0     H12177   3.896   8.504   5.265 -2.8927 -1.2839  0.0062
  850MOL0     H12178   4.018   8.728   5.270 -1.0206  1.0791 -1.7797
  850MOL0     H12179   3.849   8.730   5.219  1.1218 -0.9184 -1.5080
  850MOL0     H12180   3.893   8.914   5.385 -0.6106  0.8054  4.0582
  850MOL0     H12181   3.945   8.806   5.504  2.3518  0.5994 -1.0727
  850MOL0     H12182   4.434   8.144   5.941 -0.0137 -1.2167  0.0931
  850MOL0     H12183   4.671   8.101   6.037  2.5295  0.0100 -0.9311
  850MOL0     H12184   5.086   8.098   6.014  3.6181  2.2090  2.7028
  850MOL0     H12185   5.324   8.073   6.105 -0.9392 -0.4641  1.4702
  850MOL0     H12186   7.230   7.167   5.324  1.5982 -0.0874 -0.0624
  850MOL0     H12187   7.467   7.108   5.357  2.2856 -0.0251  2.3439
  850MOL0     H12188   7.887   7.308   5.783 -1.2222  0.5831 -2.4266
  850MOL0     H12189   8.092   7.213   5.858  0.8949  2.2953 -2.3989
  850MOL0     H12190   8.307   7.137   5.796 -4.2133 -0.3672 -1.0176
  850MOL0     H12191   8.324   7.065   5.645 -0.0690 -1.4563 -0.5249
  850MOL0     H12192   8.437   6.975   5.894  3.6918  0.6287 -0.2822
  850MOL0     H12193   8.402   6.858   5.765  0.1106  0.1375 -0.5107
  850MOL0     H12194   8.576   7.105   5.707 -1.2188 -0.6607  0.3283
  850MOL0     H12195   8.559   6.958   5.614 -2.8493 -3.1797  1.7931
  850MOL0     H12196   8.670   6.976   5.901 -1.8991  1.4289  0.5278
  850MOL0     H12197   8.656   6.835   5.822 -0.8233  1.1518  0.6778
  850MOL0     H12198   8.955   7.025   5.578 -1.7681  1.5964 -1.6340
  850MOL0     H12199   8.037   6.880   5.590 -3.1144 -1.1379 -2.6423
  850MOL0     H12200   7.813   6.988   5.515 -1.5894  0.7028  0.3315
  851MOL0     O12201   8.146   3.685   3.291 -0.0614  0.0937 -0.1658
  851MOL0     C12202   8.162   3.700   3.172 -0.0096  0.7303 -0.6673
  851MOL0     O12203   8.097   3.629   3.073  0.4135  0.5175 -0.5730
  851MOL0     C12204   8.022   3.522   3.114 -0.0645 -0.6549  0.5108
  851MOL0     C12205   8.083   3.417   3.174  0.9505 -0.3838  0.1748
  851MOL0     C12206   8.003   3.325   3.230 -0.5128  0.2204  0.0623
  851MOL0     C12207   7.870   3.314   3.217  0.0399  0.1364  0.8189
  851MOL0     O12208   7.801   3.211   3.276 -0.7436 -0.5731 -0.4589
  851MOL0     C12209   7.677   3.171   3.222  0.7320 -0.2981 -0.0328
  851MOL0     C12210   7.668   3.025   3.208 -0.3366  1.0161 -0.1495
  851MOL0     C12211   7.528   2.964   3.158 -0.2768 -0.5173 -0.0677
  851MOL0     C12212   7.506   2.828   3.229  1.2229 -0.0488 -0.6304
  851MOL0     C12213   7.450   2.845   3.368 -0.0323 -0.1303  0.7245
  851MOL0     C12214   7.520   2.746   3.455 -0.5973  0.1598 -0.3213
  851MOL0     C12215   7.482   2.769   3.604 -0.1955 -0.7588  0.0645
  851MOL0     C12216   7.540   2.669   3.697 -1.0082 -0.2199  0.2312
  851MOL0     N12217   7.683   2.658   3.696 -0.2576  0.3320  1.0607
  851MOL0     C12218   7.767   2.749   3.744 -0.4473 -1.0534 -0.4445
  851MOL0     C12219   7.885   2.703   3.721  0.4167 -0.1255  0.0334
  851MOL0     C12220   8.005   2.777   3.761 -1.0818 -0.0865 -0.0834
  851MOL0     C12221   8.117   2.775   3.659  0.2156 -0.8999  0.5980
  851MOL0     C12222   8.243   2.836   3.707 -0.8369  0.2637  0.1752
  851MOL0     C12223   8.313   2.744   3.806 -0.2866 -0.4340  0.2387
  851MOL0     O12224   8.430   2.686   3.736 -0.0587  0.5316  0.3630
  851MOL0     C12225   8.553   2.752   3.741 -0.0683 -0.5446 -0.6105
  851MOL0     C12226   8.567   2.892   3.742 -0.6433  0.7023 -0.9317
  851MOL0     C12227   8.697   2.945   3.758 -0.7834  0.2683 -0.2400
  851MOL0     C12228   8.814   2.853   3.777 -0.3912 -0.6990 -0.4443
  851MOL0     C12229   8.947   2.911   3.811 -0.3005 -0.0040  0.4543
  851MOL0     O12230   8.960   3.032   3.871  0.2131 -0.1513 -0.1066
  851MOL0     C12231   9.067   3.102   3.848 -0.6488  0.6030  0.3330
  851MOL0     C12232   9.050   3.229   3.790  0.4382 -0.1223 -0.1463
  851MOL0     C12233   9.156   3.306   3.757 -0.6752 -0.5988 -0.7239
  851MOL0     C12234   9.280   3.262   3.784 -0.0453  0.8473  0.1048
  851MOL0     O12235   9.381   3.350   3.759 -0.3053 -0.1271  0.4320
  851MOL0     C12236   9.498   3.277   3.711 -0.7615  0.3620  0.0605
  851MOL0     C12237   9.570   3.370   3.611  0.6855  1.2787  0.9712
  851MOL0     C12238   9.630   3.482   3.688 -0.3036 -0.1837 -0.0121
  851MOL0     C12239   9.713   3.562   3.595 -0.0275 -0.2866  1.2283
  851MOL0     C12240   9.826   3.637   3.661 -0.2474 -0.1249 -0.5060
  851MOL0     C12241   9.905   3.715   3.555 -0.5859 -0.0943  0.0667
  851MOL0     C12242  10.048   3.756   3.604  0.1047 -0.5581  0.1710
  851MOL0     C12243  10.068   3.906   3.579  0.5436  0.4078 -0.5478
  851MOL0    Cl12244   9.943   3.990   3.675 -0.0080 -0.4333  0.3204
  851MOL0     C12245   9.301   3.140   3.858 -0.0199 -0.2041  0.0685
  851MOL0     C12246   9.191   3.061   3.885 -0.2251  0.7667 -1.0279
  851MOL0     O12247   9.037   2.843   3.759 -0.1752 -0.1301 -0.2975
  851MOL0     C12248   8.792   2.716   3.766 -0.3753  0.4022 -0.4270
  851MOL0     C12249   8.663   2.669   3.745  0.3847 -0.9376 -0.2934
  851MOL0     N12250   7.880   2.589   3.639  1.4043  0.1943 -0.6769
  851MOL0     N12251   7.750   2.569   3.619 -0.5515  0.3696  0.8012
  851MOL0     C12252   7.809   3.418   3.142 -0.4688 -0.5121  0.6016
  851MOL0     C12253   7.885   3.524   3.097 -0.2611  0.6750 -0.8827
  851MOL0     C12254   8.271   3.792   3.131 -0.2249 -0.0452  0.0787
  851MOL0     C12255   8.286   3.910   3.197  0.4141 -0.8598  0.0915
  851MOL0     C12256   8.399   3.992   3.168 -0.4176  0.3565  1.0293
  851MOL0     C12257   8.501   3.953   3.073  0.7810  0.1823  0.4099
  851MOL0     O12258   8.622   4.016   3.046  0.5129 -0.7707  0.8067
  851MOL0     C12259   8.694   4.101   3.138  0.4088  0.4209 -0.3297
  851MOL0     C12260   8.699   4.052   3.292  0.2613 -0.0765 -0.1709
  851MOL0     C12261   8.800   3.943   3.308  0.7657  0.1374 -0.1290
  851MOL0     C12262   8.762   3.849   3.424 -0.5546 -0.8150  0.5494
  851MOL0     C12263   8.656   3.748   3.386  0.3868  1.1555 -0.6189
  851MOL0     C12264   8.568   3.662   3.374  0.5338  0.1731 -0.4594
  851MOL0     C12265   8.476   3.838   3.006  0.9192 -0.4320 -0.2472
  851MOL0     C12266   8.361   3.758   3.033 -0.1572 -0.2112  0.4848
  851MOL0     H12267   8.190   3.413   3.193  0.8126 -3.6242  0.8731
  851MOL0     H12268   8.037   3.237   3.285  2.4599  2.3888  2.0310
  851MOL0     H12269   7.667   3.209   3.119 -0.8408  3.1139  1.2420
  851MOL0     H12270   7.596   3.208   3.285 -1.2535 -0.4479 -2.3186
  851MOL0     H12271   7.697   2.979   3.303 -1.1149 -0.3065 -0.5152
  851MOL0     H12272   7.741   2.987   3.135 -2.7179 -1.3638 -1.4670
  851MOL0     H12273   7.537   2.959   3.049 -1.1984 -2.2556 -0.1078
  851MOL0     H12274   7.447   3.035   3.174 -0.2962 -0.5878  0.1599
  851MOL0     H12275   7.440   2.770   3.165 -0.3271  0.6455  0.2988
  851MOL0     H12276   7.603   2.776   3.228  2.1663  1.6289 -0.8680
  851MOL0     H12277   7.344   2.819   3.373 -0.0070 -0.0019  2.6316
  851MOL0     H12278   7.459   2.949   3.401 -1.3654 -0.0326  0.8431
  851MOL0     H12279   7.629   2.740   3.442 -0.6808  0.9301 -1.6348
  851MOL0     H12280   7.478   2.651   3.423 -0.1305 -0.0566 -0.3034
  851MOL0     H12281   7.516   2.871   3.625  1.8311 -0.6956 -2.9523
  851MOL0     H12282   7.374   2.751   3.611  0.2351 -3.5339  0.7630
  851MOL0     H12283   7.507   2.567   3.676 -0.2904 -1.1902  3.2059
  851MOL0     H12284   7.507   2.689   3.800 -0.5322  1.0149  0.1589
  851MOL0     H12285   7.753   2.843   3.797  0.1617 -1.0620 -0.2657
  851MOL0     H12286   8.034   2.744   3.861  2.9829  1.5973 -0.5321
  851MOL0     H12287   7.989   2.884   3.778 -1.8382 -0.3353  0.8386
  851MOL0     H12288   8.094   2.846   3.579  3.1643 -1.0091 -0.4424
  851MOL0     H12289   8.136   2.677   3.616  0.5763 -0.9643  0.8992
  851MOL0     H12290   8.302   2.853   3.617  2.0085  3.7267  2.3957
  851MOL0     H12291   8.227   2.935   3.750 -6.3477  0.5987 -1.7703
  851MOL0     H12292   8.249   2.659   3.834 -1.6595  0.2144 -0.8035
  851MOL0     H12293   8.344   2.794   3.898 -2.0709 -0.2466  0.7793
  851MOL0     H12294   8.484   2.960   3.730 -0.3827  1.0733 -0.6777
  851MOL0     H12295   8.728   3.049   3.748  0.1877 -0.0326 -0.4208
  851MOL0     H12296   8.951   3.271   3.771  1.1904  1.5426 -0.5882
  851MOL0     H12297   9.142   3.405   3.714 -0.0770  0.8097  2.1057
  851MOL0     H12298   9.476   3.180   3.667 -0.1055 -1.1712  2.8782
  851MOL0     H12299   9.567   3.268   3.796  0.5412  5.1807 -0.1609
  851MOL0     H12300   9.497   3.403   3.537  0.0807 -1.6711  0.1246
  851MOL0     H12301   9.635   3.312   3.545 -2.0605  2.0952 -2.7859
  851MOL0     H12302   9.691   3.436   3.766 -1.2238  1.7366  1.9434
  851MOL0     H12303   9.554   3.542   3.739 -0.3596  0.5367 -0.9074
  851MOL0     H12304   9.759   3.500   3.517  0.1066  1.0750  0.1636
  851MOL0     H12305   9.645   3.636   3.552  0.7910  0.5747  1.3802
  851MOL0     H12306   9.888   3.578   3.729  2.6871  2.1268 -1.0161
  851MOL0     H12307   9.781   3.710   3.729 -0.5924 -1.8084  1.1696
  851MOL0     H12308   9.846   3.803   3.529 -1.5953 -0.6615  0.3849
  851MOL0     H12309   9.918   3.655   3.465  0.9005 -1.1631  0.9483
  851MOL0     H12310  10.061   3.726   3.708 -1.1126 -3.0036 -0.3122
  851MOL0     H12311  10.118   3.703   3.538 -0.1302 -0.1834 -0.3818
  851MOL0     H12312  10.050   3.935   3.476  0.2355  1.4831 -0.2034
  851MOL0     H12313  10.170   3.934   3.606  0.8650 -0.6968 -0.5754
  851MOL0     H12314   9.401   3.106   3.882 -0.1331 -0.9313 -0.4449
  851MOL0     H12315   9.206   2.965   3.934 -2.5127  0.2786 -1.1517
  851MOL0     H12316   8.876   2.649   3.784 -3.0010 -3.4985 -1.3440
  851MOL0     H12317   8.663   2.562   3.730  2.4357 -1.1322  0.6784
  851MOL0     H12318   7.704   3.418   3.116 -0.6969  3.6798  0.8748
  851MOL0     H12319   7.850   3.615   3.051 -0.0609  2.5100  2.3251
  851MOL0     H12320   8.219   3.929   3.280  0.6721  0.5245  0.0045
  851MOL0     H12321   8.418   4.079   3.229  0.0760  0.2548  1.0241
  851MOL0     H12322   8.660   4.204   3.129 -2.0992 -0.5140 -3.4813
  851MOL0     H12323   8.793   4.106   3.091  0.4877  2.0559 -0.0193
  851MOL0     H12324   8.742   4.139   3.343  1.0709  1.1639 -2.8030
  851MOL0     H12325   8.606   4.026   3.344  1.9017 -2.0057  1.9953
  851MOL0     H12326   8.900   3.985   3.325  0.9434  0.0062 -0.8253
  851MOL0     H12327   8.814   3.877   3.223  3.9766  2.0089 -1.2255
  851MOL0     H12328   8.851   3.796   3.457  1.0970  1.8415  0.6607
  851MOL0     H12329   8.729   3.914   3.506 -0.2108  0.2129 -0.1046
  851MOL0     H12330   8.498   3.581   3.371  3.5379 -2.6200  0.2027
  851MOL0     H12331   8.551   3.795   2.941  1.3305 -0.1407  0.0267
  851MOL0     H12332   8.354   3.661   2.985  1.8592 -0.4204  0.5337
  852MOL0     O12333   6.758   2.970  11.141  0.4772  0.0872 -0.1984
  852MOL0     C12334   6.798   3.053  11.064 -0.6576 -0.5998  0.1904
  852MOL0     O12335   6.724   3.129  10.982  0.1118 -0.1082 -0.2341
  852MOL0     C12336   6.589   3.116  10.972  0.1999  0.1756 -0.7195
  852MOL0     C12337   6.530   3.035  10.875  0.5834  0.1980  0.4502
  852MOL0     C12338   6.392   3.020  10.873 -0.1132 -0.9706 -0.3886
  852MOL0     C12339   6.306   3.083  10.969 -0.6599 -0.4649  0.2348
  852MOL0     O12340   6.178   3.045  10.950  0.5895 -0.0949 -0.1676
  852MOL0     C12341   6.075   3.059  11.057 -1.1382 -0.0678  0.3887
  852MOL0     C12342   5.952   3.130  10.997  0.1255 -0.2599 -0.0367
  852MOL0     C12343   5.961   3.286  11.018  0.4356 -0.9406 -1.0052
  852MOL0     C12344   5.855   3.377  10.956 -0.1289  1.5792 -0.0198
  852MOL0     C12345   5.794   3.464  11.062 -0.2184 -0.3316  0.7486
  852MOL0     C12346   5.725   3.382  11.173 -0.2581 -0.1526 -0.0459
  852MOL0     C12347   5.631   3.450  11.277  1.4741  0.1548 -0.2169
  852MOL0     C12348   5.503   3.499  11.206  0.3714  0.2277 -0.5315
  852MOL0     N12349   5.403   3.556  11.305 -0.3487 -0.4013  0.1755
  852MOL0     C12350   5.262   3.522  11.300  0.3625  0.3483  0.0998
  852MOL0     C12351   5.218   3.584  11.417  0.5171 -0.7522 -0.3242
  852MOL0     C12352   5.075   3.606  11.475 -0.0617  0.3875  0.0202
  852MOL0     C12353   5.049   3.491  11.581  0.4687 -0.0665  1.3233
  852MOL0     C12354   4.909   3.517  11.625  0.7462 -0.1183  0.2825
  852MOL0     C12355   4.868   3.411  11.732  0.4004  0.2193 -0.4135
  852MOL0     O12356   4.871   3.272  11.696  0.7931  0.3344  0.0194
  852MOL0     C12357   4.760   3.223  11.624 -0.4040  0.6966  0.6361
  852MOL0     C12358   4.661   3.298  11.563  0.6509 -0.3308 -0.7283
  852MOL0     C12359   4.549   3.245  11.497 -0.1834 -0.7146 -1.3562
  852MOL0     C12360   4.538   3.105  11.495  0.5703 -0.0138  0.5669
  852MOL0     C12361   4.428   3.023  11.427  0.0286 -0.0337 -0.0785
  852MOL0     O12362   4.338   3.094  11.353 -0.3210 -0.3116 -0.0681
  852MOL0     C12363   4.232   3.035  11.297  0.2805  0.1299 -1.1094
  852MOL0     C12364   4.254   2.947  11.193 -0.0998 -0.3170 -0.3520
  852MOL0     C12365   4.145   2.876  11.131 -0.0626  0.7296 -0.0977
  852MOL0     C12366   4.013   2.911  11.162  0.5658 -0.2865 -0.9316
  852MOL0     O12367   3.916   2.853  11.091  0.2489  0.5870 -0.6317
  852MOL0     C12368   3.786   2.915  11.077  0.4395  0.3235  0.6266
  852MOL0     C12369   3.693   2.837  11.170 -0.1177 -0.8700  0.5611
  852MOL0     C12370   3.547   2.891  11.150  0.3433  0.0932 -0.3048
  852MOL0     C12371   3.441   2.821  11.237  0.3243  0.3542 -0.3855
  852MOL0     C12372   3.305   2.848  11.182 -0.5443 -0.7674 -0.5129
  852MOL0     C12373   3.199   2.801  11.279 -0.1883 -0.6935 -0.5327
  852MOL0     C12374   3.061   2.839  11.227 -0.0359 -0.0568  0.5150
  852MOL0     C12375   2.945   2.819  11.322  0.3380 -1.4976  0.5333
  852MOL0    Cl12376   2.804   2.864  11.220 -0.7079 -0.2034  0.0525
  852MOL0     C12377   3.992   3.009  11.258  0.5001 -0.4130 -0.1814
  852MOL0     C12378   4.102   3.075  11.319  0.3158 -0.0487 -0.5898
  852MOL0     O12379   4.428   2.899  11.444  0.0939  0.4991 -0.4804
  852MOL0     C12380   4.642   3.034  11.561  0.7551 -0.2841  0.7168
  852MOL0     C12381   4.755   3.084  11.612 -0.2585  0.3970 -0.6438
  852MOL0     N12382   5.324   3.655  11.466  0.2210  0.4743  0.1790
  852MOL0     N12383   5.433   3.642  11.410 -0.2642  0.3219  0.7538
  852MOL0     C12384   6.361   3.154  11.072  0.7544 -0.7183  0.2790
  852MOL0     C12385   6.505   3.169  11.079 -0.2130  0.3309 -0.1834
  852MOL0     C12386   6.942   3.096  11.078  0.4822 -0.2200  0.0086
  852MOL0     C12387   6.999   3.167  10.973 -0.2922  0.2003  0.4615
  852MOL0     C12388   7.134   3.203  10.976  0.4620  0.4798 -0.5149
  852MOL0     C12389   7.215   3.174  11.093  0.8962  0.0856 -0.2579
  852MOL0     O12390   7.344   3.206  11.078 -0.7404 -0.3716  0.6120
  852MOL0     C12391   7.436   3.118  11.137  0.5285 -0.6028  0.0572
  852MOL0     C12392   7.576   3.153  11.099  0.4385  0.5676  0.6717
  852MOL0     C12393   7.697   3.064  11.150  0.5320 -0.0056  0.0949
  852MOL0     C12394   7.753   2.969  11.039  0.6864 -0.4890 -0.1302
  852MOL0     C12395   7.654   2.868  10.994  0.0532 -0.1902 -1.0121
  852MOL0     C12396   7.559   2.800  10.964 -0.2115  0.9787  0.6828
  852MOL0     C12397   7.161   3.107  11.198  0.9014 -0.5750  0.5090
  852MOL0     C12398   7.027   3.064  11.192  0.4015  0.1824 -0.2011
  852MOL0     H12399   6.591   2.986  10.799 -2.4690  1.6413 -3.2145
  852MOL0     H12400   6.339   2.944  10.817 -2.7493 -0.0046  0.6091
  852MOL0     H12401   6.100   3.110  11.150 -1.5706 -4.2186  3.0238
  852MOL0     H12402   6.039   2.958  11.078  0.9661 -1.5399 -2.4578
  852MOL0     H12403   5.859   3.087  11.035 -0.8365 -0.2578 -2.2316
  852MOL0     H12404   5.951   3.107  10.890 -1.2906 -1.3068  0.1717
  852MOL0     H12405   6.058   3.325  10.987  0.2658  0.9838  0.6401
  852MOL0     H12406   5.975   3.299  11.126  1.8487 -2.7687 -0.9160
  852MOL0     H12407   5.904   3.434  10.876 -2.5195  0.6351 -2.2996
  852MOL0     H12408   5.783   3.317  10.901  0.9054 -0.2886  0.5862
  852MOL0     H12409   5.714   3.526  11.021 -0.8016  0.2023  2.6078
  852MOL0     H12410   5.872   3.528  11.104  2.1617  0.3438 -3.9946
  852MOL0     H12411   5.807   3.346  11.236 -0.8344 -2.1747 -0.3924
  852MOL0     H12412   5.669   3.307  11.118 -1.0711  1.6166 -1.7707
  852MOL0     H12413   5.603   3.368  11.345  0.0986  1.7313  1.2205
  852MOL0     H12414   5.686   3.531  11.324  0.1363  2.2669 -2.0883
  852MOL0     H12415   5.459   3.411  11.158 -2.0265  0.1320  1.5939
  852MOL0     H12416   5.517   3.580  11.135  0.9422 -0.3566 -1.0944
  852MOL0     H12417   5.192   3.472  11.234  1.3387 -0.1932 -0.5443
  852MOL0     H12418   5.000   3.601  11.396 -2.6730  1.1327  2.2804
  852MOL0     H12419   5.073   3.706  11.519 -0.6207  0.0337  0.8443
  852MOL0     H12420   5.111   3.506  11.670 -1.3821  0.9289  2.4874
  852MOL0     H12421   5.066   3.392  11.538  3.6304  1.3790 -1.2795
  852MOL0     H12422   4.897   3.619  11.662 -2.4302 -0.1813 -0.2393
  852MOL0     H12423   4.846   3.501  11.537 -0.9827 -1.1905  1.6273
  852MOL0     H12424   4.783   3.448  11.789 -0.4102  2.2063 -2.7193
  852MOL0     H12425   4.945   3.419  11.810  0.0915  0.5171 -0.1357
  852MOL0     H12426   4.663   3.405  11.580 -2.4624 -0.6151  2.4351
  852MOL0     H12427   4.477   3.303  11.440  1.5223 -0.0081 -2.9050
  852MOL0     H12428   4.355   2.918  11.169  0.7564  0.7834  1.6713
  852MOL0     H12429   4.183   2.808  11.055  0.7672 -1.6275  2.2702
  852MOL0     H12430   3.747   2.897  10.977 -0.6970 -0.0890  1.1241
  852MOL0     H12431   3.785   3.022  11.097 -2.0054  0.1564  1.7628
  852MOL0     H12432   3.702   2.861  11.277 -0.3890 -0.6350  0.5326
  852MOL0     H12433   3.703   2.729  11.155 -1.8810 -0.7691 -1.9414
  852MOL0     H12434   3.513   2.885  11.046  1.5149 -0.7574 -0.6608
  852MOL0     H12435   3.542   2.999  11.168  1.9808 -0.1936  2.4211
  852MOL0     H12436   3.456   2.713  11.236 -0.5053  0.2289 -1.4376
  852MOL0     H12437   3.453   2.850  11.342 -1.9875 -1.2571  0.4129
  852MOL0     H12438   3.285   2.789  11.092  3.4936  0.9272 -2.8579
  852MOL0     H12439   3.295   2.956  11.165 -0.6397 -0.0493  3.3613
  852MOL0     H12440   3.217   2.848  11.376  0.0988  2.2913 -1.9368
  852MOL0     H12441   3.206   2.693  11.298  1.7432 -0.3334  1.1633
  852MOL0     H12442   3.074   2.948  11.220  2.6517 -0.4221 -2.3846
  852MOL0     H12443   3.032   2.800  11.130 -0.5702 -0.7717  0.9564
  852MOL0     H12444   2.955   2.883  11.411  0.2544 -1.6721  0.6682
  852MOL0     H12445   2.948   2.720  11.369  3.6477 -1.4857  0.5441
  852MOL0     H12446   3.894   3.041  11.291  0.9877 -0.3146  1.2439
  852MOL0     H12447   4.089   3.167  11.375 -0.5445 -1.2669  1.3461
  852MOL0     H12448   4.643   2.925  11.554 -0.1028 -0.2060 -4.5212
  852MOL0     H12449   4.827   3.020  11.663  2.7878  1.7648 -2.9396
  852MOL0     H12450   6.298   3.175  11.157  0.8623 -3.9711  1.3095
  852MOL0     H12451   6.555   3.212  11.165  4.0983 -3.1948 -0.5601
  852MOL0     H12452   6.953   3.185  10.877  0.6080 -0.5326 -0.1200
  852MOL0     H12453   7.188   3.230  10.886 -0.9280 -1.0789 -1.8853
  852MOL0     H12454   7.421   3.012  11.114 -0.6627 -0.0295 -2.0995
  852MOL0     H12455   7.430   3.128  11.246  0.1490 -1.0388  0.0788
  852MOL0     H12456   7.577   3.176  10.992 -0.3917 -0.7268  0.3564
  852MOL0     H12457   7.582   3.250  11.148 -4.4535  2.8209 -2.5013
  852MOL0     H12458   7.668   2.998  11.233  4.3709 -1.3892  0.5328
  852MOL0     H12459   7.775   3.134  11.179  2.3510 -1.1864 -1.6501
  852MOL0     H12460   7.777   3.019  10.945 -0.7837  0.7588  0.1148
  852MOL0     H12461   7.844   2.930  11.085  0.9412  1.0802  0.7673
  852MOL0     H12462   7.480   2.735  10.934 -2.7610  2.9689  2.6326
  852MOL0     H12463   7.219   3.078  11.285  0.5575 -1.3352  0.5035
  852MOL0     H12464   6.988   3.000  11.271 -0.5598  3.0268  1.7993
  853MOL0     O12465   5.840   1.413   1.279 -0.0206 -0.6719  0.0924
  853MOL0     C12466   5.915   1.467   1.373  0.5155 -0.3348  1.3085
  853MOL0     O12467   5.875   1.478   1.507  0.0046  0.1783  0.3565
  853MOL0     C12468   5.761   1.439   1.568 -0.4400 -0.2700  0.3017
  853MOL0     C12469   5.711   1.526   1.668 -0.0342  0.2698  0.6068
  853MOL0     C12470   5.601   1.481   1.737 -0.0434 -0.0808 -0.6818
  853MOL0     C12471   5.532   1.370   1.684 -0.2764 -0.0631  0.2447
  853MOL0     O12472   5.415   1.334   1.739 -1.1333  0.7468  0.0747
  853MOL0     C12473   5.397   1.374   1.879  0.5943  0.1254  0.6831
  853MOL0     C12474   5.265   1.315   1.947  0.5068  0.3646  0.1343
  853MOL0     C12475   5.140   1.358   1.861  0.4747 -0.2077 -0.1257
  853MOL0     C12476   5.117   1.509   1.847  0.3836 -0.2681  0.1460
  853MOL0     C12477   4.985   1.535   1.767 -0.3468  0.2014  0.7512
  853MOL0     C12478   4.941   1.675   1.783  0.6500  0.2628 -1.1867
  853MOL0     C12479   4.819   1.708   1.697  0.7034  0.1740 -0.1417
  853MOL0     C12480   4.842   1.674   1.545  0.1210  0.4265 -0.7601
  853MOL0     N12481   4.725   1.708   1.462 -0.0872 -0.0672  0.0165
  853MOL0     C12482   4.611   1.627   1.452  0.0444 -0.9077  0.2848
  853MOL0     C12483   4.543   1.688   1.354  0.1018  0.4274  0.2592
  853MOL0     C12484   4.403   1.658   1.294  0.8564  0.1682 -0.5869
  853MOL0     C12485   4.314   1.557   1.376  0.0931  0.1795 -0.2556
  853MOL0     C12486   4.183   1.504   1.309 -0.0875 -0.6423  0.4165
  853MOL0     C12487   4.110   1.419   1.403  0.8531 -0.1623  0.4810
  853MOL0     O12488   4.074   1.474   1.533 -0.0694 -0.5385  0.8312
  853MOL0     C12489   3.969   1.420   1.602 -0.1277 -0.5539  0.1740
  853MOL0     C12490   3.871   1.327   1.562  0.3787  0.1839 -0.2467
  853MOL0     C12491   3.762   1.286   1.643  0.0776  0.3911 -0.8283
  853MOL0     C12492   3.730   1.359   1.758 -0.0311 -1.0744  0.5481
  853MOL0     C12493   3.615   1.336   1.841 -0.1661  0.0077  0.4992
  853MOL0     O12494   3.572   1.211   1.841  0.0247  0.2471  0.0710
  853MOL0     C12495   3.457   1.165   1.900 -0.3868  0.2190  1.4833
  853MOL0     C12496   3.419   1.199   2.031 -0.7188  0.1937  0.5903
  853MOL0     C12497   3.316   1.133   2.100  1.7809 -0.0786 -0.9381
  853MOL0     C12498   3.258   1.022   2.042 -0.0303  0.1617 -0.3418
  853MOL0     O12499   3.149   0.957   2.097  0.7316  0.0353 -0.4045
  853MOL0     C12500   3.173   0.826   2.142 -0.3272 -0.3751  0.9423
  853MOL0     C12501   3.101   0.721   2.049 -0.4657  0.2083  0.0181
  853MOL0     C12502   2.957   0.742   2.061  0.6236 -0.1827  0.0494
  853MOL0     C12503   2.880   0.638   1.971 -0.4712 -1.0075 -0.8372
  853MOL0     C12504   2.740   0.682   1.957 -0.1538  0.7908  0.5504
  853MOL0     C12505   2.724   0.765   1.828  0.3877  0.5267  0.3932
  853MOL0     C12506   2.574   0.809   1.837 -0.3100 -0.6693  0.0203
  853MOL0     C12507   2.534   0.865   1.702 -0.3152  0.0359  0.1180
  853MOL0    Cl12508   2.348   0.910   1.685 -0.1056 -0.0006  0.2416
  853MOL0     C12509   3.311   0.980   1.922 -0.5087  0.3233  0.5698
  853MOL0     C12510   3.396   1.052   1.846  0.3693 -0.4382 -0.4159
  853MOL0     O12511   3.575   1.435   1.907 -0.4146  0.3712 -0.1821
  853MOL0     C12512   3.823   1.453   1.801  1.0852 -0.3071  0.5815
  853MOL0     C12513   3.935   1.485   1.723 -0.5635 -0.3732 -0.2953
  853MOL0     N12514   4.611   1.803   1.311  0.4014  0.2348 -0.6033
  853MOL0     N12515   4.722   1.816   1.378 -0.2323 -0.1000 -0.1173
  853MOL0     C12516   5.571   1.297   1.571 -0.6525  0.6661 -0.3403
  853MOL0     C12517   5.697   1.322   1.527 -0.0824 -0.3038  0.5019
  853MOL0     C12518   6.061   1.492   1.338  0.2984 -0.3697  0.4616
  853MOL0     C12519   6.144   1.537   1.435 -0.9678  0.3183 -0.6827
  853MOL0     C12520   6.286   1.537   1.418 -0.5213 -0.0561  0.3180
  853MOL0     C12521   6.333   1.525   1.286  0.8754 -0.1534 -0.3716
  853MOL0     O12522   6.458   1.559   1.259 -0.0368  0.4854  0.4658
  853MOL0     C12523   6.556   1.454   1.250 -0.0479 -1.1180 -0.9531
  853MOL0     C12524   6.643   1.456   1.374 -0.0323 -0.1571 -0.2505
  853MOL0     C12525   6.723   1.589   1.392  0.2476  0.2247 -0.3707
  853MOL0     C12526   6.810   1.590   1.520 -1.1686 -0.3801  1.0140
  853MOL0     C12527   6.944   1.563   1.474  0.0586 -0.0512  0.5000
  853MOL0     C12528   7.059   1.533   1.437 -0.0483 -0.6346  0.6815
  853MOL0     C12529   6.249   1.477   1.183  0.9193 -0.1429  1.0782
  853MOL0     C12530   6.109   1.457   1.209  0.3353 -0.1543  0.2090
  853MOL0     H12531   5.757   1.623   1.687  2.2744 -0.0680 -2.5500
  853MOL0     H12532   5.565   1.539   1.821  2.6339 -0.2099  0.6496
  853MOL0     H12533   5.365   1.478   1.896 -1.0876 -0.5780  2.0784
  853MOL0     H12534   5.479   1.352   1.948  0.2887  3.7667  2.5133
  853MOL0     H12535   5.250   1.335   2.053  1.2193 -0.7894  0.4724
  853MOL0     H12536   5.268   1.206   1.954 -1.1486  0.2936  0.1531
  853MOL0     H12537   5.057   1.294   1.893  0.3752  0.4003  0.8680
  853MOL0     H12538   5.165   1.318   1.762 -0.6217 -1.0950 -0.0693
  853MOL0     H12539   5.115   1.539   1.952  2.2879 -3.1684  1.1594
  853MOL0     H12540   5.199   1.560   1.796 -1.3513  0.6840 -1.8396
  853MOL0     H12541   4.899   1.478   1.802 -1.5599  1.6570  0.2245
  853MOL0     H12542   5.014   1.494   1.670  0.6783  1.5776  0.4360
  853MOL0     H12543   5.017   1.747   1.751  1.7299  0.8453  2.3297
  853MOL0     H12544   4.919   1.702   1.886 -0.7660 -0.5166 -1.2711
  853MOL0     H12545   4.731   1.656   1.736  1.9736 -0.7383  1.6552
  853MOL0     H12546   4.791   1.813   1.707  0.8906  0.1539  0.6460
  853MOL0     H12547   4.849   1.565   1.541  2.1934  0.2935  2.5489
  853MOL0     H12548   4.937   1.711   1.506  0.7909  0.8138  1.1174
  853MOL0     H12549   4.579   1.537   1.503  3.6051  0.5079  5.8533
  853MOL0     H12550   4.412   1.617   1.193 -1.5042  0.4506 -0.9565
  853MOL0     H12551   4.354   1.755   1.285  0.7439 -0.0073 -2.2438
  853MOL0     H12552   4.281   1.601   1.470  1.0465 -3.1431  1.8267
  853MOL0     H12553   4.369   1.465   1.401  0.6886  0.3627 -0.8458
  853MOL0     H12554   4.125   1.588   1.268 -1.9982 -1.2886  1.6621
  853MOL0     H12555   4.229   1.446   1.228  1.2927 -1.6230  1.8685
  853MOL0     H12556   4.172   1.330   1.416  2.6577  1.0092  0.2018
  853MOL0     H12557   4.024   1.387   1.343 -1.9504  2.9215  2.5213
  853MOL0     H12558   3.871   1.287   1.461  0.5311 -1.7869  0.4969
  853MOL0     H12559   3.705   1.206   1.597  3.3952 -1.2301 -2.4781
  853MOL0     H12560   3.475   1.279   2.078  0.3879  0.0301 -0.4139
  853MOL0     H12561   3.273   1.166   2.194 -0.5145 -0.3669 -1.8171
  853MOL0     H12562   3.132   0.807   2.241  1.2423 -2.0698  1.3295
  853MOL0     H12563   3.282   0.814   2.148 -0.5080 -1.8745  1.8303
  853MOL0     H12564   3.119   0.617   2.075 -2.4430  0.2691  1.8821
  853MOL0     H12565   3.141   0.745   1.950  1.1903  2.5673  1.1585
  853MOL0     H12566   2.937   0.842   2.020  2.7518 -0.2258 -1.2080
  853MOL0     H12567   2.925   0.729   2.165 -0.9179  1.0096 -0.2376
  853MOL0     H12568   2.938   0.640   1.878  0.9487 -0.7193  0.0238
  853MOL0     H12569   2.908   0.541   2.013  3.5232  1.2800  2.6473
  853MOL0     H12570   2.707   0.738   2.045  4.1665  1.8123  1.7572
  853MOL0     H12571   2.686   0.589   1.939  0.1490  0.4262  1.4932
  853MOL0     H12572   2.742   0.693   1.748  4.2417  0.8335  0.7794
  853MOL0     H12573   2.790   0.852   1.815  2.1090 -0.9717 -1.3317
  853MOL0     H12574   2.510   0.722   1.857 -0.6475 -1.3337 -3.4374
  853MOL0     H12575   2.578   0.884   1.916  0.8537 -3.2665  2.6551
  853MOL0     H12576   2.558   0.794   1.622  2.2365  1.9045 -0.9145
  853MOL0     H12577   2.597   0.952   1.680  0.4484 -0.6053 -0.2834
  853MOL0     H12578   3.266   0.890   1.881  0.6367  0.9183 -2.2129
  853MOL0     H12579   3.411   1.023   1.743  0.7560 -0.8176 -0.2540
  853MOL0     H12580   3.799   1.506   1.893 -0.7169  1.4180 -0.7918
  853MOL0     H12581   3.997   1.557   1.774 -0.4056 -0.7291  0.0247
  853MOL0     H12582   5.520   1.214   1.521  0.6352  0.4467 -1.3347
  853MOL0     H12583   5.754   1.267   1.452  3.1499 -0.3253  2.7415
  853MOL0     H12584   6.101   1.536   1.535 -0.0211 -3.2624 -0.1536
  853MOL0     H12585   6.352   1.558   1.502  2.3292  0.8795 -1.9703
  853MOL0     H12586   6.610   1.483   1.159  2.3183  3.6362  1.5798
  853MOL0     H12587   6.510   1.356   1.236 -2.3730  0.0893 -2.4478
  853MOL0     H12588   6.581   1.441   1.463  2.1112 -1.6915  1.0616
  853MOL0     H12589   6.716   1.377   1.357  3.2377  2.9640 -2.2484
  853MOL0     H12590   6.650   1.669   1.410 -1.5379 -1.5178  0.5713
  853MOL0     H12591   6.775   1.613   1.298 -0.1649  1.6175 -0.2668
  853MOL0     H12592   6.817   1.681   1.579  0.7668  0.3555 -0.2479
  853MOL0     H12593   6.778   1.512   1.590  0.7750 -2.1209  0.0865
  853MOL0     H12594   7.157   1.516   1.398  0.1209 -2.1874  1.6691
  853MOL0     H12595   6.272   1.463   1.078 -3.6458  1.3457 -0.3701
  853MOL0     H12596   6.045   1.432   1.125  1.4504  1.7944 -1.2933
  854MOL0     O12597   7.055   1.211  10.399 -0.2230  0.6903  0.7409
  854MOL0     C12598   7.050   1.108  10.465 -0.0417  0.9477 -0.2605
  854MOL0     O12599   6.940   1.064  10.520 -0.4890  0.1201  0.0575
  854MOL0     C12600   6.814   1.120  10.514  0.1639 -0.0641  0.4195
  854MOL0     C12601   6.711   1.030  10.555  0.7598  0.0024 -0.1440
  854MOL0     C12602   6.585   1.080  10.579  1.0479 -0.1269 -0.8476
  854MOL0     C12603   6.556   1.215  10.547  0.0517  1.1379 -0.3043
  854MOL0     O12604   6.436   1.264  10.586  0.8164  0.1223  0.1777
  854MOL0     C12605   6.320   1.214  10.521 -0.5509  0.3164  0.1921
  854MOL0     C12606   6.271   1.328  10.433 -0.9514  0.0985  0.2338
  854MOL0     C12607   6.127   1.318  10.380 -0.0437 -0.8835  0.3641
  854MOL0     C12608   6.071   1.447  10.311  0.7166  0.7520  0.3086
  854MOL0     C12609   5.918   1.425  10.295 -0.5179 -0.5141  0.5932
  854MOL0     C12610   5.853   1.490  10.418 -0.5226  0.0456  0.0230
  854MOL0     C12611   5.704   1.449  10.418  0.3244  0.0572  0.3588
  854MOL0     C12612   5.628   1.530  10.313 -0.5470  0.6363  0.2474
  854MOL0     N12613   5.487   1.523  10.344  0.2865 -0.7767  0.0083
  854MOL0     C12614   5.418   1.431  10.418  0.2369  0.4787 -0.6435
  854MOL0     C12615   5.284   1.463  10.403 -0.3411  0.1752 -0.2099
  854MOL0     C12616   5.172   1.389  10.477  0.0815 -0.4101  0.1642
  854MOL0     C12617   5.032   1.464  10.469 -0.5734  0.5896 -0.3179
  854MOL0     C12618   4.929   1.381  10.549  0.6025  0.3416 -0.1570
  854MOL0     C12619   4.788   1.440  10.521 -0.4387  0.1614 -0.1793
  854MOL0     O12620   4.761   1.577  10.563  0.0053  0.1155 -0.2041
  854MOL0     C12621   4.627   1.607  10.561 -0.0829  0.2733 -0.8020
  854MOL0     C12622   4.586   1.729  10.609  0.0000 -0.2056 -0.3153
  854MOL0     C12623   4.451   1.771  10.609 -0.0060 -1.0940  0.0912
  854MOL0     C12624   4.350   1.693  10.555  0.0256 -0.4741  0.1093
  854MOL0     C12625   4.213   1.727  10.565  0.5082  0.0721 -0.9709
  854MOL0     O12626   4.140   1.615  10.597  0.4221 -0.4071  0.4266
  854MOL0     C12627   4.020   1.646  10.658  0.4505 -0.0133 -0.4734
  854MOL0     C12628   4.003   1.610  10.797 -0.7067 -0.4871 -0.2767
  854MOL0     C12629   3.879   1.615  10.865 -0.0007  0.0514  1.0049
  854MOL0     C12630   3.764   1.673  10.794  0.3950 -0.8423 -0.2963
  854MOL0     O12631   3.650   1.691  10.860 -0.1455 -0.2886 -0.2102
  854MOL0     C12632   3.528   1.728  10.791  0.3061  0.4601 -0.7128
  854MOL0     C12633   3.437   1.766  10.917  0.0341  0.4142  0.3610
  854MOL0     C12634   3.302   1.824  10.882  0.3320 -0.9047 -0.2704
  854MOL0     C12635   3.209   1.708  10.832  0.1608  0.8841 -0.8518
  854MOL0     C12636   3.063   1.758  10.813  0.2039  0.4254 -0.4794
  854MOL0     C12637   2.975   1.675  10.726  0.1452  0.6472  0.2129
  854MOL0     C12638   2.835   1.734  10.698  0.3037  0.1974 -0.2300
  854MOL0     C12639   2.757   1.785  10.822  0.0601 -0.0562 -0.2493
  854MOL0    Cl12640   2.705   1.654  10.925 -0.0949 -0.0305 -0.2413
  854MOL0     C12641   3.786   1.705  10.660 -0.3218 -0.1205  0.5932
  854MOL0     C12642   3.909   1.691  10.592  0.6823 -0.0573 -0.0455
  854MOL0     O12643   4.180   1.846  10.571  0.9143 -0.5021 -0.3505
  854MOL0     C12644   4.391   1.568  10.508  0.3064  1.5510 -0.1869
  854MOL0     C12645   4.528   1.527  10.502  0.6952  0.0391 -0.5967
  854MOL0     N12646   5.283   1.572  10.309 -0.4235  0.0910  0.5842
  854MOL0     N12647   5.404   1.611  10.285  0.5637 -0.1022 -0.1412
  854MOL0     C12648   6.655   1.309  10.505  0.1170  0.1023  1.3877
  854MOL0     C12649   6.781   1.257  10.482 -0.3992  0.0785  0.8936
  854MOL0     C12650   7.174   1.037  10.489  0.1760 -0.2404 -0.3765
  854MOL0     C12651   7.283   1.063  10.410 -0.6460 -0.6606  0.2132
  854MOL0     C12652   7.396   0.993  10.429 -0.0415  0.4579  0.0433
  854MOL0     C12653   7.402   0.895  10.533 -2.1815  0.1773 -0.1099
  854MOL0     O12654   7.522   0.829  10.548  0.0870 -0.7356  0.4958
  854MOL0     C12655   7.580   0.793  10.675  0.1914 -0.0633  0.2902
  854MOL0     C12656   7.730   0.763  10.683  0.1527  0.3833 -0.0397
  854MOL0     C12657   7.769   0.627  10.615  0.6272  0.7042 -0.0483
  854MOL0     C12658   7.794   0.622  10.467 -0.5347 -0.0546  1.3292
  854MOL0     C12659   7.696   0.540  10.392 -0.4295  0.3233 -0.7406
  854MOL0     C12660   7.609   0.485  10.324 -1.4690  0.6143 -0.1951
  854MOL0     C12661   7.291   0.864  10.613 -0.3084 -0.2113  0.3945
  854MOL0     C12662   7.179   0.937  10.586 -0.2881  0.6785  0.0328
  854MOL0     H12663   6.728   0.923  10.562 -1.1568 -0.4661 -1.7045
  854MOL0     H12664   6.502   1.023  10.621  0.2155  0.0662 -2.1627
  854MOL0     H12665   6.252   1.211  10.606 -1.4013  2.5471 -0.3256
  854MOL0     H12666   6.318   1.122  10.461 -2.9569  0.3849  0.0653
  854MOL0     H12667   6.330   1.329  10.341 -1.5258 -2.6942 -0.2631
  854MOL0     H12668   6.284   1.420  10.491 -1.3817  0.9651 -0.9911
  854MOL0     H12669   6.060   1.302  10.465  0.5052  3.5409  1.8796
  854MOL0     H12670   6.138   1.240  10.304  2.1461  0.2379 -0.5749
  854MOL0     H12671   6.099   1.533  10.374  0.7337  1.4288 -0.6024
  854MOL0     H12672   6.115   1.475  10.215  0.6182  2.1531  0.6513
  854MOL0     H12673   5.902   1.318  10.277 -3.4822 -0.2661  1.2382
  854MOL0     H12674   5.882   1.487  10.213 -0.0027  0.4601  1.0941
  854MOL0     H12675   5.877   1.597  10.426  0.2810 -0.1963  1.1716
  854MOL0     H12676   5.893   1.439  10.507 -1.2397 -3.0176 -1.3018
  854MOL0     H12677   5.690   1.344  10.394  1.1032  0.4364 -1.9625
  854MOL0     H12678   5.656   1.473  10.514 -0.7888 -0.6250 -0.0062
  854MOL0     H12679   5.649   1.480  10.218 -2.4227 -1.0198  0.6334
  854MOL0     H12680   5.664   1.633  10.314  3.2894 -0.5507  1.8760
  854MOL0     H12681   5.457   1.345  10.471  1.0178  0.5293 -1.1045
  854MOL0     H12682   5.201   1.368  10.580  2.1953  1.4762  0.0353
  854MOL0     H12683   5.156   1.300  10.416 -1.2237  0.8009 -1.3486
  854MOL0     H12684   5.005   1.474  10.363 -4.3547  1.4091  0.5581
  854MOL0     H12685   5.051   1.562  10.514  0.8922  0.5823 -0.8952
  854MOL0     H12686   4.925   1.277  10.514 -2.6795  0.4989 -0.6215
  854MOL0     H12687   4.960   1.368  10.653  1.0529  0.1960 -0.3087
  854MOL0     H12688   4.720   1.368  10.567 -0.7156  1.3027  1.2718
  854MOL0     H12689   4.764   1.435  10.414 -2.7060  0.9499  0.2357
  854MOL0     H12690   4.661   1.804  10.633  0.2523 -0.4122 -0.4568
  854MOL0     H12691   4.435   1.872  10.645  0.8027 -0.8208 -0.2885
  854MOL0     H12692   4.092   1.577  10.850 -2.4953 -0.4942  2.9976
  854MOL0     H12693   3.867   1.587  10.969  2.0585  3.9850  2.4839
  854MOL0     H12694   3.489   1.653  10.722  1.1940 -0.6773 -0.0178
  854MOL0     H12695   3.549   1.817  10.730 -0.8977  1.3856  0.1726
  854MOL0     H12696   3.493   1.833  10.982  0.2731 -1.1935  1.9039
  854MOL0     H12697   3.425   1.680  10.984  0.8356 -1.1465 -1.3967
  854MOL0     H12698   3.317   1.909  10.815 -2.3295 -1.8519 -2.2385
  854MOL0     H12699   3.257   1.863  10.974 -1.8832  1.0369 -2.0386
  854MOL0     H12700   3.238   1.677  10.731  0.1693  1.6696 -1.0944
  854MOL0     H12701   3.211   1.622  10.900 -1.1207  2.9932  2.0573
  854MOL0     H12702   3.083   1.854  10.765  0.0245  0.1292 -1.1542
  854MOL0     H12703   3.018   1.765  10.913 -0.1658  0.5890 -0.6575
  854MOL0     H12704   2.970   1.579  10.778  1.8781 -0.4055 -1.4507
  854MOL0     H12705   3.025   1.656  10.631  0.2273  2.1371 -0.0559
  854MOL0     H12706   2.846   1.826  10.639 -0.0999 -0.7383 -1.8254
  854MOL0     H12707   2.766   1.663  10.651 -0.7293  0.0519  1.4189
  854MOL0     H12708   2.682   1.843  10.767 -0.6827 -0.9618 -0.2184
  854MOL0     H12709   2.814   1.859  10.878  0.8933  0.1577 -1.3249
  854MOL0     H12710   3.711   1.759  10.604  1.3879  0.9201 -0.7973
  854MOL0     H12711   3.931   1.723  10.491  1.7892  1.2420  0.5805
  854MOL0     H12712   4.323   1.491  10.472  0.2532  1.4571  0.1084
  854MOL0     H12713   4.530   1.428  10.458 -3.4902  0.1062 -1.3607
  854MOL0     H12714   6.629   1.414  10.495 -1.6003 -0.3789  0.3192
  854MOL0     H12715   6.868   1.315  10.453  0.5346 -1.6226  0.1529
  854MOL0     H12716   7.269   1.135  10.330 -3.5041 -0.1381  1.0809
  854MOL0     H12717   7.484   1.025  10.375 -1.5351  0.7789 -2.3744
  854MOL0     H12718   7.528   0.708  10.720 -1.1150 -0.6444 -2.1519
  854MOL0     H12719   7.570   0.877  10.744  1.7620  0.2372  0.1860
  854MOL0     H12720   7.783   0.843  10.630  0.4525 -0.2894 -0.7764
  854MOL0     H12721   7.758   0.786  10.786 -0.6408 -1.4313  0.6078
  854MOL0     H12722   7.693   0.550  10.635  1.7352 -0.7285 -1.2029
  854MOL0     H12723   7.862   0.598  10.665 -0.9664 -3.1567  1.0224
  854MOL0     H12724   7.812   0.721  10.424  1.1801 -0.7616  0.3491
  854MOL0     H12725   7.893   0.580  10.450 -0.1342  1.7272 -1.3657
  854MOL0     H12726   7.549   0.419  10.264  0.9771 -4.2139  2.1061
  854MOL0     H12727   7.297   0.785  10.687 -2.2867  0.3994  1.2670
  854MOL0     H12728   7.098   0.922  10.657  0.2893 -2.3792  0.1501
  855MOL0     O12729   5.322   8.742   5.657 -0.0785  0.6376 -0.8127
  855MOL0     C12730   5.383   8.846   5.646  0.2040  0.0009 -0.5757
  855MOL0     O12731   5.329   8.969   5.658  0.8675 -0.9646  0.1092
  855MOL0     C12732   5.196   8.981   5.692  1.2739  0.3135  0.6496
  855MOL0     C12733   5.122   9.080   5.621 -0.3284  0.2245 -0.7081
  855MOL0     C12734   4.984   9.093   5.639  0.5998  0.2107 -0.0940
  855MOL0     C12735   4.921   9.004   5.728  1.1200  0.4766 -0.2650
  855MOL0     O12736   4.784   8.985   5.730  0.3452 -0.8026  1.1597
  855MOL0     C12737   4.732   8.951   5.600 -0.2506  0.4225  0.1108
  855MOL0     C12738   4.597   9.028   5.594  0.4317 -0.7140  0.2631
  855MOL0     C12739   4.484   8.962   5.514 -0.4082 -0.3069  0.1205
  855MOL0     C12740   4.528   8.926   5.371 -0.2731  0.2774  0.6278
  855MOL0     C12741   4.422   8.842   5.291  0.7588 -0.1813  0.7877
  855MOL0     C12742   4.284   8.914   5.274  0.0381  0.2659 -0.4162
  855MOL0     C12743   4.303   9.041   5.193 -0.0035 -0.5716 -0.1303
  855MOL0     C12744   4.344   9.009   5.057 -1.0493 -0.5997 -0.2313
  855MOL0     N12745   4.310   9.124   4.964 -0.2204  0.2121 -0.6940
  855MOL0     C12746   4.260   9.245   5.002  0.1311 -0.0685  0.0163
  855MOL0     C12747   4.247   9.308   4.882 -0.6093  0.1174 -0.6539
  855MOL0     C12748   4.174   9.432   4.868  0.4860  0.2753 -0.2749
  855MOL0     C12749   4.225   9.549   4.950 -0.0736 -0.2925 -0.5712
  855MOL0     C12750   4.273   9.676   4.885 -0.0058  0.1731  0.0838
  855MOL0     C12751   4.308   9.790   4.979  0.5712  0.1219 -0.6481
  855MOL0     O12752   4.362   9.903   4.918 -0.7644  0.9838  0.3885
  855MOL0     C12753   4.492   9.896   4.875 -0.1721 -0.6210 -1.2383
  855MOL0     C12754   4.592   9.794   4.894  0.5300  0.4798  0.7622
  855MOL0     C12755   4.714   9.808   4.836 -0.0970  0.7200  0.8459
  855MOL0     C12756   4.759   9.918   4.761  0.1396 -0.0232  0.2661
  855MOL0     C12757   4.886   9.924   4.688  0.9757  0.0319 -0.1492
  855MOL0     O12758   4.977   9.827   4.715 -0.2469 -0.6430  0.1449
  855MOL0     C12759   5.092   9.828   4.643 -0.1362 -0.4684  0.1845
  855MOL0     C12760   5.119   9.714   4.565  0.3068  0.3031  0.5583
  855MOL0     C12761   5.244   9.701   4.498  0.8313  0.0916 -0.3445
  855MOL0     C12762   5.339   9.801   4.495 -0.4557  0.0057 -0.1095
  855MOL0     O12763   5.460   9.789   4.435  1.1930 -0.4462  0.2928
  855MOL0     C12764   5.487   9.697   4.328  0.3009 -0.2177  0.2821
  855MOL0     C12765   5.547   9.566   4.375  0.2968 -0.3362  0.3690
  855MOL0     C12766   5.654   9.583   4.491 -0.5957  0.1947 -0.7890
  855MOL0     C12767   5.727   9.454   4.501 -0.3222  0.0518 -0.1685
  855MOL0     C12768   5.853   9.482   4.594 -0.3768  0.3226 -0.1067
  855MOL0     C12769   5.806   9.442   4.742  0.0510  0.2010 -0.4094
  855MOL0     C12770   5.919   9.470   4.845 -0.0833 -0.2326  0.2637
  855MOL0     C12771   5.861   9.433   4.977 -0.1166  0.0146 -0.7762
  855MOL0    Cl12772   5.986   9.449   5.096 -0.6359  0.2546 -0.5898
  855MOL0     C12773   5.311   9.911   4.581  0.0774 -0.4439  0.0364
  855MOL0     C12774   5.187   9.932   4.646 -0.3805  0.3005 -0.6917
  855MOL0     O12775   4.905  10.004   4.596  0.1797  0.4414 -0.2355
  855MOL0     C12776   4.670  10.019   4.757  0.1076  0.3296  0.2442
  855MOL0     C12777   4.533  10.008   4.805 -0.1885  0.3654  0.4081
  855MOL0     N12778   4.307   9.232   4.783  0.3411 -0.0655 -0.7637
  855MOL0     N12779   4.340   9.114   4.835 -0.2868  0.5879  0.4512
  855MOL0     C12780   4.991   8.897   5.793  0.1706  0.0612  0.2489
  855MOL0     C12781   5.128   8.896   5.784  0.1107 -0.3274  0.3440
  855MOL0     C12782   5.520   8.837   5.603 -0.0226  0.9016 -0.1635
  855MOL0     C12783   5.612   8.928   5.649  0.0884  0.5854  0.8642
  855MOL0     C12784   5.742   8.925   5.612  0.2749  0.6711  0.7333
  855MOL0     C12785   5.793   8.804   5.549 -0.0486 -0.3236 -0.6810
  855MOL0     O12786   5.931   8.803   5.526 -0.4467  0.5872  0.0036
  855MOL0     C12787   6.006   8.678   5.503 -0.7710 -0.1980 -0.1127
  855MOL0     C12788   6.131   8.677   5.586 -0.0334 -0.0619  0.2470
  855MOL0     C12789   6.223   8.799   5.555 -0.4621 -0.2393  0.2854
  855MOL0     C12790   6.351   8.799   5.647  0.9146 -0.0487  0.0482
  855MOL0     C12791   6.428   8.675   5.646 -0.7244 -0.8200  0.3753
  855MOL0     C12792   6.478   8.568   5.615  0.6654  0.7651 -0.2408
  855MOL0     C12793   5.707   8.704   5.502 -0.4695  0.4144 -0.3382
  855MOL0     C12794   5.575   8.725   5.528  0.1291  0.8423 -0.8045
  855MOL0     H12795   5.179   9.149   5.560  2.9958  0.1333  1.9734
  855MOL0     H12796   4.927   9.170   5.590  1.3892  0.8952  0.0366
  855MOL0     H12797   4.716   8.843   5.594  2.9400 -0.0806 -1.5406
  855MOL0     H12798   4.804   8.981   5.524 -3.8284  4.7818 -2.0488
  855MOL0     H12799   4.626   9.114   5.534 -0.1466 -3.1599 -3.8543
  855MOL0     H12800   4.557   9.062   5.690  0.5549  2.2692 -0.6303
  855MOL0     H12801   4.401   9.033   5.513  0.9898  1.5297  2.7216
  855MOL0     H12802   4.461   8.865   5.559  1.4903 -1.6679 -1.6371
  855MOL0     H12803   4.550   9.011   5.305 -0.2872 -1.1325 -1.2839
  855MOL0     H12804   4.612   8.860   5.392 -2.8315 -3.2746  0.6459
  855MOL0     H12805   4.405   8.746   5.341  1.2733 -0.6595  0.0584
  855MOL0     H12806   4.459   8.821   5.190 -1.3527 -0.9620  0.1289
  855MOL0     H12807   4.238   8.943   5.369 -3.2021  1.1111 -2.0896
  855MOL0     H12808   4.196   8.863   5.233 -0.4933 -0.0088  1.0092
  855MOL0     H12809   4.206   9.091   5.181 -1.3483 -2.7990  0.8882
  855MOL0     H12810   4.378   9.113   5.226 -1.1231 -0.0039  1.2938
  855MOL0     H12811   4.302   8.913   5.026 -2.5974  0.1708 -0.6144
  855MOL0     H12812   4.453   8.996   5.061 -1.0381 -0.2347  1.0941
  855MOL0     H12813   4.212   9.273   5.095 -0.4501 -0.5525 -0.1271
  855MOL0     H12814   4.073   9.413   4.905  0.5879  0.7205  0.2376
  855MOL0     H12815   4.172   9.457   4.761  2.1374  0.3191 -0.3225
  855MOL0     H12816   4.302   9.503   5.013  1.1393  1.0490 -1.0315
  855MOL0     H12817   4.155   9.566   5.032 -0.9348  0.0346 -1.3492
  855MOL0     H12818   4.362   9.658   4.825  0.6149  2.6415  0.1921
  855MOL0     H12819   4.197   9.705   4.812 -2.0885  2.5630  2.9139
  855MOL0     H12820   4.381   9.748   5.049  0.7510 -2.5863 -2.3080
  855MOL0     H12821   4.213   9.820   5.025  1.7430  0.5009  1.6835
  855MOL0     H12822   4.564   9.702   4.944  0.9483  0.8198  1.6418
  855MOL0     H12823   4.780   9.721   4.840 -0.4345  0.3265 -1.1798
  855MOL0     H12824   5.052   9.629   4.561  3.8921 -2.8453  1.8993
  855MOL0     H12825   5.253   9.607   4.445  2.2466  1.4138 -2.6030
  855MOL0     H12826   5.556   9.752   4.263  0.1160  0.0290  0.2949
  855MOL0     H12827   5.396   9.690   4.268  0.9268  4.5385 -1.6903
  855MOL0     H12828   5.592   9.521   4.286 -3.6249  0.0219 -2.0306
  855MOL0     H12829   5.468   9.500   4.412  1.1606 -0.5010  2.0288
  855MOL0     H12830   5.606   9.614   4.584 -1.6225 -2.3821 -0.3880
  855MOL0     H12831   5.725   9.662   4.467 -1.1782  0.9129 -0.2050
  855MOL0     H12832   5.652   9.390   4.549 -0.0806  0.7973  1.2896
  855MOL0     H12833   5.747   9.408   4.404 -3.4238 -2.0328  0.0654
  855MOL0     H12834   5.884   9.587   4.587  1.0002  0.1026  2.0312
  855MOL0     H12835   5.935   9.420   4.557 -1.0089 -1.4188  1.2756
  855MOL0     H12836   5.783   9.337   4.761  1.8629  0.1421  1.9069
  855MOL0     H12837   5.725   9.512   4.763 -1.3784 -1.0774 -1.4765
  855MOL0     H12838   6.004   9.408   4.816 -0.5565 -0.0722 -1.6041
  855MOL0     H12839   5.951   9.575   4.851  1.6728 -0.6277 -1.3041
  855MOL0     H12840   5.830   9.329   4.987 -0.7616  0.3139  0.5309
  855MOL0     H12841   5.778   9.504   4.985  3.0060  4.0391 -0.4683
  855MOL0     H12842   5.386   9.988   4.595  0.2176 -0.7326  0.9361
  855MOL0     H12843   5.185  10.027   4.699  1.8730  1.6484 -2.8133
  855MOL0     H12844   4.691  10.104   4.693 -1.6339 -0.4128 -1.4384
  855MOL0     H12845   4.464  10.092   4.800  1.9208  2.1735  0.4885
  855MOL0     H12846   4.956   8.824   5.866  0.2977  1.5605  1.8940
  855MOL0     H12847   5.188   8.828   5.844  3.9111  2.6654  0.3192
  855MOL0     H12848   5.577   9.013   5.707 -0.4329 -0.0762  1.5427
  855MOL0     H12849   5.813   9.002   5.641  0.3693 -0.0038  2.4285
  855MOL0     H12850   6.026   8.672   5.395 -2.8962  0.2650 -0.5701
  855MOL0     H12851   5.955   8.586   5.533  1.7328 -2.3640 -1.9134
  855MOL0     H12852   6.097   8.692   5.689 -1.2679  0.3618 -0.2020
  855MOL0     H12853   6.187   8.583   5.582  0.8726  0.4902 -1.3849
  855MOL0     H12854   6.164   8.890   5.573 -1.8264 -0.9245 -0.6037
  855MOL0     H12855   6.247   8.803   5.448 -0.2495  0.9757  0.3624
  855MOL0     H12856   6.402   8.888   5.610 -1.2208  0.0128 -3.1143
  855MOL0     H12857   6.328   8.825   5.751 -0.1767  0.8950 -0.4064
  855MOL0     H12858   6.529   8.480   5.579  0.6921  0.4608  0.5326
  855MOL0     H12859   5.734   8.613   5.449 -2.2660 -1.0269  1.0588
  855MOL0     H12860   5.507   8.658   5.478  0.1552  1.3155 -1.4735
  856MOL0     O12861  10.669   9.999   3.160 -0.0260  0.1395 -0.5251
  856MOL0     C12862  10.776  10.011   3.216 -0.2287 -0.3622  0.8213
  856MOL0     O12863  10.844   9.916   3.285 -0.3462  0.8324  0.5776
  856MOL0     C12864  10.813   9.788   3.250  0.1719  0.2328  0.8364
  856MOL0     C12865  10.701   9.715   3.296 -0.2206  1.1324  0.0350
  856MOL0     C12866  10.672   9.585   3.251  0.7410 -0.6248 -0.2713
  856MOL0     C12867  10.762   9.527   3.165  0.9063  0.5231  0.2643
  856MOL0     O12868  10.747   9.387   3.143 -0.1009  0.7225  0.4173
  856MOL0     C12869  10.623   9.361   3.077 -0.2659 -1.0042 -0.0465
  856MOL0     C12870  10.604   9.217   3.037  0.6679  0.0182  0.8320
  856MOL0     C12871  10.462   9.188   2.986  0.9023 -0.6760  0.2902
  856MOL0     C12872  10.433   9.047   2.926  0.8878 -0.0172 -0.2710
  856MOL0     C12873  10.281   9.028   2.893  0.2613  0.4258 -0.3533
  856MOL0     C12874  10.239   8.889   2.850 -0.0411  0.0693  0.5457
  856MOL0     C12875  10.103   8.899   2.783 -0.4674 -0.2356 -1.0503
  856MOL0     C12876  10.074   8.788   2.681  0.8373  0.1737  1.3859
  856MOL0     N12877   9.993   8.690   2.749 -0.1489  0.2721  0.0841
  856MOL0     C12878   9.862   8.706   2.778 -0.0741 -0.5466  0.5431
  856MOL0     C12879   9.829   8.597   2.846 -0.4781  0.9978  0.2429
  856MOL0     C12880   9.689   8.567   2.893  0.2731 -0.2711  0.8799
  856MOL0     C12881   9.667   8.417   2.917 -0.1707  0.3123  0.4526
  856MOL0     C12882   9.521   8.390   2.908  0.0281  0.5309 -0.4275
  856MOL0     C12883   9.495   8.264   2.979  1.2460  0.2683 -0.4147
  856MOL0     O12884   9.356   8.232   2.973 -0.0620  0.3361 -0.1604
  856MOL0     C12885   9.298   8.145   3.057  0.2039  0.2933 -0.5005
  856MOL0     C12886   9.372   8.052   3.134 -0.4748  0.6222  0.3728
  856MOL0     C12887   9.309   7.976   3.241 -0.4220 -0.4532  0.3043
  856MOL0     C12888   9.168   7.962   3.247  0.4941  0.8996 -0.4239
  856MOL0     C12889   9.100   7.872   3.352  0.3257 -1.0455 -0.0783
  856MOL0     O12890   8.965   7.858   3.344  0.2171  0.0359 -0.3344
  856MOL0     C12891   8.879   7.794   3.431  0.0445  0.1548 -0.2327
  856MOL0     C12892   8.927   7.695   3.525 -0.1972  0.7967  1.1788
  856MOL0     C12893   8.833   7.614   3.594 -0.3801 -1.2504  0.5369
  856MOL0     C12894   8.701   7.643   3.579 -0.0007  0.2610  0.1085
  856MOL0     O12895   8.612   7.560   3.637 -0.2774 -0.2227 -0.0618
  856MOL0     C12896   8.509   7.622   3.715  0.0484  0.0102 -0.3080
  856MOL0     C12897   8.393   7.521   3.760 -0.0912 -0.4575  0.3538
  856MOL0     C12898   8.377   7.410   3.668  0.3079 -0.1584  0.1546
  856MOL0     C12899   8.243   7.339   3.716  0.2362  0.2970  0.2188
  856MOL0     C12900   8.198   7.228   3.618  0.7851 -0.4105 -0.1200
  856MOL0     C12901   8.133   7.281   3.486 -0.1746  0.1689 -0.1751
  856MOL0     C12902   8.087   7.171   3.389 -0.0039  1.2422  0.3458
  856MOL0     C12903   8.190   7.099   3.304  0.2144  0.9855 -0.5469
  856MOL0    Cl12904   8.086   7.018   3.187 -0.1105  0.1549  0.5438
  856MOL0     C12905   8.656   7.730   3.480 -0.5091  0.5501  0.3071
  856MOL0     C12906   8.747   7.801   3.401  0.5467  1.0684 -0.6004
  856MOL0     O12907   9.166   7.829   3.446  0.3955 -0.7643  0.2570
  856MOL0     C12908   9.093   8.037   3.159  0.4942  0.0695 -0.3973
  856MOL0     C12909   9.151   8.136   3.074  0.0316 -0.3825  0.0620
  856MOL0     N12910   9.947   8.516   2.861 -0.8629  0.2788 -0.0398
  856MOL0     N12911  10.043   8.575   2.802  0.5403  0.2680 -0.0618
  856MOL0     C12912  10.870   9.589   3.102  0.0265 -0.2241  0.4061
  856MOL0     C12913  10.897   9.721   3.157 -0.0080  0.3834 -0.6228
  856MOL0     C12914  10.815  10.152   3.257 -0.3983  0.2611 -0.6128
  856MOL0     C12915  10.716  10.221   3.334 -0.3096  0.2270 -0.0316
  856MOL0     C12916  10.751  10.344   3.391  0.0771  0.0743 -0.7938
  856MOL0     C12917  10.882  10.398   3.372 -0.1677 -0.5712 -0.2846
  856MOL0     O12918  10.902  10.525   3.418  0.4474  0.5292  0.1281
  856MOL0     C12919  10.926  10.621   3.319 -0.1967 -0.3266 -0.2187
  856MOL0     C12920  10.926  10.769   3.358  0.8250 -0.5881  0.3445
  856MOL0     C12921  10.936  10.854   3.236 -0.8601 -0.2712 -0.6487
  856MOL0     C12922  10.922  11.010   3.257 -0.8734 -0.2204 -0.5599
  856MOL0     C12923  11.037  11.079   3.320  1.0324  0.1101  0.6023
  856MOL0     C12924  11.143  11.112   3.373  0.5267  0.3660  0.5056
  856MOL0     C12925  10.980  10.322   3.302  0.4388 -0.0432 -0.2842
  856MOL0     C12926  10.949  10.195   3.253 -0.9615  0.1593 -0.9156
  856MOL0     H12927  10.617   9.769   3.337 -2.7014 -0.2095 -2.9090
  856MOL0     H12928  10.582   9.539   3.290  0.2044  1.5466  1.2529
  856MOL0     H12929  10.604   9.413   2.983  0.8616 -0.3851  0.0494
  856MOL0     H12930  10.541   9.384   3.147  0.5534  2.1963  0.0422
  856MOL0     H12931  10.631   9.153   3.121  0.2009  2.6964  3.1890
  856MOL0     H12932  10.664   9.193   2.949 -0.2173 -3.3623  1.0167
  856MOL0     H12933  10.453   9.267   2.912  0.8004 -1.0981 -0.1537
  856MOL0     H12934  10.397   9.202   3.073  1.5532  0.5847  0.6077
  856MOL0     H12935  10.500   9.050   2.841  2.7184  2.0044  1.1262
  856MOL0     H12936  10.469   8.960   2.981  1.4642  1.5568  2.0279
  856MOL0     H12937  10.259   9.109   2.822 -1.6696 -1.1545 -1.6485
  856MOL0     H12938  10.216   9.054   2.977 -3.2486 -0.3373 -2.6582
  856MOL0     H12939  10.232   8.819   2.934  1.5791  0.2715  0.8880
  856MOL0     H12940  10.320   8.867   2.780  0.0115  2.9576 -0.4158
  856MOL0     H12941  10.031   8.908   2.865 -0.0391 -2.0715 -0.4195
  856MOL0     H12942  10.100   8.988   2.720  1.4839  1.7010  1.3812
  856MOL0     H12943  10.163   8.748   2.632 -0.1759 -1.1410  0.5506
  856MOL0     H12944  10.025   8.832   2.594 -0.0939 -1.3679  1.0986
  856MOL0     H12945   9.805   8.793   2.745  0.0064 -1.1432 -1.2990
  856MOL0     H12946   9.611   8.599   2.824  1.2593  2.5433  0.9616
  856MOL0     H12947   9.674   8.637   2.975  2.0721  2.4193 -0.9204
  856MOL0     H12948   9.706   8.393   3.017  0.0060  1.1697  0.6063
  856MOL0     H12949   9.718   8.354   2.844 -0.1754 -2.5499  2.7543
  856MOL0     H12950   9.476   8.474   2.960  1.2984  1.2318 -0.4080
  856MOL0     H12951   9.482   8.376   2.807  0.4656  0.0260 -0.5313
  856MOL0     H12952   9.531   8.258   3.082  1.1340  0.8864 -0.3378
  856MOL0     H12953   9.546   8.180   2.930  0.6047  1.5678 -3.5532
  856MOL0     H12954   9.479   8.041   3.121 -0.7322 -0.6741 -0.9984
  856MOL0     H12955   9.368   7.910   3.303  0.9387  0.0359 -0.4265
  856MOL0     H12956   9.032   7.677   3.543 -0.1871 -0.9197 -0.2019
  856MOL0     H12957   8.855   7.528   3.657 -0.9667 -2.2830 -0.6174
  856MOL0     H12958   8.462   7.706   3.664 -1.6044 -0.9364 -0.4067
  856MOL0     H12959   8.549   7.661   3.809  1.7298 -1.4466 -0.3699
  856MOL0     H12960   8.305   7.583   3.778  1.8746  2.7946 -0.4518
  856MOL0     H12961   8.410   7.485   3.862  0.9438  2.1802  1.1850
  856MOL0     H12962   8.460   7.339   3.661  0.2624 -0.3324  1.2115
  856MOL0     H12963   8.370   7.457   3.570  2.6164 -0.1784 -0.0570
  856MOL0     H12964   8.257   7.289   3.812  1.2003  1.5047  0.7325
  856MOL0     H12965   8.163   7.410   3.740  0.9786  0.9517  0.8280
  856MOL0     H12966   8.138   7.147   3.662  0.7455 -1.1767 -1.5470
  856MOL0     H12967   8.289   7.179   3.584  0.5707 -2.5168  2.0875
  856MOL0     H12968   8.209   7.337   3.430 -0.7607  2.3154  1.0534
  856MOL0     H12969   8.043   7.338   3.513 -1.2762 -1.2760 -0.7278
  856MOL0     H12970   8.030   7.106   3.457 -1.1177  0.5750 -1.1735
  856MOL0     H12971   8.014   7.211   3.319 -0.0699  2.0466  0.8647
  856MOL0     H12972   8.256   7.035   3.363  0.4339 -0.7310 -2.5252
  856MOL0     H12973   8.246   7.171   3.243 -0.8781  0.8250 -1.7870
  856MOL0     H12974   8.550   7.746   3.464 -0.5521  1.4588  1.4499
  856MOL0     H12975   8.724   7.864   3.316 -2.5373  1.3992  0.3456
  856MOL0     H12976   8.985   8.032   3.172  0.5898  2.6291  2.4973
  856MOL0     H12977   9.093   8.199   3.006  2.1026  2.9759  1.1357
  856MOL0     H12978  10.934   9.534   3.034  0.1485  1.4354 -0.8586
  856MOL0     H12979  10.995   9.766   3.145 -0.2670  1.8887  2.1200
  856MOL0     H12980  10.617  10.183   3.358 -0.0971  0.6179  1.5602
  856MOL0     H12981  10.683  10.413   3.439  1.8575  0.0500  1.9561
  856MOL0     H12982  10.855  10.599   3.239 -3.5010  4.2516  1.0398
  856MOL0     H12983  11.028  10.610   3.280  1.5676  0.3975  3.7310
  856MOL0     H12984  10.832  10.806   3.402 -0.2968 -0.4543 -1.9789
  856MOL0     H12985  10.999  10.789   3.436 -1.6275  0.0248  2.6616
  856MOL0     H12986  10.857  10.817   3.170  0.7256 -4.4700 -0.5330
  856MOL0     H12987  11.026  10.829   3.178  0.8372 -0.3602  1.8384
  856MOL0     H12988  10.912  11.063   3.162  0.8612  1.8332  0.3120
  856MOL0     H12989  10.833  11.029   3.318 -0.6524  0.4431 -0.4360
  856MOL0     H12990  11.232  11.134   3.429 -0.6079  0.8510  2.1811
  856MOL0     H12991  11.078  10.367   3.291  0.3408  0.8656  2.1228
  856MOL0     H12992  11.020  10.125   3.210  2.2995  2.7720 -0.1689
  857MOL0     O12993   1.932   3.092   2.509  0.3154  0.0784 -0.0453
  857MOL0     C12994   2.011   3.161   2.446  0.2055 -0.0748  0.3691
  857MOL0     O12995   1.981   3.269   2.365  0.0094  0.2062  0.2976
  857MOL0     C12996   1.855   3.322   2.360 -0.8626  0.1892 -0.1728
  857MOL0     C12997   1.801   3.368   2.243  0.3228 -0.1642  0.0021
  857MOL0     C12998   1.668   3.428   2.239  0.4224  0.7030 -0.7110
  857MOL0     C12999   1.578   3.417   2.353  0.9026 -0.3522  0.1189
  857MOL0     O13000   1.458   3.474   2.333 -0.1855 -0.8350 -0.0796
  857MOL0     C13001   1.368   3.405   2.238  0.1250 -0.3224 -0.1866
  857MOL0     C13002   1.235   3.482   2.237  0.0389  0.9190  0.3925
  857MOL0     C13003   1.245   3.630   2.206 -0.3648  0.2227  0.2696
  857MOL0     C13004   1.106   3.697   2.212 -0.2488 -0.1331  0.9402
  857MOL0     C13005   1.111   3.848   2.185 -0.2838  0.0999  0.4562
  857MOL0     C13006   1.156   3.898   2.040  0.7959 -0.2023  0.4904
  857MOL0     C13007   1.170   4.056   2.032  0.0845  0.0717  0.5986
  857MOL0     C13008   1.294   4.105   1.961  0.5548  0.3767  0.0723
  857MOL0     N13009   1.297   4.060   1.815  0.0986  0.1978  0.2694
  857MOL0     C13010   1.250   4.138   1.714  0.5172 -0.0580  0.1280
  857MOL0     C13011   1.295   4.083   1.604 -0.4326 -0.3049  1.4886
  857MOL0     C13012   1.244   4.130   1.464 -0.9476 -0.6233 -0.1198
  857MOL0     C13013   1.134   4.042   1.414 -0.5770 -0.3575 -0.0999
  857MOL0     C13014   1.006   4.058   1.480 -0.5066  0.2057 -0.3872
  857MOL0     C13015   0.892   4.027   1.385 -1.2948 -0.2125 -0.5936
  857MOL0     O13016   0.779   4.025   1.466 -0.0449 -0.6655 -0.5630
  857MOL0     C13017   0.665   3.977   1.421  0.6276  0.6376  0.0403
  857MOL0     C13018   0.567   3.935   1.513 -0.5756  0.6381  0.2974
  857MOL0     C13019   0.444   3.872   1.470  0.1840 -0.2701 -0.3769
  857MOL0     C13020   0.416   3.863   1.337 -0.7121  1.0859 -0.3539
  857MOL0     C13021   0.289   3.806   1.290 -0.8806 -0.5404 -0.4259
  857MOL0     O13022   0.192   3.769   1.379  0.2348 -0.4487 -0.3450
  857MOL0     C13023   0.090   3.689   1.335  0.2926 -0.4829  0.4015
  857MOL0     C13024   0.081   3.609   1.224  0.7537  0.1013 -0.3365
  857MOL0     C13025  -0.037   3.542   1.192  0.4420 -1.0819 -1.1001
  857MOL0     C13026  -0.151   3.576   1.271  0.4542  0.2782 -0.5797
  857MOL0     O13027  -0.270   3.523   1.241  0.1565  0.8959 -0.8267
  857MOL0     C13028  -0.347   3.616   1.162 -1.3074  0.4616 -0.4098
  857MOL0     C13029  -0.492   3.596   1.192 -0.1967  0.5542 -0.2399
  857MOL0     C13030  -0.575   3.716   1.154 -0.2065  0.1634  0.7027
  857MOL0     C13031  -0.722   3.700   1.186  0.0588 -0.6725 -0.3536
  857MOL0     C13032  -0.815   3.812   1.140 -0.8133  0.1906  0.6184
  857MOL0     C13033  -0.967   3.781   1.194  0.1945 -0.0524 -0.5758
  857MOL0     C13034  -1.068   3.895   1.151 -0.6042  0.3125  0.0272
  857MOL0     C13035  -1.210   3.857   1.191  0.1172  0.2215  0.1867
  857MOL0    Cl13036  -1.329   3.983   1.174  0.0772 -0.3726  0.5245
  857MOL0     C13037  -0.150   3.656   1.382  0.0982  0.0565 -0.6697
  857MOL0     C13038  -0.021   3.711   1.414  0.6247  0.0056  0.7732
  857MOL0     O13039   0.278   3.809   1.167 -0.3455  0.5714 -0.3680
  857MOL0     C13040   0.518   3.912   1.248  0.5193  0.3486 -0.9861
  857MOL0     C13041   0.634   3.965   1.290 -0.1863  0.4810  0.1935
  857MOL0     N13042   1.372   3.973   1.634  0.2423 -0.5618 -0.9170
  857MOL0     N13043   1.364   3.956   1.762 -0.1299  0.4230 -0.1617
  857MOL0     C13044   1.642   3.367   2.476  0.2399  0.4412 -0.4768
  857MOL0     C13045   1.779   3.335   2.481 -0.9412 -0.1427 -0.2632
  857MOL0     C13046   2.151   3.115   2.446 -0.3790 -0.3985  0.3655
  857MOL0     C13047   2.244   3.129   2.341  0.5091 -0.4265 -0.5553
  857MOL0     C13048   2.371   3.082   2.349 -0.6088 -0.7913 -0.2828
  857MOL0     C13049   2.416   3.031   2.471 -0.4118 -0.0672  0.8726
  857MOL0     O13050   2.545   2.974   2.465  0.3118 -0.2092 -0.0946
  857MOL0     C13051   2.609   2.958   2.599  0.1760  0.5831 -0.3164
  857MOL0     C13052   2.765   2.948   2.591  0.0077  0.3931  0.1032
  857MOL0     C13053   2.828   2.821   2.544 -0.4086 -0.3371 -0.6955
  857MOL0     C13054   2.829   2.821   2.393 -0.0530 -0.4054 -0.3982
  857MOL0     C13055   2.962   2.819   2.342  0.2681  0.4969  0.8239
  857MOL0     C13056   3.074   2.807   2.306 -0.9231  0.3514  0.1612
  857MOL0     C13057   2.329   3.025   2.584 -0.1110  0.5336  0.2755
  857MOL0     C13058   2.194   3.061   2.568  0.1739  0.2382  0.5550
  857MOL0     H13059   1.865   3.370   2.155  2.4056 -0.2527  1.4392
  857MOL0     H13060   1.618   3.460   2.148 -0.6343 -1.2441 -0.8746
  857MOL0     H13061   1.340   3.305   2.273 -3.1793 -0.7965 -3.5868
  857MOL0     H13062   1.416   3.383   2.143  0.4244 -1.3015  0.1709
  857MOL0     H13063   1.185   3.457   2.331  1.5797 -4.6025  0.0759
  857MOL0     H13064   1.167   3.435   2.166  3.1910 -1.8477 -1.0446
  857MOL0     H13065   1.282   3.651   2.105  1.3625  1.1158  1.0326
  857MOL0     H13066   1.313   3.682   2.274  0.9476 -2.3802  1.0655
  857MOL0     H13067   1.049   3.664   2.124  0.9409  2.9080 -1.1598
  857MOL0     H13068   1.051   3.678   2.305 -2.0145 -1.0505 -0.2170
  857MOL0     H13069   1.185   3.888   2.255  1.8618  0.3497 -1.8412
  857MOL0     H13070   1.013   3.893   2.204 -2.2331 -3.7957  0.5471
  857MOL0     H13071   1.083   3.866   1.966  1.5619 -2.0052  0.4637
  857MOL0     H13072   1.253   3.857   2.009  0.0064 -1.8995  0.2041
  857MOL0     H13073   1.085   4.094   1.976  0.3715  0.2568  0.2876
  857MOL0     H13074   1.161   4.088   2.136  2.8352  2.6685  0.1905
  857MOL0     H13075   1.385   4.080   2.017 -2.2227 -0.9605  4.5754
  857MOL0     H13076   1.292   4.214   1.971 -3.4067  0.6116 -1.4620
  857MOL0     H13077   1.186   4.225   1.723  3.5241  2.0632  3.2114
  857MOL0     H13078   1.323   4.134   1.388 -0.7911  2.0914  0.0996
  857MOL0     H13079   1.208   4.232   1.478 -2.1840 -1.1351  0.6590
  857MOL0     H13080   1.159   3.936   1.423 -1.4905 -0.5055  0.9478
  857MOL0     H13081   1.131   4.055   1.305  0.9583  1.1738 -0.0064
  857MOL0     H13082   0.987   3.982   1.556 -0.3732 -0.3485 -0.8955
  857MOL0     H13083   0.991   4.158   1.523 -1.1001  0.2165 -0.6019
  857MOL0     H13084   0.917   3.935   1.332  1.2300  1.2414 -2.1124
  857MOL0     H13085   0.882   4.102   1.305 -1.0468 -0.2122 -0.6233
  857MOL0     H13086   0.606   3.931   1.614 -0.0882  0.1571  0.0949
  857MOL0     H13087   0.381   3.833   1.550  3.5556 -0.0160  2.6582
  857MOL0     H13088   0.162   3.595   1.152  3.3004  0.5213  2.2883
  857MOL0     H13089  -0.044   3.492   1.096 -0.9052  0.6658 -1.9813
  857MOL0     H13090  -0.334   3.599   1.055 -1.7824 -3.5713  0.0028
  857MOL0     H13091  -0.319   3.716   1.194  0.2970 -0.3508  0.8890
  857MOL0     H13092  -0.514   3.577   1.297  1.1540  0.3011  0.0137
  857MOL0     H13093  -0.529   3.504   1.145 -0.3132  0.3269  0.2862
  857MOL0     H13094  -0.549   3.729   1.048  0.1259  0.6956  0.8463
  857MOL0     H13095  -0.554   3.805   1.213 -2.3950  0.6528  0.8278
  857MOL0     H13096  -0.749   3.599   1.152 -0.2342  0.0124 -2.2832
  857MOL0     H13097  -0.742   3.698   1.294 -1.5176 -0.2129 -0.6093
  857MOL0     H13098  -0.822   3.823   1.031 -2.3106  2.1905  0.8595
  857MOL0     H13099  -0.773   3.907   1.172  0.6729  0.1816 -1.1865
  857MOL0     H13100  -0.960   3.774   1.303 -2.6394 -0.9729 -0.3669
  857MOL0     H13101  -1.000   3.684   1.158 -0.3103  0.0802 -0.4812
  857MOL0     H13102  -1.036   3.997   1.175  0.8202  0.6635 -2.8062
  857MOL0     H13103  -1.061   3.898   1.041  0.0040  1.4022  0.0786
  857MOL0     H13104  -1.215   3.821   1.294 -0.0846  0.2538  0.1877
  857MOL0     H13105  -1.239   3.775   1.124  0.5220  0.9459 -0.8949
  857MOL0     H13106  -0.240   3.684   1.435 -0.8188 -0.1038 -2.0889
  857MOL0     H13107  -0.003   3.780   1.496  0.3718  0.5803  0.3536
  857MOL0     H13108   0.502   3.898   1.142  0.3182 -0.7028 -0.8229
  857MOL0     H13109   0.706   4.005   1.220  3.5741 -4.7670  0.4835
  857MOL0     H13110   1.591   3.366   2.572 -2.6067 -1.6662 -1.8534
  857MOL0     H13111   1.824   3.312   2.577 -1.1264 -1.4670 -0.4767
  857MOL0     H13112   2.220   3.180   2.249  1.5342  4.1438  1.4365
  857MOL0     H13113   2.427   3.098   2.257 -1.6535  2.0576 -0.5089
  857MOL0     H13114   2.568   2.873   2.656 -0.8381  2.4842  1.9652
  857MOL0     H13115   2.587   3.048   2.658 -0.6868 -0.1349  0.5000
  857MOL0     H13116   2.795   3.031   2.526  2.9449  0.0038  0.8109
  857MOL0     H13117   2.805   2.970   2.691  3.0814  5.3290 -1.7966
  857MOL0     H13118   2.767   2.741   2.586  1.5393 -1.1772  0.6642
  857MOL0     H13119   2.933   2.810   2.574 -0.0671 -2.2538 -2.4115
  857MOL0     H13120   2.775   2.734   2.354  0.5117 -0.7403 -0.4417
  857MOL0     H13121   2.784   2.911   2.351 -0.2915 -0.9017 -1.2252
  857MOL0     H13122   3.177   2.811   2.277 -0.8983 -1.0448 -0.0026
  857MOL0     H13123   2.366   2.988   2.680  2.9805  0.1969 -0.9087
  857MOL0     H13124   2.135   3.060   2.659  1.3080 -1.4648  1.3236
  858MOL0     O13125   0.077   2.912   6.786  0.2957  0.7287 -0.1559
  858MOL0     C13126   0.193   2.871   6.755  0.5064  0.4681 -0.0521
  858MOL0     O13127   0.222   2.762   6.673 -0.1653  0.3497  0.1881
  858MOL0     C13128   0.111   2.699   6.608 -0.8180 -0.2820  0.0270
  858MOL0     C13129   0.035   2.767   6.508  0.2742  0.6642  0.0323
  858MOL0     C13130  -0.067   2.704   6.439 -0.2604  0.6119 -0.3436
  858MOL0     C13131  -0.092   2.566   6.458 -0.3218 -0.1167  0.5477
  858MOL0     O13132  -0.194   2.489   6.404 -0.5142 -0.4712  0.1085
  858MOL0     C13133  -0.313   2.543   6.347 -0.0151 -0.1792  0.1619
  858MOL0     C13134  -0.400   2.428   6.283  0.6998 -0.5245  0.7788
  858MOL0     C13135  -0.318   2.342   6.195 -0.2967  0.0957 -0.1116
  858MOL0     C13136  -0.408   2.272   6.096  0.0635  1.1618 -0.7336
  858MOL0     C13137  -0.344   2.156   6.019 -0.3887  0.0166  0.4874
  858MOL0     C13138  -0.195   2.172   6.007 -0.3599 -0.1538 -0.2058
  858MOL0     C13139  -0.127   2.077   5.914  0.2800 -0.2624 -0.7764
  858MOL0     C13140   0.026   2.084   5.943 -0.5159 -0.1712 -0.3364
  858MOL0     N13141   0.092   1.984   6.028 -0.6440 -0.1444 -0.5760
  858MOL0     C13142   0.113   1.853   6.014  0.1910 -0.6167  1.7261
  858MOL0     C13143   0.186   1.811   6.124  0.2454 -0.7348 -0.3623
  858MOL0     C13144   0.247   1.677   6.150  0.6497 -0.1319 -0.6422
  858MOL0     C13145   0.372   1.654   6.055  0.4585  0.0187  0.9384
  858MOL0     C13146   0.452   1.527   6.084  0.4669  0.7393  0.0115
  858MOL0     C13147   0.537   1.527   6.204  0.2913  0.9395  0.2958
  858MOL0     O13148   0.678   1.508   6.166  0.0215 -0.3172 -0.3908
  858MOL0     C13149   0.754   1.425   6.248 -0.0725  0.4041 -0.6272
  858MOL0     C13150   0.756   1.422   6.386 -0.3224 -0.3057 -1.4058
  858MOL0     C13151   0.829   1.333   6.454  0.0222 -0.0279 -0.1732
  858MOL0     C13152   0.912   1.245   6.380  1.0045  0.7401  0.5679
  858MOL0     C13153   0.987   1.145   6.457 -0.0791 -0.1696 -0.2844
  858MOL0     O13154   0.953   1.117   6.585  0.7740 -0.9574  0.0452
  858MOL0     C13155   1.027   1.031   6.662 -0.6563  0.1233 -0.5244
  858MOL0     C13156   0.971   0.914   6.702 -0.5943  0.8340  0.0687
  858MOL0     C13157   1.047   0.818   6.780 -0.0494 -0.3980  0.3135
  858MOL0     C13158   1.178   0.837   6.817  0.0021 -0.7138 -0.7656
  858MOL0     O13159   1.262   0.749   6.884  0.7497 -0.3149  0.3214
  858MOL0     C13160   1.337   0.672   6.791 -0.3452  0.5245  0.1505
  858MOL0     C13161   1.474   0.616   6.849  0.3418 -0.6802  0.1973
  858MOL0     C13162   1.458   0.521   6.973 -0.2227  0.4145  0.9295
  858MOL0     C13163   1.601   0.475   7.023  0.5918 -0.0552  0.0244
  858MOL0     C13164   1.595   0.424   7.166 -0.6069 -0.2379  0.1114
  858MOL0     C13165   1.737   0.403   7.230  0.8754  0.1098  0.3727
  858MOL0     C13166   1.820   0.531   7.240  0.6457 -0.1300  0.6750
  858MOL0     C13167   1.942   0.518   7.322 -0.0264  0.8830 -0.7413
  858MOL0    Cl13168   2.059   0.396   7.254  0.2603  0.1307  0.3005
  858MOL0     C13169   1.237   0.963   6.780 -0.0234 -0.0085 -1.7628
  858MOL0     C13170   1.162   1.055   6.706  0.3762 -0.6601  0.5302
  858MOL0     O13171   1.069   1.080   6.391 -0.3887 -1.1567  1.3467
  858MOL0     C13172   0.925   1.246   6.242  0.3578 -0.8444  0.1357
  858MOL0     C13173   0.839   1.339   6.176 -0.4590  0.9056 -0.0143
  858MOL0     N13174   0.209   1.930   6.194  0.4028  0.1612 -0.3379
  858MOL0     N13175   0.144   2.027   6.147 -0.3870 -0.1905  0.1039
  858MOL0     C13176  -0.013   2.497   6.547 -0.6348  0.7412 -0.1215
  858MOL0     C13177   0.080   2.558   6.626  0.2421  0.1515  0.0058
  858MOL0     C13178   0.305   2.955   6.801  0.5244 -0.5865  0.0797
  858MOL0     C13179   0.423   2.972   6.726 -0.1145 -0.1831 -0.0365
  858MOL0     C13180   0.523   3.057   6.780  0.5824 -0.1416 -0.4810
  858MOL0     C13181   0.510   3.105   6.914 -0.1754  0.0442  0.8059
  858MOL0     O13182   0.623   3.182   6.944 -0.0863 -0.2725 -0.5541
  858MOL0     C13183   0.631   3.216   7.086  0.0016  0.5073 -0.1174
  858MOL0     C13184   0.773   3.272   7.113  0.0375  0.0642  0.2791
  858MOL0     C13185   0.814   3.375   7.000 -0.4755  0.9019  0.3455
  858MOL0     C13186   0.961   3.416   7.026  0.7527 -0.0184  0.1346
  858MOL0     C13187   0.974   3.532   7.118 -0.1362  0.2822 -0.4603
  858MOL0     C13188   0.951   3.632   7.188 -0.4348  0.9383  0.3840
  858MOL0     C13189   0.392   3.087   6.987  0.3176  0.1494  0.1274
  858MOL0     C13190   0.298   3.006   6.933  0.7074  0.2614 -0.2560
  858MOL0     H13191   0.057   2.872   6.492  2.0610  0.1165 -1.5520
  858MOL0     H13192  -0.128   2.763   6.371 -2.8641 -2.5515 -1.0011
  858MOL0     H13193  -0.276   2.602   6.262 -1.3860 -0.4128 -0.6223
  858MOL0     H13194  -0.370   2.593   6.425 -2.2353 -1.7502 -0.3522
  858MOL0     H13195  -0.481   2.474   6.225 -0.1597 -1.5292  1.1570
  858MOL0     H13196  -0.437   2.381   6.374  1.1900 -0.8477  0.8150
  858MOL0     H13197  -0.259   2.276   6.258 -2.2419 -1.6580 -0.0130
  858MOL0     H13198  -0.244   2.401   6.141  0.6538 -1.1571 -0.2100
  858MOL0     H13199  -0.496   2.231   6.146  0.2694 -2.7193 -3.1068
  858MOL0     H13200  -0.448   2.347   6.027  0.8854  0.9873 -1.4221
  858MOL0     H13201  -0.380   2.156   5.915  1.1513  0.6401 -0.0792
  858MOL0     H13202  -0.367   2.062   6.069 -0.5065 -0.1539  0.1186
  858MOL0     H13203  -0.160   2.159   6.110 -1.3620 -3.1488 -0.1310
  858MOL0     H13204  -0.192   2.274   5.969  0.3989 -0.6852 -1.6371
  858MOL0     H13205  -0.169   1.976   5.914 -2.6984  0.8696 -0.2930
  858MOL0     H13206  -0.150   2.101   5.810  0.2725  0.6329 -0.5755
  858MOL0     H13207   0.053   2.187   5.968  1.7322 -0.8657  0.3145
  858MOL0     H13208   0.073   2.072   5.846  1.4678 -3.1469  0.8359
  858MOL0     H13209   0.081   1.795   5.928 -0.5431  1.0773  0.7955
  858MOL0     H13210   0.170   1.601   6.137 -1.4455  1.8865 -0.6516
  858MOL0     H13211   0.269   1.680   6.257 -2.1280 -0.1777 -0.0113
  858MOL0     H13212   0.447   1.732   6.068  1.6429 -1.1439  1.3364
  858MOL0     H13213   0.336   1.667   5.953  0.4542  1.3538  1.0971
  858MOL0     H13214   0.381   1.443   6.083  0.5420  0.6755  0.0370
  858MOL0     H13215   0.525   1.519   6.002  0.5802 -1.7203  0.2771
  858MOL0     H13216   0.503   1.443   6.264 -3.2669  1.2222 -1.0598
  858MOL0     H13217   0.511   1.614   6.266 -0.3215 -0.0083  1.3958
  858MOL0     H13218   0.693   1.496   6.435 -2.2883 -1.4788 -2.0222
  858MOL0     H13219   0.833   1.340   6.562  0.1876 -0.5356 -0.1463
  858MOL0     H13220   0.867   0.900   6.676 -2.9113  6.0700  4.5275
  858MOL0     H13221   1.007   0.720   6.802  1.3245 -0.9293  0.5208
  858MOL0     H13222   1.366   0.737   6.708  3.3651 -1.5322 -0.3962
  858MOL0     H13223   1.272   0.588   6.764 -2.4546  1.1559  2.8257
  858MOL0     H13224   1.539   0.696   6.887  0.2176 -0.0484 -0.8777
  858MOL0     H13225   1.526   0.568   6.766 -1.0741  0.5273 -1.4548
  858MOL0     H13226   1.398   0.436   6.938  0.5051 -0.0513  0.7869
  858MOL0     H13227   1.398   0.567   7.051  0.6263  1.4669  0.9688
  858MOL0     H13228   1.633   0.396   6.954  0.2268  0.8172 -1.1722
  858MOL0     H13229   1.670   0.559   7.016 -1.2814  1.5906  0.3978
  858MOL0     H13230   1.550   0.325   7.157  0.0666 -0.4669 -0.9539
  858MOL0     H13231   1.544   0.487   7.239 -0.5250 -0.5314  0.4232
  858MOL0     H13232   1.790   0.328   7.170  0.5338  0.5146 -0.4448
  858MOL0     H13233   1.714   0.345   7.320  0.9376  0.2018  0.4478
  858MOL0     H13234   1.848   0.559   7.138 -0.4687 -1.1716  0.0609
  858MOL0     H13235   1.752   0.602   7.289  0.0937 -0.0941 -0.1275
  858MOL0     H13236   1.934   0.493   7.428  1.8799  0.8247 -0.5620
  858MOL0     H13237   2.001   0.610   7.311  2.8539 -0.7365 -0.1371
  858MOL0     H13238   1.338   0.991   6.810 -0.8552  1.5347 -0.2425
  858MOL0     H13239   1.212   1.144   6.669  0.6715 -0.1214  2.1508
  858MOL0     H13240   0.977   1.170   6.185 -1.0347 -1.2970 -0.5925
  858MOL0     H13241   0.824   1.323   6.070  1.3058 -0.2432 -0.1263
  858MOL0     H13242  -0.029   2.390   6.562 -1.9799  1.1032  1.2172
  858MOL0     H13243   0.144   2.505   6.696 -0.3650 -0.8889 -0.2176
  858MOL0     H13244   0.428   2.940   6.622 -1.8623  0.6634 -0.4287
  858MOL0     H13245   0.619   3.079   6.734  0.3443  1.0136 -0.4554
  858MOL0     H13246   0.607   3.130   7.149 -1.0737  1.4702  0.8429
  858MOL0     H13247   0.567   3.301   7.111  1.6158  1.6963  0.1858
  858MOL0     H13248   0.765   3.321   7.211 -0.9156 -1.6617  1.1048
  858MOL0     H13249   0.847   3.192   7.119 -1.0511 -0.8678  2.2726
  858MOL0     H13250   0.757   3.468   6.997  0.4893  1.5237 -3.3036
  858MOL0     H13251   0.804   3.336   6.898  1.2143  3.2318 -0.8260
  858MOL0     H13252   1.015   3.331   7.068  0.7303 -0.1564 -0.1091
  858MOL0     H13253   1.002   3.428   6.925  2.7086 -1.0302  0.7749
  858MOL0     H13254   0.937   3.729   7.231  0.1155  2.1530 -2.0098
  858MOL0     H13255   0.378   3.130   7.086 -2.1920  0.2433 -0.2177
  858MOL0     H13256   0.201   2.991   6.980 -0.2961 -1.0369 -2.5678
  859MOL0     O13257  10.701   9.456   0.002 -0.0556 -0.3112  0.8679
  859MOL0     C13258  10.732   9.465   0.120  0.8453  0.6078  0.8015
  859MOL0     O13259  10.649   9.431   0.221 -0.3434  0.8524  0.5406
  859MOL0     C13260  10.511   9.412   0.189 -0.7487  0.5154  0.1513
  859MOL0     C13261  10.454   9.286   0.178 -0.9112  0.4384 -0.5297
  859MOL0     C13262  10.326   9.260   0.189  0.7926 -0.6858  0.4344
  859MOL0     C13263  10.231   9.362   0.182 -1.2932 -0.9453  0.7829
  859MOL0     O13264  10.099   9.330   0.162  0.0346  0.4653 -0.3469
  859MOL0     C13265  10.006   9.443   0.142 -0.4545  0.5159  0.2029
  859MOL0     C13266   9.863   9.389   0.130 -0.4649  0.1929  0.1192
  859MOL0     C13267   9.857   9.272   0.032  0.0089 -0.3742 -0.0461
  859MOL0     C13268   9.714   9.222   0.004  0.4815  0.5244 -0.2795
  859MOL0     C13269   9.701   9.097  -0.088  0.3582  0.3379  0.1710
  859MOL0     C13270   9.741   8.966  -0.022 -1.1224  0.9858 -0.1033
  859MOL0     C13271   9.630   8.865  -0.023  0.1376  0.7335  0.0506
  859MOL0     C13272   9.626   8.765  -0.136  0.6807 -0.3956  0.1910
  859MOL0     N13273   9.588   8.824  -0.265 -0.1018  0.6211  0.2826
  859MOL0     C13274   9.469   8.897  -0.275 -0.1718  0.3033  0.5923
  859MOL0     C13275   9.482   8.962  -0.396  1.1264 -0.2336  0.7533
  859MOL0     C13276   9.384   9.062  -0.457 -0.5699 -0.4091  0.5786
  859MOL0     C13277   9.246   9.051  -0.397  0.2233  0.3460  0.1208
  859MOL0     C13278   9.228   9.108  -0.253 -0.1285  0.5657  0.4697
  859MOL0     C13279   9.096   9.067  -0.185  0.4621 -0.1805 -0.5351
  859MOL0     O13280   8.988   9.144  -0.248 -0.6294  0.5050 -0.3499
  859MOL0     C13281   8.858   9.144  -0.190  0.7310 -0.2402  0.0459
  859MOL0     C13282   8.751   9.206  -0.263  0.1120  0.5403 -0.6750
  859MOL0     C13283   8.622   9.216  -0.217  0.1942 -0.4944 -0.0986
  859MOL0     C13284   8.593   9.166  -0.089 -0.1117  0.2423 -1.1525
  859MOL0     C13285   8.449   9.162  -0.027  0.7806 -0.7408  0.9998
  859MOL0     O13286   8.353   9.232  -0.094 -0.1009 -0.0562  0.5267
  859MOL0     C13287   8.229   9.240  -0.030 -0.7598  0.0304  0.4560
  859MOL0     C13288   8.152   9.134   0.026 -0.2069  0.0642 -0.0955
  859MOL0     C13289   8.023   9.156   0.088  0.0627 -0.9274 -0.7026
  859MOL0     C13290   7.954   9.279   0.067  0.9851 -0.8564 -0.3187
  859MOL0     O13291   7.825   9.294   0.100 -0.0562 -0.6810  0.1302
  859MOL0     C13292   7.710   9.202   0.104 -0.3684 -0.2133 -0.4110
  859MOL0     C13293   7.675   9.149  -0.038 -0.0828 -0.3377 -0.5726
  859MOL0     C13294   7.548   9.060  -0.047  0.4320 -0.2758  0.1311
  859MOL0     C13295   7.418   9.123   0.014  0.2819 -0.5467  0.2033
  859MOL0     C13296   7.394   9.270  -0.029  0.2008 -0.1559  0.4402
  859MOL0     C13297   7.254   9.321   0.029 -0.2250 -1.3186  0.0935
  859MOL0     C13298   7.205   9.441  -0.050 -0.1589  0.1198 -0.0304
  859MOL0     C13299   7.055   9.470  -0.012  0.3428  0.3560 -0.4662
  859MOL0    Cl13300   6.940   9.332  -0.044  0.0214 -0.1445 -0.2965
  859MOL0     C13301   8.028   9.375   0.018  1.0694  0.2939 -0.0719
  859MOL0     C13302   8.161   9.364  -0.034 -0.3397 -1.0587  0.4633
  859MOL0     O13303   8.436   9.110   0.086 -0.7644 -0.3837  0.8294
  859MOL0     C13304   8.703   9.115  -0.010  0.9283  0.8949  0.3411
  859MOL0     C13305   8.831   9.101  -0.060  0.2686  0.6214  0.0947
  859MOL0     N13306   9.605   8.922  -0.452 -0.5700 -0.5236  0.0912
  859MOL0     N13307   9.666   8.853  -0.364  0.0616  0.0903  0.4203
  859MOL0     C13308  10.278   9.499   0.190 -0.2946  0.0707 -0.1941
  859MOL0     C13309  10.418   9.525   0.194 -0.2799 -0.0332 -0.2995
  859MOL0     C13310  10.875   9.493   0.135  0.2457  0.0035 -0.1948
  859MOL0     C13311  10.916   9.562   0.254  0.9155 -0.5443  0.5106
  859MOL0     C13312  11.047   9.611   0.283  0.7151 -0.2488  0.5576
  859MOL0     C13313  11.143   9.603   0.181  0.3288  0.4460 -1.3829
  859MOL0     O13314  11.272   9.652   0.186 -0.1729 -0.7121  0.3824
  859MOL0     C13315  11.298   9.772   0.275 -0.4875  0.3598 -0.4294
  859MOL0     C13316  11.444   9.802   0.310  1.5596  0.1526 -0.5573
  859MOL0     C13317  11.540   9.818   0.194 -0.6129 -0.5085 -0.1424
  859MOL0     C13318  11.491   9.902   0.080  0.0851  0.1097 -0.4898
  859MOL0     C13319  11.450  10.040   0.119 -0.4304  0.5889  0.4648
  859MOL0     C13320  11.416  10.149   0.150  0.4570  0.4874 -0.5531
  859MOL0     C13321  11.109   9.529   0.068  0.5757  0.7731  0.2277
  859MOL0     C13322  10.974   9.482   0.044 -1.2841 -0.8060  0.6671
  859MOL0     H13323  10.515   9.196   0.172  1.1199  1.7102  0.2471
  859MOL0     H13324  10.287   9.160   0.171 -0.0765  0.0697 -2.2790
  859MOL0     H13325  10.047   9.482   0.049  1.1126 -0.3128  0.5157
  859MOL0     H13326  10.011   9.520   0.220  0.5828 -0.5220  1.2011
  859MOL0     H13327   9.794   9.468   0.098 -0.9308 -0.3802 -0.3106
  859MOL0     H13328   9.830   9.347   0.225  1.1100  0.3448  0.7521
  859MOL0     H13329   9.913   9.188   0.073 -0.1221 -1.0016 -1.1192
  859MOL0     H13330   9.902   9.306  -0.062 -0.7797  3.8983  0.8843
  859MOL0     H13331   9.665   9.208   0.101  0.2416 -0.2885 -0.5138
  859MOL0     H13332   9.661   9.306  -0.042  2.3468  0.8992 -1.8846
  859MOL0     H13333   9.756   9.106  -0.182 -1.6084 -1.1303 -1.1927
  859MOL0     H13334   9.594   9.097  -0.109  0.3243 -0.5189  0.3390
  859MOL0     H13335   9.761   8.982   0.085 -2.3782 -2.2060  0.7510
  859MOL0     H13336   9.825   8.918  -0.071 -0.1683 -1.8331  3.7947
  859MOL0     H13337   9.647   8.808   0.069  1.3218  1.2916  0.1983
  859MOL0     H13338   9.530   8.909  -0.014  0.3420  1.1590  0.3258
  859MOL0     H13339   9.550   8.691  -0.106 -2.7050  1.7901 -2.2258
  859MOL0     H13340   9.717   8.709  -0.158 -0.1585 -1.9061  0.3643
  859MOL0     H13341   9.387   8.891  -0.204  1.1460  2.3232  2.4480
  859MOL0     H13342   9.377   9.019  -0.558 -1.7451  0.9186  0.0542
  859MOL0     H13343   9.422   9.164  -0.444  0.7766 -1.0104  1.5759
  859MOL0     H13344   9.225   8.944  -0.388  0.0424  0.5435  3.2042
  859MOL0     H13345   9.160   9.084  -0.455 -2.8354 -0.7568  3.6229
  859MOL0     H13346   9.313   9.083  -0.189  0.1190  0.8878  0.2692
  859MOL0     H13347   9.241   9.216  -0.256 -0.0531  0.5319 -1.2027
  859MOL0     H13348   9.103   9.065  -0.076 -1.5628 -4.2874 -0.2652
  859MOL0     H13349   9.077   8.960  -0.202  1.9042 -0.4025 -0.8980
  859MOL0     H13350   8.774   9.230  -0.367 -0.7306 -0.9436 -1.2376
  859MOL0     H13351   8.545   9.262  -0.278  0.6249  0.6398  0.1988
  859MOL0     H13352   8.177   9.028   0.026 -3.7255 -0.8934 -0.3926
  859MOL0     H13353   7.971   9.071   0.130 -0.0614 -0.6030 -0.1838
  859MOL0     H13354   7.621   9.243   0.151 -0.8847 -1.4504 -0.2628
  859MOL0     H13355   7.745   9.118   0.164 -0.8787  1.2266  2.0416
  859MOL0     H13356   7.754   9.084  -0.074 -2.1417 -2.6631 -1.1620
  859MOL0     H13357   7.673   9.242  -0.096 -1.1761  1.4216  2.0565
  859MOL0     H13358   7.558   8.956  -0.015  0.8653 -0.2299  0.1528
  859MOL0     H13359   7.544   9.054  -0.156  1.9787  1.3100 -0.0685
  859MOL0     H13360   7.334   9.063  -0.022  1.8876 -2.3081 -0.7635
  859MOL0     H13361   7.414   9.116   0.123  0.3453  0.8769  0.3245
  859MOL0     H13362   7.395   9.262  -0.138  1.7873 -3.9763  0.5813
  859MOL0     H13363   7.471   9.341   0.006 -0.4767  0.3684  0.8839
  859MOL0     H13364   7.260   9.359   0.131 -0.2079 -1.5080  0.1649
  859MOL0     H13365   7.177   9.242   0.032 -4.3005  2.0961 -2.9742
  859MOL0     H13366   7.263   9.532  -0.033  0.7142 -0.7449  1.8803
  859MOL0     H13367   7.212   9.420  -0.157 -0.9896 -0.9596  0.1058
  859MOL0     H13368   7.015   9.553  -0.071  1.0266  2.7399  2.2189
  859MOL0     H13369   7.050   9.488   0.095  0.2976 -1.9140 -0.0432
  859MOL0     H13370   7.972   9.465  -0.003  1.2616  0.3987 -0.1369
  859MOL0     H13371   8.199   9.453  -0.083  1.4338 -0.9066  2.0188
  859MOL0     H13372   8.678   9.057   0.078  0.8130  1.7107  0.8504
  859MOL0     H13373   8.908   9.056   0.002 -0.1046  0.7077  0.6242
  859MOL0     H13374  10.213   9.585   0.197  0.6466  0.6705  1.6347
  859MOL0     H13375  10.475   9.615   0.172 -1.0979  0.6395  0.3014
  859MOL0     H13376  10.840   9.569   0.331 -0.1822  0.8699 -0.6336
  859MOL0     H13377  11.077   9.652   0.380 -1.4766 -0.4107  1.3662
  859MOL0     H13378  11.238   9.777   0.366 -1.7532 -0.8129 -1.1550
  859MOL0     H13379  11.249   9.853   0.219 -2.3443 -0.5683 -0.2451
  859MOL0     H13380  11.433   9.895   0.366 -2.7883 -0.6013  0.1575
  859MOL0     H13381  11.482   9.722   0.373 -2.2345 -1.3495  0.0561
  859MOL0     H13382  11.571   9.720   0.157  0.6665 -0.2905  0.3098
  859MOL0     H13383  11.641   9.850   0.220 -1.6941  3.3958 -0.0580
  859MOL0     H13384  11.562   9.898  -0.003 -0.6520  1.6041 -1.2426
  859MOL0     H13385  11.411   9.841   0.036  0.9209  0.9736 -3.4337
  859MOL0     H13386  11.376  10.247   0.165  0.8005  0.8974 -2.0843
  859MOL0     H13387  11.183   9.522  -0.012  0.7508  1.3112  0.3353
  859MOL0     H13388  10.940   9.432  -0.047  2.0404 -0.7861 -0.7329
  860MOL0     O13389   8.561   4.207   8.462  0.0331  0.0012  0.1446
  860MOL0     C13390   8.594   4.320   8.481 -0.2835 -1.1104 -0.5135
  860MOL0     O13391   8.519   4.433   8.526  0.3549 -0.2329  0.4659
  860MOL0     C13392   8.382   4.417   8.526 -0.1314 -0.6417 -0.1467
  860MOL0     C13393   8.296   4.428   8.416 -0.0329  0.6048  0.3057
  860MOL0     C13394   8.156   4.410   8.423  0.2900 -0.0772 -0.9881
  860MOL0     C13395   8.104   4.400   8.553 -0.4326 -0.3796  0.1509
  860MOL0     O13396   7.974   4.361   8.550  0.2625 -0.3199  0.1519
  860MOL0     C13397   7.883   4.395   8.662 -0.7451 -0.1017  0.5761
  860MOL0     C13398   7.848   4.542   8.680 -0.0608  0.2748  0.1796
  860MOL0     C13399   7.776   4.559   8.817  1.0939  0.0859 -0.4505
  860MOL0     C13400   7.630   4.511   8.801  0.2126 -0.2613 -0.0581
  860MOL0     C13401   7.549   4.496   8.930 -1.0226  0.1345 -0.3925
  860MOL0     C13402   7.402   4.457   8.893 -0.6410  1.0361  0.2914
  860MOL0     C13403   7.308   4.408   9.010  0.5646 -0.3980 -0.1276
  860MOL0     C13404   7.165   4.373   8.956  0.2029 -0.5258 -0.2337
  860MOL0     N13405   7.074   4.347   9.065 -0.0404  0.2957 -1.7610
  860MOL0     C13406   7.051   4.218   9.118  0.3560  0.9260 -0.3471
  860MOL0     C13407   6.932   4.225   9.180 -0.1769 -0.1812 -0.3519
  860MOL0     C13408   6.852   4.115   9.258  0.3080  0.2517 -0.3193
  860MOL0     C13409   6.711   4.159   9.293  0.4622 -1.1970  0.3435
  860MOL0     C13410   6.646   4.046   9.371 -0.2107 -0.0878 -1.4676
  860MOL0     C13411   6.591   3.936   9.281  0.2918 -0.0975  0.6860
  860MOL0     O13412   6.537   3.826   9.348  0.6991  0.3409 -0.5561
  860MOL0     C13413   6.409   3.789   9.320 -0.0928 -0.3588 -0.2399
  860MOL0     C13414   6.315   3.861   9.236 -0.0791 -0.1734 -0.8213
  860MOL0     C13415   6.189   3.806   9.210  0.5870 -0.1960  0.0781
  860MOL0     C13416   6.155   3.682   9.271  1.4687 -0.4038 -0.0197
  860MOL0     C13417   6.024   3.632   9.258 -1.1176  0.0670  0.5537
  860MOL0     O13418   5.954   3.688   9.158  0.0631 -0.0523  0.1558
  860MOL0     C13419   5.827   3.632   9.150 -0.3646  0.4212  0.0382
  860MOL0     C13420   5.797   3.495   9.134 -1.0156 -0.1777 -0.6760
  860MOL0     C13421   5.659   3.447   9.116 -0.1846  0.6389 -0.5240
  860MOL0     C13422   5.551   3.537   9.132 -0.0110  0.9028 -0.9816
  860MOL0     O13423   5.432   3.483   9.119  0.5836 -0.1475  0.6692
  860MOL0     C13424   5.392   3.466   8.973 -0.0487 -0.6547 -1.3055
  860MOL0     C13425   5.334   3.606   8.914 -0.9153  0.2656  0.9447
  860MOL0     C13426   5.281   3.604   8.774  0.8890 -0.0084 -0.7276
  860MOL0     C13427   5.219   3.728   8.723  0.1990 -0.5561 -0.1034
  860MOL0     C13428   5.093   3.786   8.787 -0.0366  0.9515 -0.6301
  860MOL0     C13429   4.961   3.704   8.777 -0.0144 -0.0382 -0.4178
  860MOL0     C13430   4.847   3.796   8.812  0.4942 -0.4703  0.0022
  860MOL0     C13431   4.716   3.728   8.849  0.3172 -0.2177  0.3813
  860MOL0    Cl13432   4.661   3.624   8.716  0.1141 -0.0580 -0.3584
  860MOL0     C13433   5.586   3.669   9.165  0.5731  0.4098  0.9130
  860MOL0     C13434   5.719   3.719   9.168  0.3522 -0.5305  0.1893
  860MOL0     O13435   6.002   3.528   9.320  0.4332 -0.0778 -0.8015
  860MOL0     C13436   6.246   3.623   9.351 -0.1059 -0.3788 -0.6853
  860MOL0     C13437   6.376   3.668   9.361  0.4084  0.5674  0.2283
  860MOL0     N13438   6.887   4.353   9.165  0.5100 -0.2617  0.3505
  860MOL0     N13439   6.975   4.434   9.116 -0.0192  0.5090  0.9894
  860MOL0     C13440   8.186   4.405   8.670  0.4147  0.2937 -0.4650
  860MOL0     C13441   8.320   4.400   8.655 -1.1144  0.0868 -0.2563
  860MOL0     C13442   8.739   4.337   8.476 -0.5478 -0.5697  0.9390
  860MOL0     C13443   8.799   4.422   8.574  0.1272  0.4530 -0.1913
  860MOL0     C13444   8.933   4.465   8.556  0.2513  0.0484  0.6106
  860MOL0     C13445   9.002   4.427   8.443  0.0764 -0.4460  0.7173
  860MOL0     O13446   9.124   4.493   8.423 -0.4907 -0.4033 -0.7431
  860MOL0     C13447   9.233   4.414   8.448 -0.3317 -0.3719 -0.3454
  860MOL0     C13448   9.359   4.485   8.387 -0.1418 -0.0248 -0.5814
  860MOL0     C13449   9.369   4.637   8.420  0.2419  0.1906  1.4125
  860MOL0     C13450   9.425   4.660   8.560  0.2283  0.3487 -0.4446
  860MOL0     C13451   9.569   4.627   8.569 -0.3300 -0.3470  1.2730
  860MOL0     C13452   9.684   4.597   8.576 -0.0811  0.1839  0.0607
  860MOL0     C13453   8.955   4.341   8.351  0.0376 -0.5867 -0.7201
  860MOL0     C13454   8.822   4.296   8.365 -1.1908 -1.0145  0.2075
  860MOL0     H13455   8.345   4.444   8.320  1.6977  0.7427  1.1574
  860MOL0     H13456   8.099   4.408   8.331  1.9128 -0.1864 -2.0503
  860MOL0     H13457   7.936   4.360   8.752  2.3108 -1.2114 -1.4800
  860MOL0     H13458   7.799   4.326   8.649  0.2985 -1.2992 -0.0236
  860MOL0     H13459   7.791   4.581   8.595  0.8429  1.4132  0.0770
  860MOL0     H13460   7.943   4.596   8.678  0.6285 -0.6961  2.6645
  860MOL0     H13461   7.774   4.664   8.848  0.3429 -0.5280  1.8362
  860MOL0     H13462   7.824   4.500   8.896 -1.3479  0.3158  1.3458
  860MOL0     H13463   7.576   4.576   8.732  1.0883  0.5188 -0.0278
  860MOL0     H13464   7.630   4.411   8.758 -3.9287  0.3993 -2.0984
  860MOL0     H13465   7.541   4.592   8.982 -2.4986 -0.5382  0.6951
  860MOL0     H13466   7.585   4.428   9.008  1.1881 -1.4766 -2.6709
  860MOL0     H13467   7.400   4.383   8.813  0.7636 -2.5923  3.3225
  860MOL0     H13468   7.357   4.544   8.844 -1.4708 -0.4782 -1.7788
  860MOL0     H13469   7.349   4.319   9.060 -0.8846 -1.5639 -0.9154
  860MOL0     H13470   7.297   4.486   9.085 -1.3045 -0.7857  0.0368
  860MOL0     H13471   7.167   4.293   8.880  0.7869 -0.0941 -0.6842
  860MOL0     H13472   7.131   4.464   8.907 -1.5131 -1.4547 -0.8408
  860MOL0     H13473   7.107   4.125   9.114  1.0586  1.1852  1.9288
  860MOL0     H13474   6.905   4.090   9.350 -1.4747 -0.8963  0.4500
  860MOL0     H13475   6.860   4.030   9.189  3.8818 -0.0203  0.2491
  860MOL0     H13476   6.649   4.184   9.207 -1.9987 -2.5533  1.5917
  860MOL0     H13477   6.731   4.250   9.351  3.1116  1.0108 -3.5604
  860MOL0     H13478   6.715   3.987   9.433 -0.8020  0.3974 -0.3084
  860MOL0     H13479   6.567   4.090   9.432 -0.9712 -4.4453  1.1667
  860MOL0     H13480   6.676   3.900   9.223  0.8326 -0.4295  1.6629
  860MOL0     H13481   6.525   3.988   9.210 -0.8710  0.4727  2.1271
  860MOL0     H13482   6.332   3.960   9.196  0.7681  0.7586  1.6762
  860MOL0     H13483   6.121   3.854   9.140 -0.0371 -0.6120  0.3928
  860MOL0     H13484   5.883   3.429   9.121  0.7660  2.1686 -1.5692
  860MOL0     H13485   5.639   3.342   9.098  0.1347  0.5305 -0.2478
  860MOL0     H13486   5.306   3.401   8.991 -1.7558  1.7263 -0.3566
  860MOL0     H13487   5.472   3.421   8.915 -0.6648 -0.1140 -2.6076
  860MOL0     H13488   5.411   3.684   8.911 -0.7492  0.1817  2.2685
  860MOL0     H13489   5.258   3.646   8.983  0.6750  1.5692  2.0263
  860MOL0     H13490   5.219   3.514   8.770  1.4312 -0.3541 -2.1675
  860MOL0     H13491   5.365   3.580   8.707  0.5408  0.2299 -1.2566
  860MOL0     H13492   5.294   3.808   8.723 -0.6472  0.2522  0.3044
  860MOL0     H13493   5.183   3.710   8.622 -4.4157 -0.5501  1.3206
  860MOL0     H13494   5.075   3.883   8.738 -0.8228  1.6674  1.0014
  860MOL0     H13495   5.111   3.802   8.893 -0.4492 -2.4985  0.0710
  860MOL0     H13496   4.965   3.616   8.841 -3.2114  0.6894  0.9962
  860MOL0     H13497   4.940   3.675   8.674 -0.5460  1.9269 -0.8992
  860MOL0     H13498   4.866   3.856   8.902  3.3700 -1.1709 -0.0588
  860MOL0     H13499   4.844   3.865   8.727  1.7551  3.1698  2.6501
  860MOL0     H13500   4.646   3.811   8.865 -0.9408 -1.7424  3.8326
  860MOL0     H13501   4.731   3.677   8.945 -0.4733  1.6156  1.5288
  860MOL0     H13502   5.502   3.737   9.176 -2.5568 -3.2497  1.8516
  860MOL0     H13503   5.743   3.824   9.180 -3.2832  0.6580 -1.6843
  860MOL0     H13504   6.215   3.541   9.415 -3.6843  0.2003 -1.4381
  860MOL0     H13505   6.440   3.606   9.424  1.7816 -0.8181 -2.3252
  860MOL0     H13506   8.132   4.407   8.764 -0.9976 -3.3239 -1.0342
  860MOL0     H13507   8.378   4.384   8.745 -1.9951 -3.0709 -0.1274
  860MOL0     H13508   8.735   4.453   8.656  0.8897  0.8583  0.2619
  860MOL0     H13509   8.991   4.514   8.634  0.9660 -1.4386  1.0390
  860MOL0     H13510   9.222   4.317   8.399 -0.8528 -1.7670  2.3349
  860MOL0     H13511   9.255   4.406   8.555  2.5579 -0.7358 -0.8928
  860MOL0     H13512   9.442   4.427   8.429 -0.2261 -0.1270 -0.5554
  860MOL0     H13513   9.367   4.460   8.281  1.2215  0.6488 -0.6615
  860MOL0     H13514   9.269   4.677   8.403  0.5122 -0.4879 -2.9748
  860MOL0     H13515   9.431   4.696   8.352 -2.5421  1.3767 -0.2754
  860MOL0     H13516   9.399   4.760   8.594  1.8680  1.0944 -1.2630
  860MOL0     H13517   9.386   4.588   8.633 -0.0890  1.8773  0.9640
  860MOL0     H13518   9.791   4.584   8.573  0.0451  1.3043 -1.9171
  860MOL0     H13519   9.013   4.325   8.261  1.2440 -2.3808  0.3351
  860MOL0     H13520   8.782   4.230   8.289  0.5034  0.9607 -2.6228
  861MOL0     O13521   2.925   9.918   3.825  0.3796 -0.0476 -0.0424
  861MOL0     C13522   2.909  10.038   3.802  0.0408  0.7547  0.0727
  861MOL0     O13523   2.794  10.100   3.793 -0.0322  0.5255 -0.7265
  861MOL0     C13524   2.680  10.025   3.837 -0.2856 -0.1911  0.3103
  861MOL0     C13525   2.644   9.884   3.817  0.0229  0.8163  0.8577
  861MOL0     C13526   2.524   9.836   3.877 -0.9458  1.4606  0.3684
  861MOL0     C13527   2.447   9.919   3.957  0.0947 -0.2396 -0.9995
  861MOL0     O13528   2.324   9.857   3.992  0.3216 -0.4408  0.5133
  861MOL0     C13529   2.239   9.949   4.071 -0.9361  0.2937  0.3581
  861MOL0     C13530   2.102   9.890   4.086  0.1276  0.6963  0.1864
  861MOL0     C13531   2.008   9.986   4.148  0.3142 -0.2121  0.8237
  861MOL0     C13532   1.954  10.105   4.058  0.0370 -0.1186  0.5270
  861MOL0     C13533   1.840  10.175   4.121  0.4686  0.1701 -0.8909
  861MOL0     C13534   1.845  10.327   4.096  0.0449 -0.2076  0.2949
  861MOL0     C13535   1.767  10.380   3.970 -0.0916  0.2708  0.4547
  861MOL0     C13536   1.774  10.534   3.933 -0.2802  0.2155 -0.4476
  861MOL0     N13537   1.701  10.551   3.801  0.1734 -0.5488 -0.4245
  861MOL0     C13538   1.666  10.669   3.739 -0.2138 -0.7721  0.5665
  861MOL0     C13539   1.566  10.646   3.649  0.2939  0.0484  0.4422
  861MOL0     C13540   1.502  10.741   3.562  0.4904  0.1571 -0.8962
  861MOL0     C13541   1.372  10.802   3.633 -0.0824 -0.3596  0.5841
  861MOL0     C13542   1.323  10.913   3.544  0.2267 -0.0385  0.2151
  861MOL0     C13543   1.174  10.960   3.585 -1.0627  1.0950 -0.5913
  861MOL0     O13544   1.083  10.863   3.640  0.3797 -0.8936 -0.2153
  861MOL0     C13545   0.950  10.906   3.660 -1.3962 -0.4730  0.3045
  861MOL0     C13546   0.909  11.029   3.715  0.1109  0.0442  0.9175
  861MOL0     C13547   0.774  11.070   3.709 -1.0204  0.0688  0.5140
  861MOL0     C13548   0.686  10.980   3.661  1.2453 -1.1430  0.8126
  861MOL0     C13549   0.536  11.011   3.655  0.8661 -0.1880  0.3317
  861MOL0     O13550   0.489  11.137   3.682 -0.0425  0.8458  0.5013
  861MOL0     C13551   0.357  11.159   3.659  1.2593  0.7679  0.6574
  861MOL0     C13552   0.282  11.177   3.770  0.8111 -0.4196  0.2092
  861MOL0     C13553   0.147  11.229   3.764  0.1453  0.1698 -0.9070
  861MOL0     C13554   0.089  11.258   3.642 -1.4002  0.4269 -0.6138
  861MOL0     O13555  -0.042  11.299   3.642  0.2827 -1.1543  0.4229
  861MOL0     C13556  -0.132  11.243   3.737  0.7121 -0.0926 -0.2825
  861MOL0     C13557  -0.276  11.262   3.692  0.7083  0.0697  0.3802
  861MOL0     C13558  -0.357  11.176   3.792 -0.0894  0.8595  0.6768
  861MOL0     C13559  -0.501  11.157   3.754  0.3677  0.0606  0.4314
  861MOL0     C13560  -0.540  11.020   3.700 -0.0771 -0.0780 -0.1379
  861MOL0     C13561  -0.685  10.998   3.695 -0.8872 -0.8249 -0.5590
  861MOL0     C13562  -0.724  10.853   3.661 -0.8899 -1.0143  0.1515
  861MOL0     C13563  -0.682  10.739   3.756 -0.7554  0.2393 -0.0741
  861MOL0    Cl13564  -0.790  10.740   3.889 -0.0552  0.0959  0.0599
  861MOL0     C13565   0.167  11.233   3.522  0.3358  0.4111 -0.1192
  861MOL0     C13566   0.299  11.179   3.529  0.3959  0.2297 -0.0984
  861MOL0     O13567   0.458  10.917   3.627  0.1586 -0.6243  0.4086
  861MOL0     C13568   0.729  10.860   3.605 -0.3595 -0.5815  0.3653
  861MOL0     C13569   0.864  10.821   3.605  0.0178  0.4837 -0.3392
  861MOL0     N13570   1.538  10.509   3.651 -0.0200  0.1502 -0.0544
  861MOL0     N13571   1.619  10.454   3.741 -0.2697 -0.5144 -0.1499
  861MOL0     C13572   2.478  10.056   3.973 -0.3668  0.3323 -0.2116
  861MOL0     C13573   2.596  10.104   3.910  0.1710  0.7829 -0.4870
  861MOL0     C13574   3.030  10.105   3.786  1.1185 -0.3245 -0.2010
  861MOL0     C13575   3.144  10.080   3.867 -0.3756  0.4268 -0.4941
  861MOL0     C13576   3.260  10.151   3.860  0.3876  0.4795  0.2861
  861MOL0     C13577   3.265  10.253   3.775 -0.3765 -0.0282 -0.3838
  861MOL0     O13578   3.376  10.330   3.752 -0.4435  0.1543 -0.5097
  861MOL0     C13579   3.475  10.358   3.856  0.2839 -0.7988  0.1601
  861MOL0     C13580   3.442  10.469   3.959  0.4849 -0.3779 -0.7855
  861MOL0     C13581   3.460  10.604   3.901 -0.3628 -0.0714  0.4894
  861MOL0     C13582   3.384  10.716   3.975 -0.4159  0.1089  0.4231
  861MOL0     C13583   3.238  10.723   3.930  0.1296  0.3138  0.6608
  861MOL0     C13584   3.122  10.721   3.899  0.7459  0.2013 -0.3391
  861MOL0     C13585   3.153  10.281   3.691  0.1901 -0.2012 -0.0911
  861MOL0     C13586   3.033  10.209   3.700 -0.4167  1.1656  0.1554
  861MOL0     H13587   2.689   9.816   3.745  0.1345  1.9231 -0.1437
  861MOL0     H13588   2.499   9.734   3.847  1.2560  0.6894  0.9560
  861MOL0     H13589   2.218  10.035   4.008  0.4175  0.2120 -0.2208
  861MOL0     H13590   2.280   9.978   4.169 -0.3053 -1.5942  0.6881
  861MOL0     H13591   2.120   9.796   4.138  3.9464  0.2696 -1.5718
  861MOL0     H13592   2.070   9.861   3.986  0.2251 -1.7979  0.8242
  861MOL0     H13593   2.055  10.035   4.233  0.9532  3.9135 -1.6386
  861MOL0     H13594   1.918   9.936   4.183  0.6241 -3.1883 -2.0703
  861MOL0     H13595   2.029  10.181   4.037  1.7763 -2.0792 -0.7063
  861MOL0     H13596   1.936  10.068   3.957  0.4129 -0.1053  0.4524
  861MOL0     H13597   1.845  10.155   4.228 -0.0517 -1.7293 -1.1875
  861MOL0     H13598   1.751  10.130   4.075  1.3311 -0.5192 -1.9301
  861MOL0     H13599   1.944  10.374   4.097 -1.6681  3.8387 -1.3243
  861MOL0     H13600   1.803  10.378   4.183 -1.1847 -0.9832  0.1801
  861MOL0     H13601   1.806  10.332   3.879 -2.4721  3.2926 -2.4062
  861MOL0     H13602   1.664  10.344   3.978 -0.0664  0.5781  2.7476
  861MOL0     H13603   1.874  10.575   3.915 -0.1827  0.5726  0.8198
  861MOL0     H13604   1.728  10.583   4.019 -1.0005  0.1227 -0.7735
  861MOL0     H13605   1.720  10.760   3.763  3.8264 -3.2021  1.6240
  861MOL0     H13606   1.479  10.696   3.465  0.8901 -0.5512 -0.6647
  861MOL0     H13607   1.568  10.824   3.534  1.9404 -1.1446 -1.4043
  861MOL0     H13608   1.396  10.848   3.729  1.0146  0.8713 -0.2438
  861MOL0     H13609   1.291  10.729   3.638 -1.8686  1.5667  1.0813
  861MOL0     H13610   1.379  11.004   3.565 -1.0835  0.9120 -0.2720
  861MOL0     H13611   1.336  10.881   3.440 -0.6248 -0.7082  0.2944
  861MOL0     H13612   1.130  11.000   3.493 -2.8233 -0.8711 -0.6936
  861MOL0     H13613   1.172  11.046   3.653  1.6136  1.6559 -1.1247
  861MOL0     H13614   0.977  11.108   3.745 -0.0022 -0.0813  1.5072
  861MOL0     H13615   0.733  11.165   3.741 -2.1247 -0.0035 -0.6088
  861MOL0     H13616   0.321  11.146   3.866 -0.6760 -0.5149  0.7991
  861MOL0     H13617   0.092  11.234   3.857 -0.7326 -0.6833 -1.3667
  861MOL0     H13618  -0.134  11.294   3.834  1.4185  0.9140 -0.7804
  861MOL0     H13619  -0.116  11.135   3.741 -0.0086 -0.3639 -2.8996
  861MOL0     H13620  -0.278  11.230   3.587  2.1514  3.6033 -0.8770
  861MOL0     H13621  -0.315  11.364   3.699 -0.3693 -0.4061  2.1751
  861MOL0     H13622  -0.345  11.224   3.889 -0.1447 -3.1832  2.9350
  861MOL0     H13623  -0.312  11.076   3.784 -1.2905  0.4440 -2.3982
  861MOL0     H13624  -0.561  11.195   3.837  1.2225  0.5222  0.8570
  861MOL0     H13625  -0.516  11.218   3.664  1.9450 -3.7748 -2.7649
  861MOL0     H13626  -0.497  10.936   3.757 -1.5010 -1.7323 -1.3976
  861MOL0     H13627  -0.503  11.005   3.598 -1.1628 -0.7734 -0.4437
  861MOL0     H13628  -0.730  11.070   3.626  1.2074  3.3768  2.0614
  861MOL0     H13629  -0.732  11.017   3.792  0.2277 -0.2865 -0.1080
  861MOL0     H13630  -0.829  10.834   3.639 -0.1075 -1.8065 -3.5030
  861MOL0     H13631  -0.684  10.842   3.560 -0.5246  2.5349 -0.2167
  861MOL0     H13632  -0.578  10.749   3.789 -0.1764 -1.3647 -1.2944
  861MOL0     H13633  -0.686  10.645   3.701 -0.6446  1.7302 -2.7936
  861MOL0     H13634   0.118  11.244   3.426  1.9272  1.1885 -0.8773
  861MOL0     H13635   0.367  11.148   3.451 -1.4063 -0.1574 -1.5972
  861MOL0     H13636   0.660  10.797   3.550 -0.6135 -0.8630  0.9913
  861MOL0     H13637   0.890  10.718   3.581 -2.4524 -0.4220  0.5338
  861MOL0     H13638   2.431  10.130   4.038 -2.3298  0.0513 -1.2480
  861MOL0     H13639   2.622  10.209   3.920  3.2553  0.3211 -2.3905
  861MOL0     H13640   3.138  10.010   3.950  0.2497  0.5116 -0.3693
  861MOL0     H13641   3.330  10.143   3.943 -1.1417 -1.2403  1.4748
  861MOL0     H13642   3.567  10.385   3.802 -0.1207  1.0777  0.3433
  861MOL0     H13643   3.509  10.267   3.906 -1.3858 -0.6339  1.7066
  861MOL0     H13644   3.340  10.454   3.996  0.4044 -3.2283 -1.9289
  861MOL0     H13645   3.509  10.461   4.045  1.6871 -1.6477 -1.8074
  861MOL0     H13646   3.419  10.590   3.801  1.6877 -3.6723 -0.0226
  861MOL0     H13647   3.565  10.634   3.901 -0.1032 -0.9689 -0.3380
  861MOL0     H13648   3.391  10.702   4.083  3.2560  2.1112  0.6164
  861MOL0     H13649   3.424  10.817   3.960 -1.5726  0.5464  0.1568
  861MOL0     H13650   3.017  10.705   3.882  0.6641 -2.0155  1.7484
  861MOL0     H13651   3.151  10.353   3.609 -1.9181 -1.0786 -0.8947
  861MOL0     H13652   2.950  10.229   3.633 -0.7052 -1.5352 -0.3745
  862MOL0     O13653   9.219   1.741   7.245  0.1902 -0.6584  0.0988
  862MOL0     C13654   9.199   1.866   7.253 -0.5478  0.6105  0.9126
  862MOL0     O13655   9.288   1.955   7.304 -0.1321 -0.0883  1.0555
  862MOL0     C13656   9.414   1.925   7.338  0.0779  1.2253 -0.3261
  862MOL0     C13657   9.498   1.822   7.278 -0.0026  0.2493 -0.4217
  862MOL0     C13658   9.634   1.821   7.319 -0.2803  1.9110  0.6225
  862MOL0     C13659   9.694   1.904   7.407 -0.2891  0.0995 -0.0461
  862MOL0     O13660   9.823   1.887   7.448  0.8126 -0.0267 -0.4828
  862MOL0     C13661   9.918   1.851   7.355  0.5640 -1.0297 -0.1479
  862MOL0     C13662  10.048   1.927   7.378 -0.4154  0.3332  0.4360
  862MOL0     C13663  10.022   2.069   7.381  0.2932 -0.1178 -0.0660
  862MOL0     C13664  10.141   2.163   7.389 -1.1024 -0.0825  0.0927
  862MOL0     C13665  10.240   2.168   7.269  0.4981 -0.2681 -0.2948
  862MOL0     C13666  10.168   2.216   7.148 -0.5563  0.1828 -0.4797
  862MOL0     C13667  10.115   2.365   7.166 -0.2858 -0.5969  0.2125
  862MOL0     C13668  10.225   2.467   7.183  0.0209 -0.5925 -0.2164
  862MOL0     N13669  10.173   2.600   7.223  0.8758  0.1854 -0.7837
  862MOL0     C13670  10.122   2.643   7.348 -0.2259  0.1872  0.0222
  862MOL0     C13671  10.044   2.751   7.320 -0.4711  0.8146  0.0751
  862MOL0     C13672   9.950   2.834   7.406  0.1288  0.5159 -0.5354
  862MOL0     C13673  10.014   2.971   7.439 -0.2896 -0.4509 -0.0140
  862MOL0     C13674   9.935   3.073   7.532  0.6658 -0.3657  0.3852
  862MOL0     C13675   9.786   3.110   7.490  0.5442  0.7319 -0.6073
  862MOL0     O13676   9.729   3.205   7.590  0.0699  0.6742  0.0916
  862MOL0     C13677   9.609   3.256   7.557 -1.0473 -1.0811 -0.2945
  862MOL0     C13678   9.533   3.223   7.446  0.7365 -0.4960 -0.6625
  862MOL0     C13679   9.406   3.275   7.427 -0.5166 -0.2108 -0.7483
  862MOL0     C13680   9.361   3.373   7.522 -0.1796  1.3907  0.1805
  862MOL0     C13681   9.226   3.432   7.488  0.4561 -0.6006 -0.1297
  862MOL0     O13682   9.161   3.391   7.370 -0.5229  0.1791  0.4759
  862MOL0     C13683   9.033   3.422   7.334  0.0031  0.3839 -0.6920
  862MOL0     C13684   8.997   3.361   7.210  0.6656  0.5486 -0.2533
  862MOL0     C13685   8.872   3.395   7.148 -0.2382  0.3854  0.1641
  862MOL0     C13686   8.778   3.471   7.214 -0.2255  0.2544 -0.4511
  862MOL0     O13687   8.651   3.484   7.169  0.2483  0.4173  0.5400
  862MOL0     C13688   8.627   3.484   7.026 -0.2703 -0.7006 -0.3438
  862MOL0     C13689   8.483   3.500   7.007  0.1483  0.4011 -0.6544
  862MOL0     C13690   8.418   3.616   7.089 -0.8966 -0.0187 -0.6889
  862MOL0     C13691   8.296   3.665   7.021 -0.1457  0.5432  0.2708
  862MOL0     C13692   8.184   3.728   7.110 -0.2128 -0.0557 -0.9585
  862MOL0     C13693   8.076   3.817   7.040  1.0468 -0.1595  0.5517
  862MOL0     C13694   7.987   3.724   6.961  0.4600  0.1039  0.6990
  862MOL0     C13695   7.875   3.803   6.893  0.5453  0.2969 -0.1143
  862MOL0    Cl13696   7.935   3.878   6.749 -0.5509 -0.4218  0.0322
  862MOL0     C13697   8.817   3.528   7.335 -0.5265  0.1861 -0.1017
  862MOL0     C13698   8.932   3.489   7.406  0.5638 -0.0030  0.4615
  862MOL0     O13699   9.185   3.527   7.559  0.3257 -0.2480 -0.2647
  862MOL0     C13700   9.437   3.408   7.634  0.4958 -0.8328 -0.0377
  862MOL0     C13701   9.559   3.342   7.651  0.7110 -0.1990 -0.2157
  862MOL0     N13702  10.063   2.787   7.195  0.0940 -0.1443 -0.3481
  862MOL0     N13703  10.139   2.698   7.139  0.7532 -0.8317  0.2870
  862MOL0     C13704   9.605   1.993   7.469  0.6496 -0.0723  0.5333
  862MOL0     C13705   9.474   2.005   7.433 -0.0545  0.4343  0.4669
  862MOL0     C13706   9.075   1.907   7.186 -1.0116 -0.2643  0.8197
  862MOL0     C13707   8.980   1.806   7.150 -0.3896 -0.2661 -0.1005
  862MOL0     C13708   8.851   1.835   7.098 -0.3900  0.5335  0.5561
  862MOL0     C13709   8.813   1.966   7.067 -1.2355  0.4472 -0.2495
  862MOL0     O13710   8.697   1.985   7.001 -0.6874  0.5476  1.0961
  862MOL0     C13711   8.656   2.119   7.006  0.7231 -0.2170  0.4221
  862MOL0     C13712   8.517   2.124   6.939  0.4165  0.1649  0.2013
  862MOL0     C13713   8.402   2.041   7.008 -0.3665  0.5380  0.3736
  862MOL0     C13714   8.271   2.127   6.998  0.2074 -0.1559  0.2402
  862MOL0     C13715   8.267   2.228   7.106  1.3176  1.2173 -0.0775
  862MOL0     C13716   8.261   2.313   7.194 -0.1331 -0.0670 -0.4919
  862MOL0     C13717   8.920   2.061   7.083 -0.2581 -0.7767 -1.3750
  862MOL0     C13718   9.046   2.033   7.146  0.2800 -0.7629 -0.0397
  862MOL0     H13719   9.459   1.754   7.204  0.9648  0.2819 -0.9737
  862MOL0     H13720   9.689   1.738   7.276 -2.2288  1.0000 -0.2788
  862MOL0     H13721   9.881   1.867   7.254  1.0998 -0.3443 -0.2481
  862MOL0     H13722   9.929   1.742   7.357  0.0399 -1.0897  1.9067
  862MOL0     H13723  10.123   1.914   7.300 -1.5858  0.1422 -0.6837
  862MOL0     H13724  10.094   1.902   7.474  1.9363 -1.8934 -1.1326
  862MOL0     H13725   9.954   2.100   7.461  1.3464  1.5831  0.2194
  862MOL0     H13726   9.972   2.094   7.287  3.5648  2.1552 -1.3947
  862MOL0     H13727  10.098   2.260   7.417 -4.2135 -2.3352  4.1760
  862MOL0     H13728  10.199   2.122   7.472 -2.8161 -0.0711  1.3497
  862MOL0     H13729  10.279   2.070   7.241  1.1303 -0.2516  0.4738
  862MOL0     H13730  10.326   2.225   7.307  0.2647  0.5359 -0.9354
  862MOL0     H13731  10.095   2.140   7.120  3.1066 -2.2465 -4.9402
  862MOL0     H13732  10.232   2.214   7.059 -0.5746  0.4471 -0.5004
  862MOL0     H13733  10.055   2.390   7.078 -2.9700  1.7993  2.5070
  862MOL0     H13734  10.050   2.379   7.254  0.9087 -3.6637  1.7355
  862MOL0     H13735  10.278   2.487   7.089  0.2963  1.2336  0.2800
  862MOL0     H13736  10.304   2.432   7.250  0.8534 -0.1043 -0.9196
  862MOL0     H13737  10.129   2.593   7.444  2.0801 -0.9354 -0.6613
  862MOL0     H13738   9.927   2.781   7.498 -1.6621  0.1067 -1.1832
  862MOL0     H13739   9.851   2.844   7.360  0.0170 -1.5900 -0.8320
  862MOL0     H13740  10.013   3.016   7.339  0.9067  0.2128  0.2576
  862MOL0     H13741  10.119   2.967   7.467 -0.0354  2.0430 -0.3463
  862MOL0     H13742   9.936   3.020   7.628  1.7543 -1.1890 -0.0549
  862MOL0     H13743   9.996   3.163   7.543  0.6220 -0.3941  0.8539
  862MOL0     H13744   9.720   3.025   7.475 -0.3516  1.0733  1.2029
  862MOL0     H13745   9.795   3.158   7.392  0.1482  3.5029  0.5998
  862MOL0     H13746   9.564   3.154   7.369  1.5398  0.3938 -1.1552
  862MOL0     H13747   9.352   3.250   7.337  0.7157 -0.7800 -1.3549
  862MOL0     H13748   9.065   3.299   7.152 -2.1491 -2.3805 -0.6372
  862MOL0     H13749   8.851   3.337   7.058 -3.3769  1.9916 -0.2739
  862MOL0     H13750   8.659   3.391   6.977  1.2401 -0.8202  0.8008
  862MOL0     H13751   8.672   3.572   6.979 -1.7887 -1.0526 -2.5870
  862MOL0     H13752   8.432   3.409   7.038 -0.0022  0.0944 -1.7522
  862MOL0     H13753   8.453   3.515   6.902  1.4311  1.8155 -0.8540
  862MOL0     H13754   8.482   3.704   7.086  0.5173 -0.9995 -0.3784
  862MOL0     H13755   8.398   3.585   7.192 -0.6015  1.2144 -0.2431
  862MOL0     H13756   8.311   3.744   6.946  0.2223  2.3836  2.1809
  862MOL0     H13757   8.253   3.578   6.970 -1.3977  0.2024  1.8207
  862MOL0     H13758   8.236   3.790   7.185  1.2931 -1.4479 -0.7928
  862MOL0     H13759   8.143   3.647   7.170  0.3727  0.5060  0.2580
  862MOL0     H13760   8.126   3.892   6.977  0.0020  3.3497  3.5543
  862MOL0     H13761   8.020   3.869   7.118  1.0264 -1.7360  1.6361
  862MOL0     H13762   8.042   3.662   6.890  0.0353  0.5310 -0.0024
  862MOL0     H13763   7.943   3.656   7.035 -1.7408 -0.6938 -1.2533
  862MOL0     H13764   7.832   3.877   6.961 -4.3882 -1.9630 -0.3072
  862MOL0     H13765   7.789   3.737   6.876 -1.5266  3.0154 -0.7694
  862MOL0     H13766   8.747   3.590   7.390  0.3211  1.0947 -0.0250
  862MOL0     H13767   8.945   3.529   7.506  0.6697  1.8380 -0.2451
  862MOL0     H13768   9.393   3.477   7.706 -1.0831 -2.8098  0.9957
  862MOL0     H13769   9.617   3.361   7.740  0.7112  1.8954 -0.6118
  862MOL0     H13770   9.637   2.057   7.551  1.1435  1.0115 -0.4768
  862MOL0     H13771   9.413   2.074   7.489  0.0956  1.0442 -0.1101
  862MOL0     H13772   8.994   1.700   7.169 -0.6106 -0.4742 -1.0233
  862MOL0     H13773   8.777   1.756   7.084  0.6868 -0.6645  1.3508
  862MOL0     H13774   8.713   2.193   6.950  0.3873  0.0233  0.3880
  862MOL0     H13775   8.667   2.156   7.109 -1.1344  1.8351 -0.0240
  862MOL0     H13776   8.498   2.232   6.935  0.2135  0.1444  0.5533
  862MOL0     H13777   8.520   2.098   6.832 -0.8922  2.1000 -0.3642
  862MOL0     H13778   8.432   2.042   7.113  1.0860 -0.8102  0.0090
  862MOL0     H13779   8.389   1.939   6.972 -3.3704  0.3061  1.7885
  862MOL0     H13780   8.257   2.186   6.907 -0.0011  1.0421  1.0222
  862MOL0     H13781   8.189   2.054   7.003  0.1270 -0.0395  0.6906
  862MOL0     H13782   8.250   2.396   7.261  0.4377  1.8071 -2.6114
  862MOL0     H13783   8.912   2.162   7.044  2.0637  0.2205  0.4765
  862MOL0     H13784   9.116   2.113   7.167  0.8236 -1.6699  1.8098
  863MOL0     O13785   7.075   7.055  10.720 -0.2997 -1.0345 -0.1529
  863MOL0     C13786   7.155   7.130  10.660  0.0292 -0.0812  0.2405
  863MOL0     O13787   7.128   7.200  10.545  0.5904 -0.8092 -0.5547
  863MOL0     C13788   6.997   7.195  10.496  0.1242  0.4080  0.1243
  863MOL0     C13789   6.889   7.232  10.577 -0.3538 -0.0562 -0.6331
  863MOL0     C13790   6.759   7.237  10.518 -0.2991  0.3150  0.0744
  863MOL0     C13791   6.734   7.189  10.386 -1.4705 -0.4298 -0.1674
  863MOL0     O13792   6.608   7.167  10.329 -0.4075  0.1968 -0.1903
  863MOL0     C13793   6.488   7.182  10.401  0.0286  0.2704  0.6393
  863MOL0     C13794   6.367   7.132  10.328 -0.0660 -0.0188  0.1103
  863MOL0     C13795   6.329   7.185  10.196  1.2366  0.0447  0.5928
  863MOL0     C13796   6.298   7.338  10.215  0.1006 -0.6292  0.4085
  863MOL0     C13797   6.270   7.416  10.078 -0.5993 -0.0726  0.5910
  863MOL0     C13798   6.405   7.420   9.988  0.1794 -0.2174  0.2058
  863MOL0     C13799   6.390   7.517   9.871  0.0991 -0.5623  0.5093
  863MOL0     C13800   6.353   7.655   9.910  1.2928  0.1429 -0.2602
  863MOL0     N13801   6.357   7.745   9.789 -0.2397 -0.2517  0.5361
  863MOL0     C13802   6.271   7.744   9.682 -0.5508  0.2407  0.2971
  863MOL0     C13803   6.333   7.816   9.592 -0.3653 -0.4925  0.2271
  863MOL0     C13804   6.301   7.830   9.444  0.4900  0.2263  0.3103
  863MOL0     C13805   6.192   7.933   9.422 -0.7289  0.9636 -0.6857
  863MOL0     C13806   6.220   8.080   9.479  0.1586 -0.0881 -0.2642
  863MOL0     C13807   6.341   8.151   9.433 -0.1670  0.0938  0.7673
  863MOL0     O13808   6.320   8.206   9.301 -0.2589 -0.2394 -0.4132
  863MOL0     C13809   6.408   8.306   9.254 -0.2245  0.6577  0.1068
  863MOL0     C13810   6.518   8.361   9.320  0.5034 -0.7617 -1.1998
  863MOL0     C13811   6.608   8.451   9.256 -0.1354  0.7979 -0.4916
  863MOL0     C13812   6.588   8.492   9.120 -0.0315 -0.2199 -0.1918
  863MOL0     C13813   6.675   8.593   9.056  0.1780 -0.5415  0.2223
  863MOL0     O13814   6.760   8.667   9.138  0.5275  0.7984  0.9572
  863MOL0     C13815   6.844   8.753   9.091  0.1885  0.3752  0.4098
  863MOL0     C13816   6.937   8.711   9.001  1.0522  0.2299  0.1983
  863MOL0     C13817   7.042   8.789   8.952 -1.1058 -0.4850 -0.3223
  863MOL0     C13818   7.059   8.915   9.013  0.3758  0.1704  0.3457
  863MOL0     O13819   7.154   8.986   8.958  0.4523 -0.0933 -0.2472
  863MOL0     C13820   7.280   8.967   9.020  0.2278 -0.2895  0.1490
  863MOL0     C13821   7.396   9.032   8.956  0.0920  0.3230 -0.0689
  863MOL0     C13822   7.417   8.994   8.804  0.1321  0.1825  0.1781
  863MOL0     C13823   7.454   8.845   8.787 -1.4285 -0.7578 -0.0756
  863MOL0     C13824   7.479   8.815   8.640  0.0303 -0.4136 -0.7423
  863MOL0     C13825   7.572   8.909   8.556 -0.7616 -0.2148  0.0965
  863MOL0     C13826   7.512   9.044   8.506  0.3400  0.2842  0.7186
  863MOL0     C13827   7.420   9.013   8.388 -0.0250  0.6684  0.0787
  863MOL0    Cl13828   7.358   9.182   8.329 -0.1350  0.6258 -0.6428
  863MOL0     C13829   6.974   8.961   9.116  0.7357 -0.3237 -0.1798
  863MOL0     C13830   6.868   8.875   9.155  0.1672  0.0070 -1.2828
  863MOL0     O13831   6.662   8.606   8.936 -0.3074 -0.6426  0.1230
  863MOL0     C13832   6.468   8.443   9.058  0.0011  0.3309  0.0056
  863MOL0     C13833   6.389   8.350   9.124  0.2969 -0.7157  0.0759
  863MOL0     N13834   6.447   7.873   9.641  0.4695  0.4092  0.0073
  863MOL0     N13835   6.463   7.828   9.759 -0.2340  0.9606 -0.4662
  863MOL0     C13836   6.847   7.152  10.308 -0.4887 -0.2676 -0.8214
  863MOL0     C13837   6.973   7.141  10.364 -0.2342 -0.5559 -0.5911
  863MOL0     C13838   7.289   7.156  10.722 -0.3880  0.6651  0.5072
  863MOL0     C13839   7.369   7.259  10.672 -0.1388  0.9890 -0.2373
  863MOL0     C13840   7.492   7.295  10.722  0.4062 -0.5554 -0.2042
  863MOL0     C13841   7.547   7.222  10.827  0.2740  0.4792  0.6615
  863MOL0     O13842   7.679   7.239  10.870 -0.0599  0.2284  0.5062
  863MOL0     C13843   7.746   7.122  10.895 -1.0650  0.5049 -0.6060
  863MOL0     C13844   7.894   7.123  10.884 -0.4539  0.9612 -1.2978
  863MOL0     C13845   7.933   7.182  10.751  0.1177  0.0416 -0.2653
  863MOL0     C13846   8.078   7.183  10.723  0.7167  0.3193  0.6839
  863MOL0     C13847   8.170   7.208  10.833 -0.0572 -0.4793 -0.3954
  863MOL0     C13848   8.266   7.219  10.916 -0.4825  1.2423  0.3727
  863MOL0     C13849   7.464   7.120  10.880 -0.5623 -0.5348 -0.0253
  863MOL0     C13850   7.339   7.088  10.833  0.3676 -0.0540  0.1322
  863MOL0     H13851   6.911   7.239  10.683 -1.0873 -0.5479 -0.4355
  863MOL0     H13852   6.682   7.272  10.587 -0.2149  0.0591  0.2988
  863MOL0     H13853   6.468   7.281  10.441 -0.3172 -0.3534  2.0858
  863MOL0     H13854   6.494   7.116  10.489 -2.1004 -0.9469 -0.0538
  863MOL0     H13855   6.273   7.131  10.384 -0.8772 -1.0419 -1.2253
  863MOL0     H13856   6.397   7.027  10.319 -1.9098 -0.4219 -2.2605
  863MOL0     H13857   6.250   7.127  10.148  1.1609 -2.0326  3.0281
  863MOL0     H13858   6.411   7.173  10.124  2.5144  0.3337  1.9396
  863MOL0     H13859   6.203   7.350  10.268  1.1816  1.8343  1.9842
  863MOL0     H13860   6.386   7.384  10.260 -0.0278  1.4835 -1.3114
  863MOL0     H13861   6.248   7.520  10.104 -0.6389 -0.4678  2.2175
  863MOL0     H13862   6.198   7.370  10.010  0.8477  1.1737 -1.9336
  863MOL0     H13863   6.425   7.318   9.953  2.3430 -0.5211  2.0506
  863MOL0     H13864   6.495   7.456  10.038  1.1070 -0.4405 -1.2417
  863MOL0     H13865   6.485   7.532   9.818 -0.0099  1.7934  0.8610
  863MOL0     H13866   6.308   7.484   9.807 -2.3508  3.5506  1.1535
  863MOL0     H13867   6.412   7.694   9.993  0.8392 -0.6504  0.4501
  863MOL0     H13868   6.248   7.647   9.938  1.4650  0.8657  0.6623
  863MOL0     H13869   6.180   7.690   9.658  0.1752  0.2030 -2.8440
  863MOL0     H13870   6.273   7.737   9.394  1.4957  0.1436 -0.1316
  863MOL0     H13871   6.393   7.861   9.393 -0.0641 -1.7035 -2.0435
  863MOL0     H13872   6.097   7.900   9.465 -0.6285  0.4078 -0.8792
  863MOL0     H13873   6.184   7.944   9.314  1.0041  0.6165 -0.8732
  863MOL0     H13874   6.143   8.152   9.450 -0.8059  0.9888  4.2014
  863MOL0     H13875   6.220   8.085   9.588  1.3146 -1.0621 -0.1989
  863MOL0     H13876   6.426   8.082   9.439 -0.6119 -0.3412  2.9713
  863MOL0     H13877   6.364   8.235   9.499  1.0188  2.5721 -2.5195
  863MOL0     H13878   6.533   8.323   9.421  0.1428 -3.0466 -1.9488
  863MOL0     H13879   6.693   8.488   9.312  0.2867  1.6604 -1.6591
  863MOL0     H13880   6.924   8.613   8.956 -2.0135  0.6617 -0.0537
  863MOL0     H13881   7.112   8.757   8.876  2.0778 -0.5639  2.3620
  863MOL0     H13882   7.299   8.860   9.027  0.4274 -0.2237  0.6243
  863MOL0     H13883   7.273   9.005   9.122 -1.2565  0.4195 -0.1898
  863MOL0     H13884   7.484   9.001   9.012 -1.4492 -2.5825  0.9794
  863MOL0     H13885   7.385   9.141   8.962 -3.2043  0.4629 -4.0530
  863MOL0     H13886   7.487   9.071   8.771  0.2703  0.5145  1.2102
  863MOL0     H13887   7.319   9.007   8.757  0.0921  2.1476  0.7376
  863MOL0     H13888   7.546   8.825   8.843 -0.9453 -1.1214 -0.9911
  863MOL0     H13889   7.393   8.763   8.826 -0.5703 -2.2440 -1.7522
  863MOL0     H13890   7.375   8.814   8.606 -0.1668  1.1900 -0.2848
  863MOL0     H13891   7.514   8.712   8.636 -1.1018 -0.8731  0.4490
  863MOL0     H13892   7.609   8.860   8.465 -3.5341  0.9223 -1.7918
  863MOL0     H13893   7.655   8.936   8.622 -1.3403 -1.5857  1.4409
  863MOL0     H13894   7.441   9.096   8.572  0.5970  1.3209  0.2034
  863MOL0     H13895   7.593   9.113   8.480  0.2128 -0.0992 -0.7492
  863MOL0     H13896   7.333   8.957   8.423 -0.3255  2.4310  2.4385
  863MOL0     H13897   7.466   8.963   8.303  0.7486  2.6948 -0.7468
  863MOL0     H13898   6.994   9.063   9.146 -0.6019  0.5102 -1.8746
  863MOL0     H13899   6.805   8.906   9.238 -4.1857 -1.8466 -3.5470
  863MOL0     H13900   6.444   8.477   8.958  4.1036 -0.3584 -1.4064
  863MOL0     H13901   6.294   8.319   9.081  0.3683  0.2182 -0.8088
  863MOL0     H13902   6.837   7.118  10.205 -0.0148  0.5049 -1.1329
  863MOL0     H13903   7.048   7.114  10.290  1.2241  0.1404  0.5798
  863MOL0     H13904   7.317   7.316  10.596 -1.6457  0.0153  0.0072
  863MOL0     H13905   7.558   7.371  10.680  0.9839 -0.8288  0.1970
  863MOL0     H13906   7.704   7.049  10.825 -0.3650 -0.9598  0.4426
  863MOL0     H13907   7.722   7.093  10.997  1.3763  1.7929  0.4152
  863MOL0     H13908   7.928   7.180  10.971  1.2692 -3.1537  0.9881
  863MOL0     H13909   7.929   7.020  10.876 -0.0817  1.0535 -0.8871
  863MOL0     H13910   7.887   7.279  10.731  0.8674 -0.0044 -2.4641
  863MOL0     H13911   7.903   7.122  10.665  1.7139 -0.2541 -0.6508
  863MOL0     H13912   8.111   7.084  10.693  4.2358  1.6639 -0.4917
  863MOL0     H13913   8.095   7.252  10.640  2.2754 -0.0052  0.7084
  863MOL0     H13914   8.349   7.207  10.983 -0.0241  0.8017 -0.2669
  863MOL0     H13915   7.504   7.052  10.955  4.5175  1.1806 -0.8016
  863MOL0     H13916   7.280   7.017  10.891  2.3778 -1.1689  0.9180
  864MOL0     O13917   9.562   3.928  10.656 -0.3111 -0.5004  0.3305
  864MOL0     C13918   9.575   3.938  10.775 -0.9280  0.5821 -0.6320
  864MOL0     O13919   9.516   4.029  10.854  0.3104  0.0402 -0.3046
  864MOL0     C13920   9.440   4.121  10.799  0.9135 -0.0811  0.9923
  864MOL0     C13921   9.332   4.088  10.717  0.4768 -0.1301 -0.0660
  864MOL0     C13922   9.248   4.195  10.667 -0.9516  1.1811 -0.4318
  864MOL0     C13923   9.268   4.329  10.691  0.1924 -0.0681 -0.6451
  864MOL0     O13924   9.195   4.426  10.634 -0.4321 -0.1112  0.3950
  864MOL0     C13925   9.060   4.397  10.619  0.1880 -0.3120  0.4947
  864MOL0     C13926   8.979   4.523  10.608 -0.8071  0.3889  0.7589
  864MOL0     C13927   8.832   4.490  10.583 -0.1438 -0.9657 -0.5344
  864MOL0     C13928   8.765   4.628  10.586 -0.1458 -0.3224  0.1579
  864MOL0     C13929   8.619   4.620  10.535  0.3710 -0.6758 -0.7285
  864MOL0     C13930   8.523   4.581  10.650  0.7285  0.2361  0.1579
  864MOL0     C13931   8.370   4.591  10.618 -0.2629  0.0303 -0.4482
  864MOL0     C13932   8.302   4.528  10.501  0.3933 -0.3397 -0.1407
  864MOL0     N13933   8.317   4.390  10.504  0.3875  0.3990  0.2214
  864MOL0     C13934   8.423   4.312  10.466  0.4245 -0.0639  0.5632
  864MOL0     C13935   8.420   4.200  10.540  0.7462  0.0484  0.1111
  864MOL0     C13936   8.526   4.093  10.531  0.4806  0.7773  0.4619
  864MOL0     C13937   8.637   4.125  10.625 -0.3238  0.3275  0.3384
  864MOL0     C13938   8.743   4.006  10.653  0.1142 -0.2874  0.2709
  864MOL0     C13939   8.843   4.044  10.763  0.0554  0.0385 -0.0727
  864MOL0     O13940   8.949   3.953  10.768 -0.6170 -0.0946 -0.8103
  864MOL0     C13941   9.027   3.954  10.885  0.2914 -0.3569  0.1883
  864MOL0     C13942   9.012   4.040  10.990  0.6936 -0.4050  0.6435
  864MOL0     C13943   9.100   4.027  11.096  0.6263 -0.4363  0.1123
  864MOL0     C13944   9.211   3.949  11.100  0.0970  0.6180 -0.7390
  864MOL0     C13945   9.302   3.932  11.226  0.3184  0.1513  1.3007
  864MOL0     O13946   9.353   3.810  11.258 -0.1434  0.5274 -0.0280
  864MOL0     C13947   9.468   3.797  11.326 -0.1643  0.6438 -0.1141
  864MOL0     C13948   9.473   3.696  11.424 -0.2746 -0.5177  0.3013
  864MOL0     C13949   9.585   3.694  11.506  0.3092 -0.0252 -0.1816
  864MOL0     C13950   9.707   3.762  11.479  0.2325 -0.4531  0.2947
  864MOL0     O13951   9.820   3.757  11.553 -0.2867 -0.0314 -0.5657
  864MOL0     C13952   9.834   3.621  11.612  0.9914 -0.5733  0.2920
  864MOL0     C13953   9.974   3.564  11.606  0.8155 -0.3931  0.4970
  864MOL0     C13954  10.017   3.492  11.718  0.5149  0.4811 -0.1054
  864MOL0     C13955  10.173   3.478  11.696  0.5437 -0.5759  0.3469
  864MOL0     C13956  10.251   3.443  11.828 -0.1032  0.3951  0.4780
  864MOL0     C13957  10.405   3.453  11.806  0.3159 -0.8236  0.3925
  864MOL0     C13958  10.459   3.355  11.702  0.6224 -0.0109 -0.2725
  864MOL0     C13959  10.607   3.314  11.731  0.1671  0.5117  0.1633
  864MOL0    Cl13960  10.632   3.134  11.707  0.0993 -0.4561  1.1157
  864MOL0     C13961   9.709   3.849  11.373  0.5847 -0.1020  1.0431
  864MOL0     C13962   9.586   3.882  11.305  0.5953 -0.3801 -0.0858
  864MOL0     O13963   9.326   4.037  11.283  0.2012 -0.5903 -0.7525
  864MOL0     C13964   9.225   3.854  10.991  0.1042 -0.0416 -0.0863
  864MOL0     C13965   9.134   3.864  10.879  0.0949 -0.4931  0.8238
  864MOL0     N13966   8.320   4.215  10.634 -0.1358  0.2767  0.2414
  864MOL0     N13967   8.252   4.320  10.601 -0.1811 -0.1449 -1.1107
  864MOL0     C13968   9.381   4.354  10.766 -1.3360  0.4091  0.2675
  864MOL0     C13969   9.455   4.254  10.838 -0.9830  0.0935  0.4179
  864MOL0     C13970   9.644   3.829  10.840 -0.1321  0.1339 -0.2998
  864MOL0     C13971   9.745   3.749  10.768  0.3561 -0.2676  0.6089
  864MOL0     C13972   9.810   3.640  10.835  1.6196  1.0834 -0.1765
  864MOL0     C13973   9.783   3.602  10.970 -0.1640 -0.1911  0.7532
  864MOL0     O13974   9.847   3.493  11.012 -0.3378  0.0931 -0.7620
  864MOL0     C13975   9.827   3.437  11.142 -0.0862  0.6531  0.3547
  864MOL0     C13976   9.947   3.343  11.177  0.3208 -0.7518  0.7641
  864MOL0     C13977   9.916   3.265  11.304 -0.1812  0.3244 -0.4579
  864MOL0     C13978  10.036   3.169  11.328  0.3469 -0.5736 -0.3916
  864MOL0     C13979  10.012   3.092  11.451 -0.9726 -0.5084  0.7241
  864MOL0     C13980  10.004   3.051  11.564  1.1464  0.5787  0.6309
  864MOL0     C13981   9.674   3.673  11.037  0.1233 -0.0421 -0.1825
  864MOL0     C13982   9.607   3.778  10.970  0.0158 -0.9919  0.2033
  864MOL0     H13983   9.316   3.986  10.683  0.3529  0.5430 -2.1210
  864MOL0     H13984   9.175   4.171  10.589 -1.4136  0.0350  0.3284
  864MOL0     H13985   9.021   4.336  10.701  0.4357 -3.7924 -1.7642
  864MOL0     H13986   9.039   4.342  10.527  1.6163 -0.9816  0.5397
  864MOL0     H13987   9.007   4.600  10.536 -1.7656  0.8798  0.8999
  864MOL0     H13988   8.992   4.570  10.706 -0.9978  0.0840  0.9320
  864MOL0     H13989   8.791   4.432  10.666 -2.4365  1.4612  0.1741
  864MOL0     H13990   8.812   4.441  10.487 -0.8736 -0.4089 -0.6738
  864MOL0     H13991   8.763   4.672  10.686  0.9034 -2.6389  1.2803
  864MOL0     H13992   8.811   4.699  10.517 -1.8147 -0.7150 -1.4284
  864MOL0     H13993   8.614   4.551  10.451 -0.0777 -2.5548  0.7761
  864MOL0     H13994   8.586   4.714  10.489 -0.6704 -0.2596  0.7838
  864MOL0     H13995   8.532   4.648  10.735 -1.7945 -0.5707  1.1542
  864MOL0     H13996   8.544   4.477  10.677 -4.4436 -0.7660  1.4391
  864MOL0     H13997   8.324   4.539  10.702  1.6196 -2.7813 -1.0397
  864MOL0     H13998   8.347   4.698  10.619 -2.1563 -0.3275  1.4723
  864MOL0     H13999   8.352   4.559  10.409 -2.5826 -1.7404 -2.3728
  864MOL0     H14000   8.199   4.563  10.502  0.8962  1.3156 -1.6603
  864MOL0     H14001   8.508   4.325  10.400  2.0136 -0.8299  2.3434
  864MOL0     H14002   8.560   4.071  10.429 -2.7049  0.1670 -0.5743
  864MOL0     H14003   8.482   3.998  10.564  3.1971 -0.3659  1.0871
  864MOL0     H14004   8.603   4.169  10.719  0.2358 -1.0038  1.1979
  864MOL0     H14005   8.692   4.195  10.562 -1.9063  0.4964 -0.9237
  864MOL0     H14006   8.672   3.926  10.679  0.4838 -0.2077  1.5985
  864MOL0     H14007   8.797   3.989  10.560 -1.7218  3.0355 -1.5614
  864MOL0     H14008   8.777   4.041  10.850  0.0301  1.8780  0.0109
  864MOL0     H14009   8.891   4.141  10.745 -1.3564  0.7692 -0.0867
  864MOL0     H14010   8.939   4.120  10.991  0.5089 -0.5753  1.8542
  864MOL0     H14011   9.090   4.099  11.177  4.9975  1.1679 -0.5114
  864MOL0     H14012   9.386   3.636  11.447 -3.0465  2.4325 -1.7133
  864MOL0     H14013   9.578   3.629  11.593 -2.3897 -1.2898 -1.2550
  864MOL0     H14014   9.778   3.550  11.550 -1.1370  0.8043  0.5355
  864MOL0     H14015   9.788   3.630  11.711 -1.9432  1.4530 -1.0731
  864MOL0     H14016  10.025   3.659  11.587 -3.7356  1.9015 -2.1655
  864MOL0     H14017   9.973   3.507  11.513 -2.2170 -3.2933  2.1117
  864MOL0     H14018   9.965   3.395  11.722 -0.8499  1.2293  1.6384
  864MOL0     H14019   9.997   3.536  11.816 -1.3420  0.0406 -0.2460
  864MOL0     H14020  10.200   3.407  11.618  0.5997  0.7756 -0.9072
  864MOL0     H14021  10.210   3.579  11.674 -0.5645 -0.2396 -0.0033
  864MOL0     H14022  10.223   3.342  11.858  2.0655 -1.2923 -2.6483
  864MOL0     H14023  10.228   3.514  11.909 -0.2518  1.0175 -0.0951
  864MOL0     H14024  10.462   3.452  11.899 -0.0227 -2.6491  0.6217
  864MOL0     H14025  10.424   3.552  11.764 -2.2033 -0.6742 -0.5637
  864MOL0     H14026  10.399   3.264  11.706  2.2522 -1.0808  2.9403
  864MOL0     H14027  10.440   3.401  11.604 -1.6547  1.6900  0.8440
  864MOL0     H14028  10.613   3.314  11.840 -5.3828 -0.0449  0.7679
  864MOL0     H14029  10.682   3.372  11.677  0.5314 -1.6319 -1.8059
  864MOL0     H14030   9.788   3.922  11.359 -0.0759  1.0592  2.9068
  864MOL0     H14031   9.578   3.967  11.239  1.3261  0.9855  1.5269
  864MOL0     H14032   9.309   3.786  10.980  0.1902  0.1652 -0.7362
  864MOL0     H14033   9.163   3.802  10.796 -0.7489 -1.0327  0.9244
  864MOL0     H14034   9.422   4.454  10.759 -1.8969  0.8215  2.3571
  864MOL0     H14035   9.531   4.297  10.902 -1.0266 -0.1625  0.6423
  864MOL0     H14036   9.779   3.761  10.666  1.2390  0.0637  0.9331
  864MOL0     H14037   9.892   3.593  10.781 -0.9765 -1.0277 -2.6075
  864MOL0     H14038   9.734   3.379  11.147  1.4434 -1.8076  2.6988
  864MOL0     H14039   9.823   3.514  11.220  0.3983 -0.4369  1.4917
  864MOL0     H14040   9.959   3.268  11.098 -0.8650 -0.2441  0.0623
  864MOL0     H14041  10.040   3.396  11.198  1.1811 -1.8397 -0.1377
  864MOL0     H14042   9.824   3.206  11.300  0.1136 -0.2923  1.2220
  864MOL0     H14043   9.908   3.333  11.390  1.7978  2.1774 -1.6193
  864MOL0     H14044  10.032   3.101  11.242 -1.8552 -3.1484  1.5320
  864MOL0     H14045  10.127   3.228  11.336  0.4558 -0.8531  0.5008
  864MOL0     H14046  10.007   3.006  11.661  2.5153 -3.4256 -1.0451
  864MOL0     H14047   9.646   3.661  11.141  0.4905  1.1861  0.0803
  864MOL0     H14048   9.534   3.832  11.030  0.8417 -0.6450  0.9186
  865MOL0     O14049   9.002   4.992   1.281 -0.1888  0.9065 -1.2066
  865MOL0     C14050   9.062   5.031   1.378 -0.2926  0.1600  0.4055
  865MOL0     O14051   9.019   5.102   1.480  0.4084 -0.5097  0.1807
  865MOL0     C14052   8.890   5.154   1.476  0.0141 -0.0573 -0.6199
  865MOL0     C14053   8.766   5.085   1.445 -1.1993 -0.1408 -0.8166
  865MOL0     C14054   8.634   5.144   1.466 -0.2066 -0.5575 -0.0739
  865MOL0     C14055   8.630   5.275   1.528 -0.6666  0.5714 -0.4947
  865MOL0     O14056   8.513   5.353   1.532 -0.2947 -0.1748 -0.0797
  865MOL0     C14057   8.387   5.304   1.491  0.3571 -0.1405  0.2729
  865MOL0     C14058   8.311   5.219   1.594 -0.1597 -0.1457 -0.6596
  865MOL0     C14059   8.205   5.129   1.529  0.1124 -0.0056 -0.5187
  865MOL0     C14060   8.097   5.090   1.637 -0.0315  0.4441 -0.2535
  865MOL0     C14061   8.021   4.959   1.615 -0.3048 -0.4812 -0.5533
  865MOL0     C14062   8.116   4.836   1.635  0.6216  0.4300  0.7419
  865MOL0     C14063   8.056   4.695   1.600  0.1300  0.0685  0.1162
  865MOL0     C14064   8.035   4.684   1.455  0.0703 -0.7343  0.1520
  865MOL0     N14065   7.968   4.560   1.418  0.4107  0.8103 -0.2213
  865MOL0     C14066   8.012   4.437   1.418 -0.3249 -0.9984 -0.3451
  865MOL0     C14067   7.907   4.356   1.399 -0.3071 -0.6027 -0.4728
  865MOL0     C14068   7.917   4.203   1.365 -0.4600 -0.4112 -0.1167
  865MOL0     C14069   7.898   4.178   1.217  0.3971  0.3558  0.6103
  865MOL0     C14070   7.896   4.027   1.184  0.3630  0.7500  0.1227
  865MOL0     C14071   7.998   3.921   1.242 -0.2289 -0.4569  0.2760
  865MOL0     O14072   8.128   3.975   1.213  0.5429 -0.0095 -0.2029
  865MOL0     C14073   8.233   3.909   1.269  0.1640 -0.4731  0.9581
  865MOL0     C14074   8.357   3.941   1.222 -0.0630 -0.6872 -0.8829
  865MOL0     C14075   8.468   3.883   1.274 -0.5275  0.1021  0.1346
  865MOL0     C14076   8.468   3.773   1.370  0.4864  0.0090  0.1582
  865MOL0     C14077   8.596   3.699   1.406  0.5097 -0.1439 -0.6298
  865MOL0     O14078   8.600   3.650   1.532 -0.0469 -0.2588 -0.8219
  865MOL0     C14079   8.678   3.548   1.583 -0.6618 -0.2870  0.4301
  865MOL0     C14080   8.628   3.495   1.702 -1.1030  0.7165  0.1855
  865MOL0     C14081   8.710   3.394   1.762 -0.8624  0.2910 -0.1881
  865MOL0     C14082   8.830   3.342   1.703  1.8681  0.1372  0.2484
  865MOL0     O14083   8.923   3.246   1.762  0.4534 -0.6035 -0.7215
  865MOL0     C14084   8.909   3.216   1.905  0.3408 -0.5975 -0.0854
  865MOL0     C14085   9.013   3.118   1.956 -0.1849 -0.0457  0.4483
  865MOL0     C14086   9.162   3.142   1.913 -0.5253 -0.3757 -0.4669
  865MOL0     C14087   9.255   3.029   1.966 -0.2306  0.3674  0.3425
  865MOL0     C14088   9.402   3.067   1.950 -0.0982 -0.3433 -0.8689
  865MOL0     C14089   9.493   2.966   2.013  0.0672  0.3197  0.5965
  865MOL0     C14090   9.542   2.867   1.907  0.6233 -0.2936  0.5084
  865MOL0     C14091   9.597   2.739   1.962 -1.1813  0.5058  0.0610
  865MOL0    Cl14092   9.614   2.618   1.837  0.3862 -0.0971  0.0226
  865MOL0     C14093   8.863   3.403   1.585  0.7504  0.8699  0.5094
  865MOL0     C14094   8.795   3.502   1.518 -0.2942  0.0635 -0.4725
  865MOL0     O14095   8.676   3.674   1.314  0.2459  0.2013  0.0126
  865MOL0     C14096   8.335   3.747   1.422  0.5660  0.5327 -0.5486
  865MOL0     C14097   8.221   3.809   1.368  0.1281 -0.2266 -0.4032
  865MOL0     N14098   7.793   4.428   1.384 -0.6222 -0.8066  0.0173
  865MOL0     N14099   7.829   4.550   1.400 -0.2952  0.1536  0.0584
  865MOL0     C14100   8.755   5.328   1.573  1.3506 -1.0470 -1.2176
  865MOL0     C14101   8.878   5.273   1.554  0.9621  0.1903  0.1711
  865MOL0     C14102   9.201   4.986   1.409  0.3748  0.1527 -1.0110
  865MOL0     C14103   9.239   4.867   1.350 -0.6743  0.1165  0.1762
  865MOL0     C14104   9.368   4.803   1.373  0.8214  1.1347 -0.9732
  865MOL0     C14105   9.463   4.886   1.445  0.1167  0.3958  0.5352
  865MOL0     O14106   9.591   4.835   1.459 -0.0742  0.1806  0.2096
  865MOL0     C14107   9.696   4.920   1.513 -0.1580  0.2418 -0.9610
  865MOL0     C14108   9.709   4.872   1.660 -1.4318 -0.1050 -0.0195
  865MOL0     C14109   9.857   4.868   1.699  0.7394  0.5633  0.0031
  865MOL0     C14110   9.923   4.729   1.669  0.0980 -0.1225  0.3175
  865MOL0     C14111  10.066   4.722   1.696 -0.4609  0.3479  0.0116
  865MOL0     C14112  10.181   4.724   1.725  0.1039  0.7100 -0.4556
  865MOL0     C14113   9.425   5.008   1.497 -0.2042  0.3480  0.4702
  865MOL0     C14114   9.294   5.053   1.485 -0.3974 -0.1727 -0.2813
  865MOL0     H14115   8.761   4.984   1.407  2.0195 -1.3466  1.5590
  865MOL0     H14116   8.536   5.109   1.433 -2.3057  1.1965  3.6802
  865MOL0     H14117   8.378   5.265   1.389 -1.7336 -0.1577  0.4222
  865MOL0     H14118   8.340   5.403   1.486  0.0836 -0.2765  0.0618
  865MOL0     H14119   8.259   5.287   1.662  1.2706  0.4214 -0.0812
  865MOL0     H14120   8.381   5.153   1.647  1.7644  1.6193 -0.8989
  865MOL0     H14121   8.236   5.035   1.483 -2.6655 -0.5878 -1.4344
  865MOL0     H14122   8.154   5.192   1.455 -0.7331  0.1521  0.1682
  865MOL0     H14123   8.151   5.079   1.732 -0.0175  2.6095  0.0461
  865MOL0     H14124   8.018   5.164   1.650 -2.7887 -2.1486 -1.1837
  865MOL0     H14125   7.975   4.956   1.516  0.9271 -0.6216 -1.1435
  865MOL0     H14126   7.948   4.961   1.697 -0.6771  2.4400 -0.8583
  865MOL0     H14127   8.173   4.825   1.729  1.0596 -0.2688  0.4030
  865MOL0     H14128   8.200   4.841   1.565  1.1087 -1.0771  1.1863
  865MOL0     H14129   8.123   4.617   1.637 -1.0409 -1.2887 -0.5683
  865MOL0     H14130   7.957   4.681   1.644  0.1978 -1.5012 -0.1975
  865MOL0     H14131   8.132   4.692   1.405  1.2135 -1.7051  2.0297
  865MOL0     H14132   7.973   4.766   1.421 -0.9173 -1.3000  0.5465
  865MOL0     H14133   8.114   4.401   1.414  0.7138  1.5648  1.0973
  865MOL0     H14134   7.840   4.145   1.416 -1.1143 -1.3623 -2.0714
  865MOL0     H14135   8.019   4.167   1.383  0.2541  2.0976  1.3597
  865MOL0     H14136   7.964   4.234   1.150 -0.7101  1.8234  0.6923
  865MOL0     H14137   7.806   4.213   1.170  1.6831  0.5608 -1.9012
  865MOL0     H14138   7.799   3.980   1.205  0.3980  0.0803 -1.1621
  865MOL0     H14139   7.911   4.012   1.077  2.8406 -2.5571  0.7803
  865MOL0     H14140   7.987   3.819   1.207 -3.0213 -0.1689  0.1053
  865MOL0     H14141   7.978   3.934   1.349 -0.2877  0.4915  0.1628
  865MOL0     H14142   8.365   4.021   1.150 -1.0323 -3.0900 -3.8753
  865MOL0     H14143   8.563   3.919   1.237 -0.5615  1.7154  1.5269
  865MOL0     H14144   8.538   3.547   1.734 -1.8651  0.0074 -0.7400
  865MOL0     H14145   8.678   3.362   1.861 -1.7106 -0.2310 -0.6149
  865MOL0     H14146   8.812   3.165   1.916 -1.0965  2.1079  0.9296
  865MOL0     H14147   8.901   3.308   1.964 -1.0832 -1.9638  1.9838
  865MOL0     H14148   8.982   3.020   1.920 -0.0069  0.1568 -0.2733
  865MOL0     H14149   9.012   3.115   2.065  2.2750 -0.4251  0.5100
  865MOL0     H14150   9.180   3.239   1.961 -3.8224  0.5237 -0.8470
  865MOL0     H14151   9.167   3.143   1.804  0.4166 -3.1384 -0.5205
  865MOL0     H14152   9.239   3.013   2.073  1.2114  2.1622  0.8825
  865MOL0     H14153   9.226   2.935   1.919  0.9529 -1.3258  2.7727
  865MOL0     H14154   9.409   3.159   2.009 -1.0469  0.1057 -1.4423
  865MOL0     H14155   9.426   3.089   1.846  0.1186  1.9749 -0.3681
  865MOL0     H14156   9.444   2.905   2.090  1.8155 -1.3196  0.4842
  865MOL0     H14157   9.579   3.021   2.052 -0.4382  2.5131 -1.1957
  865MOL0     H14158   9.450   2.844   1.852  0.8084 -1.2713  0.5840
  865MOL0     H14159   9.616   2.913   1.842 -0.5583 -0.2496 -0.8456
  865MOL0     H14160   9.529   2.699   2.039 -1.7451 -0.0597 -0.7179
  865MOL0     H14161   9.694   2.757   2.008 -1.4837  0.4571  0.7468
  865MOL0     H14162   8.943   3.359   1.526 -2.3502 -2.2948 -1.8219
  865MOL0     H14163   8.829   3.546   1.424 -2.6209  2.9628 -0.0984
  865MOL0     H14164   8.326   3.671   1.499 -0.1686 -0.1026 -1.2497
  865MOL0     H14165   8.126   3.792   1.417  0.0882  0.4451 -0.2443
  865MOL0     H14166   8.750   5.417   1.634  0.4624 -1.4150 -0.7199
  865MOL0     H14167   8.966   5.309   1.607  1.3049  2.1957 -1.6179
  865MOL0     H14168   9.173   4.811   1.285  0.6027 -0.8356 -0.3510
  865MOL0     H14169   9.389   4.706   1.331  1.2453 -0.6853  2.9687
  865MOL0     H14170   9.702   5.029   1.517  0.4135  0.1834  0.7004
  865MOL0     H14171   9.784   4.879   1.461  1.5643 -1.9871  3.1376
  865MOL0     H14172   9.665   4.949   1.725  2.9591  1.1189  1.9643
  865MOL0     H14173   9.655   4.779   1.676 -4.3801  1.5308  0.3535
  865MOL0     H14174   9.869   4.890   1.806 -2.2185  3.9211 -0.1434
  865MOL0     H14175   9.921   4.943   1.651  2.8351 -0.0420  1.7142
  865MOL0     H14176   9.873   4.657   1.734 -1.1531  1.5291  1.2411
  865MOL0     H14177   9.903   4.703   1.564  1.4825 -0.6808  0.1732
  865MOL0     H14178  10.283   4.727   1.758 -0.8977 -0.7236  3.3264
  865MOL0     H14179   9.488   5.089   1.534  1.1846 -0.9838  1.1507
  865MOL0     H14180   9.257   5.148   1.523  1.6078  0.2695  0.7341
  866MOL0     O14181   2.090  10.486   1.874  0.2139 -0.7320 -1.0935
  866MOL0     C14182   2.002  10.400   1.904 -0.8722  0.7211 -0.1690
  866MOL0     O14183   1.880  10.422   1.964 -0.5486  0.2299  0.1077
  866MOL0     C14184   1.857  10.544   2.008 -0.0414 -0.0759  0.1568
  866MOL0     C14185   1.864  10.663   1.926  0.2072  0.3101 -0.0503
  866MOL0     C14186   1.837  10.791   1.979 -0.3356  0.2922 -0.2803
  866MOL0     C14187   1.797  10.808   2.109  0.1099  0.0670 -0.6791
  866MOL0     O14188   1.775  10.941   2.160 -0.7672 -0.1525  0.5515
  866MOL0     C14189   1.733  10.951   2.292  0.6981  0.1784 -0.3300
  866MOL0     C14190   1.710  11.093   2.338  0.6112 -0.2088  0.6597
  866MOL0     C14191   1.560  11.140   2.325 -0.4319  0.4679 -0.1006
  866MOL0     C14192   1.542  11.290   2.319  0.0074 -0.3039  0.2559
  866MOL0     C14193   1.392  11.337   2.340  0.1673 -0.4956 -0.3635
  866MOL0     C14194   1.370  11.363   2.492  0.0883  0.5132  1.4008
  866MOL0     C14195   1.229  11.408   2.518  0.9218 -0.2507 -0.7416
  866MOL0     C14196   1.193  11.385   2.661  0.1299 -0.4520 -0.3291
  866MOL0     N14197   1.053  11.427   2.700 -0.1506  0.5693 -0.5172
  866MOL0     C14198   1.023  11.562   2.705 -0.0969  0.6264  0.8694
  866MOL0     C14199   0.890  11.567   2.731  0.8714  0.2461 -0.5582
  866MOL0     C14200   0.804  11.687   2.728  0.4598 -0.3282  0.2343
  866MOL0     C14201   0.667  11.663   2.662  0.0434 -0.2490 -0.4908
  866MOL0     C14202   0.602  11.794   2.623 -0.3365  0.2730 -0.6121
  866MOL0     C14203   0.464  11.779   2.561  0.6041 -0.6316 -0.5522
  866MOL0     O14204   0.434  11.903   2.496  0.3177  0.0513  0.3509
  866MOL0     C14205   0.326  11.967   2.553 -0.0635 -0.0877  0.4638
  866MOL0     C14206   0.332  12.075   2.640  0.0014  0.2142 -0.7667
  866MOL0     C14207   0.216  12.140   2.673  0.3988  0.3240 -0.2409
  866MOL0     C14208   0.090  12.106   2.629 -0.3747  0.1394  0.1651
  866MOL0     C14209  -0.031  12.173   2.662  0.3579  0.3399 -1.2186
  866MOL0     O14210  -0.149  12.136   2.593 -0.6054 -0.0900  0.4665
  866MOL0     C14211  -0.268  12.202   2.613  0.4730 -0.1352  0.5551
  866MOL0     C14212  -0.391  12.133   2.633  0.7828  0.0380 -0.7040
  866MOL0     C14213  -0.513  12.203   2.650 -0.9297  0.0639 -0.3779
  866MOL0     C14214  -0.517  12.346   2.665 -0.7769 -0.2223  0.8954
  866MOL0     O14215  -0.631  12.425   2.678 -0.7167  0.3252 -0.3930
  866MOL0     C14216  -0.744  12.362   2.722  0.0510  0.0515  0.2294
  866MOL0     C14217  -0.850  12.462   2.770 -0.5131 -0.3201 -0.4401
  866MOL0     C14218  -0.934  12.517   2.654  0.5037 -0.2785 -0.0120
  866MOL0     C14219  -1.033  12.620   2.698 -0.2504 -0.2511  0.1227
  866MOL0     C14220  -1.045  12.733   2.595  1.5218 -0.4272 -0.0163
  866MOL0     C14221  -1.172  12.814   2.605 -0.0979  0.2193  0.6436
  866MOL0     C14222  -1.203  12.891   2.482 -0.2392  0.3504  0.5076
  866MOL0     C14223  -1.098  12.982   2.413 -0.8976  0.2278 -0.4564
  866MOL0    Cl14224  -1.037  13.106   2.525  0.2969 -0.4533 -0.1867
  866MOL0     C14225  -0.389  12.406   2.666 -0.0550 -0.2757  0.4916
  866MOL0     C14226  -0.272  12.337   2.632 -0.2803 -0.0157  1.1847
  866MOL0     O14227  -0.018  12.270   2.742 -0.6302  0.0115 -0.2467
  866MOL0     C14228   0.091  11.998   2.534  0.2268  0.3079 -0.4551
  866MOL0     C14229   0.206  11.933   2.497  0.4705  0.5581  0.5992
  866MOL0     N14230   0.846  11.444   2.760  0.5737  0.4556 -0.4092
  866MOL0     N14231   0.943  11.357   2.730 -0.8201  0.1853 -0.6174
  866MOL0     C14232   1.787  10.685   2.192  0.8065 -0.1888  0.1886
  866MOL0     C14233   1.816  10.560   2.140 -0.2209 -0.1764  0.3871
  866MOL0     C14234   2.034  10.262   1.853 -0.2124  0.1756  0.4524
  866MOL0     C14235   1.938  10.159   1.888 -0.1970  0.2426  0.6873
  866MOL0     C14236   1.960  10.026   1.829 -0.8523 -0.4920  0.3050
  866MOL0     C14237   2.074   9.998   1.750 -0.1390 -0.8120  0.0943
  866MOL0     O14238   2.081   9.880   1.693  0.4150  0.1533  0.3801
  866MOL0     C14239   2.114   9.881   1.552  0.3093  0.5352  0.2969
  866MOL0     C14240   1.985   9.892   1.478  0.6064  1.5950  0.6811
  866MOL0     C14241   2.014   9.913   1.324 -0.0040  0.4581 -0.3872
  866MOL0     C14242   1.899   9.983   1.247 -0.9750  0.1492  0.0488
  866MOL0     C14243   1.768   9.913   1.261 -0.7174  0.1385 -0.1831
  866MOL0     C14244   1.668   9.850   1.277  0.2080  0.6669 -0.3524
  866MOL0     C14245   2.168  10.102   1.723  0.6777  0.2120 -0.0574
  866MOL0     C14246   2.145  10.231   1.773  0.7065 -0.7991  0.7133
  866MOL0     H14247   1.886  10.659   1.820  0.9022  0.9925  0.0527
  866MOL0     H14248   1.835  10.884   1.924 -1.6285  0.2744 -0.2902
  866MOL0     H14249   1.816  10.908   2.347  0.8301 -2.1022 -2.1609
  866MOL0     H14250   1.646  10.889   2.318 -0.5520  1.9034 -0.2249
  866MOL0     H14251   1.764  11.164   2.275 -2.2133  0.7789 -0.7984
  866MOL0     H14252   1.761  11.099   2.434  3.0116 -0.5120 -0.5129
  866MOL0     H14253   1.509  11.111   2.418 -1.2349  0.4499 -0.5415
  866MOL0     H14254   1.507  11.095   2.241  2.5152  0.7810 -2.3189
  866MOL0     H14255   1.598  11.332   2.403 -0.8036 -0.1297  0.7188
  866MOL0     H14256   1.584  11.325   2.224 -2.7098  0.9270 -0.5867
  866MOL0     H14257   1.318  11.276   2.288  0.2327  1.5728 -3.1409
  866MOL0     H14258   1.383  11.439   2.302 -2.0165 -0.3869  0.2945
  866MOL0     H14259   1.433  11.447   2.524 -0.0556  1.8403 -1.5363
  866MOL0     H14260   1.394  11.268   2.541 -0.3620  0.6668  1.9359
  866MOL0     H14261   1.210  11.516   2.507  2.1804  0.0356 -0.3402
  866MOL0     H14262   1.158  11.362   2.450  0.9204 -1.6027  0.1296
  866MOL0     H14263   1.264  11.433   2.729 -0.5080 -0.2292  0.1935
  866MOL0     H14264   1.190  11.278   2.683  0.6712 -0.7791 -1.7331
  866MOL0     H14265   1.092  11.646   2.694  0.4629  0.3990  2.3402
  866MOL0     H14266   0.868  11.757   2.675  1.6094 -2.1141 -0.8403
  866MOL0     H14267   0.787  11.710   2.834 -1.0926  3.3439 -0.6799
  866MOL0     H14268   0.606  11.600   2.727  1.2526 -3.1994 -2.0178
  866MOL0     H14269   0.681  11.594   2.578  0.0418  0.6677 -1.2622
  866MOL0     H14270   0.594  11.859   2.711 -0.7936 -0.0658 -0.3968
  866MOL0     H14271   0.669  11.850   2.558 -0.3123  0.2906 -0.5719
  866MOL0     H14272   0.398  11.756   2.645  0.2697  0.2926 -0.5475
  866MOL0     H14273   0.463  11.697   2.488  2.6984 -1.2732  0.0861
  866MOL0     H14274   0.436  12.103   2.652  0.0553 -0.4898  0.6183
  866MOL0     H14275   0.237  12.229   2.730 -2.9065 -0.2762  2.1894
  866MOL0     H14276  -0.402  12.028   2.610 -2.8951  0.0843  0.1707
  866MOL0     H14277  -0.608  12.152   2.644 -1.2588  0.3332  1.8065
  866MOL0     H14278  -0.711  12.297   2.804  1.1328 -1.5214 -1.3901
  866MOL0     H14279  -0.800  12.295   2.656 -2.8762  1.4716  1.0664
  866MOL0     H14280  -0.793  12.545   2.812 -0.9258 -0.7910  1.1039
  866MOL0     H14281  -0.923  12.419   2.840 -2.7274  0.4920 -2.1084
  866MOL0     H14282  -0.993  12.430   2.620  0.2315 -0.2044  0.2660
  866MOL0     H14283  -0.865  12.553   2.577  1.4618  0.3717  1.1372
  866MOL0     H14284  -1.129  12.573   2.721  0.7008 -1.3881  1.9669
  866MOL0     H14285  -1.007  12.665   2.795 -0.7134 -0.0645  0.1656
  866MOL0     H14286  -1.049  12.685   2.497 -2.0863 -0.3814 -0.0237
  866MOL0     H14287  -0.957  12.798   2.599  1.1119  0.0889  0.9666
  866MOL0     H14288  -1.148  12.885   2.686  2.2537 -0.5688  0.7268
  866MOL0     H14289  -1.260  12.758   2.636  0.3046 -0.4349  0.6308
  866MOL0     H14290  -1.226  12.813   2.409  0.8140  1.2536 -0.8601
  866MOL0     H14291  -1.292  12.952   2.498  0.2494  1.3304 -0.4314
  866MOL0     H14292  -1.139  13.027   2.323 -0.2217 -0.7974 -1.2968
  866MOL0     H14293  -1.007  12.929   2.385 -0.7753  0.6919 -0.9459
  866MOL0     H14294  -0.396  12.514   2.675 -2.3290 -0.5070  2.9816
  866MOL0     H14295  -0.183  12.393   2.604  0.7718 -1.7897  0.8296
  866MOL0     H14296  -0.003  11.970   2.487 -1.2168  3.3301  0.3951
  866MOL0     H14297   0.210  11.856   2.420 -0.8701 -0.4517  1.5020
  866MOL0     H14298   1.753  10.687   2.295  0.2385 -0.9273  0.0283
  866MOL0     H14299   1.792  10.474   2.202 -4.1846  0.0905 -0.5020
  866MOL0     H14300   1.856  10.181   1.955 -1.9484 -0.1026 -1.2509
  866MOL0     H14301   1.887   9.950   1.858  0.8024 -1.4565  2.2176
  866MOL0     H14302   2.173   9.793   1.525 -1.0175 -0.0116 -0.9860
  866MOL0     H14303   2.171   9.970   1.524 -1.3025  2.1690  1.9385
  866MOL0     H14304   1.927   9.800   1.484  3.3184 -0.1583  2.0818
  866MOL0     H14305   1.921   9.975   1.512 -2.0986  1.4014 -3.2776
  866MOL0     H14306   2.038   9.818   1.276  4.3232  2.0876 -2.0271
  866MOL0     H14307   2.101   9.980   1.323  0.3267  0.0407  0.1543
  866MOL0     H14308   1.891  10.089   1.275  0.2494  1.1239 -2.8970
  866MOL0     H14309   1.920   9.982   1.140  0.4994  1.1541  0.2920
  866MOL0     H14310   1.586   9.782   1.288  1.6621 -1.2759 -0.9361
  866MOL0     H14311   2.263  10.087   1.673  0.9918  1.2307  0.2254
  866MOL0     H14312   2.212  10.309   1.739  0.1945 -1.1674 -1.3095
  867MOL0     O14313   9.087   7.043   2.278 -0.8153  0.9861  0.5815
  867MOL0     C14314   9.140   6.928   2.273 -0.0209 -0.2343  0.4114
  867MOL0     O14315   9.089   6.811   2.332  0.3621  0.4781 -0.0417
  867MOL0     C14316   8.958   6.798   2.367  0.4642 -0.4848  0.4944
  867MOL0     C14317   8.894   6.892   2.449 -1.2077  0.1147  0.0232
  867MOL0     C14318   8.765   6.889   2.473  0.4978 -0.1858  0.5526
  867MOL0     C14319   8.678   6.787   2.419 -1.0403 -0.5969 -0.6516
  867MOL0     O14320   8.544   6.771   2.447  0.4372 -0.9580 -0.4862
  867MOL0     C14321   8.470   6.894   2.498 -0.1005 -0.1472 -0.4519
  867MOL0     C14322   8.325   6.871   2.467 -0.1860 -0.4286  0.9731
  867MOL0     C14323   8.310   6.905   2.323 -0.5862 -0.8157  0.6162
  867MOL0     C14324   8.157   6.893   2.290  0.0512  0.7975 -0.3379
  867MOL0     C14325   8.124   6.887   2.137  0.4157  0.3700 -0.4243
  867MOL0     C14326   8.017   6.788   2.109 -0.3934 -0.1146 -0.2833
  867MOL0     C14327   7.880   6.838   2.148 -0.2488  0.3678  0.1691
  867MOL0     C14328   7.811   6.922   2.037  0.4685 -0.2965 -0.0559
  867MOL0     N14329   7.681   6.965   2.078  0.4890  1.2561  0.2211
  867MOL0     C14330   7.566   6.893   2.078  0.1165 -0.0494 -0.7503
  867MOL0     C14331   7.474   6.990   2.121 -0.6654  0.4630  0.5292
  867MOL0     C14332   7.320   6.969   2.148  0.4023 -0.5530  0.4569
  867MOL0     C14333   7.231   7.091   2.150 -0.6327 -0.9710 -0.5082
  867MOL0     C14334   7.143   7.101   2.275 -0.1458  0.2950 -0.3851
  867MOL0     C14335   7.033   7.202   2.268 -0.2015  0.4415  0.1595
  867MOL0     O14336   6.945   7.183   2.375  0.0649  0.8417 -0.6391
  867MOL0     C14337   6.812   7.220   2.364  0.1055 -0.1616  0.2559
  867MOL0     C14338   6.756   7.286   2.250  0.1186  0.9315 -0.2077
  867MOL0     C14339   6.619   7.315   2.252  0.1393 -1.3388 -0.4465
  867MOL0     C14340   6.535   7.292   2.361 -0.2655  0.7148 -0.1608
  867MOL0     C14341   6.395   7.333   2.367  0.3744 -0.6704  0.4050
  867MOL0     O14342   6.313   7.295   2.468 -0.0587  0.7197 -0.4372
  867MOL0     C14343   6.183   7.308   2.455 -0.2367  0.6879  0.2212
  867MOL0     C14344   6.121   7.210   2.378 -0.5831 -0.3448 -0.7783
  867MOL0     C14345   5.988   7.223   2.343  0.0684 -0.1940  0.1202
  867MOL0     C14346   5.919   7.345   2.379  0.0269 -0.3532  0.6561
  867MOL0     O14347   5.792   7.370   2.346 -0.1501  1.2509  0.0202
  867MOL0     C14348   5.716   7.307   2.244  0.5230  0.9951  0.0608
  867MOL0     C14349   5.580   7.375   2.229 -0.2415 -0.7103  0.5787
  867MOL0     C14350   5.502   7.336   2.098  0.3069  0.2329 -0.9723
  867MOL0     C14351   5.375   7.425   2.078 -0.6354  0.4384  0.1846
  867MOL0     C14352   5.312   7.404   1.942 -0.1165  0.1936  0.0115
  867MOL0     C14353   5.183   7.494   1.925  0.3728 -0.0888 -0.2141
  867MOL0     C14354   5.052   7.404   1.899 -0.4141  0.4832  0.8160
  867MOL0     C14355   4.931   7.468   1.953  0.0641  0.0060 -0.2667
  867MOL0    Cl14356   4.930   7.543   2.119  0.1260 -0.4339  0.1777
  867MOL0     C14357   5.988   7.445   2.449  0.9017  0.5121 -0.0751
  867MOL0     C14358   6.121   7.427   2.481  0.3676 -0.0082 -0.6439
  867MOL0     O14359   6.357   7.399   2.270 -0.7442  0.0629 -0.4096
  867MOL0     C14360   6.586   7.210   2.466 -0.3187 -0.1181  0.0564
  867MOL0     C14361   6.718   7.186   2.472 -0.3228 -0.6141 -0.6258
  867MOL0     N14362   7.536   7.102   2.150  0.0152  0.0802 -0.1787
  867MOL0     N14363   7.658   7.096   2.114  0.4982  0.6216 -0.5774
  867MOL0     C14364   8.740   6.682   2.356 -0.3694 -0.4419  1.1072
  867MOL0     C14365   8.882   6.695   2.322 -0.2595  1.4013 -0.6563
  867MOL0     C14366   9.291   6.911   2.240  0.6590  0.0175  1.4319
  867MOL0     C14367   9.367   6.788   2.251 -0.1377  0.4531  0.4086
  867MOL0     C14368   9.504   6.781   2.220 -0.4290  0.4844  0.1610
  867MOL0     C14369   9.568   6.890   2.170 -0.3736 -0.1581  0.7526
  867MOL0     O14370   9.693   6.892   2.119 -0.4749  0.2835  0.5703
  867MOL0     C14371   9.779   6.979   2.194 -0.5217  0.1892 -0.0843
  867MOL0     C14372   9.928   6.955   2.167 -0.7189  0.0309 -0.7478
  867MOL0     C14373   9.961   6.815   2.230 -0.0793 -0.1925  0.1408
  867MOL0     C14374  10.113   6.784   2.231 -0.6455  0.1577 -0.2877
  867MOL0     C14375  10.207   6.894   2.208 -0.0451  0.3357 -0.2891
  867MOL0     C14376  10.263   7.003   2.201 -0.0039  0.5570  0.4855
  867MOL0     C14377   9.494   7.007   2.142 -0.5308  0.2988 -0.8124
  867MOL0     C14378   9.362   7.019   2.173  0.2935  0.2054  0.3500
  867MOL0     H14379   8.940   6.983   2.485 -2.6140  0.7429  0.3079
  867MOL0     H14380   8.722   6.969   2.532 -2.0059  1.3828 -3.0323
  867MOL0     H14381   8.508   6.987   2.455  1.6789  0.3713  2.0448
  867MOL0     H14382   8.480   6.899   2.607  1.9455  1.0656 -0.6344
  867MOL0     H14383   8.250   6.928   2.524 -0.5722  0.1003 -0.0407
  867MOL0     H14384   8.302   6.764   2.474 -2.3587  0.0563  2.3693
  867MOL0     H14385   8.374   6.842   2.260  2.5143  2.0316  0.6085
  867MOL0     H14386   8.342   7.009   2.305  2.4501 -1.7452  0.0301
  867MOL0     H14387   8.118   6.800   2.331  2.0514  0.9254  2.0882
  867MOL0     H14388   8.094   6.972   2.331 -1.8152 -1.0748  0.5384
  867MOL0     H14389   8.215   6.849   2.090  0.5513 -1.5560  1.2665
  867MOL0     H14390   8.096   6.985   2.097 -2.1956 -0.2884 -0.3754
  867MOL0     H14391   8.039   6.688   2.147 -1.8357 -0.5087 -0.4061
  867MOL0     H14392   8.019   6.782   2.000  3.1077  0.0562 -0.3156
  867MOL0     H14393   7.822   6.746   2.154  1.4489 -1.1488 -3.4307
  867MOL0     H14394   7.882   6.881   2.249  1.5755  0.5627  0.0852
  867MOL0     H14395   7.818   6.874   1.939 -2.5770 -2.8060  0.7811
  867MOL0     H14396   7.867   7.015   2.027  0.5680 -0.5357 -2.1331
  867MOL0     H14397   7.560   6.787   2.059 -1.8293 -0.6311  2.2657
  867MOL0     H14398   7.322   6.915   2.243  0.7852 -1.0116  0.1913
  867MOL0     H14399   7.295   6.907   2.061  0.6984  0.1950 -0.1757
  867MOL0     H14400   7.161   7.086   2.066 -1.5956  2.1071 -0.0267
  867MOL0     H14401   7.301   7.174   2.133  4.7141 -4.7900  0.5401
  867MOL0     H14402   7.089   7.008   2.298 -2.2655  1.5533 -0.0686
  867MOL0     H14403   7.206   7.139   2.357  1.9742  1.5488 -2.4620
  867MOL0     H14404   6.975   7.182   2.177  1.3722 -0.8087 -0.6121
  867MOL0     H14405   7.065   7.306   2.265 -1.5440  0.8657 -0.1060
  867MOL0     H14406   6.816   7.311   2.163  1.3020 -0.4422  0.1668
  867MOL0     H14407   6.578   7.382   2.177  0.2287  0.2763  0.8872
  867MOL0     H14408   6.185   7.123   2.365  0.2041 -0.0079  0.6209
  867MOL0     H14409   5.933   7.141   2.298 -1.3472  0.6422  0.2776
  867MOL0     H14410   5.691   7.204   2.271  2.0127  0.5941  0.0086
  867MOL0     H14411   5.775   7.307   2.152  0.3641  1.1556 -0.0395
  867MOL0     H14412   5.593   7.484   2.230  0.0057 -0.6872  3.6901
  867MOL0     H14413   5.517   7.350   2.315 -2.6132  1.5759 -0.3317
  867MOL0     H14414   5.469   7.232   2.105 -0.6003  0.5389 -0.5831
  867MOL0     H14415   5.570   7.349   2.013  1.5994  1.3766  0.1789
  867MOL0     H14416   5.300   7.397   2.153  0.2122  0.4096  1.0290
  867MOL0     H14417   5.396   7.532   2.089 -0.7585  0.3967  0.8671
  867MOL0     H14418   5.296   7.296   1.935  1.6030 -0.0105 -1.3944
  867MOL0     H14419   5.391   7.437   1.873  0.9717  1.5608  1.7990
  867MOL0     H14420   5.178   7.580   1.856  0.9185  1.3073  1.4184
  867MOL0     H14421   5.168   7.539   2.023 -3.0742  1.3794 -1.2482
  867MOL0     H14422   5.048   7.387   1.791  0.7627 -1.3205  1.0042
  867MOL0     H14423   5.057   7.304   1.943 -0.0334  0.6159  1.0774
  867MOL0     H14424   4.854   7.391   1.963 -0.3712  0.6694  2.2865
  867MOL0     H14425   4.898   7.531   1.870  1.4474  0.8057 -0.2286
  867MOL0     H14426   5.917   7.525   2.468 -2.1037 -1.5661 -1.7254
  867MOL0     H14427   6.175   7.511   2.522  1.7144 -1.0859 -0.1478
  867MOL0     H14428   6.521   7.191   2.551  0.8939  0.6539  1.1721
  867MOL0     H14429   6.763   7.138   2.558  1.3154  1.5402 -0.2170
  867MOL0     H14430   8.675   6.600   2.330  0.4735 -1.3939  1.9479
  867MOL0     H14431   8.928   6.609   2.275 -2.1020 -0.7937  1.2617
  867MOL0     H14432   9.320   6.702   2.298  1.2789  0.7379  2.4470
  867MOL0     H14433   9.558   6.687   2.234 -1.2176 -0.3336 -1.8678
  867MOL0     H14434   9.759   6.966   2.301 -0.5392  0.6104 -0.0352
  867MOL0     H14435   9.760   7.084   2.170  0.9388  0.7434  0.9844
  867MOL0     H14436   9.953   6.954   2.061  2.3455 -4.1667 -0.2485
  867MOL0     H14437   9.979   7.031   2.227 -0.3248  0.3704 -1.5083
  867MOL0     H14438   9.910   6.736   2.174 -2.2679  2.2134 -1.5011
  867MOL0     H14439   9.929   6.816   2.335 -1.4672  1.9251 -0.2269
  867MOL0     H14440  10.134   6.739   2.328 -2.5754 -3.3096 -1.3252
  867MOL0     H14441  10.145   6.713   2.154  1.1292 -0.4755  0.9763
  867MOL0     H14442  10.333   7.082   2.217 -0.0670  0.1090  3.5942
  867MOL0     H14443   9.543   7.086   2.085 -2.4881  2.4522  0.2969
  867MOL0     H14444   9.312   7.112   2.147 -2.3930 -1.4524 -0.7450
  868MOL0     O14445   6.539   2.561   3.432 -0.4141  0.2314 -0.0462
  868MOL0     C14446   6.655   2.523   3.430  0.0360 -0.6483 -0.3958
  868MOL0     O14447   6.705   2.408   3.484 -0.4965  0.5334  0.7875
  868MOL0     C14448   6.622   2.323   3.548  0.2471 -0.5680 -0.1216
  868MOL0     C14449   6.655   2.300   3.684  0.7753 -0.0213 -0.4350
  868MOL0     C14450   6.585   2.212   3.762  0.2171 -0.7556 -0.5333
  868MOL0     C14451   6.467   2.156   3.702 -0.1398 -0.2914 -1.0992
  868MOL0     O14452   6.389   2.071   3.785 -0.4747  0.2932 -0.1325
  868MOL0     C14453   6.336   1.943   3.747 -0.6592 -0.1966  0.6514
  868MOL0     C14454   6.184   1.951   3.719  0.1316 -0.0336 -0.7406
  868MOL0     C14455   6.126   1.863   3.605  0.2379  0.0541 -0.0375
  868MOL0     C14456   5.974   1.856   3.595  0.6109 -0.2361 -0.6033
  868MOL0     C14457   5.922   1.787   3.467  0.9919 -0.3591  0.5010
  868MOL0     C14458   5.768   1.776   3.483 -0.2656 -0.0830 -0.1711
  868MOL0     C14459   5.691   1.742   3.347 -0.7170  0.2341 -0.5059
  868MOL0     C14460   5.701   1.594   3.309 -0.4804  0.0516  0.8481
  868MOL0     N14461   5.583   1.530   3.361 -0.0616  0.2567 -0.8983
  868MOL0     C14462   5.460   1.534   3.305 -1.0902 -0.3378  0.2181
  868MOL0     C14463   5.388   1.454   3.386 -0.3483  0.1028 -0.6019
  868MOL0     C14464   5.247   1.409   3.348  1.1914 -0.1877 -0.9343
  868MOL0     C14465   5.150   1.392   3.470 -0.4779 -0.0403 -0.0033
  868MOL0     C14466   4.996   1.368   3.431  0.4951 -0.2916 -0.6200
  868MOL0     C14467   4.982   1.235   3.358 -0.2919  0.5076 -0.1234
  868MOL0     O14468   4.861   1.173   3.387  0.2534 -0.8140 -0.2327
  868MOL0     C14469   4.813   1.068   3.324  0.7050  0.0863  0.2864
  868MOL0     C14470   4.677   1.038   3.308  0.1917  0.4444  0.3913
  868MOL0     C14471   4.626   0.927   3.253  0.2640  0.4848  0.2394
  868MOL0     C14472   4.709   0.844   3.180 -0.7941 -0.9418  0.1871
  868MOL0     C14473   4.651   0.717   3.118  0.7479  0.7940  0.1600
  868MOL0     O14474   4.752   0.625   3.072 -0.6878  0.2593 -0.0889
  868MOL0     C14475   4.739   0.561   2.952  0.5935  0.4659 -0.0793
  868MOL0     C14476   4.794   0.439   2.927 -0.2702 -0.7857  0.3356
  868MOL0     C14477   4.760   0.359   2.810 -0.8298 -0.4464 -0.9954
  868MOL0     C14478   4.691   0.419   2.708 -0.1837 -0.6327 -0.2386
  868MOL0     O14479   4.669   0.352   2.592  0.0164  0.3112 -0.9051
  868MOL0     C14480   4.705   0.397   2.464 -0.7874  0.9198 -0.2415
  868MOL0     C14481   4.859   0.401   2.442  0.6980 -0.2237  0.3264
  868MOL0     C14482   4.914   0.263   2.396  0.5246  0.9250  0.2494
  868MOL0     C14483   5.065   0.261   2.348 -0.3279  0.4170 -0.4313
  868MOL0     C14484   5.078   0.161   2.236  0.1664  0.0844  0.4186
  868MOL0     C14485   5.211   0.177   2.159  0.0307 -0.1296  0.0799
  868MOL0     C14486   5.315   0.062   2.186  0.7807  0.2070 -0.2066
  868MOL0     C14487   5.421   0.055   2.074 -0.4318  0.0511  0.0271
  868MOL0    Cl14488   5.474  -0.113   2.067  0.2030  0.2257  0.1334
  868MOL0     C14489   4.644   0.545   2.725 -0.1811  0.9514  0.3579
  868MOL0     C14490   4.664   0.614   2.850  0.4020 -0.1001 -0.0649
  868MOL0     O14491   4.524   0.705   3.102 -0.3541  0.2035 -0.2015
  868MOL0     C14492   4.842   0.874   3.175  0.4546 -0.1042 -0.0235
  868MOL0     C14493   4.896   0.984   3.240  0.2292 -0.1878  0.0546
  868MOL0     N14494   5.465   1.397   3.484  0.9449 -0.3407  0.7298
  868MOL0     N14495   5.579   1.455   3.473  0.1805 -1.1069  0.5518
  868MOL0     C14496   6.435   2.174   3.569  0.0987 -0.3623 -0.1408
  868MOL0     C14497   6.514   2.258   3.493  0.7898  0.2665  0.0048
  868MOL0     C14498   6.750   2.616   3.376 -0.0875  0.4412  2.2364
  868MOL0     C14499   6.712   2.740   3.321  0.2271 -0.4541  0.0031
  868MOL0     C14500   6.801   2.835   3.265  0.1451 -0.6258 -0.3950
  868MOL0     C14501   6.940   2.796   3.250  0.1125 -0.6207 -0.3181
  868MOL0     O14502   7.040   2.878   3.198 -0.2820  0.5079 -0.9876
  868MOL0     C14503   6.992   3.004   3.156 -0.0016  0.1628 -0.4025
  868MOL0     C14504   7.103   3.086   3.098 -0.0602 -1.5545  0.5465
  868MOL0     C14505   7.164   3.036   2.967 -0.7016 -0.0078  0.6170
  868MOL0     C14506   7.103   3.089   2.833 -0.7104  0.4363 -0.6925
  868MOL0     C14507   7.189   3.064   2.715 -0.5291 -0.1884  1.1849
  868MOL0     C14508   7.253   3.034   2.613  0.0882 -0.5319 -0.2198
  868MOL0     C14509   6.983   2.676   3.302  0.0601 -0.4085  0.1549
  868MOL0     C14510   6.890   2.589   3.363 -0.8747  0.3373  0.4467
  868MOL0     H14511   6.739   2.358   3.722 -1.6346  2.3016  1.7185
  868MOL0     H14512   6.608   2.203   3.868  1.2980  3.1649 -0.2587
  868MOL0     H14513   6.360   1.869   3.824  1.4071 -1.6250 -1.2348
  868MOL0     H14514   6.392   1.913   3.658 -0.0267 -0.7837  1.2353
  868MOL0     H14515   6.143   2.052   3.715 -0.7331 -0.3476 -0.0813
  868MOL0     H14516   6.141   1.907   3.810  1.8486  0.2401  0.2503
  868MOL0     H14517   6.166   1.762   3.612 -3.6202 -1.6798 -0.4336
  868MOL0     H14518   6.158   1.901   3.508 -1.9451  0.7731 -0.5430
  868MOL0     H14519   5.923   1.811   3.680 -2.7806  2.9409 -0.7046
  868MOL0     H14520   5.938   1.959   3.604  0.8073 -0.3234  1.7300
  868MOL0     H14521   5.971   1.690   3.455  2.0743  0.2753 -0.4469
  868MOL0     H14522   5.946   1.842   3.375 -1.6826  0.2921  0.1068
  868MOL0     H14523   5.720   1.871   3.508 -2.2287 -1.3819  1.3177
  868MOL0     H14524   5.751   1.721   3.576 -0.6614  2.0132  1.0748
  868MOL0     H14525   5.589   1.781   3.348 -1.0662 -0.6086 -1.7564
  868MOL0     H14526   5.730   1.798   3.262  0.8813 -2.0164 -1.3409
  868MOL0     H14527   5.794   1.550   3.346 -1.5364 -1.5744  1.6767
  868MOL0     H14528   5.713   1.585   3.201  1.1258  1.1563  0.9037
  868MOL0     H14529   5.421   1.583   3.216  2.8356  0.6903 -1.1845
  868MOL0     H14530   5.259   1.314   3.296 -1.6847 -1.5302  0.6095
  868MOL0     H14531   5.213   1.485   3.276  0.3629 -0.3936 -0.7748
  868MOL0     H14532   5.147   1.491   3.518  0.9161  0.9266 -1.7534
  868MOL0     H14533   5.187   1.318   3.541  0.5678  1.5753  1.2049
  868MOL0     H14534   4.934   1.359   3.521 -0.4979 -1.9977 -1.4232
  868MOL0     H14535   4.956   1.449   3.369  0.2929  0.0064 -0.1099
  868MOL0     H14536   5.063   1.168   3.386 -2.1166 -1.0526  1.8141
  868MOL0     H14537   5.002   1.254   3.252 -1.0719 -0.2952 -0.4273
  868MOL0     H14538   4.622   1.118   3.357 -1.3457 -0.9018  0.9645
  868MOL0     H14539   4.521   0.900   3.247  0.2643  0.6671 -0.7341
  868MOL0     H14540   4.857   0.401   3.007  0.6500  1.5839  0.7958
  868MOL0     H14541   4.808   0.262   2.799  0.9612  0.1723  0.7851
  868MOL0     H14542   4.666   0.497   2.443 -0.3090  1.4466  1.2165
  868MOL0     H14543   4.652   0.335   2.391  2.6543 -1.4925 -0.9836
  868MOL0     H14544   4.904   0.426   2.539 -0.4079 -0.7726  1.0146
  868MOL0     H14545   4.883   0.470   2.361 -1.9880  2.2827  1.4982
  868MOL0     H14546   4.860   0.217   2.313 -1.0684  1.4351  0.9598
  868MOL0     H14547   4.910   0.197   2.484  2.4381  1.2882  0.6387
  868MOL0     H14548   5.096   0.361   2.316 -1.1010  0.6437 -0.4929
  868MOL0     H14549   5.130   0.244   2.434  0.0477  2.0931 -0.3487
  868MOL0     H14550   4.999   0.181   2.164  0.3005 -3.7066 -0.9847
  868MOL0     H14551   5.069   0.057   2.268 -2.7512  0.2467  0.3415
  868MOL0     H14552   5.253   0.278   2.167  2.1243 -0.9471  0.0786
  868MOL0     H14553   5.181   0.168   2.054  0.5232 -0.9356 -0.0004
  868MOL0     H14554   5.368   0.061   2.282 -0.1805  0.7128  0.3507
  868MOL0     H14555   5.262  -0.034   2.191  4.6357 -2.1396 -0.8992
  868MOL0     H14556   5.501   0.126   2.097 -1.5341  0.7842  1.8390
  868MOL0     H14557   5.367   0.073   1.980  3.2812  2.1122 -1.9575
  868MOL0     H14558   4.587   0.595   2.647 -2.4733 -0.4171  1.0565
  868MOL0     H14559   4.628   0.717   2.850 -0.5733 -0.3990  1.9484
  868MOL0     H14560   4.910   0.802   3.132 -1.2614 -1.8805  0.1159
  868MOL0     H14561   5.003   1.003   3.249  0.5334 -2.3546  2.3242
  868MOL0     H14562   6.355   2.119   3.521 -0.9273 -0.8534  2.0006
  868MOL0     H14563   6.493   2.270   3.387  0.4223 -0.8366 -0.0534
  868MOL0     H14564   6.607   2.767   3.309  1.2391  3.7238 -1.3522
  868MOL0     H14565   6.754   2.928   3.235 -2.5808 -1.5113  0.7945
  868MOL0     H14566   6.946   3.051   3.243  1.6809 -0.7549  1.0459
  868MOL0     H14567   6.914   2.999   3.080 -1.1057  3.0889  0.4052
  868MOL0     H14568   7.067   3.189   3.089  1.0120 -1.3174 -1.5874
  868MOL0     H14569   7.189   3.099   3.165  1.7971  3.2863 -2.2866
  868MOL0     H14570   7.152   2.929   2.951 -1.9449  0.2046  0.0006
  868MOL0     H14571   7.267   3.074   2.973 -0.4059 -0.4137 -1.1814
  868MOL0     H14572   7.000   3.053   2.829 -0.2481 -1.4208  1.4676
  868MOL0     H14573   7.096   3.198   2.840  0.5662  0.6779 -2.5157
  868MOL0     H14574   7.326   3.002   2.542  1.5180  0.3917  0.7872
  868MOL0     H14575   7.087   2.660   3.327  0.8380  6.1009  3.2996
  868MOL0     H14576   6.923   2.492   3.399  0.9116  0.5751 -0.4707
  869MOL0     O14577   3.141  10.340   7.085 -0.4465 -0.8661 -0.4253
  869MOL0     C14578   3.048  10.260   7.105 -0.8150  0.1139  0.9478
  869MOL0     O14579   2.929  10.282   7.165  0.6765  0.4366 -1.2641
  869MOL0     C14580   2.892  10.403   7.223 -0.3270  0.4037  0.4641
  869MOL0     C14581   2.767  10.389   7.279 -0.0368 -0.1542 -0.3670
  869MOL0     C14582   2.715  10.495   7.354  0.5512 -0.7334 -0.7022
  869MOL0     C14583   2.793  10.607   7.383 -0.6410 -0.1684 -0.4329
  869MOL0     O14584   2.761  10.708   7.471  0.7480  0.1915 -0.4189
  869MOL0     C14585   2.622  10.754   7.471 -1.0023  0.1824 -0.4777
  869MOL0     C14586   2.564  10.740   7.611 -1.1950  1.2036  0.1319
  869MOL0     C14587   2.420  10.773   7.615 -0.1483 -0.1612  0.5000
  869MOL0     C14588   2.345  10.672   7.527  0.3084  0.0123 -0.1093
  869MOL0     C14589   2.198  10.690   7.547 -0.7524  0.6599  0.4041
  869MOL0     C14590   2.159  10.836   7.509 -0.3440 -0.3117  0.2287
  869MOL0     C14591   2.009  10.860   7.550 -0.2631  0.2499 -0.1519
  869MOL0     C14592   1.906  10.821   7.447 -0.5171 -0.7194  0.8618
  869MOL0     N14593   1.786  10.904   7.461 -0.4184 -0.2328 -0.2573
  869MOL0     C14594   1.676  10.873   7.542 -0.5404  0.4030 -1.1763
  869MOL0     C14595   1.588  10.976   7.535 -1.2191 -0.3203  0.8057
  869MOL0     C14596   1.468  10.998   7.618 -0.7766  0.3945  0.0863
  869MOL0     C14597   1.356  11.067   7.531  0.5345  0.1599  0.1375
  869MOL0     C14598   1.230  11.102   7.608  0.4937 -0.2315  0.6767
  869MOL0     C14599   1.108  11.114   7.513 -0.5299  0.4211  1.1811
  869MOL0     O14600   0.990  11.150   7.594 -0.3640  0.8864 -1.0217
  869MOL0     C14601   0.863  11.157   7.542  0.6771  0.8290 -0.0814
  869MOL0     C14602   0.758  11.227   7.606 -0.8908 -0.0868 -0.3568
  869MOL0     C14603   0.630  11.224   7.554  0.3429 -0.4272  0.5214
  869MOL0     C14604   0.592  11.137   7.451 -0.1956  0.3017 -0.1782
  869MOL0     C14605   0.459  11.118   7.410 -0.0600  0.4981  0.6535
  869MOL0     O14606   0.372  11.202   7.473 -0.1754  0.4492  0.7151
  869MOL0     C14607   0.245  11.195   7.420  0.5292 -0.9127 -0.2476
  869MOL0     C14608   0.151  11.110   7.476 -0.1563  0.5654 -0.7247
  869MOL0     C14609   0.022  11.095   7.431 -0.0798 -0.6700  1.1431
  869MOL0     C14610  -0.016  11.174   7.318 -0.3892  0.2633  0.7316
  869MOL0     O14611  -0.144  11.160   7.268  0.0573 -0.0589  1.0377
  869MOL0     C14612  -0.179  11.232   7.152  0.4701  0.2148  0.0699
  869MOL0     C14613  -0.329  11.203   7.117 -0.1111 -0.3145 -0.1105
  869MOL0     C14614  -0.415  11.276   7.221  0.2399 -0.3069 -0.3838
  869MOL0     C14615  -0.559  11.260   7.200  1.2237  0.6888 -0.1081
  869MOL0     C14616  -0.631  11.352   7.301 -0.2269  0.5044  0.6733
  869MOL0     C14617  -0.782  11.341   7.272  0.0090 -1.0134  0.8615
  869MOL0     C14618  -0.845  11.471   7.340 -0.4199  0.0699 -0.1555
  869MOL0     C14619  -1.000  11.454   7.359  0.6520  0.2612 -1.5175
  869MOL0    Cl14620  -1.070  11.465   7.194  0.7479 -0.1455 -0.1670
  869MOL0     C14621   0.084  11.258   7.259 -0.4350  0.0804 -0.6304
  869MOL0     C14622   0.209  11.272   7.319  0.0092 -0.0943  0.3972
  869MOL0     O14623   0.432  11.032   7.328 -0.3746 -0.6596  0.1476
  869MOL0     C14624   0.701  11.073   7.383 -0.0265  0.5248 -1.4872
  869MOL0     C14625   0.830  11.087   7.424 -0.0451 -0.9553  0.0522
  869MOL0     N14626   1.648  11.061   7.440 -0.0084 -0.1329  0.2629
  869MOL0     N14627   1.766  11.022   7.402  0.5141  0.8732  0.6154
  869MOL0     C14628   2.924  10.616   7.321 -0.0485  0.0525 -0.0979
  869MOL0     C14629   2.975  10.512   7.246 -0.0712 -0.5031  1.0935
  869MOL0     C14630   3.074  10.123   7.054  0.0413  0.4313 -0.3715
  869MOL0     C14631   3.199  10.087   7.002  0.4269  0.8131  0.1740
  869MOL0     C14632   3.228   9.958   6.965 -0.0899  0.5624  0.1581
  869MOL0     C14633   3.123   9.863   6.971  0.0033  0.0519  0.2143
  869MOL0     O14634   3.139   9.734   6.939  0.5856  0.1819 -0.0347
  869MOL0     C14635   3.029   9.646   6.896  0.0467  0.2338 -0.3509
  869MOL0     C14636   3.066   9.556   6.774  0.0925  0.6276 -0.0203
  869MOL0     C14637   3.192   9.472   6.779  1.2763  0.2522 -0.0692
  869MOL0     C14638   3.181   9.334   6.850  0.1049 -0.3214 -0.1801
  869MOL0     C14639   3.311   9.289   6.902 -0.9558 -0.1674  0.0334
  869MOL0     C14640   3.414   9.251   6.953  0.4807 -0.1036  0.2086
  869MOL0     C14641   2.991   9.900   7.022 -0.3390  0.5055  0.5606
  869MOL0     C14642   2.972  10.028   7.063 -0.1683 -1.0428  0.1379
  869MOL0     H14643   2.707  10.299   7.273 -0.2104  0.0184 -1.7391
  869MOL0     H14644   2.620  10.482   7.403  0.1750 -1.0981 -1.5150
  869MOL0     H14645   2.572  10.708   7.385  1.6290 -1.8651 -1.0433
  869MOL0     H14646   2.623  10.862   7.457 -0.9199 -0.2357 -5.8324
  869MOL0     H14647   2.621  10.797   7.685  1.4163 -3.5391  2.1953
  869MOL0     H14648   2.586  10.640   7.649  0.5981  1.3276 -0.4817
  869MOL0     H14649   2.401  10.872   7.573 -0.2744 -0.1201  0.6519
  869MOL0     H14650   2.393  10.768   7.720  0.8730 -1.7668  0.7272
  869MOL0     H14651   2.372  10.695   7.423 -0.0524 -0.1540 -0.2386
  869MOL0     H14652   2.369  10.568   7.552  0.4158 -0.4253 -1.9161
  869MOL0     H14653   2.158  10.664   7.646 -1.2108 -2.4600 -0.4867
  869MOL0     H14654   2.144  10.619   7.485  2.9521 -0.2248 -2.1358
  869MOL0     H14655   2.178  10.858   7.404 -1.6857 -3.1598 -0.7022
  869MOL0     H14656   2.215  10.901   7.577  0.9256 -0.8715 -0.2388
  869MOL0     H14657   1.985  10.801   7.639  0.2611  1.9596  1.1740
  869MOL0     H14658   1.995  10.963   7.583  3.2696 -0.1422  3.4075
  869MOL0     H14659   1.876  10.716   7.457  1.6452 -1.3055  1.5860
  869MOL0     H14660   1.942  10.827   7.345 -1.2546  3.8635  0.6504
  869MOL0     H14661   1.670  10.790   7.612  2.3503  2.5261  1.8655
  869MOL0     H14662   1.480  11.051   7.713 -2.9017  0.7503  0.2056
  869MOL0     H14663   1.449  10.896   7.654  2.9006  0.0716  1.5073
  869MOL0     H14664   1.323  10.989   7.462  0.0173  1.0536 -0.6609
  869MOL0     H14665   1.391  11.165   7.497 -1.8553  1.2989  0.7783
  869MOL0     H14666   1.197  11.024   7.677 -1.1697 -0.1775  0.0061
  869MOL0     H14667   1.255  11.198   7.655  2.7229 -0.3367 -0.1858
  869MOL0     H14668   1.102  11.013   7.471 -1.2223  1.1163 -0.4854
  869MOL0     H14669   1.121  11.190   7.434 -0.9094  0.5996  1.2857
  869MOL0     H14670   0.785  11.296   7.685  0.8141  1.0218 -1.8233
  869MOL0     H14671   0.550  11.268   7.613 -0.1923  0.8140 -1.0497
  869MOL0     H14672   0.180  11.056   7.566 -1.4452 -0.4954 -0.9141
  869MOL0     H14673  -0.034  11.019   7.485 -1.8647  0.3286  0.7829
  869MOL0     H14674  -0.112  11.200   7.072 -0.5330  0.2584 -0.8150
  869MOL0     H14675  -0.158  11.339   7.163  0.3372  0.2392  0.0876
  869MOL0     H14676  -0.345  11.095   7.125  0.5989 -0.3058  2.1817
  869MOL0     H14677  -0.352  11.242   7.018 -1.5781  2.4970  1.2084
  869MOL0     H14678  -0.394  11.383   7.210 -2.1372 -0.0333 -3.9924
  869MOL0     H14679  -0.386  11.247   7.322  0.9238 -0.2378 -0.5571
  869MOL0     H14680  -0.580  11.292   7.097  2.3276 -1.8103 -1.2011
  869MOL0     H14681  -0.583  11.154   7.208 -0.4835  1.0421 -0.0745
  869MOL0     H14682  -0.595  11.454   7.287 -2.0683  1.4126  2.0630
  869MOL0     H14683  -0.603  11.310   7.398  2.8202  2.0969  0.5985
  869MOL0     H14684  -0.820  11.255   7.328  4.1728 -2.4947  1.7046
  869MOL0     H14685  -0.799  11.329   7.165  0.9085  0.0429  0.5822
  869MOL0     H14686  -0.804  11.481   7.441  0.3144 -0.7039 -0.3702
  869MOL0     H14687  -0.811  11.556   7.279 -0.7677  1.3283  1.3315
  869MOL0     H14688  -1.029  11.549   7.404  2.6480  0.4327 -0.4764
  869MOL0     H14689  -1.028  11.377   7.431 -3.2364  2.4674 -0.3900
  869MOL0     H14690   0.055  11.321   7.176 -0.6981  0.4445 -0.2617
  869MOL0     H14691   0.281  11.341   7.275 -0.7545  1.3361  1.3117
  869MOL0     H14692   0.676  11.008   7.300 -2.0665 -1.1837  0.3378
  869MOL0     H14693   0.897  11.028   7.364  1.1448  1.0612 -0.7090
  869MOL0     H14694   2.980  10.709   7.327 -1.6738  0.9843  1.5929
  869MOL0     H14695   3.075  10.526   7.207  0.4619  0.7643  2.8085
  869MOL0     H14696   3.275  10.164   6.989  1.1446  0.1042  0.0700
  869MOL0     H14697   3.326   9.926   6.930 -0.8319  0.2451 -1.7318
  869MOL0     H14698   2.950   9.713   6.862 -1.1798 -0.8587  0.2545
  869MOL0     H14699   2.995   9.583   6.978  2.7011 -0.9412 -0.0622
  869MOL0     H14700   2.979   9.493   6.753 -0.3526  0.3646  2.2771
  869MOL0     H14701   3.069   9.630   6.694 -2.0785  0.3902 -0.3883
  869MOL0     H14702   3.274   9.525   6.828  1.7544  0.3286 -0.9314
  869MOL0     H14703   3.223   9.453   6.676 -0.3340 -0.9981 -0.3773
  869MOL0     H14704   3.112   9.342   6.935 -1.2984  1.0284 -1.3785
  869MOL0     H14705   3.140   9.255   6.787 -0.3586 -0.9985  0.9303
  869MOL0     H14706   3.513   9.223   6.983  0.2356  0.0737  1.2086
  869MOL0     H14707   2.921   9.822   7.050  0.5316 -0.1997  0.8461
  869MOL0     H14708   2.876  10.055   7.108 -0.6654  1.1718 -2.0612
  870MOL0     O14709   8.095   0.852  10.422 -0.3815 -0.1450 -0.2466
  870MOL0     C14710   8.131   0.934  10.345  0.2217  1.2081 -0.2083
  870MOL0     O14711   8.101   1.059  10.346 -0.8981 -0.0892 -0.4362
  870MOL0     C14712   7.995   1.099  10.421 -0.9951 -0.1440  0.5053
  870MOL0     C14713   7.868   1.038  10.432 -0.1844  0.6738 -0.1327
  870MOL0     C14714   7.769   1.101  10.506 -0.0257 -0.5398 -0.2047
  870MOL0     C14715   7.771   1.228  10.557 -0.9767 -0.3408 -0.3101
  870MOL0     O14716   7.679   1.305  10.623 -0.3564  0.2909 -0.6514
  870MOL0     C14717   7.544   1.254  10.633 -0.0630 -0.2728  0.9033
  870MOL0     C14718   7.468   1.327  10.746  0.5339  0.3547 -0.5537
  870MOL0     C14719   7.328   1.276  10.770  0.5189  0.4442  0.0918
  870MOL0     C14720   7.245   1.357  10.868 -0.1210 -1.0118  0.3884
  870MOL0     C14721   7.092   1.308  10.856 -0.0385  0.7100 -0.4648
  870MOL0     C14722   7.064   1.159  10.895 -0.0109 -0.8970 -0.0531
  870MOL0     C14723   6.910   1.123  10.905  0.3644 -0.9265 -0.3770
  870MOL0     C14724   6.872   0.973  10.908 -0.5301  0.8968  0.5603
  870MOL0     N14725   6.938   0.891  11.014  0.0169  0.3689  0.3612
  870MOL0     C14726   6.875   0.777  11.054 -0.5852 -0.6225  0.1150
  870MOL0     C14727   6.940   0.736  11.162 -0.2192 -0.1077 -0.4367
  870MOL0     C14728   6.903   0.627  11.253  0.0924 -0.1676  0.3800
  870MOL0     C14729   7.017   0.543  11.306  0.0471  0.2781 -0.2812
  870MOL0     C14730   6.982   0.433  11.414  0.1409 -1.2673 -0.1642
  870MOL0     C14731   6.877   0.332  11.375  0.3770 -0.9233  0.7433
  870MOL0     O14732   6.867   0.214  11.453 -0.1596  0.4407 -0.3426
  870MOL0     C14733   6.756   0.134  11.433 -0.4280 -0.4293 -0.3754
  870MOL0     C14734   6.725   0.045  11.528  1.2028  0.3712  0.3902
  870MOL0     C14735   6.624  -0.052  11.514 -0.5642 -0.1562  0.1027
  870MOL0     C14736   6.542  -0.036  11.397 -0.7522 -0.2960 -0.3558
  870MOL0     C14737   6.423  -0.126  11.384  0.5785  0.3370  0.0701
  870MOL0     O14738   6.418  -0.232  11.482 -0.3327 -0.4204  0.1541
  870MOL0     C14739   6.326  -0.327  11.472 -0.5684  0.3607  0.1918
  870MOL0     C14740   6.353  -0.455  11.420  0.1675 -0.0181 -0.6862
  870MOL0     C14741   6.269  -0.562  11.445 -0.4753  0.3416  0.1648
  870MOL0     C14742   6.144  -0.542  11.508  0.2799 -0.2649 -0.4224
  870MOL0     O14743   6.049  -0.637  11.550  0.9758 -0.9831  0.5290
  870MOL0     C14744   6.100  -0.774  11.560 -0.0404  0.0436 -0.0377
  870MOL0     C14745   5.997  -0.873  11.630 -0.2592 -0.0500  0.1332
  870MOL0     C14746   5.900  -0.937  11.528 -0.1928 -0.1272 -0.2179
  870MOL0     C14747   5.824  -1.056  11.576 -0.4231  1.2642  1.0319
  870MOL0     C14748   5.686  -1.013  11.608  0.2429 -0.0244 -0.7047
  870MOL0     C14749   5.594  -1.140  11.639 -0.4071  1.5594  0.5937
  870MOL0     C14750   5.450  -1.105  11.604  0.5750 -0.2550  0.2843
  870MOL0     C14751   5.358  -1.215  11.647 -0.8566 -0.5208 -0.2632
  870MOL0    Cl14752   5.355  -1.225  11.827 -0.0598 -0.5561 -0.3956
  870MOL0     C14753   6.118  -0.412  11.546 -0.0326  0.5448 -0.0019
  870MOL0     C14754   6.205  -0.307  11.531  0.2565 -0.1302 -0.0441
  870MOL0     O14755   6.338  -0.104  11.296  0.7447  0.3094  0.1865
  870MOL0     C14756   6.568   0.064  11.296 -0.8925 -0.1605  0.0233
  870MOL0     C14757   6.677   0.148  11.320  0.1815 -1.1122 -0.4745
  870MOL0     N14758   7.037   0.830  11.200  0.1808 -0.0211  0.4722
  870MOL0     N14759   7.031   0.927  11.112 -0.3522  0.3174  0.0372
  870MOL0     C14760   7.905   1.284  10.549 -0.3058 -0.2845  0.0996
  870MOL0     C14761   8.018   1.221  10.485  0.5370 -0.6424 -0.0692
  870MOL0     C14762   8.250   0.898  10.268 -0.3245 -0.2149  0.2060
  870MOL0     C14763   8.268   0.764  10.228 -0.8662  0.5735 -0.0887
  870MOL0     C14764   8.392   0.722  10.166  0.0904 -0.3629  0.5966
  870MOL0     C14765   8.496   0.814  10.148 -0.2764 -0.3447 -0.4520
  870MOL0     O14766   8.613   0.766  10.091  0.2449 -0.4316 -0.1001
  870MOL0     C14767   8.732   0.831  10.134 -0.7713 -0.0251 -0.4638
  870MOL0     C14768   8.843   0.719  10.110  0.3699 -0.1215 -0.1828
  870MOL0     C14769   8.988   0.765  10.155  0.0752  0.4809  0.4729
  870MOL0     C14770   9.057   0.881  10.082 -0.2761  0.0003  0.1087
  870MOL0     C14771   9.001   1.011  10.116 -1.0653  0.3127  0.3788
  870MOL0     C14772   8.953   1.119  10.137  0.0472  0.1982 -0.2546
  870MOL0     C14773   8.473   0.947  10.199 -0.4949  0.1536  0.2532
  870MOL0     C14774   8.358   0.987  10.261 -0.8197  0.1377  0.0599
  870MOL0     H14775   7.853   0.941  10.386  0.6241  0.1686  0.6286
  870MOL0     H14776   7.687   1.032  10.526 -1.2120  1.0649  0.7899
  870MOL0     H14777   7.540   1.150  10.666  0.3410 -0.1134  1.4833
  870MOL0     H14778   7.498   1.262  10.535 -1.3862 -2.8243  1.2519
  870MOL0     H14779   7.452   1.430  10.716 -0.3749  1.2199  2.5034
  870MOL0     H14780   7.524   1.314  10.839  1.6779 -0.5254 -1.3358
  870MOL0     H14781   7.322   1.172  10.802 -1.2175  0.3231 -0.5600
  870MOL0     H14782   7.277   1.281  10.674  0.1308  4.0468  0.3443
  870MOL0     H14783   7.276   1.347  10.972  0.9740 -0.2503  0.1538
  870MOL0     H14784   7.263   1.462  10.844  0.7136 -1.1188  0.5416
  870MOL0     H14785   7.069   1.323  10.750  0.6757 -0.4401 -0.8021
  870MOL0     H14786   7.034   1.380  10.914 -1.5472 -1.6142  1.0667
  870MOL0     H14787   7.098   1.140  10.997  0.4113  1.7013  0.3477
  870MOL0     H14788   7.119   1.088  10.832  0.2518  0.3017 -1.2164
  870MOL0     H14789   6.874   1.177  10.993  0.2955 -2.5261  0.6243
  870MOL0     H14790   6.862   1.164  10.816  1.4307 -1.0230 -1.0209
  870MOL0     H14791   6.906   0.942  10.808 -1.3128  1.3701  0.1405
  870MOL0     H14792   6.764   0.956  10.899 -0.8140  2.5415  0.6600
  870MOL0     H14793   6.783   0.733  11.015 -2.2557  5.2993 -3.9425
  870MOL0     H14794   6.830   0.560  11.207 -2.1377  1.5727  1.2138
  870MOL0     H14795   6.856   0.671  11.341 -1.1044  0.3333 -0.4904
  870MOL0     H14796   7.090   0.609  11.355  0.5107 -0.0184 -0.5574
  870MOL0     H14797   7.074   0.495  11.226 -1.1880  0.6723 -1.4292
  870MOL0     H14798   7.074   0.379  11.441 -0.8861 -2.3667  1.2984
  870MOL0     H14799   6.947   0.490  11.500  2.8130  2.2832 -1.2051
  870MOL0     H14800   6.901   0.310  11.271 -0.7364  2.6090 -0.3956
  870MOL0     H14801   6.784   0.390  11.376 -0.5140 -2.2337 -1.4553
  870MOL0     H14802   6.796   0.034  11.610  3.8750  1.7737 -1.5726
  870MOL0     H14803   6.617  -0.121  11.598  0.4532  1.5677  1.6836
  870MOL0     H14804   6.446  -0.473  11.369  1.7137 -0.8315  2.1791
  870MOL0     H14805   6.297  -0.655  11.396  2.1739  2.0434 -1.8571
  870MOL0     H14806   6.189  -0.769  11.624  1.3586  2.8086 -2.0003
  870MOL0     H14807   6.138  -0.806  11.463  3.4139  0.1167  1.1789
  870MOL0     H14808   5.939  -0.816  11.704  2.4061 -1.6050  3.7147
  870MOL0     H14809   6.045  -0.953  11.687  0.8505 -0.2089 -0.9941
  870MOL0     H14810   5.968  -0.989  11.460 -0.2737 -0.5922  0.0535
  870MOL0     H14811   5.842  -0.868  11.465 -0.8048 -0.1842  0.2700
  870MOL0     H14812   5.811  -1.133  11.499 -0.8962 -2.3970  4.4913
  870MOL0     H14813   5.854  -1.123  11.657 -2.2627 -0.6122  0.2447
  870MOL0     H14814   5.645  -0.956  11.524 -0.1080 -2.2843 -2.1661
  870MOL0     H14815   5.684  -0.951  11.697  1.0459  2.5808 -2.3925
  870MOL0     H14816   5.596  -1.166  11.745 -2.3555 -0.4855  0.2130
  870MOL0     H14817   5.636  -1.228  11.589 -1.9994  0.4523  1.1235
  870MOL0     H14818   5.421  -1.013  11.656 -0.7820 -0.7904  0.5093
  870MOL0     H14819   5.444  -1.085  11.497  0.5872  3.2714  0.8025
  870MOL0     H14820   5.397  -1.310  11.608  0.7145  0.9658 -2.5358
  870MOL0     H14821   5.257  -1.191  11.610  0.3059  3.9550 -1.0930
  870MOL0     H14822   6.030  -0.398  11.607 -0.9858 -1.6385 -0.7746
  870MOL0     H14823   6.172  -0.211  11.569 -1.9985 -1.1959  0.9317
  870MOL0     H14824   6.518   0.061  11.200 -0.8755  0.1645  0.0027
  870MOL0     H14825   6.687   0.225  11.244 -0.9345  1.6739  1.9975
  870MOL0     H14826   7.920   1.371  10.611 -1.1008 -1.0975  1.4954
  870MOL0     H14827   8.112   1.275  10.495  0.3308 -0.1947 -0.4751
  870MOL0     H14828   8.189   0.690  10.242  0.1398 -0.6513 -0.6796
  870MOL0     H14829   8.397   0.619  10.133 -0.5848 -0.1090 -0.3607
  870MOL0     H14830   8.723   0.854  10.241 -1.1225 -1.8151 -0.0551
  870MOL0     H14831   8.754   0.919  10.074 -0.0760 -2.2234 -3.6778
  870MOL0     H14832   8.818   0.630  10.168 -3.3506  0.3274 -0.8930
  870MOL0     H14833   8.829   0.690  10.005 -1.0458  1.8337 -0.5857
  870MOL0     H14834   9.054   0.681  10.129 -2.1798 -1.2208 -0.0647
  870MOL0     H14835   9.000   0.775  10.264  1.9704  2.0985  0.1719
  870MOL0     H14836   9.162   0.889  10.111 -1.1074  1.2013  3.2950
  870MOL0     H14837   9.054   0.864   9.974 -0.6262  0.2408  0.0761
  870MOL0     H14838   8.906   1.214  10.151  0.6014  0.2959  1.0561
  870MOL0     H14839   8.551   1.020  10.178  0.2590 -0.7679 -0.1708
  870MOL0     H14840   8.351   1.093  10.282 -1.0493  0.3551 -1.0242
  871MOL0     O14841   8.264   3.120   3.943  0.2598  0.1532 -0.4336
  871MOL0     C14842   8.296   3.154   4.055  0.6047 -0.1927 -0.4449
  871MOL0     O14843   8.226   3.123   4.173 -0.2427 -0.6221  0.8242
  871MOL0     C14844   8.122   3.048   4.160  0.1678  0.3892 -0.1580
  871MOL0     C14845   7.988   3.093   4.137  0.0799 -0.3579 -0.7110
  871MOL0     C14846   7.877   3.008   4.121 -0.8880  1.0630 -0.7872
  871MOL0     C14847   7.892   2.866   4.121  0.3377  0.0699  0.7685
  871MOL0     O14848   7.788   2.782   4.113  0.2079 -0.3963 -0.2719
  871MOL0     C14849   7.648   2.825   4.098 -0.0267  0.4036  0.1962
  871MOL0     C14850   7.561   2.703   4.112  0.2559 -0.2080  0.3950
  871MOL0     C14851   7.410   2.746   4.105  0.2963  0.3887  0.2401
  871MOL0     C14852   7.346   2.741   4.247  0.4615  0.4438 -0.1441
  871MOL0     C14853   7.197   2.737   4.223  0.5243 -0.0871 -0.1610
  871MOL0     C14854   7.125   2.696   4.345  0.6648 -0.2912 -0.2581
  871MOL0     C14855   6.976   2.745   4.343  0.0131  0.5615  0.1376
  871MOL0     C14856   6.905   2.690   4.460  0.2982 -0.1694 -0.3352
  871MOL0     N14857   6.771   2.741   4.485  0.0560 -0.6638 -0.9584
  871MOL0     C14858   6.676   2.660   4.534  0.6897  0.0404 -0.1653
  871MOL0     C14859   6.581   2.744   4.572  0.6491  0.3161 -0.1896
  871MOL0     C14860   6.439   2.692   4.591 -0.1126  0.9170 -0.9865
  871MOL0     C14861   6.342   2.736   4.488 -0.0876 -0.1050  1.0087
  871MOL0     C14862   6.362   2.671   4.351 -0.0659  0.0756  0.0667
  871MOL0     C14863   6.264   2.740   4.247 -0.0395  0.7573 -0.7515
  871MOL0     O14864   6.150   2.663   4.263 -0.0200  0.1559 -0.9817
  871MOL0     C14865   6.037   2.707   4.195 -0.3508  0.8628  0.0386
  871MOL0     C14866   6.041   2.812   4.101 -0.4592 -0.1919  0.5525
  871MOL0     C14867   5.930   2.825   4.009  0.3095 -0.0176 -0.1123
  871MOL0     C14868   5.819   2.740   4.018  0.5052 -0.5338 -0.6304
  871MOL0     C14869   5.701   2.755   3.926  0.1028 -0.0075  0.0974
  871MOL0     O14870   5.597   2.664   3.938  0.1270 -0.4118 -0.5890
  871MOL0     C14871   5.492   2.678   3.853 -0.9947  0.8475 -0.7317
  871MOL0     C14872   5.428   2.793   3.828 -0.7483 -0.3295 -0.3725
  871MOL0     C14873   5.330   2.795   3.732 -0.4864 -0.3161  1.1490
  871MOL0     C14874   5.284   2.676   3.673  0.9446 -0.9834 -0.3698
  871MOL0     O14875   5.178   2.664   3.582  0.3248 -0.1065  0.6556
  871MOL0     C14876   5.089   2.769   3.563  0.2021  0.2711 -0.1242
  871MOL0     C14877   4.987   2.783   3.673  0.7760 -0.8493 -0.6930
  871MOL0     C14878   4.886   2.887   3.621 -0.1025  0.0548  0.2565
  871MOL0     C14879   4.796   2.951   3.722  0.9091  0.2371  0.0431
  871MOL0     C14880   4.668   3.003   3.672  0.8968  0.5472 -0.3131
  871MOL0     C14881   4.685   3.095   3.556 -0.2514  0.7076  0.2181
  871MOL0     C14882   4.562   3.171   3.518 -0.1977 -0.0392 -0.2168
  871MOL0     C14883   4.474   3.074   3.439 -1.0618 -0.4492  0.0502
  871MOL0    Cl14884   4.298   3.108   3.465 -0.2102  0.3043 -0.0983
  871MOL0     C14885   5.355   2.566   3.702  0.1157  0.9692 -0.6863
  871MOL0     C14886   5.457   2.561   3.793 -0.0227 -0.0590  0.9809
  871MOL0     O14887   5.707   2.850   3.856  0.0851  0.5311  0.3305
  871MOL0     C14888   5.829   2.629   4.105  0.6869  0.4274  0.3009
  871MOL0     C14889   5.931   2.617   4.194 -0.1645  0.8843  0.5310
  871MOL0     N14890   6.620   2.874   4.556  0.1943  0.1579 -0.6623
  871MOL0     N14891   6.742   2.876   4.506 -0.0398 -0.1419  0.2837
  871MOL0     C14892   8.025   2.815   4.128 -0.4536 -0.5800 -0.4536
  871MOL0     C14893   8.135   2.906   4.142 -0.9707 -0.5405  0.4993
  871MOL0     C14894   8.424   3.227   4.078 -0.4992  0.0519 -0.0810
  871MOL0     C14895   8.475   3.261   4.204 -0.2304  0.1094 -1.3047
  871MOL0     C14896   8.601   3.318   4.228  0.1768  0.5686 -0.5215
  871MOL0     C14897   8.691   3.336   4.123  0.2172 -0.1459 -0.5335
  871MOL0     O14898   8.816   3.390   4.149  0.1832  0.2695  0.6345
  871MOL0     C14899   8.906   3.388   4.049  0.1395  0.0267 -0.3628
  871MOL0     C14900   9.039   3.406   4.116 -0.5945 -0.5216 -0.2802
  871MOL0     C14901   9.054   3.543   4.166 -0.4127  0.2394  0.0773
  871MOL0     C14902   9.194   3.569   4.215 -0.7685 -0.2923  0.1408
  871MOL0     C14903   9.287   3.583   4.105 -0.9305 -0.4926 -0.1671
  871MOL0     C14904   9.363   3.579   4.011  0.2559 -0.4090  0.0450
  871MOL0     C14905   8.648   3.296   3.998  1.8219  0.1851  0.1721
  871MOL0     C14906   8.523   3.243   3.977 -0.0132  0.3141  0.8019
  871MOL0     H14907   7.965   3.199   4.137 -0.6031 -0.3867  2.6906
  871MOL0     H14908   7.782   3.058   4.107 -0.3271  1.9200 -1.6931
  871MOL0     H14909   7.629   2.881   4.006 -2.4636  3.1823  2.2228
  871MOL0     H14910   7.620   2.899   4.174 -0.5571 -1.1365  1.5676
  871MOL0     H14911   7.579   2.644   4.202 -1.5241 -2.1110 -0.4024
  871MOL0     H14912   7.572   2.640   4.023 -0.9855  1.3258 -0.9173
  871MOL0     H14913   7.362   2.673   4.039  0.0628  0.7265  0.0325
  871MOL0     H14914   7.398   2.840   4.050 -0.8808 -0.1308 -0.4293
  871MOL0     H14915   7.367   2.643   4.293 -0.9374  0.6782  1.0751
  871MOL0     H14916   7.375   2.823   4.313  0.6430 -0.6173  1.1544
  871MOL0     H14917   7.157   2.670   4.146 -0.3675  1.1094 -0.7681
  871MOL0     H14918   7.172   2.840   4.196  2.5186  0.7694  1.0539
  871MOL0     H14919   7.173   2.734   4.436 -1.3167  2.3208 -0.1650
  871MOL0     H14920   7.125   2.587   4.354  0.4887 -0.3463 -0.8923
  871MOL0     H14921   6.971   2.854   4.338 -1.7570  0.4359 -1.6654
  871MOL0     H14922   6.929   2.719   4.248  3.1115 -2.8515 -0.7216
  871MOL0     H14923   6.962   2.723   4.548  0.7557 -1.6656 -0.0519
  871MOL0     H14924   6.907   2.582   4.448  1.1841  0.1662 -5.9492
  871MOL0     H14925   6.665   2.553   4.522 -1.6337  0.2642 -0.4035
  871MOL0     H14926   6.412   2.730   4.690 -0.8758 -0.3985 -0.6758
  871MOL0     H14927   6.445   2.585   4.612 -1.2696  1.1947  0.9912
  871MOL0     H14928   6.357   2.844   4.487  0.7970 -0.1895  2.2425
  871MOL0     H14929   6.239   2.712   4.516 -0.6354 -1.9472 -2.1553
  871MOL0     H14930   6.461   2.692   4.310 -0.1231  0.4146  0.1028
  871MOL0     H14931   6.350   2.562   4.353  1.4962 -0.2294 -2.4295
  871MOL0     H14932   6.300   2.729   4.145 -1.8833 -1.2165 -1.2663
  871MOL0     H14933   6.249   2.847   4.258 -4.9659  0.3203 -1.2874
  871MOL0     H14934   6.125   2.880   4.101  1.9168 -2.7727 -2.8856
  871MOL0     H14935   5.940   2.902   3.933  0.3562  1.3141  1.1951
  871MOL0     H14936   5.457   2.892   3.861  4.4389 -0.4374 -3.3579
  871MOL0     H14937   5.277   2.890   3.728  0.2262  0.0861  0.8320
  871MOL0     H14938   5.035   2.745   3.471 -1.3969 -0.3872  0.9474
  871MOL0     H14939   5.145   2.863   3.553  1.1713  0.1977  3.2830
  871MOL0     H14940   5.038   2.825   3.761 -1.0041 -1.3407  0.6318
  871MOL0     H14941   4.940   2.693   3.711 -0.1166  0.4096  1.3616
  871MOL0     H14942   4.824   2.834   3.548  1.2048 -0.0676 -0.8033
  871MOL0     H14943   4.939   2.965   3.565  2.0979 -0.6843  1.2188
  871MOL0     H14944   4.779   2.873   3.796  1.3256  0.7978  0.7506
  871MOL0     H14945   4.844   3.037   3.771 -0.3252  0.7327  0.4210
  871MOL0     H14946   4.626   3.061   3.755  0.0551  2.2551 -1.8530
  871MOL0     H14947   4.599   2.920   3.651  0.9702  0.1814  0.8110
  871MOL0     H14948   4.716   3.032   3.472  0.5689  1.3809 -0.0014
  871MOL0     H14949   4.767   3.166   3.572 -0.1711  1.2676 -2.2983
  871MOL0     H14950   4.507   3.203   3.607  0.8333 -1.6578  1.0577
  871MOL0     H14951   4.589   3.263   3.464  1.9559 -0.7214 -0.4072
  871MOL0     H14952   4.495   2.970   3.468  1.1574  0.0936  0.5615
  871MOL0     H14953   4.502   3.082   3.334 -1.4296  2.1798  0.0877
  871MOL0     H14954   5.323   2.476   3.650 -0.3042  1.3568 -1.1093
  871MOL0     H14955   5.505   2.472   3.833  0.8400 -0.3714 -0.6526
  871MOL0     H14956   5.750   2.554   4.104  2.3219 -1.5053 -3.4573
  871MOL0     H14957   5.929   2.530   4.259  0.5821  2.1398  2.3132
  871MOL0     H14958   8.050   2.710   4.129  3.6531  0.2446  0.2569
  871MOL0     H14959   8.239   2.877   4.149 -0.8899 -0.0027  1.7442
  871MOL0     H14960   8.400   3.250   4.281  1.6592 -2.4690  0.3191
  871MOL0     H14961   8.612   3.362   4.326 -2.1660  0.5266 -0.1894
  871MOL0     H14962   8.895   3.466   3.973  1.0877  0.8499  0.3319
  871MOL0     H14963   8.912   3.296   3.990  1.3365  0.8838 -1.6141
  871MOL0     H14964   9.057   3.339   4.201 -4.0115 -0.5123  0.5937
  871MOL0     H14965   9.119   3.366   4.054  3.7540  1.2649  3.5464
  871MOL0     H14966   8.982   3.567   4.245 -0.3039  1.2434 -0.1174
  871MOL0     H14967   9.033   3.607   4.080 -2.0024  1.3634  1.2512
  871MOL0     H14968   9.192   3.665   4.268 -3.2273  0.3755 -1.0538
  871MOL0     H14969   9.226   3.489   4.282  0.5631 -0.1589 -0.2975
  871MOL0     H14970   9.431   3.580   3.928  0.0480 -0.8432 -0.1317
  871MOL0     H14971   8.713   3.306   3.912  0.1985 -1.4765 -1.3303
  871MOL0     H14972   8.488   3.226   3.876 -2.0836  1.7499  1.2262
  872MOL0     O14973   3.134   4.131   4.310 -0.3799 -0.3803  0.0150
  872MOL0     C14974   3.210   4.139   4.217  0.5150  0.1632 -0.2980
  872MOL0     O14975   3.165   4.131   4.079  0.9905  0.2525 -0.7713
  872MOL0     C14976   3.030   4.098   4.050  0.3635 -1.0637  0.1742
  872MOL0     C14977   2.994   4.134   3.913 -0.1788 -0.2185  0.1361
  872MOL0     C14978   2.863   4.104   3.875 -0.2853  0.6324  0.4123
  872MOL0     C14979   2.759   4.031   3.955  0.0898  0.0220  0.5454
  872MOL0     O14980   2.623   4.019   3.926  0.1655  0.9630 -0.0223
  872MOL0     C14981   2.574   4.093   3.810 -1.1300  0.0242  0.4438
  872MOL0     C14982   2.420   4.051   3.783  1.2119 -0.1547  0.1785
  872MOL0     C14983   2.369   4.133   3.663  0.0986  1.1120 -0.1997
  872MOL0     C14984   2.246   4.075   3.602 -0.0790  1.2520  0.5950
  872MOL0     C14985   2.206   4.159   3.489  0.4705 -0.5790 -0.1047
  872MOL0     C14986   2.087   4.110   3.413 -0.5053  0.4449  0.2922
  872MOL0     C14987   2.022   4.221   3.330 -1.2262 -0.9168  0.1854
  872MOL0     C14988   1.917   4.153   3.251  0.9309  0.9132  0.5619
  872MOL0     N14989   1.824   4.240   3.169 -0.6312 -0.0700 -0.4063
  872MOL0     C14990   1.723   4.328   3.217  0.5199  0.9735  0.3237
  872MOL0     C14991   1.628   4.335   3.121 -0.9553  0.4639 -0.0982
  872MOL0     C14992   1.495   4.405   3.156 -0.5704  0.3587  0.5128
  872MOL0     C14993   1.425   4.292   3.247 -0.0019 -0.5197  0.9633
  872MOL0     C14994   1.281   4.330   3.269 -0.3017 -0.3023  0.2393
  872MOL0     C14995   1.194   4.318   3.152 -0.0971  0.2185 -0.2682
  872MOL0     O14996   1.057   4.323   3.195  0.1784  0.6842  0.4693
  872MOL0     C14997   0.950   4.323   3.109  0.3062  0.5285 -0.7024
  872MOL0     C14998   0.964   4.334   2.970 -0.4865  0.3499  0.1740
  872MOL0     C14999   0.847   4.349   2.896  0.4644  0.2836 -0.1060
  872MOL0     C15000   0.719   4.337   2.952 -0.0233 -0.0183  1.2411
  872MOL0     C15001   0.602   4.353   2.860  0.3135  0.4094 -0.5801
  872MOL0     O15002   0.481   4.321   2.913 -0.1066 -0.6220  0.5392
  872MOL0     C15003   0.365   4.338   2.829 -1.1734 -0.4733 -0.1666
  872MOL0     C15004   0.345   4.241   2.730  0.5523 -0.0720  0.1685
  872MOL0     C15005   0.226   4.246   2.656 -1.2116 -0.0367  0.2310
  872MOL0     C15006   0.126   4.345   2.679 -0.0409  0.3278 -0.0177
  872MOL0     O15007   0.004   4.331   2.611  0.2184  0.4213  0.4719
  872MOL0     C15008  -0.100   4.412   2.640 -0.1006 -0.3141 -0.1118
  872MOL0     C15009  -0.229   4.350   2.577 -0.0634 -0.6240  0.6097
  872MOL0     C15010  -0.340   4.449   2.595 -0.6431 -0.3397 -0.0820
  872MOL0     C15011  -0.483   4.400   2.547 -1.3451 -0.2910 -0.4739
  872MOL0     C15012  -0.598   4.452   2.632 -0.1264 -0.5912 -0.1528
  872MOL0     C15013  -0.592   4.593   2.693 -0.3459 -0.0966 -0.0274
  872MOL0     C15014  -0.718   4.626   2.775  0.6161 -0.2908 -0.2691
  872MOL0     C15015  -0.706   4.585   2.925 -0.5917  0.3084 -0.9237
  872MOL0    Cl15016  -0.827   4.655   3.038 -0.0840 -0.0132  0.0496
  872MOL0     C15017   0.147   4.439   2.781  0.4050 -0.3941 -0.0254
  872MOL0     C15018   0.269   4.436   2.853  0.5889  0.4048 -0.2722
  872MOL0     O15019   0.619   4.392   2.747 -0.0118 -0.0521  0.3635
  872MOL0     C15020   0.716   4.317   3.086  0.7460 -0.2596 -0.2326
  872MOL0     C15021   0.825   4.311   3.163 -0.2758 -0.2693 -0.3649
  872MOL0     N15022   1.675   4.260   3.008  0.6429 -1.0574  0.6313
  872MOL0     N15023   1.789   4.208   3.039  0.0497  0.6920 -0.6953
  872MOL0     C15024   2.818   3.980   4.073  0.9202 -0.2548 -0.7832
  872MOL0     C15025   2.940   4.019   4.121  0.0287 -0.1447  0.5107
  872MOL0     C15026   3.355   4.164   4.245 -1.2342  0.1146  0.2306
  872MOL0     C15027   3.425   4.242   4.154 -0.6135 -0.6121  0.1783
  872MOL0     C15028   3.564   4.271   4.179 -0.9218 -0.3506  0.0412
  872MOL0     C15029   3.626   4.231   4.295 -1.2513 -1.2891 -0.4301
  872MOL0     O15030   3.765   4.263   4.309 -0.2108  0.3459 -0.8382
  872MOL0     C15031   3.837   4.234   4.436  0.9090 -0.4149  0.0601
  872MOL0     C15032   3.968   4.312   4.462 -0.0712  0.4905  0.2856
  872MOL0     C15033   3.953   4.465   4.441  0.5703  0.7030  0.2005
  872MOL0     C15034   3.924   4.555   4.557  0.3549 -1.7151  0.6538
  872MOL0     C15035   3.808   4.521   4.627 -0.6395 -0.4895 -0.4861
  872MOL0     C15036   3.694   4.494   4.669  0.3368 -0.0433  0.0459
  872MOL0     C15037   3.547   4.159   4.378 -0.5865  0.7233 -0.0000
  872MOL0     C15038   3.411   4.120   4.361  0.1210  0.0482 -0.2656
  872MOL0     H15039   3.062   4.193   3.853 -1.7858  1.0893 -0.4552
  872MOL0     H15040   2.822   4.148   3.784  0.3733  1.0005  0.2861
  872MOL0     H15041   2.645   4.070   3.730  1.9487  0.6622  2.7985
  872MOL0     H15042   2.586   4.199   3.835  0.5021 -0.2527  0.9183
  872MOL0     H15043   2.357   4.076   3.869 -0.8911 -0.1997 -1.2791
  872MOL0     H15044   2.419   3.948   3.746 -0.3496 -0.0408 -0.1317
  872MOL0     H15045   2.448   4.132   3.588  0.1991  1.6074 -0.1050
  872MOL0     H15046   2.349   4.234   3.701 -1.1979 -0.1714  2.8536
  872MOL0     H15047   2.259   3.977   3.554 -0.0294  2.1738 -1.4048
  872MOL0     H15048   2.161   4.070   3.671  0.5468  2.9347  1.5246
  872MOL0     H15049   2.284   4.170   3.413 -0.2173  2.5751 -0.4981
  872MOL0     H15050   2.176   4.260   3.519 -2.8534 -1.0054 -1.5457
  872MOL0     H15051   2.016   4.059   3.478  2.2855 -4.6324 -0.1404
  872MOL0     H15052   2.126   4.028   3.352 -1.7931 -0.1626  0.2649
  872MOL0     H15053   1.977   4.301   3.390 -2.7775 -1.1918 -0.5425
  872MOL0     H15054   2.096   4.260   3.259 -3.4214 -0.3915 -1.9664
  872MOL0     H15055   1.856   4.084   3.311  0.0252 -0.0012 -1.3275
  872MOL0     H15056   1.965   4.087   3.178  0.7266  1.0464  0.3065
  872MOL0     H15057   1.705   4.383   3.308 -1.2145  1.9656 -0.5766
  872MOL0     H15058   1.447   4.444   3.065 -1.6504 -0.3760  0.7517
  872MOL0     H15059   1.511   4.496   3.214  0.0333  1.7643 -1.7162
  872MOL0     H15060   1.485   4.276   3.337  0.5141 -1.2511  0.4965
  872MOL0     H15061   1.423   4.198   3.191  0.4294 -0.1447  0.3093
  872MOL0     H15062   1.231   4.274   3.349 -3.5655  1.5223 -0.3528
  872MOL0     H15063   1.281   4.430   3.313 -2.5014 -0.6146  1.0836
  872MOL0     H15064   1.214   4.226   3.096 -1.1350 -2.1049  2.9436
  872MOL0     H15065   1.225   4.401   3.087  1.1370 -1.1438 -1.5097
  872MOL0     H15066   1.060   4.360   2.926  1.1546 -1.1656  2.5698
  872MOL0     H15067   0.858   4.389   2.796  0.0939 -0.7826 -0.5770
  872MOL0     H15068   0.419   4.162   2.722 -0.4543 -0.9975 -0.3237
  872MOL0     H15069   0.204   4.172   2.580  5.2983 -0.3275 -2.0068
  872MOL0     H15070  -0.069   4.509   2.599  0.1771 -0.0964  0.6054
  872MOL0     H15071  -0.112   4.427   2.747  0.9852 -0.1866 -0.0036
  872MOL0     H15072  -0.265   4.258   2.624  2.5887 -0.4501  3.2773
  872MOL0     H15073  -0.215   4.334   2.470 -0.8593  0.1082  0.3853
  872MOL0     H15074  -0.317   4.541   2.539  0.0289 -0.4096  0.0687
  872MOL0     H15075  -0.337   4.474   2.701  3.4374 -1.1927  0.1583
  872MOL0     H15076  -0.505   4.423   2.442 -1.2845 -0.2383 -0.4747
  872MOL0     H15077  -0.473   4.292   2.556  3.1533 -0.6287 -5.0619
  872MOL0     H15078  -0.598   4.386   2.720  1.1587 -0.1431  0.2026
  872MOL0     H15079  -0.694   4.430   2.585 -0.8790  0.0165  1.0540
  872MOL0     H15080  -0.592   4.660   2.606 -0.2340 -1.4057 -1.0779
  872MOL0     H15081  -0.507   4.603   2.761  1.1464 -0.0844 -1.8102
  872MOL0     H15082  -0.743   4.732   2.770 -3.1550 -1.0343 -0.3286
  872MOL0     H15083  -0.812   4.582   2.741  1.0198 -3.4587  2.2335
  872MOL0     H15084  -0.615   4.634   2.961 -1.0655 -0.4974  1.5760
  872MOL0     H15085  -0.695   4.478   2.944  0.1109  0.6803  1.0371
  872MOL0     H15086   0.074   4.509   2.821  0.2738 -0.8410  0.5173
  872MOL0     H15087   0.277   4.495   2.944  0.5564 -0.4551  0.3100
  872MOL0     H15088   0.624   4.300   3.141  1.1558 -1.7354  0.0248
  872MOL0     H15089   0.809   4.301   3.270 -1.9981  1.0445 -0.4614
  872MOL0     H15090   2.753   3.904   4.115  0.6046 -0.3438 -1.4162
  872MOL0     H15091   2.965   3.970   4.214 -2.4891 -1.0212  0.8086
  872MOL0     H15092   3.388   4.284   4.060 -0.5307  2.6925  1.4788
  872MOL0     H15093   3.618   4.321   4.099  0.4008  0.1348  1.2083
  872MOL0     H15094   3.855   4.127   4.451 -0.6371 -0.7121 -0.0692
  872MOL0     H15095   3.776   4.261   4.523  1.2935  4.6504 -0.9144
  872MOL0     H15096   4.024   4.281   4.551  1.9616 -0.8875 -1.3880
  872MOL0     H15097   4.034   4.288   4.378  0.8305  1.3749  0.7150
  872MOL0     H15098   3.878   4.469   4.361  3.6833 -1.9055 -3.2117
  872MOL0     H15099   4.043   4.499   4.388 -0.3610 -1.2951 -2.9693
  872MOL0     H15100   4.010   4.561   4.625  1.4926 -0.5153 -0.8237
  872MOL0     H15101   3.900   4.657   4.525  0.7741 -2.2776 -1.5818
  872MOL0     H15102   3.594   4.475   4.704  0.1051  0.3956 -0.3736
  872MOL0     H15103   3.590   4.142   4.476 -2.2152  3.0486  1.2277
  872MOL0     H15104   3.364   4.058   4.438 -1.1120 -0.8655 -1.7017
  873MOL0     O15105  10.404   2.263   6.444  0.7852  0.9629 -0.5397
  873MOL0     C15106  10.344   2.342   6.374 -0.8895 -0.7089 -0.1586
  873MOL0     O15107  10.241   2.308   6.300 -0.0286 -0.1135  0.3266
  873MOL0     C15108  10.187   2.186   6.288  0.5905  0.4131  0.6385
  873MOL0     C15109  10.205   2.083   6.381  0.6458 -0.6608  0.4317
  873MOL0     C15110  10.142   1.954   6.371  0.2594 -0.0250 -0.4666
  873MOL0     C15111  10.048   1.938   6.264 -0.5375  0.2748 -0.2154
  873MOL0     O15112   9.985   1.817   6.230 -0.1932 -0.2438  0.5054
  873MOL0     C15113  10.054   1.693   6.263 -0.0411 -0.6131 -0.0032
  873MOL0     C15114  10.131   1.651   6.137 -0.1127 -0.1509 -0.3040
  873MOL0     C15115  10.222   1.529   6.154 -0.5738 -0.2781 -0.7053
  873MOL0     C15116  10.297   1.512   6.021  0.9312 -1.3466 -0.0643
  873MOL0     C15117  10.406   1.405   6.033  1.1084  0.3629  0.2531
  873MOL0     C15118  10.524   1.433   6.125 -0.0097  0.1878 -0.9745
  873MOL0     C15119  10.613   1.311   6.144  0.0350  0.1060  0.3016
  873MOL0     C15120  10.693   1.270   6.014 -0.0583 -0.5892  0.3346
  873MOL0     N15121  10.768   1.383   5.954  1.0694  0.0065 -0.0192
  873MOL0     C15122  10.885   1.439   5.992 -0.0085 -0.3550  0.2824
  873MOL0     C15123  10.898   1.550   5.913 -0.3896  0.2149  0.2656
  873MOL0     C15124  11.004   1.655   5.903 -1.3847 -0.7794 -0.6786
  873MOL0     C15125  11.100   1.638   6.014 -0.3064 -0.3820 -0.2921
  873MOL0     C15126  11.054   1.717   6.139 -0.0326  1.0856  0.4354
  873MOL0     C15127  11.143   1.704   6.257 -0.1221  0.1460 -0.3995
  873MOL0     O15128  11.162   1.567   6.303  0.5389 -1.2499  0.6345
  873MOL0     C15129  11.264   1.542   6.391  0.4746  0.4927  0.3270
  873MOL0     C15130  11.380   1.611   6.419 -0.4235 -0.0524  0.1085
  873MOL0     C15131  11.471   1.552   6.504 -0.3167 -0.3031  0.0870
  873MOL0     C15132  11.459   1.430   6.571  0.5112 -0.4611 -0.4663
  873MOL0     C15133  11.561   1.373   6.664  0.6441 -0.7342  0.1546
  873MOL0     O15134  11.685   1.426   6.671 -0.2459 -0.5874  0.3167
  873MOL0     C15135  11.773   1.367   6.758 -0.3187  0.2929 -1.0080
  873MOL0     C15136  11.743   1.351   6.890 -0.3254 -0.3102 -0.5428
  873MOL0     C15137  11.835   1.294   6.977  0.2212  0.4354 -0.8610
  873MOL0     C15138  11.959   1.244   6.926  0.1752 -0.1718  0.2695
  873MOL0     O15139  12.053   1.196   7.007 -0.3107 -0.1942  0.0030
  873MOL0     C15140  12.105   1.071   6.955  0.1980  0.0331 -0.1747
  873MOL0     C15141  12.210   1.004   7.045 -0.4181 -1.1668 -0.1566
  873MOL0     C15142  12.333   1.099   7.054 -0.0054  0.4024 -0.1331
  873MOL0     C15143  12.435   1.038   7.150 -0.1916 -0.7390  0.3324
  873MOL0     C15144  12.562   1.113   7.151 -0.2390  0.2556  0.1052
  873MOL0     C15145  12.661   1.081   7.268 -0.3945 -0.9330 -0.2419
  873MOL0     C15146  12.715   0.942   7.260 -1.0152 -0.0869 -0.5705
  873MOL0     C15147  12.787   0.903   7.389 -0.0553 -0.6748  0.0345
  873MOL0    Cl15148  12.936   0.999   7.439 -0.2817 -0.4338  0.3337
  873MOL0     C15149  11.995   1.282   6.796  0.6827 -0.1698 -0.2641
  873MOL0     C15150  11.896   1.334   6.707 -0.0245  0.2077 -0.4584
  873MOL0     O15151  11.511   1.280   6.733  0.4060 -0.8714  0.1552
  873MOL0     C15152  11.348   1.356   6.544 -0.1189  0.6022  0.3263
  873MOL0     C15153  11.243   1.419   6.461  0.0141  0.0037 -0.4627
  873MOL0     N15154  10.791   1.550   5.817  0.1949  0.2821 -0.4832
  873MOL0     N15155  10.720   1.452   5.844  0.5510  1.4106 -0.1959
  873MOL0     C15156  10.023   2.049   6.170  0.3340  0.1496  0.0937
  873MOL0     C15157  10.101   2.166   6.184  0.7233  0.5811 -0.6132
  873MOL0     C15158  10.376   2.486   6.387  0.1718  0.7639 -0.5228
  873MOL0     C15159  10.469   2.527   6.485  0.8157 -0.0482  0.5440
  873MOL0     C15160  10.482   2.663   6.511  0.7963 -1.2194  0.5784
  873MOL0     C15161  10.410   2.760   6.445  0.2031 -0.0282 -0.9385
  873MOL0     O15162  10.416   2.890   6.488 -0.6474 -0.1909 -0.5060
  873MOL0     C15163  10.338   2.984   6.420  0.6545 -0.1726  0.4083
  873MOL0     C15164  10.386   3.131   6.442 -1.3415  0.7575 -0.4253
  873MOL0     C15165  10.535   3.147   6.426 -0.8208 -0.3317 -0.3007
  873MOL0     C15166  10.598   3.212   6.551 -0.4971 -0.2411 -0.4077
  873MOL0     C15167  10.616   3.123   6.662  0.9160 -0.0046 -0.1251
  873MOL0     C15168  10.628   3.044   6.746  0.1948  0.7358 -0.5171
  873MOL0     C15169  10.312   2.717   6.358  0.2013 -0.3251  0.3192
  873MOL0     C15170  10.295   2.586   6.323 -0.1605  1.6171 -0.4785
  873MOL0     H15171  10.276   2.082   6.464  0.6992 -2.8650  0.4187
  873MOL0     H15172  10.151   1.873   6.442  0.3980 -0.4464 -0.9576
  873MOL0     H15173   9.973   1.624   6.288  1.1062 -1.3861  1.6921
  873MOL0     H15174  10.121   1.697   6.349  1.5954 -2.7656 -1.0692
  873MOL0     H15175  10.184   1.739   6.101  0.3881 -1.2802 -2.5206
  873MOL0     H15176  10.058   1.622   6.061  1.0590 -1.4562 -0.9853
  873MOL0     H15177  10.176   1.439   6.197 -1.4459  0.9347  1.0056
  873MOL0     H15178  10.296   1.567   6.225 -2.3466 -0.0025  1.1039
  873MOL0     H15179  10.219   1.479   5.952 -0.9475 -0.4057  1.5151
  873MOL0     H15180  10.343   1.605   5.988  2.1920 -2.4979 -1.7299
  873MOL0     H15181  10.446   1.389   5.932  0.6191 -2.2174  0.4103
  873MOL0     H15182  10.358   1.310   6.058  2.3076 -0.8631 -1.7514
  873MOL0     H15183  10.488   1.468   6.222  0.2673 -1.1070 -0.3882
  873MOL0     H15184  10.571   1.522   6.080  0.3123  1.5240  1.7960
  873MOL0     H15185  10.681   1.333   6.227  1.2788  0.6603 -0.8353
  873MOL0     H15186  10.559   1.219   6.167 -0.0207 -0.5311 -2.0820
  873MOL0     H15187  10.616   1.232   5.947 -0.8843  2.6830 -0.7692
  873MOL0     H15188  10.756   1.184   6.039  0.7306 -0.1222 -0.0148
  873MOL0     H15189  10.956   1.406   6.067  2.9691 -2.1271 -2.9918
  873MOL0     H15190  10.968   1.759   5.900  0.1737 -0.1502  0.8512
  873MOL0     H15191  11.065   1.638   5.813 -0.3697  4.3066 -1.2798
  873MOL0     H15192  11.189   1.692   5.981 -0.3043  1.3532  2.2691
  873MOL0     H15193  11.120   1.535   6.046 -0.3605  0.0245  1.1355
  873MOL0     H15194  11.045   1.823   6.115  0.6851  1.2395  0.8223
  873MOL0     H15195  10.955   1.681   6.171 -0.1918  1.2102  0.0894
  873MOL0     H15196  11.097   1.743   6.348  3.8203  0.7784  1.5110
  873MOL0     H15197  11.233   1.764   6.242 -0.4881  1.4552  2.1086
  873MOL0     H15198  11.388   1.713   6.383 -2.1716  0.0062 -0.2320
  873MOL0     H15199  11.557   1.613   6.532  0.7730 -2.4435  1.7030
  873MOL0     H15200  11.645   1.390   6.913  1.0178  2.9211  0.3081
  873MOL0     H15201  11.820   1.291   7.084  0.9192  4.1333 -0.5205
  873MOL0     H15202  12.145   1.088   6.854 -0.4858 -0.5708 -0.5554
  873MOL0     H15203  12.027   0.995   6.963 -0.0317  0.4725  3.6493
  873MOL0     H15204  12.229   0.905   7.003  3.5556 -1.1372  1.1635
  873MOL0     H15205  12.166   0.985   7.143 -2.0400  1.5650 -0.2379
  873MOL0     H15206  12.305   1.195   7.098 -2.3511  1.3667 -3.3348
  873MOL0     H15207  12.368   1.124   6.953  1.1521  0.3963  0.2558
  873MOL0     H15208  12.394   1.050   7.251  1.3811  0.8622  0.8357
  873MOL0     H15209  12.457   0.934   7.127  1.4034 -0.9999  2.6557
  873MOL0     H15210  12.537   1.219   7.155  1.7903  0.7537  1.8709
  873MOL0     H15211  12.613   1.099   7.055  0.8501  2.1226  0.3685
  873MOL0     H15212  12.609   1.094   7.363  3.0499 -1.2843  1.8692
  873MOL0     H15213  12.739   1.157   7.259 -0.8322 -0.5988 -1.5520
  873MOL0     H15214  12.646   0.866   7.222 -2.6651 -0.8531  3.4520
  873MOL0     H15215  12.804   0.950   7.196 -0.4433  0.0102  0.2250
  873MOL0     H15216  12.812   0.797   7.378 -1.0682 -0.7389 -2.5117
  873MOL0     H15217  12.717   0.922   7.470  1.2600  0.8332  0.8932
  873MOL0     H15218  12.099   1.281   6.766  0.5684  1.6440 -0.7930
  873MOL0     H15219  11.943   1.332   6.609 -1.1913 -1.5611 -1.0268
  873MOL0     H15220  11.327   1.257   6.583 -2.1810  1.3286  1.1981
  873MOL0     H15221  11.151   1.361   6.453  0.1096 -0.3684  0.8270
  873MOL0     H15222   9.953   2.032   6.089 -0.1492 -4.2611  1.1380
  873MOL0     H15223  10.089   2.249   6.115  1.9771 -0.4885 -2.1907
  873MOL0     H15224  10.512   2.460   6.558  1.4186  0.7786  0.9688
  873MOL0     H15225  10.536   2.691   6.601 -2.0287 -0.1850  2.0767
  873MOL0     H15226  10.233   2.972   6.447  0.6195 -0.5154  0.1332
  873MOL0     H15227  10.348   2.981   6.311  0.7484  3.0236  0.2421
  873MOL0     H15228  10.341   3.191   6.362 -2.1222  0.2747 -0.3633
  873MOL0     H15229  10.355   3.169   6.540  0.7295 -1.5768  1.2561
  873MOL0     H15230  10.561   3.224   6.353  0.2675  1.2136  1.6227
  873MOL0     H15231  10.601   3.064   6.398  0.8784  0.8460  0.0483
  873MOL0     H15232  10.701   3.244   6.531 -0.5770  0.4038  0.1690
  873MOL0     H15233  10.544   3.300   6.587 -1.6298 -0.1983 -2.1206
  873MOL0     H15234  10.620   2.983   6.834 -1.3112 -0.2062 -1.2687
  873MOL0     H15235  10.240   2.783   6.310 -0.4748 -0.8146  0.6483
  873MOL0     H15236  10.216   2.562   6.252  0.7140 -1.1221 -0.6224
  874MOL0     O15237   5.432  11.066   3.773 -0.3345  0.1049 -1.2970
  874MOL0     C15238   5.380  11.166   3.819 -0.7367  0.6985 -0.2943
  874MOL0     O15239   5.443  11.285   3.848  0.5273 -0.6274 -0.6229
  874MOL0     C15240   5.578  11.323   3.844 -0.6097 -0.1947  0.0657
  874MOL0     C15241   5.614  11.454   3.876 -1.5071 -0.7697  0.3298
  874MOL0     C15242   5.739  11.510   3.863  0.1251  0.1770 -0.3039
  874MOL0     C15243   5.839  11.420   3.826 -1.0676  0.7319 -0.2322
  874MOL0     O15244   5.974  11.455   3.810 -0.6270  0.1372  0.3254
  874MOL0     C15245   6.024  11.586   3.817  0.4188  0.8895 -0.3516
  874MOL0     C15246   6.160  11.601   3.748  0.7204 -0.6724 -0.0200
  874MOL0     C15247   6.188  11.749   3.761  0.3624  0.4429  0.2216
  874MOL0     C15248   6.321  11.790   3.702  0.8891  0.1035 -1.4518
  874MOL0     C15249   6.367  11.931   3.737 -0.0663 -1.4436  0.3242
  874MOL0     C15250   6.259  12.045   3.717 -0.4778 -0.1062  0.5406
  874MOL0     C15251   6.316  12.175   3.743 -0.4773 -0.3939  0.2564
  874MOL0     C15252   6.350  12.197   3.886 -0.1293  0.0347 -0.2588
  874MOL0     N15253   6.411  12.330   3.900 -0.0574  0.2279 -0.6527
  874MOL0     C15254   6.536  12.371   3.861 -1.1881 -0.3880 -0.3792
  874MOL0     C15255   6.539  12.505   3.896  0.0621  0.1648 -1.1616
  874MOL0     C15256   6.653  12.605   3.881 -0.0026 -0.5981 -0.1982
  874MOL0     C15257   6.677  12.631   3.732  0.1772 -0.1287  1.2491
  874MOL0     C15258   6.561  12.703   3.659 -0.4196  0.6132  0.8117
  874MOL0     C15259   6.473  12.623   3.562  1.0278  0.0608  0.9083
  874MOL0     O15260   6.547  12.545   3.462 -0.3946  0.1228 -0.2833
  874MOL0     C15261   6.591  12.620   3.352  0.1708 -0.4567 -0.0063
  874MOL0     C15262   6.500  12.653   3.261  0.1937  0.1358  0.3127
  874MOL0     C15263   6.539  12.729   3.148  0.4364  0.4796 -0.6499
  874MOL0     C15264   6.663  12.774   3.135 -0.0526 -0.6743 -0.9927
  874MOL0     C15265   6.688  12.868   3.024 -0.2739  0.0342  0.3500
  874MOL0     O15266   6.592  12.959   2.966 -0.0332 -0.2177 -0.0996
  874MOL0     C15267   6.637  13.012   2.846  1.0762  1.1693  0.2386
  874MOL0     C15268   6.714  13.127   2.840 -0.1670  0.0456 -0.3030
  874MOL0     C15269   6.742  13.184   2.712  0.3717 -0.2385 -0.5207
  874MOL0     C15270   6.691  13.127   2.597  0.3460  0.8337  1.1594
  874MOL0     O15271   6.717  13.182   2.473  0.4757  0.8900  0.3145
  874MOL0     C15272   6.681  13.316   2.447 -0.5774  0.8734  0.2112
  874MOL0     C15273   6.568  13.316   2.346  0.1900  0.0444  0.3459
  874MOL0     C15274   6.431  13.339   2.410 -0.3931  0.5001  0.4140
  874MOL0     C15275   6.314  13.327   2.314 -0.6262 -0.2091  0.3358
  874MOL0     C15276   6.304  13.443   2.211  0.7194 -0.3303  0.5316
  874MOL0     C15277   6.192  13.434   2.109  0.4965 -0.2939  0.2081
  874MOL0     C15278   6.178  13.571   2.040  0.4116  0.0698  0.0258
  874MOL0     C15279   6.044  13.574   1.976 -0.4958 -0.3140  0.7307
  874MOL0    Cl15280   6.042  13.435   1.855 -0.2563 -0.0665 -0.3676
  874MOL0     C15281   6.610  13.015   2.605 -0.1988  0.6687  0.5280
  874MOL0     C15282   6.582  12.962   2.732  0.7922 -0.2298  0.2860
  874MOL0     O15283   6.797  12.842   2.971  0.4683  0.3071 -0.5019
  874MOL0     C15284   6.764  12.736   3.225 -0.0946  0.3552 -0.0754
  874MOL0     C15285   6.729  12.652   3.337 -0.0247  0.0825  0.0872
  874MOL0     N15286   6.420  12.539   3.960 -0.1317  0.1764 -0.2304
  874MOL0     N15287   6.344  12.431   3.967 -0.1616  0.2425  0.0778
  874MOL0     C15288   5.811  11.284   3.796  0.7394 -0.4833  0.8288
  874MOL0     C15289   5.679  11.242   3.796 -0.3849 -0.1722 -0.4266
  874MOL0     C15290   5.236  11.166   3.845 -0.1842 -0.2912 -0.2918
  874MOL0     C15291   5.160  11.050   3.827 -0.5894  0.5481 -0.1191
  874MOL0     C15292   5.022  11.048   3.855  0.7916 -0.4526  0.1174
  874MOL0     C15293   4.957  11.161   3.911 -0.6174 -0.0951 -0.5710
  874MOL0     O15294   4.823  11.137   3.930  0.3186  0.5510 -0.8092
  874MOL0     C15295   4.746  11.247   3.966 -0.8908  0.0101 -0.2172
  874MOL0     C15296   4.608  11.209   4.027  0.3965 -0.0661  0.4446
  874MOL0     C15297   4.518  11.181   3.908 -0.0948  0.5658 -0.4856
  874MOL0     C15298   4.366  11.218   3.934 -0.6253  0.4631 -0.0588
  874MOL0     C15299   4.292  11.183   3.816 -0.8905  0.3961  0.8397
  874MOL0     C15300   4.226  11.130   3.731  0.6377  0.7151  0.1689
  874MOL0     C15301   5.037  11.270   3.956 -1.2596  0.9040  0.9999
  874MOL0     C15302   5.176  11.273   3.915  0.8391  0.1550  0.6756
  874MOL0     H15303   5.539  11.522   3.915 -0.3417  0.0397  1.2342
  874MOL0     H15304   5.750  11.615   3.888  0.4583  0.5652 -1.9344
  874MOL0     H15305   6.032  11.613   3.923 -0.7721  0.4979 -0.1448
  874MOL0     H15306   5.945  11.653   3.784 -0.7061  0.2761  0.9946
  874MOL0     H15307   6.146  11.562   3.647  2.6142  1.0834 -1.0348
  874MOL0     H15308   6.243  11.546   3.793  1.2526 -1.1498 -1.5175
  874MOL0     H15309   6.170  11.780   3.865 -1.3855  1.2218 -0.2778
  874MOL0     H15310   6.113  11.804   3.703 -0.2085 -1.1755 -0.6177
  874MOL0     H15311   6.401  11.726   3.742  0.5601  0.4142 -0.2744
  874MOL0     H15312   6.330  11.782   3.593 -2.3377 -1.4677 -1.7161
  874MOL0     H15313   6.456  11.955   3.678 -0.8360  0.5756 -0.0993
  874MOL0     H15314   6.400  11.939   3.841 -2.2697  0.4801  0.9678
  874MOL0     H15315   6.182  12.035   3.794 -0.6419 -0.8267  0.2889
  874MOL0     H15316   6.221  12.031   3.615  0.0743 -2.2674  0.5763
  874MOL0     H15317   6.409  12.189   3.688 -0.6045 -1.2073 -0.1757
  874MOL0     H15318   6.244  12.250   3.710 -0.4376 -0.5602 -0.2135
  874MOL0     H15319   6.427  12.124   3.914 -0.1963 -0.4614 -1.3332
  874MOL0     H15320   6.269  12.177   3.957  1.6664 -0.2358  1.8168
  874MOL0     H15321   6.612  12.314   3.807  1.2325  1.0873  1.2524
  874MOL0     H15322   6.741  12.552   3.920 -0.8094 -1.4580  0.5009
  874MOL0     H15323   6.627  12.695   3.939 -0.0090  0.0253 -1.1501
  874MOL0     H15324   6.706  12.544   3.673 -1.6228 -0.1955  0.3968
  874MOL0     H15325   6.762  12.697   3.715 -1.3520  1.4002 -0.9893
  874MOL0     H15326   6.492  12.732   3.739  0.4032  0.9837  1.4043
  874MOL0     H15327   6.589  12.793   3.605 -1.0593  0.0995 -0.4080
  874MOL0     H15328   6.400  12.694   3.522 -0.5972 -2.1004 -0.1770
  874MOL0     H15329   6.406  12.553   3.614 -1.1146  1.8402  0.7445
  874MOL0     H15330   6.393  12.642   3.275 -0.0558  2.0711  0.2172
  874MOL0     H15331   6.473  12.765   3.070  1.2372  3.7955  0.0726
  874MOL0     H15332   6.748  13.187   2.924  1.5250  1.9217 -2.1892
  874MOL0     H15333   6.805  13.272   2.706 -0.5166  0.5024  0.5301
  874MOL0     H15334   6.772  13.352   2.398  0.6427 -1.0381  0.9669
  874MOL0     H15335   6.669  13.371   2.541  2.3530 -1.1207  1.9229
  874MOL0     H15336   6.560  13.223   2.288  2.4460  0.5867 -0.9812
  874MOL0     H15337   6.585  13.396   2.274  0.7851 -2.4690 -2.5098
  874MOL0     H15338   6.436  13.437   2.458 -1.2531 -0.0858  1.7615
  874MOL0     H15339   6.412  13.264   2.487 -1.2539  0.5667  0.2700
  874MOL0     H15340   6.319  13.227   2.270 -1.8866 -1.1142  2.1151
  874MOL0     H15341   6.221  13.341   2.369 -0.4580  2.4758  0.0744
  874MOL0     H15342   6.396  13.460   2.154  0.2547  0.5722  0.0415
  874MOL0     H15343   6.290  13.533   2.271  1.5244 -0.7305  1.3494
  874MOL0     H15344   6.094  13.396   2.139 -0.1275  0.0228 -1.3076
  874MOL0     H15345   6.227  13.360   2.037  7.1760  3.1673 -0.8495
  874MOL0     H15346   6.192  13.654   2.110  3.8941  1.9547 -2.6106
  874MOL0     H15347   6.258  13.591   1.968  2.8623 -1.1783  2.2296
  874MOL0     H15348   6.026  13.666   1.919 -0.0284  0.2792  1.5110
  874MOL0     H15349   5.968  13.560   2.053 -1.4973 -0.1213 -0.2005
  874MOL0     H15350   6.560  12.965   2.523  2.7083  1.1153 -1.6533
  874MOL0     H15351   6.517  12.878   2.752  0.6633 -0.4429 -0.9417
  874MOL0     H15352   6.868  12.766   3.214  0.4886 -1.7942 -1.0215
  874MOL0     H15353   6.794  12.613   3.415 -1.9616  0.9429  2.2492
  874MOL0     H15354   5.899  11.226   3.771  0.7398  0.0920 -0.6173
  874MOL0     H15355   5.654  11.144   3.757 -0.7730  0.2039 -1.1361
  874MOL0     H15356   5.205  10.961   3.783  0.0076  1.1495 -0.7467
  874MOL0     H15357   4.962  10.960   3.835  1.5039 -2.1763  4.5087
  874MOL0     H15358   4.731  11.313   3.880  0.0922  0.6092  0.0471
  874MOL0     H15359   4.799  11.305   4.043 -1.1460 -0.4431  0.3093
  874MOL0     H15360   4.611  11.118   4.088 -0.4775 -0.5565 -0.2170
  874MOL0     H15361   4.562  11.279   4.098 -2.5578 -1.9817  0.6219
  874MOL0     H15362   4.534  11.077   3.879 -1.3275  0.4426 -0.8214
  874MOL0     H15363   4.550  11.234   3.819  3.0329  2.7518  1.7447
  874MOL0     H15364   4.311  11.163   4.012  0.0294 -1.1935 -0.7254
  874MOL0     H15365   4.348  11.324   3.955  2.4241  1.6373 -2.6361
  874MOL0     H15366   4.150  11.109   3.658  0.6302  1.5497 -0.0796
  874MOL0     H15367   4.993  11.343   4.022 -1.7195  1.1452  0.4347
  874MOL0     H15368   5.239  11.355   3.949  0.9021  1.2726 -1.8916
  875MOL0     O15369   7.339   1.776   4.685 -0.6102  0.5507  0.1397
  875MOL0     C15370   7.321   1.785   4.803 -0.6164  0.7184  0.2763
  875MOL0     O15371   7.219   1.734   4.868  0.4597 -0.1516  0.2330
  875MOL0     C15372   7.108   1.686   4.803 -0.3996 -0.0992  0.4040
  875MOL0     C15373   7.122   1.605   4.689 -0.0855  0.9856  1.1881
  875MOL0     C15374   7.012   1.552   4.632 -0.2085  0.5222 -0.3986
  875MOL0     C15375   6.884   1.574   4.686 -0.7562  0.3955 -0.4516
  875MOL0     O15376   6.765   1.546   4.619  0.3648  0.5762 -0.2356
  875MOL0     C15377   6.777   1.426   4.529  0.0879 -0.0685 -0.1959
  875MOL0     C15378   6.807   1.287   4.590  0.0888 -0.2914  0.7384
  875MOL0     C15379   6.779   1.169   4.496  1.0831 -0.2246  0.2373
  875MOL0     C15380   6.626   1.131   4.506  0.1351  0.8042 -0.9029
  875MOL0     C15381   6.588   1.023   4.405  0.1792  0.7445 -0.0449
  875MOL0     C15382   6.649   0.892   4.431  0.2135 -0.7416 -0.2192
  875MOL0     C15383   6.555   0.787   4.361  0.0681  0.1086 -0.2312
  875MOL0     C15384   6.559   0.793   4.202  0.3179  0.5105 -0.5393
  875MOL0     N15385   6.440   0.702   4.166  0.0516  0.6894 -0.2256
  875MOL0     C15386   6.307   0.728   4.187  0.1139 -0.2287 -0.0055
  875MOL0     C15387   6.247   0.623   4.131  0.1254 -0.2471 -0.5649
  875MOL0     C15388   6.097   0.627   4.088  0.1786 -0.1300 -0.5809
  875MOL0     C15389   6.018   0.504   4.124  0.3613 -0.0765 -0.0126
  875MOL0     C15390   5.870   0.506   4.081 -0.2384  0.6982 -0.3104
  875MOL0     C15391   5.785   0.399   4.149  0.1786  0.0160  0.1815
  875MOL0     O15392   5.649   0.443   4.127 -0.3713 -0.1006  0.0282
  875MOL0     C15393   5.546   0.356   4.141 -0.5299  0.0683 -0.0857
  875MOL0     C15394   5.420   0.411   4.139 -0.0119  0.8690 -0.4262
  875MOL0     C15395   5.311   0.331   4.172  0.0743 -0.2058 -0.4988
  875MOL0     C15396   5.321   0.196   4.209 -0.2868  0.4181  0.5020
  875MOL0     C15397   5.200   0.119   4.236 -0.5581 -0.3195  0.7547
  875MOL0     O15398   5.226  -0.002   4.300  0.2082 -0.8195  0.4921
  875MOL0     C15399   5.111  -0.073   4.327 -0.4006  1.0806 -0.1724
  875MOL0     C15400   5.081  -0.193   4.251  0.1913  0.1100  0.1240
  875MOL0     C15401   4.960  -0.269   4.277  0.6027  0.6045 -0.5102
  875MOL0     C15402   4.881  -0.219   4.385  0.5786  0.0833 -1.4900
  875MOL0     O15403   4.769  -0.293   4.425  0.0175  0.1677  0.1043
  875MOL0     C15404   4.743  -0.409   4.347 -0.2790 -0.0537 -0.1707
  875MOL0     C15405   4.625  -0.478   4.400  0.9229 -0.5488 -0.5204
  875MOL0     C15406   4.592  -0.619   4.350 -0.2338 -0.4320  0.5823
  875MOL0     C15407   4.462  -0.679   4.403  0.0828 -0.6525  0.4269
  875MOL0     C15408   4.402  -0.800   4.338 -0.4170 -0.0199  0.0625
  875MOL0     C15409   4.286  -0.875   4.405 -0.0059  0.2866  0.2607
  875MOL0     C15410   4.153  -0.793   4.443 -0.2313 -0.5672 -0.4119
  875MOL0     C15411   4.088  -0.752   4.311 -0.2372 -0.3471  0.5212
  875MOL0    Cl15412   3.946  -0.650   4.358  0.6308 -0.3578  0.4900
  875MOL0     C15413   4.914  -0.101   4.455  0.2745  0.0346 -0.1089
  875MOL0     C15414   5.026  -0.030   4.425  1.0843  0.4437  0.3291
  875MOL0     O15415   5.088   0.165   4.206  0.7922 -0.4135  0.5054
  875MOL0     C15416   5.451   0.141   4.215  0.6714  0.0344  0.0212
  875MOL0     C15417   5.568   0.223   4.197 -0.2879 -0.5101  0.4166
  875MOL0     N15418   6.341   0.529   4.090 -0.0025  0.0990 -0.5976
  875MOL0     N15419   6.452   0.580   4.124 -0.1511 -0.1667 -0.1185
  875MOL0     C15420   6.866   1.643   4.808  0.1411 -0.3228 -0.5939
  875MOL0     C15421   6.984   1.701   4.871  0.0159 -0.8862  0.1474
  875MOL0     C15422   7.426   1.848   4.884  0.0898 -0.4721 -0.3963
  875MOL0     C15423   7.410   1.885   5.017  0.3223 -0.1533  0.0445
  875MOL0     C15424   7.517   1.935   5.093 -0.7246 -0.4648  0.2261
  875MOL0     C15425   7.633   1.980   5.024 -0.1364 -0.0479 -1.3931
  875MOL0     O15426   7.731   2.043   5.104  0.3197  0.4240 -0.4495
  875MOL0     C15427   7.863   2.072   5.057  0.0239  0.0207  0.0564
  875MOL0     C15428   7.947   1.945   5.056  0.0941 -0.5097  0.2352
  875MOL0     C15429   8.095   1.959   5.008  0.6109 -0.5457  0.1167
  875MOL0     C15430   8.173   2.060   5.094 -0.1586  0.7697  0.2328
  875MOL0     C15431   8.155   2.031   5.246 -0.7488  0.1376 -0.0038
  875MOL0     C15432   8.152   1.996   5.363  0.4099 -0.4177 -0.3379
  875MOL0     C15433   7.655   1.963   4.884  0.1386  0.0173  0.5308
  875MOL0     C15434   7.539   1.907   4.821  0.2400  0.2865 -0.6794
  875MOL0     H15435   7.214   1.570   4.643  0.1694  1.1968  1.5380
  875MOL0     H15436   7.041   1.490   4.547  1.0775  1.4443 -0.6554
  875MOL0     H15437   6.859   1.438   4.457  1.0656  1.6789  1.1537
  875MOL0     H15438   6.682   1.420   4.473 -0.6886  1.3256  0.9104
  875MOL0     H15439   6.762   1.266   4.688  1.8828  1.1284  1.9475
  875MOL0     H15440   6.915   1.279   4.607  0.0443  1.4242  2.1740
  875MOL0     H15441   6.851   1.091   4.524 -0.6803 -2.6516 -1.5719
  875MOL0     H15442   6.794   1.201   4.392  1.2312 -0.8303  0.0671
  875MOL0     H15443   6.612   1.082   4.603 -0.5324  1.8328 -0.4677
  875MOL0     H15444   6.562   1.219   4.503 -0.8133  0.1993  0.6471
  875MOL0     H15445   6.620   1.071   4.312  1.5886 -0.2444 -0.0978
  875MOL0     H15446   6.481   0.999   4.413  1.0149 -3.6973  0.2133
  875MOL0     H15447   6.656   0.876   4.539  2.6776 -1.9203 -0.4862
  875MOL0     H15448   6.750   0.893   4.390  0.4026  0.7761  0.2304
  875MOL0     H15449   6.589   0.685   4.380 -1.3112 -1.0082 -3.0279
  875MOL0     H15450   6.453   0.798   4.400  0.8096 -0.5986  2.0093
  875MOL0     H15451   6.653   0.747   4.171  0.5456 -1.0958  2.2101
  875MOL0     H15452   6.546   0.899   4.178 -0.6623  0.9906  1.8392
  875MOL0     H15453   6.264   0.818   4.228  2.9293 -0.0955  3.0238
  875MOL0     H15454   6.096   0.626   3.978  0.5459 -0.1676 -0.5857
  875MOL0     H15455   6.038   0.712   4.122  0.3161  1.0414 -3.0326
  875MOL0     H15456   6.030   0.492   4.232 -1.8771  5.0229  1.0985
  875MOL0     H15457   6.062   0.417   4.073  0.1006 -0.0611 -0.2694
  875MOL0     H15458   5.828   0.604   4.105 -0.7577  0.1001  1.3499
  875MOL0     H15459   5.870   0.493   3.972 -0.4190  1.2429 -0.3772
  875MOL0     H15460   5.806   0.384   4.255 -1.5534 -4.0622  0.1447
  875MOL0     H15461   5.793   0.300   4.102 -1.1673  0.5395 -1.2359
  875MOL0     H15462   5.391   0.510   4.105 -4.1776  0.2548  0.7810
  875MOL0     H15463   5.212   0.376   4.168  1.4889  3.2492 -0.2674
  875MOL0     H15464   5.164  -0.235   4.194  0.0618  0.7488 -0.5504
  875MOL0     H15465   4.932  -0.354   4.215 -2.6171  0.0770  1.4414
  875MOL0     H15466   4.821  -0.483   4.364 -2.0475 -2.1945 -0.8919
  875MOL0     H15467   4.731  -0.394   4.239  1.1309 -1.8250 -0.6160
  875MOL0     H15468   4.527  -0.429   4.390 -0.0136 -1.5025  2.6983
  875MOL0     H15469   4.639  -0.495   4.507 -0.7975 -4.2836 -0.7075
  875MOL0     H15470   4.677  -0.680   4.384  2.8069  1.3255 -3.0533
  875MOL0     H15471   4.590  -0.611   4.241  0.6589  0.8826  0.6351
  875MOL0     H15472   4.474  -0.691   4.511 -1.9086  0.1906  0.7853
  875MOL0     H15473   4.389  -0.598   4.392  1.6714  0.9354  1.0264
  875MOL0     H15474   4.482  -0.875   4.337 -0.8626 -0.5151  0.8933
  875MOL0     H15475   4.368  -0.769   4.239 -0.8777  0.3969  0.3496
  875MOL0     H15476   4.325  -0.909   4.502  3.5826  0.7861 -0.8789
  875MOL0     H15477   4.261  -0.956   4.336  1.4965 -2.4721  2.7022
  875MOL0     H15478   4.089  -0.864   4.495  2.0004 -1.8556  0.7528
  875MOL0     H15479   4.184  -0.711   4.507  1.7666 -1.0099 -0.7388
  875MOL0     H15480   4.060  -0.843   4.257 -2.0150  0.9911 -0.9366
  875MOL0     H15481   4.149  -0.691   4.244 -0.1530  0.5468  1.3906
  875MOL0     H15482   4.842  -0.053   4.521 -1.4735 -0.8275 -1.3315
  875MOL0     H15483   5.046   0.052   4.493  1.3819 -0.2540  1.1158
  875MOL0     H15484   5.465   0.045   4.263 -2.5727 -1.5731 -1.9068
  875MOL0     H15485   5.668   0.185   4.218 -0.4009 -0.9593  0.1642
  875MOL0     H15486   6.768   1.651   4.854  0.0734 -2.3247 -0.3363
  875MOL0     H15487   6.969   1.767   4.956  0.6334  2.8501 -2.4309
  875MOL0     H15488   7.323   1.842   5.066  2.1915 -0.7674  3.1166
  875MOL0     H15489   7.526   1.955   5.199  3.0446  4.0856 -0.6255
  875MOL0     H15490   7.898   2.149   5.126 -2.0064  0.6076  0.4978
  875MOL0     H15491   7.860   2.121   4.960  0.6105  3.8366  1.7903
  875MOL0     H15492   7.956   1.898   5.155 -0.4960  1.7121  1.4163
  875MOL0     H15493   7.889   1.872   5.000  0.4604 -1.9834  1.6766
  875MOL0     H15494   8.103   1.969   4.899  1.2241  0.1580  0.2166
  875MOL0     H15495   8.144   1.862   5.018  1.1886 -0.3916 -0.9812
  875MOL0     H15496   8.280   2.054   5.072 -0.6140 -1.5982 -1.7252
  875MOL0     H15497   8.131   2.160   5.085 -0.6924  0.6312  1.0906
  875MOL0     H15498   8.135   1.975   5.466  4.0464 -0.0650  0.4703
  875MOL0     H15499   7.746   1.979   4.828  1.7079 -2.7961  2.0140
  875MOL0     H15500   7.548   1.894   4.713  0.2215 -1.5973 -0.4939
  876MOL0     O15501   6.621   8.971   1.337 -0.1938 -0.0111 -0.5890
  876MOL0     C15502   6.624   8.859   1.285 -0.0214  0.8426  0.9635
  876MOL0     O15503   6.513   8.773   1.262  0.2057  1.1618  0.6701
  876MOL0     C15504   6.392   8.819   1.293 -0.0216 -0.3033 -0.7711
  876MOL0     C15505   6.304   8.878   1.199  0.4670  0.1966 -0.0439
  876MOL0     C15506   6.185   8.934   1.240 -0.5562 -0.2655 -0.3568
  876MOL0     C15507   6.151   8.934   1.376 -0.3039 -0.9753 -0.3487
  876MOL0     O15508   6.033   8.992   1.417  0.5564 -0.1287 -0.2661
  876MOL0     C15509   6.068   9.115   1.477 -0.2389 -0.3378 -0.5919
  876MOL0     C15510   5.971   9.157   1.584 -0.2746 -0.8692  0.3090
  876MOL0     C15511   6.033   9.267   1.684 -0.0565  1.1913 -0.1153
  876MOL0     C15512   5.931   9.321   1.786  0.5397 -0.3845  0.9798
  876MOL0     C15513   5.874   9.213   1.880 -0.9176  1.1820  0.0578
  876MOL0     C15514   5.784   9.272   1.986 -0.5823 -0.3478 -0.6518
  876MOL0     C15515   5.733   9.169   2.085  0.9855  0.5273 -0.6072
  876MOL0     C15516   5.637   9.242   2.183 -0.4581  0.5457  0.6750
  876MOL0     N15517   5.596   9.150   2.282 -0.6983  0.4225 -0.1882
  876MOL0     C15518   5.484   9.079   2.276  0.2392  0.2592  1.3869
  876MOL0     C15519   5.481   9.009   2.392 -0.0336 -0.0669  0.7256
  876MOL0     C15520   5.374   8.910   2.432  0.1299 -0.3830 -0.1252
  876MOL0     C15521   5.367   8.781   2.341  0.2742 -0.0946 -0.8283
  876MOL0     C15522   5.497   8.700   2.313  0.7982 -0.2366  0.8046
  876MOL0     C15523   5.588   8.767   2.211  0.3253 -0.0227  0.5377
  876MOL0     O15524   5.663   8.654   2.156 -0.4197  0.1080  0.8774
  876MOL0     C15525   5.787   8.675   2.096  0.0033 -0.4332  0.1140
  876MOL0     C15526   5.875   8.574   2.099  0.4506  0.2151 -0.0338
  876MOL0     C15527   6.001   8.585   2.042 -0.6000  0.6089  0.6231
  876MOL0     C15528   6.036   8.702   1.965 -0.9696  0.6238 -0.0043
  876MOL0     C15529   6.173   8.714   1.908 -0.6631  0.0243 -0.1163
  876MOL0     O15530   6.260   8.612   1.929 -0.1840 -1.0707 -0.0114
  876MOL0     C15531   6.370   8.610   1.856 -0.2734  0.4912 -0.0255
  876MOL0     C15532   6.465   8.717   1.851  0.5456 -0.8377 -0.6499
  876MOL0     C15533   6.582   8.716   1.777 -0.5562  0.0434  0.6456
  876MOL0     C15534   6.620   8.597   1.715  0.6723 -0.1463  0.2910
  876MOL0     O15535   6.743   8.582   1.658 -0.4120 -0.1763 -0.0335
  876MOL0     C15536   6.827   8.701   1.631  0.2301  0.0114 -0.1670
  876MOL0     C15537   6.952   8.651   1.554  0.4695 -0.5823 -1.2657
  876MOL0     C15538   7.017   8.546   1.644  1.0149 -0.2705  0.6804
  876MOL0     C15539   7.162   8.518   1.613 -0.3577  0.5687 -0.1741
  876MOL0     C15540   7.213   8.430   1.732 -0.4855  0.1788 -0.6365
  876MOL0     C15541   7.244   8.501   1.866  0.0760  0.3302  1.2534
  876MOL0     C15542   7.324   8.411   1.959  1.0578  0.9801 -0.1443
  876MOL0     C15543   7.353   8.477   2.093 -0.4491 -0.1779  0.3759
  876MOL0    Cl15544   7.481   8.598   2.063 -0.2410  0.4175 -0.0556
  876MOL0     C15545   6.536   8.484   1.726  0.3372  0.5485 -0.9289
  876MOL0     C15546   6.410   8.494   1.793 -0.1584 -0.4897  0.1839
  876MOL0     O15547   6.196   8.816   1.840  0.3909 -0.2781  0.3960
  876MOL0     C15548   5.949   8.810   1.968  0.0150 -0.5637  0.3059
  876MOL0     C15549   5.819   8.792   2.028  0.3213 -0.1811 -0.6127
  876MOL0     N15550   5.583   9.055   2.477  0.0038 -0.0711  0.5404
  876MOL0     N15551   5.650   9.134   2.409  0.0302  0.3299 -0.9831
  876MOL0     C15552   6.231   8.868   1.466  0.6020 -0.7025  0.2125
  876MOL0     C15553   6.348   8.806   1.427  0.4706 -0.3912  0.4167
  876MOL0     C15554   6.767   8.801   1.262 -0.6776 -0.3679  0.2578
  876MOL0     C15555   6.879   8.882   1.284 -0.6234 -0.3381 -0.3641
  876MOL0     C15556   7.006   8.837   1.254  0.7251 -0.0323  0.0737
  876MOL0     C15557   7.026   8.704   1.212 -0.2630 -0.1913 -0.2410
  876MOL0     O15558   7.149   8.657   1.186  0.3207  0.1140  0.9011
  876MOL0     C15559   7.267   8.742   1.191 -0.1505 -0.2898 -0.4693
  876MOL0     C15560   7.302   8.751   1.341  0.0978  0.0477  0.5983
  876MOL0     C15561   7.450   8.797   1.367  0.4098 -0.6875  0.7556
  876MOL0     C15562   7.551   8.687   1.372 -0.0148  0.1946  0.3094
  876MOL0     C15563   7.552   8.630   1.505  0.6630 -0.1868  0.2802
  876MOL0     C15564   7.544   8.610   1.622 -0.6006  0.6145 -0.2686
  876MOL0     C15565   6.928   8.625   1.187  1.6399  0.8461 -0.1892
  876MOL0     C15566   6.790   8.671   1.215 -0.1915 -0.2939  0.3657
  876MOL0     H15567   6.329   8.880   1.093 -0.0641 -2.9346 -0.3310
  876MOL0     H15568   6.117   8.975   1.165 -3.1588 -0.0167  1.9650
  876MOL0     H15569   6.076   9.191   1.398  1.1547 -2.0514 -2.1951
  876MOL0     H15570   6.162   9.117   1.533 -0.8480 -0.3340  0.4689
  876MOL0     H15571   5.948   9.068   1.644 -4.3118 -2.2675 -2.8970
  876MOL0     H15572   5.881   9.187   1.530 -0.8811 -1.2293  1.1022
  876MOL0     H15573   6.065   9.349   1.619 -0.0161  0.9765 -0.3676
  876MOL0     H15574   6.122   9.228   1.735 -0.1046 -2.4830 -2.4861
  876MOL0     H15575   5.982   9.406   1.832  1.0096 -1.3446  2.3341
  876MOL0     H15576   5.847   9.372   1.738  0.1627  0.2263  2.2368
  876MOL0     H15577   5.951   9.153   1.929 -1.4387  0.4297 -0.0308
  876MOL0     H15578   5.813   9.149   1.814  1.0997  0.6807 -1.4291
  876MOL0     H15579   5.703   9.318   1.930  0.2944  0.2885 -1.4205
  876MOL0     H15580   5.837   9.349   2.043 -2.0127  0.3049 -0.1650
  876MOL0     H15581   5.671   9.099   2.028  0.3742  0.7090 -0.1708
  876MOL0     H15582   5.813   9.116   2.137 -2.5764 -2.2528  2.5957
  876MOL0     H15583   5.556   9.294   2.130 -0.2104  0.8030  0.5412
  876MOL0     H15584   5.700   9.312   2.239  0.3111  1.1820 -0.9135
  876MOL0     H15585   5.421   9.069   2.187  2.6717  3.4468 -0.9658
  876MOL0     H15586   5.280   8.963   2.418 -0.2634 -1.3454 -1.3082
  876MOL0     H15587   5.378   8.883   2.538  1.9851  0.5849  0.0937
  876MOL0     H15588   5.327   8.806   2.243  0.3632  2.2772 -0.3163
  876MOL0     H15589   5.300   8.712   2.393  0.8241  0.2821  0.4241
  876MOL0     H15590   5.548   8.668   2.404  4.0366 -0.6897 -1.0207
  876MOL0     H15591   5.451   8.612   2.266  0.5040  0.5390 -0.4249
  876MOL0     H15592   5.652   8.840   2.261  1.5639 -0.4388 -0.3943
  876MOL0     H15593   5.529   8.806   2.128 -0.4280 -2.5751 -0.1926
  876MOL0     H15594   5.868   8.476   2.144  0.5366 -0.5129 -1.5293
  876MOL0     H15595   6.067   8.500   2.057  1.5635  1.8862 -1.1618
  876MOL0     H15596   6.444   8.810   1.904 -0.2386 -1.9925  1.1561
  876MOL0     H15597   6.635   8.810   1.772 -0.0511 -0.1235  2.2447
  876MOL0     H15598   6.847   8.743   1.730  0.9428 -1.9518  0.5597
  876MOL0     H15599   6.768   8.771   1.572 -3.4782 -2.1803  0.6097
  876MOL0     H15600   7.020   8.734   1.529  1.4146 -1.0611 -0.3268
  876MOL0     H15601   6.925   8.592   1.466  1.2878 -1.2242 -1.0925
  876MOL0     H15602   6.958   8.454   1.636 -3.4710  2.2100  1.8081
  876MOL0     H15603   7.009   8.579   1.748  1.0195 -1.7631  1.1897
  876MOL0     H15604   7.185   8.465   1.520  1.8473  0.8778  0.1487
  876MOL0     H15605   7.209   8.617   1.603 -1.8199  1.6141  2.2366
  876MOL0     H15606   7.304   8.382   1.695 -0.5956  0.7224 -1.6541
  876MOL0     H15607   7.144   8.347   1.745  0.1011 -0.0273  1.5396
  876MOL0     H15608   7.151   8.540   1.910 -0.1215  1.7177 -0.2655
  876MOL0     H15609   7.311   8.582   1.837 -0.4915 -0.5143 -3.1837
  876MOL0     H15610   7.265   8.320   1.973  1.5067  0.2873 -2.3876
  876MOL0     H15611   7.420   8.379   1.918  1.3451  0.5395  0.8476
  876MOL0     H15612   7.387   8.397   2.160 -0.5905  0.8187  1.6778
  876MOL0     H15613   7.264   8.525   2.135 -1.6959 -1.3019 -0.8513
  876MOL0     H15614   6.577   8.390   1.689  2.7543  0.5666  1.3785
  876MOL0     H15615   6.352   8.403   1.798  5.2318 -4.6948 -2.1486
  876MOL0     H15616   5.974   8.908   1.929  1.3192 -0.5853  1.0472
  876MOL0     H15617   5.735   8.859   2.015 -0.6035 -1.4649 -1.5404
  876MOL0     H15618   6.200   8.866   1.570 -1.5588  1.6370 -0.2820
  876MOL0     H15619   6.413   8.755   1.497  1.2006  0.5269  0.4207
  876MOL0     H15620   6.866   8.984   1.318 -0.2867  0.3290 -2.1611
  876MOL0     H15621   7.075   8.912   1.291  1.1652 -0.1376 -0.5296
  876MOL0     H15622   7.251   8.844   1.153  0.9753 -0.8942 -2.7405
  876MOL0     H15623   7.345   8.696   1.130 -0.0613  2.8516 -2.9962
  876MOL0     H15624   7.236   8.830   1.377 -1.4086 -1.2959  0.8920
  876MOL0     H15625   7.270   8.656   1.384 -1.5349  1.7050  3.3170
  876MOL0     H15626   7.467   8.864   1.451 -0.1077  2.9583 -1.8359
  876MOL0     H15627   7.470   8.867   1.286  3.3406  3.0464  4.3194
  876MOL0     H15628   7.535   8.606   1.301  3.2225 -0.7593  0.5432
  876MOL0     H15629   7.648   8.727   1.342 -0.4547 -0.4834 -2.2343
  876MOL0     H15630   7.536   8.610   1.729  1.6887  1.4650 -0.0272
  876MOL0     H15631   6.949   8.532   1.133 -2.0798  0.1657 -0.7707
  876MOL0     H15632   6.705   8.603   1.215  0.4510 -1.1171 -0.2344
  877MOL0     O15633   7.325   2.880   2.291 -0.6955 -0.6589 -0.2722
  877MOL0     C15634   7.362   2.852   2.182  0.5871  0.5217  0.4310
  877MOL0     O15635   7.488   2.846   2.129  0.9557  0.4866 -1.0558
  877MOL0     C15636   7.589   2.904   2.209  0.1818  0.0168  0.1805
  877MOL0     C15637   7.688   2.817   2.267 -0.6969 -0.4766 -0.0330
  877MOL0     C15638   7.798   2.867   2.336 -0.3124  0.9174 -0.0104
  877MOL0     C15639   7.811   3.008   2.344  0.1336 -0.7237  0.2937
  877MOL0     O15640   7.910   3.059   2.422  0.0069  0.1570  0.6564
  877MOL0     C15641   8.047   3.003   2.409 -0.2088  0.3865  0.2138
  877MOL0     C15642   8.136   3.094   2.498  0.9519 -0.2525  0.7989
  877MOL0     C15643   8.277   3.041   2.490 -0.3752  0.4256  1.2161
  877MOL0     C15644   8.377   3.097   2.590 -0.2204 -0.7415 -0.3701
  877MOL0     C15645   8.503   3.017   2.613  0.0874 -0.3703 -0.1541
  877MOL0     C15646   8.598   2.998   2.486 -0.0157 -0.1622  0.1668
  877MOL0     C15647   8.698   3.117   2.464 -0.5400 -0.0774 -0.2207
  877MOL0     C15648   8.770   3.097   2.326  0.2703  0.0440 -0.6458
  877MOL0     N15649   8.691   3.118   2.208  0.3224  0.3754  0.1564
  877MOL0     C15650   8.600   3.217   2.186 -0.1668 -0.5306  0.0816
  877MOL0     C15651   8.536   3.177   2.073  0.3556  0.5579  0.1497
  877MOL0     C15652   8.429   3.256   2.013  0.2263 -0.0431  0.0414
  877MOL0     C15653   8.355   3.177   1.909 -0.7339 -0.1610  0.2843
  877MOL0     C15654   8.229   3.248   1.876  0.8204  0.8810  0.6752
  877MOL0     C15655   8.129   3.158   1.799 -0.2437  0.5449 -0.1616
  877MOL0     O15656   8.057   3.063   1.886 -0.0888  0.1716 -0.0510
  877MOL0     C15657   7.950   3.000   1.829  0.2944  0.6626  0.0571
  877MOL0     C15658   7.849   2.952   1.919  0.3441 -0.6731  0.3930
  877MOL0     C15659   7.745   2.891   1.870 -0.0035  0.7810 -0.8313
  877MOL0     C15660   7.716   2.880   1.726  0.5039  0.0310 -0.2987
  877MOL0     C15661   7.596   2.806   1.688 -0.2950  0.5355  0.4333
  877MOL0     O15662   7.559   2.823   1.557  0.4274 -1.0593  0.2298
  877MOL0     C15663   7.465   2.750   1.496  0.6833 -0.6657  0.4480
  877MOL0     C15664   7.377   2.800   1.402  0.0962 -0.4285 -0.0104
  877MOL0     C15665   7.273   2.719   1.348  0.6411 -0.6363 -0.9617
  877MOL0     C15666   7.267   2.579   1.376  0.0774 -0.6744  0.1980
  877MOL0     O15667   7.190   2.483   1.316  0.1484  0.7970  0.4953
  877MOL0     C15668   7.170   2.504   1.177  0.3548  0.2056 -1.1535
  877MOL0     C15669   7.084   2.393   1.127 -0.3131 -0.1052 -0.0386
  877MOL0     C15670   7.043   2.425   0.985 -0.3848 -1.2720 -0.5859
  877MOL0     C15671   6.975   2.300   0.918 -0.3219 -0.4809  0.0765
  877MOL0     C15672   6.916   2.331   0.776  0.0777 -0.0135  0.1128
  877MOL0     C15673   7.016   2.367   0.660 -0.5192 -0.5079 -0.5913
  877MOL0     C15674   6.924   2.405   0.540  0.0314 -0.4592  0.7664
  877MOL0     C15675   7.009   2.445   0.423  0.2914  0.1093  0.7443
  877MOL0    Cl15676   7.044   2.616   0.462  0.1316  0.3998  0.4850
  877MOL0     C15677   7.363   2.527   1.462  0.4147  0.3757 -0.3703
  877MOL0     C15678   7.458   2.609   1.517  0.1273 -1.0302 -0.2848
  877MOL0     O15679   7.544   2.728   1.766  0.2762 -0.3135  0.0770
  877MOL0     C15680   7.818   2.929   1.638  0.8359  0.5597  0.1920
  877MOL0     C15681   7.929   2.991   1.689  0.3419  0.4232 -0.0720
  877MOL0     N15682   8.585   3.056   2.031  0.1414  0.1186  0.2844
  877MOL0     N15683   8.670   3.015   2.121 -0.7475 -1.1684 -0.2322
  877MOL0     C15684   7.709   3.096   2.291 -0.8340 -0.5042  0.2681
  877MOL0     C15685   7.599   3.039   2.224 -0.4185  0.2959 -0.4378
  877MOL0     C15686   7.249   2.804   2.093  0.6067  0.4231 -0.0813
  877MOL0     C15687   7.270   2.780   1.962 -0.5515 -0.6187  1.1599
  877MOL0     C15688   7.161   2.727   1.885  0.2514 -0.6361  0.0042
  877MOL0     C15689   7.034   2.720   1.937  0.0348 -0.0903 -0.3391
  877MOL0     O15690   6.932   2.676   1.851 -0.2224  0.0160  0.5777
  877MOL0     C15691   6.803   2.733   1.856  0.2767  0.4420 -0.2341
  877MOL0     C15692   6.754   2.767   1.721  0.1418  0.1660  0.3792
  877MOL0     C15693   6.609   2.828   1.718 -0.4618  0.0553 -0.0659
  877MOL0     C15694   6.539   2.822   1.581  0.5025 -1.0932  0.0801
  877MOL0     C15695   6.386   2.824   1.583 -0.4996  0.9448  0.3266
  877MOL0     C15696   6.269   2.825   1.595  0.9550 -0.1143 -0.6978
  877MOL0     C15697   7.010   2.762   2.069  1.2701 -0.7896 -0.3837
  877MOL0     C15698   7.117   2.793   2.148 -0.3924 -0.0080 -0.1315
  877MOL0     H15699   7.671   2.709   2.265 -3.4359 -0.1200  0.3616
  877MOL0     H15700   7.860   2.793   2.386  0.7939 -0.6298 -3.3784
  877MOL0     H15701   8.079   3.005   2.305 -0.8733 -2.1957 -0.1107
  877MOL0     H15702   8.054   2.899   2.444 -2.4798 -1.1514 -3.3923
  877MOL0     H15703   8.097   3.102   2.600 -0.8085 -0.2958  0.1558
  877MOL0     H15704   8.131   3.200   2.470  3.0168  0.5371  3.0311
  877MOL0     H15705   8.315   3.060   2.389 -1.6733 -0.8778  0.4460
  877MOL0     H15706   8.293   2.934   2.506  0.9767  0.8560  3.0812
  877MOL0     H15707   8.405   3.199   2.564 -2.4192 -0.3027 -1.1843
  877MOL0     H15708   8.327   3.102   2.687 -0.6107 -2.7520 -0.4216
  877MOL0     H15709   8.461   2.933   2.668 -2.3302 -0.1136 -1.4867
  877MOL0     H15710   8.550   3.072   2.695 -3.3138  1.3533  0.8279
  877MOL0     H15711   8.543   2.977   2.394 -1.6861  0.6680  0.9304
  877MOL0     H15712   8.663   2.913   2.509  0.0833  0.5517  2.9401
  877MOL0     H15713   8.642   3.210   2.460  2.9839  2.3318  0.9538
  877MOL0     H15714   8.769   3.118   2.548  0.5976 -0.3660 -1.1462
  877MOL0     H15715   8.809   2.995   2.328  1.1065  0.3457  1.3969
  877MOL0     H15716   8.855   3.167   2.326  1.2845 -0.6900  5.1760
  877MOL0     H15717   8.565   3.307   2.236 -2.7472  0.3357 -2.8671
  877MOL0     H15718   8.482   3.345   1.977  2.3915 -0.5112  1.8810
  877MOL0     H15719   8.360   3.296   2.088  1.4393 -1.4005  1.9700
  877MOL0     H15720   8.339   3.076   1.948 -2.4720  1.2913  3.8036
  877MOL0     H15721   8.414   3.178   1.817  1.9847  0.2694  1.8911
  877MOL0     H15722   8.179   3.287   1.966  0.1976 -1.2838  1.3270
  877MOL0     H15723   8.253   3.337   1.816 -0.0819  1.2258  0.8113
  877MOL0     H15724   8.188   3.103   1.726  2.1251 -0.1008  2.1048
  877MOL0     H15725   8.056   3.224   1.751  1.1155  0.8893 -1.8775
  877MOL0     H15726   7.862   2.953   2.027  0.7756  1.0045  0.3579
  877MOL0     H15727   7.684   2.843   1.946  1.3825  0.7821  0.3253
  877MOL0     H15728   7.373   2.904   1.373 -1.1714 -0.2153  0.8459
  877MOL0     H15729   7.201   2.751   1.274 -1.3232 -2.0568  0.2541
  877MOL0     H15730   7.266   2.507   1.124 -0.3669  2.0180 -2.4918
  877MOL0     H15731   7.112   2.596   1.166 -1.5610 -0.6426  1.0117
  877MOL0     H15732   6.996   2.388   1.191  0.0547  3.4017  0.9233
  877MOL0     H15733   7.131   2.294   1.131  0.0457 -0.1306 -2.9808
  877MOL0     H15734   7.135   2.442   0.928 -0.8666 -0.7965 -1.2495
  877MOL0     H15735   6.979   2.514   0.978  0.3220 -0.8647 -2.4719
  877MOL0     H15736   7.045   2.216   0.910  0.5812 -0.0664  2.5784
  877MOL0     H15737   6.889   2.267   0.977 -1.5470 -1.6525 -2.2301
  877MOL0     H15738   6.833   2.402   0.787 -2.4115 -2.9990  3.0286
  877MOL0     H15739   6.861   2.241   0.744  0.9880 -1.1276  1.5678
  877MOL0     H15740   7.083   2.281   0.650 -0.2817 -0.4562  0.4417
  877MOL0     H15741   7.078   2.454   0.683  1.2111 -1.8859  0.2135
  877MOL0     H15742   6.868   2.318   0.504 -0.7933 -0.0321  1.0031
  877MOL0     H15743   6.859   2.483   0.580  0.2485  1.3754 -2.1464
  877MOL0     H15744   6.956   2.449   0.328  2.9266  0.3232 -0.8211
  877MOL0     H15745   7.097   2.380   0.416 -0.9112 -1.3732 -2.6154
  877MOL0     H15746   7.372   2.421   1.484  1.3952  0.2789 -1.1937
  877MOL0     H15747   7.536   2.570   1.581 -0.6869 -2.0531  0.1087
  877MOL0     H15748   7.798   2.922   1.531  4.3315 -1.3480 -0.4671
  877MOL0     H15749   7.986   3.044   1.613  0.7521 -1.1492 -0.8913
  877MOL0     H15750   7.718   3.204   2.293  1.0559 -0.6296  0.8687
  877MOL0     H15751   7.534   3.109   2.172  0.9698  2.0404  0.0537
  877MOL0     H15752   7.369   2.785   1.916  0.1132 -2.2622  2.3118
  877MOL0     H15753   7.166   2.705   1.778 -1.5643  0.1441 -0.2843
  877MOL0     H15754   6.816   2.823   1.917  1.3296  1.3145 -1.6900
  877MOL0     H15755   6.736   2.667   1.912  0.7569  1.4548  1.6306
  877MOL0     H15756   6.828   2.831   1.673 -1.9709  1.6264 -1.0884
  877MOL0     H15757   6.747   2.677   1.659  2.3822  2.2000 -3.1648
  877MOL0     H15758   6.594   2.929   1.758 -1.6241  1.2448 -3.1731
  877MOL0     H15759   6.556   2.767   1.792  0.4121  1.7057  2.0161
  877MOL0     H15760   6.571   2.910   1.526  1.2380 -0.5715  1.3026
  877MOL0     H15761   6.571   2.737   1.521  4.5925 -0.5731  1.2466
  877MOL0     H15762   6.163   2.825   1.613  0.7103 -0.7236 -2.0288
  877MOL0     H15763   6.909   2.762   2.109  0.8429  1.2235 -1.3479
  877MOL0     H15764   7.092   2.820   2.250  0.7248  0.3572  0.0611
  878MOL0     O15765   2.664   0.689   0.304 -0.1357  0.3652  0.2748
  878MOL0     C15766   2.638   0.634   0.412 -0.0562 -0.3602  0.7977
  878MOL0     O15767   2.523   0.634   0.477  0.1837 -0.6926 -0.6589
  878MOL0     C15768   2.402   0.663   0.402  0.2096 -1.0555 -1.2248
  878MOL0     C15769   2.380   0.688   0.266 -0.5910 -0.9798  0.7513
  878MOL0     C15770   2.258   0.720   0.214  1.3187  0.5655 -0.3248
  878MOL0     C15771   2.148   0.733   0.299  0.9377 -0.0537  0.1396
  878MOL0     O15772   2.017   0.749   0.262 -0.3376  0.2990 -0.3650
  878MOL0     C15773   1.989   0.772   0.124  0.6969 -0.2831 -0.3924
  878MOL0     C15774   1.841   0.792   0.107 -1.4679  1.0438  0.4903
  878MOL0     C15775   1.803   0.933   0.124  1.1215 -0.6888  0.9682
  878MOL0     C15776   1.654   0.962   0.085 -0.8632  0.6667  0.5722
  878MOL0     C15777   1.620   1.110   0.070 -0.0797  0.1446 -0.0258
  878MOL0     C15778   1.481   1.119   0.015  0.3251 -0.1376  0.2785
  878MOL0     C15779   1.449   1.265  -0.030 -0.5401 -0.0834  0.4870
  878MOL0     C15780   1.332   1.284  -0.131  0.0829  0.8018  0.0467
  878MOL0     N15781   1.201   1.242  -0.070  0.0989 -0.1368  1.1506
  878MOL0     C15782   1.113   1.157  -0.125  0.4025  0.4041 -0.0316
  878MOL0     C15783   0.989   1.179  -0.064 -0.1585 -0.5664  0.3679
  878MOL0     C15784   0.854   1.123  -0.091  0.3406 -0.1040  0.2871
  878MOL0     C15785   0.751   1.224  -0.150  0.8251  0.3795  0.2418
  878MOL0     C15786   0.613   1.164  -0.134 -0.0455 -0.6403 -0.2452
  878MOL0     C15787   0.516   1.277  -0.171 -0.7787  0.5695 -0.1371
  878MOL0     O15788   0.394   1.217  -0.209  0.2976 -0.6066 -0.2013
  878MOL0     C15789   0.287   1.298  -0.227 -0.5766  0.0960 -0.3177
  878MOL0     C15790   0.275   1.429  -0.294  0.5293  1.2273 -0.2325
  878MOL0     C15791   0.155   1.501  -0.307 -0.2359  0.1353  1.3017
  878MOL0     C15792   0.040   1.444  -0.246  0.5642 -0.2896 -0.2169
  878MOL0     C15793  -0.097   1.500  -0.269  0.1822  0.0154  0.2910
  878MOL0     O15794  -0.204   1.408  -0.292 -0.8319  0.3728 -0.6296
  878MOL0     C15795  -0.320   1.469  -0.316 -0.8063 -0.4275 -0.4006
  878MOL0     C15796  -0.397   1.505  -0.198  0.4224  0.1597  0.8773
  878MOL0     C15797  -0.515   1.576  -0.214  0.1497  0.0290  0.3374
  878MOL0     C15798  -0.558   1.619  -0.340 -0.3317  0.3076 -0.1813
  878MOL0     O15799  -0.677   1.679  -0.354  0.1801  0.7325  0.1057
  878MOL0     C15800  -0.735   1.697  -0.482 -0.0141 -0.1136 -0.4772
  878MOL0     C15801  -0.862   1.777  -0.462  0.8236  0.5030  0.5882
  878MOL0     C15802  -0.844   1.930  -0.455  0.0649  0.1759 -1.2636
  878MOL0     C15803  -0.975   1.998  -0.477  0.0645  0.4480  0.9308
  878MOL0     C15804  -0.984   2.133  -0.409 -0.2568 -0.1437 -0.1977
  878MOL0     C15805  -1.126   2.183  -0.398  0.5080  0.0637 -0.0752
  878MOL0     C15806  -1.163   2.246  -0.539  0.6321  0.4554 -0.0358
  878MOL0     C15807  -1.300   2.285  -0.573 -0.2128 -0.2258  0.3402
  878MOL0    Cl15808  -1.342   2.430  -0.481  0.2683  0.1288 -0.3810
  878MOL0     C15809  -0.489   1.560  -0.451  0.1298  0.4096 -0.1298
  878MOL0     C15810  -0.366   1.503  -0.441  0.3957 -0.8879  0.6711
  878MOL0     O15811  -0.103   1.622  -0.271  0.5435  0.1335 -0.2784
  878MOL0     C15812   0.048   1.326  -0.171 -0.7944  0.2724  0.1715
  878MOL0     C15813   0.168   1.246  -0.172  0.8417  0.2584 -0.2625
  878MOL0     N15814   1.016   1.270   0.037 -0.7719 -0.1856  0.2642
  878MOL0     N15815   1.138   1.302   0.031 -0.1378 -0.2133  0.1435
  878MOL0     C15816   2.168   0.720   0.434  1.4575 -0.2252 -0.1140
  878MOL0     C15817   2.291   0.676   0.485 -0.1257 -0.3053 -0.6113
  878MOL0     C15818   2.759   0.569   0.474 -0.0552  0.3713 -0.4426
  878MOL0     C15819   2.732   0.498   0.592  0.0690  0.5232 -0.2612
  878MOL0     C15820   2.841   0.454   0.669 -0.2408 -0.7952  0.5381
  878MOL0     C15821   2.973   0.451   0.619 -0.5060 -0.3036  0.1591
  878MOL0     O15822   3.080   0.403   0.689  0.1872 -0.3252  0.3069
  878MOL0     C15823   3.065   0.349   0.819 -0.3047  0.5158  0.4333
  878MOL0     C15824   3.180   0.265   0.858  0.5124  0.0329  0.4057
  878MOL0     C15825   3.320   0.325   0.861  0.9055 -0.4262  0.5487
  878MOL0     C15826   3.441   0.233   0.884 -0.5619 -0.1291  0.8767
  878MOL0     C15827   3.456   0.203   1.032 -0.2422 -0.5979 -0.4225
  878MOL0     C15828   3.470   0.164   1.146 -0.3766 -0.2329  0.3459
  878MOL0     C15829   2.993   0.508   0.505 -0.3092  0.4821  0.4247
  878MOL0     C15830   2.891   0.573   0.430 -0.4796  0.7412  0.8050
  878MOL0     H15831   2.466   0.694   0.201 -0.1403 -0.3899  1.3762
  878MOL0     H15832   2.248   0.703   0.107  0.9632  1.1435 -0.3845
  878MOL0     H15833   2.019   0.683   0.068  1.5087  1.3532 -2.6868
  878MOL0     H15834   2.041   0.849   0.066  0.7192 -2.1281 -2.9831
  878MOL0     H15835   1.791   0.712   0.161  1.4786 -1.9496 -0.8895
  878MOL0     H15836   1.819   0.765   0.003 -0.8356  2.2768  0.0096
  878MOL0     H15837   1.861   0.997   0.058 -1.3996 -1.5935 -2.4693
  878MOL0     H15838   1.813   0.966   0.228 -2.4726  2.3022  0.6007
  878MOL0     H15839   1.621   0.909  -0.005  0.6982  0.1364  0.2794
  878MOL0     H15840   1.590   0.937   0.170  0.0209  0.8595  1.3099
  878MOL0     H15841   1.697   1.165   0.016 -0.2198  1.3301  0.9571
  878MOL0     H15842   1.605   1.148   0.171 -2.5948  0.5096 -0.4710
  878MOL0     H15843   1.412   1.080   0.090 -0.4230  0.0577 -0.3015
  878MOL0     H15844   1.476   1.060  -0.077  1.9258 -0.2744  0.2374
  878MOL0     H15845   1.426   1.333   0.053 -1.0983  3.1504 -2.1236
  878MOL0     H15846   1.536   1.312  -0.078 -1.0062  1.7590  1.3576
  878MOL0     H15847   1.354   1.236  -0.227  0.4649  0.9966  0.0313
  878MOL0     H15848   1.332   1.390  -0.159  2.7781  1.1067  0.9140
  878MOL0     H15849   1.125   1.093  -0.211 -2.3556 -2.6343  1.6191
  878MOL0     H15850   0.814   1.086   0.004 -0.8599 -2.8641 -1.1547
  878MOL0     H15851   0.852   1.031  -0.152 -1.1486  1.0659 -1.5704
  878MOL0     H15852   0.788   1.235  -0.253  2.5231 -2.4661  0.4398
  878MOL0     H15853   0.755   1.320  -0.098  1.6865 -0.6366  2.1610
  878MOL0     H15854   0.608   1.082  -0.207  0.9094  0.3743 -1.4905
  878MOL0     H15855   0.598   1.115  -0.038  1.3287 -0.6790 -0.0402
  878MOL0     H15856   0.558   1.322  -0.262  1.6976 -0.6104  0.3125
  878MOL0     H15857   0.513   1.355  -0.095  0.1198  0.4220  0.0656
  878MOL0     H15858   0.364   1.441  -0.355  0.7245 -3.3235 -1.2078
  878MOL0     H15859   0.142   1.589  -0.369 -0.8507 -0.4599  0.5640
  878MOL0     H15860  -0.362   1.489  -0.096  0.8354 -0.4104  0.6494
  878MOL0     H15861  -0.579   1.589  -0.128  0.3657 -1.9803  0.8492
  878MOL0     H15862  -0.767   1.600  -0.522 -1.7486  0.1228  0.2373
  878MOL0     H15863  -0.674   1.739  -0.562 -0.3066 -0.2364 -0.7652
  878MOL0     H15864  -0.918   1.746  -0.373 -0.4902  1.9234  0.2981
  878MOL0     H15865  -0.913   1.752  -0.555  1.4843 -0.3258  0.4427
  878MOL0     H15866  -0.775   1.963  -0.533  0.4937  3.6258  0.4100
  878MOL0     H15867  -0.806   1.953  -0.355  1.1205 -2.7135 -0.8893
  878MOL0     H15868  -1.002   2.000  -0.583 -0.2102 -0.6155  0.9681
  878MOL0     H15869  -1.056   1.941  -0.431 -2.5345  4.2508  1.5208
  878MOL0     H15870  -0.917   2.203  -0.460 -1.2391 -0.6919 -2.3304
  878MOL0     H15871  -0.954   2.112  -0.306 -1.4059 -1.7405 -0.1435
  878MOL0     H15872  -1.130   2.260  -0.321 -0.7780 -0.9061  0.8697
  878MOL0     H15873  -1.197   2.101  -0.386  1.5644 -0.7344  0.9742
  878MOL0     H15874  -1.101   2.335  -0.551 -1.4669  2.3219  2.0625
  878MOL0     H15875  -1.120   2.180  -0.615 -2.8796 -2.8431  0.5116
  878MOL0     H15876  -1.368   2.210  -0.532 -1.3491 -0.1882 -1.3506
  878MOL0     H15877  -1.319   2.297  -0.680 -1.3155 -2.9577  0.1286
  878MOL0     H15878  -0.534   1.587  -0.546  1.0579  0.9084 -0.4395
  878MOL0     H15879  -0.307   1.491  -0.531  1.1634  1.8434  0.7341
  878MOL0     H15880  -0.044   1.275  -0.143 -0.2545 -0.9334 -0.1861
  878MOL0     H15881   0.169   1.145  -0.134 -2.9895  0.0266 -0.4385
  878MOL0     H15882   2.077   0.727   0.493 -1.0988  1.6498 -3.9001
  878MOL0     H15883   2.301   0.658   0.591 -3.2763 -0.4908 -0.2264
  878MOL0     H15884   2.634   0.485   0.637  0.4183 -1.6646 -0.0334
  878MOL0     H15885   2.818   0.405   0.763 -3.3540 -3.5410 -1.4124
  878MOL0     H15886   2.972   0.291   0.818 -0.9075  1.4575  0.6397
  878MOL0     H15887   3.049   0.420   0.900  1.5098  0.6547  0.6970
  878MOL0     H15888   3.165   0.208   0.951 -0.7498  2.1152  1.5429
  878MOL0     H15889   3.188   0.180   0.790  2.4612  0.3578  0.1622
  878MOL0     H15890   3.322   0.402   0.938  1.3381  1.0109 -0.8307
  878MOL0     H15891   3.321   0.377   0.764 -2.8852  0.6148  0.9053
  878MOL0     H15892   3.428   0.145   0.820 -0.6015  1.0819 -0.8552
  878MOL0     H15893   3.536   0.280   0.855  0.4891 -1.9654  1.2015
  878MOL0     H15894   3.496   0.106   1.233 -0.5746 -1.2846 -0.2721
  878MOL0     H15895   3.091   0.525   0.463  0.6953  2.6732  3.3182
  878MOL0     H15896   2.921   0.612   0.334 -4.4942 -0.9175 -1.3590
  879MOL0     O15897   5.838   7.062   9.842  0.0422 -0.5996 -0.0611
  879MOL0     C15898   5.947   7.069   9.892 -0.1753  0.2204 -0.9840
  879MOL0     O15899   5.974   7.095  10.028  0.3344  0.7873 -0.2036
  879MOL0     C15900   5.871   7.098  10.119 -0.2259  0.4195 -0.0913
  879MOL0     C15901   5.869   7.206  10.199 -0.0788 -0.1932 -0.9519
  879MOL0     C15902   5.768   7.216  10.299  0.0999 -0.7785  0.2330
  879MOL0     C15903   5.667   7.119  10.302 -0.4057  0.8226 -0.1149
  879MOL0     O15904   5.573   7.138  10.401 -0.5013 -0.0394  0.2465
  879MOL0     C15905   5.547   7.034  10.496  0.4616  0.5045  0.0007
  879MOL0     C15906   5.403   7.049  10.549  0.6350  0.1373  0.4500
  879MOL0     C15907   5.289   7.060  10.446 -0.1843  0.3998  0.2974
  879MOL0     C15908   5.155   7.046  10.505 -0.2751  0.1465 -0.4683
  879MOL0     C15909   5.053   7.012  10.393 -0.3511 -0.7227 -0.1194
  879MOL0     C15910   4.912   6.982  10.447  0.1034  0.2381  0.3925
  879MOL0     C15911   4.820   6.960  10.330  0.6685 -0.0787  1.2032
  879MOL0     C15912   4.675   6.984  10.365 -0.4916 -0.7433 -0.3932
  879MOL0     N15913   4.591   6.936  10.258  0.2460  0.2386 -0.7485
  879MOL0     C15914   4.475   6.860  10.276  1.1884 -0.0544 -0.5223
  879MOL0     C15915   4.413   6.868  10.157  0.2615 -0.9457 -0.5240
  879MOL0     C15916   4.287   6.790  10.121 -0.0784  0.5102  0.4757
  879MOL0     C15917   4.160   6.856  10.156 -0.1261  0.2723 -0.5646
  879MOL0     C15918   4.042   6.770  10.103 -0.7455 -0.6470 -0.1488
  879MOL0     C15919   3.905   6.820  10.165  0.1219  0.3275 -0.2160
  879MOL0     O15920   3.809   6.738  10.105 -0.2529  0.2165 -0.0606
  879MOL0     C15921   3.694   6.704  10.177  0.5216 -0.2510  0.2739
  879MOL0     C15922   3.569   6.749  10.142 -0.2513  0.6400 -0.3447
  879MOL0     C15923   3.449   6.709  10.214 -0.6155  0.1653 -0.9366
  879MOL0     C15924   3.462   6.615  10.321  0.4675 -0.2362 -0.4434
  879MOL0     C15925   3.345   6.566  10.400 -0.1559  0.2526 -0.1033
  879MOL0     O15926   3.373   6.466  10.486  0.2583  0.5173  0.6987
  879MOL0     C15927   3.276   6.398  10.555  0.0650  0.2856 -0.9012
  879MOL0     C15928   3.151   6.365  10.506  0.3415  0.6066  0.8359
  879MOL0     C15929   3.053   6.303  10.590 -0.2848 -0.3787 -0.5126
  879MOL0     C15930   3.084   6.258  10.717 -0.1803 -0.3531 -0.3214
  879MOL0     O15931   3.001   6.189  10.802 -1.2567 -0.4272  0.1480
  879MOL0     C15932   2.910   6.266  10.875  0.2331 -0.3837  0.0697
  879MOL0     C15933   2.945   6.256  11.034  0.3519  0.5608  0.2973
  879MOL0     C15934   2.820   6.306  11.117  0.3803  0.5092  0.2390
  879MOL0     C15935   2.825   6.457  11.144  0.5463 -0.1704  0.6393
  879MOL0     C15936   2.692   6.492  11.211 -0.4079 -1.2039  0.2921
  879MOL0     C15937   2.583   6.526  11.101  0.5572 -0.1460  0.7227
  879MOL0     C15938   2.449   6.582  11.171  0.7089  0.8403 -0.4097
  879MOL0     C15939   2.360   6.473  11.242  0.2513 -0.6676 -0.0202
  879MOL0    Cl15940   2.209   6.525  11.334  0.0908 -0.1859  0.0313
  879MOL0     C15941   3.213   6.286  10.762 -0.4469 -0.4682 -0.7487
  879MOL0     C15942   3.302   6.357  10.683  0.2112  1.0769 -0.1729
  879MOL0     O15943   3.251   6.640  10.400  0.4386  0.0965  0.0252
  879MOL0     C15944   3.591   6.586  10.361  0.7264 -0.3595  0.2027
  879MOL0     C15945   3.706   6.624  10.288  0.5141  0.5647  0.7644
  879MOL0     N15946   4.478   6.953  10.067 -0.8005 -0.2665 -0.0451
  879MOL0     N15947   4.596   6.980  10.128  0.7657  0.1813  0.0138
  879MOL0     C15948   5.663   7.011  10.209 -0.9313 -0.7627 -0.6744
  879MOL0     C15949   5.762   7.004  10.118 -0.0812  0.1872 -0.5864
  879MOL0     C15950   6.063   7.066   9.797 -0.0581  0.5198 -0.6148
  879MOL0     C15951   6.189   7.096   9.846  0.8373 -0.0212  0.2020
  879MOL0     C15952   6.302   7.077   9.765 -0.3992 -0.0965  0.2731
  879MOL0     C15953   6.291   7.023   9.642 -0.3901  0.1839  0.7350
  879MOL0     O15954   6.404   7.022   9.576  0.0509 -0.3286  0.7167
  879MOL0     C15955   6.447   6.901   9.506 -0.2235  0.0605  0.2445
  879MOL0     C15956   6.591   6.919   9.452  0.3148  0.1541 -0.4057
  879MOL0     C15957   6.606   7.029   9.350  0.5172 -1.4609 -1.1644
  879MOL0     C15958   6.742   7.045   9.276  0.2000  0.0371 -0.1478
  879MOL0     C15959   6.800   6.921   9.222  0.3330  0.0348 -0.5224
  879MOL0     C15960   6.860   6.815   9.205  0.4619 -0.1247 -0.5161
  879MOL0     C15961   6.164   6.985   9.593  0.3327  0.0922  0.2640
  879MOL0     C15962   6.040   7.011   9.669  0.0417  0.2936  0.7283
  879MOL0     H15963   5.944   7.285  10.196 -1.7857  1.5320  0.0423
  879MOL0     H15964   5.770   7.298  10.371 -0.1464 -0.3092 -0.2819
  879MOL0     H15965   5.618   7.049  10.578 -1.7880 -1.5881  2.5617
  879MOL0     H15966   5.550   6.937  10.446  0.2433 -0.5393  1.8945
  879MOL0     H15967   5.385   7.139  10.608 -1.6187  0.4312 -0.5904
  879MOL0     H15968   5.389   6.974  10.627 -2.5130  0.4994  0.3629
  879MOL0     H15969   5.306   6.974  10.381 -0.2921  1.0577 -0.6254
  879MOL0     H15970   5.295   7.152  10.387 -0.7615  0.2150 -0.0570
  879MOL0     H15971   5.147   6.960  10.572  0.0820  0.3129 -0.2098
  879MOL0     H15972   5.129   7.141  10.553  1.7658  0.0520  0.9324
  879MOL0     H15973   5.091   6.928  10.335  2.3003  0.6968 -0.6154
  879MOL0     H15974   5.043   7.092  10.318 -0.2131 -2.2536 -1.8477
  879MOL0     H15975   4.881   7.066  10.511 -1.8641  0.7186 -1.0881
  879MOL0     H15976   4.920   6.891  10.508  3.2455 -1.1421 -1.8525
  879MOL0     H15977   4.841   7.026  10.244 -1.9543  1.6550  1.7837
  879MOL0     H15978   4.827   6.854  10.302  2.7440 -0.0589  1.4843
  879MOL0     H15979   4.654   7.090  10.383  2.1567  0.0057 -1.3539
  879MOL0     H15980   4.659   6.945  10.466  0.5869  1.9948  0.9465
  879MOL0     H15981   4.444   6.792  10.355 -1.0817  2.2544  0.7283
  879MOL0     H15982   4.302   6.693  10.168  1.3462 -0.3209 -1.5297
  879MOL0     H15983   4.282   6.767  10.014  0.4127  0.4864  0.4554
  879MOL0     H15984   4.162   6.960  10.121  0.4493  0.9258  1.3078
  879MOL0     H15985   4.158   6.852  10.265  1.1426 -3.4961 -0.5350
  879MOL0     H15986   4.041   6.774   9.994 -1.0082  0.7709 -0.1154
  879MOL0     H15987   4.040   6.665  10.135 -4.2137 -0.4231  0.8359
  879MOL0     H15988   3.882   6.926  10.150  0.0899  0.0064 -2.8239
  879MOL0     H15989   3.919   6.794  10.270  0.3575 -0.2571 -0.3883
  879MOL0     H15990   3.552   6.803  10.049  0.7108 -0.7905 -1.3954
  879MOL0     H15991   3.351   6.753  10.204 -0.6536  0.5379  0.7345
  879MOL0     H15992   3.120   6.393  10.405 -0.5747 -0.1456  0.8906
  879MOL0     H15993   2.955   6.277  10.552 -1.2437  0.5835  1.1554
  879MOL0     H15994   2.813   6.219  10.857  0.2838  0.5127 -3.0629
  879MOL0     H15995   2.914   6.370  10.842 -2.0290 -0.0730  0.6453
  879MOL0     H15996   3.025   6.320  11.071  0.2423 -0.0951  1.7703
  879MOL0     H15997   2.965   6.151  11.058  1.7191  0.6605 -0.3244
  879MOL0     H15998   2.828   6.254  11.212 -0.7312  2.3285  1.3910
  879MOL0     H15999   2.727   6.290  11.061 -0.3447  0.3622  1.4625
  879MOL0     H16000   2.909   6.485  11.208 -0.2460 -1.3026  2.2295
  879MOL0     H16001   2.839   6.513  11.051 -3.3156  0.6366  0.3495
  879MOL0     H16002   2.697   6.582  11.273  1.7783 -0.9742 -0.1464
  879MOL0     H16003   2.663   6.409  11.276  1.1390 -0.9280  1.4034
  879MOL0     H16004   2.559   6.432  11.050  0.5567  1.2643 -2.0929
  879MOL0     H16005   2.610   6.595  11.021 -1.3578  0.0669  0.2221
  879MOL0     H16006   2.470   6.654  11.251 -2.7982 -1.0485  2.4644
  879MOL0     H16007   2.378   6.633  11.105  0.4820  0.6338 -0.3254
  879MOL0     H16008   2.407   6.401  11.310 -2.4610 -1.4134  1.1940
  879MOL0     H16009   2.338   6.415  11.153  0.2076 -0.4860 -0.1268
  879MOL0     H16010   3.248   6.260  10.861 -2.5909 -0.8303 -0.0153
  879MOL0     H16011   3.402   6.368  10.724  0.4308 -2.3120  0.4905
  879MOL0     H16012   3.615   6.528  10.449  2.8311 -2.7942 -1.8138
  879MOL0     H16013   3.808   6.597  10.312  0.0706 -1.4656  0.5335
  879MOL0     H16014   5.586   6.935  10.215 -1.2623 -0.4825 -1.3166
  879MOL0     H16015   5.763   6.919  10.051  0.6131  0.7353 -1.2972
  879MOL0     H16016   6.208   7.154   9.936  0.7273  1.1691 -0.5147
  879MOL0     H16017   6.399   7.113   9.798  0.3521 -3.5198  2.3012
  879MOL0     H16018   6.387   6.900   9.415  4.0665  1.4461 -2.9720
  879MOL0     H16019   6.445   6.815   9.574  0.1668  2.1483  3.1052
  879MOL0     H16020   6.674   6.938   9.521  2.1711 -1.0196 -2.1981
  879MOL0     H16021   6.621   6.827   9.401 -1.0650 -1.1847  1.1012
  879MOL0     H16022   6.595   7.121   9.409  0.6360 -0.5552 -2.5042
  879MOL0     H16023   6.530   7.032   9.271 -1.8245  1.1208  0.9739
  879MOL0     H16024   6.739   7.122   9.198 -0.1830 -0.4072 -0.5806
  879MOL0     H16025   6.821   7.089   9.338  1.0665  0.8200 -1.7599
  879MOL0     H16026   6.924   6.733   9.178  2.3004  0.1763  2.4253
  879MOL0     H16027   6.145   6.962   9.488 -0.5309  2.2076 -0.0861
  879MOL0     H16028   5.944   7.001   9.619 -0.0998 -0.5177  1.1521
  880MOL0     O16029   7.261   9.200   7.553 -0.6649  0.0854  0.6241
  880MOL0     C16030   7.317   9.303   7.519  0.1431  0.6831 -0.2406
  880MOL0     O16031   7.258   9.422   7.467 -0.8007 -0.6181  0.3962
  880MOL0     C16032   7.131   9.443   7.440  0.4940 -0.3182  0.1696
  880MOL0     C16033   7.088   9.574   7.416  0.0123  0.5888  0.5435
  880MOL0     C16034   6.966   9.617   7.373  0.0277  0.7262 -0.4917
  880MOL0     C16035   6.857   9.528   7.366  0.0165  1.0317  0.6610
  880MOL0     O16036   6.727   9.546   7.325  0.5140 -0.1062 -0.3179
  880MOL0     C16037   6.692   9.482   7.200  0.5274  0.6263 -0.4141
  880MOL0     C16038   6.576   9.564   7.136 -0.3375  0.6690 -0.1340
  880MOL0     C16039   6.513   9.495   7.012 -0.0063 -0.4861 -0.5559
  880MOL0     C16040   6.375   9.554   6.964  0.7187 -0.2480 -0.1112
  880MOL0     C16041   6.254   9.496   7.037  0.9847  0.2534  0.4863
  880MOL0     C16042   6.122   9.534   6.976 -0.6245  0.0596 -0.2216
  880MOL0     C16043   6.001   9.461   7.022  0.3261 -0.4049 -0.0124
  880MOL0     C16044   5.874   9.515   6.965  0.2693  0.1696 -0.2264
  880MOL0     N16045   5.855   9.659   6.993 -0.1903  0.5826  0.4055
  880MOL0     C16046   5.800   9.702   7.109 -0.5603  0.0558  0.0939
  880MOL0     C16047   5.762   9.832   7.081  0.0489 -0.2232  0.2541
  880MOL0     C16048   5.702   9.928   7.173 -0.3486 -0.2469 -0.8416
  880MOL0     C16049   5.553   9.909   7.180 -0.6537  1.3651  0.3471
  880MOL0     C16050   5.474   9.945   7.048  0.5534  1.0979  0.6273
  880MOL0     C16051   5.488  10.089   7.004  1.2339  0.0475 -0.0325
  880MOL0     O16052   5.419  10.130   6.895  0.7829 -0.0874 -0.4288
  880MOL0     C16053   5.294  10.178   6.916  0.2982 -0.4210 -0.1047
  880MOL0     C16054   5.203  10.140   7.018  0.2716 -0.1439 -0.5237
  880MOL0     C16055   5.072  10.184   7.021 -0.4705  0.3590 -0.9168
  880MOL0     C16056   5.025  10.284   6.930 -0.1524  0.6426 -1.0213
  880MOL0     C16057   4.890  10.343   6.942  0.7041  0.3999  0.5268
  880MOL0     O16058   4.851  10.432   6.854  0.2865 -0.2367 -0.9172
  880MOL0     C16059   4.732  10.509   6.881  0.3102 -0.4967 -0.7052
  880MOL0     C16060   4.687  10.556   7.005 -0.0249 -0.0381 -0.3108
  880MOL0     C16061   4.585  10.657   7.026  0.0600  0.1127  0.3926
  880MOL0     C16062   4.533  10.715   6.903 -0.0714  0.5701 -0.7638
  880MOL0     O16063   4.421  10.794   6.904 -0.1689  0.2688 -0.0540
  880MOL0     C16064   4.387  10.858   7.030 -0.5675  1.0088  0.1417
  880MOL0     C16065   4.294  10.974   7.005 -0.2461  0.1075 -0.5121
  880MOL0     C16066   4.153  10.936   6.943  0.7276 -0.9753 -0.0653
  880MOL0     C16067   4.067  11.059   6.911 -0.0602  0.8023 -0.3933
  880MOL0     C16068   3.954  11.014   6.819  0.4479 -0.3304 -0.0160
  880MOL0     C16069   3.857  11.123   6.766 -0.8478  0.2708 -0.2227
  880MOL0     C16070   3.785  11.077   6.642  0.4910 -0.1523  0.4426
  880MOL0     C16071   3.716  11.193   6.575 -0.4153 -0.3812  0.3786
  880MOL0    Cl16072   3.823  11.278   6.469 -0.5311  0.0507  0.2137
  880MOL0     C16073   4.575  10.669   6.777  1.0788 -0.4155 -0.8624
  880MOL0     C16074   4.676  10.574   6.767 -1.5114 -0.0134  0.8811
  880MOL0     O16075   4.824  10.297   7.039 -0.5783 -0.1446  0.5529
  880MOL0     C16076   5.108  10.322   6.829  0.1531  0.3553 -0.2706
  880MOL0     C16077   5.238  10.273   6.830 -0.0291  0.4628  0.2640
  880MOL0     N16078   5.803   9.860   6.948  0.7627  0.5343 -0.7216
  880MOL0     N16079   5.862   9.758   6.899  0.3679 -0.2113 -0.6154
  880MOL0     C16080   6.899   9.389   7.381 -0.7511 -0.4913 -0.6929
  880MOL0     C16081   7.028   9.343   7.420 -0.3496 -0.5064  0.0339
  880MOL0     C16082   7.459   9.299   7.540 -0.1249 -0.1589 -0.0243
  880MOL0     C16083   7.521   9.415   7.586  0.0328  0.6524 -0.4499
  880MOL0     C16084   7.654   9.418   7.620 -0.2940 -0.0468 -1.5250
  880MOL0     C16085   7.739   9.308   7.606 -0.2213 -0.0115 -0.0140
  880MOL0     O16086   7.880   9.332   7.619 -0.4769  0.2792  0.0132
  880MOL0     C16087   7.978   9.234   7.596 -0.1286 -0.2568 -0.0474
  880MOL0     C16088   7.995   9.148   7.722 -0.1352  0.7700 -0.0886
  880MOL0     C16089   8.134   9.098   7.748  0.1378  0.4617 -0.9579
  880MOL0     C16090   8.245   9.211   7.769 -0.2208  0.5920 -0.2253
  880MOL0     C16091   8.207   9.299   7.885  0.8987  0.0847 -0.0009
  880MOL0     C16092   8.192   9.380   7.983 -0.4381  1.2291 -0.3358
  880MOL0     C16093   7.677   9.184   7.571 -0.5682  0.3066  0.3471
  880MOL0     C16094   7.541   9.189   7.539  0.8692  1.2834 -0.0391
  880MOL0     H16095   7.167   9.646   7.438  0.7085  0.5927 -1.6373
  880MOL0     H16096   6.951   9.723   7.357  0.8059  0.9531  0.2252
  880MOL0     H16097   6.657   9.379   7.208  0.4191  0.5229 -1.9188
  880MOL0     H16098   6.775   9.468   7.130  0.9823 -3.1345  0.6587
  880MOL0     H16099   6.623   9.657   7.104 -1.0110  0.8698 -0.5738
  880MOL0     H16100   6.505   9.581   7.217  1.9356 -2.0112  2.6615
  880MOL0     H16101   6.490   9.397   7.055 -0.2309  0.9712  3.0133
  880MOL0     H16102   6.585   9.492   6.931 -0.0205  0.8330 -0.6386
  880MOL0     H16103   6.385   9.663   6.973  2.3573 -0.4840  1.2546
  880MOL0     H16104   6.368   9.525   6.858  1.4290 -2.3738  0.3811
  880MOL0     H16105   6.258   9.537   7.138 -2.6380  0.2019  0.7709
  880MOL0     H16106   6.260   9.387   7.046 -3.1760 -0.1511  0.0378
  880MOL0     H16107   6.134   9.514   6.869  0.1547 -1.9275  0.1971
  880MOL0     H16108   6.112   9.643   6.981 -0.8823 -0.0085  1.2300
  880MOL0     H16109   6.016   9.354   7.004 -0.9053 -1.4851  4.2022
  880MOL0     H16110   5.995   9.469   7.131  1.8604  3.1335 -0.0268
  880MOL0     H16111   5.791   9.460   7.010  1.7613  0.3003  2.9600
  880MOL0     H16112   5.872   9.496   6.858  0.9259 -0.3832 -0.1462
  880MOL0     H16113   5.791   9.643   7.200 -0.3832 -2.0832 -1.2011
  880MOL0     H16114   5.709  10.031   7.135 -0.2112 -0.6336 -1.9048
  880MOL0     H16115   5.753   9.909   7.267  0.6814 -2.8857 -1.8314
  880MOL0     H16116   5.505   9.965   7.261  0.5733 -0.0523  2.1251
  880MOL0     H16117   5.537   9.803   7.203  2.5900  0.7515  0.2171
  880MOL0     H16118   5.506   9.880   6.966 -4.1776  1.4674 -1.8725
  880MOL0     H16119   5.367   9.924   7.059 -0.6725  3.8214 -3.6309
  880MOL0     H16120   5.588  10.081   6.960  1.9218 -0.7422  1.5831
  880MOL0     H16121   5.482  10.160   7.088  0.4761 -0.4739  0.3603
  880MOL0     H16122   5.236  10.084   7.105  0.6021  2.3309  1.0635
  880MOL0     H16123   5.012  10.158   7.108 -1.0241  0.1986 -1.3403
  880MOL0     H16124   4.736  10.504   7.087  2.4627  2.5018 -0.0345
  880MOL0     H16125   4.569  10.690   7.128 -1.6039 -1.3108  0.6472
  880MOL0     H16126   4.481  10.886   7.079  1.0172 -1.0740 -1.4742
  880MOL0     H16127   4.354  10.778   7.097 -0.0745 -0.2925 -1.1156
  880MOL0     H16128   4.346  11.043   6.939 -1.6232  1.2857 -0.4342
  880MOL0     H16129   4.264  11.018   7.101  0.2541 -0.4962 -0.0733
  880MOL0     H16130   4.097  10.874   7.014 -2.6973 -0.1458 -1.8746
  880MOL0     H16131   4.178  10.875   6.855  1.8942 -0.0739 -0.3911
  880MOL0     H16132   4.025  11.103   7.003  1.6243  0.4079  0.6072
  880MOL0     H16133   4.121  11.133   6.852 -1.3563  1.9619 -0.1892
  880MOL0     H16134   3.895  10.936   6.868  0.5384  0.4813  1.4254
  880MOL0     H16135   3.999  10.965   6.732  1.0217  0.5897 -0.2397
  880MOL0     H16136   3.921  11.201   6.724  2.6113 -3.1451 -1.9974
  880MOL0     H16137   3.785  11.146   6.844  1.0188 -0.3966  1.7976
  880MOL0     H16138   3.856  11.027   6.575  1.5652 -0.2128  1.5943
  880MOL0     H16139   3.708  11.004   6.667  1.7841 -1.8383 -0.3152
  880MOL0     H16140   3.665  11.255   6.649 -2.4345  2.6508 -3.2509
  880MOL0     H16141   3.642  11.146   6.510  2.4253 -2.6183 -1.5325
  880MOL0     H16142   4.529  10.707   6.686  0.9510 -0.5034 -0.8339
  880MOL0     H16143   4.713  10.544   6.669  0.3569  0.3090  1.4404
  880MOL0     H16144   5.062  10.377   6.748 -1.3051 -1.3356 -0.6355
  880MOL0     H16145   5.300  10.295   6.744 -2.5111 -2.1557 -2.4485
  880MOL0     H16146   6.819   9.316   7.372  0.6273 -2.4157  1.4100
  880MOL0     H16147   7.027   9.235   7.424 -2.1422 -0.5131  0.2457
  880MOL0     H16148   7.463   9.502   7.614 -0.3696  0.1976  0.1605
  880MOL0     H16149   7.699   9.513   7.649 -0.2691 -0.9174  1.7476
  880MOL0     H16150   8.071   9.280   7.563  0.7149 -2.4278 -0.8751
  880MOL0     H16151   7.955   9.169   7.511 -2.7094 -0.6950  0.8845
  880MOL0     H16152   7.979   9.204   7.814  3.0439  2.1380 -0.2264
  880MOL0     H16153   7.936   9.057   7.710  2.4108 -0.7878 -1.9480
  880MOL0     H16154   8.161   9.023   7.673 -1.7131 -1.7034  0.3914
  880MOL0     H16155   8.139   9.046   7.845 -1.7311 -2.3111 -2.1994
  880MOL0     H16156   8.342   9.167   7.791 -0.1844  1.7953  2.4564
  880MOL0     H16157   8.256   9.269   7.676  3.3726 -1.7986 -1.4919
  880MOL0     H16158   8.183   9.450   8.063 -3.1573 -0.0681  0.6085
  880MOL0     H16159   7.730   9.090   7.575 -3.3057 -1.2801  2.9533
  880MOL0     H16160   7.484   9.096   7.530 -2.3762  2.8288  2.3551
  881MOL0     O16161   1.289  11.004   2.654 -0.5254  0.6074  0.2015
  881MOL0     C16162   1.287  10.883   2.698 -0.6574 -0.7221  0.5084
  881MOL0     O16163   1.176  10.810   2.734 -0.1281  0.1616 -0.3381
  881MOL0     C16164   1.051  10.862   2.755 -0.4345 -0.5811  0.0603
  881MOL0     C16165   1.024  10.969   2.828 -0.0984 -0.3552  0.4914
  881MOL0     C16166   0.890  11.003   2.858 -0.0670 -0.6358  0.6261
  881MOL0     C16167   0.788  10.930   2.808 -1.3184  0.9350 -0.3189
  881MOL0     O16168   0.662  10.979   2.837  0.2232  0.1220 -0.0975
  881MOL0     C16169   0.566  10.978   2.735  0.6377 -0.2781  0.7430
  881MOL0     C16170   0.589  11.070   2.616 -0.2547  0.4423  0.1696
  881MOL0     C16171   0.622  11.213   2.662 -0.0279  0.0568  1.0859
  881MOL0     C16172   0.530  11.286   2.760 -0.0297 -0.8910 -0.4669
  881MOL0     C16173   0.375  11.303   2.720  0.0105  0.5818 -0.1408
  881MOL0     C16174   0.353  11.402   2.601 -1.0472  0.7615  0.1834
  881MOL0     C16175   0.203  11.433   2.574 -0.8155 -0.6196  0.1289
  881MOL0     C16176   0.161  11.515   2.452 -0.4475  0.7234 -0.4870
  881MOL0     N16177   0.022  11.554   2.471 -1.0960  0.9674 -0.1323
  881MOL0     C16178  -0.076  11.488   2.542  0.3858  0.2798 -0.3859
  881MOL0     C16179  -0.192  11.547   2.499  0.0368 -1.2305 -0.3634
  881MOL0     C16180  -0.340  11.502   2.525 -0.5219  0.0266  0.9488
  881MOL0     C16181  -0.352  11.353   2.496  0.0871 -0.7984 -0.6661
  881MOL0     C16182  -0.485  11.286   2.457 -0.2325  0.1430  0.2051
  881MOL0     C16183  -0.513  11.291   2.303  0.4013 -0.1360 -0.2654
  881MOL0     O16184  -0.476  11.168   2.236 -0.3968  0.6048  0.7139
  881MOL0     C16185  -0.586  11.119   2.171 -0.3925  0.6838 -0.1275
  881MOL0     C16186  -0.600  11.122   2.036  0.4834 -0.2618  0.6058
  881MOL0     C16187  -0.694  11.045   1.974 -0.3663  0.6690  0.4672
  881MOL0     C16188  -0.795  10.980   2.044 -0.1617 -0.2665  0.2121
  881MOL0     C16189  -0.904  10.901   1.975 -0.3245  0.2218 -0.7613
  881MOL0     O16190  -0.977  10.823   2.056 -0.2807 -0.2337  0.0396
  881MOL0     C16191  -1.098  10.764   2.003  0.5737  0.5376  0.5469
  881MOL0     C16192  -1.120  10.633   2.038  0.3693 -0.2703 -0.1483
  881MOL0     C16193  -1.235  10.563   1.999  1.1865  0.4864 -1.0100
  881MOL0     C16194  -1.325  10.618   1.910 -0.4395  0.0396 -0.4918
  881MOL0     O16195  -1.430  10.548   1.859  0.0777 -0.6699 -0.4365
  881MOL0     C16196  -1.540  10.544   1.949 -0.1202  0.6003  0.2355
  881MOL0     C16197  -1.662  10.534   1.853  0.1344  0.7756  0.6125
  881MOL0     C16198  -1.790  10.467   1.901  0.5788  0.0863  0.2635
  881MOL0     C16199  -1.796  10.310   1.891  0.4460 -0.4123 -0.5849
  881MOL0     C16200  -1.935  10.248   1.938 -0.6714  0.4821 -0.9367
  881MOL0     C16201  -1.961  10.290   2.081 -0.3366  0.2526 -0.3483
  881MOL0     C16202  -2.074  10.211   2.148 -0.3519 -0.4085 -1.1144
  881MOL0     C16203  -2.072  10.233   2.299  0.2159  0.1966  0.6399
  881MOL0    Cl16204  -2.231  10.179   2.360 -0.1093  0.6138  0.3900
  881MOL0     C16205  -1.305  10.749   1.870 -0.1741  0.1782  0.5472
  881MOL0     C16206  -1.195  10.826   1.923  0.2504 -0.6341  0.3302
  881MOL0     O16207  -0.921  10.921   1.859  0.3063 -0.6284  0.7057
  881MOL0     C16208  -0.787  10.991   2.184  0.3634  0.5959  0.9726
  881MOL0     C16209  -0.685  11.052   2.243  0.4947  0.7864 -0.8420
  881MOL0     N16210  -0.154  11.643   2.408  0.5321  0.4734 -0.7728
  881MOL0     N16211  -0.032  11.655   2.397  0.0604 -0.7536 -0.1783
  881MOL0     C16212   0.819  10.825   2.721  0.8689  0.2318 -0.5008
  881MOL0     C16213   0.951  10.782   2.698 -0.8634  0.3865  0.3156
  881MOL0     C16214   1.423  10.816   2.722 -0.4578 -0.7714  0.6477
  881MOL0     C16215   1.530  10.869   2.649  0.2633 -0.0611  0.1821
  881MOL0     C16216   1.649  10.799   2.657  0.0322 -0.0640 -0.5952
  881MOL0     C16217   1.664  10.677   2.736  0.1194 -0.8905 -0.2233
  881MOL0     O16218   1.786  10.613   2.728  0.3987  0.5468 -0.6511
  881MOL0     C16219   1.801  10.479   2.784  0.2843 -0.2919 -0.3971
  881MOL0     C16220   1.938  10.450   2.814  0.0021 -0.3358 -0.5047
  881MOL0     C16221   1.977  10.301   2.818 -0.0266 -0.6543 -0.6496
  881MOL0     C16222   2.116  10.290   2.879  0.1893 -0.3047  0.4781
  881MOL0     C16223   2.214  10.344   2.785 -0.3712 -0.4612 -0.6745
  881MOL0     C16224   2.298  10.375   2.703  0.5057 -0.0620 -0.2993
  881MOL0     C16225   1.559  10.628   2.807  0.7028 -0.1127  0.0216
  881MOL0     C16226   1.433  10.694   2.797 -0.6165 -0.6246  0.3000
  881MOL0     H16227   1.098  11.033   2.875 -1.0665  1.4096 -0.2892
  881MOL0     H16228   0.868  11.098   2.905  1.2421  0.3526 -0.6644
  881MOL0     H16229   0.477  11.017   2.785 -0.5946 -0.7019 -1.0261
  881MOL0     H16230   0.538  10.877   2.702 -1.0995 -0.5749  2.8758
  881MOL0     H16231   0.507  11.067   2.544 -0.7526 -2.4976  0.7272
  881MOL0     H16232   0.674  11.025   2.564 -1.1703 -4.1603  2.1539
  881MOL0     H16233   0.622  11.266   2.566 -3.2915 -1.0898  0.3308
  881MOL0     H16234   0.727  11.217   2.694  0.1001  2.7058  0.5557
  881MOL0     H16235   0.536  11.223   2.849 -0.1444  2.9198  2.4864
  881MOL0     H16236   0.571  11.382   2.789 -1.7891 -0.5812  1.2066
  881MOL0     H16237   0.328  11.341   2.811 -0.8063  0.2299 -0.4063
  881MOL0     H16238   0.331  11.205   2.698 -0.6179  0.7752  0.2329
  881MOL0     H16239   0.401  11.361   2.512  1.3315  1.5534  1.0325
  881MOL0     H16240   0.401  11.499   2.616 -0.6258  0.9916 -2.2713
  881MOL0     H16241   0.156  11.335   2.584 -4.1008  1.0041  2.0712
  881MOL0     H16242   0.166  11.495   2.656  1.7697  1.9175 -0.4383
  881MOL0     H16243   0.161  11.445   2.367 -0.6728 -0.4566  0.4580
  881MOL0     H16244   0.228  11.600   2.437 -0.5040  0.6557 -1.1659
  881MOL0     H16245  -0.068  11.396   2.598  1.8996 -0.2368 -1.3979
  881MOL0     H16246  -0.411  11.559   2.465 -1.6094  0.3501  2.5108
  881MOL0     H16247  -0.370  11.512   2.629 -0.9277  1.1023  0.7423
  881MOL0     H16248  -0.330  11.308   2.593 -3.8793  2.2630  1.9923
  881MOL0     H16249  -0.279  11.323   2.421  1.1364 -1.0389  0.4106
  881MOL0     H16250  -0.477  11.181   2.488 -0.3969  0.0112 -0.1909
  881MOL0     H16251  -0.561  11.336   2.518 -2.3571  0.3697 -2.4265
  881MOL0     H16252  -0.456  11.368   2.251 -1.0594  1.1169 -0.0759
  881MOL0     H16253  -0.618  11.315   2.290  0.4411  0.9264  1.1302
  881MOL0     H16254  -0.521  11.168   1.977 -2.2496  2.6911 -1.1092
  881MOL0     H16255  -0.699  11.042   1.865  2.4902 -1.0856  0.2974
  881MOL0     H16256  -1.043  10.578   2.091  1.1160 -1.5062 -2.3564
  881MOL0     H16257  -1.254  10.458   2.022  1.6201  0.3723 -1.1573
  881MOL0     H16258  -1.550  10.637   2.005  1.2715  0.4132  0.8442
  881MOL0     H16259  -1.538  10.452   2.007 -0.8293  0.1208 -0.4746
  881MOL0     H16260  -1.630  10.490   1.758  1.6350  1.1741  0.9119
  881MOL0     H16261  -1.680  10.641   1.842  0.7798  0.7070 -1.6120
  881MOL0     H16262  -1.873  10.513   1.848  1.3418 -0.5805 -1.5970
  881MOL0     H16263  -1.799  10.495   2.006 -0.3910  1.8121 -0.2581
  881MOL0     H16264  -1.772  10.285   1.787 -3.7378 -0.4239 -1.7440
  881MOL0     H16265  -1.715  10.275   1.955  0.2319  1.7072  0.9537
  881MOL0     H16266  -1.923  10.139   1.932  0.2771  0.6427 -2.4681
  881MOL0     H16267  -2.005  10.281   1.861 -1.5582 -0.4956 -0.5755
  881MOL0     H16268  -1.987  10.395   2.098 -0.6232 -0.1602  2.1584
  881MOL0     H16269  -1.869  10.261   2.132  0.8476 -0.5347 -2.7638
  881MOL0     H16270  -2.173  10.224   2.105  0.3871  3.8266 -1.8945
  881MOL0     H16271  -2.051  10.104   2.136 -0.3944 -0.6300  0.4874
  881MOL0     H16272  -2.060  10.340   2.320  0.9935  0.0532  0.9684
  881MOL0     H16273  -1.988  10.178   2.343  0.6836  0.3018 -0.1040
  881MOL0     H16274  -1.371  10.800   1.800  0.8997 -1.4680 -1.7742
  881MOL0     H16275  -1.178  10.931   1.900 -0.1765 -0.1586  2.0831
  881MOL0     H16276  -0.848  10.937   2.255 -0.5086 -1.1722 -1.0087
  881MOL0     H16277  -0.697  11.037   2.350 -1.8478 -1.1513 -1.2779
  881MOL0     H16278   0.740  10.758   2.689  1.8763 -0.4475 -1.6237
  881MOL0     H16279   0.968  10.692   2.641  1.0023 -0.2169  1.7319
  881MOL0     H16280   1.522  10.959   2.589  1.0423  1.4210  2.1575
  881MOL0     H16281   1.736  10.829   2.599 -0.8489  1.9096 -0.9857
  881MOL0     H16282   1.770  10.402   2.713  1.2972 -0.3398 -0.8070
  881MOL0     H16283   1.752  10.468   2.882  5.5161  1.2773  2.8426
  881MOL0     H16284   2.001  10.506   2.745  3.4059 -1.7996  1.2052
  881MOL0     H16285   1.950  10.497   2.912 -2.9961  2.3222 -1.2455
  881MOL0     H16286   1.957  10.243   2.727 -0.4375 -0.8905 -0.4145
  881MOL0     H16287   1.906  10.270   2.895 -1.1454  1.2625 -0.8312
  881MOL0     H16288   2.127  10.340   2.975  0.9516 -2.8307  1.7964
  881MOL0     H16289   2.144  10.187   2.901  2.2453  0.5898  2.5631
  881MOL0     H16290   2.383  10.388   2.640  0.0669 -3.2831 -1.7756
  881MOL0     H16291   1.550  10.543   2.874 -0.2964  0.0824  0.1594
  881MOL0     H16292   1.344  10.666   2.852  0.5919  0.6886  3.0672
  882MOL0     O16293   2.981   4.781   6.097 -0.4895 -0.3743 -0.0866
  882MOL0     C16294   3.021   4.888   6.151  0.0624 -0.1069 -0.5536
  882MOL0     O16295   2.994   5.020   6.110 -0.0470  0.5479 -0.5988
  882MOL0     C16296   2.893   5.035   6.025 -0.0860  0.7474 -0.4103
  882MOL0     C16297   2.773   5.085   6.075  0.4822 -0.2857  0.5894
  882MOL0     C16298   2.660   5.105   5.985 -0.5987 -0.5700 -0.3272
  882MOL0     C16299   2.668   5.070   5.851 -0.8104  0.0151  0.0336
  882MOL0     O16300   2.555   5.086   5.773  0.5021  0.0105 -0.1750
  882MOL0     C16301   2.570   5.085   5.629  1.3863 -0.5349  0.5222
  882MOL0     C16302   2.432   5.098   5.559  0.5926 -0.6237 -0.4498
  882MOL0     C16303   2.440   5.190   5.441 -0.4051 -0.7484  0.8102
  882MOL0     C16304   2.459   5.338   5.488  0.3654  0.3199 -0.2562
  882MOL0     C16305   2.455   5.429   5.365  0.1645 -0.0258 -0.0053
  882MOL0     C16306   2.441   5.576   5.405  0.3530 -1.1166 -0.7394
  882MOL0     C16307   2.445   5.666   5.279  0.4526  0.0674 -0.3722
  882MOL0     C16308   2.421   5.818   5.301  0.8743 -0.0637 -0.3432
  882MOL0     N16309   2.422   5.894   5.174 -0.1233 -0.5783 -0.7256
  882MOL0     C16310   2.309   5.903   5.102 -0.8165  0.1365 -0.1111
  882MOL0     C16311   2.304   6.028   5.049 -0.7942  0.1984 -0.2696
  882MOL0     C16312   2.185   6.073   4.965 -0.8184  0.0343 -0.1260
  882MOL0     C16313   2.059   6.087   5.040  0.6551 -0.0360 -0.0382
  882MOL0     C16314   2.061   6.233   5.105 -0.4647 -0.1994  0.4281
  882MOL0     C16315   1.925   6.287   5.152 -0.3007 -0.3470 -0.2619
  882MOL0     O16316   1.884   6.203   5.256 -0.0649 -0.3046 -0.9368
  882MOL0     C16317   1.756   6.195   5.295  0.0308  0.1447 -0.4245
  882MOL0     C16318   1.667   6.298   5.275 -0.0770  0.2475 -0.1960
  882MOL0     C16319   1.538   6.300   5.333 -0.2793  0.1790 -0.6420
  882MOL0     C16320   1.503   6.194   5.419 -0.3559  0.5851 -0.0112
  882MOL0     C16321   1.377   6.204   5.500  0.2039  0.5721 -0.1126
  882MOL0     O16322   1.289   6.299   5.454  0.2476 -0.0345 -0.7060
  882MOL0     C16323   1.161   6.286   5.510  0.2235  0.3334  0.6389
  882MOL0     C16324   1.060   6.212   5.438  0.2460 -0.3466  0.3711
  882MOL0     C16325   0.938   6.197   5.496  0.9329 -0.1323  0.9453
  882MOL0     C16326   0.911   6.236   5.625 -0.0690  0.2914  0.4418
  882MOL0     O16327   0.797   6.206   5.699  0.0216  0.4126 -1.0016
  882MOL0     C16328   0.698   6.119   5.641  0.6096  0.4239  0.3032
  882MOL0     C16329   0.581   6.095   5.735 -0.1751 -0.7388 -0.7920
  882MOL0     C16330   0.504   6.222   5.763  0.3983  0.8721 -0.3071
  882MOL0     C16331   0.410   6.222   5.887 -0.4711  0.0937  0.1434
  882MOL0     C16332   0.382   6.362   5.943 -0.7639  0.4453 -0.2081
  882MOL0     C16333   0.372   6.471   5.840  0.4889 -0.7763  0.6244
  882MOL0     C16334   0.311   6.596   5.903 -0.1783  0.3794  0.1221
  882MOL0     C16335   0.414   6.707   5.928  0.9455 -0.2622 -0.5798
  882MOL0    Cl16336   0.478   6.775   5.778  0.0254  0.2083  0.2396
  882MOL0     C16337   1.009   6.307   5.699 -0.3846  0.8374  0.1745
  882MOL0     C16338   1.135   6.334   5.641  0.3035 -0.5246 -0.7768
  882MOL0     O16339   1.362   6.134   5.603 -0.7435  0.0372  0.3544
  882MOL0     C16340   1.593   6.085   5.426  0.8994  0.3854 -0.0021
  882MOL0     C16341   1.717   6.083   5.366  0.7090 -0.4608 -0.5359
  882MOL0     N16342   2.425   6.084   5.078 -0.8264 -0.0703 -0.2142
  882MOL0     N16343   2.499   6.005   5.150 -0.4203 -0.0612 -0.4872
  882MOL0     C16344   2.801   5.041   5.803  0.3699  0.1695 -0.0049
  882MOL0     C16345   2.911   5.016   5.888  0.3858  0.3978  0.4045
  882MOL0     C16346   3.100   4.888   6.278 -0.6985 -1.0632  0.2463
  882MOL0     C16347   3.139   5.003   6.357 -0.0989  0.1107  0.4643
  882MOL0     C16348   3.220   4.994   6.469  0.1185  0.6188 -0.2420
  882MOL0     C16349   3.286   4.877   6.495 -0.2705  0.4848 -0.3471
  882MOL0     O16350   3.384   4.880   6.591 -0.2124  0.2620  1.0303
  882MOL0     C16351   3.461   4.758   6.593  0.2648 -0.8903 -0.3588
  882MOL0     C16352   3.565   4.763   6.699 -0.4452  0.9192  1.2087
  882MOL0     C16353   3.657   4.879   6.678  0.4481 -0.6662  0.2677
  882MOL0     C16354   3.771   4.882   6.779  1.3230 -0.0401  0.2346
  882MOL0     C16355   3.854   4.758   6.774 -0.4514 -0.1470 -0.3888
  882MOL0     C16356   3.923   4.658   6.769  0.2737  0.5559 -0.6720
  882MOL0     C16357   3.242   4.762   6.426 -0.1920  0.3286 -0.6436
  882MOL0     C16358   3.149   4.767   6.320 -0.3179 -0.2785 -0.6871
  882MOL0     H16359   2.746   5.095   6.180 -2.9228  0.4321 -0.2288
  882MOL0     H16360   2.564   5.139   6.023  0.2977 -0.4768  2.0639
  882MOL0     H16361   2.615   4.992   5.594  0.9245  0.3646 -2.8181
  882MOL0     H16362   2.638   5.170   5.611  1.9772 -0.6706  1.9636
  882MOL0     H16363   2.356   5.137   5.628 -1.0701 -0.3026 -2.3634
  882MOL0     H16364   2.394   5.003   5.521 -2.7395  0.9887 -1.4967
  882MOL0     H16365   2.347   5.193   5.383  2.0196 -0.2102 -3.4907
  882MOL0     H16366   2.528   5.160   5.383 -0.4886  1.6649 -0.7109
  882MOL0     H16367   2.368   5.360   5.544 -0.8241 -1.1133 -1.5348
  882MOL0     H16368   2.546   5.375   5.543 -1.5194  3.2016  1.0736
  882MOL0     H16369   2.369   5.398   5.306 -1.2370  1.1365  1.3483
  882MOL0     H16370   2.548   5.413   5.308  0.2989 -0.2067  0.2666
  882MOL0     H16371   2.528   5.593   5.469 -0.0417 -1.0908 -0.1992
  882MOL0     H16372   2.358   5.594   5.474  0.9580  0.8605 -0.4726
  882MOL0     H16373   2.543   5.646   5.236  0.6204  2.4610 -1.2473
  882MOL0     H16374   2.361   5.630   5.219 -0.5870 -2.8953  2.5574
  882MOL0     H16375   2.500   5.853   5.369  0.9416  2.6199 -1.6970
  882MOL0     H16376   2.327   5.827   5.355  0.3417  0.5525 -1.3476
  882MOL0     H16377   2.232   5.827   5.089 -1.8865  0.8332  1.6902
  882MOL0     H16378   2.161   5.996   4.891 -1.9786 -0.6000  0.8700
  882MOL0     H16379   2.219   6.165   4.915  0.6097 -0.4849 -0.1612
  882MOL0     H16380   2.062   6.021   5.127  1.8379 -2.3932 -1.7644
  882MOL0     H16381   1.965   6.060   4.990 -0.7482  0.8158  2.0118
  882MOL0     H16382   2.135   6.229   5.186  1.0064  3.6818 -0.4748
  882MOL0     H16383   2.093   6.310   5.034 -1.2887 -1.6024 -1.5579
  882MOL0     H16384   1.855   6.296   5.070  0.6360  0.9512 -0.9589
  882MOL0     H16385   1.943   6.386   5.194 -1.2306 -1.2038  2.3738
  882MOL0     H16386   1.702   6.385   5.221 -1.3243  1.7783  1.3486
  882MOL0     H16387   1.461   6.371   5.305  0.1816  0.9862  0.0985
  882MOL0     H16388   1.077   6.178   5.336  3.0197  1.5426  0.0666
  882MOL0     H16389   0.859   6.137   5.452  4.3107 -4.0705 -0.3665
  882MOL0     H16390   0.740   6.021   5.616  0.4655  0.6279 -0.7973
  882MOL0     H16391   0.651   6.162   5.553 -2.6034  0.0351  1.7045
  882MOL0     H16392   0.614   6.055   5.832  0.9607  2.0541  0.0879
  882MOL0     H16393   0.507   6.025   5.695 -2.5928  0.2580  1.5896
  882MOL0     H16394   0.435   6.238   5.680 -2.4472 -1.3158  1.4588
  882MOL0     H16395   0.580   6.301   5.766  2.2874 -0.8341 -0.3763
  882MOL0     H16396   0.319   6.184   5.839  0.0569  2.4541 -3.0525
  882MOL0     H16397   0.454   6.161   5.966  1.2266  0.0349 -0.8204
  882MOL0     H16398   0.463   6.387   6.013  0.0791 -1.0023 -0.6177
  882MOL0     H16399   0.288   6.350   5.998  0.5125 -1.7852  1.6907
  882MOL0     H16400   0.323   6.429   5.752  1.5132  0.0832 -0.3708
  882MOL0     H16401   0.469   6.483   5.793 -0.0570  0.2045 -0.2893
  882MOL0     H16402   0.225   6.647   5.858  0.1599  1.4051  0.6038
  882MOL0     H16403   0.278   6.575   6.005 -0.5641  2.4860  0.4835
  882MOL0     H16404   0.491   6.670   5.996 -2.0919 -3.4798  1.4428
  882MOL0     H16405   0.368   6.789   5.984  3.4487 -1.9192  4.4475
  882MOL0     H16406   0.983   6.323   5.803  1.5855 -0.4161  0.9177
  882MOL0     H16407   1.210   6.396   5.690 -0.1315 -0.2655 -0.4308
  882MOL0     H16408   1.563   6.000   5.488  2.5314 -1.8629 -2.1073
  882MOL0     H16409   1.776   5.993   5.372 -1.5990 -1.9766  1.0188
  882MOL0     H16410   2.830   5.020   5.700  3.1019  0.8957  0.5100
  882MOL0     H16411   3.007   4.987   5.845  1.5361  1.2410  2.2495
  882MOL0     H16412   3.084   5.091   6.324  1.2623  0.3997 -1.2287
  882MOL0     H16413   3.232   5.090   6.518 -3.0616  0.3028  1.4058
  882MOL0     H16414   3.520   4.732   6.505  0.3199 -0.1396 -0.5494
  882MOL0     H16415   3.389   4.679   6.618  1.0234 -2.6847 -3.3904
  882MOL0     H16416   3.517   4.764   6.797 -1.3992  2.2069  0.7457
  882MOL0     H16417   3.623   4.670   6.697  1.7299  2.2379 -0.5679
  882MOL0     H16418   3.598   4.971   6.685  2.9214  0.9332  2.1002
  882MOL0     H16419   3.692   4.875   6.574  0.1448  0.9652  0.0694
  882MOL0     H16420   3.837   4.969   6.769  1.5417 -0.4768 -3.7567
  882MOL0     H16421   3.725   4.902   6.876 -0.5146 -0.6065 -0.4804
  882MOL0     H16422   3.994   4.578   6.775 -0.8685 -0.3896  2.5928
  882MOL0     H16423   3.279   4.667   6.463 -1.6862  0.9964  2.9406
  882MOL0     H16424   3.129   4.665   6.288  0.1172 -0.2356 -1.1153
  883MOL0     O16425   0.798  10.874   8.504  0.7164 -0.3193  0.4442
  883MOL0     C16426   0.733  10.791   8.426 -0.1051  0.7287  0.3733
  883MOL0     O16427   0.609  10.796   8.381  0.3110 -0.0186 -0.6771
  883MOL0     C16428   0.523  10.899   8.390  0.2841  1.1080 -0.1107
  883MOL0     C16429   0.394  10.874   8.338 -0.0791  0.0918  1.0220
  883MOL0     C16430   0.295  10.975   8.323 -0.1899  0.2262  0.1297
  883MOL0     C16431   0.336  11.111   8.379 -0.3475  0.4904  0.2474
  883MOL0     O16432   0.262  11.232   8.369  0.5629 -0.3450  0.2094
  883MOL0     C16433   0.186  11.231   8.256  0.2663  0.0248  0.6372
  883MOL0     C16434   0.134  11.375   8.251 -0.2012  0.2862  1.2907
  883MOL0     C16435   0.057  11.416   8.375 -0.1146 -0.3121 -0.2149
  883MOL0     C16436  -0.022  11.541   8.343  0.4108 -0.5818 -0.0421
  883MOL0     C16437  -0.099  11.573   8.473  0.8042 -0.7494  0.2151
  883MOL0     C16438  -0.250  11.536   8.455 -0.1803  0.5118 -0.3572
  883MOL0     C16439  -0.355  11.623   8.517  0.0100 -0.3964 -0.8279
  883MOL0     C16440  -0.499  11.563   8.536 -0.3547  0.9433  0.7183
  883MOL0     N16441  -0.572  11.565   8.405  0.1455  0.8366  0.2192
  883MOL0     C16442  -0.666  11.651   8.364 -0.1080  0.2704  0.3126
  883MOL0     C16443  -0.722  11.594   8.254 -0.7957  0.8476 -0.0315
  883MOL0     C16444  -0.818  11.640   8.158 -1.2881 -0.4461  0.8367
  883MOL0     C16445  -0.940  11.558   8.150  0.1054 -0.0300  0.1790
  883MOL0     C16446  -1.039  11.646   8.062 -0.0224  0.6519 -0.2149
  883MOL0     C16447  -1.182  11.619   8.104 -0.3901  0.7091  0.1642
  883MOL0     O16448  -1.263  11.670   8.008  0.0705 -0.6498 -0.2684
  883MOL0     C16449  -1.398  11.653   8.018  0.1389 -0.0392 -0.7825
  883MOL0     C16450  -1.469  11.608   8.128 -0.0635  0.0823  0.6833
  883MOL0     C16451  -1.609  11.602   8.117  0.8582  0.2906  0.6767
  883MOL0     C16452  -1.687  11.640   8.006 -0.0239  0.6482 -0.4893
  883MOL0     C16453  -1.836  11.631   7.996 -0.0736  0.6467  0.0911
  883MOL0     O16454  -1.909  11.604   8.107 -0.6897  0.2127  0.1885
  883MOL0     C16455  -2.045  11.622   8.082 -0.7738  0.1442 -0.1456
  883MOL0     C16456  -2.113  11.743   8.113 -0.7759 -0.2358 -0.1011
  883MOL0     C16457  -2.252  11.747   8.090 -1.1215 -0.5021  0.1638
  883MOL0     C16458  -2.323  11.619   8.052 -0.0405 -1.1389 -0.3185
  883MOL0     O16459  -2.459  11.631   8.035  0.2786 -0.6405 -0.1374
  883MOL0     C16460  -2.530  11.515   7.999 -0.4306  0.9766  0.3452
  883MOL0     C16461  -2.678  11.538   7.987 -0.2669 -0.7585  0.0382
  883MOL0     C16462  -2.723  11.637   7.882  0.2030 -0.1047  1.0913
  883MOL0     C16463  -2.655  11.622   7.742 -0.1589  0.1031  0.3079
  883MOL0     C16464  -2.729  11.691   7.636 -0.3630 -0.0671  0.9727
  883MOL0     C16465  -2.644  11.733   7.516  0.5586 -0.3681  0.5633
  883MOL0     C16466  -2.563  11.618   7.455 -1.1286  0.7699 -0.8075
  883MOL0     C16467  -2.497  11.659   7.325 -1.2247 -0.9540  1.4900
  883MOL0    Cl16468  -2.626  11.684   7.184  0.3700  0.5806 -0.1606
  883MOL0     C16469  -2.249  11.505   8.020 -0.0661  0.5214  0.6603
  883MOL0     C16470  -2.116  11.507   8.044 -0.7160 -0.2188  0.3381
  883MOL0     O16471  -1.887  11.646   7.882 -1.0516  0.3773  0.6367
  883MOL0     C16472  -1.608  11.689   7.901  0.8791  0.7774 -0.3427
  883MOL0     C16473  -1.468  11.691   7.910 -0.0020 -0.3581 -0.2210
  883MOL0     N16474  -0.642  11.482   8.228  0.4321  0.2818  0.1435
  883MOL0     N16475  -0.547  11.471   8.312  0.0687 -0.2413  0.3507
  883MOL0     C16476   0.461  11.125   8.437 -0.2918  0.1687  0.7992
  883MOL0     C16477   0.557  11.023   8.429  0.2343 -0.0196 -1.0422
  883MOL0     C16478   0.814  10.692   8.343  0.6952 -0.5601 -0.5977
  883MOL0     C16479   0.754  10.583   8.267  0.8739 -0.4504 -0.8697
  883MOL0     C16480   0.835  10.496   8.201  0.3680  1.2763 -0.8816
  883MOL0     C16481   0.974  10.504   8.199 -0.0280  0.4465 -0.2156
  883MOL0     O16482   1.058  10.415   8.129  0.2115  0.0288  0.2490
  883MOL0     C16483   1.008  10.307   8.045  0.1084  0.1258  0.2077
  883MOL0     C16484   0.982  10.358   7.905  0.3209 -1.0384 -0.1305
  883MOL0     C16485   0.880  10.470   7.890  0.2156  0.5627  1.0189
  883MOL0     C16486   0.889  10.535   7.748 -0.2396  0.1400 -1.1386
  883MOL0     C16487   0.763  10.593   7.710  0.2984 -0.2291 -0.6963
  883MOL0     C16488   0.659  10.647   7.667 -1.6618  0.4847 -1.0588
  883MOL0     C16489   1.031  10.601   8.279 -0.0820 -0.0080  0.5055
  883MOL0     C16490   0.954  10.701   8.343 -0.6669 -1.4024  0.3348
  883MOL0     H16491   0.376  10.775   8.296  2.7651 -0.6585  1.3085
  883MOL0     H16492   0.191  10.964   8.295 -0.4595 -2.5769  1.8791
  883MOL0     H16493   0.096  11.169   8.263  0.7207 -0.4710  2.7455
  883MOL0     H16494   0.249  11.209   8.170  1.4627 -0.6569  1.6493
  883MOL0     H16495   0.070  11.388   8.164  1.0128 -0.3060  0.2797
  883MOL0     H16496   0.220  11.439   8.228 -0.9969  1.2328  0.9042
  883MOL0     H16497   0.134  11.430   8.451  0.2494 -1.2540 -0.3901
  883MOL0     H16498  -0.000  11.326   8.400 -0.1567 -0.4197 -0.6897
  883MOL0     H16499   0.039  11.630   8.326  1.2269  0.1177  4.9646
  883MOL0     H16500  -0.086  11.531   8.255  1.7049  1.3800 -1.2899
  883MOL0     H16501  -0.094  11.677   8.505 -2.3557 -0.6360  0.7189
  883MOL0     H16502  -0.058  11.518   8.559  1.5592 -1.0281 -0.3106
  883MOL0     H16503  -0.264  11.439   8.505  1.1745  0.3361 -0.2957
  883MOL0     H16504  -0.270  11.522   8.349 -1.3847 -1.4648  0.0711
  883MOL0     H16505  -0.322  11.654   8.617  0.0886 -0.7011 -0.7584
  883MOL0     H16506  -0.357  11.720   8.466 -0.4112  1.2054  2.0137
  883MOL0     H16507  -0.563  11.619   8.605 -0.0055 -1.3324  3.0731
  883MOL0     H16508  -0.489  11.462   8.577  1.8922  0.0065 -1.8665
  883MOL0     H16509  -0.698  11.738   8.421 -2.1027 -1.4023  1.9488
  883MOL0     H16510  -0.787  11.657   8.055 -3.6060  0.4473  0.2200
  883MOL0     H16511  -0.840  11.739   8.199  0.7795  0.0149  0.9528
  883MOL0     H16512  -0.975  11.558   8.253 -0.2844 -0.4419  0.0506
  883MOL0     H16513  -0.934  11.458   8.106  0.6165  0.4874 -0.9679
  883MOL0     H16514  -1.022  11.754   8.070 -0.7601  0.6931  1.0730
  883MOL0     H16515  -1.035  11.623   7.955  0.3264 -1.1502  0.1467
  883MOL0     H16516  -1.198  11.667   8.201 -0.1243  2.3784 -0.5823
  883MOL0     H16517  -1.200  11.512   8.112 -1.3021  0.6816 -1.6094
  883MOL0     H16518  -1.427  11.590   8.227 -1.7490 -0.7879  1.2888
  883MOL0     H16519  -1.669  11.576   8.203 -1.5168 -0.0004 -0.9772
  883MOL0     H16520  -2.068  11.832   8.155 -1.3280  0.0401 -0.0809
  883MOL0     H16521  -2.296  11.842   8.120 -1.3268 -1.3865  3.0020
  883MOL0     H16522  -2.512  11.431   8.066  3.3122  0.2867 -1.2175
  883MOL0     H16523  -2.489  11.483   7.902  2.6248 -1.7356  2.3287
  883MOL0     H16524  -2.722  11.561   8.085  1.0525 -2.3807  1.0801
  883MOL0     H16525  -2.728  11.444   7.963  0.7429 -1.6601  1.3298
  883MOL0     H16526  -2.680  11.734   7.910  3.9721 -1.2078 -0.2993
  883MOL0     H16527  -2.832  11.643   7.878  0.2313  0.0942  0.5828
  883MOL0     H16528  -2.552  11.658   7.745  0.4331 -1.5265  0.9948
  883MOL0     H16529  -2.656  11.514   7.722  3.2664 -0.0735  0.4552
  883MOL0     H16530  -2.780  11.782   7.667 -2.6788 -1.2881  0.9786
  883MOL0     H16531  -2.804  11.624   7.595  0.5359 -1.8498  2.0891
  883MOL0     H16532  -2.576  11.817   7.534 -2.1172  1.5381  2.6675
  883MOL0     H16533  -2.708  11.775   7.438  1.8186  1.7098  0.5597
  883MOL0     H16534  -2.480  11.592   7.522  2.3910  1.8218 -4.3939
  883MOL0     H16535  -2.624  11.528   7.445  1.9415 -1.3306 -2.1229
  883MOL0     H16536  -2.410  11.597   7.299 -0.8546  0.4004 -0.7131
  883MOL0     H16537  -2.453  11.758   7.335  1.0520 -1.5068 -1.4412
  883MOL0     H16538  -2.291  11.413   7.980 -0.0877  1.5776 -1.9271
  883MOL0     H16539  -2.058  11.415   8.040 -4.0950 -2.5080 -1.2819
  883MOL0     H16540  -1.663  11.718   7.812 -0.3649 -1.9902 -0.5903
  883MOL0     H16541  -1.408  11.740   7.834 -0.4869 -1.9524 -1.7047
  883MOL0     H16542   0.496  11.222   8.471 -1.0287  1.8489 -2.7660
  883MOL0     H16543   0.650  11.033   8.483  0.8325 -1.4337 -1.7687
  883MOL0     H16544   0.647  10.568   8.272  0.7111  0.9409  0.5690
  883MOL0     H16545   0.785  10.408   8.161  1.6707 -0.3156  0.8018
  883MOL0     H16546   0.919  10.268   8.095  0.7756 -2.2429 -0.3278
  883MOL0     H16547   1.083  10.228   8.031  2.7116  2.0566  2.3208
  883MOL0     H16548   1.072  10.404   7.864 -0.1626  2.6129  2.4591
  883MOL0     H16549   0.948  10.267   7.853 -1.7750 -1.1152  1.2254
  883MOL0     H16550   0.887  10.540   7.974 -3.8328  1.0275  1.1427
  883MOL0     H16551   0.783  10.420   7.885 -0.1327  1.3304 -0.3581
  883MOL0     H16552   0.965  10.614   7.756  0.4544 -0.4397 -1.7972
  883MOL0     H16553   0.904  10.454   7.676 -1.1207  1.4875 -2.9026
  883MOL0     H16554   0.561  10.657   7.626 -0.4413  2.4237 -3.8419
  883MOL0     H16555   1.138  10.588   8.297 -0.0151 -4.4092 -1.5722
  883MOL0     H16556   1.002  10.773   8.409 -3.0129  1.1308 -0.4930
  884MOL0     O16557   9.377   8.093   5.658  0.0155 -0.1183  0.1768
  884MOL0     C16558   9.405   8.207   5.668  0.0334  0.7732 -0.5722
  884MOL0     O16559   9.320   8.310   5.655  0.0068  0.4728 -0.4507
  884MOL0     C16560   9.189   8.281   5.596 -0.5423  0.5485 -0.5008
  884MOL0     C16561   9.174   8.289   5.459  0.2547  0.9996  0.1703
  884MOL0     C16562   9.056   8.244   5.392 -0.2612  0.3105 -1.0147
  884MOL0     C16563   8.952   8.187   5.470  0.2251 -0.0048 -0.1027
  884MOL0     O16564   8.852   8.122   5.405  0.6664 -0.7058 -0.5189
  884MOL0     C16565   8.716   8.187   5.413  0.4452  0.5790 -0.0566
  884MOL0     C16566   8.626   8.104   5.313  0.4553 -0.5956  1.4987
  884MOL0     C16567   8.490   8.174   5.296 -0.8772 -0.4174  0.3029
  884MOL0     C16568   8.431   8.104   5.167 -0.1549 -0.3825 -0.2460
  884MOL0     C16569   8.299   8.161   5.125 -0.5513 -0.6945 -0.0812
  884MOL0     C16570   8.185   8.161   5.231  0.5616  0.3309  0.2506
  884MOL0     C16571   8.047   8.186   5.166 -0.2200  0.0477  0.0253
  884MOL0     C16572   7.970   8.070   5.102  0.2424 -0.7737  0.4283
  884MOL0     N16573   7.827   8.086   5.084  0.7346  0.2014  0.0923
  884MOL0     C16574   7.731   7.987   5.068  0.6283 -0.2801 -0.3301
  884MOL0     C16575   7.614   8.051   5.063  0.1124 -1.4479 -0.1431
  884MOL0     C16576   7.488   7.974   5.035  0.3742  0.2901  0.8357
  884MOL0     C16577   7.369   8.027   5.115  0.5819  0.4749  0.6835
  884MOL0     C16578   7.232   7.966   5.074 -0.1613  0.3370 -0.0798
  884MOL0     C16579   7.130   8.034   5.171  0.3361 -0.2826 -0.4458
  884MOL0     O16580   6.997   7.992   5.139 -0.0343  0.4409  0.0076
  884MOL0     C16581   6.921   8.073   5.061 -0.1351  0.5489 -0.1352
  884MOL0     C16582   6.968   8.187   4.982  0.2911 -0.0093 -0.8616
  884MOL0     C16583   6.869   8.269   4.926  1.8283  0.4827  0.1637
  884MOL0     C16584   6.727   8.252   4.935 -1.3427  0.2245  0.0154
  884MOL0     C16585   6.627   8.349   4.888 -0.8552 -1.5797 -0.5369
  884MOL0     O16586   6.501   8.307   4.868  0.0584 -0.0646 -0.6924
  884MOL0     C16587   6.405   8.387   4.809 -0.4638 -0.5057 -0.1128
  884MOL0     C16588   6.343   8.491   4.882  0.6373  1.1295  0.0172
  884MOL0     C16589   6.251   8.575   4.809 -0.1016  0.5893  0.1897
  884MOL0     C16590   6.228   8.560   4.671 -0.1284  1.0810 -0.4501
  884MOL0     O16591   6.149   8.649   4.606  0.1779  0.6518 -0.7390
  884MOL0     C16592   6.107   8.641   4.470  0.0461  0.0729  0.0493
  884MOL0     C16593   6.012   8.525   4.449 -0.6861  0.0181  0.2035
  884MOL0     C16594   5.866   8.545   4.494  0.9255 -0.7303 -0.9724
  884MOL0     C16595   5.795   8.409   4.523 -1.4706  0.1766  0.1551
  884MOL0     C16596   5.640   8.425   4.493 -1.0789 -0.9318  0.1781
  884MOL0     C16597   5.575   8.288   4.511 -0.0081  0.4726 -0.2508
  884MOL0     C16598   5.423   8.296   4.478 -0.2802  0.1925  0.2645
  884MOL0     C16599   5.357   8.164   4.509  0.6103 -0.5367 -0.2303
  884MOL0    Cl16600   5.203   8.177   4.590  0.5609  0.0254  0.1603
  884MOL0     C16601   6.304   8.462   4.608 -0.6445 -0.1853 -0.0783
  884MOL0     C16602   6.376   8.368   4.673  0.2129 -0.7701 -0.9133
  884MOL0     O16603   6.667   8.468   4.874  0.1473  0.3603  0.0528
  884MOL0     C16604   6.694   8.150   5.021 -0.1125  0.3053  0.4772
  884MOL0     C16605   6.783   8.066   5.074  0.5300 -0.6965 -0.4161
  884MOL0     N16606   7.641   8.194   5.060  0.1904 -0.1475 -0.1009
  884MOL0     N16607   7.769   8.205   5.058  0.5638  0.1416  0.3500
  884MOL0     C16608   8.951   8.201   5.607  0.7673 -0.7972 -0.0960
  884MOL0     C16609   9.074   8.242   5.665  0.0267  0.7730  0.9144
  884MOL0     C16610   9.551   8.236   5.676  0.0983 -0.0304 -0.0545
  884MOL0     C16611   9.589   8.374   5.681 -0.5200  0.2371 -0.5435
  884MOL0     C16612   9.730   8.403   5.704 -0.3875 -1.2295  0.4096
  884MOL0     C16613   9.820   8.300   5.720 -0.3026  0.5750  0.4713
  884MOL0     O16614   9.952   8.328   5.752 -0.0448 -0.6525  0.1770
  884MOL0     C16615  10.063   8.251   5.701  0.2418 -0.1107  0.4605
  884MOL0     C16616  10.193   8.306   5.763  0.4292 -0.2781  0.4131
  884MOL0     C16617  10.320   8.279   5.690  0.0096 -0.6583  0.5999
  884MOL0     C16618  10.339   8.373   5.560 -0.2677 -0.7178 -0.9068
  884MOL0     C16619  10.459   8.318   5.481  0.2732 -1.2540 -0.1719
  884MOL0     C16620  10.545   8.272   5.401 -0.0095  0.6514  0.0272
  884MOL0     C16621   9.774   8.166   5.719  0.0829  0.3020  0.2254
  884MOL0     C16622   9.645   8.140   5.683 -0.4671  0.6110 -0.5448
  884MOL0     H16623   9.260   8.325   5.403 -0.4432  3.6070  0.6242
  884MOL0     H16624   9.063   8.241   5.284  1.6304  2.7796 -1.0556
  884MOL0     H16625   8.715   8.293   5.385 -1.2542  0.4632 -0.5615
  884MOL0     H16626   8.682   8.178   5.516  2.8662  2.6278  1.0413
  884MOL0     H16627   8.594   8.010   5.359  2.2145 -1.9345  0.1398
  884MOL0     H16628   8.681   8.077   5.223 -1.4688 -2.6502  0.8274
  884MOL0     H16629   8.513   8.280   5.282  3.2459 -1.2880 -0.8312
  884MOL0     H16630   8.440   8.164   5.393  0.8003 -1.1135  1.1384
  884MOL0     H16631   8.492   8.117   5.077  0.1648 -1.3619 -0.1813
  884MOL0     H16632   8.425   7.998   5.190 -3.5964 -0.1795  0.3198
  884MOL0     H16633   8.272   8.103   5.036 -0.3669  2.9163 -2.7143
  884MOL0     H16634   8.329   8.257   5.082 -2.8106 -1.1409 -3.0039
  884MOL0     H16635   8.208   8.240   5.303  2.3336 -0.4029  0.5383
  884MOL0     H16636   8.182   8.068   5.289 -2.3103  0.5938  0.6731
  884MOL0     H16637   7.980   8.209   5.249 -0.4479 -2.6340  0.6548
  884MOL0     H16638   8.061   8.275   5.104  4.2594  1.0359  2.0506
  884MOL0     H16639   7.976   7.983   5.168 -1.2566  1.8783  4.4224
  884MOL0     H16640   8.020   8.049   5.007  1.0111 -0.7734  0.8225
  884MOL0     H16641   7.738   7.878   5.065 -2.8825 -0.6593  0.8763
  884MOL0     H16642   7.517   7.871   5.055  1.0033  0.3650  0.3534
  884MOL0     H16643   7.475   7.982   4.926  1.5462 -1.0498  0.5607
  884MOL0     H16644   7.359   8.136   5.109  0.6682  0.4486 -0.0945
  884MOL0     H16645   7.397   7.996   5.216 -0.6354 -0.1105  0.8484
  884MOL0     H16646   7.212   7.984   4.968  0.9063 -0.8200 -0.4931
  884MOL0     H16647   7.233   7.858   5.091  3.1911 -0.0928 -2.1479
  884MOL0     H16648   7.138   8.143   5.169 -1.6667 -0.0805  0.2207
  884MOL0     H16649   7.150   8.005   5.274 -0.2585  2.9883  0.7025
  884MOL0     H16650   7.073   8.212   4.967 -0.1646  3.4724  0.7399
  884MOL0     H16651   6.900   8.354   4.865 -2.2311  0.2188 -2.7001
  884MOL0     H16652   6.368   8.514   4.985 -0.5050 -2.6055  1.2935
  884MOL0     H16653   6.200   8.655   4.860  0.8896  0.9827  0.5921
  884MOL0     H16654   6.192   8.630   4.403  0.9817  1.5363  0.9450
  884MOL0     H16655   6.063   8.734   4.433 -0.7810 -0.4453 -0.2892
  884MOL0     H16656   6.047   8.437   4.503  0.1975  0.9619  1.2024
  884MOL0     H16657   6.009   8.513   4.340 -3.3500 -1.2753  0.3334
  884MOL0     H16658   5.820   8.606   4.415  2.2184 -1.6234 -2.4726
  884MOL0     H16659   5.874   8.608   4.583 -1.6454 -0.5417 -0.8214
  884MOL0     H16660   5.840   8.323   4.472  1.0411  1.6828 -0.3129
  884MOL0     H16661   5.815   8.375   4.625  0.0408  0.1976 -0.1106
  884MOL0     H16662   5.625   8.440   4.386 -1.5884 -2.0396  0.0776
  884MOL0     H16663   5.602   8.509   4.551 -0.4901  0.4996 -1.4354
  884MOL0     H16664   5.587   8.255   4.614  1.2715 -3.1129 -1.3778
  884MOL0     H16665   5.624   8.218   4.443  1.8810  2.6905 -1.3110
  884MOL0     H16666   5.389   8.385   4.532  1.2904  0.4537  0.8813
  884MOL0     H16667   5.414   8.329   4.375  2.0731 -1.0728 -0.4341
  884MOL0     H16668   5.423   8.108   4.576  1.5935 -0.4616 -1.1087
  884MOL0     H16669   5.354   8.104   4.417  2.2077 -1.8156  0.4952
  884MOL0     H16670   6.281   8.436   4.505 -3.6549  2.7431 -0.3060
  884MOL0     H16671   6.408   8.285   4.612 -2.3117 -2.1158 -0.5596
  884MOL0     H16672   6.593   8.116   5.038  0.8843 -3.0840  0.4218
  884MOL0     H16673   6.753   7.971   5.118  4.3873 -3.3003 -2.7549
  884MOL0     H16674   8.866   8.179   5.671 -0.2871  0.1366 -1.1302
  884MOL0     H16675   9.070   8.229   5.773  0.3240 -0.1566  0.8166
  884MOL0     H16676   9.516   8.454   5.688  0.9048  1.4487  2.0483
  884MOL0     H16677   9.762   8.506   5.714 -1.8492 -0.5762 -1.2059
  884MOL0     H16678  10.063   8.247   5.592 -2.9098 -1.0448  0.4039
  884MOL0     H16679  10.043   8.151   5.741 -0.2895 -0.1655  0.0708
  884MOL0     H16680  10.177   8.414   5.768 -0.1657 -0.0779 -3.0524
  884MOL0     H16681  10.206   8.251   5.856  0.5403 -0.4554  0.2945
  884MOL0     H16682  10.322   8.176   5.653 -4.3206  0.1541 -2.7862
  884MOL0     H16683  10.407   8.286   5.756 -0.8274  1.4325  1.5845
  884MOL0     H16684  10.256   8.363   5.489 -1.4397  1.5799  0.0461
  884MOL0     H16685  10.356   8.480   5.572  2.7427 -0.9930 -1.7737
  884MOL0     H16686  10.620   8.248   5.330 -0.3282 -0.9800  0.2026
  884MOL0     H16687   9.842   8.085   5.744  0.9587  1.0266  0.2618
  884MOL0     H16688   9.621   8.035   5.669  4.3828 -0.4287 -3.2651
  885MOL0     O16689   5.086   0.026   0.960  0.3058  0.1667  0.2820
  885MOL0     C16690   5.044  -0.016   1.074 -0.7729 -0.7150  0.2205
  885MOL0     O16691   5.110  -0.007   1.189 -0.6057 -0.5163 -1.3642
  885MOL0     C16692   5.229   0.062   1.199 -0.5211 -0.1994 -0.6437
  885MOL0     C16693   5.240   0.191   1.146 -0.9590 -0.1708  0.9726
  885MOL0     C16694   5.359   0.264   1.165 -0.1895  0.4855  0.2976
  885MOL0     C16695   5.469   0.200   1.216 -0.0226  0.1349  0.3934
  885MOL0     O16696   5.580   0.281   1.226  0.5506  0.3068 -0.7298
  885MOL0     C16697   5.709   0.222   1.205  0.0616 -0.4878  0.0026
  885MOL0     C16698   5.818   0.334   1.180  0.4941 -0.0464  0.3746
  885MOL0     C16699   5.775   0.406   1.054  0.5918 -0.1644 -0.2767
  885MOL0     C16700   5.855   0.533   1.027  0.2163  0.2258 -0.7738
  885MOL0     C16701   5.826   0.615   0.894  0.8639 -0.5731 -0.0410
  885MOL0     C16702   5.840   0.545   0.761 -0.0436  0.3646  0.5072
  885MOL0     C16703   5.803   0.644   0.648 -0.0686 -0.0298  1.0184
  885MOL0     C16704   5.819   0.583   0.513  0.0731  0.2750 -0.3758
  885MOL0     N16705   5.749   0.463   0.471  0.7056 -0.2825  0.2453
  885MOL0     C16706   5.654   0.445   0.365  0.1839  0.4989 -0.3116
  885MOL0     C16707   5.619   0.314   0.374  0.5879 -0.3959  0.3423
  885MOL0     C16708   5.541   0.232   0.272  0.2968 -0.7828  0.3696
  885MOL0     C16709   5.403   0.293   0.238 -0.6840  0.5082  0.4404
  885MOL0     C16710   5.322   0.279   0.364  0.2410  0.0179  0.0739
  885MOL0     C16711   5.176   0.331   0.349  0.3985  0.4804 -0.3686
  885MOL0     O16712   5.103   0.293   0.470 -0.6536  0.6726  0.6874
  885MOL0     C16713   5.059   0.164   0.485  0.5476 -0.1491  0.1752
  885MOL0     C16714   5.045   0.077   0.381 -0.1378  1.7049  0.4372
  885MOL0     C16715   4.983  -0.048   0.403  0.5978 -0.3421 -0.3425
  885MOL0     C16716   4.934  -0.080   0.522  0.4569  0.1066 -0.6101
  885MOL0     C16717   4.859  -0.214   0.549  0.1549 -0.8724 -0.0692
  885MOL0     O16718   4.791  -0.258   0.441  0.1657  0.6231 -0.0504
  885MOL0     C16719   4.704  -0.365   0.455 -0.4951  0.2266  0.0659
  885MOL0     C16720   4.598  -0.373   0.547 -0.4969 -0.6382  0.8763
  885MOL0     C16721   4.517  -0.488   0.552 -0.4776  0.4123  0.1429
  885MOL0     C16722   4.548  -0.596   0.469  0.5845  0.0528 -0.1967
  885MOL0     O16723   4.457  -0.697   0.478 -0.7161  0.0510 -0.2611
  885MOL0     C16724   4.504  -0.824   0.496  0.3669  0.3784  0.5952
  885MOL0     C16725   4.384  -0.913   0.539 -0.1928  0.0069  0.5332
  885MOL0     C16726   4.251  -0.891   0.471 -0.1549  0.3045 -0.5651
  885MOL0     C16727   4.152  -0.994   0.520 -0.0984 -0.4333 -0.0551
  885MOL0     C16728   4.006  -0.938   0.487  0.2804  0.5246 -0.6755
  885MOL0     C16729   3.975  -0.937   0.336 -1.3093 -0.6476 -0.0756
  885MOL0     C16730   3.851  -0.854   0.303 -0.4006 -0.3053 -1.0199
  885MOL0     C16731   3.841  -0.851   0.147  0.2844  0.0476  0.1486
  885MOL0    Cl16732   3.679  -0.791   0.102  0.0853 -0.0928  0.3746
  885MOL0     C16733   4.652  -0.591   0.378  0.7035 -0.2682  0.0067
  885MOL0     C16734   4.725  -0.482   0.369 -0.2830 -0.0716 -0.6872
  885MOL0     O16735   4.878  -0.266   0.660  0.2603  0.7450  0.4565
  885MOL0     C16736   4.931   0.012   0.620  0.4206  0.3373 -0.2325
  885MOL0     C16737   4.989   0.135   0.609  0.0138  1.0307 -0.3677
  885MOL0     N16738   5.678   0.256   0.487 -0.1091  0.1720  0.1657
  885MOL0     N16739   5.736   0.349   0.545  0.0034  0.2979  0.3925
  885MOL0     C16740   5.466   0.076   1.276  0.3818  0.5168 -0.3009
  885MOL0     C16741   5.340   0.012   1.277 -0.5362 -0.6211  0.1833
  885MOL0     C16742   4.895  -0.050   1.079 -0.6987 -0.2552 -0.1771
  885MOL0     C16743   4.834  -0.053   1.203 -0.6528  0.2839  0.4449
  885MOL0     C16744   4.706  -0.102   1.210  0.8136 -0.9477 -0.7026
  885MOL0     C16745   4.642  -0.152   1.099 -0.0151 -0.4720 -0.0438
  885MOL0     O16746   4.516  -0.214   1.116  0.3186 -0.3362 -0.1032
  885MOL0     C16747   4.419  -0.163   1.216 -0.5026 -0.7714  0.5320
  885MOL0     C16748   4.264  -0.192   1.185  0.6410 -0.7053 -0.6486
  885MOL0     C16749   4.240  -0.342   1.187 -0.3774  0.7644  0.3870
  885MOL0     C16750   4.107  -0.379   1.129 -0.1675 -0.6042 -0.2022
  885MOL0     C16751   4.003  -0.328   1.212  0.7094  0.1653 -0.0954
  885MOL0     C16752   3.897  -0.306   1.278 -0.2434  0.1031 -1.6451
  885MOL0     C16753   4.709  -0.165   0.977 -0.5477 -0.4827  0.7147
  885MOL0     C16754   4.828  -0.099   0.965  0.4734 -1.0324 -0.9603
  885MOL0     H16755   5.160   0.247   1.098  0.2785  0.6911 -0.1592
  885MOL0     H16756   5.365   0.366   1.130  1.1086  0.0734 -0.7991
  885MOL0     H16757   5.713   0.159   1.115 -0.2932  0.3685 -0.6311
  885MOL0     H16758   5.736   0.169   1.296  3.1183  2.3871  0.9433
  885MOL0     H16759   5.920   0.295   1.175  1.5163  2.4544  0.1393
  885MOL0     H16760   5.808   0.398   1.268  3.1525  0.8597  0.0924
  885MOL0     H16761   5.671   0.438   1.068  0.6193 -0.0263 -0.3771
  885MOL0     H16762   5.774   0.342   0.966 -1.2639  1.1391 -1.2668
  885MOL0     H16763   5.836   0.597   1.114  0.3102 -0.7894  0.0048
  885MOL0     H16764   5.964   0.524   1.026  1.0169  4.6916  3.5872
  885MOL0     H16765   5.901   0.689   0.867  4.1343 -3.4945  0.3679
  885MOL0     H16766   5.729   0.663   0.914  0.9713 -0.2478 -0.2908
  885MOL0     H16767   5.788   0.449   0.758  0.6105  0.0230 -0.1832
  885MOL0     H16768   5.941   0.515   0.735 -0.4796  0.3102 -1.2587
  885MOL0     H16769   5.701   0.681   0.654 -0.7770 -1.3211 -1.6747
  885MOL0     H16770   5.871   0.727   0.666 -0.1531  0.2043  0.2571
  885MOL0     H16771   5.927   0.566   0.501  0.4876  0.3360  2.5575
  885MOL0     H16772   5.781   0.651   0.437 -0.8504 -0.3444 -0.4820
  885MOL0     H16773   5.621   0.520   0.294 -2.3006  1.4502  1.6901
  885MOL0     H16774   5.531   0.129   0.306  0.3482 -0.7324  0.5393
  885MOL0     H16775   5.601   0.233   0.181  0.0288  1.2343  0.1617
  885MOL0     H16776   5.354   0.222   0.171 -1.6809  0.3530  1.3098
  885MOL0     H16777   5.415   0.389   0.186  2.2178 -1.5817 -3.2252
  885MOL0     H16778   5.315   0.174   0.393 -0.4806 -0.2140 -0.9053
  885MOL0     H16779   5.368   0.329   0.450  0.5731 -1.5437  0.8282
  885MOL0     H16780   5.129   0.304   0.254  1.5079  1.2961 -1.1818
  885MOL0     H16781   5.171   0.440   0.335  0.6617  0.4634 -0.6044
  885MOL0     H16782   5.082   0.090   0.280 -0.4677 -3.7470 -0.6820
  885MOL0     H16783   4.965  -0.119   0.323 -1.4027 -1.8344  1.2960
  885MOL0     H16784   4.580  -0.280   0.601 -2.4516 -0.3245 -0.2374
  885MOL0     H16785   4.439  -0.500   0.627  1.9548 -0.7206  2.6904
  885MOL0     H16786   4.585  -0.835   0.568  1.3683 -2.6437 -0.8450
  885MOL0     H16787   4.536  -0.856   0.396 -1.3328 -1.8373  0.6887
  885MOL0     H16788   4.365  -0.884   0.642  0.5116  0.9795  0.3988
  885MOL0     H16789   4.421  -1.016   0.534  1.3858  0.4887  1.7172
  885MOL0     H16790   4.262  -0.903   0.363 -1.1740  2.6714 -0.9943
  885MOL0     H16791   4.224  -0.789   0.499  0.6407  0.8812 -1.8477
  885MOL0     H16792   4.173  -1.092   0.475  0.0286 -0.7401  0.6615
  885MOL0     H16793   4.168  -1.008   0.627  0.6662  1.0480  0.0495
  885MOL0     H16794   3.987  -0.837   0.526 -3.0466 -0.0836 -0.4544
  885MOL0     H16795   3.932  -1.002   0.535 -0.1797  1.7193  0.2748
  885MOL0     H16796   3.954  -1.040   0.307 -5.0531  0.1668 -0.7216
  885MOL0     H16797   4.063  -0.905   0.279 -0.4875 -0.0666  1.4406
  885MOL0     H16798   3.761  -0.897   0.349 -0.1855 -1.2067 -1.4059
  885MOL0     H16799   3.859  -0.750   0.336 -0.6193 -0.5843 -0.0629
  885MOL0     H16800   3.864  -0.944   0.096 -1.7797 -0.0679 -0.6815
  885MOL0     H16801   3.913  -0.776   0.114  1.0891 -1.5348 -1.8558
  885MOL0     H16802   4.676  -0.680   0.321 -0.0365  1.1075 -2.5642
  885MOL0     H16803   4.799  -0.491   0.290 -0.7694  0.8314 -1.2532
  885MOL0     H16804   4.853  -0.001   0.695 -0.0460  0.2094 -0.7269
  885MOL0     H16805   4.985   0.219   0.678 -1.5377  1.9629 -1.5160
  885MOL0     H16806   5.560   0.034   1.312 -0.6897 -0.6629  1.2524
  885MOL0     H16807   5.332  -0.088   1.318  3.2181 -1.1021  0.1082
  885MOL0     H16808   4.887  -0.012   1.288  0.9667  0.6738 -0.7038
  885MOL0     H16809   4.657  -0.120   1.306  1.4677 -2.4675 -0.6289
  885MOL0     H16810   4.436  -0.055   1.213  0.6695 -0.9432  0.6193
  885MOL0     H16811   4.443  -0.193   1.318 -0.8816 -2.5039  0.1409
  885MOL0     H16812   4.211  -0.132   1.261  2.8859  3.0580 -1.7752
  885MOL0     H16813   4.251  -0.133   1.093  2.5769  3.0762  1.2629
  885MOL0     H16814   4.249  -0.390   1.285 -0.4326 -0.4522 -0.1779
  885MOL0     H16815   4.315  -0.389   1.123  0.9542  2.6887  0.4659
  885MOL0     H16816   4.098  -0.339   1.028 -1.1870  2.7497  1.0839
  885MOL0     H16817   4.100  -0.488   1.141 -0.5846 -0.5269  0.2812
  885MOL0     H16818   3.796  -0.300   1.315  1.2515 -0.0915  3.0292
  885MOL0     H16819   4.679  -0.216   0.886  2.4190  1.0499 -1.2817
  885MOL0     H16820   4.886  -0.105   0.873  0.3866 -2.0690 -0.9588
  886MOL0     O16821   4.146   7.090   1.448 -0.1420 -0.1019  0.0352
  886MOL0     C16822   4.259   7.094   1.493  0.0449  0.4371  1.5620
  886MOL0     O16823   4.325   7.207   1.531  0.5769 -0.6983 -0.3487
  886MOL0     C16824   4.286   7.330   1.500  0.1023 -0.0004  1.1485
  886MOL0     C16825   4.184   7.405   1.568 -0.9911 -0.4458 -0.2051
  886MOL0     C16826   4.149   7.527   1.519 -0.3252  0.4080  0.2712
  886MOL0     C16827   4.214   7.588   1.407 -0.3233  0.5402  0.0542
  886MOL0     O16828   4.175   7.706   1.346  0.0011  0.2534 -0.0803
  886MOL0     C16829   4.107   7.802   1.428  0.9404 -0.4348  0.2468
  886MOL0     C16830   4.106   7.951   1.381 -0.6432 -0.0607  0.1554
  886MOL0     C16831   4.201   8.053   1.454  0.1568 -0.0796  0.6618
  886MOL0     C16832   4.241   8.162   1.349  0.1514 -0.1431  0.3492
  886MOL0     C16833   4.336   8.267   1.412  0.3083  0.2544 -0.4384
  886MOL0     C16834   4.392   8.371   1.312  0.3844  1.1574 -0.4507
  886MOL0     C16835   4.497   8.472   1.362  0.1132  0.4237 -0.5188
  886MOL0     C16836   4.424   8.590   1.427 -1.6714  0.8491  0.1488
  886MOL0     N16837   4.524   8.638   1.530  0.2567  0.0963  0.5468
  886MOL0     C16838   4.649   8.699   1.507 -0.8810 -0.0690 -0.0692
  886MOL0     C16839   4.707   8.728   1.625 -0.3561  0.6934 -0.1766
  886MOL0     C16840   4.822   8.806   1.670  0.3579  0.4569  0.2106
  886MOL0     C16841   4.779   8.938   1.734 -0.4614  0.1397 -0.2479
  886MOL0     C16842   4.887   9.014   1.819  0.2899  0.4796  0.5155
  886MOL0     C16843   4.986   9.066   1.721 -0.2015  0.3695  0.1086
  886MOL0     O16844   5.068   9.157   1.785  0.3642  0.4973  0.1617
  886MOL0     C16845   5.184   9.196   1.718 -0.2016 -0.6136 -0.0287
  886MOL0     C16846   5.224   9.155   1.587 -0.0174  0.4515  0.4029
  886MOL0     C16847   5.343   9.208   1.536  0.2434 -0.0741 -0.9406
  886MOL0     C16848   5.422   9.301   1.605 -1.2704  0.8454  0.5392
  886MOL0     C16849   5.556   9.342   1.535  0.6345 -0.8764  1.4386
  886MOL0     O16850   5.604   9.466   1.583  0.3494  0.2456 -0.6639
  886MOL0     C16851   5.721   9.528   1.545 -0.0592 -0.9962  1.2553
  886MOL0     C16852   5.741   9.667   1.581 -0.4306 -0.1634  0.1740
  886MOL0     C16853   5.846   9.736   1.528  0.1278  0.2222 -0.0225
  886MOL0     C16854   5.939   9.674   1.442  0.5565 -0.4992 -0.5097
  886MOL0     O16855   6.047   9.741   1.409  0.2364 -0.1326  0.7486
  886MOL0     C16856   6.184   9.695   1.422  0.2821  0.5509  0.2091
  886MOL0     C16857   6.282   9.803   1.442  0.1864 -0.3599  0.9902
  886MOL0     C16858   6.426   9.745   1.464  0.6383 -0.1931  0.0542
  886MOL0     C16859   6.539   9.846   1.472  0.5880 -0.8583  0.1563
  886MOL0     C16860   6.667   9.767   1.500 -0.0382 -0.6201 -0.1589
  886MOL0     C16861   6.675   9.730   1.649  0.0512  0.3851  0.2598
  886MOL0     C16862   6.820   9.699   1.690 -0.7808  0.3986  0.2525
  886MOL0     C16863   6.878   9.567   1.629  0.8767 -0.4467  0.2020
  886MOL0    Cl16864   6.759   9.424   1.650 -0.1792  0.3745  0.0908
  886MOL0     C16865   5.916   9.542   1.403  0.2903 -1.2706 -0.8187
  886MOL0     C16866   5.819   9.471   1.459 -0.0376  0.2146 -1.2915
  886MOL0     O16867   5.602   9.266   1.442 -0.3744 -1.2257  0.8276
  886MOL0     C16868   5.383   9.327   1.733  0.0121 -0.2981  0.6990
  886MOL0     C16869   5.264   9.291   1.786  0.7970 -0.8859 -0.1636
  886MOL0     N16870   4.614   8.676   1.724 -0.0621 -0.9176 -0.1599
  886MOL0     N16871   4.520   8.612   1.663  0.3664 -1.0372  0.2667
  886MOL0     C16872   4.309   7.511   1.344 -0.1641 -0.6986 -0.8250
  886MOL0     C16873   4.340   7.383   1.386  0.1300  0.1854  0.5431
  886MOL0     C16874   4.337   6.969   1.500 -0.6527 -0.1495 -1.0141
  886MOL0     C16875   4.315   6.871   1.407  0.2839  0.3989  0.3346
  886MOL0     C16876   4.380   6.740   1.424  0.3895 -0.3183 -0.1802
  886MOL0     C16877   4.476   6.717   1.518  0.0708 -0.5425  0.4140
  886MOL0     O16878   4.547   6.601   1.515 -0.6910 -0.0337 -0.3096
  886MOL0     C16879   4.576   6.551   1.379 -0.0544 -0.4882 -0.0252
  886MOL0     C16880   4.701   6.469   1.409  0.0230 -0.9138  0.3345
  886MOL0     C16881   4.825   6.541   1.463 -1.1892 -0.5526  0.4470
  886MOL0     C16882   4.922   6.449   1.552  0.4059  0.0851  1.1965
  886MOL0     C16883   4.894   6.479   1.688 -0.2533 -0.2869  0.6191
  886MOL0     C16884   4.887   6.501   1.804  0.6960 -1.0170  0.2181
  886MOL0     C16885   4.509   6.827   1.600  0.3562 -0.6167  0.7212
  886MOL0     C16886   4.442   6.951   1.584 -0.3495  0.0739  0.6975
  886MOL0     H16887   4.138   7.363   1.657  1.5394 -1.3949  0.7485
  886MOL0     H16888   4.079   7.592   1.571 -2.0054  1.3911 -2.9216
  886MOL0     H16889   4.132   7.801   1.534 -2.4704  0.6347  1.1974
  886MOL0     H16890   3.999   7.787   1.427  0.9762 -0.9407  1.4939
  886MOL0     H16891   4.004   7.989   1.393 -1.3765 -0.9971 -2.5854
  886MOL0     H16892   4.123   7.952   1.273 -2.6872  3.1870 -0.3014
  886MOL0     H16893   4.288   7.997   1.489  0.3195  0.3848  1.0122
  886MOL0     H16894   4.152   8.093   1.543 -0.6196 -3.4738  1.9372
  886MOL0     H16895   4.282   8.102   1.267  1.2530 -4.4640  3.6977
  886MOL0     H16896   4.150   8.217   1.322  0.1865  0.6566  1.7571
  886MOL0     H16897   4.426   8.210   1.439  1.6271  1.6588 -1.7227
  886MOL0     H16898   4.300   8.310   1.506  6.0549 -0.2972  2.5203
  886MOL0     H16899   4.314   8.437   1.273  0.5281  1.2374 -0.6051
  886MOL0     H16900   4.448   8.332   1.226  2.2848  1.3693  0.6401
  886MOL0     H16901   4.563   8.416   1.429  0.4349 -1.5164 -2.3643
  886MOL0     H16902   4.558   8.516   1.281 -0.3862  0.6260 -0.7907
  886MOL0     H16903   4.340   8.555   1.487 -2.5245  2.6466  0.0540
  886MOL0     H16904   4.383   8.661   1.356 -5.2666 -0.0844  1.0980
  886MOL0     H16905   4.693   8.731   1.413  0.6201 -0.9449  0.3065
  886MOL0     H16906   4.883   8.810   1.579 -0.3179 -1.8928 -0.4087
  886MOL0     H16907   4.873   8.755   1.752  1.1617 -0.3504 -0.7673
  886MOL0     H16908   4.696   8.913   1.802 -2.0092  1.1967 -1.6595
  886MOL0     H16909   4.737   9.010   1.663  0.1043 -0.9857 -1.7502
  886MOL0     H16910   4.837   9.089   1.881 -2.0408  1.4470 -2.3171
  886MOL0     H16911   4.936   8.943   1.886  0.0531  2.5602  3.0768
  886MOL0     H16912   4.925   9.118   1.646 -1.8341 -2.1119 -0.4147
  886MOL0     H16913   5.043   8.984   1.677  0.3305 -0.5118  2.3053
  886MOL0     H16914   5.161   9.082   1.536  2.1591 -1.5918  0.4482
  886MOL0     H16915   5.379   9.175   1.440  3.6524  0.9702 -0.1658
  886MOL0     H16916   5.683   9.732   1.646  3.6158  3.0596  1.0631
  886MOL0     H16917   5.856   9.841   1.551  1.5975  0.6050 -2.1432
  886MOL0     H16918   6.204   9.638   1.330 -2.9329  0.9657 -0.8929
  886MOL0     H16919   6.177   9.622   1.503  0.1113 -0.7522 -0.9376
  886MOL0     H16920   6.247   9.874   1.517  2.4033  2.6537 -0.5760
  886MOL0     H16921   6.286   9.857   1.347 -0.6062 -1.0789  0.5363
  886MOL0     H16922   6.444   9.673   1.383  1.8394 -0.5600  0.6146
  886MOL0     H16923   6.417   9.683   1.554  2.5713 -3.2446 -1.6499
  886MOL0     H16924   6.545   9.895   1.375  0.4355  0.8011  0.9385
  886MOL0     H16925   6.524   9.924   1.548 -0.2135 -1.0169  0.1665
  886MOL0     H16926   6.754   9.828   1.477  0.6879 -1.8895 -0.8582
  886MOL0     H16927   6.673   9.675   1.441  1.4213 -0.3052 -0.5359
  886MOL0     H16928   6.611   9.646   1.678  0.0959  1.2074  3.0204
  886MOL0     H16929   6.641   9.813   1.711 -2.3618 -1.4662  1.6187
  886MOL0     H16930   6.875   9.785   1.651 -0.3196 -0.0928 -0.1954
  886MOL0     H16931   6.827   9.704   1.799  3.2643  1.2775  0.0944
  886MOL0     H16932   6.967   9.545   1.688  1.1430 -3.5616 -1.1986
  886MOL0     H16933   6.915   9.585   1.528  2.7287 -2.1787  0.5121
  886MOL0     H16934   5.982   9.496   1.331  0.5770  3.4019 -3.9579
  886MOL0     H16935   5.812   9.369   1.424 -0.0963  0.3751 -1.7593
  886MOL0     H16936   5.442   9.388   1.800  0.4212 -0.7605  0.7580
  886MOL0     H16937   5.231   9.318   1.886  3.1257  1.9752 -0.0564
  886MOL0     H16938   4.355   7.557   1.257  0.3133  1.3993  0.4671
  886MOL0     H16939   4.409   7.319   1.331 -1.6717 -0.3924 -1.1244
  886MOL0     H16940   4.249   6.882   1.322  1.2132  2.0968 -0.2293
  886MOL0     H16941   4.332   6.661   1.367 -1.7337  1.4166 -0.9309
  886MOL0     H16942   4.596   6.628   1.304 -0.8528 -1.9572 -1.7929
  886MOL0     H16943   4.498   6.487   1.338  0.5335 -2.1011  1.2451
  886MOL0     H16944   4.663   6.391   1.476 -0.9361  0.7177  1.7570
  886MOL0     H16945   4.730   6.424   1.314 -0.5232  1.7723 -1.2051
  886MOL0     H16946   4.796   6.625   1.528  1.2709  0.2355  0.6442
  886MOL0     H16947   4.898   6.571   1.387 -1.2382  0.7088  0.8702
  886MOL0     H16948   4.916   6.341   1.536  0.4031 -0.3368  3.6412
  886MOL0     H16949   5.023   6.482   1.525  1.4739 -1.4497  3.0612
  886MOL0     H16950   4.888   6.538   1.905 -1.2698 -0.2757  0.0215
  886MOL0     H16951   4.589   6.819   1.673  1.8522  0.0396 -0.7964
  886MOL0     H16952   4.474   7.029   1.653 -0.9501  0.9609  0.0112
  887MOL0     O16953  10.255   3.259   1.551  1.1602  0.1589 -1.1572
  887MOL0     C16954  10.241   3.327   1.449  0.5120  0.0066 -0.0416
  887MOL0     O16955  10.337   3.322   1.351  0.6577 -0.2663  0.1463
  887MOL0     C16956  10.460   3.265   1.351 -0.2624 -0.9429  0.4647
  887MOL0     C16957  10.521   3.188   1.453  0.0038  0.6970  0.3204
  887MOL0     C16958  10.654   3.154   1.460 -0.5436 -0.1539 -0.1744
  887MOL0     C16959  10.739   3.192   1.355  0.6209  0.2852 -0.1083
  887MOL0     O16960  10.867   3.151   1.371  0.2440 -0.2892  0.6125
  887MOL0     C16961  10.969   3.209   1.291  0.2637 -0.2834  0.0536
  887MOL0     C16962  11.080   3.102   1.282  0.0208 -0.2033  0.0251
  887MOL0     C16963  11.210   3.175   1.333  0.1885 -0.0566  0.3993
  887MOL0     C16964  11.328   3.087   1.360 -0.5422 -0.2110 -0.1853
  887MOL0     C16965  11.459   3.161   1.360 -0.0110 -0.5932  0.9103
  887MOL0     C16966  11.463   3.271   1.462 -0.1463 -0.1211  0.8700
  887MOL0     C16967  11.587   3.341   1.502  0.1379 -0.1127  0.2854
  887MOL0     C16968  11.684   3.254   1.591 -0.4173 -0.4430  0.5696
  887MOL0     N16969  11.810   3.331   1.623 -0.4919 -0.2693 -0.3593
  887MOL0     C16970  11.939   3.288   1.612  0.1647 -0.7065 -0.0155
  887MOL0     C16971  12.017   3.375   1.687 -0.5355  0.5632  0.5980
  887MOL0     C16972  12.165   3.374   1.687 -0.4047 -0.0664 -1.0460
  887MOL0     C16973  12.222   3.512   1.724  0.0576  0.1508  0.1563
  887MOL0     C16974  12.372   3.497   1.758  1.5063 -0.8386 -0.4756
  887MOL0     C16975  12.422   3.640   1.753 -0.0289  0.7088 -0.5391
  887MOL0     O16976  12.546   3.640   1.819  0.8540 -0.6296 -0.2948
  887MOL0     C16977  12.664   3.615   1.750 -0.2204  0.5102  0.5792
  887MOL0     C16978  12.780   3.633   1.820 -0.4000 -0.1032 -0.4951
  887MOL0     C16979  12.906   3.602   1.769  0.7950 -0.2752  0.0599
  887MOL0     C16980  12.921   3.540   1.641  0.5475  0.0104 -0.1215
  887MOL0     C16981  13.046   3.498   1.581  0.3522 -0.1589 -0.5845
  887MOL0     O16982  13.156   3.553   1.624 -0.3194  0.1062  0.2648
  887MOL0     C16983  13.273   3.519   1.568 -0.3982  0.2967 -0.7314
  887MOL0     C16984  13.356   3.615   1.507  0.2042  0.4393 -0.3510
  887MOL0     C16985  13.479   3.572   1.449 -0.8740 -0.4753 -0.0378
  887MOL0     C16986  13.517   3.436   1.462 -0.1112 -1.0133  1.3740
  887MOL0     O16987  13.622   3.377   1.393 -0.0049  0.0396 -1.1316
  887MOL0     C16988  13.734   3.468   1.353 -0.3504  0.3706  0.2672
  887MOL0     C16989  13.871   3.392   1.319  0.2059  0.8121  0.2729
  887MOL0     C16990  13.851   3.312   1.186  0.1890  0.3879 -0.0392
  887MOL0     C16991  13.992   3.252   1.161 -0.1074  0.5746 -0.5443
  887MOL0     C16992  13.992   3.163   1.037 -0.0144 -0.2235 -0.2919
  887MOL0     C16993  13.925   3.218   0.914 -0.5438  1.0224 -0.0177
  887MOL0     C16994  13.979   3.145   0.785 -0.4167  0.2622 -0.4503
  887MOL0     C16995  14.120   3.185   0.743  0.2973  0.6987  0.0605
  887MOL0    Cl16996  14.163   3.357   0.751 -0.0175  0.2539  0.1055
  887MOL0     C16997  13.444   3.346   1.537  0.6466  0.0698 -0.1095
  887MOL0     C16998  13.323   3.387   1.584  1.5029 -0.6098  0.4711
  887MOL0     O16999  13.036   3.440   1.468  0.0712  0.0705  0.1080
  887MOL0     C17000  12.800   3.525   1.561  0.4910  0.8452 -0.5857
  887MOL0     C17001  12.678   3.568   1.619  0.3258  0.2949  0.5081
  887MOL0     N17002  11.926   3.469   1.742 -0.3377 -0.1016 -0.9664
  887MOL0     N17003  11.809   3.433   1.715 -0.2014 -0.7173 -0.5708
  887MOL0     C17004  10.690   3.270   1.252  0.0893  0.3409 -0.5202
  887MOL0     C17005  10.552   3.312   1.244  0.7312  0.5876 -0.1002
  887MOL0     C17006  10.118   3.409   1.428 -0.2323 -0.1695  0.2995
  887MOL0     C17007  10.013   3.419   1.522 -0.0114 -0.4159  0.2642
  887MOL0     C17008   9.886   3.477   1.482 -0.5127 -0.0781 -0.4133
  887MOL0     C17009   9.864   3.533   1.360  0.3545 -0.3390  0.0970
  887MOL0     O17010   9.752   3.605   1.338  0.2738 -0.4087 -0.0910
  887MOL0     C17011   9.745   3.731   1.271  1.0293  0.3839  0.3807
  887MOL0     C17012   9.721   3.713   1.125  0.1332  0.2197  0.6503
  887MOL0     C17013   9.574   3.701   1.086 -0.2154 -0.0662  0.6810
  887MOL0     C17014   9.493   3.598   1.162  0.2593  0.2420 -0.2015
  887MOL0     C17015   9.347   3.606   1.141  0.3048 -0.0218 -0.0076
  887MOL0     C17016   9.229   3.596   1.127  0.1138  0.3790  0.4106
  887MOL0     C17017   9.975   3.532   1.279  0.4060 -0.2432  1.0611
  887MOL0     C17018  10.099   3.472   1.306 -0.6071  0.2452 -0.3588
  887MOL0     H17019  10.457   3.148   1.531 -0.8245  3.1209  0.9724
  887MOL0     H17020  10.686   3.086   1.539  3.2464  1.2446 -0.2869
  887MOL0     H17021  11.002   3.307   1.327 -1.4162 -0.1255  1.2974
  887MOL0     H17022  10.934   3.225   1.189 -1.6596  2.9276  1.0523
  887MOL0     H17023  11.089   3.054   1.184  0.1145  2.2795 -1.2725
  887MOL0     H17024  11.051   3.023   1.352 -0.5258 -0.5325 -0.5659
  887MOL0     H17025  11.180   3.225   1.426  0.3853 -3.6267  2.5517
  887MOL0     H17026  11.240   3.252   1.261  2.3929 -0.1748  1.1030
  887MOL0     H17027  11.322   3.039   1.459  4.3520  1.8205  1.4324
  887MOL0     H17028  11.330   3.011   1.281  1.4008  0.1630 -0.5563
  887MOL0     H17029  11.486   3.204   1.263  1.0813 -2.5750  0.2925
  887MOL0     H17030  11.546   3.095   1.368  0.9480 -0.2849 -3.8847
  887MOL0     H17031  11.429   3.230   1.558  1.9802  3.2136  3.2609
  887MOL0     H17032  11.386   3.342   1.431  0.8364 -0.4083 -2.6622
  887MOL0     H17033  11.639   3.390   1.419 -0.2071  1.1933  0.8048
  887MOL0     H17034  11.566   3.426   1.569  1.0565  2.4457 -2.4614
  887MOL0     H17035  11.715   3.162   1.539 -3.5396 -1.2077 -0.1215
  887MOL0     H17036  11.626   3.239   1.682 -0.5915 -1.0371  0.3674
  887MOL0     H17037  11.964   3.203   1.549 -2.1320 -1.2599 -0.2534
  887MOL0     H17038  12.206   3.322   1.600  2.2204 -3.5363  1.9587
  887MOL0     H17039  12.187   3.314   1.775 -3.6416 -0.2868 -0.2912
  887MOL0     H17040  12.176   3.556   1.813 -1.6711  0.4608 -0.8509
  887MOL0     H17041  12.211   3.572   1.633 -3.4651  1.7938  1.4923
  887MOL0     H17042  12.383   3.467   1.862 -2.4390  0.8943  0.6228
  887MOL0     H17043  12.408   3.429   1.681  0.0986 -0.3920 -1.5848
  887MOL0     H17044  12.354   3.705   1.808 -0.8814 -0.3648 -0.2912
  887MOL0     H17045  12.419   3.680   1.651  2.1391  2.2338 -0.0752
  887MOL0     H17046  12.774   3.679   1.918  0.0006  0.9448 -0.9529
  887MOL0     H17047  12.995   3.625   1.828 -0.2450 -0.1328  1.6374
  887MOL0     H17048  13.321   3.718   1.506 -0.5854  0.1981  0.5971
  887MOL0     H17049  13.535   3.648   1.396 -1.7908 -0.9588 -1.7497
  887MOL0     H17050  13.760   3.536   1.435  0.6684 -1.3667  1.4577
  887MOL0     H17051  13.710   3.534   1.269 -0.6284  2.1667  1.6782
  887MOL0     H17052  13.878   3.316   1.397 -0.2027  0.0061 -0.4525
  887MOL0     H17053  13.951   3.466   1.316  0.7060  0.3428 -3.7845
  887MOL0     H17054  13.820   3.381   1.107 -0.9824 -0.8384 -0.6991
  887MOL0     H17055  13.771   3.238   1.193  0.5329 -0.0182 -0.3219
  887MOL0     H17056  14.068   3.325   1.132 -0.9416  0.8574 -2.1097
  887MOL0     H17057  14.026   3.194   1.247  1.1146 -0.1390 -1.4875
  887MOL0     H17058  13.935   3.078   1.075  1.4738 -0.5464  1.3726
  887MOL0     H17059  14.099   3.149   1.017  1.2441  4.1485  2.0323
  887MOL0     H17060  13.947   3.324   0.900 -1.2398  0.9521 -1.9849
  887MOL0     H17061  13.818   3.198   0.910 -0.5185  0.8484 -3.5841
  887MOL0     H17062  13.978   3.037   0.803 -1.6011  0.6977  2.8840
  887MOL0     H17063  13.911   3.175   0.705  0.6468 -1.6387 -2.1577
  887MOL0     H17064  14.132   3.142   0.644  1.4227 -2.1432  1.3350
  887MOL0     H17065  14.192   3.134   0.807  2.7482  3.4144 -0.3343
  887MOL0     H17066  13.478   3.245   1.559  1.1391 -0.3303 -2.4676
  887MOL0     H17067  13.252   3.322   1.634  1.0407 -2.0000 -1.8422
  887MOL0     H17068  12.804   3.487   1.460 -0.4137 -0.2821 -0.2218
  887MOL0     H17069  12.587   3.569   1.561 -0.5895 -3.0996  1.6858
  887MOL0     H17070  10.752   3.314   1.174  1.5078 -0.8593 -0.1135
  887MOL0     H17071  10.515   3.382   1.170  1.0561  0.8780  0.0069
  887MOL0     H17072  10.015   3.361   1.614  1.4624  0.0969  0.5783
  887MOL0     H17073   9.811   3.480   1.560  2.0283  1.2068  2.1683
  887MOL0     H17074   9.837   3.788   1.288  0.9293  0.9456 -0.8130
  887MOL0     H17075   9.662   3.792   1.308  0.5689 -0.0062  0.0033
  887MOL0     H17076   9.765   3.803   1.081 -0.1949  0.6716  1.2278
  887MOL0     H17077   9.774   3.626   1.088  0.2625  0.4481  0.2904
  887MOL0     H17078   9.572   3.682   0.979 -2.8933 -2.9780  1.1105
  887MOL0     H17079   9.522   3.796   1.099  2.0881  1.1076  2.0209
  887MOL0     H17080   9.528   3.496   1.147  1.1547 -0.0946  3.3141
  887MOL0     H17081   9.499   3.638   1.264  1.9754  2.4761 -1.0900
  887MOL0     H17082   9.122   3.591   1.134  0.1738 -0.1131  1.0811
  887MOL0     H17083   9.971   3.579   1.181  3.8075 -1.5855  0.1191
  887MOL0     H17084  10.175   3.468   1.229 -2.2238 -3.4034 -2.0248
  888MOL0     O17085   5.989   6.169   6.038  0.1344  0.1417 -0.2468
  888MOL0     C17086   5.950   6.090   6.118  0.1402 -0.0957 -0.0664
  888MOL0     O17087   5.820   6.070   6.143  0.2621  0.3320 -0.0024
  888MOL0     C17088   5.718   6.157   6.126  0.0229 -1.3824  0.8573
  888MOL0     C17089   5.741   6.306   6.111  0.1446 -0.6463  0.1500
  888MOL0     C17090   5.627   6.390   6.103 -1.2078  0.2920  0.0149
  888MOL0     C17091   5.500   6.341   6.110  0.6241  0.4961  0.9011
  888MOL0     O17092   5.390   6.424   6.112 -0.5581 -0.0530  0.5526
  888MOL0     C17093   5.360   6.514   5.998 -0.5145 -0.0122  0.2058
  888MOL0     C17094   5.209   6.540   6.007  0.0989  0.2202 -0.1228
  888MOL0     C17095   5.162   6.600   5.876 -0.4410  0.1580 -0.5790
  888MOL0     C17096   5.002   6.605   5.882  0.1951  0.0417  0.3384
  888MOL0     C17097   4.950   6.599   5.734 -1.4307 -0.6634 -0.0430
  888MOL0     C17098   4.799   6.596   5.724 -0.6689  0.2156 -0.4715
  888MOL0     C17099   4.769   6.570   5.578 -0.0125 -0.9451  0.8890
  888MOL0     C17100   4.788   6.699   5.490 -0.1432 -0.8552  0.2413
  888MOL0     N17101   4.761   6.679   5.346 -0.0317 -0.6453 -0.0843
  888MOL0     C17102   4.690   6.566   5.296 -0.0598  0.0548 -0.5971
  888MOL0     C17103   4.700   6.577   5.162 -0.0928 -0.2009  0.8314
  888MOL0     C17104   4.647   6.481   5.057 -0.3171 -0.2178  0.3637
  888MOL0     C17105   4.741   6.458   4.934 -0.3158 -0.2957  0.0962
  888MOL0     C17106   4.659   6.422   4.807 -0.3671  0.5778 -0.2712
  888MOL0     C17107   4.747   6.397   4.684  0.3126 -0.0777  0.4242
  888MOL0     O17108   4.683   6.429   4.557  0.6633  0.9189 -0.3285
  888MOL0     C17109   4.745   6.373   4.455 -0.4367  0.0151  0.6036
  888MOL0     C17110   4.879   6.410   4.422 -0.0146 -0.4341  0.1683
  888MOL0     C17111   4.946   6.344   4.312  0.3946  0.1103 -0.0302
  888MOL0     C17112   4.864   6.261   4.234 -0.2232  0.3144 -0.5493
  888MOL0     C17113   4.929   6.204   4.111 -0.2581  0.2381 -0.7273
  888MOL0     O17114   4.856   6.113   4.035  0.1536 -0.4920  0.4888
  888MOL0     C17115   4.883   6.012   3.953  0.1549  1.5662 -0.4331
  888MOL0     C17116   4.780   5.962   3.869 -0.7698  0.6098  0.7884
  888MOL0     C17117   4.795   5.856   3.779 -0.2899 -0.3205  0.8081
  888MOL0     C17118   4.924   5.800   3.773  0.5409  0.7695 -0.2768
  888MOL0     O17119   4.944   5.713   3.670  0.0162  0.7912  0.4133
  888MOL0     C17120   5.077   5.696   3.622  0.2794 -0.4322 -0.1887
  888MOL0     C17121   5.074   5.637   3.479 -0.6319 -0.6959  0.1717
  888MOL0     C17122   5.016   5.495   3.485 -0.7373  0.3958 -0.2126
  888MOL0     C17123   5.084   5.381   3.561  0.4396 -1.3102 -0.3753
  888MOL0     C17124   4.995   5.252   3.573 -0.1295 -0.9680  0.0543
  888MOL0     C17125   4.978   5.163   3.450 -0.3034  0.9769 -0.5563
  888MOL0     C17126   4.945   5.016   3.479  0.4300  0.1753 -0.8435
  888MOL0     C17127   4.825   4.986   3.575 -0.3352 -0.3444  0.4188
  888MOL0    Cl17128   4.775   4.810   3.582 -0.0120 -0.2696 -0.2604
  888MOL0     C17129   5.016   5.843   3.873 -0.4035  0.0644 -0.2436
  888MOL0     C17130   5.006   5.947   3.960 -0.4154  0.7799 -0.3794
  888MOL0     O17131   5.043   6.233   4.088 -0.3324  0.2809 -1.3845
  888MOL0     C17132   4.734   6.231   4.264  0.5773 -0.0997 -0.0753
  888MOL0     C17133   4.669   6.289   4.370  0.3039  0.2337 -0.7874
  888MOL0     N17134   4.778   6.684   5.129  0.7778  0.1447  1.0681
  888MOL0     N17135   4.817   6.745   5.236 -0.1910 -1.2481 -0.5831
  888MOL0     C17136   5.481   6.203   6.139  0.7304  0.0642 -0.8045
  888MOL0     C17137   5.585   6.114   6.138 -0.4246  0.0724 -0.1597
  888MOL0     C17138   6.050   5.979   6.159  0.1403  0.7577 -0.2898
  888MOL0     C17139   6.173   5.963   6.097 -0.5695 -0.1105  0.0982
  888MOL0     C17140   6.265   5.869   6.139  0.0930  0.7396  0.7364
  888MOL0     C17141   6.246   5.785   6.252  0.3849 -1.2701 -0.2760
  888MOL0     O17142   6.330   5.699   6.315 -0.7068 -0.2654 -0.2954
  888MOL0     C17143   6.466   5.689   6.264 -0.7147 -0.0921 -0.5158
  888MOL0     C17144   6.542   5.582   6.342  0.8845  0.6813  0.9920
  888MOL0     C17145   6.690   5.594   6.299  0.6395  0.4351  0.7151
  888MOL0     C17146   6.763   5.732   6.323  0.0806 -0.2596  0.9691
  888MOL0     C17147   6.899   5.704   6.279 -0.0206 -0.0560 -0.3818
  888MOL0     C17148   7.010   5.661   6.254 -1.0709  0.5539  0.4566
  888MOL0     C17149   6.123   5.809   6.324  0.4708  0.0094  0.1235
  888MOL0     C17150   6.026   5.894   6.271 -0.7458 -0.1888 -0.8158
  888MOL0     H17151   5.840   6.349   6.114  0.5709 -1.4713 -1.0563
  888MOL0     H17152   5.645   6.496   6.087  3.9332 -0.1715  1.0316
  888MOL0     H17153   5.385   6.456   5.909  2.1654 -0.3295  1.0704
  888MOL0     H17154   5.411   6.610   5.989  0.3746 -0.6766 -3.2049
  888MOL0     H17155   5.186   6.607   6.090  2.4695  0.5925  0.3046
  888MOL0     H17156   5.162   6.444   6.030  0.5191 -0.7835 -3.0041
  888MOL0     H17157   5.201   6.533   5.800 -0.5567 -2.5287  1.5782
  888MOL0     H17158   5.202   6.701   5.862  2.2893 -1.0129 -1.9562
  888MOL0     H17159   4.961   6.517   5.933  0.1620 -0.9625 -1.3461
  888MOL0     H17160   4.972   6.696   5.936  0.1761  0.8491 -0.9792
  888MOL0     H17161   4.978   6.509   5.680 -1.2609  0.0290 -1.1417
  888MOL0     H17162   4.995   6.688   5.689 -0.5735 -0.1793  1.6672
  888MOL0     H17163   4.759   6.687   5.770  2.3729  1.1643  0.5003
  888MOL0     H17164   4.758   6.514   5.784  1.0387  0.2042  0.7565
  888MOL0     H17165   4.829   6.489   5.535  1.8555  1.6785 -1.9299
  888MOL0     H17166   4.660   6.562   5.567 -0.1947  2.6502 -1.6327
  888MOL0     H17167   4.888   6.742   5.502 -0.6960  2.1660 -3.8657
  888MOL0     H17168   4.715   6.775   5.520 -1.8643 -0.6396 -3.8470
  888MOL0     H17169   4.633   6.491   5.351 -0.4999 -1.7913 -3.3603
  888MOL0     H17170   4.561   6.540   5.023 -0.1976 -0.5782 -0.5871
  888MOL0     H17171   4.615   6.386   5.101 -0.1564 -1.1668 -1.4741
  888MOL0     H17172   4.812   6.380   4.965  1.5652  1.4451  0.3528
  888MOL0     H17173   4.788   6.555   4.914 -3.4120  1.3642  0.3544
  888MOL0     H17174   4.593   6.337   4.825 -0.3012  0.9857  2.2076
  888MOL0     H17175   4.594   6.506   4.781 -2.4675 -0.9067 -0.0869
  888MOL0     H17176   4.789   6.296   4.690 -3.0247 -1.5674  0.5327
  888MOL0     H17177   4.827   6.472   4.682  0.1801  0.0537 -0.0316
  888MOL0     H17178   4.945   6.472   4.482 -1.7880 -0.3402  2.1170
  888MOL0     H17179   5.051   6.352   4.285  1.3794 -0.2455  3.2684
  888MOL0     H17180   4.695   6.028   3.854 -1.0246 -0.3005 -2.6645
  888MOL0     H17181   4.710   5.845   3.712 -0.0525  0.7779  0.3137
  888MOL0     H17182   5.143   5.632   3.682  1.1975  0.7062  0.0569
  888MOL0     H17183   5.123   5.795   3.628  0.7801 -0.7271  1.2108
  888MOL0     H17184   5.178   5.628   3.446 -1.0558  1.6857 -2.2214
  888MOL0     H17185   5.020   5.696   3.404 -0.0095 -3.1433 -2.3807
  888MOL0     H17186   5.003   5.457   3.383 -0.9453 -2.4450  0.7646
  888MOL0     H17187   4.915   5.495   3.525 -0.9591  1.1774 -0.7537
  888MOL0     H17188   5.183   5.359   3.519  0.4967 -0.1443 -0.9126
  888MOL0     H17189   5.103   5.422   3.660 -0.5593  0.6769 -0.9511
  888MOL0     H17190   4.897   5.277   3.613 -0.1608 -0.9094 -0.0599
  888MOL0     H17191   5.045   5.198   3.655 -0.5972 -0.6912  0.5287
  888MOL0     H17192   5.070   5.162   3.390 -0.7814  6.5316 -1.9189
  888MOL0     H17193   4.897   5.207   3.391 -0.4749  0.0575 -1.0227
  888MOL0     H17194   4.906   4.975   3.386 -2.7641 -4.2331  2.0407
  888MOL0     H17195   5.030   4.960   3.519 -1.3767 -1.5464  0.8008
  888MOL0     H17196   4.734   5.032   3.535 -0.9088  1.1751  3.1331
  888MOL0     H17197   4.844   5.027   3.675 -0.4450  1.5780 -0.3012
  888MOL0     H17198   5.111   5.791   3.879  0.6659  2.0843  2.7422
  888MOL0     H17199   5.072   5.950   4.046 -0.1672 -0.4117 -0.5031
  888MOL0     H17200   4.675   6.166   4.200 -0.2573  1.6072 -1.0892
  888MOL0     H17201   4.563   6.279   4.391 -0.3868 -1.2272 -4.2298
  888MOL0     H17202   5.378   6.169   6.148  1.1404 -1.1542 -0.5157
  888MOL0     H17203   5.581   6.009   6.164  2.4490 -0.0388  0.2123
  888MOL0     H17204   6.190   6.027   6.010 -0.3272 -0.1227  0.1380
  888MOL0     H17205   6.354   5.853   6.079 -1.6996 -1.3040 -1.6013
  888MOL0     H17206   6.510   5.789   6.264 -2.9779  0.9692 -1.2646
  888MOL0     H17207   6.460   5.657   6.160 -0.2136 -0.9411 -0.2915
  888MOL0     H17208   6.524   5.602   6.448 -0.9712 -0.5463  0.9606
  888MOL0     H17209   6.501   5.484   6.316 -0.6194  1.2008  1.3380
  888MOL0     H17210   6.693   5.560   6.196  1.0254  0.2333  0.7923
  888MOL0     H17211   6.743   5.518   6.357  0.2903 -0.8524 -0.6016
  888MOL0     H17212   6.714   5.814   6.269  0.0027 -1.9147 -1.6852
  888MOL0     H17213   6.775   5.750   6.430 -0.8122 -0.3707  1.0947
  888MOL0     H17214   7.109   5.634   6.225 -0.3925  2.5502  0.7626
  888MOL0     H17215   6.096   5.741   6.403 -3.2972 -0.0514 -0.9852
  888MOL0     H17216   5.934   5.917   6.325 -1.3578  0.8096 -2.2175
  889MOL0     O17217   9.189  10.186  10.319 -0.3583 -0.1366  0.5574
  889MOL0     C17218   9.111  10.164  10.229 -0.4043 -0.1491  0.2151
  889MOL0     O17219   9.149  10.129  10.097 -0.1009  0.6440  0.1386
  889MOL0     C17220   9.284  10.120  10.077  0.8449  0.5665  0.4728
  889MOL0     C17221   9.344  10.003  10.044 -1.0247  0.0428  0.7156
  889MOL0     C17222   9.481   9.998  10.005  0.6748 -0.5104 -0.2461
  889MOL0     C17223   9.553  10.123  10.000  1.5794 -0.5700  0.5201
  889MOL0     O17224   9.676  10.143   9.944 -0.1863  0.5105  0.9123
  889MOL0     C17225   9.732  10.026   9.870  0.7199  0.3210 -0.0020
  889MOL0     C17226   9.873  10.058   9.810  0.3026 -0.8595 -0.4977
  889MOL0     C17227   9.875  10.149   9.686 -0.4546  0.8769  0.6639
  889MOL0     C17228  10.019  10.146   9.634  0.5361 -0.2302  0.2361
  889MOL0     C17229  10.128  10.211   9.717  0.2908 -0.9916  0.9760
  889MOL0     C17230  10.253  10.184   9.633  0.1081  0.3128 -0.1724
  889MOL0     C17231  10.368  10.276   9.677  0.1199  0.7299 -0.0683
  889MOL0     C17232  10.379  10.393   9.580 -0.7782 -0.6144 -0.0758
  889MOL0     N17233  10.483  10.485   9.628  0.3270  0.8078  0.1676
  889MOL0     C17234  10.614  10.444   9.637 -0.0629 -0.4878  0.3255
  889MOL0     C17235  10.669  10.555   9.699 -0.2864  0.6696  0.7383
  889MOL0     C17236  10.817  10.560   9.722  0.8653  0.2127  0.6722
  889MOL0     C17237  10.865  10.704   9.751 -0.6688  0.1700 -0.3613
  889MOL0     C17238  11.006  10.716   9.817  0.3441  0.1474  0.2359
  889MOL0     C17239  11.111  10.738   9.700 -0.1780  0.0862  0.0411
  889MOL0     O17240  11.099  10.874   9.670  0.7151  0.6856 -0.4399
  889MOL0     C17241  11.204  10.953   9.632 -0.9108 -0.3412 -0.1646
  889MOL0     C17242  11.338  10.920   9.617  1.0942  0.1419 -1.4869
  889MOL0     C17243  11.431  11.017   9.604 -0.2516  0.6533  0.7640
  889MOL0     C17244  11.415  11.156   9.600  0.0958 -0.5181  0.5697
  889MOL0     C17245  11.520  11.250   9.573  0.1985 -0.1383 -0.2823
  889MOL0     O17246  11.631  11.190   9.536 -0.4230  0.4417 -0.0130
  889MOL0     C17247  11.714  11.255   9.453 -0.8230  0.4003  1.0213
  889MOL0     C17248  11.680  11.333   9.340  0.5481 -0.5023  0.2984
  889MOL0     C17249  11.773  11.391   9.259 -1.1435 -1.2640  0.0016
  889MOL0     C17250  11.910  11.367   9.277 -0.6316  0.0658 -0.3637
  889MOL0     O17251  12.002  11.430   9.191 -0.3875 -0.0969  0.5160
  889MOL0     C17252  12.138  11.421   9.230 -0.2497 -0.6562 -0.5335
  889MOL0     C17253  12.209  11.544   9.168  0.0073  0.4951 -0.6982
  889MOL0     C17254  12.265  11.515   9.033 -1.1839 -0.5368  0.2047
  889MOL0     C17255  12.324  11.642   8.970 -0.5600  0.8828 -0.5210
  889MOL0     C17256  12.397  11.622   8.838 -0.6695  1.7056 -0.0134
  889MOL0     C17257  12.525  11.521   8.854  0.7079  0.3971 -0.1438
  889MOL0     C17258  12.605  11.518   8.724  0.3960 -0.2466  0.0181
  889MOL0     C17259  12.737  11.575   8.741 -0.6753  0.3069  0.4807
  889MOL0    Cl17260  12.805  11.630   8.588  0.2849  0.1962  0.3358
  889MOL0     C17261  11.949  11.282   9.382 -0.2621  0.4050  0.0181
  889MOL0     C17262  11.847  11.220   9.464 -1.1326 -0.2750  0.2826
  889MOL0     O17263  11.503  11.370   9.589 -0.3750 -0.3480  0.8009
  889MOL0     C17264  11.281  11.197   9.622 -0.3677 -0.3856  0.6711
  889MOL0     C17265  11.184  11.094   9.631  0.1469 -0.5651 -0.4170
  889MOL0     N17266  10.580  10.654   9.713 -0.2911 -0.2821 -0.0282
  889MOL0     N17267  10.464  10.605   9.671  0.4579  0.5387 -0.1683
  889MOL0     C17268   9.485  10.237  10.031  0.0787 -0.2310 -0.4188
  889MOL0     C17269   9.351  10.234  10.068  0.0560 -0.2121  0.2707
  889MOL0     C17270   8.973  10.208  10.261  0.6155  0.3548 -0.6084
  889MOL0     C17271   8.878  10.229  10.156 -0.3926 -0.0481 -0.1119
  889MOL0     C17272   8.751  10.254  10.197  0.6714 -0.2425  0.2270
  889MOL0     C17273   8.698  10.257  10.318 -0.0502 -0.1570 -0.0446
  889MOL0     O17274   8.559  10.276  10.333  0.1777 -0.5260 -0.7861
  889MOL0     C17275   8.469  10.177  10.283 -0.4850  0.6135  0.8566
  889MOL0     C17276   8.439  10.064  10.383  0.4929 -0.0168 -0.8307
  889MOL0     C17277   8.376  10.130  10.502  0.1748 -0.5918  0.1376
  889MOL0     C17278   8.275  10.038  10.568  0.0348 -0.6612 -0.3016
  889MOL0     C17279   8.138  10.072  10.522 -0.5107 -0.4544 -0.5987
  889MOL0     C17280   8.028  10.106  10.480  0.0403 -0.7284 -0.3057
  889MOL0     C17281   8.789  10.237  10.426  0.3547  0.3004  0.1151
  889MOL0     C17282   8.924  10.201  10.396 -0.3408 -1.5094  0.3744
  889MOL0     H17283   9.294   9.907  10.046 -1.3706  0.2186  0.4817
  889MOL0     H17284   9.531   9.902   9.994 -1.9602 -1.8242 -1.6113
  889MOL0     H17285   9.674   9.988   9.785  2.8944 -1.5747 -0.7396
  889MOL0     H17286   9.749   9.948   9.944 -1.3217 -0.2284 -0.0519
  889MOL0     H17287   9.920   9.963   9.781 -0.1274 -1.5135  0.8325
  889MOL0     H17288   9.921  10.112   9.892 -0.2639 -2.2752  0.8102
  889MOL0     H17289   9.840  10.247   9.718 -1.9384  0.7276 -0.4237
  889MOL0     H17290   9.795  10.113   9.622 -0.6478 -3.1703  2.8103
  889MOL0     H17291  10.050  10.041   9.638 -0.7482 -0.5915  2.2625
  889MOL0     H17292  10.014  10.185   9.532 -0.7805  0.6320  0.6094
  889MOL0     H17293  10.133  10.170   9.818 -0.4122 -0.5337  1.1988
  889MOL0     H17294  10.119  10.319   9.725  1.5161 -0.9474  2.0094
  889MOL0     H17295  10.234  10.212   9.529 -1.2024  0.3109  0.0541
  889MOL0     H17296  10.287  10.080   9.626  1.9488  0.9452 -1.4790
  889MOL0     H17297  10.345  10.300   9.781 -2.6491 -0.4529 -0.3193
  889MOL0     H17298  10.457  10.213   9.677 -1.7768 -2.2304  1.8033
  889MOL0     H17299  10.279  10.436   9.581  0.0180  1.4417  2.5151
  889MOL0     H17300  10.395  10.356   9.478 -1.2006  1.6257 -1.0083
  889MOL0     H17301  10.667  10.353   9.611  1.1370 -0.0723  1.1926
  889MOL0     H17302  10.874  10.521   9.636 -1.1285 -0.1964 -0.5211
  889MOL0     H17303  10.843  10.493   9.805  1.0862 -2.7068 -1.5691
  889MOL0     H17304  10.787  10.733   9.822  0.4250 -2.0179  1.8714
  889MOL0     H17305  10.851  10.771   9.665 -2.6402 -0.4928 -0.6113
  889MOL0     H17306  11.004  10.801   9.887  0.1293 -0.1512  0.5954
  889MOL0     H17307  11.023  10.624   9.873 -1.2108 -0.0863  0.3827
  889MOL0     H17308  11.087  10.689   9.605  0.8500  0.9689 -0.7041
  889MOL0     H17309  11.209  10.700   9.731 -1.3268 -0.3435  3.5418
  889MOL0     H17310  11.372  10.819   9.633  0.1326 -0.5156 -3.2966
  889MOL0     H17311  11.531  10.976   9.604 -0.5289 -0.0587  1.2189
  889MOL0     H17312  11.572  11.346   9.328  0.4199 -2.0625 -0.4505
  889MOL0     H17313  11.745  11.453   9.175  1.2583  1.0249  0.7531
  889MOL0     H17314  12.187  11.333   9.187  2.8781 -0.8021  2.8641
  889MOL0     H17315  12.150  11.428   9.338 -1.0653  1.8414 -0.5452
  889MOL0     H17316  12.286  11.580   9.236  0.4238 -0.2332 -0.7739
  889MOL0     H17317  12.141  11.629   9.154 -3.3799 -2.2639 -2.8576
  889MOL0     H17318  12.186  11.473   8.970 -0.2498 -1.8631 -0.1357
  889MOL0     H17319  12.346  11.443   9.049 -0.9792 -0.3846 -0.1213
  889MOL0     H17320  12.252  11.722   8.949 -1.4556 -0.0642 -1.1512
  889MOL0     H17321  12.398  11.684   9.038  1.7911 -1.7076 -1.3052
  889MOL0     H17322  12.438  11.716   8.800 -0.3814  1.6448  0.1418
  889MOL0     H17323  12.326  11.584   8.764 -1.3815  3.0324 -0.0418
  889MOL0     H17324  12.492  11.418   8.872  0.6600  0.3880 -0.2851
  889MOL0     H17325  12.582  11.556   8.940  1.1764 -1.4771  0.3719
  889MOL0     H17326  12.619  11.414   8.697  0.8141 -1.0115  2.8240
  889MOL0     H17327  12.549  11.562   8.641 -0.6976 -3.3859 -1.0489
  889MOL0     H17328  12.805  11.498   8.781 -1.3553 -0.7767 -0.3997
  889MOL0     H17329  12.737  11.661   8.809 -0.6227 -0.5277  1.5602
  889MOL0     H17330  12.055  11.261   9.393 -0.7321 -1.0885  2.3757
  889MOL0     H17331  11.879  11.148   9.538 -1.7271 -0.8394 -0.0031
  889MOL0     H17332  11.258  11.302   9.610  1.8421  0.2585  1.6375
  889MOL0     H17333  11.082  11.128   9.642 -0.9566 -3.4707 -0.8692
  889MOL0     H17334   9.526  10.337  10.014 -2.5824  1.2525  1.3063
  889MOL0     H17335   9.312  10.334  10.081  2.7134  1.2772 -1.9797
  889MOL0     H17336   8.912  10.217  10.053  3.7101  0.0568  1.0481
  889MOL0     H17337   8.674  10.251  10.121  0.0100 -0.6687  0.9037
  889MOL0     H17338   8.511  10.120  10.200  2.7186  0.3215  2.4936
  889MOL0     H17339   8.377  10.226  10.250 -0.0850  1.4606  0.9775
  889MOL0     H17340   8.351  10.013  10.342 -1.1605  4.6418 -3.8628
  889MOL0     H17341   8.521   9.994  10.402 -0.3333 -0.1227  3.0789
  889MOL0     H17342   8.335  10.230  10.482  1.7443  0.2566  0.9487
  889MOL0     H17343   8.452  10.157  10.577 -1.2096 -1.4322  1.9099
  889MOL0     H17344   8.307   9.935  10.547  1.8858  0.3498 -3.0431
  889MOL0     H17345   8.284  10.036  10.677 -4.5956  1.2009  0.3234
  889MOL0     H17346   7.947  10.166  10.445 -0.6256 -0.5885  1.4160
  889MOL0     H17347   8.770  10.237  10.533 -2.7833  0.7807 -0.3659
  889MOL0     H17348   8.993  10.175  10.476 -0.5044 -1.8535  0.4074
  890MOL0     O17349   6.298   2.235   4.339 -0.2950  0.1549 -0.4780
  890MOL0     C17350   6.377   2.148   4.295  0.1254 -0.7282 -0.6920
  890MOL0     O17351   6.345   2.018   4.284 -0.6502  0.3320  0.2448
  890MOL0     C17352   6.209   1.978   4.283  0.3577 -0.0362 -0.9216
  890MOL0     C17353   6.151   1.944   4.404  0.9625 -0.0942  0.0174
  890MOL0     C17354   6.017   1.892   4.403 -1.3322 -0.2432  0.4413
  890MOL0     C17355   5.955   1.861   4.284  0.5391 -0.4318 -0.2710
  890MOL0     O17356   5.857   1.759   4.286  0.2359 -0.5191 -1.2117
  890MOL0     C17357   5.743   1.798   4.210  0.7453  0.0559 -0.8080
  890MOL0     C17358   5.719   1.740   4.074  0.1524 -0.4967 -0.5965
  890MOL0     C17359   5.583   1.785   4.024 -0.1902  0.1098 -0.0998
  890MOL0     C17360   5.571   1.727   3.882 -0.2106 -0.1862  0.4165
  890MOL0     C17361   5.450   1.778   3.812 -0.3000 -1.0404  0.0364
  890MOL0     C17362   5.423   1.715   3.675 -0.4121  0.4626 -1.1673
  890MOL0     C17363   5.312   1.798   3.605 -0.6309  0.4813  0.0141
  890MOL0     C17364   5.373   1.922   3.548 -0.5895 -0.4842  0.5308
  890MOL0     N17365   5.312   1.997   3.441 -0.6354 -0.2473  0.5234
  890MOL0     C17366   5.288   1.939   3.313  0.0244  0.3494 -0.0857
  890MOL0     C17367   5.199   2.017   3.256 -0.6620 -0.8417 -0.3790
  890MOL0     C17368   5.159   2.005   3.112 -0.5014 -0.3976  0.4330
  890MOL0     C17369   5.021   1.930   3.100 -0.3546 -1.1553  0.2740
  890MOL0     C17370   5.038   1.775   3.067 -0.8598 -0.3319 -0.7334
  890MOL0     C17371   4.916   1.684   3.113 -0.6891 -0.1991 -1.0898
  890MOL0     O17372   4.945   1.546   3.092  0.2995 -0.1099  1.0269
  890MOL0     C17373   4.839   1.457   3.105  0.2751 -0.8932 -0.8292
  890MOL0     C17374   4.864   1.333   3.042  0.2494 -0.6815  0.7889
  890MOL0     C17375   4.768   1.235   3.028  0.4768 -0.4722 -0.6483
  890MOL0     C17376   4.635   1.264   3.061  0.1172  0.9962 -0.0712
  890MOL0     C17377   4.525   1.171   3.029 -1.6918 -1.2840  0.2737
  890MOL0     O17378   4.420   1.178   3.111 -0.4661 -0.3059 -0.2870
  890MOL0     C17379   4.315   1.097   3.082 -0.3186 -0.6191  0.2594
  890MOL0     C17380   4.334   0.963   3.050  0.8247  0.1919  0.1787
  890MOL0     C17381   4.232   0.882   3.025 -0.7513  0.1528 -0.4711
  890MOL0     C17382   4.095   0.919   3.041  0.2014 -0.2115  0.5982
  890MOL0     O17383   3.985   0.839   3.015 -0.5700  0.2137  0.3391
  890MOL0     C17384   4.008   0.695   3.033  0.8300  0.0018 -0.5119
  890MOL0     C17385   3.871   0.618   3.001 -0.3250 -0.3194  0.1949
  890MOL0     C17386   3.762   0.644   3.108  0.7161  0.7267  0.5669
  890MOL0     C17387   3.765   0.533   3.220 -0.1158 -1.4202 -0.5304
  890MOL0     C17388   3.689   0.574   3.347 -0.9626  0.4337  0.6068
  890MOL0     C17389   3.665   0.478   3.455  0.5887  0.8877 -0.6960
  890MOL0     C17390   3.617   0.551   3.581  0.3548 -0.0054  0.1043
  890MOL0     C17391   3.585   0.452   3.691 -0.1128  0.5876 -0.3775
  890MOL0    Cl17392   3.442   0.346   3.668 -0.4881 -0.2049 -0.4658
  890MOL0     C17393   4.073   1.054   3.080  0.1146  0.1036 -0.6179
  890MOL0     C17394   4.182   1.139   3.090  0.0838  0.2474  0.0713
  890MOL0     O17395   4.542   1.096   2.936  0.5773 -0.1195  0.3447
  890MOL0     C17396   4.610   1.378   3.143  1.5418 -0.5784  0.4486
  890MOL0     C17397   4.710   1.476   3.158  0.4040  0.3784  0.2343
  890MOL0     N17398   5.175   2.127   3.345  0.6663  0.0952 -0.2189
  890MOL0     N17399   5.251   2.115   3.451  0.2557  0.3540  0.7219
  890MOL0     C17400   6.005   1.925   4.165  0.3675  0.3898  0.1151
  890MOL0     C17401   6.134   1.981   4.164 -0.3686  0.0861  0.1163
  890MOL0     C17402   6.515   2.197   4.264 -0.0006 -0.7774  0.1425
  890MOL0     C17403   6.612   2.110   4.206  0.8919  0.1183  0.9034
  890MOL0     C17404   6.745   2.146   4.190  0.8137 -0.0982 -0.2228
  890MOL0     C17405   6.792   2.270   4.242 -0.5174  0.6033  1.2813
  890MOL0     O17406   6.926   2.305   4.250 -0.4674  0.9426  0.5204
  890MOL0     C17407   7.015   2.274   4.134  0.0204  0.4173  0.4939
  890MOL0     C17408   6.983   2.339   4.003  0.0436  0.4249 -0.9238
  890MOL0     C17409   7.051   2.257   3.894  1.3079 -0.6601 -0.5083
  890MOL0     C17410   7.212   2.267   3.887  0.9040 -0.0840 -0.2995
  890MOL0     C17411   7.252   2.393   3.823  0.4018  0.3635 -0.4641
  890MOL0     C17412   7.262   2.499   3.773  0.4769  0.1682 -0.2994
  890MOL0     C17413   6.700   2.356   4.292 -0.6704 -0.6361  0.5609
  890MOL0     C17414   6.566   2.321   4.303  0.6003 -0.5080 -0.5958
  890MOL0     H17415   6.210   1.962   4.493  2.1377  1.7138 -1.0464
  890MOL0     H17416   5.966   1.880   4.498 -1.2333  0.5763  0.6062
  890MOL0     H17417   5.730   1.906   4.198 -1.4649  0.2686  2.4700
  890MOL0     H17418   5.665   1.775   4.283  1.7949  0.0685  0.3461
  890MOL0     H17419   5.733   1.632   4.083 -1.3582 -0.6121  0.7081
  890MOL0     H17420   5.794   1.780   4.005  2.4989  2.7334  3.3596
  890MOL0     H17421   5.578   1.894   4.021  2.0716  0.3111  1.0919
  890MOL0     H17422   5.497   1.751   4.082 -2.6575  3.0644 -1.7205
  890MOL0     H17423   5.663   1.746   3.825 -0.7115  1.3155  0.0658
  890MOL0     H17424   5.577   1.618   3.880  1.2527 -0.1158 -0.0627
  890MOL0     H17425   5.476   1.882   3.791  0.1301 -1.4455 -1.5176
  890MOL0     H17426   5.361   1.774   3.876  0.1786 -0.9215  0.7227
  890MOL0     H17427   5.394   1.611   3.693  0.4697  0.0756 -1.9199
  890MOL0     H17428   5.512   1.699   3.614  0.2600 -2.5263  0.4187
  890MOL0     H17429   5.278   1.740   3.519  0.7176  1.6029 -1.3140
  890MOL0     H17430   5.225   1.832   3.663 -3.5464 -2.6066 -2.1393
  890MOL0     H17431   5.472   1.893   3.512 -0.2060  1.6814 -0.3244
  890MOL0     H17432   5.384   1.997   3.626 -0.0701 -0.6374  0.6063
  890MOL0     H17433   5.350   1.857   3.277  2.4813  0.9321  2.4076
  890MOL0     H17434   5.238   1.955   3.054 -0.8925 -0.4374 -0.0715
  890MOL0     H17435   5.151   2.103   3.065  0.0137 -1.2221 -1.4903
  890MOL0     H17436   4.977   1.969   3.008 -1.8664 -5.2515 -0.9987
  890MOL0     H17437   4.959   1.955   3.187  1.4839 -0.5735  1.4723
  890MOL0     H17438   5.067   1.759   2.963 -0.3368  0.1393 -0.6661
  890MOL0     H17439   5.125   1.735   3.121 -2.2794 -1.3500  0.9135
  890MOL0     H17440   4.826   1.704   3.054 -1.1530  0.2246 -0.2474
  890MOL0     H17441   4.894   1.706   3.217 -1.9109  2.5412 -1.8289
  890MOL0     H17442   4.950   1.301   2.983 -0.7837  0.0090 -1.2057
  890MOL0     H17443   4.788   1.142   2.976 -1.7150 -1.8268  0.7637
  890MOL0     H17444   4.433   0.923   3.030  0.3835 -1.8641  1.7459
  890MOL0     H17445   4.264   0.783   2.995  0.7030 -0.0374  1.4757
  890MOL0     H17446   4.030   0.669   3.137  0.6278  1.2373 -0.1533
  890MOL0     H17447   4.084   0.650   2.968 -0.3990 -1.5286 -0.9474
  890MOL0     H17448   3.882   0.510   2.988 -1.4896 -0.6054  1.4187
  890MOL0     H17449   3.830   0.659   2.908  0.7538  2.1786  0.7506
  890MOL0     H17450   3.664   0.638   3.060  0.8099 -1.4192  0.5301
  890MOL0     H17451   3.773   0.744   3.150  0.0654  1.0132  0.0679
  890MOL0     H17452   3.724   0.435   3.193  0.2050 -2.5319  2.5414
  890MOL0     H17453   3.868   0.509   3.245  0.3894 -0.8856 -2.0084
  890MOL0     H17454   3.587   0.600   3.316 -0.7287 -0.0059 -0.5956
  890MOL0     H17455   3.724   0.672   3.380 -2.8765  2.4045 -2.6999
  890MOL0     H17456   3.753   0.419   3.482 -0.3953 -1.0258 -1.4035
  890MOL0     H17457   3.582   0.409   3.439 -2.3392  3.7733  1.0260
  890MOL0     H17458   3.686   0.632   3.607  0.0579  0.4302 -0.4176
  890MOL0     H17459   3.529   0.614   3.564 -1.4009 -2.3386  0.0160
  890MOL0     H17460   3.562   0.509   3.782  0.6965  1.3880 -0.6650
  890MOL0     H17461   3.679   0.399   3.707 -0.6283 -0.0399  0.7242
  890MOL0     H17462   3.976   1.094   3.106  1.1319  1.0426  2.1060
  890MOL0     H17463   4.161   1.240   3.124 -1.4207 -0.3158  0.8829
  890MOL0     H17464   4.509   1.400   3.177  1.7027 -2.1422  2.0618
  890MOL0     H17465   4.684   1.571   3.204 -3.2441 -0.8762  1.1195
  890MOL0     H17466   5.955   1.907   4.071 -0.2932  2.8025 -0.0582
  890MOL0     H17467   6.179   2.017   4.072 -0.2651 -0.5515 -0.0837
  890MOL0     H17468   6.575   2.017   4.165  1.7456 -0.0057  0.3804
  890MOL0     H17469   6.811   2.080   4.135  0.6368  1.0786 -1.9489
  890MOL0     H17470   7.014   2.166   4.120  2.1405  0.3759  0.3376
  890MOL0     H17471   7.118   2.287   4.169 -0.1718 -0.5990  1.5227
  890MOL0     H17472   6.874   2.328   3.997  0.4000 -4.8243 -2.1205
  890MOL0     H17473   7.017   2.443   4.003  0.9355  0.1337 -1.0383
  890MOL0     H17474   7.007   2.280   3.797  1.0306 -0.8211 -0.4232
  890MOL0     H17475   7.020   2.153   3.909 -1.0204  0.0348 -0.0650
  890MOL0     H17476   7.249   2.275   3.989  0.5814 -0.0450 -0.1830
  890MOL0     H17477   7.246   2.175   3.837  3.3984 -0.2740  1.5673
  890MOL0     H17478   7.250   2.595   3.727 -0.0993  0.4257  0.3780
  890MOL0     H17479   6.726   2.455   4.328 -4.6285  0.2474  1.4760
  890MOL0     H17480   6.484   2.383   4.336  0.0872  0.6287 -3.6575
  891MOL0     O17481   2.981   9.743   1.995  0.2112  0.2343 -0.4027
  891MOL0     C17482   3.044   9.834   1.943  0.3664 -0.2124 -0.3055
  891MOL0     O17483   3.074   9.842   1.814  0.1336 -0.8113  1.2895
  891MOL0     C17484   3.028   9.742   1.737 -0.1840  0.8360  0.5932
  891MOL0     C17485   2.916   9.749   1.655 -0.2040  0.6288  0.6842
  891MOL0     C17486   2.879   9.648   1.569  0.5126  0.1227 -0.1039
  891MOL0     C17487   2.962   9.533   1.554  0.3756  0.6070  1.2343
  891MOL0     O17488   2.909   9.441   1.459  0.0466  0.8527 -0.0049
  891MOL0     C17489   2.889   9.308   1.503  0.2476  0.0848 -0.5844
  891MOL0     C17490   2.911   9.207   1.389  0.0158  0.1641  0.4701
  891MOL0     C17491   3.064   9.193   1.363  0.6314  0.3061 -0.1068
  891MOL0     C17492   3.112   9.092   1.258  1.0390  0.0510 -0.1910
  891MOL0     C17493   3.258   9.104   1.208 -0.8787 -0.6482  0.1268
  891MOL0     C17494   3.300   9.234   1.137  0.1584 -0.1569  0.6165
  891MOL0     C17495   3.422   9.221   1.052 -0.0918 -0.1412  0.6321
  891MOL0     C17496   3.557   9.191   1.127 -0.1856 -0.4745 -0.3625
  891MOL0     N17497   3.668   9.254   1.049 -0.3671  0.0931  0.4033
  891MOL0     C17498   3.693   9.245   0.916 -0.1254 -0.2610 -0.2148
  891MOL0     C17499   3.808   9.322   0.899  0.2072  0.1453 -0.2518
  891MOL0     C17500   3.868   9.343   0.755 -0.3868 -0.1004  0.5188
  891MOL0     C17501   4.022   9.311   0.750  0.0680  0.7538 -0.3547
  891MOL0     C17502   4.051   9.162   0.810  0.4423 -0.3829  0.5854
  891MOL0     C17503   4.199   9.142   0.831  0.0858 -0.6112 -0.1592
  891MOL0     O17504   4.278   9.190   0.718 -0.8822  0.1242 -0.1263
  891MOL0     C17505   4.412   9.210   0.748 -0.7495  0.0431  0.0661
  891MOL0     C17506   4.483   9.282   0.653  0.3262 -0.2787  1.2177
  891MOL0     C17507   4.620   9.303   0.673 -0.1874 -0.2657  0.4619
  891MOL0     C17508   4.692   9.263   0.785 -0.2437  0.4128 -0.6154
  891MOL0     C17509   4.835   9.273   0.804 -0.3638 -0.5930  0.6379
  891MOL0     O17510   4.893   9.209   0.916  0.6490  0.7739 -0.0078
  891MOL0     C17511   5.003   9.241   0.986 -0.6072  0.0012  0.0590
  891MOL0     C17512   5.071   9.361   0.977  0.2233 -0.0780 -0.1409
  891MOL0     C17513   5.185   9.398   1.051 -0.5250  0.1282 -0.3507
  891MOL0     C17514   5.245   9.296   1.131 -0.4755  0.4157 -0.4439
  891MOL0     O17515   5.359   9.315   1.211  0.1709  0.3474  0.3304
  891MOL0     C17516   5.465   9.386   1.137  0.2035 -0.2390  0.3802
  891MOL0     C17517   5.470   9.533   1.155 -0.5948 -0.3500 -0.2374
  891MOL0     C17518   5.534   9.602   1.033 -0.7465 -0.6167 -0.6621
  891MOL0     C17519   5.679   9.552   1.013 -0.8280 -0.2467 -0.2753
  891MOL0     C17520   5.750   9.646   0.912  0.1928 -0.1615  0.0987
  891MOL0     C17521   5.901   9.643   0.934 -0.5790 -0.9177 -0.4481
  891MOL0     C17522   5.938   9.751   1.034 -0.1252  0.6084 -0.2081
  891MOL0     C17523   6.071   9.726   1.110 -0.5178 -0.8843 -0.5024
  891MOL0    Cl17524   6.214   9.718   1.010  0.0818  0.1372  0.1767
  891MOL0     C17525   5.173   9.171   1.139  0.2327  0.2807 -0.1561
  891MOL0     C17526   5.058   9.137   1.063 -0.1168 -0.0920  0.5051
  891MOL0     O17527   4.901   9.334   0.716 -0.6158  0.3499 -0.2401
  891MOL0     C17528   4.622   9.186   0.883  0.2275  0.3092 -0.0741
  891MOL0     C17529   4.482   9.162   0.855  1.3190  0.5564 -0.0699
  891MOL0     N17530   3.855   9.362   1.027  0.0723  0.5232 -0.0493
  891MOL0     N17531   3.773   9.315   1.110 -0.6641 -0.0342 -0.0255
  891MOL0     C17532   3.070   9.520   1.633 -0.2399  0.3084 -0.2745
  891MOL0     C17533   3.101   9.624   1.732 -0.6382 -0.2239  0.4359
  891MOL0     C17534   3.076   9.947   2.027  0.4069 -0.6950 -0.0557
  891MOL0     C17535   3.070   9.937   2.166  0.6642  0.3905 -0.9602
  891MOL0     C17536   3.087  10.044   2.258 -0.4775  1.3019  0.3914
  891MOL0     C17537   3.118  10.175   2.214  0.8467  0.5745 -0.5494
  891MOL0     O17538   3.152  10.275   2.296  0.2277  0.2827  0.1046
  891MOL0     C17539   3.186  10.238   2.425 -0.5477  0.6800  0.1702
  891MOL0     C17540   3.232  10.365   2.506  0.1656  0.0246 -0.1641
  891MOL0     C17541   3.146  10.483   2.490  0.5805  0.0884  0.5280
  891MOL0     C17542   3.029  10.482   2.588  0.1551 -0.4216 -0.6875
  891MOL0     C17543   2.919  10.402   2.542 -0.0256  1.8769  0.2087
  891MOL0     C17544   2.837  10.315   2.517 -0.2700 -0.2461  0.4659
  891MOL0     C17545   3.125  10.191   2.071 -1.0541 -0.6426  0.6562
  891MOL0     C17546   3.094  10.083   1.982  0.1147  0.4679 -0.3360
  891MOL0     H17547   2.849   9.834   1.645 -1.5753 -0.3807  0.9821
  891MOL0     H17548   2.791   9.653   1.506 -1.1178  1.3504  2.1096
  891MOL0     H17549   2.783   9.297   1.528  0.3406 -1.2957 -0.7302
  891MOL0     H17550   2.937   9.270   1.594 -0.4828 -2.1291 -1.0700
  891MOL0     H17551   2.867   9.234   1.293  1.9208 -1.8565 -1.1049
  891MOL0     H17552   2.872   9.113   1.428 -1.2732  1.1728  1.6888
  891MOL0     H17553   3.113   9.161   1.456 -0.2114 -2.1854 -0.4443
  891MOL0     H17554   3.094   9.294   1.335  0.1853  0.2328 -0.8568
  891MOL0     H17555   3.080   8.997   1.302 -1.0115 -0.3846 -2.3690
  891MOL0     H17556   3.043   9.098   1.172  1.7348 -1.5791 -0.9127
  891MOL0     H17557   3.278   9.017   1.144 -1.5841 -0.3756 -0.4798
  891MOL0     H17558   3.331   9.092   1.289  1.8392 -0.2198 -2.1156
  891MOL0     H17559   3.314   9.307   1.217  4.2327 -0.6683  0.5661
  891MOL0     H17560   3.215   9.254   1.071 -0.3183 -1.2802  0.8610
  891MOL0     H17561   3.402   9.145   0.976  2.0988  0.1350 -0.2860
  891MOL0     H17562   3.421   9.318   1.001  0.4181  0.7824  2.3063
  891MOL0     H17563   3.574   9.085   1.148  0.3542  0.0164  1.9039
  891MOL0     H17564   3.557   9.237   1.226  0.7498 -0.0902 -0.5392
  891MOL0     H17565   3.630   9.214   0.833 -0.2593  2.9939 -1.4669
  891MOL0     H17566   3.856   9.450   0.736  0.8963 -0.1062 -0.4491
  891MOL0     H17567   3.817   9.292   0.673  1.6909  0.2373 -1.0685
  891MOL0     H17568   4.067   9.389   0.811  0.2892  0.2003  0.2050
  891MOL0     H17569   4.061   9.316   0.648  1.2317  0.2529  0.0464
  891MOL0     H17570   4.000   9.148   0.905 -1.1003 -1.5744 -0.3612
  891MOL0     H17571   4.009   9.087   0.742 -2.7699  0.1451  1.8001
  891MOL0     H17572   4.218   9.037   0.854  4.2601  0.3549  1.6691
  891MOL0     H17573   4.222   9.196   0.923  1.0651 -1.2439 -0.0259
  891MOL0     H17574   4.438   9.324   0.564 -0.8833  3.2421  3.2878
  891MOL0     H17575   4.667   9.377   0.608  1.2837 -0.1845  1.5586
  891MOL0     H17576   5.030   9.437   0.911 -2.6274 -0.5777  0.9188
  891MOL0     H17577   5.221   9.500   1.051  0.3262 -0.1612  0.7586
  891MOL0     H17578   5.472   9.358   1.032  1.4655 -0.5553  0.5247
  891MOL0     H17579   5.559   9.342   1.172 -0.0310 -2.0563 -1.1287
  891MOL0     H17580   5.536   9.558   1.239  2.4136 -3.2370 -1.4903
  891MOL0     H17581   5.369   9.565   1.179 -0.4099 -0.0774  0.1837
  891MOL0     H17582   5.524   9.710   1.037 -1.4826 -0.6936 -0.2810
  891MOL0     H17583   5.479   9.576   0.942 -2.0765  0.5268 -0.2086
  891MOL0     H17584   5.737   9.558   1.106  1.0317 -3.1863 -1.1301
  891MOL0     H17585   5.689   9.450   0.976  0.7303 -1.2864  2.7251
  891MOL0     H17586   5.715   9.749   0.915 -0.2908 -0.3381  0.8970
  891MOL0     H17587   5.723   9.610   0.813 -1.1790 -1.1096  0.7756
  891MOL0     H17588   5.948   9.665   0.837  1.6350 -0.0278  0.7502
  891MOL0     H17589   5.944   9.544   0.951 -0.8880 -1.0389 -0.3791
  891MOL0     H17590   5.935   9.844   0.977  3.4820 -0.2926 -2.1915
  891MOL0     H17591   5.862   9.762   1.112  0.7413 -0.2977  0.7890
  891MOL0     H17592   6.069   9.632   1.166 -0.6877 -1.1435 -0.9433
  891MOL0     H17593   6.093   9.808   1.180 -0.0100 -1.1508 -0.3420
  891MOL0     H17594   5.206   9.100   1.214 -3.0411  0.1455  1.3031
  891MOL0     H17595   5.018   9.037   1.075  3.9759 -2.0165  0.0380
  891MOL0     H17596   4.674   9.144   0.969  2.5213  3.1443  0.0690
  891MOL0     H17597   4.432   9.101   0.930  4.9135 -0.3216  1.8606
  891MOL0     H17598   3.134   9.433   1.628 -0.4437  0.1586 -0.2789
  891MOL0     H17599   3.198   9.613   1.780 -1.0980 -0.8551  1.2518
  891MOL0     H17600   3.044   9.838   2.203  1.0956  0.1830 -1.2054
  891MOL0     H17601   3.089  10.030   2.365  1.3192  0.9773  0.3578
  891MOL0     H17602   3.265  10.163   2.416  0.9485  2.2679 -0.5985
  891MOL0     H17603   3.107  10.188   2.482  1.0475 -1.2196  0.8170
  891MOL0     H17604   3.232  10.329   2.609 -0.0203 -1.8618 -0.7990
  891MOL0     H17605   3.337  10.379   2.475 -0.1094 -1.5025 -1.9517
  891MOL0     H17606   3.117  10.508   2.387  0.4831 -0.5528  0.3964
  891MOL0     H17607   3.202  10.570   2.525  3.7424 -1.2174 -0.8853
  891MOL0     H17608   3.064  10.446   2.685  2.2846 -1.8933 -1.9185
  891MOL0     H17609   2.991  10.583   2.606 -2.1859 -0.7582 -3.0943
  891MOL0     H17610   2.751  10.262   2.480  0.9149 -0.9695 -1.4417
  891MOL0     H17611   3.142  10.291   2.031 -2.7679 -0.6165 -0.1007
  891MOL0     H17612   3.087  10.111   1.877 -3.2820  1.5537  0.0586
  892MOL0     O17613   0.927   8.980  10.945 -1.0026  0.5183  0.5869
  892MOL0     C17614   0.890   8.861  10.954 -0.3100  0.2015 -0.8937
  892MOL0     O17615   0.764   8.814  10.951 -0.4588  0.0412 -0.9825
  892MOL0     C17616   0.649   8.894  10.936  0.7290  0.3750  1.1358
  892MOL0     C17617   0.531   8.820  10.913  0.7320 -0.2070  0.8027
  892MOL0     C17618   0.404   8.881  10.897 -0.1672  0.2374 -0.2003
  892MOL0     C17619   0.394   9.018  10.899 -0.4435  0.2851 -1.3258
  892MOL0     O17620   0.271   9.076  10.888  0.1205  1.0657 -0.2295
  892MOL0     C17621   0.210   9.090  11.016 -0.7261  0.7231  0.7788
  892MOL0     C17622   0.120   9.210  10.997  0.1939 -0.1557 -0.8439
  892MOL0     C17623   0.031   9.230  11.123  0.0464  0.1062 -0.3152
  892MOL0     C17624   0.100   9.221  11.259  1.0345 -0.0065 -0.0017
  892MOL0     C17625   0.006   9.232  11.380  0.3377 -0.9395  0.1508
  892MOL0     C17626   0.085   9.258  11.517  0.9072 -0.5209 -0.6323
  892MOL0     C17627   0.014   9.199  11.646 -0.1405  0.4369 -0.0410
  892MOL0     C17628  -0.144   9.213  11.642 -1.0173 -0.5086 -0.5003
  892MOL0     N17629  -0.196   9.187  11.777  0.2019  0.4175 -0.3702
  892MOL0     C17630  -0.198   9.056  11.829 -0.2669  0.7992  0.1174
  892MOL0     C17631  -0.262   9.076  11.950 -0.4672 -0.0274 -0.6875
  892MOL0     C17632  -0.299   8.972  12.045 -0.1406 -0.6633 -0.5672
  892MOL0     C17633  -0.198   8.882  12.103 -0.0594  0.1838 -0.6269
  892MOL0     C17634  -0.100   8.967  12.178  0.4512 -0.1218 -1.0846
  892MOL0     C17635  -0.004   8.882  12.262 -0.4324 -0.0331 -0.9364
  892MOL0     O17636   0.068   8.812  12.164 -1.0826 -0.3989  0.7173
  892MOL0     C17637   0.206   8.776  12.170 -0.5766  0.5590 -0.0465
  892MOL0     C17638   0.251   8.688  12.074 -0.8322  0.1931 -0.0901
  892MOL0     C17639   0.385   8.646  12.086  0.4949 -0.0778  0.3218
  892MOL0     C17640   0.470   8.680  12.190 -0.2074 -0.5972  0.2974
  892MOL0     C17641   0.606   8.621  12.200  1.3038  0.2492  0.4157
  892MOL0     O17642   0.660   8.583  12.084 -0.5324 -0.4326  0.5495
  892MOL0     C17643   0.789   8.543  12.080 -0.3571 -0.0375 -0.0600
  892MOL0     C17644   0.825   8.406  12.068  0.9856 -0.8098  0.1255
  892MOL0     C17645   0.956   8.363  12.059  0.7797  0.5275  0.9344
  892MOL0     C17646   1.066   8.447  12.070  0.4170 -0.6737  0.3799
  892MOL0     O17647   1.190   8.398  12.078 -0.4411 -0.4368  0.7347
  892MOL0     C17648   1.290   8.474  12.002  1.3086 -0.5302  1.0630
  892MOL0     C17649   1.416   8.382  11.989  0.2358 -0.1451  0.2572
  892MOL0     C17650   1.534   8.457  11.932 -0.5383 -0.1884  0.0822
  892MOL0     C17651   1.652   8.360  11.926 -0.2331  0.9116 -0.0805
  892MOL0     C17652   1.780   8.417  11.858  0.4666 -0.0833 -0.0286
  892MOL0     C17653   1.897   8.318  11.873  1.6432  0.9261 -0.4251
  892MOL0     C17654   2.018   8.373  11.805  0.3051 -0.2570  0.3412
  892MOL0     C17655   2.140   8.306  11.848  0.2687  0.4323 -0.3016
  892MOL0    Cl17656   2.262   8.331  11.727  0.1559  0.4406 -0.0206
  892MOL0     C17657   1.041   8.584  12.095 -0.0977 -0.6004 -0.2838
  892MOL0     C17658   0.904   8.627  12.092  0.7447 -0.3872  0.0643
  892MOL0     O17659   0.655   8.597  12.305 -0.5392 -0.8335 -0.1500
  892MOL0     C17660   0.423   8.759  12.294  0.1064  0.7881  0.3687
  892MOL0     C17661   0.290   8.808  12.274 -0.7265 -0.3347  0.5323
  892MOL0     N17662  -0.317   9.204  11.960  0.6617 -0.5907 -0.0399
  892MOL0     N17663  -0.262   9.270  11.860  0.7936  0.7400  0.2393
  892MOL0     C17664   0.504   9.096  10.929 -1.4840 -0.0628  1.1189
  892MOL0     C17665   0.639   9.035  10.941  1.2755 -0.2842 -0.8556
  892MOL0     C17666   0.995   8.762  10.980 -1.1457 -0.5186  0.0746
  892MOL0     C17667   1.135   8.807  10.966 -0.6696  0.1466  0.5013
  892MOL0     C17668   1.234   8.731  11.021 -0.2787  0.6357  0.3153
  892MOL0     C17669   1.202   8.607  11.069 -0.4418 -0.1040  1.2648
  892MOL0     O17670   1.290   8.518  11.117 -0.4153 -0.3774  0.0359
  892MOL0     C17671   1.438   8.529  11.106 -0.0180 -0.2174 -0.1006
  892MOL0     C17672   1.492   8.434  10.998 -0.3758  0.4383  0.3113
  892MOL0     C17673   1.638   8.460  10.975 -0.8798  0.4392 -0.3425
  892MOL0     C17674   1.692   8.375  10.854 -1.0797 -0.5924 -0.0488
  892MOL0     C17675   1.843   8.380  10.845 -0.5314  0.7560  0.7706
  892MOL0     C17676   1.961   8.380  10.822  0.5740 -0.2423  0.2013
  892MOL0     C17677   1.074   8.566  11.073 -0.3561  0.9872  0.3329
  892MOL0     C17678   0.966   8.645  11.037 -0.1793  0.7996  0.1782
  892MOL0     H17679   0.535   8.713  10.899  1.3409 -0.1997  0.9251
  892MOL0     H17680   0.328   8.803  10.888  0.1436 -0.3003  1.4441
  892MOL0     H17681   0.290   9.117  11.086  0.3801  1.0302 -0.5541
  892MOL0     H17682   0.156   9.000  11.045 -0.3355  0.4367  0.6338
  892MOL0     H17683   0.049   9.194  10.915 -1.4192 -0.7029  0.6184
  892MOL0     H17684   0.179   9.299  10.975  0.5175  0.1405  1.1088
  892MOL0     H17685  -0.049   9.155  11.130  1.2070 -1.1380 -0.1530
  892MOL0     H17686  -0.021   9.326  11.116  0.8972  0.6072  0.1666
  892MOL0     H17687   0.169   9.137  11.272  4.7053  2.8487  0.6910
  892MOL0     H17688   0.174   9.299  11.274  0.8219  0.0891  0.5632
  892MOL0     H17689  -0.049   9.137  11.383 -0.2453 -0.5828  1.5200
  892MOL0     H17690  -0.060   9.315  11.354  3.5928  2.3253  1.5327
  892MOL0     H17691   0.106   9.365  11.522 -0.9750 -0.1728  2.2497
  892MOL0     H17692   0.179   9.201  11.511  1.0145 -0.8750  2.6179
  892MOL0     H17693   0.040   9.093  11.644 -0.5568  0.2485  2.3554
  892MOL0     H17694   0.068   9.229  11.736  0.3176 -3.3707  1.0960
  892MOL0     H17695  -0.203   9.152  11.573 -0.8883  1.8801 -2.8969
  892MOL0     H17696  -0.159   9.315  11.605  2.1273 -0.8229 -3.0649
  892MOL0     H17697  -0.144   8.968  11.795 -0.3547  1.5186 -2.0024
  892MOL0     H17698  -0.358   8.896  11.993 -0.8427  0.3262 -1.2239
  892MOL0     H17699  -0.354   9.009  12.131 -0.0172 -2.2175  0.2287
  892MOL0     H17700  -0.145   8.838  12.018 -0.1070  3.0617 -2.2767
  892MOL0     H17701  -0.235   8.794  12.156 -0.4601  0.5483 -0.2989
  892MOL0     H17702  -0.048   9.031  12.106 -2.5222  4.1335  0.1061
  892MOL0     H17703  -0.163   9.036  12.236 -0.7734 -1.3828 -0.8454
  892MOL0     H17704  -0.052   8.814  12.333  0.3167 -1.2384 -1.5570
  892MOL0     H17705   0.072   8.948  12.306 -0.1571 -0.2008 -1.1524
  892MOL0     H17706   0.181   8.653  11.999 -3.3745  3.0640  0.7606
  892MOL0     H17707   0.420   8.574  12.013 -0.2614  0.4480 -0.5730
  892MOL0     H17708   0.736   8.343  12.069 -2.1575  3.1856 -1.2623
  892MOL0     H17709   0.967   8.256  12.045 -0.9548  0.4478 -0.1025
  892MOL0     H17710   1.334   8.551  12.067  3.4957 -0.7834 -0.0287
  892MOL0     H17711   1.254   8.507  11.904  0.1306 -1.2330  1.2422
  892MOL0     H17712   1.396   8.287  11.939 -0.6942  1.3651 -2.4497
  892MOL0     H17713   1.446   8.352  12.090  2.2794 -1.1609 -0.5978
  892MOL0     H17714   1.562   8.547  11.987 -2.3004  0.7362 -0.4550
  892MOL0     H17715   1.519   8.483  11.827  1.9402  0.2724 -0.2082
  892MOL0     H17716   1.673   8.322  12.027 -2.8803 -0.6813 -0.0167
  892MOL0     H17717   1.627   8.274  11.863  1.2214 -1.1217  1.9456
  892MOL0     H17718   1.802   8.520  11.887 -4.3763  1.4718 -0.9488
  892MOL0     H17719   1.747   8.437  11.756  0.0533  0.9644  0.2976
  892MOL0     H17720   1.868   8.222  11.829 -0.1677  0.0651  2.4016
  892MOL0     H17721   1.918   8.303  11.979  0.4236  1.4749 -0.0877
  892MOL0     H17722   2.002   8.362  11.697 -3.2240 -1.4831  0.8506
  892MOL0     H17723   2.028   8.481  11.818  2.3809 -0.2307 -0.9601
  892MOL0     H17724   2.135   8.198  11.856  0.3153  0.3768 -0.9542
  892MOL0     H17725   2.162   8.347  11.947  0.9193  0.4169 -0.4312
  892MOL0     H17726   1.114   8.665  12.097 -2.7015  2.0433 -2.7401
  892MOL0     H17727   0.895   8.735  12.096  0.6228 -0.3184 -1.4778
  892MOL0     H17728   0.487   8.783  12.378  2.8944 -3.9172 -0.0996
  892MOL0     H17729   0.248   8.870  12.352  0.7313 -1.2039  2.0583
  892MOL0     H17730   0.483   9.203  10.928 -2.2108 -0.1981  0.0964
  892MOL0     H17731   0.726   9.094  10.967 -0.1526  1.0395  1.1895
  892MOL0     H17732   1.165   8.904  10.927  0.3755 -0.4152 -0.1501
  892MOL0     H17733   1.338   8.762  11.015  0.2392 -0.3948  2.6634
  892MOL0     H17734   1.479   8.518  11.207 -0.0683  0.2270 -0.0288
  892MOL0     H17735   1.460   8.634  11.083 -2.1810  0.2862 -0.1228
  892MOL0     H17736   1.469   8.332  11.030  1.5345  0.1884  0.9805
  892MOL0     H17737   1.444   8.467  10.906  3.0637  0.4016 -1.6618
  892MOL0     H17738   1.693   8.420  11.060 -2.6310 -0.9850  0.2098
  892MOL0     H17739   1.662   8.565  10.960  0.5286  0.2754  0.6429
  892MOL0     H17740   1.665   8.269  10.863  2.5836 -1.6580  0.2993
  892MOL0     H17741   1.649   8.414  10.761  0.0301  2.3909  0.5959
  892MOL0     H17742   2.067   8.378  10.804  0.7688  1.4569  1.0121
  892MOL0     H17743   1.042   8.467  11.105 -1.9636  1.1404 -0.6432
  892MOL0     H17744   0.864   8.614  11.061 -0.1502  2.3305  2.5871
  893MOL0     O17745   4.939  11.225   0.053  0.0160  0.6624  0.0854
  893MOL0     C17746   4.890  11.325  -0.004 -0.1593 -0.1669  0.6588
  893MOL0     O17747   4.755  11.348  -0.022 -0.0980 -0.6038 -0.0998
  893MOL0     C17748   4.663  11.250   0.013 -0.3373  0.5130 -0.5133
  893MOL0     C17749   4.615  11.175  -0.094  0.5419 -0.3674  0.6737
  893MOL0     C17750   4.520  11.071  -0.075 -1.0853  0.0931  0.1611
  893MOL0     C17751   4.480  11.035   0.060  0.1011  0.3668 -0.1674
  893MOL0     O17752   4.381  10.942   0.069 -0.0785 -0.4494  0.1522
  893MOL0     C17753   4.413  10.834   0.155  0.4397 -0.1173 -0.6136
  893MOL0     C17754   4.315  10.719   0.145 -0.6032  0.3331  0.3017
  893MOL0     C17755   4.339  10.631   0.020 -0.4156 -0.9012  0.0972
  893MOL0     C17756   4.220  10.526   0.009  0.8469 -0.5814 -0.5767
  893MOL0     C17757   4.219  10.437  -0.114 -0.1276 -0.7956  0.1866
  893MOL0     C17758   4.093  10.340  -0.123  0.3390  1.4704 -0.2960
  893MOL0     C17759   4.107  10.234  -0.233 -1.2489 -1.5160  0.1625
  893MOL0     C17760   4.195  10.122  -0.183  0.0592  0.4109  0.8112
  893MOL0     N17761   4.182  10.008  -0.278 -0.6741  0.1506  0.0089
  893MOL0     C17762   4.098   9.896  -0.266  0.2320 -0.4148 -0.7207
  893MOL0     C17763   4.088   9.838  -0.386  0.3520 -1.2532  0.9574
  893MOL0     C17764   4.016   9.708  -0.405  0.3686 -0.9788 -0.5307
  893MOL0     C17765   3.861   9.721  -0.399  0.6306  0.0946 -0.1633
  893MOL0     C17766   3.800   9.844  -0.456  0.5490 -0.1749  0.3941
  893MOL0     C17767   3.813   9.851  -0.608  0.7421 -1.0167  0.4835
  893MOL0     O17768   3.757   9.981  -0.659  0.0810 -0.1842  0.2418
  893MOL0     C17769   3.824  10.094  -0.615 -0.4909 -1.4069  0.2369
  893MOL0     C17770   3.749  10.211  -0.610  0.6023 -0.7344 -0.5917
  893MOL0     C17771   3.818  10.329  -0.595  0.9190 -0.3842 -0.4297
  893MOL0     C17772   3.950  10.334  -0.558 -0.5319  0.8155  0.0205
  893MOL0     C17773   4.009  10.464  -0.528 -0.3954 -0.8041 -0.0001
  893MOL0     O17774   3.917  10.558  -0.493  0.1979 -0.7862  0.6643
  893MOL0     C17775   3.971  10.690  -0.499 -0.3224 -0.4449 -1.0167
  893MOL0     C17776   3.925  10.772  -0.603 -1.0985 -0.4190  0.3013
  893MOL0     C17777   3.964  10.904  -0.609 -0.2642 -0.9844 -0.7702
  893MOL0     C17778   4.049  10.958  -0.509 -0.4808  0.4159 -0.2056
  893MOL0     O17779   4.094  11.084  -0.533  0.5566  0.2800  0.5789
  893MOL0     C17780   4.197  11.137  -0.450 -0.3950  0.7450  0.2270
  893MOL0     C17781   4.219  11.289  -0.498  0.4265  0.0381 -0.3638
  893MOL0     C17782   4.304  11.358  -0.389  0.6894 -0.3920  0.6643
  893MOL0     C17783   4.274  11.511  -0.392  0.3924  0.6692  0.8111
  893MOL0     C17784   4.379  11.594  -0.321 -0.0489  1.0725  0.2588
  893MOL0     C17785   4.362  11.742  -0.361  0.7296 -0.0232 -0.8994
  893MOL0     C17786   4.425  11.844  -0.270 -0.1651 -0.6477 -0.8760
  893MOL0     C17787   4.573  11.858  -0.289  0.2092  0.8692  1.4762
  893MOL0    Cl17788   4.614  12.030  -0.253 -0.1329  0.1435 -0.7810
  893MOL0     C17789   4.081  10.880  -0.399  0.5694 -0.5680 -0.4226
  893MOL0     C17790   4.047  10.755  -0.393  0.0596  1.3081  0.0258
  893MOL0     O17791   4.135  10.482  -0.503 -0.0726  0.1102  0.4273
  893MOL0     C17792   4.030  10.221  -0.573 -1.0550  0.0344  0.6250
  893MOL0     C17793   3.967  10.092  -0.607 -0.8772 -0.0878  0.4480
  893MOL0     N17794   4.177   9.898  -0.466 -0.0361  0.1709 -0.0929
  893MOL0     N17795   4.236   9.997  -0.405  0.5080 -0.3720 -0.0196
  893MOL0     C17796   4.536  11.104   0.170 -0.8323  0.1808 -0.0928
  893MOL0     C17797   4.623  11.213   0.147  0.0483 -0.5380  0.0749
  893MOL0     C17798   4.993  11.419  -0.058 -0.0386 -0.3219 -0.1637
  893MOL0     C17799   4.955  11.543  -0.119  0.6779  0.3979  0.4371
  893MOL0     C17800   5.056  11.617  -0.190 -0.0863 -0.7351  0.1090
  893MOL0     C17801   5.191  11.574  -0.199  0.9529  0.5895  0.6274
  893MOL0     O17802   5.272  11.657  -0.266 -0.3357  0.0244 -0.3183
  893MOL0     C17803   5.423  11.644  -0.251  0.3491 -0.6563 -0.2975
  893MOL0     C17804   5.471  11.701  -0.117  0.8618 -0.3348 -0.8534
  893MOL0     C17805   5.613  11.712  -0.090  0.1465  0.6594 -0.0852
  893MOL0     C17806   5.689  11.824  -0.170 -0.4918 -0.6730 -0.0331
  893MOL0     C17807   5.835  11.813  -0.162  0.0515  0.3224 -0.2709
  893MOL0     C17808   5.954  11.796  -0.152  0.0976  0.8998 -0.1319
  893MOL0     C17809   5.227  11.461  -0.124 -0.8668 -0.6035 -0.1894
  893MOL0     C17810   5.125  11.387  -0.056 -0.1757  0.4387 -0.2716
  893MOL0     H17811   4.648  11.191  -0.197 -0.1995 -1.5034  0.2463
  893MOL0     H17812   4.472  11.007  -0.149 -0.7976  1.7024 -1.5096
  893MOL0     H17813   4.401  10.870   0.258 -0.1999 -5.0625  1.2910
  893MOL0     H17814   4.511  10.787   0.142  0.0639 -1.0617 -0.0799
  893MOL0     H17815   4.209  10.749   0.151 -1.3498 -2.3534  5.1786
  893MOL0     H17816   4.339  10.660   0.233 -0.2878  0.5527  0.3659
  893MOL0     H17817   4.438  10.584   0.025  1.1485  0.8631 -5.7251
  893MOL0     H17818   4.346  10.689  -0.073  1.1268 -1.7141 -0.3227
  893MOL0     H17819   4.236  10.460   0.094  0.7113  0.6657  0.4467
  893MOL0     H17820   4.126  10.582   0.015  1.7487  0.8858  0.4210
  893MOL0     H17821   4.314  10.382  -0.114  0.7901  0.7428  0.0088
  893MOL0     H17822   4.215  10.496  -0.206 -2.0416 -1.6263 -0.3151
  893MOL0     H17823   4.001  10.394  -0.145 -1.1978 -1.2963 -1.1499
  893MOL0     H17824   4.083  10.299  -0.022  1.7225 -0.3640 -0.8497
  893MOL0     H17825   4.006  10.201  -0.262 -2.1523  0.1894  1.2347
  893MOL0     H17826   4.150  10.279  -0.323 -0.2570 -0.8521  0.9458
  893MOL0     H17827   4.173  10.103  -0.078  2.6298 -0.1216  1.3205
  893MOL0     H17828   4.298  10.157  -0.191  0.4217 -0.7521  0.1378
  893MOL0     H17829   4.052   9.873  -0.171 -3.1254  1.9526 -1.5930
  893MOL0     H17830   4.051   9.639  -0.327  1.0188 -0.9419 -0.7830
  893MOL0     H17831   4.061   9.679  -0.500  2.7087 -1.2688  0.5893
  893MOL0     H17832   3.834   9.717  -0.293  0.7020  3.2029  0.0648
  893MOL0     H17833   3.817   9.638  -0.454 -1.8626  2.9002 -2.8182
  893MOL0     H17834   3.692   9.847  -0.438 -0.1729  2.0607 -3.2753
  893MOL0     H17835   3.838   9.933  -0.406 -1.5544  1.7764 -1.2315
  893MOL0     H17836   3.754   9.774  -0.659  2.5036 -0.8868 -1.9405
  893MOL0     H17837   3.915   9.826  -0.639  0.6141  0.0257 -0.8865
  893MOL0     H17838   3.642  10.209  -0.631 -0.2930  2.7018  2.5734
  893MOL0     H17839   3.754  10.417  -0.594  2.1493  0.5474 -1.0754
  893MOL0     H17840   3.857  10.731  -0.677 -0.4693 -0.2019 -0.4118
  893MOL0     H17841   3.955  10.972  -0.692  0.8520  1.0876  0.7117
  893MOL0     H17842   4.291  11.083  -0.462 -0.9223 -0.1148 -0.1735
  893MOL0     H17843   4.159  11.134  -0.348 -0.4342  2.9311  0.3203
  893MOL0     H17844   4.126  11.345  -0.504 -2.7940 -4.6830  0.0517
  893MOL0     H17845   4.271  11.287  -0.594 -0.5031  0.6553 -0.8989
  893MOL0     H17846   4.407  11.323  -0.402 -0.2541 -3.2865  0.1433
  893MOL0     H17847   4.271  11.328  -0.289 -1.2341  2.1536  0.9018
  893MOL0     H17848   4.274  11.550  -0.495 -1.2637 -1.9083 -0.2624
  893MOL0     H17849   4.179  11.545  -0.349 -1.1515  1.2013 -2.6505
  893MOL0     H17850   4.479  11.562  -0.352  1.5182  4.2137  1.6000
  893MOL0     H17851   4.356  11.580  -0.215 -3.5058 -3.1195 -0.7382
  893MOL0     H17852   4.254  11.761  -0.366  0.7073 -0.3725 -1.8796
  893MOL0     H17853   4.396  11.766  -0.462  1.9900 -0.0973 -0.4977
  893MOL0     H17854   4.386  11.942  -0.299  0.7609  0.0990  0.3114
  893MOL0     H17855   4.409  11.832  -0.163  3.4686  4.0493  0.5232
  893MOL0     H17856   4.589  11.840  -0.396 -1.8257 -0.4232  1.3222
  893MOL0     H17857   4.622  11.779  -0.232 -2.1355  1.1449  4.1010
  893MOL0     H17858   4.144  10.923  -0.322 -2.3015  0.9798  1.2245
  893MOL0     H17859   4.073  10.694  -0.307 -0.6221 -1.0315 -1.3457
  893MOL0     H17860   4.131  10.235  -0.536 -1.4926  0.2961  1.7831
  893MOL0     H17861   4.025  10.000  -0.611  1.7193  1.1392  4.4363
  893MOL0     H17862   4.504  11.073   0.269 -0.2041  0.7663  0.3041
  893MOL0     H17863   4.647  11.275   0.233  0.6930 -1.6566  0.7249
  893MOL0     H17864   4.855  11.583  -0.126 -0.8833 -3.2579 -0.7153
  893MOL0     H17865   5.037  11.711  -0.241  1.6612 -0.2672  0.2662
  893MOL0     H17866   5.462  11.711  -0.328  0.1983  0.7097  0.7764
  893MOL0     H17867   5.463  11.542  -0.257 -1.4102 -1.6026  2.1682
  893MOL0     H17868   5.424  11.800  -0.118  0.2984 -0.6043 -1.5010
  893MOL0     H17869   5.418  11.640  -0.043 -3.1561  1.3493 -2.0835
  893MOL0     H17870   5.660  11.617  -0.117  1.3157  0.4680  2.3156
  893MOL0     H17871   5.627  11.719   0.018  2.9970  0.5497 -0.3587
  893MOL0     H17872   5.665  11.801  -0.274  2.8720 -4.6791 -0.1752
  893MOL0     H17873   5.662  11.928  -0.149  0.2626 -0.2971 -0.8887
  893MOL0     H17874   6.059  11.778  -0.143  0.0739  0.6642 -0.3289
  893MOL0     H17875   5.328  11.422  -0.135 -0.3032  0.3802  1.2763
  893MOL0     H17876   5.158  11.296  -0.008  0.4398  1.9250  2.2865
  894MOL0     O17877  10.220   1.961   4.530 -0.0566 -0.2387  0.0228
  894MOL0     C17878  10.126   1.903   4.472 -0.6714 -0.1662 -0.2087
  894MOL0     O17879  10.140   1.789   4.394  0.2058 -0.4638  0.2356
  894MOL0     C17880  10.262   1.725   4.377 -0.8705  1.1119 -0.6817
  894MOL0     C17881  10.382   1.794   4.334 -0.0706  0.0337 -0.1644
  894MOL0     C17882  10.501   1.721   4.329 -0.1197  0.3919 -0.1554
  894MOL0     C17883  10.509   1.587   4.369 -0.2591  0.8317  0.1488
  894MOL0     O17884  10.627   1.511   4.352 -0.5460 -0.5900  0.0761
  894MOL0     C17885  10.715   1.568   4.258  0.0860 -0.3597 -0.8938
  894MOL0     C17886  10.839   1.481   4.255  0.4341  0.0228  0.0425
  894MOL0     C17887  10.938   1.530   4.155 -0.2707 -0.0163 -0.5851
  894MOL0     C17888  11.068   1.447   4.150  0.8323  0.1168  0.3593
  894MOL0     C17889  11.040   1.320   4.069 -0.1859  0.4912 -0.5207
  894MOL0     C17890  11.158   1.226   4.073  0.2010  1.0097  0.6371
  894MOL0     C17891  11.144   1.091   3.999  0.5596  0.3671  0.2644
  894MOL0     C17892  11.083   0.963   4.056  0.3765 -0.7560 -0.1648
  894MOL0     N17893  10.942   0.986   4.091 -1.3557  0.2716 -0.6571
  894MOL0     C17894  10.898   1.014   4.219  0.4832  0.6313  0.1044
  894MOL0     C17895  10.764   1.014   4.215 -0.2559  0.4560 -0.7574
  894MOL0     C17896  10.674   1.059   4.336 -1.0664  0.0449 -1.0073
  894MOL0     C17897  10.526   1.051   4.299 -0.4871  0.3954 -0.2776
  894MOL0     C17898  10.435   1.115   4.395 -0.2935 -0.5640  0.5196
  894MOL0     C17899  10.286   1.108   4.361  0.6635  0.5145  0.7840
  894MOL0     O17900  10.210   1.214   4.437 -0.1948  0.1160  0.3472
  894MOL0     C17901  10.071   1.205   4.448 -0.3476 -0.5534  0.1676
  894MOL0     C17902   9.986   1.128   4.367  0.3325  0.0539  0.0062
  894MOL0     C17903   9.849   1.142   4.387 -0.4946  0.2696  0.6073
  894MOL0     C17904   9.795   1.220   4.488  0.3889 -0.3201 -0.4005
  894MOL0     C17905   9.644   1.236   4.507 -0.0772 -0.0910 -0.3911
  894MOL0     O17906   9.579   1.256   4.388  0.7113 -0.2404 -1.1228
  894MOL0     C17907   9.447   1.230   4.389  0.1095  0.2357  0.3654
  894MOL0     C17908   9.411   1.088   4.409 -0.6051 -0.6961  0.0624
  894MOL0     C17909   9.278   1.050   4.428  0.1851 -0.9961 -0.2096
  894MOL0     C17910   9.178   1.151   4.414 -0.5533 -0.2880 -0.5306
  894MOL0     O17911   9.052   1.107   4.435  0.1645  0.4576  0.0651
  894MOL0     C17912   8.965   1.190   4.514 -0.5587 -1.0732  0.1451
  894MOL0     C17913   8.863   1.266   4.435  0.3659 -0.1278 -0.9972
  894MOL0     C17914   8.732   1.182   4.397 -1.2618  0.5294  0.0723
  894MOL0     C17915   8.615   1.254   4.337 -0.6215 -0.8844 -0.0214
  894MOL0     C17916   8.510   1.162   4.282  0.0938 -0.7851  0.8252
  894MOL0     C17917   8.423   1.090   4.385 -0.0458  0.5315 -0.6682
  894MOL0     C17918   8.306   1.024   4.309  0.0156  0.3460  0.4831
  894MOL0     C17919   8.204   0.953   4.403  0.2312  0.4612  0.0301
  894MOL0    Cl17920   8.085   0.870   4.305  0.2000 -0.1851 -0.1396
  894MOL0     C17921   9.217   1.285   4.382  0.6047  0.2080 -0.7969
  894MOL0     C17922   9.351   1.328   4.374 -0.1531 -0.6476  0.8534
  894MOL0     O17923   9.589   1.248   4.618  0.2828  0.2801 -0.0142
  894MOL0     C17924   9.885   1.287   4.579 -0.6369 -0.0000  0.2529
  894MOL0     C17925  10.025   1.278   4.558  0.0545  0.3900 -0.0070
  894MOL0     N17926  10.729   0.968   4.085 -0.3848  0.6792 -0.9688
  894MOL0     N17927  10.838   0.950   4.020  0.1309  1.2555  0.9974
  894MOL0     C17928  10.396   1.519   4.406 -0.3912  0.2133 -0.1095
  894MOL0     C17929  10.271   1.584   4.404 -0.2837  0.1948 -0.1881
  894MOL0     C17930   9.994   1.974   4.473 -0.0681  1.3467 -0.3119
  894MOL0     C17931   9.979   2.097   4.538  1.0350 -0.5178 -0.1195
  894MOL0     C17932   9.861   2.168   4.540 -1.2945  0.2643 -0.4845
  894MOL0     C17933   9.749   2.107   4.488 -0.2760  0.0441  0.3650
  894MOL0     O17934   9.625   2.153   4.505 -0.9119 -0.1234 -0.3217
  894MOL0     C17935   9.606   2.298   4.493  0.1823  0.1036 -0.5161
  894MOL0     C17936   9.459   2.332   4.492 -0.7519  0.3545  0.7224
  894MOL0     C17937   9.437   2.477   4.440  0.4879 -0.0334  0.2220
  894MOL0     C17938   9.283   2.504   4.433  0.5731 -0.1252 -0.2768
  894MOL0     C17939   9.235   2.510   4.294 -0.2205 -0.3207  0.3696
  894MOL0     C17940   9.210   2.505   4.179  0.5191  0.9203 -0.8638
  894MOL0     C17941   9.757   1.985   4.419 -0.3573 -0.9481  0.0523
  894MOL0     C17942   9.878   1.914   4.431 -0.3122 -0.6828  0.0892
  894MOL0     H17943  10.375   1.900   4.311 -2.2040 -0.1853 -0.7471
  894MOL0     H17944  10.592   1.775   4.308  1.5867 -2.7453 -1.5705
  894MOL0     H17945  10.758   1.663   4.291 -2.1409  0.3443  0.1948
  894MOL0     H17946  10.669   1.570   4.159  0.7370 -3.1245 -1.3332
  894MOL0     H17947  10.802   1.386   4.217  3.0863 -0.1141 -2.5725
  894MOL0     H17948  10.892   1.476   4.351  1.1186  1.2319 -0.2459
  894MOL0     H17949  10.974   1.630   4.180  1.6925 -0.7351 -0.3562
  894MOL0     H17950  10.901   1.523   4.052  3.8402 -2.3593 -2.1269
  894MOL0     H17951  11.141   1.511   4.101  0.8374  0.3475  0.6640
  894MOL0     H17952  11.116   1.413   4.242  2.5957 -0.0942 -0.5927
  894MOL0     H17953  11.011   1.348   3.967 -2.9417  4.2181  1.0241
  894MOL0     H17954  10.950   1.270   4.105 -0.8230  1.2475 -1.0109
  894MOL0     H17955  11.175   1.192   4.176 -1.5132 -4.0646 -0.4542
  894MOL0     H17956  11.242   1.264   4.015  0.2376  0.7291  0.5027
  894MOL0     H17957  11.099   1.107   3.901  0.0470  1.1041  0.6171
  894MOL0     H17958  11.248   1.061   3.981  0.8470  0.6559  1.3700
  894MOL0     H17959  11.142   0.937   4.144 -0.5510  2.4231  1.5608
  894MOL0     H17960  11.099   0.891   3.976  0.9405  0.8982 -1.6018
  894MOL0     H17961  10.970   1.037   4.296  0.8514 -0.8809  0.2470
  894MOL0     H17962  10.710   1.161   4.351  0.1300 -0.3245 -1.2481
  894MOL0     H17963  10.686   0.994   4.424 -3.2353 -0.6456 -1.1787
  894MOL0     H17964  10.510   0.943   4.306  5.9949 -0.9396 -0.0735
  894MOL0     H17965  10.498   1.077   4.196 -1.3237  0.1422 -0.1239
  894MOL0     H17966  10.447   1.085   4.499 -3.6820 -1.8026  0.6856
  894MOL0     H17967  10.465   1.218   4.374 -3.3422 -0.0240 -1.9336
  894MOL0     H17968  10.236   1.012   4.372  1.3979  0.2817  2.3610
  894MOL0     H17969  10.275   1.136   4.256 -0.1189  0.6381  0.8896
  894MOL0     H17970  10.023   1.069   4.284  0.4088 -1.1293  0.8661
  894MOL0     H17971   9.782   1.081   4.327  2.9102 -0.3265 -2.9725
  894MOL0     H17972   9.486   1.010   4.410 -2.1845 -2.6212 -4.4381
  894MOL0     H17973   9.238   0.951   4.447 -1.6950 -0.2811 -0.2504
  894MOL0     H17974   9.027   1.255   4.575 -0.1598  1.4193 -2.6668
  894MOL0     H17975   8.919   1.117   4.581 -0.0027 -0.9805  0.6378
  894MOL0     H17976   8.907   1.309   4.344 -1.0043 -1.3631 -2.3018
  894MOL0     H17977   8.832   1.351   4.496  0.6207 -0.5188 -0.3185
  894MOL0     H17978   8.696   1.129   4.486 -0.1908  0.2698  0.3746
  894MOL0     H17979   8.772   1.108   4.328  1.4994  0.7877  1.2415
  894MOL0     H17980   8.574   1.332   4.402  1.5870 -0.8722  1.4596
  894MOL0     H17981   8.653   1.305   4.248 -1.7160 -1.2428 -0.7245
  894MOL0     H17982   8.571   1.098   4.217  1.7473  0.9893  0.5259
  894MOL0     H17983   8.457   1.222   4.207  3.2713 -0.2070 -1.1510
  894MOL0     H17984   8.391   1.169   4.454 -2.3678  0.9614 -2.1415
  894MOL0     H17985   8.467   1.015   4.450  0.4468  2.9239  1.9852
  894MOL0     H17986   8.254   1.109   4.267 -2.7420  1.0972  4.8324
  894MOL0     H17987   8.315   0.950   4.229 -2.6498 -3.4155  3.2861
  894MOL0     H17988   8.146   1.030   4.456 -2.6228 -0.3312 -1.7240
  894MOL0     H17989   8.261   0.887   4.469  0.3397  0.5312  0.0071
  894MOL0     H17990   9.143   1.353   4.339  2.3874  1.7636 -1.5455
  894MOL0     H17991   9.373   1.426   4.334 -1.7278 -0.6104 -0.0284
  894MOL0     H17992   9.848   1.333   4.671 -1.2355 -3.1061  1.6832
  894MOL0     H17993  10.097   1.336   4.613  0.1530 -0.2826  0.5937
  894MOL0     H17994  10.392   1.415   4.436 -1.5808  0.2799 -0.0126
  894MOL0     H17995  10.179   1.532   4.429  0.3194 -0.8696 -0.1299
  894MOL0     H17996  10.058   2.142   4.598 -1.6737  0.9632  2.6675
  894MOL0     H17997   9.863   2.264   4.590  4.2660  0.0945  0.1669
  894MOL0     H17998   9.639   2.347   4.401  1.2123  0.6465  0.1277
  894MOL0     H17999   9.669   2.355   4.562  1.1226  2.4164 -3.1017
  894MOL0     H18000   9.414   2.247   4.441 -0.1860  0.5739 -0.1542
  894MOL0     H18001   9.420   2.327   4.594 -2.4607 -1.3525  0.0309
  894MOL0     H18002   9.477   2.482   4.338 -1.4521 -3.9458 -0.9092
  894MOL0     H18003   9.480   2.549   4.511  2.0461 -2.1225  1.5378
  894MOL0     H18004   9.220   2.438   4.494 -0.6010  0.4286 -0.8625
  894MOL0     H18005   9.275   2.600   4.485  1.2480 -0.9258  1.3849
  894MOL0     H18006   9.171   2.500   4.079  2.1338  0.6078 -1.5086
  894MOL0     H18007   9.667   1.946   4.374 -1.3063  0.9381  0.2399
  894MOL0     H18008   9.879   1.819   4.379 -2.6483 -1.3779  1.1174
  895MOL0     O18009   3.425   6.140  10.053 -0.0776  0.7457 -0.2081
  895MOL0     C18010   3.445   6.168   9.934  0.3521  0.3504  0.5295
  895MOL0     O18011   3.370   6.124   9.837 -0.5029  0.2627  0.9653
  895MOL0     C18012   3.243   6.075   9.862  0.3749 -0.0139 -0.3505
  895MOL0     C18013   3.212   5.940   9.852  0.1379 -0.3540 -0.0735
  895MOL0     C18014   3.088   5.894   9.878 -0.4354 -0.3953  0.0078
  895MOL0     C18015   2.992   5.989   9.916  0.9537 -0.0313 -0.5007
  895MOL0     O18016   2.869   5.933   9.939 -0.5306 -0.7685  0.1919
  895MOL0     C18017   2.762   6.015   9.983  0.2529  0.1243  0.9958
  895MOL0     C18018   2.644   5.934  10.042 -1.5825  0.0802  0.1473
  895MOL0     C18019   2.517   6.020  10.018 -0.0489 -1.4360  0.0243
  895MOL0     C18020   2.519   6.151  10.094 -0.7595  0.2107 -1.0449
  895MOL0     C18021   2.376   6.206  10.073  0.0507  0.4513 -0.3715
  895MOL0     C18022   2.292   6.190  10.198  0.1272 -0.5163  0.5006
  895MOL0     C18023   2.164   6.267  10.188 -1.1356 -0.4392 -0.6445
  895MOL0     C18024   2.071   6.268  10.317  0.1817  0.4868  0.5173
  895MOL0     N18025   1.986   6.389  10.328 -0.2975 -0.6429  0.2900
  895MOL0     C18026   1.911   6.412  10.442  0.1346 -0.3437 -0.0276
  895MOL0     C18027   1.845   6.533  10.416  0.6759  0.2969 -0.0548
  895MOL0     C18028   1.752   6.609  10.515 -0.2629 -0.4312  0.8093
  895MOL0     C18029   1.613   6.630  10.452 -0.1065  0.0228  0.0625
  895MOL0     C18030   1.527   6.740  10.502 -0.0392  0.9721  0.2933
  895MOL0     C18031   1.377   6.743  10.460 -0.1558  0.7087  0.6063
  895MOL0     O18032   1.298   6.639  10.527  0.0948 -0.1402 -0.2458
  895MOL0     C18033   1.163   6.650  10.536  0.7929 -0.8126 -0.2878
  895MOL0     C18034   1.099   6.590  10.647 -0.2977  0.6432 -0.4133
  895MOL0     C18035   0.964   6.587  10.673 -0.5622 -0.0745  0.2239
  895MOL0     C18036   0.879   6.669  10.588 -0.9947  0.5939 -0.2043
  895MOL0     C18037   0.738   6.681  10.608  0.0046  0.1970  0.0828
  895MOL0     O18038   0.663   6.747  10.512 -0.1510 -0.2415 -0.4170
  895MOL0     C18039   0.531   6.784  10.531  0.2486 -0.3441 -0.0243
  895MOL0     C18040   0.452   6.796  10.411 -0.4422 -0.6076  0.1394
  895MOL0     C18041   0.325   6.840  10.415  0.8643  0.6663  0.0435
  895MOL0     C18042   0.262   6.864  10.536  0.2840  0.5097  0.5451
  895MOL0     O18043   0.135   6.908  10.526  0.3313  0.2045  0.0846
  895MOL0     C18044   0.041   6.856  10.629 -0.3972  0.2235 -0.8999
  895MOL0     C18045  -0.108   6.868  10.586  0.0246 -0.4562  0.6908
  895MOL0     C18046  -0.136   7.009  10.532 -0.7113 -0.3578 -0.2279
  895MOL0     C18047  -0.273   7.010  10.475 -0.4048 -0.1426  0.1407
  895MOL0     C18048  -0.336   7.145  10.457  0.1791  0.8799 -0.3479
  895MOL0     C18049  -0.490   7.155  10.487 -0.6185  0.7098 -0.2919
  895MOL0     C18050  -0.539   7.290  10.438 -0.1804  0.6257  0.0821
  895MOL0     C18051  -0.685   7.314  10.488 -0.0169 -1.0559 -0.5720
  895MOL0    Cl18052  -0.792   7.173  10.495 -0.0939  0.0624 -0.2212
  895MOL0     C18053   0.333   6.851  10.659 -0.6226 -1.0908  0.1370
  895MOL0     C18054   0.469   6.815  10.650  0.0874 -0.4100 -0.3367
  895MOL0     O18055   0.696   6.633  10.713  0.3105  0.3318 -0.2703
  895MOL0     C18056   0.941   6.740  10.481  0.8244 -0.4415 -1.3429
  895MOL0     C18057   1.077   6.727  10.456  0.5332  0.1043  0.1682
  895MOL0     N18058   1.873   6.551  10.282 -0.0033 -0.1683 -0.6809
  895MOL0     N18059   1.944   6.465  10.227  1.0393  0.5783 -0.4252
  895MOL0     C18060   3.022   6.124   9.915  0.6432  0.1669  0.0520
  895MOL0     C18061   3.149   6.173   9.896 -0.5316  0.4955  0.2180
  895MOL0     C18062   3.563   6.248   9.898  0.2806 -0.6305 -0.1758
  895MOL0     C18063   3.621   6.326   9.996 -1.0158 -0.6421  0.3297
  895MOL0     C18064   3.728   6.413   9.970 -0.6703  0.4570 -0.4678
  895MOL0     C18065   3.765   6.439   9.836 -0.0681 -0.2287  0.5379
  895MOL0     O18066   3.844   6.543   9.798  0.2840  0.0126 -0.1368
  895MOL0     C18067   3.973   6.528   9.848 -0.6665  0.3365  0.6095
  895MOL0     C18068   4.043   6.427   9.754  0.1125  0.4980 -0.0635
  895MOL0     C18069   4.188   6.394   9.798  0.3342 -0.3959  0.6832
  895MOL0     C18070   4.199   6.378   9.948  0.0358 -0.5338  0.0440
  895MOL0     C18071   4.123   6.257   9.995  0.8819  0.2081 -0.1556
  895MOL0     C18072   4.055   6.164  10.041 -0.0799  0.2953 -0.3826
  895MOL0     C18073   3.696   6.363   9.734  0.6671 -0.5085  0.6838
  895MOL0     C18074   3.605   6.270   9.768  0.6440 -0.3123 -0.6812
  895MOL0     H18075   3.290   5.868   9.827  1.0260  1.7979 -4.7590
  895MOL0     H18076   3.070   5.787   9.876  1.5887 -0.7580 -1.6191
  895MOL0     H18077   2.733   6.076   9.898 -1.0133  1.4247  2.3049
  895MOL0     H18078   2.792   6.089  10.058 -1.2228  7.0290 -4.2912
  895MOL0     H18079   2.662   5.920  10.149 -1.0464 -2.5652 -0.2402
  895MOL0     H18080   2.644   5.833  10.002  3.2971 -1.7848  3.8506
  895MOL0     H18081   2.444   5.949  10.058 -0.7634 -0.9109 -0.3249
  895MOL0     H18082   2.503   6.041   9.912 -0.5877 -2.7568 -0.1920
  895MOL0     H18083   2.548   6.145  10.200  1.8306  1.5947 -1.6002
  895MOL0     H18084   2.588   6.227  10.058  2.6047 -0.6496  2.8757
  895MOL0     H18085   2.323   6.147   9.998  3.0263 -3.9903  0.6770
  895MOL0     H18086   2.383   6.313  10.051 -2.3023  0.2975 -2.3271
  895MOL0     H18087   2.348   6.229  10.283  2.0324  0.9064 -1.3026
  895MOL0     H18088   2.280   6.081  10.205  4.1080 -1.1269  0.2787
  895MOL0     H18089   2.192   6.369  10.164  3.4016 -1.0258  1.2262
  895MOL0     H18090   2.109   6.218  10.107 -1.0731 -5.4316  1.9301
  895MOL0     H18091   2.137   6.266  10.404  2.9176  1.2823 -1.4145
  895MOL0     H18092   2.003   6.182  10.314 -0.7898  1.1976 -3.0246
  895MOL0     H18093   1.915   6.359  10.536  1.0895  0.6774  0.5300
  895MOL0     H18094   1.791   6.710  10.528 -0.2262 -0.6974  3.1168
  895MOL0     H18095   1.753   6.554  10.609  2.8237 -0.2262  0.9962
  895MOL0     H18096   1.559   6.535  10.455 -1.1245  0.4792 -1.9699
  895MOL0     H18097   1.624   6.654  10.346 -3.6467  2.0330  0.0269
  895MOL0     H18098   1.522   6.725  10.610  4.5767 -2.2681  0.3750
  895MOL0     H18099   1.566   6.838  10.474  1.7134  0.8513  2.0790
  895MOL0     H18100   1.373   6.723  10.353  0.4103 -1.3293  0.9194
  895MOL0     H18101   1.344   6.846  10.477 -0.0719  1.3829 -2.6447
  895MOL0     H18102   1.159   6.534  10.719  1.5744  0.9015 -1.7059
  895MOL0     H18103   0.926   6.542  10.764 -3.2754  1.5970  0.0279
  895MOL0     H18104   0.492   6.785  10.311 -0.7152 -0.0307 -0.0371
  895MOL0     H18105   0.267   6.847  10.324  0.7771 -2.4590 -0.2309
  895MOL0     H18106   0.050   6.913  10.721  0.9496 -1.6263  0.1991
  895MOL0     H18107   0.068   6.755  10.662  0.4300  0.6975 -0.0694
  895MOL0     H18108  -0.175   6.855  10.672  0.6816  2.6025  1.7918
  895MOL0     H18109  -0.128   6.797  10.505 -3.8773 -0.8825  1.8171
  895MOL0     H18110  -0.075   7.044  10.449  0.6906  0.6319  1.1630
  895MOL0     H18111  -0.116   7.081  10.612 -0.1566 -1.7469  0.9253
  895MOL0     H18112  -0.276   6.954  10.381  0.8736 -0.4165  0.2405
  895MOL0     H18113  -0.344   6.951  10.534  0.8504 -2.5570 -0.6142
  895MOL0     H18114  -0.315   7.175  10.354  2.2041 -0.8351 -0.4992
  895MOL0     H18115  -0.281   7.219  10.517  3.0636 -0.9027 -0.6164
  895MOL0     H18116  -0.497   7.143  10.595 -1.0968  1.3771 -0.2365
  895MOL0     H18117  -0.549   7.080  10.435 -0.6603 -0.5671  1.5166
  895MOL0     H18118  -0.462   7.367  10.448  1.6656 -1.3061  1.5553
  895MOL0     H18119  -0.554   7.292  10.330  1.7264  0.0895 -0.2446
  895MOL0     H18120  -0.732   7.392  10.427 -1.9457 -2.0427 -0.4531
  895MOL0     H18121  -0.673   7.357  10.588  0.8911  2.8505 -2.2152
  895MOL0     H18122   0.286   6.885  10.751  0.4713  0.1519  0.2564
  895MOL0     H18123   0.531   6.810  10.739  0.7376 -1.2661 -0.8248
  895MOL0     H18124   0.874   6.793  10.415  0.2472 -0.0169 -0.4336
  895MOL0     H18125   1.106   6.792  10.375 -2.2954  0.0839 -0.9620
  895MOL0     H18126   2.943   6.198   9.930 -1.0613 -1.7497  0.8978
  895MOL0     H18127   3.171   6.279   9.894 -1.6826  0.7774  1.3795
  895MOL0     H18128   3.591   6.316  10.100 -0.0764  0.1865  0.6927
  895MOL0     H18129   3.784   6.471  10.043 -0.6674  0.0744 -0.1637
  895MOL0     H18130   3.984   6.502   9.953  2.7836  1.7552  0.7418
  895MOL0     H18131   4.025   6.622   9.827  1.2825 -0.6171  0.9829
  895MOL0     H18132   3.991   6.334   9.780  2.8233 -0.9266  0.7166
  895MOL0     H18133   4.030   6.454   9.649 -0.2451  1.1684  0.1448
  895MOL0     H18134   4.240   6.485   9.764 -0.9579  1.0817  2.4957
  895MOL0     H18135   4.220   6.304   9.744  0.1764  1.5143 -2.8986
  895MOL0     H18136   4.302   6.372   9.984 -0.5490 -2.9816  1.6259
  895MOL0     H18137   4.163   6.459  10.013  0.3030 -1.9074  2.0068
  895MOL0     H18138   4.000   6.085  10.090 -0.2840  1.2668  1.0001
  895MOL0     H18139   3.721   6.376   9.629 -2.0181 -3.2643 -0.4458
  895MOL0     H18140   3.560   6.216   9.686  0.9620 -1.1495 -0.3098
  896MOL0     O18141   5.738   1.835   8.430 -1.2534  1.1398  0.7636
  896MOL0     C18142   5.704   1.815   8.544  0.6474  0.3293 -0.4339
  896MOL0     O18143   5.573   1.820   8.579 -0.4499  0.2143  0.4117
  896MOL0     C18144   5.469   1.826   8.497  0.3108 -0.0274 -0.5876
  896MOL0     C18145   5.466   1.827   8.362  0.4116 -0.2035  0.8464
  896MOL0     C18146   5.338   1.840   8.304  1.0102 -0.0465 -0.6725
  896MOL0     C18147   5.221   1.839   8.379 -0.2399 -0.0532  0.7813
  896MOL0     O18148   5.110   1.821   8.303 -0.4234 -0.0648  0.1143
  896MOL0     C18149   4.977   1.839   8.371 -0.0141  1.2866  0.1395
  896MOL0     C18150   4.933   1.985   8.403  0.7322  0.4505 -0.0485
  896MOL0     C18151   4.781   1.981   8.441 -0.4053 -0.9356 -0.0185
  896MOL0     C18152   4.725   2.115   8.481  0.5274  0.5015  1.0558
  896MOL0     C18153   4.575   2.095   8.516  0.1284  0.5096  0.2771
  896MOL0     C18154   4.514   2.227   8.536 -0.1163 -0.3555  1.1331
  896MOL0     C18155   4.369   2.216   8.586  0.9293 -0.7765  0.3024
  896MOL0     C18156   4.274   2.149   8.488  0.4300  0.0712 -0.1320
  896MOL0     N18157   4.138   2.141   8.559 -0.1765 -1.5226  0.0210
  896MOL0     C18158   4.107   2.036   8.636  0.2840 -0.5663 -0.1276
  896MOL0     C18159   4.007   2.088   8.713  0.1813 -0.1426 -0.1176
  896MOL0     C18160   3.946   2.023   8.831  0.1859  1.0674  0.2003
  896MOL0     C18161   4.017   1.893   8.895  1.1631 -0.6286 -0.2883
  896MOL0     C18162   4.113   1.930   9.000 -0.3111 -0.0699  0.2756
  896MOL0     C18163   4.246   1.995   8.969 -0.6347 -0.2573  0.9349
  896MOL0     O18164   4.321   1.913   8.881 -0.6105  0.2211  0.0133
  896MOL0     C18165   4.453   1.938   8.862 -0.4247 -0.2504  0.2830
  896MOL0     C18166   4.528   2.046   8.903 -0.1426 -0.6517 -0.2598
  896MOL0     C18167   4.668   2.048   8.881 -0.5120  0.6717 -1.4203
  896MOL0     C18168   4.736   1.944   8.824 -0.9595 -0.2640  0.0028
  896MOL0     C18169   4.881   1.949   8.804  0.0036 -0.6421 -0.8131
  896MOL0     O18170   4.943   2.061   8.839  0.3032 -0.8409 -0.1900
  896MOL0     C18171   5.071   2.090   8.816 -0.1517  0.3188 -0.4623
  896MOL0     C18172   5.118   2.189   8.721  0.6643  1.1000  0.1840
  896MOL0     C18173   5.250   2.220   8.707 -0.1369 -0.1860  1.2916
  896MOL0     C18174   5.336   2.165   8.798 -0.9441  0.1357 -0.2279
  896MOL0     O18175   5.475   2.179   8.799  0.4061 -0.1685 -0.0557
  896MOL0     C18176   5.545   2.184   8.671 -0.6273 -1.0560 -0.1154
  896MOL0     C18177   5.703   2.177   8.688  0.9729 -0.5631 -0.8937
  896MOL0     C18178   5.786   2.172   8.562  0.2965  0.8049  0.8496
  896MOL0     C18179   5.928   2.214   8.582 -0.1628 -0.3452 -0.2250
  896MOL0     C18180   6.003   2.243   8.451  0.1451  0.0486  0.2811
  896MOL0     C18181   6.037   2.119   8.358 -1.2064 -0.1636  0.0499
  896MOL0     C18182   6.153   2.034   8.403 -0.9156  0.3652  0.4364
  896MOL0     C18183   6.270   2.074   8.314 -0.9850  0.2235 -0.8523
  896MOL0    Cl18184   6.428   2.020   8.366  0.2554  0.0854 -0.4346
  896MOL0     C18185   5.293   2.066   8.891  0.1052 -0.9175  0.0816
  896MOL0     C18186   5.163   2.028   8.904 -0.2234  0.4006  0.2340
  896MOL0     O18187   4.936   1.860   8.748  0.4521 -0.3901  1.1920
  896MOL0     C18188   4.657   1.842   8.775  1.4541  0.7514  0.1269
  896MOL0     C18189   4.520   1.837   8.786  0.2116  0.4653  0.5326
  896MOL0     N18190   3.953   2.209   8.661 -0.4723  0.7108  0.0342
  896MOL0     N18191   4.040   2.241   8.580 -1.4106  0.0274  0.3385
  896MOL0     C18192   5.218   1.836   8.515 -0.8305 -0.3603 -0.5082
  896MOL0     C18193   5.346   1.837   8.572  0.3894  0.1250 -0.6464
  896MOL0     C18194   5.813   1.775   8.637 -0.0105  0.3640 -0.4809
  896MOL0     C18195   5.777   1.732   8.769  0.7994 -0.7920 -0.1655
  896MOL0     C18196   5.876   1.711   8.864 -0.3617  0.5450  0.2652
  896MOL0     C18197   6.012   1.735   8.825  0.3128  0.7074 -0.7180
  896MOL0     O18198   6.116   1.717   8.921 -0.5774  0.0984 -1.1853
  896MOL0     C18199   6.248   1.749   8.882 -0.9005 -0.2724  0.2911
  896MOL0     C18200   6.277   1.901   8.879  0.7695 -0.2659 -0.7356
  896MOL0     C18201   6.424   1.936   8.898  0.0233  0.2694  1.1250
  896MOL0     C18202   6.467   2.085   8.882 -0.7744  0.2387  1.5081
  896MOL0     C18203   6.400   2.153   8.766 -0.2784 -0.4184 -0.0545
  896MOL0     C18204   6.348   2.197   8.661 -0.1750  0.0014 -0.1602
  896MOL0     C18205   6.038   1.773   8.696 -0.2361 -0.9020 -0.1264
  896MOL0     C18206   5.945   1.783   8.595  0.5132  0.1879 -0.6981
  896MOL0     H18207   5.561   1.832   8.310  0.2682  2.1399  0.6960
  896MOL0     H18208   5.326   1.846   8.196  0.6333  1.5098 -0.5660
  896MOL0     H18209   4.972   1.772   8.458 -0.0872  0.7520 -0.2718
  896MOL0     H18210   4.891   1.808   8.311 -3.0490  3.8601  2.7939
  896MOL0     H18211   4.938   2.058   8.322 -0.0763  2.0197  1.2644
  896MOL0     H18212   4.997   2.012   8.488  1.2427 -4.6714  1.5749
  896MOL0     H18213   4.767   1.917   8.529  2.0739  0.1971  1.3152
  896MOL0     H18214   4.725   1.944   8.355 -0.5907  0.4606 -0.5239
  896MOL0     H18215   4.779   2.156   8.567  1.0167  0.4298  0.7863
  896MOL0     H18216   4.745   2.191   8.406  1.3104  1.2757  2.0170
  896MOL0     H18217   4.584   2.031   8.604  3.9989  0.5121  0.0183
  896MOL0     H18218   4.521   2.034   8.442 -2.6022  1.3956  1.3980
  896MOL0     H18219   4.502   2.277   8.440 -2.2717 -2.5125  0.1631
  896MOL0     H18220   4.579   2.293   8.593  2.2686 -0.5147 -1.2155
  896MOL0     H18221   4.364   2.162   8.681  1.2875 -2.9262 -0.8455
  896MOL0     H18222   4.326   2.315   8.601  2.2175 -0.4796  2.4518
  896MOL0     H18223   4.309   2.050   8.458 -1.1229 -1.6288  3.1429
  896MOL0     H18224   4.252   2.217   8.405 -1.6450  0.6231  0.8035
  896MOL0     H18225   4.171   1.950   8.655  2.2310  0.3068 -2.2465
  896MOL0     H18226   3.846   1.994   8.799 -0.1602 -1.4396  3.0654
  896MOL0     H18227   3.941   2.105   8.904 -1.0881  1.4937 -0.3319
  896MOL0     H18228   4.059   1.839   8.809  0.0569  1.0950 -2.0064
  896MOL0     H18229   3.942   1.832   8.946  0.4404  1.4796  1.3194
  896MOL0     H18230   4.076   2.005   9.072  0.0937 -0.6468  1.1038
  896MOL0     H18231   4.127   1.846   9.068 -0.8808  2.0608  3.2661
  896MOL0     H18232   4.303   2.011   9.061  0.1390 -0.7369  0.5496
  896MOL0     H18233   4.230   2.094   8.926  3.0107  0.0076 -0.1563
  896MOL0     H18234   4.489   2.136   8.949 -0.2748 -1.4343  1.2329
  896MOL0     H18235   4.726   2.129   8.923 -1.3874  0.1146  1.0810
  896MOL0     H18236   5.038   2.230   8.659  1.4379  0.4375 -1.3265
  896MOL0     H18237   5.285   2.294   8.635 -0.1740  0.2314  1.6929
  896MOL0     H18238   5.529   2.278   8.617 -0.5551  0.5867  2.5615
  896MOL0     H18239   5.500   2.107   8.608  0.1811 -0.4267 -1.5022
  896MOL0     H18240   5.730   2.086   8.742  0.6872 -0.2246 -0.1736
  896MOL0     H18241   5.733   2.262   8.749  1.1170 -2.8272  2.4432
  896MOL0     H18242   5.745   2.233   8.481 -1.8815 -0.5510  0.8578
  896MOL0     H18243   5.788   2.067   8.530 -0.4975  0.3501  2.1668
  896MOL0     H18244   5.937   2.304   8.645 -0.2412  0.0067 -0.7098
  896MOL0     H18245   5.982   2.142   8.644 -1.3795  1.4969  3.2320
  896MOL0     H18246   6.093   2.301   8.477 -1.1645  2.1232  0.4643
  896MOL0     H18247   5.949   2.322   8.397 -0.1098 -1.1929 -1.3365
  896MOL0     H18248   6.057   2.159   8.258 -0.7553 -1.0716 -0.2281
  896MOL0     H18249   5.950   2.053   8.349 -1.2271 -0.0880 -0.3342
  896MOL0     H18250   6.167   2.045   8.511 -1.6997  1.4059  0.4400
  896MOL0     H18251   6.133   1.927   8.388 -0.0316 -0.0422  1.9440
  896MOL0     H18252   6.269   2.181   8.289  0.3691  0.0938 -1.5206
  896MOL0     H18253   6.250   2.024   8.218  1.5633 -2.1538 -0.2629
  896MOL0     H18254   5.368   2.011   8.947  0.3017 -0.9019 -0.1601
  896MOL0     H18255   5.132   1.958   8.981  0.4287  0.4078  0.5092
  896MOL0     H18256   4.702   1.758   8.723 -0.6582  0.1770 -0.8751
  896MOL0     H18257   4.468   1.748   8.752  2.0878 -0.7808  0.8121
  896MOL0     H18258   5.132   1.824   8.579 -1.4965 -0.5784 -1.4170
  896MOL0     H18259   5.346   1.834   8.681 -3.6700 -4.4218 -0.4355
  896MOL0     H18260   5.675   1.726   8.807  1.2747  0.0458  1.3288
  896MOL0     H18261   5.861   1.665   8.962 -1.1136  1.0654  0.4018
  896MOL0     H18262   6.274   1.703   8.786  0.0398  1.2914 -0.2352
  896MOL0     H18263   6.307   1.688   8.952 -3.0346  0.9242  3.3558
  896MOL0     H18264   6.234   1.945   8.789  2.6076 -0.8426 -1.9528
  896MOL0     H18265   6.236   1.943   8.972 -0.1840 -3.8776  0.6098
  896MOL0     H18266   6.477   1.875   8.824 -1.6278 -1.7698  1.5404
  896MOL0     H18267   6.463   1.886   8.987 -0.6490 -0.7702  0.8470
  896MOL0     H18268   6.435   2.126   8.978 -1.7186 -1.0315  1.7689
  896MOL0     H18269   6.577   2.085   8.879 -0.6895  0.0448 -3.2484
  896MOL0     H18270   6.293   2.220   8.572 -1.6651 -1.1182  0.4224
  896MOL0     H18271   6.136   1.804   8.658  0.1725 -0.5461  1.1742
  896MOL0     H18272   5.958   1.817   8.493 -0.8136 -0.1098 -0.9763
  897MOL0     O18273   9.273   9.291   8.769  0.6687 -0.5551 -0.6075
  897MOL0     C18274   9.369   9.302   8.845 -0.0660  0.3184 -0.8633
  897MOL0     O18275   9.367   9.256   8.978  0.1645 -0.1688  0.3172
  897MOL0     C18276   9.243   9.223   9.025 -0.0921  0.5555 -0.4620
  897MOL0     C18277   9.207   9.091   9.046 -0.1487  0.2686 -0.5401
  897MOL0     C18278   9.087   9.048   9.101  0.3613  0.2191  0.4497
  897MOL0     C18279   8.996   9.147   9.150  0.0148  0.4701  0.5690
  897MOL0     O18280   8.872   9.120   9.215 -0.6636  0.6311 -0.1583
  897MOL0     C18281   8.810   8.983   9.210 -0.3784  0.3000 -0.1422
  897MOL0     C18282   8.678   8.974   9.287 -0.2691  0.2528 -0.8936
  897MOL0     C18283   8.574   9.099   9.255  0.0777 -0.0182  0.4477
  897MOL0     C18284   8.446   9.098   9.329  0.6660  0.8364  0.2425
  897MOL0     C18285   8.385   9.238   9.332 -0.6693  0.2118 -0.3656
  897MOL0     C18286   8.249   9.234   9.412 -0.1687 -0.0383 -0.3389
  897MOL0     C18287   8.170   9.363   9.391 -0.1149 -1.0941  0.4322
  897MOL0     C18288   8.119   9.386   9.248 -0.5951  0.3499 -0.2614
  897MOL0     N18289   8.031   9.275   9.210  0.6395  0.4275  0.0202
  897MOL0     C18290   7.922   9.226   9.281  0.2173 -0.1659 -0.0237
  897MOL0     C18291   7.915   9.097   9.247  0.9964  0.1265  0.2688
  897MOL0     C18292   7.827   8.995   9.317  1.0739 -0.0527  0.2613
  897MOL0     C18293   7.709   8.942   9.241  0.7091 -0.1557 -0.3669
  897MOL0     C18294   7.627   8.859   9.339  0.1963 -0.3903 -0.0935
  897MOL0     C18295   7.512   8.938   9.400  0.9204 -0.2888 -0.4174
  897MOL0     O18296   7.391   8.888   9.355  0.3224 -0.0246 -0.7926
  897MOL0     C18297   7.327   8.777   9.415  0.4406 -0.4587 -0.3207
  897MOL0     C18298   7.193   8.768   9.376  1.1796 -0.3771 -0.1007
  897MOL0     C18299   7.118   8.663   9.432  0.5607  0.2915 -0.1643
  897MOL0     C18300   7.177   8.575   9.531 -0.3774 -0.5609  0.1712
  897MOL0     C18301   7.091   8.478   9.601 -0.4146  0.1446 -0.3004
  897MOL0     O18302   6.977   8.439   9.536  0.8991  0.0216  0.3407
  897MOL0     C18303   6.871   8.396   9.618  0.2969 -0.2139 -0.4274
  897MOL0     C18304   6.850   8.261   9.644  1.2861 -0.1142 -0.3081
  897MOL0     C18305   6.740   8.224   9.725  0.3273 -1.0828  0.0299
  897MOL0     C18306   6.652   8.319   9.773  0.1406 -0.7207 -0.1965
  897MOL0     O18307   6.553   8.308   9.870  0.4422  0.0171  0.5179
  897MOL0     C18308   6.544   8.176   9.926  0.1261 -0.0767  0.1402
  897MOL0     C18309   6.423   8.156  10.013  0.0617  0.5692  0.4520
  897MOL0     C18310   6.294   8.145   9.936 -1.2028  0.7735  0.0480
  897MOL0     C18311   6.170   8.176  10.017 -0.3185  0.2017 -0.2269
  897MOL0     C18312   6.051   8.184   9.924 -0.7246 -0.4898  0.5779
  897MOL0     C18313   6.013   8.056   9.850 -1.0918 -0.4604 -0.3647
  897MOL0     C18314   5.882   8.042   9.771 -0.1893 -0.5992 -0.0144
  897MOL0     C18315   5.753   8.083   9.841  0.6921 -0.2025 -0.5227
  897MOL0    Cl18316   5.596   8.013   9.780  0.2627 -0.0446 -0.1276
  897MOL0     C18317   6.665   8.454   9.734 -0.2776 -0.2711 -1.4620
  897MOL0     C18318   6.773   8.492   9.656  0.2312  0.1534 -0.8275
  897MOL0     O18319   7.135   8.425   9.701 -0.1203  0.0476  0.1374
  897MOL0     C18320   7.308   8.587   9.552  0.4285  0.2082 -0.0499
  897MOL0     C18321   7.388   8.686   9.495 -0.0138  0.0522  0.0228
  897MOL0     N18322   8.012   9.066   9.155  0.8735 -0.3442  0.6900
  897MOL0     N18323   8.070   9.175   9.120 -0.0524  0.4288 -0.4280
  897MOL0     C18324   9.029   9.276   9.142  1.0516 -0.4398  0.2852
  897MOL0     C18325   9.158   9.315   9.083  0.2934  0.4377  0.1308
  897MOL0     C18326   9.492   9.350   8.791 -0.2545 -0.3996  0.6762
  897MOL0     C18327   9.613   9.295   8.827  0.6424 -0.5002 -0.0546
  897MOL0     C18328   9.731   9.364   8.779  0.3424  0.9339 -0.8373
  897MOL0     C18329   9.729   9.467   8.686  0.1483 -0.7344 -0.0186
  897MOL0     O18330   9.838   9.536   8.637 -0.0037 -0.3826 -0.0345
  897MOL0     C18331   9.935   9.550   8.745 -0.4161  0.3902  0.4370
  897MOL0     C18332  10.077   9.606   8.712  0.5966  0.5336 -0.6908
  897MOL0     C18333  10.177   9.511   8.656  0.4662  0.0606  0.0378
  897MOL0     C18334  10.307   9.576   8.618 -0.0060 -0.6567 -0.0039
  897MOL0     C18335  10.382   9.606   8.741  1.0729 -0.4062 -1.2724
  897MOL0     C18336  10.444   9.625   8.844  0.2931  0.1766 -0.0034
  897MOL0     C18337   9.601   9.511   8.657  0.2706 -0.4669 -0.2437
  897MOL0     C18338   9.484   9.455   8.699  0.6533  0.3460  0.1841
  897MOL0     H18339   9.275   9.012   9.018 -0.7209 -0.8958  1.1618
  897MOL0     H18340   9.075   8.943   9.125 -0.8339 -0.0901 -1.3194
  897MOL0     H18341   8.879   8.903   9.237  0.3661 -0.6456 -4.1306
  897MOL0     H18342   8.786   8.959   9.106 -2.1120 -1.7805  0.6440
  897MOL0     H18343   8.708   8.974   9.392  1.4320  0.0173 -1.3456
  897MOL0     H18344   8.630   8.881   9.258 -1.4354  0.5583 -0.0050
  897MOL0     H18345   8.560   9.100   9.147  0.2225  2.9329  0.3959
  897MOL0     H18346   8.630   9.189   9.279  0.2889  0.2435 -0.9991
  897MOL0     H18347   8.379   9.018   9.294  1.8977  0.3574 -1.1541
  897MOL0     H18348   8.463   9.074   9.434  0.5244 -0.3246  0.0190
  897MOL0     H18349   8.366   9.267   9.228  1.2546  1.1530 -0.4970
  897MOL0     H18350   8.459   9.308   9.371  2.5901 -1.7874 -2.4815
  897MOL0     H18351   8.269   9.221   9.519  0.9760 -1.3330 -0.6760
  897MOL0     H18352   8.186   9.153   9.376  0.7092 -0.5724 -0.7231
  897MOL0     H18353   8.078   9.364   9.449  1.0814  4.7737  3.0091
  897MOL0     H18354   8.230   9.449   9.424  0.3305 -1.3237  0.2225
  897MOL0     H18355   8.200   9.401   9.176 -0.6363  0.8811 -0.2044
  897MOL0     H18356   8.060   9.477   9.250 -2.2093 -0.6018 -1.9393
  897MOL0     H18357   7.865   9.281   9.355 -2.1420 -1.4545 -0.7877
  897MOL0     H18358   7.788   9.041   9.408 -0.3883  0.0774 -0.3932
  897MOL0     H18359   7.892   8.910   9.340  3.4592  1.1417 -1.6303
  897MOL0     H18360   7.744   8.876   9.161  0.3073  1.9018 -2.3346
  897MOL0     H18361   7.654   9.017   9.184 -0.5234 -2.5334 -2.4726
  897MOL0     H18362   7.590   8.791   9.263  0.0342 -0.4433  0.0327
  897MOL0     H18363   7.694   8.823   9.419  0.1141  0.1888  0.2461
  897MOL0     H18364   7.519   9.044   9.375  1.6934 -0.4849 -1.0754
  897MOL0     H18365   7.520   8.920   9.508  1.8335 -0.9261 -0.5736
  897MOL0     H18366   7.154   8.839   9.304  0.2804  0.1022  0.8312
  897MOL0     H18367   7.011   8.657   9.413  0.4411 -0.0610  0.5670
  897MOL0     H18368   6.908   8.183   9.597  1.4720 -0.9446  1.2224
  897MOL0     H18369   6.731   8.118   9.748  0.0631 -1.1389 -0.3271
  897MOL0     H18370   6.643   8.153   9.965 -0.1888  0.1139  1.0682
  897MOL0     H18371   6.523   8.118   9.836 -2.5100 -0.0922  0.6791
  897MOL0     H18372   6.415   8.245  10.076 -1.0603  1.4180 -0.8471
  897MOL0     H18373   6.440   8.071  10.079  0.0601 -0.7965 -1.2203
  897MOL0     H18374   6.293   8.041   9.902 -0.5107 -0.1171  2.5639
  897MOL0     H18375   6.302   8.213   9.851 -1.9225 -0.3432 -0.9547
  897MOL0     H18376   6.156   8.096  10.091  1.6433 -0.3227 -0.3471
  897MOL0     H18377   6.178   8.276  10.061  2.9679 -0.5160  1.1624
  897MOL0     H18378   6.075   8.267   9.857  2.7667 -0.7991  1.2779
  897MOL0     H18379   5.960   8.205   9.981 -0.1979 -2.1834  2.1539
  897MOL0     H18380   6.026   7.976   9.923  0.5890  2.3113  2.6450
  897MOL0     H18381   6.094   8.025   9.783  0.1310 -0.3256  1.0066
  897MOL0     H18382   5.884   8.106   9.682 -1.3768 -0.2615  0.1796
  897MOL0     H18383   5.884   7.937   9.740 -0.2001 -0.5519 -0.1784
  897MOL0     H18384   5.741   8.191   9.831  0.3996 -0.0926  0.8169
  897MOL0     H18385   5.760   8.064   9.949  0.4840 -1.6616 -0.7429
  897MOL0     H18386   6.604   8.537   9.767  1.4463  0.1393  1.0171
  897MOL0     H18387   6.780   8.594   9.621 -1.2777 -0.6009 -3.5734
  897MOL0     H18388   7.350   8.505   9.609  0.5108  1.0640  1.1590
  897MOL0     H18389   7.493   8.682   9.523 -0.3753  0.2730  1.4998
  897MOL0     H18390   8.969   9.358   9.180  0.1119 -0.6607 -0.6910
  897MOL0     H18391   9.188   9.419   9.086 -0.9945  0.8033  1.6769
  897MOL0     H18392   9.617   9.210   8.894 -2.9296 -0.7540  0.0212
  897MOL0     H18393   9.817   9.312   8.820 -0.9718  2.1749  4.2001
  897MOL0     H18394   9.949   9.453   8.794 -3.0775 -1.4057 -1.9967
  897MOL0     H18395   9.891   9.627   8.810 -0.4952  1.9830 -1.4053
  897MOL0     H18396  10.067   9.692   8.645 -2.3347  0.4870 -0.4685
  897MOL0     H18397  10.127   9.629   8.807  0.9213 -1.9724 -0.1833
  897MOL0     H18398  10.143   9.468   8.561  3.1112  0.1256 -1.0171
  897MOL0     H18399  10.171   9.432   8.730 -3.2050  0.2117  0.0762
  897MOL0     H18400  10.361   9.503   8.557 -1.6362 -4.6586  2.9051
  897MOL0     H18401  10.286   9.665   8.557  3.8234  0.9756  0.7693
  897MOL0     H18402  10.513   9.657   8.918  1.1697 -1.7315  0.0645
  897MOL0     H18403   9.590   9.604   8.602 -0.4371 -1.0525 -1.1131
  897MOL0     H18404   9.390   9.500   8.669 -1.7474 -2.7482  2.3882
  898MOL0     O18405   0.941   7.886   8.299 -0.0484  0.7835  0.7140
  898MOL0     C18406   0.997   7.963   8.378  0.1206 -0.2780 -0.0803
  898MOL0     O18407   0.932   8.048   8.456  0.2157 -0.0281  0.9408
  898MOL0     C18408   0.798   8.073   8.446  0.3722  0.6523 -0.3250
  898MOL0     C18409   0.750   8.200   8.482  0.3486  0.3904  0.2628
  898MOL0     C18410   0.615   8.242   8.488  1.2577  0.5900  0.0888
  898MOL0     C18411   0.520   8.140   8.452 -0.0592  0.0686  0.5632
  898MOL0     O18412   0.392   8.181   8.463 -0.4531  0.4081 -0.2700
  898MOL0     C18413   0.285   8.116   8.395 -1.3912  0.3608  0.0781
  898MOL0     C18414   0.147   8.155   8.422 -0.9848 -0.2416 -0.4091
  898MOL0     C18415   0.114   8.118   8.570  0.2934 -0.0794 -1.7908
  898MOL0     C18416   0.123   7.971   8.613 -0.2066  0.2371  0.2378
  898MOL0     C18417   0.081   7.941   8.749  0.4276  0.1368 -0.4209
  898MOL0     C18418  -0.067   7.917   8.768  1.0032  0.0965 -1.1939
  898MOL0     C18419  -0.125   7.922   8.917  0.4860  0.0139  0.5595
  898MOL0     C18420  -0.275   7.943   8.919  0.1144 -0.4196  0.5786
  898MOL0     N18421  -0.305   8.086   8.884  0.0941 -0.6741  0.3059
  898MOL0     C18422  -0.258   8.199   8.952 -0.5671  0.1177  0.7096
  898MOL0     C18423  -0.300   8.298   8.882  0.4969 -0.5424 -0.3222
  898MOL0     C18424  -0.283   8.444   8.909  0.1630  0.5666 -0.7095
  898MOL0     C18425  -0.151   8.506   8.847  0.2483 -0.7161 -1.2706
  898MOL0     C18426  -0.156   8.494   8.693  0.5085 -0.2091 -0.5480
  898MOL0     C18427  -0.017   8.499   8.634 -0.2205 -0.7844  0.0925
  898MOL0     O18428   0.047   8.621   8.681 -0.1653  0.5369 -0.2674
  898MOL0     C18429   0.179   8.647   8.666  0.0360 -0.5193  0.6030
  898MOL0     C18430   0.274   8.574   8.602  0.6826  0.0645  0.6755
  898MOL0     C18431   0.404   8.617   8.587  0.4183  0.1318  0.2554
  898MOL0     C18432   0.443   8.747   8.638 -1.1227  0.3726  0.4166
  898MOL0     C18433   0.590   8.796   8.645 -0.3034  0.9416  0.8949
  898MOL0     O18434   0.624   8.884   8.753  0.1714  0.9223 -0.6328
  898MOL0     C18435   0.747   8.923   8.753 -0.2052 -0.6128 -0.4854
  898MOL0     C18436   0.860   8.843   8.772  0.0946  0.4301  0.1058
  898MOL0     C18437   0.980   8.913   8.778 -0.3594  0.4930  0.6139
  898MOL0     C18438   0.996   9.051   8.763 -0.2759 -0.3432 -0.1113
  898MOL0     O18439   1.124   9.099   8.770 -0.1189  0.4878 -0.4442
  898MOL0     C18440   1.157   9.236   8.744  0.2712 -0.2312  0.6924
  898MOL0     C18441   1.299   9.276   8.744  0.0836 -0.1534  0.1771
  898MOL0     C18442   1.310   9.428   8.727  0.1084  0.2680  0.6406
  898MOL0     C18443   1.451   9.479   8.711 -0.5957 -0.3414  1.1209
  898MOL0     C18444   1.468   9.624   8.685  0.1540 -0.2790 -0.1681
  898MOL0     C18445   1.601   9.661   8.620  0.1121  0.5454  0.9111
  898MOL0     C18446   1.617   9.818   8.620  0.6689 -0.1360  0.1192
  898MOL0     C18447   1.750   9.867   8.564 -0.9619  0.2122  0.4529
  898MOL0    Cl18448   1.772   9.811   8.391  0.2731  0.0587  0.1002
  898MOL0     C18449   0.882   9.132   8.755 -0.1611  0.0927 -0.0503
  898MOL0     C18450   0.759   9.062   8.751 -0.5470  0.9705  0.6988
  898MOL0     O18451   0.671   8.732   8.575 -0.1155  0.3889 -0.5715
  898MOL0     C18452   0.343   8.826   8.708  0.0771 -0.1604  0.8520
  898MOL0     C18453   0.209   8.777   8.712  0.1402 -0.5946 -0.2168
  898MOL0     N18454  -0.395   8.258   8.787  0.4119  1.0608 -0.5213
  898MOL0     N18455  -0.403   8.128   8.796 -0.3957 -0.1878  0.2468
  898MOL0     C18456   0.568   8.023   8.383 -0.1047 -0.2029  0.6601
  898MOL0     C18457   0.698   7.988   8.393  0.1851  0.4531 -0.1916
  898MOL0     C18458   1.142   7.955   8.396 -0.4660  0.1111  0.0455
  898MOL0     C18459   1.203   8.050   8.475 -0.3662 -0.2180 -0.0828
  898MOL0     C18460   1.332   8.032   8.519  0.6078  0.9436  0.5944
  898MOL0     C18461   1.417   7.927   8.463  0.9030 -0.3373 -0.2990
  898MOL0     O18462   1.549   7.915   8.506  0.2068  0.7086 -0.3193
  898MOL0     C18463   1.622   7.796   8.492  0.2062 -0.3629  0.3177
  898MOL0     C18464   1.562   7.671   8.565  0.1479 -0.6264  0.1107
  898MOL0     C18465   1.546   7.704   8.708 -0.0847  0.1416  0.0224
  898MOL0     C18466   1.513   7.574   8.782 -0.3971 -0.6161  0.6210
  898MOL0     C18467   1.548   7.583   8.921 -0.4111 -0.1036  0.4671
  898MOL0     C18468   1.580   7.600   9.041 -1.0808 -1.0162 -0.0463
  898MOL0     C18469   1.356   7.840   8.366  0.4348  0.6666 -0.8187
  898MOL0     C18470   1.224   7.857   8.327 -0.9635 -0.6511 -0.4839
  898MOL0     H18471   0.828   8.262   8.524 -0.0619  1.2476 -0.2199
  898MOL0     H18472   0.580   8.340   8.521  2.9684  0.6235  1.9641
  898MOL0     H18473   0.293   8.008   8.408  1.5780  0.0783 -2.7073
  898MOL0     H18474   0.300   8.134   8.288  3.2178  2.3257  0.8110
  898MOL0     H18475   0.083   8.109   8.347 -0.1254  2.2727 -2.8679
  898MOL0     H18476   0.133   8.263   8.417 -1.0339 -0.2896 -1.6224
  898MOL0     H18477   0.010   8.145   8.591  1.2626  2.7582 -0.0572
  898MOL0     H18478   0.163   8.184   8.642  0.1036 -0.0920 -1.6485
  898MOL0     H18479   0.060   7.914   8.543 -1.6822  3.0995 -0.9590
  898MOL0     H18480   0.221   7.925   8.602 -0.7855 -1.2166  0.8831
  898MOL0     H18481   0.118   8.023   8.811  1.5799  0.8739 -1.9907
  898MOL0     H18482   0.124   7.849   8.789 -1.5919 -2.7288 -4.1597
  898MOL0     H18483  -0.078   7.810   8.745 -0.3427  0.1004 -0.6863
  898MOL0     H18484  -0.123   7.981   8.699 -0.3385 -1.3064 -1.4649
  898MOL0     H18485  -0.116   7.821   8.957 -0.8101  0.2147  1.4213
  898MOL0     H18486  -0.071   7.995   8.977 -1.7004  1.8051  0.4854
  898MOL0     H18487  -0.322   7.922   9.016  1.1882 -1.4474  0.9062
  898MOL0     H18488  -0.316   7.877   8.842 -2.3469 -1.2195  2.4428
  898MOL0     H18489  -0.195   8.215   9.039 -2.2269  3.1505  1.5183
  898MOL0     H18490  -0.270   8.466   9.016 -0.7073  2.8021 -1.0025
  898MOL0     H18491  -0.376   8.493   8.878 -2.0340 -2.0428  1.2662
  898MOL0     H18492  -0.064   8.456   8.889  3.5922  3.4224 -2.6249
  898MOL0     H18493  -0.146   8.611   8.878 -2.7878 -0.7766 -0.2330
  898MOL0     H18494  -0.186   8.394   8.662  3.9971 -1.5079 -0.2107
  898MOL0     H18495  -0.222   8.576   8.662  2.0758  2.4654  2.5622
  898MOL0     H18496  -0.039   8.503   8.527 -2.0309 -0.4680  0.4541
  898MOL0     H18497   0.053   8.420   8.662  1.8412  0.2060 -1.9426
  898MOL0     H18498   0.258   8.473   8.564  0.3486  0.4072 -0.1073
  898MOL0     H18499   0.473   8.560   8.524  0.6644 -1.9312  2.2652
  898MOL0     H18500   0.864   8.739   8.803 -1.0928  0.4348  0.3298
  898MOL0     H18501   1.074   8.861   8.798 -1.0275 -0.7989  0.4946
  898MOL0     H18502   1.104   9.304   8.812 -1.6652 -1.3156  0.3517
  898MOL0     H18503   1.113   9.250   8.645  1.2924  2.7235  0.5554
  898MOL0     H18504   1.336   9.222   8.656  0.5322 -0.7551  0.7283
  898MOL0     H18505   1.359   9.248   8.831 -1.4106 -0.0705  1.2859
  898MOL0     H18506   1.283   9.482   8.818  1.6803  0.1117  1.2354
  898MOL0     H18507   1.242   9.470   8.652 -1.8600  2.0797  3.2980
  898MOL0     H18508   1.504   9.446   8.801  1.5936  2.2889  0.8945
  898MOL0     H18509   1.483   9.419   8.625 -3.1004 -1.0939  0.5964
  898MOL0     H18510   1.460   9.672   8.783 -0.9087  1.2080 -0.9491
  898MOL0     H18511   1.382   9.657   8.626 -0.8646  0.1974  1.5130
  898MOL0     H18512   1.592   9.619   8.519  0.9222  3.6904 -0.5768
  898MOL0     H18513   1.684   9.616   8.675 -0.2463  0.1332  1.1218
  898MOL0     H18514   1.538   9.866   8.561  0.9869  1.8650  1.2468
  898MOL0     H18515   1.609   9.849   8.725  1.4674 -0.2725  0.2245
  898MOL0     H18516   1.831   9.821   8.622 -1.4618 -0.6275  0.5060
  898MOL0     H18517   1.756   9.976   8.573  0.0827  0.2717 -0.6050
  898MOL0     H18518   0.892   9.240   8.758  1.3797  0.0772 -2.1642
  898MOL0     H18519   0.666   9.116   8.737 -0.2039  2.3732  3.2372
  898MOL0     H18520   0.367   8.922   8.753  0.1555 -0.3132  1.1403
  898MOL0     H18521   0.129   8.831   8.760 -0.4553 -1.3405 -0.3471
  898MOL0     H18522   0.497   7.948   8.350 -3.1869  3.5285 -2.1214
  898MOL0     H18523   0.733   7.890   8.361 -0.7027  0.1047 -0.1120
  898MOL0     H18524   1.149   8.137   8.511  2.6048  2.2282 -1.0169
  898MOL0     H18525   1.382   8.114   8.569  0.6761  1.3009 -0.0364
  898MOL0     H18526   1.727   7.812   8.520  0.0998 -3.1070  2.7380
  898MOL0     H18527   1.631   7.776   8.385  1.5165 -0.1737  0.3713
  898MOL0     H18528   1.465   7.643   8.523 -2.4149  0.3192  4.6559
  898MOL0     H18529   1.632   7.590   8.546  1.1187 -0.5972  3.1306
  898MOL0     H18530   1.460   7.765   8.734 -0.4253  0.3210 -1.4823
  898MOL0     H18531   1.632   7.755   8.753  0.2147 -0.8059  0.5546
  898MOL0     H18532   1.407   7.546   8.778  0.5072 -4.5806  0.0869
  898MOL0     H18533   1.570   7.492   8.738 -1.1782 -0.7959 -0.0929
  898MOL0     H18534   1.599   7.632   9.142  0.9622  3.1618 -1.5201
  898MOL0     H18535   1.406   7.757   8.317 -3.3728 -2.8595  0.6751
  898MOL0     H18536   1.180   7.783   8.260 -2.4266 -0.3490  0.0946
  899MOL0     O18537   2.135   2.794   8.929  0.3484 -0.2088  0.2069
  899MOL0     C18538   2.132   2.797   8.808 -0.6612  0.0587  0.4495
  899MOL0     O18539   2.022   2.742   8.733 -0.6917 -0.7829 -0.3207
  899MOL0     C18540   1.902   2.754   8.794  0.3351 -0.3523 -0.9213
  899MOL0     C18541   1.860   2.658   8.890  0.9043 -0.6227 -0.7908
  899MOL0     C18542   1.732   2.680   8.946 -0.6810  0.0108 -0.2156
  899MOL0     C18543   1.646   2.782   8.917  0.8107 -0.4347  0.5981
  899MOL0     O18544   1.516   2.785   8.968 -0.1882  0.3148 -0.6696
  899MOL0     C18545   1.428   2.713   8.880 -0.7055  0.2293 -0.0356
  899MOL0     C18546   1.289   2.695   8.939 -0.1534 -0.2375  0.6783
  899MOL0     C18547   1.187   2.673   8.835 -0.0808  1.0185 -0.8003
  899MOL0     C18548   1.049   2.669   8.899  0.1014 -0.0261  0.1264
  899MOL0     C18549   0.930   2.633   8.804 -0.2154  0.0426 -0.6106
  899MOL0     C18550   0.823   2.562   8.890  0.2715 -0.3506  0.2355
  899MOL0     C18551   0.708   2.530   8.802 -0.0722 -0.3831 -0.2575
  899MOL0     C18552   0.722   2.420   8.691  0.1355  0.6098 -0.1886
  899MOL0     N18553   0.593   2.385   8.628  0.0816 -0.0753 -0.3117
  899MOL0     C18554   0.506   2.482   8.582  0.7694 -0.1349 -0.0367
  899MOL0     C18555   0.403   2.417   8.528 -0.2362 -0.2203  0.9902
  899MOL0     C18556   0.292   2.498   8.455 -0.0600  1.5152  0.9187
  899MOL0     C18557   0.160   2.503   8.528 -0.5097  1.4277 -0.1278
  899MOL0     C18558   0.055   2.577   8.442  0.2715 -1.8114  0.2792
  899MOL0     C18559  -0.081   2.576   8.509 -0.0227 -0.7742  0.4658
  899MOL0     O18560  -0.182   2.633   8.414 -0.5830  0.0879 -0.3635
  899MOL0     C18561  -0.307   2.670   8.467  0.1591  0.2249  1.4326
  899MOL0     C18562  -0.339   2.721   8.589 -0.3429  0.1075 -0.6041
  899MOL0     C18563  -0.470   2.744   8.628  0.0812 -0.6800  0.4091
  899MOL0     C18564  -0.581   2.720   8.545 -0.0673  0.8939 -0.2968
  899MOL0     C18565  -0.716   2.766   8.584 -0.1549  1.0390 -0.1651
  899MOL0     O18566  -0.823   2.710   8.516 -0.0803  1.3384 -0.4640
  899MOL0     C18567  -0.949   2.702   8.560  0.2001 -0.5200 -0.2805
  899MOL0     C18568  -0.985   2.671   8.691 -0.4151  0.1686 -0.1505
  899MOL0     C18569  -1.117   2.668   8.731 -0.0978 -0.2930  0.3087
  899MOL0     C18570  -1.216   2.698   8.640  0.6577 -0.7893 -0.2019
  899MOL0     O18571  -1.347   2.689   8.679 -0.8490 -0.0727 -0.2810
  899MOL0     C18572  -1.431   2.802   8.631  0.0181  0.7401 -0.5003
  899MOL0     C18573  -1.544   2.816   8.736 -0.6094 -0.1898  0.0489
  899MOL0     C18574  -1.622   2.938   8.690 -1.2315  1.0837  0.1515
  899MOL0     C18575  -1.739   2.900   8.602  0.1887 -0.7023 -0.0104
  899MOL0     C18576  -1.798   3.033   8.550  0.7076  0.3978 -0.5571
  899MOL0     C18577  -1.915   2.986   8.475  0.3924  0.1684  0.3465
  899MOL0     C18578  -1.975   3.094   8.397  0.1488 -0.4445 -0.2102
  899MOL0     C18579  -2.096   3.049   8.327  0.9348 -0.3047 -0.2679
  899MOL0    Cl18580  -2.230   3.017   8.445 -0.2197 -0.1487 -0.5562
  899MOL0     C18581  -1.180   2.721   8.507 -0.0787  1.9438  0.5216
  899MOL0     C18582  -1.049   2.720   8.466 -0.0142 -0.5463 -0.0400
  899MOL0     O18583  -0.728   2.838   8.686  0.2296 -0.3882 -0.4665
  899MOL0     C18584  -0.551   2.670   8.417  0.5438 -0.5761  0.1306
  899MOL0     C18585  -0.417   2.659   8.382  0.2036 -0.2450 -0.3105
  899MOL0     N18586   0.433   2.284   8.538 -0.2190  0.0170  0.6564
  899MOL0     N18587   0.552   2.260   8.590 -0.2983 -0.5487 -0.2603
  899MOL0     C18588   1.696   2.883   8.844  0.2697  0.0201 -0.1439
  899MOL0     C18589   1.827   2.880   8.787  0.1479 -0.0572 -0.1521
  899MOL0     C18590   2.235   2.878   8.733 -0.8740  0.1363  0.5778
  899MOL0     C18591   2.351   2.925   8.794  0.5138 -0.2971 -0.1259
  899MOL0     C18592   2.453   2.988   8.724 -0.2867  0.5066  1.0639
  899MOL0     C18593   2.446   3.008   8.584  0.1708 -0.0659 -0.1288
  899MOL0     O18594   2.534   3.070   8.497 -0.0360  0.0070 -0.2746
  899MOL0     C18595   2.604   3.182   8.555 -1.7329  0.0517  0.2202
  899MOL0     C18596   2.729   3.143   8.632 -0.5125 -0.7196  0.7628
  899MOL0     C18597   2.734   3.208   8.769  0.2563 -0.0508  0.1727
  899MOL0     C18598   2.835   3.124   8.847  0.8948  1.3912  0.5287
  899MOL0     C18599   2.854   3.158   8.986 -0.1432  0.6204  0.2855
  899MOL0     C18600   2.877   3.201   9.098 -0.3759  0.2526  0.1390
  899MOL0     C18601   2.329   2.968   8.517  0.4715 -0.1917 -0.4788
  899MOL0     C18602   2.224   2.899   8.598 -0.3762 -0.2056  0.0403
  899MOL0     H18603   1.918   2.567   8.906 -1.9516 -2.4938 -0.3446
  899MOL0     H18604   1.696   2.596   9.005  0.3749  0.7422  1.5405
  899MOL0     H18605   1.467   2.615   8.850 -0.9403  0.2909 -0.5445
  899MOL0     H18606   1.413   2.770   8.788  3.2684  2.5154  0.5253
  899MOL0     H18607   1.261   2.790   8.985 -0.8040 -1.0188  1.9319
  899MOL0     H18608   1.283   2.612   9.010  0.8222  1.1790  2.5095
  899MOL0     H18609   1.194   2.570   8.799 -0.5745  1.0403 -0.9714
  899MOL0     H18610   1.199   2.744   8.752 -0.8005  1.1341 -0.8111
  899MOL0     H18611   1.055   2.590   8.975 -1.3510 -0.6075 -0.3281
  899MOL0     H18612   1.040   2.755   8.966  1.9281  1.0633 -0.9540
  899MOL0     H18613   0.966   2.558   8.733 -1.6069 -0.4257 -0.8533
  899MOL0     H18614   0.880   2.722   8.766 -1.5256 -0.4800 -0.1500
  899MOL0     H18615   0.799   2.621   8.978 -1.7105 -1.8071  0.7285
  899MOL0     H18616   0.859   2.468   8.934 -0.0905 -0.0806  1.1301
  899MOL0     H18617   0.628   2.494   8.867 -1.7905  3.0142 -0.2739
  899MOL0     H18618   0.670   2.623   8.758  1.6819  0.5907  0.1926
  899MOL0     H18619   0.780   2.338   8.736  2.2008  2.3485  0.5026
  899MOL0     H18620   0.790   2.459   8.615 -0.0421  0.2553 -0.5338
  899MOL0     H18621   0.522   2.589   8.591  0.6336 -0.3088  4.0502
  899MOL0     H18622   0.278   2.447   8.359  0.5322  0.4553  1.3793
  899MOL0     H18623   0.321   2.600   8.428  2.2142  0.3004 -1.7088
  899MOL0     H18624   0.175   2.536   8.631  2.2292 -1.3892  0.5276
  899MOL0     H18625   0.128   2.398   8.533  3.5540  0.0302 -0.0331
  899MOL0     H18626   0.090   2.680   8.434 -2.4963 -0.7685  0.6341
  899MOL0     H18627   0.050   2.534   8.342 -3.7813  0.1046 -0.5428
  899MOL0     H18628  -0.082   2.636   8.600 -1.1603 -1.9655  1.2803
  899MOL0     H18629  -0.108   2.472   8.529 -2.1482 -0.5117 -0.7108
  899MOL0     H18630  -0.272   2.750   8.669 -3.2874  2.7855  1.1096
  899MOL0     H18631  -0.482   2.785   8.727  2.7042 -0.5569  0.7665
  899MOL0     H18632  -0.911   2.672   8.771 -1.3414 -3.2997  0.9268
  899MOL0     H18633  -1.146   2.642   8.833 -2.1656 -1.9294 -0.6193
  899MOL0     H18634  -1.476   2.768   8.537  0.8742  0.0418 -0.6648
  899MOL0     H18635  -1.374   2.894   8.612  3.7035 -1.5711 -1.7642
  899MOL0     H18636  -1.498   2.832   8.834  3.4147  0.4859 -1.7511
  899MOL0     H18637  -1.617   2.735   8.741 -2.8237  1.6427 -0.8210
  899MOL0     H18638  -1.552   3.005   8.639 -0.7560  0.0346 -0.5888
  899MOL0     H18639  -1.659   2.982   8.783 -4.0188 -1.3255  0.3280
  899MOL0     H18640  -1.688   2.840   8.525  1.8357 -0.8602  1.1682
  899MOL0     H18641  -1.805   2.833   8.658  0.7164 -0.2559  1.1666
  899MOL0     H18642  -1.728   3.087   8.484  1.7252  0.4502  0.5211
  899MOL0     H18643  -1.828   3.097   8.634 -1.3352  0.0463 -0.9820
  899MOL0     H18644  -1.990   2.949   8.546  1.0298  0.1001  1.0076
  899MOL0     H18645  -1.902   2.904   8.403  1.1996  2.3822 -2.1764
  899MOL0     H18646  -1.987   3.183   8.460  0.9073  0.1437 -0.8534
  899MOL0     H18647  -1.911   3.114   8.310  0.3799 -3.2573 -0.7836
  899MOL0     H18648  -2.074   2.948   8.293 -1.0225 -1.0434  0.5245
  899MOL0     H18649  -2.136   3.120   8.253 -1.7044  0.5800  1.8382
  899MOL0     H18650  -1.254   2.728   8.428 -1.0740 -2.1233  0.8394
  899MOL0     H18651  -1.024   2.747   8.364  0.2274 -0.3048  0.0851
  899MOL0     H18652  -0.629   2.648   8.346 -0.5419  2.2505  0.2859
  899MOL0     H18653  -0.393   2.611   8.288  1.4628 -2.5439  1.0958
  899MOL0     H18654   1.632   2.963   8.808  1.1464  0.8398  0.0866
  899MOL0     H18655   1.868   2.961   8.727  1.3959 -0.8427 -0.3930
  899MOL0     H18656   2.376   2.893   8.895  4.4181  0.8353 -0.5530
  899MOL0     H18657   2.546   3.010   8.777 -0.4673  1.8067  0.8729
  899MOL0     H18658   2.542   3.250   8.614  0.1824  2.0048  0.1127
  899MOL0     H18659   2.635   3.235   8.465  0.1368  0.8096  1.2500
  899MOL0     H18660   2.740   3.034   8.635  0.4442 -0.6171  2.3341
  899MOL0     H18661   2.808   3.193   8.576  0.5720 -1.1756  1.8420
  899MOL0     H18662   2.631   3.206   8.807  0.4318  1.0052  0.7281
  899MOL0     H18663   2.763   3.313   8.772 -1.9939  0.7439 -2.2042
  899MOL0     H18664   2.816   3.016   8.840  0.4197  1.3392  2.1808
  899MOL0     H18665   2.928   3.148   8.794  0.2806  1.7381 -0.4195
  899MOL0     H18666   2.901   3.210   9.202  1.3010 -5.2854  0.5331
  899MOL0     H18667   2.325   2.995   8.412  2.2948  3.6018  0.2404
  899MOL0     H18668   2.138   2.893   8.532  0.0238  2.1942 -0.8302
  900MOL0     O18669   0.476   4.701   3.168 -0.3458 -0.4842  0.2262
  900MOL0     C18670   0.489   4.704   3.045  0.1299 -0.4444 -0.6009
  900MOL0     O18671   0.393   4.748   2.958  0.2692 -0.2002  0.1981
  900MOL0     C18672   0.281   4.815   3.018  0.0868 -0.4131 -0.2553
  900MOL0     C18673   0.184   4.748   3.094 -0.2218 -0.7332 -0.0606
  900MOL0     C18674   0.080   4.814   3.159  0.3536 -0.1088  0.0094
  900MOL0     C18675   0.060   4.951   3.144  0.3985  0.4929 -0.4407
  900MOL0     O18676  -0.044   5.013   3.204  0.0989  0.4987 -1.1216
  900MOL0     C18677  -0.022   5.156   3.233  0.8948 -0.3035  0.3097
  900MOL0     C18678  -0.155   5.191   3.313 -0.8201 -0.1297  0.3106
  900MOL0     C18679  -0.136   5.146   3.458 -0.7477 -1.0072  0.0907
  900MOL0     C18680  -0.267   5.144   3.534 -0.5277  0.1287 -0.1902
  900MOL0     C18681  -0.239   5.122   3.691  0.1811  0.6216  0.4169
  900MOL0     C18682  -0.372   5.137   3.754  0.4241  0.1975 -0.2554
  900MOL0     C18683  -0.410   5.285   3.808 -0.8951 -0.4301 -0.4133
  900MOL0     C18684  -0.526   5.270   3.922 -0.4929  0.2210  1.4549
  900MOL0     N18685  -0.588   5.401   3.945  0.6015 -0.1992  0.6525
  900MOL0     C18686  -0.625   5.505   3.854 -0.1846 -0.0046 -0.4888
  900MOL0     C18687  -0.708   5.581   3.926 -0.0545 -0.2605  0.1655
  900MOL0     C18688  -0.792   5.691   3.862 -0.1901 -0.1936  0.4666
  900MOL0     C18689  -0.903   5.635   3.778  0.1136  0.2396 -0.8184
  900MOL0     C18690  -0.981   5.514   3.842  0.8872 -0.6484 -0.6657
  900MOL0     C18691  -1.093   5.449   3.771 -0.4255 -0.0680  0.2563
  900MOL0     O18692  -1.061   5.394   3.636 -0.9861 -0.0445 -0.0847
  900MOL0     C18693  -1.132   5.290   3.584 -0.4659  0.5360  0.6223
  900MOL0     C18694  -1.079   5.228   3.485 -0.1308 -0.4347  0.2939
  900MOL0     C18695  -1.144   5.126   3.416 -0.7685  0.5751  0.3778
  900MOL0     C18696  -1.267   5.070   3.469 -0.5989  0.2608  0.4222
  900MOL0     C18697  -1.358   4.966   3.392 -0.2868 -1.2123  1.3968
  900MOL0     O18698  -1.480   4.923   3.437 -0.6373  0.6195 -0.3273
  900MOL0     C18699  -1.518   4.800   3.385  0.9197  1.1448 -1.1280
  900MOL0     C18700  -1.461   4.679   3.439 -0.4585  0.9558  0.5950
  900MOL0     C18701  -1.502   4.560   3.396 -0.7189 -0.0551 -0.4217
  900MOL0     C18702  -1.611   4.541   3.318 -1.0153 -0.1424  0.6491
  900MOL0     O18703  -1.661   4.433   3.258  0.7809 -0.2028  0.2425
  900MOL0     C18704  -1.610   4.304   3.266 -0.3750 -0.4095  0.2470
  900MOL0     C18705  -1.705   4.209   3.186 -0.5156 -0.1313 -0.3738
  900MOL0     C18706  -1.643   4.061   3.182 -0.2677  0.3588 -0.9352
  900MOL0     C18707  -1.648   3.996   3.326 -0.0835 -0.2567 -0.0103
  900MOL0     C18708  -1.768   3.906   3.354  0.4132 -0.2167  0.4528
  900MOL0     C18709  -1.821   3.941   3.496 -0.2201  0.4742  0.1119
  900MOL0     C18710  -1.970   3.882   3.509  0.0960  0.4698 -0.5778
  900MOL0     C18711  -2.021   3.883   3.656 -0.3996  0.1049  0.3112
  900MOL0    Cl18712  -1.922   3.766   3.738  0.1661 -0.2778  0.1149
  900MOL0     C18713  -1.668   4.663   3.265 -0.5065  0.0909 -0.1260
  900MOL0     C18714  -1.626   4.788   3.304 -0.0127  0.3726  0.6869
  900MOL0     O18715  -1.309   4.926   3.290 -0.0544  0.4807  0.4794
  900MOL0     C18716  -1.312   5.125   3.584  0.5112  0.2084 -0.2411
  900MOL0     C18717  -1.246   5.233   3.641 -0.2564 -0.1648 -0.3988
  900MOL0     N18718  -0.739   5.529   4.046  0.6264  0.3160 -0.4301
  900MOL0     N18719  -0.657   5.424   4.057  0.6544  0.0639 -0.0741
  900MOL0     C18720   0.152   5.017   3.060  0.0855 -0.0017 -0.0950
  900MOL0     C18721   0.260   4.953   2.999  0.4902 -0.0979  0.4381
  900MOL0     C18722   0.620   4.694   2.982  0.0282 -0.7003  0.1919
  900MOL0     C18723   0.632   4.718   2.847 -0.8819  0.6665 -1.3235
  900MOL0     C18724   0.750   4.721   2.787 -1.0991  0.3035 -0.4402
  900MOL0     C18725   0.872   4.686   2.853  0.2647 -0.1888  1.0317
  900MOL0     O18726   0.989   4.695   2.780 -0.1525  0.5099 -0.1019
  900MOL0     C18727   1.113   4.692   2.849  0.5322 -0.1013 -0.1723
  900MOL0     C18728   1.232   4.702   2.750 -1.0472 -0.1891 -0.6643
  900MOL0     C18729   1.237   4.611   2.631  0.1898 -0.5325 -0.1507
  900MOL0     C18730   1.177   4.465   2.653 -0.9062 -0.1922 -0.5319
  900MOL0     C18731   1.264   4.390   2.747 -0.4380 -0.3944  0.0377
  900MOL0     C18732   1.333   4.334   2.831 -0.1782 -0.7302 -0.0420
  900MOL0     C18733   0.863   4.646   2.984 -1.0573  0.3602 -0.0564
  900MOL0     C18734   0.742   4.655   3.050  0.8811 -0.4289 -0.0053
  900MOL0     H18735   0.207   4.644   3.112 -2.5734 -1.1724  0.7581
  900MOL0     H18736   0.014   4.744   3.209  3.1172 -1.7706  1.6038
  900MOL0     H18737  -0.039   5.218   3.144 -2.3233 -0.5920  0.5957
  900MOL0     H18738   0.058   5.185   3.301  2.9881 -1.8268 -1.3571
  900MOL0     H18739  -0.245   5.150   3.265 -0.9310 -0.6266  0.9304
  900MOL0     H18740  -0.182   5.297   3.314 -0.5392 -0.0475 -0.3439
  900MOL0     H18741  -0.063   5.213   3.505 -1.4441 -1.7259  2.3084
  900MOL0     H18742  -0.088   5.048   3.467 -0.6523 -0.8505  1.6288
  900MOL0     H18743  -0.317   5.240   3.522  2.5228  1.8628 -0.0522
  900MOL0     H18744  -0.329   5.059   3.504 -1.2054  0.7598 -0.5768
  900MOL0     H18745  -0.167   5.197   3.723  2.2945 -1.2786  0.3289
  900MOL0     H18746  -0.182   5.029   3.704  3.2935  2.5666  1.6173
  900MOL0     H18747  -0.364   5.075   3.843  0.5852  0.0190 -0.3929
  900MOL0     H18748  -0.452   5.094   3.692 -1.0512 -0.6508  2.1162
  900MOL0     H18749  -0.326   5.336   3.855 -1.1711  0.0976 -0.4822
  900MOL0     H18750  -0.454   5.347   3.729  1.2610  1.7560 -0.0114
  900MOL0     H18751  -0.467   5.243   4.010  5.4554  0.0053 -2.0092
  900MOL0     H18752  -0.601   5.202   3.882 -0.9284  1.6807 -0.3476
  900MOL0     H18753  -0.599   5.523   3.750  0.1896  3.2169  0.0636
  900MOL0     H18754  -0.723   5.746   3.798  0.4435 -0.8304  0.5873
  900MOL0     H18755  -0.821   5.756   3.945 -0.4012  0.3154 -0.0040
  900MOL0     H18756  -0.858   5.599   3.685  1.7227 -0.1277  0.0485
  900MOL0     H18757  -0.975   5.711   3.748  0.8467  1.2112 -0.1687
  900MOL0     H18758  -0.905   5.437   3.856  1.1033 -0.0310  2.4914
  900MOL0     H18759  -1.022   5.538   3.941 -0.6550 -3.5958 -0.4727
  900MOL0     H18760  -1.163   5.532   3.753  2.7617  3.1289  1.3152
  900MOL0     H18761  -1.116   5.367   3.839 -0.2423  0.5189  1.0523
  900MOL0     H18762  -0.981   5.250   3.443 -0.9411 -1.5290 -2.3702
  900MOL0     H18763  -1.100   5.075   3.331  2.6723  1.8429  1.2454
  900MOL0     H18764  -1.382   4.693   3.512 -0.9798 -0.8650  1.5812
  900MOL0     H18765  -1.451   4.469   3.427  1.1781  1.0819 -0.0536
  900MOL0     H18766  -1.594   4.275   3.370  1.3793  0.9111  0.3772
  900MOL0     H18767  -1.511   4.310   3.221  1.1027  2.5890  3.4496
  900MOL0     H18768  -1.720   4.244   3.084 -3.1709  1.8519  0.5753
  900MOL0     H18769  -1.810   4.202   3.218 -1.2408  2.0624 -2.0543
  900MOL0     H18770  -1.549   4.041   3.130  0.8629 -3.3054  2.0458
  900MOL0     H18771  -1.711   3.998   3.124 -0.8623  0.2814 -0.1678
  900MOL0     H18772  -1.560   3.931   3.321  0.8322  1.0146 -1.1474
  900MOL0     H18773  -1.633   4.067   3.408  0.9302 -1.3759  0.8253
  900MOL0     H18774  -1.731   3.803   3.343  1.9340  0.1990  1.3198
  900MOL0     H18775  -1.844   3.930   3.279 -0.2726 -1.1147  0.8561
  900MOL0     H18776  -1.825   4.051   3.502 -1.0543  0.3921  4.8816
  900MOL0     H18777  -1.752   3.908   3.574 -0.5302 -0.1412  0.1271
  900MOL0     H18778  -2.033   3.931   3.434  2.0649 -1.3154 -3.6446
  900MOL0     H18779  -1.964   3.776   3.483 -3.3508  0.0041  0.1397
  900MOL0     H18780  -2.123   3.844   3.658 -0.0198 -0.8976  1.8595
  900MOL0     H18781  -2.024   3.981   3.704  1.1006 -0.8390  2.5269
  900MOL0     H18782  -1.747   4.662   3.191 -0.2755  0.8581 -0.3897
  900MOL0     H18783  -1.667   4.886   3.281  1.6939  1.2756  1.2673
  900MOL0     H18784  -1.404   5.103   3.638  1.3309 -2.5079  0.1883
  900MOL0     H18785  -1.274   5.271   3.739  4.6604 -2.2810  2.2238
  900MOL0     H18786   0.139   5.121   3.033 -0.8880  0.6314  2.5611
  900MOL0     H18787   0.328   5.010   2.938  1.4979  1.7992  3.1552
  900MOL0     H18788   0.546   4.756   2.795 -2.2947  4.0804  2.8786
  900MOL0     H18789   0.756   4.761   2.687 -0.4522  0.8779 -0.1768
  900MOL0     H18790   1.132   4.614   2.923 -2.8702  1.0029  2.1098
  900MOL0     H18791   1.126   4.780   2.913  1.5930 -1.4185  1.5066
  900MOL0     H18792   1.249   4.808   2.726  0.5430 -0.2099  0.2196
  900MOL0     H18793   1.322   4.673   2.806 -1.5166  0.2482  0.3350
  900MOL0     H18794   1.340   4.618   2.595  0.9760  2.4574  2.2395
  900MOL0     H18795   1.179   4.653   2.548  0.4439 -2.4782 -1.3736
  900MOL0     H18796   1.073   4.464   2.686 -1.8784  0.7909 -3.2665
  900MOL0     H18797   1.176   4.409   2.559  0.7820 -0.2581 -0.5486
  900MOL0     H18798   1.400   4.279   2.894 -0.6067 -2.3827 -0.9741
  900MOL0     H18799   0.951   4.599   3.027  0.2669  0.7171 -2.2291
  900MOL0     H18800   0.722   4.636   3.155  0.7291  1.8078  0.4263
  901MOL0     O18801   8.908   3.995   6.205  0.8232  0.1420 -0.0151
  901MOL0     C18802   8.895   4.119   6.210 -0.4051 -0.0347  0.3364
  901MOL0     O18803   8.998   4.213   6.174  0.2979 -0.0842  0.6855
  901MOL0     C18804   9.123   4.178   6.137  0.7969  0.5446 -0.2276
  901MOL0     C18805   9.182   4.231   6.026 -0.3644 -0.5805 -0.4938
  901MOL0     C18806   9.291   4.162   5.973 -0.2016 -0.2171  0.7948
  901MOL0     C18807   9.362   4.076   6.055  0.1906  0.3214 -0.0201
  901MOL0     O18808   9.473   4.023   5.991  0.1884  0.3322  0.4313
  901MOL0     C18809   9.492   3.882   6.014 -0.2525  0.3996 -0.5956
  901MOL0     C18810   9.600   3.821   5.934  0.3792  0.5769 -0.1120
  901MOL0     C18811   9.751   3.863   5.991  0.6080 -0.1513  0.3695
  901MOL0     C18812   9.843   3.797   5.887  0.8717 -0.4244  0.1972
  901MOL0     C18813   9.968   3.733   5.940  0.1407  0.0042 -0.4019
  901MOL0     C18814  10.021   3.626   5.847  0.1002 -0.0582 -0.0296
  901MOL0     C18815  10.142   3.541   5.897 -0.6048  0.1998  0.4583
  901MOL0     C18816  10.192   3.461   5.774  1.1882  0.0292 -0.2863
  901MOL0     N18817  10.089   3.381   5.713 -0.1212  1.0248 -0.2027
  901MOL0     C18818  10.020   3.273   5.767 -0.7437  0.0765 -0.6021
  901MOL0     C18819   9.925   3.252   5.672 -0.1252  1.5220  0.0772
  901MOL0     C18820   9.858   3.114   5.674  0.3527 -0.2589  0.4697
  901MOL0     C18821   9.710   3.134   5.698 -0.0238  0.3719 -0.6206
  901MOL0     C18822   9.651   2.995   5.731  0.0459 -0.0267 -0.1268
  901MOL0     C18823   9.522   2.999   5.822 -0.6214  0.1368 -0.4026
  901MOL0     O18824   9.416   3.056   5.752  0.7953  0.3472 -0.4594
  901MOL0     C18825   9.293   3.065   5.823 -0.1854  0.0830  0.3210
  901MOL0     C18826   9.287   3.101   5.953 -0.6327  0.5268  0.4086
  901MOL0     C18827   9.160   3.121   6.015  0.6048 -0.0810  0.2832
  901MOL0     C18828   9.041   3.091   5.950 -0.3827  0.8436  0.0419
  901MOL0     C18829   8.909   3.109   6.011  0.9662 -0.4078  0.7780
  901MOL0     O18830   8.903   3.126   6.147  0.1402 -0.2514  0.4080
  901MOL0     C18831   8.786   3.164   6.214  0.1493  0.3527 -0.3466
  901MOL0     C18832   8.794   3.211   6.346 -0.6518 -0.0095  0.4290
  901MOL0     C18833   8.682   3.254   6.420  0.8365  0.8008 -1.0574
  901MOL0     C18834   8.553   3.242   6.362 -0.4776  0.0187 -0.2092
  901MOL0     O18835   8.442   3.284   6.432 -0.4859 -0.6006 -0.3690
  901MOL0     C18836   8.316   3.308   6.362  0.5984 -0.9202  0.3940
  901MOL0     C18837   8.233   3.390   6.458  0.0874  0.2724  0.1286
  901MOL0     C18838   8.097   3.415   6.390 -0.5564 -0.5737  0.1973
  901MOL0     C18839   7.985   3.451   6.486  0.8878 -0.7730 -0.6871
  901MOL0     C18840   8.003   3.594   6.543  0.2256 -0.3294 -0.2303
  901MOL0     C18841   8.036   3.708   6.437 -0.5302  0.5790  0.6827
  901MOL0     C18842   7.924   3.749   6.343  0.3042  0.2737 -0.2673
  901MOL0     C18843   7.943   3.899   6.299  0.5973  0.3947  0.1406
  901MOL0    Cl18844   7.882   3.992   6.444  0.0481 -0.0467  0.4141
  901MOL0     C18845   8.542   3.195   6.226 -0.6966  0.0512 -0.7113
  901MOL0     C18846   8.656   3.160   6.158  0.0819 -0.8199  0.1088
  901MOL0     O18847   8.813   3.106   5.936  0.1426 -0.3012 -0.1482
  901MOL0     C18848   9.051   3.038   5.820  0.0634  0.1171 -0.2327
  901MOL0     C18849   9.173   3.036   5.754  0.5127 -0.0432 -0.0181
  901MOL0     N18850   9.942   3.339   5.571 -0.3711  0.1552  0.0390
  901MOL0     N18851  10.045   3.413   5.594 -0.1347 -0.1671  0.1198
  901MOL0     C18852   9.310   4.032   6.180 -0.6352 -0.8002  1.0995
  901MOL0     C18853   9.192   4.086   6.224  1.0569 -0.0363  0.4524
  901MOL0     C18854   8.766   4.176   6.248  0.2372  0.2892 -0.7676
  901MOL0     C18855   8.672   4.095   6.308  1.5217 -0.2439 -1.0100
  901MOL0     C18856   8.552   4.136   6.360  0.2683 -0.9073 -0.4728
  901MOL0     C18857   8.529   4.269   6.366 -0.6799  0.0135 -0.4806
  901MOL0     O18858   8.428   4.327   6.437  0.3420 -0.6840  0.0117
  901MOL0     C18859   8.324   4.240   6.494  0.1854 -0.1461  0.3022
  901MOL0     C18860   8.190   4.305   6.542 -0.6374  0.7728  0.3454
  901MOL0     C18861   8.104   4.359   6.429 -0.8988  0.0540  0.3273
  901MOL0     C18862   7.975   4.425   6.470 -1.5993  0.7664  0.7192
  901MOL0     C18863   7.981   4.514   6.584  0.0827 -0.7182  0.3586
  901MOL0     C18864   7.993   4.594   6.680 -0.1535  0.3612 -0.0929
  901MOL0     C18865   8.626   4.358   6.314  0.0767  0.6803  0.4426
  901MOL0     C18866   8.748   4.313   6.258 -0.0718  0.4186  0.5960
  901MOL0     H18867   9.126   4.310   5.978 -2.9634 -0.7727  1.9570
  901MOL0     H18868   9.330   4.180   5.874  1.7562 -2.0577  1.1478
  901MOL0     H18869   9.398   3.837   5.982  0.4874 -0.4195 -1.7196
  901MOL0     H18870   9.522   3.869   6.119  1.9511 -0.2017 -1.2367
  901MOL0     H18871   9.574   3.848   5.831  0.9312 -0.8681 -0.6561
  901MOL0     H18872   9.603   3.713   5.947  0.2670  0.7278  1.2582
  901MOL0     H18873   9.760   3.806   6.084 -2.4557 -0.2450  0.7138
  901MOL0     H18874   9.771   3.971   5.999  0.1592 -0.0934  0.7663
  901MOL0     H18875   9.788   3.716   5.837  1.9681  1.3362 -4.3531
  901MOL0     H18876   9.860   3.876   5.813  0.2906  0.0675  0.5779
  901MOL0     H18877   9.947   3.680   6.033 -0.0896 -0.0294 -0.4727
  901MOL0     H18878  10.041   3.811   5.964 -0.4613 -0.3055  2.7901
  901MOL0     H18879  10.039   3.677   5.752  0.3990  1.9485  1.0383
  901MOL0     H18880   9.936   3.563   5.820  0.0737  0.8725 -2.3533
  901MOL0     H18881  10.221   3.611   5.922 -1.1206  0.3430  1.7710
  901MOL0     H18882  10.123   3.479   5.986  0.0583 -0.0141  0.4541
  901MOL0     H18883  10.274   3.396   5.803  0.7948  0.9635  3.4080
  901MOL0     H18884  10.241   3.532   5.707  0.1602  1.7558  0.7051
  901MOL0     H18885  10.056   3.220   5.855 -0.5048  0.2374 -0.6023
  901MOL0     H18886   9.905   3.057   5.755 -0.8657  1.0287  2.1756
  901MOL0     H18887   9.874   3.061   5.580  2.6620 -0.5950  0.9914
  901MOL0     H18888   9.664   3.167   5.604  0.6736 -0.1133 -1.1412
  901MOL0     H18889   9.707   3.205   5.782 -0.2977 -0.4340  0.0688
  901MOL0     H18890   9.636   2.938   5.638 -3.0814 -2.0380  1.4308
  901MOL0     H18891   9.718   2.933   5.791 -0.5725  1.6999  2.4625
  901MOL0     H18892   9.553   3.058   5.908  2.8889 -3.1993  0.8946
  901MOL0     H18893   9.504   2.896   5.855  0.8816 -0.1720 -0.4538
  901MOL0     H18894   9.376   3.127   6.009 -0.4054 -0.1004  0.3474
  901MOL0     H18895   9.159   3.158   6.117  1.0686 -2.7153  1.3340
  901MOL0     H18896   8.892   3.221   6.391 -0.7683  0.2525  0.6242
  901MOL0     H18897   8.692   3.301   6.517  2.6616  0.5941 -1.1130
  901MOL0     H18898   8.255   3.220   6.342 -3.4002  1.4572  1.0476
  901MOL0     H18899   8.327   3.375   6.276  2.6470  0.5228  1.6977
  901MOL0     H18900   8.282   3.481   6.494  3.7712 -1.6536  0.4648
  901MOL0     H18901   8.217   3.332   6.550  2.4235 -1.8472 -0.6973
  901MOL0     H18902   8.062   3.322   6.344  1.7717  0.7750 -5.1159
  901MOL0     H18903   8.126   3.481   6.308  4.2338 -0.8374  1.3479
  901MOL0     H18904   7.885   3.460   6.444  0.6640 -0.6865 -0.1428
  901MOL0     H18905   7.982   3.386   6.575 -0.6420  0.0700 -0.0860
  901MOL0     H18906   8.081   3.606   6.618 -3.1728 -3.2377  4.2900
  901MOL0     H18907   7.913   3.621   6.600  1.5769  0.4071  1.6412
  901MOL0     H18908   8.127   3.689   6.379 -1.3432  1.5394 -0.9969
  901MOL0     H18909   8.067   3.789   6.504  2.1109 -0.8552  1.3414
  901MOL0     H18910   7.935   3.695   6.249 -3.5145 -1.1469 -0.0893
  901MOL0     H18911   7.824   3.735   6.385 -0.5405  1.1518 -1.8845
  901MOL0     H18912   7.869   3.925   6.222 -0.9092  0.2533  1.4960
  901MOL0     H18913   8.046   3.914   6.265  1.3489 -1.8457  1.2342
  901MOL0     H18914   8.450   3.182   6.169  0.7300  1.9244 -3.7315
  901MOL0     H18915   8.618   3.140   6.058  1.0865  0.7362 -0.6313
  901MOL0     H18916   8.967   2.990   5.770  0.4943 -0.9987  0.0892
  901MOL0     H18917   9.181   3.009   5.649  1.7582  2.8799 -0.7621
  901MOL0     H18918   9.363   3.963   6.245  1.7366 -0.2779 -0.1536
  901MOL0     H18919   9.136   4.061   6.314  0.1826  1.3858  0.3354
  901MOL0     H18920   8.691   3.988   6.312  0.4742 -0.4073  0.6572
  901MOL0     H18921   8.498   4.060   6.416  0.2178  0.1615  0.9857
  901MOL0     H18922   8.367   4.183   6.577  0.2478 -0.2351  0.2115
  901MOL0     H18923   8.302   4.162   6.420  2.6256 -3.5156  2.7916
  901MOL0     H18924   8.137   4.229   6.601  0.3609  0.0259  0.2982
  901MOL0     H18925   8.227   4.382   6.611  2.4669  1.8304 -2.2598
  901MOL0     H18926   8.095   4.270   6.366  2.4444 -0.2245  0.0527
  901MOL0     H18927   8.172   4.425   6.373 -1.2556  0.2864  0.1662
  901MOL0     H18928   7.957   4.491   6.385  1.2518  1.0064  0.1971
  901MOL0     H18929   7.900   4.348   6.489 -1.5301  0.8615  1.4113
  901MOL0     H18930   8.010   4.658   6.764 -2.0873  1.3212 -0.3863
  901MOL0     H18931   8.619   4.464   6.339 -0.3471  0.6829  0.3066
  901MOL0     H18932   8.829   4.383   6.237  0.4498  0.2468  1.9146
  902MOL0     O18933   4.694   8.961   7.283 -0.3491 -0.0584 -0.2753
  902MOL0     C18934   4.745   8.993   7.385 -0.6633 -0.3751 -0.2215
  902MOL0     O18935   4.679   9.017   7.505  0.7140  0.2148  0.3577
  902MOL0     C18936   4.550   8.977   7.529 -1.0083 -0.0145 -0.0113
  902MOL0     C18937   4.509   8.848   7.500  0.2866  0.0010 -0.8810
  902MOL0     C18938   4.381   8.802   7.535  0.6863 -0.6740 -1.5017
  902MOL0     C18939   4.299   8.894   7.611  0.8727 -0.1273 -0.1274
  902MOL0     O18940   4.180   8.862   7.662  0.0885 -0.0308 -0.3764
  902MOL0     C18941   4.107   8.763   7.599  0.7011 -0.4557 -0.0462
  902MOL0     C18942   3.963   8.764   7.647 -0.2106 -0.0126  0.5085
  902MOL0     C18943   3.951   8.719   7.795  0.6367  0.3025  0.8158
  902MOL0     C18944   3.808   8.723   7.839  0.3336 -0.1605  0.0511
  902MOL0     C18945   3.782   8.652   7.976 -0.5212 -0.3790  0.7415
  902MOL0     C18946   3.652   8.671   8.052 -0.4878  0.5122  0.1079
  902MOL0     C18947   3.554   8.557   8.021  0.5805  0.3788  0.9112
  902MOL0     C18948   3.579   8.408   8.072 -0.2409  0.0619 -0.5311
  902MOL0     N18949   3.586   8.405   8.215 -0.5395 -0.9676  0.3851
  902MOL0     C18950   3.485   8.359   8.295  0.4495  0.2160 -0.2828
  902MOL0     C18951   3.512   8.398   8.424 -0.9482 -0.0012 -0.0582
  902MOL0     C18952   3.433   8.351   8.540 -0.4154  0.4948 -0.1961
  902MOL0     C18953   3.466   8.423   8.670 -0.3814 -0.0122 -0.2620
  902MOL0     C18954   3.399   8.348   8.789  0.4898 -0.2835  0.3338
  902MOL0     C18955   3.264   8.407   8.836  0.4544 -0.3302  0.5187
  902MOL0     O18956   3.204   8.329   8.933 -0.3076 -0.1492 -0.2831
  902MOL0     C18957   3.072   8.351   8.951 -0.0264  0.4749 -0.7330
  902MOL0     C18958   3.004   8.457   8.888  0.7300  0.3664  0.3061
  902MOL0     C18959   2.869   8.479   8.923  0.5532 -0.7045  0.5730
  902MOL0     C18960   2.796   8.379   8.988 -0.1213  0.8935  0.6157
  902MOL0     C18961   2.650   8.392   8.997  0.0305 -1.0841  0.4148
  902MOL0     O18962   2.582   8.339   9.102  0.1491  0.5937 -0.5056
  902MOL0     C18963   2.449   8.335   9.105  0.5682 -0.7097 -0.3254
  902MOL0     C18964   2.365   8.446   9.113  0.3224 -0.2259 -0.0008
  902MOL0     C18965   2.226   8.424   9.118  0.0847  0.4853  0.1538
  902MOL0     C18966   2.173   8.293   9.106 -0.7866 -0.3474  0.0725
  902MOL0     O18967   2.029   8.284   9.115 -0.5218 -0.3303 -0.3711
  902MOL0     C18968   1.970   8.158   9.064  0.8339 -0.3289 -0.0308
  902MOL0     C18969   1.819   8.169   9.068  0.1794  0.0363  0.1425
  902MOL0     C18970   1.741   8.046   9.014 -0.2673  0.2627  0.4580
  902MOL0     C18971   1.591   8.070   9.038 -0.4015  0.2358  0.6690
  902MOL0     C18972   1.527   8.145   8.921  1.0899 -0.4731  0.4854
  902MOL0     C18973   1.389   8.209   8.970 -0.2224 -0.4790 -0.7497
  902MOL0     C18974   1.302   8.247   8.849 -0.6046  0.0517 -0.3157
  902MOL0     C18975   1.179   8.332   8.868  0.4107 -0.6453  0.6802
  902MOL0    Cl18976   1.085   8.271   9.008 -0.5257 -0.3035 -0.3616
  902MOL0     C18977   2.254   8.182   9.092 -0.5709  0.5725 -0.1715
  902MOL0     C18978   2.390   8.207   9.087  0.4320 -0.2314 -0.1969
  902MOL0     O18979   2.598   8.456   8.907  0.6506 -0.3885 -0.3113
  902MOL0     C18980   2.866   8.267   9.044 -1.3815  0.4401 -0.1509
  902MOL0     C18981   3.002   8.253   9.027 -0.7990  0.6574  1.2448
  902MOL0     N18982   3.617   8.485   8.416 -0.0323 -0.4551 -0.4358
  902MOL0     N18983   3.663   8.487   8.294  0.5148 -0.2852  0.6969
  902MOL0     C18984   4.348   9.019   7.647  0.2302 -0.5268  0.1660
  902MOL0     C18985   4.468   9.058   7.609 -0.3231 -0.3804 -0.3389
  902MOL0     C18986   4.885   8.998   7.381 -0.3602  0.4616  0.4179
  902MOL0     C18987   4.955   9.071   7.477 -0.2942 -0.4304 -0.0609
  902MOL0     C18988   5.095   9.077   7.477  0.6678  0.0463 -0.7640
  902MOL0     C18989   5.167   8.989   7.386  0.8500 -0.6650  0.2688
  902MOL0     O18990   5.305   8.994   7.408 -0.3898 -0.3466  0.4213
  902MOL0     C18991   5.392   8.881   7.378  0.7931 -0.2623  0.0705
  902MOL0     C18992   5.542   8.905   7.400  0.7102  0.0320 -0.7510
  902MOL0     C18993   5.555   8.930   7.557 -0.0350  0.3580 -0.1880
  902MOL0     C18994   5.668   9.027   7.590  0.0498 -0.6736 -0.7955
  902MOL0     C18995   5.803   8.964   7.574  0.1837  0.5018 -0.4062
  902MOL0     C18996   5.907   8.897   7.567 -0.0437  0.2298  0.2834
  902MOL0     C18997   5.096   8.905   7.304  0.0213  0.3728  0.1667
  902MOL0     C18998   4.958   8.909   7.295 -0.5942 -0.4527 -0.3915
  902MOL0     H18999   4.572   8.772   7.455  1.1121 -0.5334  1.0636
  902MOL0     H19000   4.344   8.703   7.512  0.1057 -0.4834 -1.3921
  902MOL0     H19001   4.143   8.664   7.626 -0.4779 -0.8047  0.3111
  902MOL0     H19002   4.089   8.789   7.494 -1.5252 -1.5884 -0.0089
  902MOL0     H19003   3.914   8.692   7.580  0.4721 -1.1344  1.1912
  902MOL0     H19004   3.925   8.866   7.645  4.1238  1.8602  2.6318
  902MOL0     H19005   4.014   8.783   7.859  1.0171  1.6313 -0.7956
  902MOL0     H19006   3.985   8.618   7.816  1.0980  0.3867  0.5064
  902MOL0     H19007   3.782   8.829   7.850  1.1428  0.5264 -3.4471
  902MOL0     H19008   3.736   8.680   7.768 -0.7626 -0.5211  1.3296
  902MOL0     H19009   3.862   8.680   8.045 -1.7259 -0.0305  2.0424
  902MOL0     H19010   3.807   8.547   7.957 -3.2960 -1.2280  1.4310
  902MOL0     H19011   3.601   8.764   8.024 -3.6765 -1.3430 -0.8286
  902MOL0     H19012   3.674   8.678   8.159 -0.9689 -0.6364  0.2918
  902MOL0     H19013   3.451   8.571   8.057  0.8058  0.9189  1.3689
  902MOL0     H19014   3.529   8.567   7.915  2.3368 -0.1399  0.4266
  902MOL0     H19015   3.669   8.359   8.033 -1.7065 -1.9117 -1.6272
  902MOL0     H19016   3.489   8.351   8.048  0.4271 -1.4522  0.3805
  902MOL0     H19017   3.396   8.299   8.280 -0.6340  0.7847  3.0552
  902MOL0     H19018   3.464   8.247   8.555 -2.2579 -0.0149  0.3397
  902MOL0     H19019   3.328   8.377   8.523 -0.1301  2.0028  0.2384
  902MOL0     H19020   3.445   8.529   8.660  0.3604  0.7697  4.3009
  902MOL0     H19021   3.574   8.429   8.688 -0.1408 -0.9063 -1.2912
  902MOL0     H19022   3.404   8.241   8.768  3.8907 -0.0748 -0.3560
  902MOL0     H19023   3.452   8.347   8.884 -1.2998 -2.0224  1.3983
  902MOL0     H19024   3.204   8.421   8.745 -1.8393  0.1105  2.0093
  902MOL0     H19025   3.280   8.501   8.889 -0.4531 -1.8170  3.6753
  902MOL0     H19026   3.055   8.534   8.832  2.0981 -2.3407 -2.4265
  902MOL0     H19027   2.811   8.567   8.900 -2.3352 -2.8110 -0.7727
  902MOL0     H19028   2.407   8.546   9.102  0.7373 -0.6627 -3.1572
  902MOL0     H19029   2.153   8.502   9.137 -0.4078  1.0518 -3.4615
  902MOL0     H19030   1.994   8.073   9.129 -1.2108 -0.3846  0.6952
  902MOL0     H19031   2.010   8.137   8.964  1.2852  2.3922 -0.4807
  902MOL0     H19032   1.801   8.248   8.995  0.2966 -1.6404 -1.7906
  902MOL0     H19033   1.782   8.192   9.168  0.2678  0.3106  0.1122
  902MOL0     H19034   1.770   7.951   9.060 -1.6227 -0.1800  0.4591
  902MOL0     H19035   1.760   8.036   8.906 -2.6924 -5.9835  0.1737
  902MOL0     H19036   1.549   7.969   9.049  2.7870 -0.9560  3.6057
  902MOL0     H19037   1.584   8.118   9.136  0.6541  2.2821 -0.2073
  902MOL0     H19038   1.500   8.074   8.842  0.3709 -0.0982  0.3880
  902MOL0     H19039   1.592   8.221   8.877  0.1839  1.3370  2.1476
  902MOL0     H19040   1.406   8.303   9.025 -1.5191  0.3212 -1.6656
  902MOL0     H19041   1.340   8.140   9.039 -1.5590  2.2970  1.3011
  902MOL0     H19042   1.375   8.299   8.786  0.0471 -2.0852 -1.4240
  902MOL0     H19043   1.259   8.154   8.810 -0.1202 -0.0389 -0.6482
  902MOL0     H19044   1.110   8.333   8.784  0.9429  3.4315  0.0811
  902MOL0     H19045   1.208   8.437   8.884 -0.8241 -0.5020  2.3390
  902MOL0     H19046   2.216   8.081   9.092  0.0017  0.3149 -2.1546
  902MOL0     H19047   2.463   8.127   9.077 -0.1144 -0.7578  0.0069
  902MOL0     H19048   2.815   8.193   9.104 -1.1815  0.0453 -0.4698
  902MOL0     H19049   3.060   8.179   9.080  4.1405  2.9829 -0.2381
  902MOL0     H19050   4.279   9.077   7.706 -2.3478  0.2741 -3.3014
  902MOL0     H19051   4.501   9.157   7.641  2.9103 -1.2379 -0.6386
  902MOL0     H19052   4.910   9.149   7.537 -3.2356  2.9661 -5.8249
  902MOL0     H19053   5.160   9.128   7.547  0.8654 -0.9730 -0.1883
  902MOL0     H19054   5.384   8.847   7.275 -1.8136 -0.9171  0.4270
  902MOL0     H19055   5.365   8.792   7.437  0.4199  0.9200  1.7561
  902MOL0     H19056   5.599   8.816   7.372  0.0475 -0.2624 -1.1970
  902MOL0     H19057   5.571   8.990   7.337  0.2550  1.0717  0.4149
  902MOL0     H19058   5.573   8.832   7.602  1.4349  1.6561  2.3096
  902MOL0     H19059   5.460   8.952   7.606  0.2867  3.7868 -0.8520
  902MOL0     H19060   5.661   9.106   7.516 -0.7710 -0.7217 -0.7741
  902MOL0     H19061   5.654   9.076   7.687 -1.0476  0.1741 -1.3638
  902MOL0     H19062   6.000   8.850   7.540 -0.0692 -0.1733  0.8943
  902MOL0     H19063   5.137   8.812   7.265 -2.0378  0.4328 -2.3398
  902MOL0     H19064   4.909   8.835   7.232 -1.5696 -0.9645  0.9241
  903MOL0     O19065   6.016   0.348   9.261  0.3423  0.2488  0.1962
  903MOL0     C19066   6.118   0.284   9.254 -0.1393  0.5061 -0.7002
  903MOL0     O19067   6.143   0.164   9.309  0.8661  0.1369 -0.4126
  903MOL0     C19068   6.039   0.097   9.363 -0.8812 -0.0583 -0.1049
  903MOL0     C19069   5.945   0.027   9.285  0.2251 -0.1156 -0.4015
  903MOL0     C19070   5.834  -0.033   9.350  0.7632  0.2305  0.2854
  903MOL0     C19071   5.821  -0.029   9.486 -0.4553 -0.6165 -0.8356
  903MOL0     O19072   5.709  -0.098   9.542 -0.0980 -0.5258  0.6549
  903MOL0     C19073   5.588  -0.015   9.560  0.6308 -0.3356  0.2507
  903MOL0     C19074   5.466  -0.089   9.600  0.0931  0.0128 -0.1756
  903MOL0     C19075   5.336  -0.021   9.559  0.5731  0.2308 -0.6725
  903MOL0     C19076   5.200  -0.091   9.561 -0.8169 -0.3881  0.5206
  903MOL0     C19077   5.178  -0.146   9.699 -0.2076 -0.4082  0.4363
  903MOL0     C19078   5.053  -0.238   9.700  1.1184 -0.3729  0.7564
  903MOL0     C19079   4.924  -0.165   9.657  0.2214  0.5604  0.2732
  903MOL0     C19080   4.797  -0.249   9.678  0.3975  0.3034  0.2701
  903MOL0     N19081   4.668  -0.184   9.643 -0.0323  0.2930  0.0271
  903MOL0     C19082   4.626  -0.165   9.508 -0.0478 -0.3450 -1.1648
  903MOL0     C19083   4.536  -0.068   9.514  0.2381 -0.0258 -0.1090
  903MOL0     C19084   4.471   0.007   9.401  0.0226 -0.2711 -0.1361
  903MOL0     C19085   4.325  -0.048   9.392 -0.2154 -0.2383 -0.9078
  903MOL0     C19086   4.250   0.025   9.278 -0.1554  1.3718  0.0259
  903MOL0     C19087   4.099   0.024   9.303  0.4792  0.2024  0.6277
  903MOL0     O19088   4.045   0.134   9.378  0.5936  0.2088 -0.5131
  903MOL0     C19089   3.914   0.132   9.406  1.0826  0.4762  0.1137
  903MOL0     C19090   3.819   0.040   9.367 -0.7664  0.4260 -0.7030
  903MOL0     C19091   3.676   0.067   9.375 -0.6234  0.5810  0.2093
  903MOL0     C19092   3.629   0.179   9.448  0.4039 -0.4195 -0.3222
  903MOL0     C19093   3.488   0.207   9.460  1.4964 -0.7979  1.1847
  903MOL0     O19094   3.453   0.339   9.477  0.3208 -0.1564 -0.2335
  903MOL0     C19095   3.323   0.380   9.492 -0.4351 -0.1706 -0.2666
  903MOL0     C19096   3.281   0.488   9.426 -0.9184 -0.7347 -0.6367
  903MOL0     C19097   3.153   0.550   9.436 -0.3867  0.9180 -0.7128
  903MOL0     C19098   3.062   0.488   9.523 -0.0387 -0.7039 -0.0151
  903MOL0     O19099   2.934   0.532   9.525 -0.7138  0.5618 -0.3503
  903MOL0     C19100   2.875   0.530   9.392 -0.2225  0.1351  0.0906
  903MOL0     C19101   2.729   0.582   9.410  0.5939 -0.5938  0.3619
  903MOL0     C19102   2.638   0.471   9.465  0.0248  0.2919  0.1805
  903MOL0     C19103   2.491   0.524   9.471 -0.3197 -0.7874  0.2587
  903MOL0     C19104   2.404   0.409   9.519  0.3571  0.4486  0.4086
  903MOL0     C19105   2.251   0.460   9.530 -0.4297  0.2623  0.0744
  903MOL0     C19106   2.185   0.356   9.618 -0.1598 -0.7628  0.4290
  903MOL0     C19107   2.093   0.417   9.719  0.0488  0.4604  0.3773
  903MOL0    Cl19108   2.042   0.299   9.834  0.0204  0.2646 -0.0169
  903MOL0     C19109   3.111   0.377   9.602 -0.4629 -0.4253 -0.0958
  903MOL0     C19110   3.239   0.327   9.585 -0.9903 -0.9242 -0.2649
  903MOL0     O19111   3.406   0.112   9.443  0.3888 -0.9617  0.0311
  903MOL0     C19112   3.732   0.267   9.502 -0.0301  0.5777 -0.5137
  903MOL0     C19113   3.872   0.240   9.478  0.1098 -0.5828 -0.2616
  903MOL0     N19114   4.525  -0.035   9.651 -0.9837  0.3732  0.2490
  903MOL0     N19115   4.597  -0.099   9.719 -0.4525  0.2038  0.5225
  903MOL0     C19116   5.918   0.039   9.561  0.2008 -0.1335 -0.3818
  903MOL0     C19117   6.025   0.099   9.501 -0.2709  1.1424 -0.2474
  903MOL0     C19118   6.231   0.355   9.187  0.4702 -0.5880 -0.4638
  903MOL0     C19119   6.363   0.302   9.184 -0.2613 -0.3977 -0.4894
  903MOL0     C19120   6.471   0.386   9.148  0.5909 -0.1061 -0.2204
  903MOL0     C19121   6.447   0.518   9.106  0.2633  0.3721 -0.4336
  903MOL0     O19122   6.538   0.611   9.079 -0.6584  0.1153  0.5888
  903MOL0     C19123   6.676   0.572   9.047 -0.0906  0.0325  0.8054
  903MOL0     C19124   6.772   0.688   9.032  0.9736  0.2183  0.3380
  903MOL0     C19125   6.730   0.775   8.910  1.4517 -0.2630  0.4075
  903MOL0     C19126   6.760   0.927   8.927 -0.4898 -0.4243  0.1697
  903MOL0     C19127   6.905   0.955   8.932 -0.4908 -0.0614  0.4721
  903MOL0     C19128   7.021   0.979   8.931 -0.0882 -0.2847 -0.5208
  903MOL0     C19129   6.314   0.559   9.092  0.6906  0.1202 -0.3965
  903MOL0     C19130   6.213   0.480   9.129  0.8144 -0.3124  0.2459
  903MOL0     H19131   5.958   0.012   9.178 -3.0563 -0.7372 -0.8098
  903MOL0     H19132   5.760  -0.087   9.291  1.7785  1.1388 -1.9498
  903MOL0     H19133   5.566   0.050   9.475 -0.9778 -0.8822  0.2219
  903MOL0     H19134   5.619   0.050   9.643 -4.0281  0.5771  1.5809
  903MOL0     H19135   5.469  -0.116   9.705  0.0998  0.1218 -0.1480
  903MOL0     H19136   5.467  -0.184   9.546  2.0390  0.6121 -1.3107
  903MOL0     H19137   5.356   0.006   9.455 -1.6838 -2.2121 -1.8770
  903MOL0     H19138   5.321   0.065   9.625 -0.6019 -0.4095 -0.0764
  903MOL0     H19139   5.124  -0.015   9.544  2.7856  3.1611 -1.6540
  903MOL0     H19140   5.197  -0.178   9.494  0.7135 -0.5437  0.5975
  903MOL0     H19141   5.150  -0.061   9.763 -2.4706 -0.7643  0.0109
  903MOL0     H19142   5.268  -0.199   9.733 -1.4798 -1.9308  1.6320
  903MOL0     H19143   5.059  -0.260   9.807  1.6019 -0.8836  0.6266
  903MOL0     H19144   5.071  -0.325   9.636 -0.1484 -0.9677  1.1864
  903MOL0     H19145   4.909  -0.069   9.708 -2.1657  0.0415  0.6968
  903MOL0     H19146   4.931  -0.142   9.551  2.2908  1.9760  0.6648
  903MOL0     H19147   4.793  -0.261   9.787  1.1433  2.0951  0.5442
  903MOL0     H19148   4.804  -0.347   9.631 -1.6927  0.6334 -0.8510
  903MOL0     H19149   4.671  -0.221   9.427 -0.9845 -1.9765 -0.6010
  903MOL0     H19150   4.515  -0.021   9.304 -1.5466  1.4770 -1.4255
  903MOL0     H19151   4.465   0.115   9.419  0.9128 -0.5266  1.8806
  903MOL0     H19152   4.276  -0.037   9.490 -0.0452 -1.1673 -0.7092
  903MOL0     H19153   4.346  -0.154   9.375  4.3331  0.3063 -0.0167
  903MOL0     H19154   4.297   0.124   9.274 -0.5029  1.6832  2.2860
  903MOL0     H19155   4.270  -0.039   9.192 -0.0088  0.9405  0.3746
  903MOL0     H19156   4.066  -0.076   9.333  2.8581 -1.0850 -0.8162
  903MOL0     H19157   4.058   0.040   9.202  0.6908 -0.9338  0.3513
  903MOL0     H19158   3.841  -0.049   9.310 -0.7841  1.0922 -1.7816
  903MOL0     H19159   3.608  -0.005   9.330  0.4503  0.2519 -0.9151
  903MOL0     H19160   3.355   0.529   9.358  0.0824  3.1590  2.4035
  903MOL0     H19161   3.135   0.642   9.382  0.6266  2.9100  2.1118
  903MOL0     H19162   2.883   0.435   9.338  3.1719 -0.2124  0.9652
  903MOL0     H19163   2.914   0.612   9.331 -2.7091  1.4194  0.0954
  903MOL0     H19164   2.700   0.619   9.311  5.2540  1.5994 -0.4696
  903MOL0     H19165   2.731   0.665   9.481 -1.0446  2.0724 -2.4624
  903MOL0     H19166   2.679   0.434   9.560  2.9685  1.2908 -0.5924
  903MOL0     H19167   2.642   0.383   9.401  3.8065 -0.6368  1.4105
  903MOL0     H19168   2.484   0.614   9.531  0.9909  0.2246 -1.0481
  903MOL0     H19169   2.463   0.547   9.368 -0.5152 -0.4096  0.3963
  903MOL0     H19170   2.445   0.388   9.618 -0.8266  1.7590  1.2133
  903MOL0     H19171   2.413   0.321   9.455  2.8686  0.7184  0.3208
  903MOL0     H19172   2.201   0.466   9.433 -0.0690 -0.9886 -0.2147
  903MOL0     H19173   2.237   0.559   9.573  1.9785 -0.3686  2.6632
  903MOL0     H19174   2.120   0.292   9.558  0.7553 -1.3773  0.0624
  903MOL0     H19175   2.258   0.286   9.661  0.9559 -0.1934 -0.4904
  903MOL0     H19176   2.007   0.447   9.659  1.7563  0.5761 -2.1636
  903MOL0     H19177   2.131   0.503   9.775  0.1208 -0.3106  1.5501
  903MOL0     H19178   3.042   0.331   9.672 -1.8227 -0.0334 -1.1363
  903MOL0     H19179   3.270   0.240   9.641 -0.3408 -0.4216  0.1618
  903MOL0     H19180   3.717   0.354   9.566  1.1781 -0.7382  1.6902
  903MOL0     H19181   3.943   0.292   9.542 -3.3061  3.1157  0.9880
  903MOL0     H19182   5.907   0.046   9.669  0.8544 -0.7887 -0.2607
  903MOL0     H19183   6.102   0.135   9.568  2.1562  0.3244 -2.4434
  903MOL0     H19184   6.385   0.201   9.220  1.1048 -0.3347 -1.1053
  903MOL0     H19185   6.573   0.350   9.157  0.9575  0.0865 -2.8855
  903MOL0     H19186   6.676   0.507   8.960 -4.9834 -0.1470  0.6200
  903MOL0     H19187   6.715   0.512   9.130 -0.6602 -1.9952 -0.3236
  903MOL0     H19188   6.778   0.744   9.126  4.3470 -1.0145  1.0107
  903MOL0     H19189   6.874   0.651   9.014  2.1208  2.4709  1.7445
  903MOL0     H19190   6.623   0.766   8.889  1.4779 -1.6729  0.7546
  903MOL0     H19191   6.780   0.734   8.822  0.6877 -2.1055  0.7736
  903MOL0     H19192   6.717   0.971   8.837 -1.9310 -1.9881  0.0383
  903MOL0     H19193   6.716   0.967   9.019  1.3598 -0.8416  1.2789
  903MOL0     H19194   7.121   1.017   8.925 -0.3260  0.7264  1.3364
  903MOL0     H19195   6.308   0.666   9.071 -0.5673  0.0107 -0.6651
  903MOL0     H19196   6.111   0.517   9.128  0.9322  0.1676 -2.5824
  904MOL0     O19197   6.730   4.724   3.591  0.1509  0.6529  0.7639
  904MOL0     C19198   6.717   4.598   3.581 -0.8556  0.1981  0.9595
  904MOL0     O19199   6.820   4.513   3.577  0.0045  0.4444  0.2156
  904MOL0     C19200   6.941   4.552   3.596 -0.7010 -0.7560 -0.3095
  904MOL0     C19201   6.975   4.641   3.702 -0.0057 -0.5736  0.9019
  904MOL0     C19202   7.110   4.685   3.705 -0.9294  0.1503 -0.4272
  904MOL0     C19203   7.203   4.635   3.619 -0.1287 -0.0530  0.1400
  904MOL0     O19204   7.326   4.700   3.627 -0.4126  0.2109 -0.7269
  904MOL0     C19205   7.441   4.666   3.545 -0.7836  0.0421  0.9644
  904MOL0     C19206   7.552   4.733   3.619 -0.1843  0.9875 -0.2315
  904MOL0     C19207   7.550   4.880   3.609  0.1780  0.6883 -0.7944
  904MOL0     C19208   7.642   4.961   3.702 -0.3713 -0.4341 -0.2213
  904MOL0     C19209   7.623   5.117   3.695  0.6383 -0.1554  0.6068
  904MOL0     C19210   7.672   5.176   3.830 -0.2877 -0.3479  0.9957
  904MOL0     C19211   7.825   5.154   3.855 -0.0447  0.0465 -0.1802
  904MOL0     C19212   7.872   5.236   3.977  1.7227 -0.7769  0.2265
  904MOL0     N19213   7.877   5.387   3.954  0.1347  0.1343  0.3476
  904MOL0     C19214   7.772   5.471   3.980 -0.1070  0.4277  0.6370
  904MOL0     C19215   7.807   5.592   3.931  0.3051 -0.0002 -0.5282
  904MOL0     C19216   7.715   5.709   3.910  0.4234  0.3785 -0.6547
  904MOL0     C19217   7.689   5.785   4.046 -0.2732 -0.4218  0.3611
  904MOL0     C19218   7.617   5.915   4.039 -0.6462 -0.0295  0.4786
  904MOL0     C19219   7.480   5.901   3.976  0.6996 -0.6671  0.2374
  904MOL0     O19220   7.394   5.822   4.063  0.5668 -0.3368  0.7899
  904MOL0     C19221   7.284   5.773   3.988  0.6312 -0.0892 -0.1201
  904MOL0     C19222   7.226   5.654   4.035  0.8342  0.2721  0.7002
  904MOL0     C19223   7.116   5.593   3.968 -0.2312 -0.8292  0.1563
  904MOL0     C19224   7.053   5.665   3.860  0.6324 -0.6739  0.7693
  904MOL0     C19225   6.924   5.616   3.789 -0.6025  0.0814 -0.1001
  904MOL0     O19226   6.847   5.701   3.714  0.0003  0.0251  1.2820
  904MOL0     C19227   6.739   5.658   3.633  1.1329  0.6869 -0.1358
  904MOL0     C19228   6.707   5.525   3.589  0.2127  0.4751  0.1731
  904MOL0     C19229   6.587   5.501   3.522  0.3413 -0.0830  0.8794
  904MOL0     C19230   6.501   5.597   3.470 -0.8892 -0.0637 -0.1721
  904MOL0     O19231   6.385   5.576   3.394  0.1210  0.6184 -0.0636
  904MOL0     C19232   6.322   5.442   3.371 -0.8821 -0.2393 -0.6199
  904MOL0     C19233   6.201   5.456   3.274  0.2182 -0.1447  0.5068
  904MOL0     C19234   6.089   5.542   3.329 -0.9558  0.1972 -0.1921
  904MOL0     C19235   6.024   5.497   3.460 -0.1473  0.0639  0.8915
  904MOL0     C19236   5.917   5.597   3.501  0.3508  0.3155  1.0868
  904MOL0     C19237   5.813   5.533   3.589 -0.5497  0.3027 -0.6362
  904MOL0     C19238   5.690   5.618   3.608 -0.5091  0.1033 -0.3407
  904MOL0     C19239   5.605   5.547   3.716 -0.2476  0.1394  0.1397
  904MOL0    Cl19240   5.426   5.598   3.702  0.2622  0.0672  0.3048
  904MOL0     C19241   6.533   5.727   3.500 -0.5132 -0.1420  0.6030
  904MOL0     C19242   6.648   5.756   3.584  0.4683 -0.0259 -0.0492
  904MOL0     O19243   6.907   5.495   3.803  0.6567  0.0872 -0.2993
  904MOL0     C19244   7.099   5.799   3.832  0.1269 -0.0922 -0.5990
  904MOL0     C19245   7.210   5.852   3.894 -0.1630 -0.0727 -0.1403
  904MOL0     N19246   7.947   5.583   3.908  0.5449  0.0379  0.0002
  904MOL0     N19247   7.982   5.464   3.925  0.0271  0.2365  0.0969
  904MOL0     C19248   7.169   4.544   3.515 -0.4276 -0.0028 -0.4079
  904MOL0     C19249   7.036   4.504   3.508 -0.3120  0.6625  0.0147
  904MOL0     C19250   6.583   4.544   3.572  0.3034  1.3417  0.4571
  904MOL0     C19251   6.469   4.617   3.534  0.6689  0.5667  0.4263
  904MOL0     C19252   6.347   4.549   3.514  0.1297  0.0613 -0.0059
  904MOL0     C19253   6.341   4.413   3.520 -0.8950  0.5170 -0.7472
  904MOL0     O19254   6.217   4.367   3.483  0.2918 -0.1046 -0.2330
  904MOL0     C19255   6.200   4.256   3.413  0.0880  0.5299 -0.8773
  904MOL0     C19256   6.051   4.224   3.430  0.4438 -0.5213 -0.3331
  904MOL0     C19257   6.017   4.154   3.562  0.3369  0.2937  0.0550
  904MOL0     C19258   5.876   4.085   3.555 -0.1489  1.2750 -0.5356
  904MOL0     C19259   5.872   3.970   3.460 -0.2874  0.2266 -1.0036
  904MOL0     C19260   5.878   3.872   3.396 -0.8139  0.1661 -0.6333
  904MOL0     C19261   6.446   4.336   3.559  1.0427 -0.8324 -0.3341
  904MOL0     C19262   6.562   4.404   3.596  0.5575  0.3695 -0.1597
  904MOL0     H19263   6.899   4.699   3.753 -0.5168  0.8807 -1.3785
  904MOL0     H19264   7.139   4.763   3.776 -1.8584 -0.5499  0.7586
  904MOL0     H19265   7.430   4.721   3.451 -0.8899 -0.5022  0.6548
  904MOL0     H19266   7.463   4.563   3.517  0.4897  0.6740 -0.4822
  904MOL0     H19267   7.651   4.713   3.578  0.1417  0.3792  0.8303
  904MOL0     H19268   7.551   4.701   3.724  0.3721 -0.9831 -0.7761
  904MOL0     H19269   7.448   4.910   3.632  0.2266 -0.9548  2.0253
  904MOL0     H19270   7.574   4.904   3.505  2.0876 -0.1030 -0.5896
  904MOL0     H19271   7.620   4.925   3.803  2.1495  0.8174  0.8541
  904MOL0     H19272   7.747   4.945   3.674 -0.1079 -1.8675  1.3879
  904MOL0     H19273   7.520   5.153   3.690  0.5916 -0.4168 -0.4785
  904MOL0     H19274   7.667   5.147   3.599 -0.9407 -2.0808 -0.8067
  904MOL0     H19275   7.610   5.127   3.906 -7.7454  1.7427 -2.8192
  904MOL0     H19276   7.634   5.279   3.832  0.5753 -0.0312  1.7954
  904MOL0     H19277   7.841   5.048   3.875  1.5939  0.6136  1.9423
  904MOL0     H19278   7.882   5.189   3.769 -0.3687 -0.7354 -0.7228
  904MOL0     H19279   7.973   5.210   4.011  2.1882  1.2672  0.4987
  904MOL0     H19280   7.811   5.213   4.064 -0.1562 -2.1949 -1.3841
  904MOL0     H19281   7.670   5.450   4.009 -0.0271 -0.7081  0.1459
  904MOL0     H19282   7.619   5.668   3.876 -1.1965  1.1591  2.5113
  904MOL0     H19283   7.756   5.777   3.835 -0.3970  1.9938  0.2924
  904MOL0     H19284   7.792   5.794   4.082 -0.6963  3.3074  0.9919
  904MOL0     H19285   7.630   5.715   4.106 -1.0937  0.2396  0.3425
  904MOL0     H19286   7.605   5.951   4.142 -1.9277  0.0179  0.3394
  904MOL0     H19287   7.673   5.999   3.997  1.1850 -1.5576 -0.2291
  904MOL0     H19288   7.482   5.845   3.882 -1.4663  1.4724 -1.1936
  904MOL0     H19289   7.432   5.998   3.960  2.2329  0.0465 -0.1686
  904MOL0     H19290   7.279   5.602   4.114  0.9157  1.3462  1.3872
  904MOL0     H19291   7.099   5.490   3.998  0.6415 -0.5351  1.7324
  904MOL0     H19292   6.781   5.450   3.614 -0.7574 -0.6611 -0.2922
  904MOL0     H19293   6.563   5.399   3.493 -0.7060  0.0311  1.3176
  904MOL0     H19294   6.284   5.394   3.461 -3.6514  5.4701  1.7943
  904MOL0     H19295   6.395   5.385   3.313  0.2365 -0.1178  0.6512
  904MOL0     H19296   6.163   5.358   3.243  1.4674  0.4070 -3.3175
  904MOL0     H19297   6.224   5.498   3.176 -0.2652 -2.6200 -0.7475
  904MOL0     H19298   6.010   5.549   3.254  0.1156 -2.8921 -1.8229
  904MOL0     H19299   6.128   5.641   3.352  0.3766  0.2507 -2.3439
  904MOL0     H19300   5.965   5.406   3.443 -2.2653  1.6781 -0.8666
  904MOL0     H19301   6.102   5.492   3.537 -0.2110  2.5585  1.1982
  904MOL0     H19302   5.865   5.646   3.417 -3.5948 -2.1699  1.8172
  904MOL0     H19303   5.968   5.669   3.565 -0.9316 -0.0955  2.6389
  904MOL0     H19304   5.867   5.497   3.677 -0.1796  1.7647 -0.2280
  904MOL0     H19305   5.782   5.443   3.534  0.6900 -1.2266  1.0619
  904MOL0     H19306   5.705   5.718   3.649 -1.6700  0.9981 -1.9409
  904MOL0     H19307   5.644   5.620   3.508  3.2908 -0.2656 -2.3037
  904MOL0     H19308   5.651   5.566   3.813 -0.1337 -0.7720  0.2809
  904MOL0     H19309   5.609   5.438   3.703 -2.3889 -0.1243  1.1582
  904MOL0     H19310   6.466   5.802   3.458  0.0452  0.2046  0.3293
  904MOL0     H19311   6.670   5.862   3.593  0.8885 -0.1505  0.3909
  904MOL0     H19312   7.060   5.863   3.753 -0.4281  2.6230  1.7210
  904MOL0     H19313   7.246   5.953   3.875 -0.3574  0.2559  1.1602
  904MOL0     H19314   7.240   4.503   3.445 -1.7726 -2.0690 -0.6736
  904MOL0     H19315   6.997   4.435   3.434  1.7720 -0.5895 -0.0052
  904MOL0     H19316   6.491   4.721   3.514  1.8407  1.2891  4.6144
  904MOL0     H19317   6.255   4.592   3.475 -1.8687 -1.8089  2.3016
  904MOL0     H19318   6.253   4.167   3.448 -1.3989  0.0081  0.1595
  904MOL0     H19319   6.219   4.279   3.308 -0.3681  2.3570 -0.5965
  904MOL0     H19320   5.987   4.311   3.416  0.5069 -0.6915 -1.7989
  904MOL0     H19321   6.022   4.158   3.348 -3.2212 -0.8130  1.0024
  904MOL0     H19322   6.014   4.220   3.650  0.4762 -0.6556  0.7932
  904MOL0     H19323   6.095   4.081   3.588  1.2929  0.4229 -2.2771
  904MOL0     H19324   5.842   4.072   3.658  2.6307 -1.3264  0.2061
  904MOL0     H19325   5.801   4.150   3.509 -1.9897 -0.7476 -0.5651
  904MOL0     H19326   5.880   3.793   3.324 -1.0206  2.4622 -3.3450
  904MOL0     H19327   6.422   4.230   3.555 -3.0199 -0.0266 -2.2828
  904MOL0     H19328   6.648   4.342   3.618  0.3136  1.0069  3.0931
  905MOL0     O19329   8.324  10.904   7.508 -1.7711  0.9453 -0.2346
  905MOL0     C19330   8.261  10.974   7.429  0.0096  0.5132 -0.3357
  905MOL0     O19331   8.304  11.080   7.363  0.0382 -0.1281 -0.3171
  905MOL0     C19332   8.439  11.113   7.365  0.6485 -0.2455 -0.4530
  905MOL0     C19333   8.552  11.027   7.386  0.5917  0.3107  0.0075
  905MOL0     C19334   8.679  11.073   7.344  0.1346 -0.0920  0.3445
  905MOL0     C19335   8.702  11.195   7.287 -0.6353 -0.6506  0.1303
  905MOL0     O19336   8.820  11.235   7.228  0.0777 -0.4628 -0.8708
  905MOL0     C19337   8.947  11.170   7.258 -0.1569  0.9428 -0.4073
  905MOL0     C19338   9.056  11.181   7.152 -0.1362 -0.2335 -0.1298
  905MOL0     C19339   8.985  11.150   7.013 -1.1001  0.1356  0.1189
  905MOL0     C19340   9.063  11.151   6.888 -0.3419  0.4720 -0.1172
  905MOL0     C19341   9.001  11.083   6.768  1.0528 -0.6271 -0.4074
  905MOL0     C19342   9.010  10.932   6.777 -0.1944 -0.5993 -0.4891
  905MOL0     C19343   8.955  10.866   6.650 -0.3112 -0.2439 -0.3485
  905MOL0     C19344   9.005  10.919   6.518  0.0220 -0.1472 -0.3219
  905MOL0     N19345   8.913  11.020   6.468  0.3271 -0.2805  0.2793
  905MOL0     C19346   8.941  11.146   6.428 -0.4845  0.6999  0.3886
  905MOL0     C19347   8.825  11.198   6.382 -0.3974 -0.8021 -0.8114
  905MOL0     C19348   8.798  11.342   6.336  0.0572 -0.2295 -0.3245
  905MOL0     C19349   8.707  11.353   6.213 -0.8557  0.0497  0.4937
  905MOL0     C19350   8.677  11.508   6.190  0.0685 -0.4987  0.0040
  905MOL0     C19351   8.585  11.512   6.076  0.5175  0.0646  0.6029
  905MOL0     O19352   8.561  11.645   6.035  0.7578 -0.0265 -0.1981
  905MOL0     C19353   8.437  11.676   5.977 -0.5122  0.6902 -0.2735
  905MOL0     C19354   8.407  11.811   5.989  1.8003 -0.5258  0.2597
  905MOL0     C19355   8.284  11.864   5.948 -0.1182 -0.5219 -0.6433
  905MOL0     C19356   8.190  11.784   5.886 -0.1951 -1.2199  0.6885
  905MOL0     C19357   8.063  11.836   5.837  0.4294 -0.2187  0.3694
  905MOL0     O19358   7.995  11.758   5.745  0.4413  0.1807 -0.0322
  905MOL0     C19359   7.871  11.791   5.699  1.0219  0.7090  0.0431
  905MOL0     C19360   7.823  11.741   5.577  0.3431  0.2297  2.1323
  905MOL0     C19361   7.700  11.768   5.528  0.7947  0.5306 -0.1937
  905MOL0     C19362   7.605  11.834   5.610 -0.0441 -0.1915  0.6291
  905MOL0     O19363   7.470  11.853   5.584  0.6273 -0.5596 -0.6078
  905MOL0     C19364   7.425  11.868   5.449  0.1434  0.7081 -0.4358
  905MOL0     C19365   7.277  11.894   5.446  0.3282  0.6980  0.5499
  905MOL0     C19366   7.231  11.913   5.294 -0.5041 -0.4151  0.5147
  905MOL0     C19367   7.083  11.955   5.284  0.2147  0.9175 -0.2014
  905MOL0     C19368   7.044  12.094   5.348  0.2662  0.4950  0.1357
  905MOL0     C19369   6.903  12.146   5.309 -0.3346  0.2638  0.3199
  905MOL0     C19370   6.879  12.300   5.352 -1.9392  0.8865  0.1208
  905MOL0     C19371   6.734  12.341   5.327  0.1499 -0.3047 -0.1473
  905MOL0    Cl19372   6.682  12.313   5.161 -0.0859 -0.0400  0.0087
  905MOL0     C19373   7.642  11.876   5.732  0.3262  0.1653  0.1280
  905MOL0     C19374   7.773  11.842   5.777 -0.3340  0.0866 -0.1070
  905MOL0     O19375   8.028  11.950   5.863 -1.0138 -1.3567  0.3328
  905MOL0     C19376   8.228  11.653   5.859 -0.0295 -0.3621  0.3712
  905MOL0     C19377   8.347  11.594   5.915  0.4540 -0.6903  0.5029
  905MOL0     N19378   8.730  11.096   6.380  0.3141  0.1919 -0.2147
  905MOL0     N19379   8.785  10.986   6.425 -0.1728 -0.1915  0.2991
  905MOL0     C19380   8.592  11.276   7.276  0.2911  0.0186 -0.1566
  905MOL0     C19381   8.466  11.238   7.314 -0.3940 -0.0301 -0.1165
  905MOL0     C19382   8.116  10.946   7.423 -1.2608 -0.2191 -0.0790
  905MOL0     C19383   8.050  10.976   7.307  0.2818  0.2289 -0.1529
  905MOL0     C19384   7.901  10.948   7.300  0.2810  0.5548  0.2839
  905MOL0     C19385   7.825  10.895   7.402  0.4321 -0.8825 -0.4392
  905MOL0     O19386   7.692  10.869   7.404  0.6601  0.4632  0.1321
  905MOL0     C19387   7.607  10.950   7.321  0.1087 -0.0090 -0.3932
  905MOL0     C19388   7.467  10.895   7.317  1.7275  0.1051  1.1695
  905MOL0     C19389   7.387  10.957   7.423  0.4108  0.4699 -0.2794
  905MOL0     C19390   7.248  10.890   7.445  0.4247 -0.9170 -0.2623
  905MOL0     C19391   7.176  10.966   7.547 -0.1107 -0.3193  0.2513
  905MOL0     C19392   7.103  11.026   7.625  0.2822  0.8174  0.0448
  905MOL0     C19393   7.903  10.870   7.513 -0.3186 -0.8945 -0.5616
  905MOL0     C19394   8.044  10.893   7.530  0.1688 -0.5515  0.0260
  905MOL0     H19395   8.550  10.925   7.424 -0.0789 -0.3181 -1.6099
  905MOL0     H19396   8.757  10.999   7.353  1.1531  0.2601 -3.7164
  905MOL0     H19397   8.926  11.063   7.256 -0.5451  0.9275  1.8393
  905MOL0     H19398   8.970  11.205   7.359 -1.1010  2.5243 -0.7038
  905MOL0     H19399   9.137  11.110   7.169  1.3265  1.1246 -1.2177
  905MOL0     H19400   9.094  11.283   7.146  2.4906 -1.2417 -2.8372
  905MOL0     H19401   8.913  11.228   6.990  2.2359  3.1117 -1.2288
  905MOL0     H19402   8.937  11.052   7.024 -4.0989  1.6114  1.0804
  905MOL0     H19403   9.085  11.254   6.859 -0.6662 -0.1434 -2.8508
  905MOL0     H19404   9.162  11.110   6.910 -0.4714 -0.0954 -0.5689
  905MOL0     H19405   9.037  11.143   6.685 -1.4439  0.6390 -0.6907
  905MOL0     H19406   8.895  11.112   6.776  2.1689  3.4456  3.0851
  905MOL0     H19407   8.944  10.899   6.858  1.5792 -0.9279  0.8932
  905MOL0     H19408   9.107  10.891   6.807  0.4205  0.7598 -0.5760
  905MOL0     H19409   8.997  10.766   6.654  0.3253 -0.2001 -3.6588
  905MOL0     H19410   8.845  10.860   6.650 -0.3296  0.0243 -0.1482
  905MOL0     H19411   8.997  10.841   6.442  0.9299  0.5883 -1.2123
  905MOL0     H19412   9.110  10.951   6.527  0.0072  0.2291 -1.3434
  905MOL0     H19413   9.040  11.190   6.424 -0.7574  1.2457 -0.8803
  905MOL0     H19414   8.898  11.383   6.318  0.9022 -1.4678  1.2771
  905MOL0     H19415   8.752  11.400   6.416  1.8856  1.7869 -0.6357
  905MOL0     H19416   8.613  11.300   6.229 -1.6472  1.2673 -0.0272
  905MOL0     H19417   8.765  11.317   6.128  2.1172  0.3127  2.2589
  905MOL0     H19418   8.629  11.548   6.280 -1.1639 -1.8274 -0.0293
  905MOL0     H19419   8.772  11.555   6.163 -0.8519  4.5886  3.9388
  905MOL0     H19420   8.494  11.466   6.115  0.6831 -1.9743 -1.2559
  905MOL0     H19421   8.623  11.460   5.988 -2.0149  1.5959 -1.5559
  905MOL0     H19422   8.478  11.881   6.033 -1.5862  2.2068  1.8291
  905MOL0     H19423   8.263  11.971   5.954  0.0758 -0.5410  0.5091
  905MOL0     H19424   7.888  11.675   5.520 -1.8374 -1.7386  1.7331
  905MOL0     H19425   7.656  11.731   5.436 -1.1422  0.9984  0.4900
  905MOL0     H19426   7.450  11.780   5.388 -3.8377 -2.6825  2.2973
  905MOL0     H19427   7.463  11.957   5.397 -0.6726  1.8993  0.9396
  905MOL0     H19428   7.248  11.978   5.510  1.5089 -0.0908  2.1881
  905MOL0     H19429   7.232  11.802   5.484  5.5607 -1.3305  2.8320
  905MOL0     H19430   7.239  11.818   5.241  0.4875 -0.6674  1.0952
  905MOL0     H19431   7.291  11.992   5.247 -2.7981  1.2260  0.1159
  905MOL0     H19432   7.049  11.952   5.180 -1.9617  2.6612  0.3722
  905MOL0     H19433   7.026  11.876   5.333  3.2448 -1.2830  0.0261
  905MOL0     H19434   7.124  12.162   5.318  0.3574  1.2942  2.0291
  905MOL0     H19435   7.049  12.072   5.455  0.9170 -0.8184 -0.1453
  905MOL0     H19436   6.818  12.086   5.344  0.1689 -2.0690 -2.1303
  905MOL0     H19437   6.874  12.137   5.204 -2.6672 -0.0418  0.9331
  905MOL0     H19438   6.905  12.320   5.456  0.5877  0.3842 -0.3415
  905MOL0     H19439   6.938  12.353   5.277  0.9476 -0.3615  1.3545
  905MOL0     H19440   6.703  12.438   5.366 -1.1927 -1.3618  1.5103
  905MOL0     H19441   6.667  12.284   5.391  0.0752  1.4775  1.4737
  905MOL0     H19442   7.568  11.921   5.797  1.0623  1.9786 -0.2363
  905MOL0     H19443   7.800  11.883   5.874  2.6239 -0.1025 -0.7417
  905MOL0     H19444   8.148  11.597   5.811 -1.7298  3.3551 -1.5043
  905MOL0     H19445   8.354  11.486   5.921 -0.6571 -0.7493  0.8331
  905MOL0     H19446   8.613  11.372   7.229  0.0364  1.4732  2.5027
  905MOL0     H19447   8.379  11.301   7.297 -0.4643 -0.5826 -2.0097
  905MOL0     H19448   8.098  11.020   7.220  0.3372 -1.6461 -1.1275
  905MOL0     H19449   7.843  10.983   7.216 -0.8694  0.3967  0.9977
  905MOL0     H19450   7.646  10.954   7.218  1.0366  1.4117 -0.0256
  905MOL0     H19451   7.604  11.051   7.362  1.6320  0.6151 -1.6928
  905MOL0     H19452   7.426  10.911   7.217  1.3223 -5.6014  0.0852
  905MOL0     H19453   7.454  10.789   7.337  0.0713  0.6097  3.0851
  905MOL0     H19454   7.369  11.064   7.405  0.5053  0.6116  0.4270
  905MOL0     H19455   7.440  10.945   7.518  0.1775  1.4820 -0.0034
  905MOL0     H19456   7.187  10.887   7.355 -0.8886 -0.2286  0.5587
  905MOL0     H19457   7.262  10.786   7.474  0.0084 -1.3027 -1.4186
  905MOL0     H19458   7.049  11.062   7.711  0.1930  0.7446  0.0197
  905MOL0     H19459   7.854  10.825   7.599  2.5626 -0.1996  1.6062
  905MOL0     H19460   8.090  10.867   7.625 -3.9072 -0.3273  2.2690
  906MOL0     O19461   9.743   8.529  10.706  0.2843 -0.3143 -0.0043
  906MOL0     C19462   9.721   8.509  10.824 -0.1832  0.5003 -0.2124
  906MOL0     O19463   9.605   8.471  10.881  0.0773 -0.3242 -0.0718
  906MOL0     C19464   9.497   8.477  10.795 -0.4028  0.8465 -0.2273
  906MOL0     C19465   9.450   8.604  10.742  0.3391 -0.3305 -0.5532
  906MOL0     C19466   9.339   8.603  10.654  0.7299 -0.7577 -0.3370
  906MOL0     C19467   9.279   8.481  10.613 -0.2802  0.2358  0.7007
  906MOL0     O19468   9.179   8.471  10.516  0.6028  0.8204  0.0187
  906MOL0     C19469   9.176   8.565  10.406 -0.2722 -0.1864 -0.0530
  906MOL0     C19470   9.074   8.663  10.440 -0.3634  0.0440  0.1255
  906MOL0     C19471   8.935   8.624  10.390 -0.4968  0.2387  0.7700
  906MOL0     C19472   8.832   8.712  10.468  0.0611  0.3173  0.2495
  906MOL0     C19473   8.692   8.669  10.439  1.3132 -0.4438  0.0229
  906MOL0     C19474   8.594   8.786  10.461  0.3007 -0.0263 -0.2323
  906MOL0     C19475   8.446   8.763  10.423 -0.0754  0.3922  0.9912
  906MOL0     C19476   8.430   8.789  10.270 -1.3778  0.2507  0.0868
  906MOL0     N19477   8.293   8.780  10.217 -0.0054  0.3009  0.1683
  906MOL0     C19478   8.200   8.672  10.238 -0.5882  0.4825  0.9259
  906MOL0     C19479   8.080   8.728  10.195 -0.2310 -0.6797  0.7696
  906MOL0     C19480   7.943   8.663  10.183 -0.2383  0.3825 -0.9372
  906MOL0     C19481   7.923   8.593  10.057  0.4438 -0.4891  0.7080
  906MOL0     C19482   8.012   8.473  10.019  0.0042 -0.1968  0.3575
  906MOL0     C19483   8.141   8.507   9.947 -0.1482 -0.0919 -0.4336
  906MOL0     O19484   8.194   8.380   9.895 -0.1437  0.3376 -0.1023
  906MOL0     C19485   8.318   8.375   9.838  0.5446  0.8972 -1.0463
  906MOL0     C19486   8.404   8.483   9.824  0.4174 -0.1340 -0.0368
  906MOL0     C19487   8.543   8.479   9.811 -0.4365 -0.7119 -0.0579
  906MOL0     C19488   8.611   8.358   9.780  0.3221  0.6022 -0.3525
  906MOL0     C19489   8.757   8.333   9.761 -1.2669  0.2328  0.8625
  906MOL0     O19490   8.836   8.435   9.779  0.4931  0.4163  0.1614
  906MOL0     C19491   8.972   8.424   9.794 -0.4056 -0.2124  0.6855
  906MOL0     C19492   9.049   8.531   9.745  0.3994 -0.0109 -0.1966
  906MOL0     C19493   9.191   8.520   9.727  0.5919 -0.3025 -1.2843
  906MOL0     C19494   9.260   8.401   9.743  0.9566  0.8004 -0.3414
  906MOL0     O19495   9.399   8.408   9.731  0.0058 -0.2588 -0.0571
  906MOL0     C19496   9.479   8.286   9.717 -0.2733  0.3279 -0.1133
  906MOL0     C19497   9.626   8.329   9.748 -0.3076  0.2434 -0.2433
  906MOL0     C19498   9.723   8.220   9.699 -0.6288 -0.5254  0.3517
  906MOL0     C19499   9.862   8.282   9.657 -0.4326 -0.3278  0.5754
  906MOL0     C19500   9.955   8.172   9.591 -0.1795  0.3078  0.3228
  906MOL0     C19501  10.102   8.222   9.573 -0.6019 -1.0466  0.0890
  906MOL0     C19502  10.187   8.119   9.508 -0.1107  0.6900 -0.6981
  906MOL0     C19503  10.321   8.160   9.463  0.2025 -0.0921  0.8307
  906MOL0    Cl19504  10.287   8.294   9.351 -0.4485 -0.1287 -0.4392
  906MOL0     C19505   9.188   8.290   9.792 -0.1972  0.1879  0.7813
  906MOL0     C19506   9.048   8.301   9.820  0.2447 -0.2077 -0.3412
  906MOL0     O19507   8.797   8.224   9.727  0.0507  0.4878 -0.0076
  906MOL0     C19508   8.520   8.243   9.778 -0.7542  0.3535  0.6201
  906MOL0     C19509   8.383   8.256   9.813  0.0432  0.6576  1.0331
  906MOL0     N19510   8.102   8.848  10.142 -0.0621  0.0100  0.0282
  906MOL0     N19511   8.229   8.882  10.151  0.0470  0.4823 -0.7781
  906MOL0     C19512   9.344   8.364  10.644  0.0024  0.3210 -0.9153
  906MOL0     C19513   9.430   8.357  10.748  1.3422 -0.0185 -0.5403
  906MOL0     C19514   9.831   8.535  10.914 -0.3255  0.3087 -0.1138
  906MOL0     C19515   9.947   8.615  10.884 -0.1756 -0.0252  0.3745
  906MOL0     C19516  10.056   8.640  10.975  0.2065 -1.0262  0.7401
  906MOL0     C19517  10.052   8.582  11.106  0.1040 -1.1127  0.3783
  906MOL0     O19518  10.146   8.609  11.202  0.1173  0.1884  0.0505
  906MOL0     C19519  10.226   8.732  11.204  0.7261 -0.3976  0.0562
  906MOL0     C19520  10.356   8.737  11.125 -1.2356  0.2630 -0.5330
  906MOL0     C19521  10.427   8.875  11.124 -0.1274 -0.2583  0.7095
  906MOL0     C19522  10.457   8.935  11.259 -0.0668 -1.0914 -1.0725
  906MOL0     C19523  10.541   8.850  11.345  0.5171 -1.0254  0.3805
  906MOL0     C19524  10.609   8.782  11.415 -0.0584  0.3536 -0.0610
  906MOL0     C19525   9.958   8.482  11.122 -0.2997  0.3958  0.3371
  906MOL0     C19526   9.846   8.464  11.034  0.4904  0.0681 -0.6952
  906MOL0     H19527   9.498   8.694  10.779  4.5507 -1.3514 -2.8431
  906MOL0     H19528   9.295   8.695  10.618  3.2920  0.2908 -0.9501
  906MOL0     H19529   9.156   8.513  10.312 -2.7399  0.0169  0.2924
  906MOL0     H19530   9.273   8.615  10.404 -0.5163  0.3592  1.0825
  906MOL0     H19531   9.093   8.762  10.399  3.1804 -0.5072  0.1139
  906MOL0     H19532   9.063   8.678  10.548  0.4155  3.2871 -0.1423
  906MOL0     H19533   8.918   8.518  10.411 -1.8815  0.2816  0.0201
  906MOL0     H19534   8.930   8.630  10.281  2.1963  1.1811  0.6380
  906MOL0     H19535   8.862   8.695  10.572  1.2201 -4.0037 -0.6208
  906MOL0     H19536   8.845   8.818  10.442  1.0055  0.0918 -0.2357
  906MOL0     H19537   8.662   8.588  10.506 -1.0553  1.4296  1.4049
  906MOL0     H19538   8.692   8.630  10.337 -0.3300 -2.3592  0.6661
  906MOL0     H19539   8.627   8.880  10.418 -0.8787 -0.7817 -2.9800
  906MOL0     H19540   8.594   8.798  10.570 -1.4778 -1.3620 -0.0361
  906MOL0     H19541   8.419   8.663  10.457  3.1684 -0.6417  0.8165
  906MOL0     H19542   8.385   8.836  10.478 -0.5284 -0.0503  1.0830
  906MOL0     H19543   8.499   8.719  10.223 -0.5218  0.3760  1.1107
  906MOL0     H19544   8.471   8.887  10.240  0.6308 -1.3515 -3.0232
  906MOL0     H19545   8.229   8.573  10.271  1.3972  0.0801 -1.6407
  906MOL0     H19546   7.872   8.746  10.193  1.6735  1.8138  3.4050
  906MOL0     H19547   7.938   8.601  10.272 -1.9027 -1.2763 -2.1278
  906MOL0     H19548   7.925   8.662   9.973  0.9852 -1.6187 -0.2450
  906MOL0     H19549   7.819   8.561  10.048 -0.3476  1.6520  1.5931
  906MOL0     H19550   8.034   8.411  10.106 -0.7765 -0.7935  0.1398
  906MOL0     H19551   7.948   8.418   9.949 -0.7559  1.3877 -0.2450
  906MOL0     H19552   8.220   8.553  10.007 -1.3265  0.4544  0.7380
  906MOL0     H19553   8.112   8.575   9.865  0.4726  1.5958  0.7054
  906MOL0     H19554   8.374   8.585   9.846  0.2363 -0.3314  0.6690
  906MOL0     H19555   8.613   8.560   9.790  0.4147 -2.0583 -3.0060
  906MOL0     H19556   8.993   8.620   9.722 -1.4083 -0.9254  0.5257
  906MOL0     H19557   9.235   8.612   9.691  0.2896 -0.2839 -1.6102
  906MOL0     H19558   9.469   8.253   9.613  1.5549 -2.8027  0.6017
  906MOL0     H19559   9.442   8.209   9.785  0.3564  0.2644  0.1541
  906MOL0     H19560   9.637   8.338   9.856  0.4717 -2.9109  0.0478
  906MOL0     H19561   9.657   8.423   9.702  1.7191  0.6422  1.7548
  906MOL0     H19562   9.678   8.186   9.605 -0.4002  1.7451 -0.6377
  906MOL0     H19563   9.739   8.132   9.762 -0.3524  0.4697  1.7201
  906MOL0     H19564   9.848   8.357   9.579 -1.3707 -1.8358 -0.7550
  906MOL0     H19565   9.909   8.326   9.746 -0.1444 -1.1922  0.8651
  906MOL0     H19566   9.919   8.147   9.491  2.1586 -0.3447 -0.4300
  906MOL0     H19567   9.960   8.083   9.655 -0.1198 -2.2593 -2.9638
  906MOL0     H19568  10.155   8.242   9.667  1.2424  2.9593 -1.5890
  906MOL0     H19569  10.101   8.317   9.519  0.2270 -2.2264 -2.1479
  906MOL0     H19570  10.188   8.029   9.570  0.4050 -0.2576 -2.0523
  906MOL0     H19571  10.140   8.082   9.417 -0.7774 -4.5772  1.4298
  906MOL0     H19572  10.379   8.078   9.420 -1.5187 -1.0660  0.2807
  906MOL0     H19573  10.382   8.200   9.544  4.3787  0.0871 -2.0685
  906MOL0     H19574   9.243   8.200   9.822 -0.1632 -0.3484 -0.7991
  906MOL0     H19575   9.001   8.215   9.866 -1.9684  0.0975 -1.8663
  906MOL0     H19576   8.553   8.140   9.788 -3.6967 -0.4541  3.8501
  906MOL0     H19577   8.329   8.163   9.812  3.1709 -1.3062 -0.1318
  906MOL0     H19578   9.318   8.266  10.606  1.5398 -0.7140  0.5572
  906MOL0     H19579   9.443   8.255  10.783 -0.1402 -0.3838 -0.9910
  906MOL0     H19580   9.949   8.654  10.783  2.6360 -1.6066 -0.2949
  906MOL0     H19581  10.127   8.713  10.939 -1.6968  0.1283 -0.9128
  906MOL0     H19582  10.243   8.766  11.306  0.0282 -1.3997  0.5292
  906MOL0     H19583  10.152   8.802  11.166 -1.0905 -2.8475 -1.2339
  906MOL0     H19584  10.418   8.661  11.173  1.4414  0.5867 -3.1829
  906MOL0     H19585  10.328   8.702  11.025 -2.6915  1.8643 -0.7365
  906MOL0     H19586  10.357   8.941  11.070  1.3396  1.2037  0.5307
  906MOL0     H19587  10.514   8.868  11.058  0.3883  4.3172  0.6093
  906MOL0     H19588  10.517   9.023  11.232  0.5698 -0.6523  1.4679
  906MOL0     H19589  10.368   8.974  11.310 -0.3872 -0.8061 -1.8473
  906MOL0     H19590  10.682   8.725  11.468 -0.9687 -0.0776  0.7769
  906MOL0     H19591   9.967   8.422  11.212  0.3048 -0.9446 -0.5781
  906MOL0     H19592   9.785   8.377  11.054  3.8080 -1.9750  1.3817
  907MOL0     O19593   3.327   3.886   3.433 -0.6394  0.0425  0.7634
  907MOL0     C19594   3.331   3.763   3.439  0.4251  0.3666 -0.6888
  907MOL0     O19595   3.230   3.677   3.412 -0.3205 -0.1861  0.4134
  907MOL0     C19596   3.112   3.723   3.369 -0.1488 -0.6467 -0.0306
  907MOL0     C19597   3.007   3.654   3.424 -0.5266 -0.0943  0.2719
  907MOL0     C19598   2.871   3.686   3.384 -0.4798  0.2078  0.2866
  907MOL0     C19599   2.840   3.789   3.301  1.0835 -0.3527  0.1375
  907MOL0     O19600   2.704   3.819   3.285 -0.3551 -0.6459  0.2845
  907MOL0     C19601   2.674   3.905   3.176  0.4663  0.9794  0.8019
  907MOL0     C19602   2.520   3.904   3.170 -0.6187 -0.2281  0.4065
  907MOL0     C19603   2.476   3.992   3.056 -0.7675  0.3450  0.4465
  907MOL0     C19604   2.340   3.957   3.006  0.0401  0.6341 -0.0556
  907MOL0     C19605   2.277   4.072   2.919  0.0170 -0.2771  0.1233
  907MOL0     C19606   2.119   4.073   2.915  0.3215  0.7255  1.1436
  907MOL0     C19607   2.062   3.959   2.833 -0.6025  0.2510 -0.6321
  907MOL0     C19608   1.909   3.963   2.831 -0.4075  0.4291  0.6728
  907MOL0     N19609   1.865   4.039   2.709  0.2807 -0.3424  0.4188
  907MOL0     C19610   1.773   4.147   2.714  0.2809  0.3814  0.7011
  907MOL0     C19611   1.736   4.162   2.586  0.6076 -0.3238 -0.3840
  907MOL0     C19612   1.623   4.242   2.541  0.7660 -0.2997 -0.1481
  907MOL0     C19613   1.504   4.154   2.500  1.1965  0.1850  0.6249
  907MOL0     C19614   1.441   4.068   2.618 -0.1092  0.4575  0.8066
  907MOL0     C19615   1.331   3.979   2.563  0.1711 -0.7536  0.4051
  907MOL0     O19616   1.205   4.049   2.535 -0.7189 -0.3925 -0.0508
  907MOL0     C19617   1.088   3.980   2.513 -1.0449 -0.4499 -0.6063
  907MOL0     C19618   1.065   3.844   2.525  0.4388  0.5190  0.0114
  907MOL0     C19619   0.937   3.787   2.500  0.4223 -0.3545 -0.4274
  907MOL0     C19620   0.827   3.876   2.461  0.3810  0.7705  0.2626
  907MOL0     C19621   0.686   3.827   2.444 -0.7703  0.0336 -0.2594
  907MOL0     O19622   0.592   3.895   2.377 -0.0054 -0.1975 -0.1482
  907MOL0     C19623   0.460   3.884   2.398 -0.3249 -1.1115 -0.3392
  907MOL0     C19624   0.405   3.862   2.526 -0.2372 -0.3603  0.8233
  907MOL0     C19625   0.269   3.861   2.531  0.2543  0.5503 -0.1511
  907MOL0     C19626   0.187   3.870   2.425  0.0643  0.4176 -0.4277
  907MOL0     O19627   0.062   3.825   2.431 -0.1486  0.9779  0.6680
  907MOL0     C19628  -0.032   3.899   2.352 -0.2550  0.8198  0.3478
  907MOL0     C19629  -0.180   3.856   2.372 -2.0413 -0.7079  0.2413
  907MOL0     C19630  -0.221   3.900   2.514 -0.7430 -0.1119 -1.0148
  907MOL0     C19631  -0.370   3.939   2.507  0.7087 -0.3043  0.0491
  907MOL0     C19632  -0.436   3.921   2.644  0.3793  0.0047  0.0055
  907MOL0     C19633  -0.577   3.989   2.648 -0.4247 -0.1497 -1.0472
  907MOL0     C19634  -0.669   3.920   2.752  0.0651  0.3708  0.4971
  907MOL0     C19635  -0.810   3.932   2.698 -0.2278 -0.2855  0.2499
  907MOL0    Cl19636  -0.877   4.105   2.691  0.2551 -0.1766 -0.0670
  907MOL0     C19637   0.239   3.905   2.300 -0.0167  0.1295  0.8037
  907MOL0     C19638   0.380   3.903   2.287 -0.2853  0.0513 -0.5341
  907MOL0     O19639   0.669   3.726   2.507 -0.4206 -0.3304 -0.6059
  907MOL0     C19640   0.856   4.016   2.453 -0.5644  0.1292  0.9723
  907MOL0     C19641   0.984   4.071   2.477  0.2266 -0.2132  0.2999
  907MOL0     N19642   1.825   4.091   2.503  1.0900  0.4755 -0.8400
  907MOL0     N19643   1.893   4.003   2.582 -0.8217  0.1456  0.6817
  907MOL0     C19644   2.944   3.861   3.246 -0.4566  0.2531 -0.0736
  907MOL0     C19645   3.071   3.819   3.275 -0.2080 -0.1608 -0.3716
  907MOL0     C19646   3.452   3.691   3.489  0.3290 -0.2554 -0.2009
  907MOL0     C19647   3.455   3.564   3.549  0.1369  0.7625 -0.7619
  907MOL0     C19648   3.582   3.517   3.596  0.2558 -0.4190 -0.5436
  907MOL0     C19649   3.705   3.572   3.577  0.3183 -0.1595 -0.6246
  907MOL0     O19650   3.814   3.499   3.610  0.2910  0.5462 -0.2946
  907MOL0     C19651   3.821   3.355   3.566  0.2330  0.2631  0.2201
  907MOL0     C19652   3.931   3.316   3.460 -0.3782 -0.4749 -0.0941
  907MOL0     C19653   3.918   3.425   3.348 -0.2318 -0.2031 -1.1695
  907MOL0     C19654   3.985   3.384   3.221  0.6230  0.6264  0.9151
  907MOL0     C19655   4.129   3.376   3.220 -0.1361 -0.3943 -0.7778
  907MOL0     C19656   4.248   3.368   3.246  1.0681  0.5023  0.5568
  907MOL0     C19657   3.705   3.701   3.509 -0.4698  0.4740  0.6414
  907MOL0     C19658   3.581   3.754   3.482  0.3937  0.0295 -0.8570
  907MOL0     H19659   3.011   3.580   3.504 -2.5256  1.2893  1.7387
  907MOL0     H19660   2.785   3.634   3.426 -2.2299  1.8236 -1.0882
  907MOL0     H19661   2.700   3.850   3.086 -0.4808 -1.4077  1.8819
  907MOL0     H19662   2.719   4.005   3.177 -1.3189  1.8538 -0.1148
  907MOL0     H19663   2.480   3.947   3.262  0.0789  1.2858  0.0338
  907MOL0     H19664   2.487   3.802   3.150 -0.2117 -0.1267 -0.8706
  907MOL0     H19665   2.552   3.996   2.977  0.3754  1.3573  1.5484
  907MOL0     H19666   2.481   4.097   3.086  0.0775  1.1836 -2.3164
  907MOL0     H19667   2.340   3.864   2.949 -0.2826 -0.0246  0.9962
  907MOL0     H19668   2.270   3.947   3.089 -2.8510 -1.3111 -2.5160
  907MOL0     H19669   2.301   4.062   2.813  0.3758  1.6259 -0.0118
  907MOL0     H19670   2.310   4.167   2.961 -1.2790  0.1207  0.2889
  907MOL0     H19671   2.090   4.167   2.868  0.5965  0.4187  0.3404
  907MOL0     H19672   2.079   4.075   3.017  0.0176 -0.9344  1.0845
  907MOL0     H19673   2.093   3.938   2.731 -2.1707 -0.6435 -0.9551
  907MOL0     H19674   2.075   3.868   2.893 -2.0305 -0.1873 -0.9552
  907MOL0     H19675   1.882   4.019   2.922  3.5879 -0.4589  2.6639
  907MOL0     H19676   1.863   3.864   2.834 -3.6238  1.7519 -0.6140
  907MOL0     H19677   1.741   4.195   2.805 -0.5021  0.2744  0.4936
  907MOL0     H19678   1.649   4.303   2.454  1.8276  1.4649  1.3264
  907MOL0     H19679   1.595   4.318   2.615 -0.8341 -0.0299 -1.0033
  907MOL0     H19680   1.540   4.089   2.419  0.2370  0.5556 -0.1340
  907MOL0     H19681   1.423   4.215   2.457  1.7463  0.0456 -0.6710
  907MOL0     H19682   1.514   4.000   2.663  0.4899  0.6930  0.2016
  907MOL0     H19683   1.397   4.131   2.697 -2.3040  0.0422 -0.0103
  907MOL0     H19684   1.315   3.909   2.645 -0.2716  0.1975  1.1501
  907MOL0     H19685   1.367   3.941   2.467 -0.1788 -0.1905  0.0438
  907MOL0     H19686   1.140   3.774   2.560 -2.9699 -2.3738  2.1911
  907MOL0     H19687   0.912   3.681   2.504 -2.1559  0.1700 -1.0215
  907MOL0     H19688   0.464   3.849   2.616  0.7833 -0.5447  0.1507
  907MOL0     H19689   0.225   3.832   2.625 -0.2487 -2.8226 -1.3106
  907MOL0     H19690  -0.009   3.884   2.246  0.3593 -2.1915  0.8291
  907MOL0     H19691  -0.019   4.001   2.390  4.1681 -0.0413  1.6793
  907MOL0     H19692  -0.182   3.749   2.350  0.0572 -0.6907 -0.2364
  907MOL0     H19693  -0.237   3.908   2.295  1.2478  1.5136 -0.9135
  907MOL0     H19694  -0.162   3.985   2.548  0.5124 -1.6448  0.8646
  907MOL0     H19695  -0.208   3.816   2.583  2.8471  1.2536  0.2102
  907MOL0     H19696  -0.391   4.041   2.471  2.0072 -1.1788 -3.6325
  907MOL0     H19697  -0.417   3.871   2.436  0.9456  1.8451 -2.3367
  907MOL0     H19698  -0.375   3.973   2.718  1.0384  1.8494 -1.7182
  907MOL0     H19699  -0.438   3.813   2.661 -0.2568 -0.2191 -1.3639
  907MOL0     H19700  -0.621   3.984   2.548  0.1899  0.8574 -1.3929
  907MOL0     H19701  -0.566   4.095   2.675 -3.6250 -0.6835  3.4033
  907MOL0     H19702  -0.641   3.822   2.792  0.1342  0.9314  1.8877
  907MOL0     H19703  -0.664   3.990   2.836 -0.3379  0.5861  0.3465
  907MOL0     H19704  -0.885   3.877   2.756 -2.9317  2.6706 -0.1604
  907MOL0     H19705  -0.814   3.891   2.597 -2.9547  2.5153 -0.9523
  907MOL0     H19706   0.186   3.909   2.206 -2.5357  2.2847  2.1900
  907MOL0     H19707   0.429   3.918   2.191 -0.6590  0.6029 -0.6404
  907MOL0     H19708   0.780   4.087   2.424  1.1025  0.7320 -2.3388
  907MOL0     H19709   1.000   4.178   2.467 -0.7919 -0.2081 -2.2430
  907MOL0     H19710   2.938   3.962   3.206  3.5600  0.7111  0.0492
  907MOL0     H19711   3.154   3.868   3.226 -0.8008  1.3883  0.1069
  907MOL0     H19712   3.368   3.504   3.572  1.5989 -2.6690 -3.2916
  907MOL0     H19713   3.578   3.423   3.649  2.8778 -1.2932 -1.7550
  907MOL0     H19714   3.730   3.326   3.514 -0.7708  2.3178  0.7286
  907MOL0     H19715   3.838   3.291   3.653  1.2752  1.6424  1.0732
  907MOL0     H19716   4.023   3.317   3.518 -0.2474  0.3564 -0.2992
  907MOL0     H19717   3.924   3.214   3.421  0.7870 -0.2952 -0.8383
  907MOL0     H19718   3.961   3.521   3.377 -3.0919  1.3264 -1.6910
  907MOL0     H19719   3.811   3.437   3.330 -0.4837  0.3210  0.5470
  907MOL0     H19720   3.947   3.287   3.188 -0.2874  0.7358  1.6132
  907MOL0     H19721   3.965   3.467   3.152 -3.1634 -0.2526  0.7787
  907MOL0     H19722   4.347   3.359   3.287  0.7843 -1.0341  0.9773
  907MOL0     H19723   3.793   3.751   3.469 -0.5646  0.0667 -0.0952
  907MOL0     H19724   3.587   3.852   3.436  1.1998 -0.3336 -1.5507
  908MOL0     O19725  10.224   1.006   8.155  0.0707  0.1874 -0.4346
  908MOL0     C19726  10.314   0.993   8.076 -0.1756  0.0107 -0.5464
  908MOL0     O19727  10.294   0.948   7.953  0.1960  0.8239  0.7635
  908MOL0     C19728  10.172   0.894   7.928 -0.4688 -0.0183  0.2180
  908MOL0     C19729  10.137   0.770   7.985  0.3023  0.8307 -0.1790
  908MOL0     C19730  10.010   0.707   7.966  0.1158 -0.0078  0.6412
  908MOL0     C19731   9.914   0.777   7.896 -0.5793  0.2566  0.4921
  908MOL0     O19732   9.793   0.717   7.880 -0.0789 -0.1898 -0.1838
  908MOL0     C19733   9.688   0.775   7.795  0.6923  0.2373 -0.5953
  908MOL0     C19734   9.563   0.699   7.849 -0.4511  0.5959  0.9166
  908MOL0     C19735   9.432   0.746   7.772  0.5605 -0.2077 -0.0714
  908MOL0     C19736   9.302   0.689   7.829  0.9413  0.4044 -0.6902
  908MOL0     C19737   9.259   0.772   7.953 -0.0844  0.2689  1.7003
  908MOL0     C19738   9.212   0.923   7.940  0.0605  0.9181 -0.5925
  908MOL0     C19739   9.269   0.996   8.069 -0.0283  0.6885  0.0797
  908MOL0     C19740   9.242   1.140   8.050 -0.1674  0.5731  1.0372
  908MOL0     N19741   9.134   1.184   8.130 -0.2147  0.1345  0.6374
  908MOL0     C19742   9.006   1.214   8.094 -1.0042  0.2426  0.0154
  908MOL0     C19743   8.946   1.245   8.208 -0.1825  0.7801  0.2769
  908MOL0     C19744   8.794   1.262   8.230  0.1650  0.0989  0.3647
  908MOL0     C19745   8.706   1.143   8.214  0.5410 -0.5562 -0.5022
  908MOL0     C19746   8.555   1.176   8.180 -0.2133 -0.6873  0.0190
  908MOL0     C19747   8.484   1.259   8.278 -0.3956 -0.2632  0.1911
  908MOL0     O19748   8.345   1.248   8.238 -0.9697 -0.6285  0.7561
  908MOL0     C19749   8.253   1.327   8.303  0.1952  0.3698 -1.5772
  908MOL0     C19750   8.282   1.400   8.419 -0.1997  0.4801  0.1481
  908MOL0     C19751   8.189   1.472   8.496 -0.1623  0.2348  0.3319
  908MOL0     C19752   8.051   1.462   8.461  0.5417 -0.1079 -0.2074
  908MOL0     C19753   7.942   1.531   8.535  0.3482 -0.6908 -0.2995
  908MOL0     O19754   7.809   1.532   8.496 -0.6303 -0.1130 -0.4082
  908MOL0     C19755   7.704   1.593   8.557 -0.1768  1.1429 -0.2611
  908MOL0     C19756   7.686   1.724   8.544 -0.3464 -0.2438 -0.1364
  908MOL0     C19757   7.575   1.789   8.595  1.5897 -0.6595 -0.0399
  908MOL0     C19758   7.467   1.721   8.664  0.1934 -0.7948  0.2333
  908MOL0     O19759   7.349   1.776   8.710  0.1238 -0.3863  0.2882
  908MOL0     C19760   7.311   1.911   8.672 -0.9290  0.5781  0.8632
  908MOL0     C19761   7.254   1.920   8.526  0.2633  0.2234  0.1955
  908MOL0     C19762   7.153   2.035   8.518  0.6471 -0.2635  0.8847
  908MOL0     C19763   7.012   1.975   8.508  1.2257 -0.0247  0.2493
  908MOL0     C19764   6.892   2.069   8.537 -0.3390 -0.1052  0.0263
  908MOL0     C19765   6.872   2.173   8.417 -0.7216  0.0328 -0.8503
  908MOL0     C19766   6.767   2.283   8.465 -0.6550 -0.3428 -0.4844
  908MOL0     C19767   6.659   2.314   8.368  0.1551  0.4869  0.9287
  908MOL0    Cl19768   6.555   2.444   8.416 -0.7324  0.0162  0.0275
  908MOL0     C19769   7.490   1.584   8.677 -0.8443 -0.9377 -0.7877
  908MOL0     C19770   7.606   1.517   8.626  0.4555  0.1969 -0.6667
  908MOL0     O19771   7.975   1.568   8.641  0.4321 -0.2895 -0.7148
  908MOL0     C19772   8.020   1.387   8.344 -0.6279  0.3404  0.7506
  908MOL0     C19773   8.121   1.328   8.264 -0.2646 -0.0442  0.2974
  908MOL0     N19774   9.040   1.250   8.304  0.1090  0.3234 -0.2681
  908MOL0     N19775   9.154   1.213   8.258  0.2727  0.2273  0.0296
  908MOL0     C19776   9.947   0.904   7.848 -0.1031  1.0483 -0.2453
  908MOL0     C19777  10.073   0.971   7.870 -0.4735 -0.9718 -0.7086
  908MOL0     C19778  10.450   1.059   8.110  0.6986  0.7372  0.2207
  908MOL0     C19779  10.546   1.064   8.013  0.3529  0.1084  0.1576
  908MOL0     C19780  10.676   1.105   8.048  0.4163 -0.2072 -0.2862
  908MOL0     C19781  10.721   1.149   8.173 -0.3093  0.8094 -0.2866
  908MOL0     O19782  10.859   1.186   8.185  0.3142 -0.7549 -0.2064
  908MOL0     C19783  10.892   1.180   8.328  0.7688 -0.5262  0.4036
  908MOL0     C19784  11.038   1.220   8.351  0.4098  0.5250  0.1031
  908MOL0     C19785  11.062   1.366   8.308  0.4319 -0.2049  0.3661
  908MOL0     C19786  11.211   1.409   8.297 -0.3207 -0.3377  0.6779
  908MOL0     C19787  11.293   1.376   8.411  0.4560  0.7740 -0.0151
  908MOL0     C19788  11.345   1.352   8.516 -0.6547  1.0446 -0.4459
  908MOL0     C19789  10.622   1.143   8.269 -1.1900  0.8371 -0.0777
  908MOL0     C19790  10.493   1.105   8.242  0.2221  0.0726  0.2617
  908MOL0     H19791  10.220   0.720   8.035 -1.0700 -2.7581 -1.1567
  908MOL0     H19792   9.992   0.612   8.014  1.0765 -0.1767  0.6863
  908MOL0     H19793   9.714   0.749   7.693 -1.6873  1.1305 -1.4932
  908MOL0     H19794   9.670   0.883   7.795  0.8131  0.2655 -1.5598
  908MOL0     H19795   9.553   0.722   7.955 -4.0855 -1.1379  1.0786
  908MOL0     H19796   9.565   0.591   7.830  1.5858  0.4995  1.4652
  908MOL0     H19797   9.426   0.706   7.670  0.3638 -1.0938  0.2783
  908MOL0     H19798   9.427   0.854   7.758  3.0794  0.3364  2.4514
  908MOL0     H19799   9.225   0.698   7.753  0.8026 -0.8857 -0.7090
  908MOL0     H19800   9.305   0.585   7.860  0.6070  0.3834 -0.7295
  908MOL0     H19801   9.346   0.762   8.018  0.2770 -3.6065  0.8510
  908MOL0     H19802   9.182   0.711   8.000  0.4275 -1.8695 -0.0841
  908MOL0     H19803   9.104   0.929   7.921 -0.1423  1.4754  0.5977
  908MOL0     H19804   9.258   0.968   7.852  1.9261  1.4218  0.5863
  908MOL0     H19805   9.217   0.969   8.162 -0.5077 -0.7158 -0.5650
  908MOL0     H19806   9.376   0.974   8.080 -0.5559 -1.4483  1.6106
  908MOL0     H19807   9.226   1.171   7.946  1.3808  1.4120  1.0176
  908MOL0     H19808   9.334   1.188   8.084 -0.1617  0.7889  0.7280
  908MOL0     H19809   8.957   1.196   7.999  1.3854 -0.0475 -1.2393
  908MOL0     H19810   8.764   1.344   8.163  3.0626 -0.4714 -1.8493
  908MOL0     H19811   8.781   1.299   8.332  1.6177  1.9651 -0.0561
  908MOL0     H19812   8.720   1.082   8.304 -1.2149 -0.4297 -0.1049
  908MOL0     H19813   8.724   1.070   8.135 -2.8290 -1.1646 -0.8580
  908MOL0     H19814   8.547   1.233   8.087  0.6547  0.9635  0.8999
  908MOL0     H19815   8.505   1.079   8.171  1.6993 -1.6713 -0.6475
  908MOL0     H19816   8.518   1.363   8.273 -0.6875  0.0469  2.8647
  908MOL0     H19817   8.499   1.229   8.382 -0.9254 -3.0936 -0.4792
  908MOL0     H19818   8.382   1.405   8.461 -0.1227 -0.3649  0.0879
  908MOL0     H19819   8.215   1.521   8.589 -2.8834  2.9738 -0.1836
  908MOL0     H19820   7.765   1.788   8.508  0.4356 -1.3349 -0.4380
  908MOL0     H19821   7.585   1.898   8.592 -0.3011 -0.4113  0.9055
  908MOL0     H19822   7.395   1.980   8.685 -0.3371 -0.2258  1.4096
  908MOL0     H19823   7.235   1.940   8.745 -2.9213 -1.7933 -0.1254
  908MOL0     H19824   7.199   1.829   8.502 -0.8612  0.8080  0.5090
  908MOL0     H19825   7.330   1.933   8.448 -1.4018  0.5093 -1.4680
  908MOL0     H19826   7.173   2.090   8.425 -3.6395  1.1201  0.5914
  908MOL0     H19827   7.164   2.113   8.593  0.9129  1.3084 -0.7218
  908MOL0     H19828   6.988   1.928   8.412 -0.5680 -2.1007  1.6185
  908MOL0     H19829   7.015   1.892   8.580  5.0674 -1.0895 -0.9075
  908MOL0     H19830   6.920   2.133   8.620  0.8400 -2.1271  1.2806
  908MOL0     H19831   6.802   2.019   8.573 -0.3203 -1.9895 -2.3032
  908MOL0     H19832   6.840   2.118   8.328 -3.0056 -3.8504  2.0572
  908MOL0     H19833   6.967   2.222   8.392 -1.4515  2.0573  0.1830
  908MOL0     H19834   6.716   2.247   8.554  2.1002 -1.2164  0.8595
  908MOL0     H19835   6.818   2.379   8.481  0.6322 -0.4186 -3.3960
  908MOL0     H19836   6.583   2.238   8.345  0.3763  0.6278 -0.3632
  908MOL0     H19837   6.710   2.345   8.276 -3.2314  1.1229 -0.9028
  908MOL0     H19838   7.409   1.528   8.723 -0.2925  0.7279  2.5236
  908MOL0     H19839   7.627   1.410   8.626  2.8626  0.5976 -2.0724
  908MOL0     H19840   7.918   1.390   8.307 -0.8084 -0.6969  1.1342
  908MOL0     H19841   8.095   1.277   8.171 -1.5513  2.6131 -0.8992
  908MOL0     H19842   9.865   0.947   7.791 -1.7212 -1.9424 -0.3965
  908MOL0     H19843  10.095   1.073   7.840  4.9757 -0.6329  3.0041
  908MOL0     H19844  10.523   1.034   7.911 -3.7839 -1.4072  1.3216
  908MOL0     H19845  10.741   1.111   7.961  1.9552 -0.4084  0.8004
  908MOL0     H19846  10.863   1.086   8.375 -0.0729 -0.6991 -0.4149
  908MOL0     H19847  10.833   1.260   8.374 -0.9428 -2.3574  1.5270
  908MOL0     H19848  11.061   1.193   8.454  1.2714 -0.4610 -0.3267
  908MOL0     H19849  11.088   1.155   8.278 -0.7663  0.8388 -1.0067
  908MOL0     H19850  11.007   1.430   8.378 -0.3779 -0.8731  0.3530
  908MOL0     H19851  11.023   1.376   8.206  0.6386 -2.4238  0.0307
  908MOL0     H19852  11.254   1.366   8.206 -1.4708 -0.5124  0.2081
  908MOL0     H19853  11.203   1.516   8.276 -1.3899 -0.2449  1.4762
  908MOL0     H19854  11.393   1.350   8.612 -0.1841  0.8680 -0.6853
  908MOL0     H19855  10.643   1.173   8.372  0.9450 -1.1215  0.1277
  908MOL0     H19856  10.420   1.109   8.323 -3.4971  2.0545 -2.7968
  909MOL0     O19857   9.361   2.703   5.466  0.2858  0.5295  0.4134
  909MOL0     C19858   9.340   2.685   5.348 -0.4080  0.4198  1.4742
  909MOL0     O19859   9.430   2.710   5.245  0.0557  0.7676 -0.2799
  909MOL0     C19860   9.554   2.756   5.263 -0.0837  0.1451 -0.7987
  909MOL0     C19861   9.661   2.699   5.184  0.7361 -0.1218 -0.0044
  909MOL0     C19862   9.789   2.740   5.209 -0.4421 -0.0099  0.1476
  909MOL0     C19863   9.818   2.843   5.296 -0.0434 -0.0474  0.4286
  909MOL0     O19864   9.943   2.884   5.323  0.1983  0.2413 -0.0960
  909MOL0     C19865  10.025   2.943   5.215 -0.4003  0.3829 -0.7311
  909MOL0     C19866  10.086   3.082   5.246  0.4035 -0.1193  0.0524
  909MOL0     C19867  10.202   3.070   5.352  0.0655 -0.5442  0.7781
  909MOL0     C19868  10.248   3.204   5.383  0.0203  0.1192 -0.3821
  909MOL0     C19869  10.353   3.194   5.495 -0.4529 -0.1193 -0.5069
  909MOL0     C19870  10.438   3.326   5.491  0.6392  0.0106  0.3943
  909MOL0     C19871  10.529   3.349   5.609 -0.1718 -0.9958 -0.6130
  909MOL0     C19872  10.589   3.492   5.579  0.2987 -0.7883 -0.2025
  909MOL0     N19873  10.492   3.599   5.610 -0.2817 -0.5444  0.3893
  909MOL0     C19874  10.438   3.701   5.527  0.8210 -0.1529 -0.0867
  909MOL0     C19875  10.394   3.800   5.612 -0.9640  0.8829  0.8632
  909MOL0     C19876  10.321   3.928   5.576  0.3008  0.6816 -0.3738
  909MOL0     C19877  10.170   3.927   5.618  0.2822  0.6169 -0.0571
  909MOL0     C19878  10.096   4.033   5.539  0.4802  0.2584 -0.6585
  909MOL0     C19879   9.946   4.036   5.579 -0.5694 -0.3998  0.1641
  909MOL0     O19880   9.860   4.105   5.483 -0.2289 -0.5597  0.0953
  909MOL0     C19881   9.747   4.171   5.527  0.9644  0.1847 -0.3810
  909MOL0     C19882   9.658   4.193   5.428  0.1833 -0.4887 -0.3895
  909MOL0     C19883   9.529   4.233   5.467  0.1133 -0.9611 -1.1112
  909MOL0     C19884   9.494   4.279   5.596  0.1694 -0.1170  0.6199
  909MOL0     C19885   9.371   4.331   5.634  0.1264 -0.0050 -0.5277
  909MOL0     O19886   9.261   4.305   5.553 -0.8218  0.0229  0.2907
  909MOL0     C19887   9.134   4.326   5.603 -0.1636 -0.7125 -0.3004
  909MOL0     C19888   9.078   4.457   5.594 -0.2072 -0.1733 -0.3947
  909MOL0     C19889   8.941   4.481   5.643 -0.5773 -1.0729  0.7376
  909MOL0     C19890   8.867   4.374   5.681  0.7568  0.5781 -0.3002
  909MOL0     O19891   8.734   4.390   5.722  0.2794  0.0953  0.2811
  909MOL0     C19892   8.686   4.313   5.826 -0.0582  0.1723 -0.4356
  909MOL0     C19893   8.546   4.373   5.853  0.4239 -0.0914 -0.5781
  909MOL0     C19894   8.479   4.283   5.959 -0.1870  0.7953  0.6307
  909MOL0     C19895   8.325   4.315   5.978 -0.8708  0.3506  0.4502
  909MOL0     C19896   8.236   4.267   5.867  0.1954  0.0289  0.3316
  909MOL0     C19897   8.096   4.279   5.925 -0.2047  0.3459  0.0058
  909MOL0     C19898   7.989   4.254   5.816 -0.1497 -0.5530 -1.2130
  909MOL0     C19899   7.851   4.291   5.872  0.7621 -0.1637  0.2374
  909MOL0    Cl19900   7.825   4.466   5.897 -0.3737  0.2005  0.3394
  909MOL0     C19901   8.922   4.252   5.683  0.6638  0.5583  0.5674
  909MOL0     C19902   9.055   4.224   5.646  0.4566 -0.3713 -0.1335
  909MOL0     O19903   9.360   4.392   5.742 -0.0776  1.0161  0.1324
  909MOL0     C19904   9.592   4.273   5.691  0.5140 -0.6185 -0.7231
  909MOL0     C19905   9.721   4.222   5.659 -0.5899  0.2597 -1.0071
  909MOL0     N19906  10.408   3.746   5.739  0.1629 -0.3423 -1.1828
  909MOL0     N19907  10.481   3.637   5.737  0.4895 -0.2409 -0.1920
  909MOL0     C19908   9.715   2.909   5.362  0.7462  0.1060 -0.0951
  909MOL0     C19909   9.593   2.859   5.354  0.9244  0.7100  0.4806
  909MOL0     C19910   9.202   2.644   5.308 -0.7301 -0.0666 -1.0644
  909MOL0     C19911   9.177   2.581   5.182 -0.6749 -0.3288 -0.1184
  909MOL0     C19912   9.045   2.545   5.147  0.5126 -0.6955  0.4720
  909MOL0     C19913   8.934   2.588   5.224  0.1259 -0.4902  0.0468
  909MOL0     O19914   8.793   2.578   5.186 -0.2628 -0.2723 -0.0390
  909MOL0     C19915   8.759   2.548   5.051  0.0516  0.5032 -0.1407
  909MOL0     C19916   8.731   2.395   5.022  0.6528 -0.8801 -1.2205
  909MOL0     C19917   8.627   2.347   5.128  0.6064  1.1445 -0.2594
  909MOL0     C19918   8.625   2.191   5.138  0.6371  0.9532  0.2141
  909MOL0     C19919   8.572   2.134   5.013  0.1856 -0.2751  0.5257
  909MOL0     C19920   8.492   2.095   4.928 -0.0316  0.3410  0.1544
  909MOL0     C19921   8.962   2.641   5.349 -0.4357  0.7132  0.0101
  909MOL0     C19922   9.095   2.668   5.392 -0.7500  0.5440 -0.1905
  909MOL0     H19923   9.637   2.626   5.108  1.8634 -1.7912  1.1688
  909MOL0     H19924   9.854   2.683   5.144  0.6344  2.0755 -0.6872
  909MOL0     H19925   9.960   2.954   5.127  0.7992 -0.8895 -1.8061
  909MOL0     H19926  10.105   2.871   5.197  2.0742  1.2410  4.7248
  909MOL0     H19927  10.002   3.147   5.272 -0.9610  0.4236 -4.7803
  909MOL0     H19928  10.128   3.121   5.153  0.8863  1.1029  0.7561
  909MOL0     H19929  10.278   3.012   5.297 -1.5056  0.9794 -3.4309
  909MOL0     H19930  10.177   3.016   5.443  2.6685 -2.7172  0.3581
  909MOL0     H19931  10.283   3.251   5.291 -0.7303  0.6279 -0.4103
  909MOL0     H19932  10.165   3.265   5.420 -0.5578 -0.8058 -0.1305
  909MOL0     H19933  10.411   3.103   5.476 -2.1181 -1.0232 -1.4989
  909MOL0     H19934  10.304   3.199   5.592  3.5575  1.2384  1.6450
  909MOL0     H19935  10.375   3.415   5.476  0.6215 -0.2451 -1.1670
  909MOL0     H19936  10.494   3.314   5.399  0.5127  0.5173  0.2446
  909MOL0     H19937  10.474   3.342   5.703 -2.8128 -2.0190 -2.1088
  909MOL0     H19938  10.609   3.275   5.613 -0.2305 -1.0038  0.8472
  909MOL0     H19939  10.623   3.486   5.475 -1.7037 -1.3350 -0.8849
  909MOL0     H19940  10.680   3.499   5.639  0.4098  0.5664 -0.4892
  909MOL0     H19941  10.410   3.696   5.423 -2.8431 -1.7121  0.8123
  909MOL0     H19942  10.331   3.945   5.469 -0.9720  0.4504 -0.5472
  909MOL0     H19943  10.365   4.001   5.645 -0.0610 -0.1604  0.7713
  909MOL0     H19944  10.155   3.939   5.726 -1.9352 -1.6995 -0.0087
  909MOL0     H19945  10.130   3.830   5.590  0.9405  0.8250 -1.8388
  909MOL0     H19946  10.146   4.130   5.553 -0.4126  0.5325  0.8162
  909MOL0     H19947  10.105   3.995   5.437  1.0701 -1.8504  0.1397
  909MOL0     H19948   9.945   4.100   5.667  0.9387  2.6204 -1.8531
  909MOL0     H19949   9.912   3.935   5.605 -2.7554 -0.0282 -0.9646
  909MOL0     H19950   9.681   4.175   5.323  0.2538  2.9093 -1.0670
  909MOL0     H19951   9.459   4.243   5.385  0.7418  1.4688 -1.4423
  909MOL0     H19952   9.136   4.545   5.570  1.1281 -1.0956 -0.6441
  909MOL0     H19953   8.903   4.583   5.639  2.2047  0.1145  1.7900
  909MOL0     H19954   8.753   4.321   5.912 -0.4010  2.5348 -0.3255
  909MOL0     H19955   8.670   4.207   5.807  1.4872  0.1398 -1.7562
  909MOL0     H19956   8.483   4.388   5.765 -1.6593 -1.0028  0.6795
  909MOL0     H19957   8.575   4.469   5.896  1.1817 -0.7158  0.3784
  909MOL0     H19958   8.526   4.285   6.058  1.0859 -3.8634  0.3713
  909MOL0     H19959   8.492   4.181   5.921  3.1130  1.9215 -1.7016
  909MOL0     H19960   8.293   4.287   6.079 -0.5558  0.7445  0.6656
  909MOL0     H19961   8.310   4.423   5.978 -0.4154  0.4760  2.8344
  909MOL0     H19962   8.254   4.160   5.849  1.7454  0.5820 -1.8098
  909MOL0     H19963   8.247   4.324   5.775 -1.1784 -3.5920 -2.3142
  909MOL0     H19964   8.091   4.381   5.964  1.4513  0.2714  0.4846
  909MOL0     H19965   8.088   4.205   6.005  2.2375  0.2920  0.2513
  909MOL0     H19966   8.006   4.325   5.734 -2.9300  2.8469  0.8827
  909MOL0     H19967   7.994   4.151   5.779 -0.1564 -1.1263  0.3148
  909MOL0     H19968   7.833   4.243   5.969 -0.3026  1.3493  0.8347
  909MOL0     H19969   7.771   4.248   5.812 -2.1634  2.2437  2.1031
  909MOL0     H19970   8.865   4.166   5.715  0.7712  0.9290  1.8260
  909MOL0     H19971   9.103   4.126   5.651  1.9527  0.3532  0.4125
  909MOL0     H19972   9.565   4.317   5.786 -2.4514  3.6854 -3.1764
  909MOL0     H19973   9.793   4.201   5.737 -2.5927 -2.9054  0.1923
  909MOL0     H19974   9.725   2.998   5.424 -3.3869  1.3366 -0.8683
  909MOL0     H19975   9.520   2.911   5.416  0.7410  2.5284 -1.1679
  909MOL0     H19976   9.269   2.580   5.124 -0.7270 -1.0675 -0.1987
  909MOL0     H19977   9.037   2.508   5.045  0.6738 -1.7781  0.8399
  909MOL0     H19978   8.851   2.564   4.995 -0.4978 -1.3294 -1.6800
  909MOL0     H19979   8.679   2.612   5.012 -0.2543 -0.3580 -0.9412
  909MOL0     H19980   8.682   2.388   4.924 -0.5233  0.8372 -0.8158
  909MOL0     H19981   8.831   2.352   5.016  0.1009 -2.1474 -1.5958
  909MOL0     H19982   8.527   2.370   5.090 -0.1001 -1.7058 -0.3635
  909MOL0     H19983   8.652   2.384   5.228 -0.5564  1.5695 -0.1168
  909MOL0     H19984   8.724   2.155   5.166  0.1575 -1.0079 -0.4379
  909MOL0     H19985   8.567   2.163   5.228  0.1992 -0.8249 -0.5741
  909MOL0     H19986   8.424   2.075   4.849 -0.1427 -1.2399  0.6327
  909MOL0     H19987   8.878   2.669   5.412 -0.7954 -0.9013  0.2965
  909MOL0     H19988   9.114   2.727   5.481 -1.2470  2.5331 -1.3573
  910MOL0     O19989   8.304   5.786   5.229  0.0460  0.1129  0.0198
  910MOL0     C19990   8.369   5.883   5.186  0.5777 -0.5109 -0.5389
  910MOL0     O19991   8.351   5.940   5.059 -0.2927  0.4405  0.2491
  910MOL0     C19992   8.276   5.876   4.965  0.6797  0.8267 -0.1819
  910MOL0     C19993   8.203   5.956   4.876 -0.4749 -0.3230 -0.3600
  910MOL0     C19994   8.144   5.909   4.766  0.3459 -1.0315  0.1866
  910MOL0     C19995   8.135   5.774   4.738 -0.0513  0.1041  0.0567
  910MOL0     O19996   8.053   5.710   4.648 -0.8416 -0.5237 -0.1067
  910MOL0     C19997   8.006   5.792   4.532  0.2212  0.0921  0.6659
  910MOL0     C19998   7.938   5.713   4.418 -0.8187  1.1159  0.5563
  910MOL0     C19999   7.834   5.616   4.467  1.1943  0.9588 -0.0000
  910MOL0     C20000   7.740   5.578   4.363 -0.3163  0.3330  0.0716
  910MOL0     C20001   7.654   5.457   4.392 -1.3792 -0.4025  0.6576
  910MOL0     C20002   7.650   5.367   4.270  0.6119 -0.3857 -0.1614
  910MOL0     C20003   7.558   5.247   4.284  0.1407 -0.1724  0.4853
  910MOL0     C20004   7.409   5.273   4.269  0.1567 -0.2002 -0.5357
  910MOL0     N20005   7.350   5.238   4.141 -0.9907  0.3632  0.2876
  910MOL0     C20006   7.309   5.110   4.114  0.8122  0.4216  0.4981
  910MOL0     C20007   7.286   5.114   3.980 -0.1435  0.0437  0.9002
  910MOL0     C20008   7.226   5.005   3.890 -0.0981 -0.1385 -0.5615
  910MOL0     C20009   7.099   5.055   3.821 -0.3551 -0.2522  0.1324
  910MOL0     C20010   6.987   5.008   3.908  0.5230 -0.7828  0.0220
  910MOL0     C20011   6.857   5.051   3.844 -0.3741  0.7047 -0.1574
  910MOL0     O20012   6.757   5.060   3.943 -0.4122 -0.3695  0.7152
  910MOL0     C20013   6.626   5.089   3.893  0.3561 -0.4309 -0.5336
  910MOL0     C20014   6.594   5.123   3.759 -1.4305  0.6701  0.4053
  910MOL0     C20015   6.464   5.145   3.717  1.0899 -0.0606  0.4168
  910MOL0     C20016   6.353   5.130   3.810 -1.0698 -0.2867 -0.0672
  910MOL0     C20017   6.217   5.157   3.767  0.7985  0.0721  0.9562
  910MOL0     O20018   6.116   5.162   3.865 -0.3590  0.0713  0.4229
  910MOL0     C20019   5.980   5.165   3.824  0.0777  0.9149 -0.1859
  910MOL0     C20020   5.926   5.091   3.718 -0.2548 -0.2149 -1.1113
  910MOL0     C20021   5.790   5.107   3.690  0.0255 -0.6514 -0.1474
  910MOL0     C20022   5.704   5.181   3.780  0.2299 -0.4472  0.0961
  910MOL0     O20023   5.573   5.211   3.754 -0.0292  0.4079 -0.1220
  910MOL0     C20024   5.487   5.104   3.719 -0.6291 -0.4015 -1.0416
  910MOL0     C20025   5.367   5.160   3.639  0.4356  0.6568 -0.4088
  910MOL0     C20026   5.398   5.174   3.485 -0.4669  0.9582 -0.6141
  910MOL0     C20027   5.498   5.278   3.442  0.1190  0.0478  0.0573
  910MOL0     C20028   5.501   5.299   3.299 -0.1174  0.0493  0.0249
  910MOL0     C20029   5.532   5.166   3.227  0.3398 -0.5530  0.0669
  910MOL0     C20030   5.661   5.096   3.267 -0.7619  0.1232  1.0678
  910MOL0     C20031   5.790   5.187   3.245 -0.2633  1.1749  0.0851
  910MOL0    Cl20032   5.925   5.079   3.279 -0.2449 -0.1458  0.9515
  910MOL0     C20033   5.759   5.246   3.888 -0.0695 -0.3818 -1.2592
  910MOL0     C20034   5.897   5.229   3.915 -0.9465  0.0824 -0.3040
  910MOL0     O20035   6.202   5.180   3.649  0.6738  0.2341  0.4959
  910MOL0     C20036   6.384   5.098   3.941 -0.4387  0.1621  0.4543
  910MOL0     C20037   6.515   5.067   3.977 -0.2428 -0.1770 -0.6915
  910MOL0     N20038   7.328   5.235   3.925  0.7607 -0.0832 -0.3401
  910MOL0     N20039   7.359   5.306   4.019 -0.5723 -0.2569 -0.5787
  910MOL0     C20040   8.217   5.689   4.818  0.9395 -1.0882  0.1164
  910MOL0     C20041   8.290   5.737   4.928 -0.6668 -0.8255  0.6815
  910MOL0     C20042   8.495   5.924   5.254  0.1660 -0.1311 -0.7659
  910MOL0     C20043   8.562   6.029   5.211 -0.0143 -0.5252  0.3420
  910MOL0     C20044   8.686   6.070   5.262 -0.0031 -0.2729 -0.1745
  910MOL0     C20045   8.742   6.003   5.372  0.4224  0.7441 -0.0862
  910MOL0     O20046   8.858   6.053   5.435  0.4458 -0.4009 -0.2283
  910MOL0     C20047   8.918   5.979   5.539  0.1794  0.7521 -0.0364
  910MOL0     C20048   9.023   6.062   5.612  1.0382  0.0350 -0.5003
  910MOL0     C20049   9.145   6.086   5.529 -1.0981  0.2831  0.1672
  910MOL0     C20050   9.237   6.195   5.589  0.6556 -0.1489  0.0560
  910MOL0     C20051   9.286   6.175   5.730 -0.2178 -0.3093 -0.8115
  910MOL0     C20052   9.308   6.141   5.845  0.5941 -0.0990  0.2239
  910MOL0     C20053   8.663   5.893   5.423 -0.0035  0.1634 -0.0749
  910MOL0     C20054   8.539   5.858   5.370  0.6419 -0.5992 -0.1684
  910MOL0     H20055   8.212   6.063   4.892  0.4819  0.0079 -2.6777
  910MOL0     H20056   8.097   5.978   4.696  0.0353 -1.7618 -0.3414
  910MOL0     H20057   8.088   5.847   4.484  0.6574 -0.1991  1.0687
  910MOL0     H20058   7.929   5.861   4.567  1.5013  1.4305  0.9521
  910MOL0     H20059   8.004   5.642   4.368  0.2666  0.5704  2.6311
  910MOL0     H20060   7.886   5.785   4.354 -0.5711 -1.0904 -2.3050
  910MOL0     H20061   7.771   5.668   4.540  0.4906  0.9469 -0.5797
  910MOL0     H20062   7.884   5.530   4.512  0.4019 -0.7243 -2.1765
  910MOL0     H20063   7.675   5.659   4.329  1.9461  2.2403  0.0679
  910MOL0     H20064   7.812   5.551   4.285  0.4376 -1.3241  1.2853
  910MOL0     H20065   7.552   5.492   4.412 -1.8773 -0.6097 -1.3052
  910MOL0     H20066   7.692   5.413   4.484  1.2265  2.2932  1.0429
  910MOL0     H20067   7.745   5.332   4.230  0.7992  0.8078 -0.8067
  910MOL0     H20068   7.609   5.438   4.198  1.3020  2.0987  1.7559
  910MOL0     H20069   7.587   5.181   4.202 -0.1373 -0.1299  0.3525
  910MOL0     H20070   7.589   5.202   4.379  3.1465  2.6554  1.0141
  910MOL0     H20071   7.403   5.382   4.284  3.4736 -0.1574  1.4997
  910MOL0     H20072   7.358   5.219   4.349  0.1529 -1.0354 -1.0917
  910MOL0     H20073   7.284   5.031   4.185  0.9254  0.7417  0.9036
  910MOL0     H20074   7.195   4.920   3.953 -1.6069 -0.2869 -1.4365
  910MOL0     H20075   7.301   4.968   3.820  0.6122  0.5603 -0.1783
  910MOL0     H20076   7.092   5.011   3.722 -1.5985 -0.6172  0.3650
  910MOL0     H20077   7.087   5.164   3.814  1.2454  0.1244  2.1280
  910MOL0     H20078   6.982   4.901   3.927  0.1491 -0.8334 -0.3415
  910MOL0     H20079   6.992   5.054   4.007  3.9694 -0.8609  0.0109
  910MOL0     H20080   6.831   4.964   3.783  1.2241  0.4414 -0.5133
  910MOL0     H20081   6.874   5.139   3.781 -0.1398 -0.7969 -2.3440
  910MOL0     H20082   6.670   5.152   3.687 -1.0602  2.1251  1.3305
  910MOL0     H20083   6.450   5.167   3.612  0.0753  0.0320  0.5612
  910MOL0     H20084   5.979   5.019   3.656  3.1931  1.4438 -0.3252
  910MOL0     H20085   5.737   5.056   3.611  2.6637 -0.9526 -1.8509
  910MOL0     H20086   5.441   5.057   3.806 -3.2741 -0.4738 -2.4075
  910MOL0     H20087   5.539   5.023   3.667  1.3900  0.6536 -0.7781
  910MOL0     H20088   5.326   5.255   3.675 -2.1288  0.3134 -2.1198
  910MOL0     H20089   5.290   5.083   3.653 -0.0902 -0.2763 -6.1028
  910MOL0     H20090   5.300   5.188   3.439 -1.2505 -1.4722  0.1189
  910MOL0     H20091   5.434   5.078   3.444  1.1946  1.8843 -1.4241
  910MOL0     H20092   5.483   5.373   3.494 -1.9517  1.5145 -2.9703
  910MOL0     H20093   5.593   5.235   3.475 -1.5299 -3.2986  0.9671
  910MOL0     H20094   5.576   5.377   3.283 -0.9458  0.7709 -0.3689
  910MOL0     H20095   5.407   5.338   3.261  0.5298  0.0501 -1.6361
  910MOL0     H20096   5.541   5.186   3.120 -0.0658 -1.4577 -0.1459
  910MOL0     H20097   5.441   5.106   3.226 -0.4833  0.6855 -0.9509
  910MOL0     H20098   5.641   5.056   3.366 -2.5443 -1.1531  0.2457
  910MOL0     H20099   5.666   5.008   3.202  0.3327  2.9732 -3.1858
  910MOL0     H20100   5.784   5.284   3.297  0.4459  1.6347 -0.6705
  910MOL0     H20101   5.794   5.228   3.144 -0.4171 -1.1231 -0.8979
  910MOL0     H20102   5.706   5.306   3.961  2.5740  1.0750 -0.4109
  910MOL0     H20103   5.940   5.267   4.007 -0.7152  2.6002 -1.3513
  910MOL0     H20104   6.304   5.088   4.013 -1.7322 -0.5915 -1.0186
  910MOL0     H20105   6.522   5.040   4.081 -1.0028  3.5278  0.4856
  910MOL0     H20106   8.223   5.586   4.784 -1.2674 -1.2050 -0.0926
  910MOL0     H20107   8.346   5.656   4.974  0.7782 -0.6086 -0.5732
  910MOL0     H20108   8.525   6.089   5.129  1.0026 -0.1705  0.1209
  910MOL0     H20109   8.737   6.153   5.214  1.7844 -0.8878  0.5577
  910MOL0     H20110   8.944   5.883   5.495  0.5450  0.1943  1.3458
  910MOL0     H20111   8.842   5.951   5.612  1.3695 -0.3490  0.8108
  910MOL0     H20112   8.986   6.163   5.632 -3.6642 -1.6631  0.7865
  910MOL0     H20113   9.035   6.019   5.711 -3.4219  0.1029  0.2986
  910MOL0     H20114   9.114   6.105   5.425 -3.8031 -1.7303  0.4899
  910MOL0     H20115   9.209   5.998   5.529 -0.1775  0.9260  1.1534
  910MOL0     H20116   9.315   6.217   5.516  0.2889  1.2967  0.0600
  910MOL0     H20117   9.172   6.283   5.594  0.5183 -0.1086 -1.8690
  910MOL0     H20118   9.337   6.125   5.947  1.9595  3.8542  0.6465
  910MOL0     H20119   8.696   5.837   5.509  0.7111  1.0034  0.2085
  910MOL0     H20120   8.483   5.779   5.420  1.0674 -1.2119 -0.6419
  911MOL0     O20121   9.342   7.074   4.839  0.1573 -0.2560 -0.0474
  911MOL0     C20122   9.358   7.022   4.946  0.0884  0.7070  0.0316
  911MOL0     O20123   9.265   6.986   5.031  0.2832  0.2742 -0.1087
  911MOL0     C20124   9.138   6.981   4.974 -0.2378 -1.0214  0.7058
  911MOL0     C20125   9.080   6.857   4.940 -0.5325 -0.6635 -0.2098
  911MOL0     C20126   8.962   6.852   4.871 -0.8070 -0.4335  0.4120
  911MOL0     C20127   8.904   6.971   4.833  0.3376  0.3852 -0.9186
  911MOL0     O20128   8.785   6.956   4.769 -0.8009  0.3509 -0.4654
  911MOL0     C20129   8.724   7.063   4.706  0.1296  0.1939  0.7058
  911MOL0     C20130   8.602   6.998   4.632 -0.1479  1.0808 -0.8442
  911MOL0     C20131   8.492   6.965   4.737  0.0211 -0.0431 -0.1448
  911MOL0     C20132   8.380   6.881   4.667  0.0800 -0.5806 -0.3321
  911MOL0     C20133   8.272   6.836   4.761  0.3405  0.0932 -1.2515
  911MOL0     C20134   8.156   6.768   4.689  1.7258  0.5789 -0.5466
  911MOL0     C20135   8.048   6.719   4.791 -0.4052  1.4456  0.0621
  911MOL0     C20136   7.933   6.635   4.722 -0.4446 -0.5182 -0.3417
  911MOL0     N20137   7.823   6.610   4.816  0.2485 -0.8071  0.1274
  911MOL0     C20138   7.762   6.491   4.823  0.1425  0.2732  0.0553
  911MOL0     C20139   7.655   6.512   4.910 -0.3978  0.1090  1.1366
  911MOL0     C20140   7.560   6.410   4.967 -0.3032  0.9573 -0.0112
  911MOL0     C20141   7.613   6.337   5.089 -0.1633  0.1930 -0.1289
  911MOL0     C20142   7.548   6.195   5.101  0.4812  0.1249  0.3271
  911MOL0     C20143   7.395   6.192   5.128 -0.0174 -0.2845  0.4853
  911MOL0     O20144   7.319   6.215   5.002 -0.4352  0.0190 -0.2590
  911MOL0     C20145   7.182   6.213   5.009  0.3292  0.9453 -1.2509
  911MOL0     C20146   7.100   6.269   4.909 -0.1256 -0.2117 -0.3438
  911MOL0     C20147   6.961   6.263   4.911  0.2318  0.3120 -0.2707
  911MOL0     C20148   6.894   6.198   5.015  0.5702  0.1739 -0.0208
  911MOL0     C20149   6.747   6.188   5.007 -0.7374 -0.3425  0.4364
  911MOL0     O20150   6.685   6.301   4.941 -0.4073 -0.2022  0.0009
  911MOL0     C20151   6.550   6.309   4.943  1.1452 -1.6130  0.2004
  911MOL0     C20152   6.488   6.437   4.956  0.3555 -0.4080  0.2227
  911MOL0     C20153   6.355   6.460   4.935 -0.5554  0.8344 -0.7311
  911MOL0     C20154   6.274   6.356   4.896 -0.4704  0.4260 -0.4269
  911MOL0     O20155   6.144   6.387   4.853  0.1152  0.5881 -0.5713
  911MOL0     C20156   6.055   6.280   4.825 -0.3008  0.0997 -0.1757
  911MOL0     C20157   5.921   6.338   4.784 -0.3131 -0.1837  0.6742
  911MOL0     C20158   5.807   6.236   4.761  0.6558  0.1801  0.2289
  911MOL0     C20159   5.723   6.257   4.636  0.0855  0.4228 -1.0967
  911MOL0     C20160   5.597   6.166   4.635 -1.1831  0.3538  0.3439
  911MOL0     C20161   5.479   6.200   4.733 -0.2991  0.0019  0.3096
  911MOL0     C20162   5.354   6.118   4.697  1.0742  0.0875 -0.1939
  911MOL0     C20163   5.238   6.135   4.789 -0.5461 -0.4131 -0.3651
  911MOL0    Cl20164   5.093   6.062   4.722 -0.0757  0.1157  0.2766
  911MOL0     C20165   6.329   6.227   4.890  1.2363 -0.1913  1.1366
  911MOL0     C20166   6.461   6.206   4.914  0.2725 -0.0102  0.2829
  911MOL0     O20167   6.695   6.099   5.068 -0.4557 -0.3722  0.3496
  911MOL0     C20168   6.967   6.118   5.098 -0.3386  0.0287  0.4249
  911MOL0     C20169   7.111   6.130   5.100  0.4833 -0.4389  0.6262
  911MOL0     N20170   7.657   6.649   4.937  0.4761  1.2210  0.2642
  911MOL0     N20171   7.750   6.713   4.880 -0.5795 -0.6365  0.5843
  911MOL0     C20172   8.952   7.094   4.868  0.1261 -0.8379  0.5785
  911MOL0     C20173   9.068   7.105   4.944  0.1863 -0.1452  1.3999
  911MOL0     C20174   9.496   6.986   4.988 -0.3668 -0.8452  1.0179
  911MOL0     C20175   9.601   6.983   4.889  0.2363 -0.0377  0.4615
  911MOL0     C20176   9.729   6.954   4.922 -0.4543 -0.1773  0.3686
  911MOL0     C20177   9.764   6.928   5.053  0.5900  0.7284 -0.0667
  911MOL0     O20178   9.873   6.907   5.124 -0.2383 -0.6064 -0.0253
  911MOL0     C20179   9.977   6.852   5.046  0.0601  0.1075  0.2576
  911MOL0     C20180  10.103   6.882   5.128 -0.1696  1.0330 -0.2666
  911MOL0     C20181  10.232   6.808   5.088  0.7227  0.0745 -0.2852
  911MOL0     C20182  10.218   6.656   5.103  0.1414  0.7438 -0.2819
  911MOL0     C20183  10.352   6.589   5.127  1.2983  0.9073 -0.7638
  911MOL0     C20184  10.460   6.532   5.148 -0.3794 -1.4550 -0.4858
  911MOL0     C20185   9.665   6.932   5.144  0.8588  0.1378  0.4731
  911MOL0     C20186   9.533   6.965   5.113 -0.2128 -0.0949 -1.1441
  911MOL0     H20187   9.136   6.765   4.959  2.4752  0.8326 -1.0883
  911MOL0     H20188   8.919   6.757   4.842  0.2035 -2.0625  3.6587
  911MOL0     H20189   8.788   7.114   4.633 -0.7535 -1.3521 -1.2517
  911MOL0     H20190   8.680   7.137   4.773  0.3515  0.6347  0.3676
  911MOL0     H20191   8.635   6.913   4.571  1.2934  1.6021 -0.8092
  911MOL0     H20192   8.565   7.074   4.564  0.1871 -0.2594 -2.5920
  911MOL0     H20193   8.461   7.063   4.773  2.9058  0.8812  0.0905
  911MOL0     H20194   8.524   6.902   4.820  0.7932  1.3129  0.6176
  911MOL0     H20195   8.335   6.939   4.585  0.1201  1.0065  0.7231
  911MOL0     H20196   8.421   6.791   4.622 -0.7776 -0.4767 -1.3624
  911MOL0     H20197   8.228   6.922   4.813 -3.1210 -2.3948  0.3680
  911MOL0     H20198   8.312   6.773   4.842 -2.2509 -1.7308 -1.2572
  911MOL0     H20199   8.195   6.681   4.635  1.3078  0.8098 -1.2448
  911MOL0     H20200   8.112   6.842   4.621 -1.4436 -1.0220 -0.4119
  911MOL0     H20201   8.102   6.662   4.866 -1.0381  0.4147 -0.2527
  911MOL0     H20202   7.992   6.804   4.832  1.2017  0.3589  5.1722
  911MOL0     H20203   7.984   6.542   4.694 -2.4298 -1.0479 -2.4506
  911MOL0     H20204   7.887   6.690   4.640 -0.0448 -2.5436 -2.0088
  911MOL0     H20205   7.788   6.398   4.773 -1.2521  1.4501 -3.0922
  911MOL0     H20206   7.556   6.330   4.893  2.1736 -1.5130  2.2569
  911MOL0     H20207   7.455   6.436   4.981 -1.7044 -4.1824  1.2016
  911MOL0     H20208   7.614   6.381   5.189  0.2915 -0.3722  0.1240
  911MOL0     H20209   7.720   6.323   5.072  0.0746 -0.7996  1.8431
  911MOL0     H20210   7.571   6.135   5.013  2.3882 -1.0152  1.5297
  911MOL0     H20211   7.599   6.153   5.188 -1.4882  1.3579  2.1758
  911MOL0     H20212   7.383   6.275   5.198  0.6970  0.2497 -0.0155
  911MOL0     H20213   7.371   6.097   5.178 -3.1488  0.6127  0.9391
  911MOL0     H20214   7.152   6.327   4.834  1.8415 -0.8393  0.4574
  911MOL0     H20215   6.911   6.310   4.828  0.8880  2.4216  0.4733
  911MOL0     H20216   6.559   6.518   4.974  1.2473 -1.0299 -0.4096
  911MOL0     H20217   6.307   6.556   4.921 -0.3580  1.1508  0.6665
  911MOL0     H20218   6.046   6.220   4.916  2.6252  1.1611  0.9101
  911MOL0     H20219   6.095   6.218   4.744  1.5823  0.8133  0.1729
  911MOL0     H20220   5.933   6.387   4.686 -2.0027 -2.0508 -0.5541
  911MOL0     H20221   5.898   6.413   4.860 -0.6519  0.2649  0.1460
  911MOL0     H20222   5.734   6.243   4.842  1.0145 -2.4374  0.8759
  911MOL0     H20223   5.848   6.135   4.762  2.2705  0.8182  0.8867
  911MOL0     H20224   5.697   6.363   4.633  0.0179  0.4150 -0.8150
  911MOL0     H20225   5.790   6.231   4.553  2.1368 -0.8590  0.8431
  911MOL0     H20226   5.626   6.064   4.663  0.4960  1.6515  3.9302
  911MOL0     H20227   5.559   6.186   4.534  3.3700 -1.6994 -2.1068
  911MOL0     H20228   5.458   6.307   4.736  1.1302  0.4581 -2.4063
  911MOL0     H20229   5.519   6.165   4.828  0.3797 -0.8533 -0.2735
  911MOL0     H20230   5.334   6.146   4.593 -1.2284  1.0482  0.4568
  911MOL0     H20231   5.385   6.013   4.705  2.5064  0.5051  0.0753
  911MOL0     H20232   5.220   6.242   4.802 -3.4394 -0.8810  0.1346
  911MOL0     H20233   5.265   6.094   4.886  2.4243  2.3519  0.1701
  911MOL0     H20234   6.259   6.152   4.855 -0.2728  2.9264 -3.3947
  911MOL0     H20235   6.507   6.111   4.888 -0.6760 -0.1619 -0.9649
  911MOL0     H20236   6.919   6.056   5.172  1.3485 -0.2791  1.2971
  911MOL0     H20237   7.164   6.064   5.167 -0.1486 -2.0163 -0.3817
  911MOL0     H20238   8.900   7.186   4.842  0.8630 -1.1139 -2.0576
  911MOL0     H20239   9.098   7.205   4.975 -3.2488  1.0929  1.2052
  911MOL0     H20240   9.582   7.007   4.785 -2.5588  0.6799  1.0576
  911MOL0     H20241   9.799   6.960   4.839 -0.7569  1.6201  0.2020
  911MOL0     H20242   9.978   6.892   4.945  2.0900 -1.2914 -0.3427
  911MOL0     H20243   9.966   6.743   5.038  1.1937  0.0529 -0.8433
  911MOL0     H20244  10.116   6.990   5.117 -0.7319  0.9141 -2.7028
  911MOL0     H20245  10.078   6.854   5.231  2.6048  4.4141  1.5321
  911MOL0     H20246  10.316   6.837   5.151 -0.0366 -0.8512  1.2105
  911MOL0     H20247  10.260   6.840   4.987 -1.3889 -0.0056 -0.9483
  911MOL0     H20248  10.160   6.625   5.190  3.4596  3.8388  3.4603
  911MOL0     H20249  10.172   6.616   5.012  2.4918 -0.6067 -0.9722
  911MOL0     H20250  10.549   6.474   5.165  1.6754  1.4103 -0.6577
  911MOL0     H20251   9.698   6.912   5.245 -0.3170 -5.9555 -0.0235
  911MOL0     H20252   9.463   6.977   5.195 -0.4390 -0.1261 -1.3282
  912MOL0     O20253   6.830   1.101   6.686  0.5460 -0.6283 -0.1730
  912MOL0     C20254   6.815   1.017   6.778  0.2151 -0.2950  0.2757
  912MOL0     O20255   6.703   0.958   6.821 -0.3028  0.0594  0.2828
  912MOL0     C20256   6.590   0.995   6.760  0.2132 -0.5503  0.1108
  912MOL0     C20257   6.562   0.976   6.622 -0.0260 -0.1333 -0.0247
  912MOL0     C20258   6.453   1.022   6.559 -0.0717  0.3835 -0.7063
  912MOL0     C20259   6.358   1.093   6.629  0.6638 -0.3940 -0.8232
  912MOL0     O20260   6.242   1.141   6.565 -0.2926  0.0856 -0.3808
  912MOL0     C20261   6.182   1.041   6.487  0.2611  0.0719  0.3954
  912MOL0     C20262   6.041   1.090   6.431  0.8024 -0.4757 -0.4212
  912MOL0     C20263   6.009   0.988   6.325 -0.8464  1.3215  0.3336
  912MOL0     C20264   5.873   1.019   6.260 -0.7892  0.5658 -0.0355
  912MOL0     C20265   5.800   0.908   6.181 -0.4986 -0.2441 -0.9231
  912MOL0     C20266   5.871   0.840   6.058  1.2079  0.1485  0.2177
  912MOL0     C20267   5.756   0.788   5.974 -0.1802 -1.3570  0.2402
  912MOL0     C20268   5.811   0.717   5.845  0.1131 -0.8749  0.4110
  912MOL0     N20269   5.708   0.700   5.743 -0.6269  0.3274 -0.0965
  912MOL0     C20270   5.698   0.766   5.625  0.5296  0.4958 -0.4961
  912MOL0     C20271   5.604   0.703   5.554  0.4693 -0.1558 -0.5649
  912MOL0     C20272   5.537   0.745   5.421 -0.2075 -0.0219  0.1498
  912MOL0     C20273   5.392   0.746   5.432 -0.6790  0.1397  0.0333
  912MOL0     C20274   5.316   0.819   5.314 -1.0536  0.5737 -0.3323
  912MOL0     C20275   5.165   0.780   5.345 -0.0612  1.0686  0.5116
  912MOL0     O20276   5.099   0.806   5.221 -0.2505  0.3814  0.7588
  912MOL0     C20277   4.973   0.749   5.188 -0.2837 -0.6788  0.2743
  912MOL0     C20278   4.885   0.697   5.283 -0.1147  0.0682  0.5489
  912MOL0     C20279   4.759   0.646   5.244 -0.1510  0.7070 -0.0780
  912MOL0     C20280   4.715   0.666   5.108  1.1329  0.7818 -0.3540
  912MOL0     C20281   4.568   0.638   5.065 -0.2444  0.3915  0.2853
  912MOL0     O20282   4.539   0.646   4.928  0.3682 -0.2147 -0.2394
  912MOL0     C20283   4.404   0.622   4.903 -0.8454  0.3890 -0.8382
  912MOL0     C20284   4.330   0.731   4.859  0.0722 -0.0124 -0.3533
  912MOL0     C20285   4.192   0.709   4.838  0.2629 -0.0995  0.6849
  912MOL0     C20286   4.132   0.588   4.854 -0.0649  0.4583  0.3863
  912MOL0     O20287   4.001   0.563   4.828  0.1269  0.3941 -0.1391
  912MOL0     C20288   3.946   0.602   4.703  0.1575 -0.0464  0.3901
  912MOL0     C20289   3.809   0.521   4.686 -0.4993  0.4969  1.2310
  912MOL0     C20290   3.738   0.574   4.553 -0.1121  0.6765  0.2942
  912MOL0     C20291   3.814   0.541   4.428  0.2009  0.6841 -0.1267
  912MOL0     C20292   3.770   0.594   4.294  0.5955 -0.1696 -1.5674
  912MOL0     C20293   3.874   0.550   4.191 -0.1251 -0.1284  0.7022
  912MOL0     C20294   3.813   0.556   4.051  0.2173 -0.7494 -0.5670
  912MOL0     C20295   3.894   0.497   3.935  0.4199 -0.5818 -0.1983
  912MOL0    Cl20296   4.041   0.593   3.911  0.6761 -0.6839  0.0493
  912MOL0     C20297   4.204   0.487   4.910 -0.6065  0.1070  0.0770
  912MOL0     C20298   4.338   0.498   4.923  0.1490 -0.5337 -0.1644
  912MOL0     O20299   4.481   0.626   5.155 -0.4575  0.4965  0.1136
  912MOL0     C20300   4.807   0.714   5.019  0.4867  0.1385 -0.5596
  912MOL0     C20301   4.937   0.748   5.053 -0.1861 -0.3743 -0.1030
  912MOL0     N20302   5.565   0.596   5.624  0.3396 -0.1514 -1.0009
  912MOL0     N20303   5.630   0.586   5.734  0.2917 -1.1257 -0.3411
  912MOL0     C20304   6.381   1.116   6.767 -0.5136 -0.1059 -0.0812
  912MOL0     C20305   6.496   1.072   6.830  0.0493  0.1303 -0.4278
  912MOL0     C20306   6.937   0.976   6.836 -0.3749 -0.6591  0.0018
  912MOL0     C20307   6.934   0.891   6.958  0.0503  0.4731 -0.1147
  912MOL0     C20308   7.043   0.865   7.034  0.2196  0.2388  0.0827
  912MOL0     C20309   7.169   0.911   6.997  0.6218  1.4200 -0.3479
  912MOL0     O20310   7.289   0.886   7.062  0.2527  0.0353 -0.5517
  912MOL0     C20311   7.294   0.803   7.170 -0.1849  0.8707  0.4411
  912MOL0     C20312   7.352   0.664   7.122  0.2533  1.2934  0.6302
  912MOL0     C20313   7.464   0.659   7.021  0.1260  0.5954 -0.7742
  912MOL0     C20314   7.489   0.514   6.985 -0.2029 -0.2927  0.2054
  912MOL0     C20315   7.606   0.491   6.897  1.0610 -1.4095 -0.7707
  912MOL0     C20316   7.703   0.493   6.830 -0.2984  0.2215  0.1810
  912MOL0     C20317   7.176   0.998   6.885  0.0001  0.3287  0.5685
  912MOL0     C20318   7.070   1.032   6.802 -0.6569  0.0167  0.4279
  912MOL0     H20319   6.638   0.929   6.560  0.1145 -0.2335  0.2236
  912MOL0     H20320   6.447   1.002   6.453 -0.7506 -0.9978 -0.4302
  912MOL0     H20321   6.185   0.945   6.541 -0.7328  1.2900  2.7778
  912MOL0     H20322   6.247   1.022   6.401 -0.1319 -0.9768  0.3162
  912MOL0     H20323   6.046   1.186   6.379 -1.8223  0.5473  1.0004
  912MOL0     H20324   5.972   1.088   6.516 -0.5467 -2.0462 -1.4766
  912MOL0     H20325   5.996   0.894   6.379 -1.5859  2.0040  1.3861
  912MOL0     H20326   6.085   0.981   6.247  0.6933  2.5619  1.6498
  912MOL0     H20327   5.803   1.059   6.334 -1.8468 -0.3891 -0.5005
  912MOL0     H20328   5.906   1.095   6.189  0.8785 -0.7790 -0.7753
  912MOL0     H20329   5.708   0.958   6.149 -1.3184 -2.6488 -2.6407
  912MOL0     H20330   5.774   0.827   6.250 -0.8354  0.4146 -0.2709
  912MOL0     H20331   5.947   0.766   6.086  2.2805  0.7291 -1.0619
  912MOL0     H20332   5.914   0.923   6.002  0.2510  1.8831  1.9152
  912MOL0     H20333   5.695   0.718   6.032  0.4504  0.0000  2.7302
  912MOL0     H20334   5.695   0.877   5.953  1.9618  0.6754  2.0155
  912MOL0     H20335   5.859   0.627   5.883  1.4190 -0.2369  0.3288
  912MOL0     H20336   5.890   0.782   5.807 -3.4406  3.8208 -0.0251
  912MOL0     H20337   5.758   0.852   5.595  0.4621  0.5307 -0.5320
  912MOL0     H20338   5.565   0.682   5.337  0.4668  1.6394 -0.9239
  912MOL0     H20339   5.579   0.843   5.396 -1.1834  0.4756  0.4064
  912MOL0     H20340   5.364   0.781   5.532 -0.0025  0.5094  0.0964
  912MOL0     H20341   5.357   0.644   5.450  2.2097 -0.9424  0.0323
  912MOL0     H20342   5.335   0.927   5.314 -1.6907  0.8291  3.5219
  912MOL0     H20343   5.345   0.773   5.219 -1.0200 -1.6044  0.6740
  912MOL0     H20344   5.140   0.851   5.424 -0.9705  1.2825  0.0460
  912MOL0     H20345   5.156   0.674   5.369 -0.8713  1.2566  1.0814
  912MOL0     H20346   4.913   0.691   5.388  2.4181  1.9763  0.0886
  912MOL0     H20347   4.686   0.603   5.313  0.1302  1.9365  1.0174
  912MOL0     H20348   4.361   0.835   4.862 -0.0082  0.0553  3.4400
  912MOL0     H20349   4.143   0.797   4.798  1.9589  0.9753  0.8239
  912MOL0     H20350   4.015   0.594   4.618  2.1639  0.8603  1.8429
  912MOL0     H20351   3.930   0.709   4.721  5.1975  0.8600  1.1846
  912MOL0     H20352   3.740   0.536   4.769 -1.4987 -1.1083  0.7331
  912MOL0     H20353   3.829   0.415   4.667  0.7950  1.1478 -1.5718
  912MOL0     H20354   3.722   0.682   4.557 -0.1193  0.6445  1.2067
  912MOL0     H20355   3.642   0.523   4.563  0.1333  0.1966  0.2246
  912MOL0     H20356   3.921   0.563   4.436 -0.1200  2.6572 -0.5643
  912MOL0     H20357   3.800   0.433   4.420 -1.2748  0.9139 -0.9191
  912MOL0     H20358   3.768   0.704   4.295  1.5059 -0.1321 -2.5930
  912MOL0     H20359   3.666   0.572   4.268  0.2995  1.1575 -1.5882
  912MOL0     H20360   3.923   0.453   4.204  0.8900  0.3111  0.3157
  912MOL0     H20361   3.958   0.620   4.197  0.3963 -0.7434  0.7705
  912MOL0     H20362   3.714   0.510   4.051 -0.5300  0.6719 -2.6482
  912MOL0     H20363   3.788   0.659   4.025  0.8287 -0.3514  0.3855
  912MOL0     H20364   3.847   0.487   3.836 -0.2818  0.6715 -0.0165
  912MOL0     H20365   3.916   0.395   3.966 -3.4483 -1.1550  1.1485
  912MOL0     H20366   4.158   0.389   4.914  1.0978 -0.7002  1.2210
  912MOL0     H20367   4.398   0.415   4.961  1.1681  0.8554  1.4143
  912MOL0     H20368   4.786   0.730   4.914 -0.6536 -2.1307 -0.7406
  912MOL0     H20369   5.012   0.778   4.980  1.1101 -2.1984  0.4037
  912MOL0     H20370   6.303   1.175   6.813 -2.2086  0.3488 -3.2686
  912MOL0     H20371   6.507   1.091   6.936  1.1757 -1.8525 -0.1411
  912MOL0     H20372   6.841   0.859   7.005  1.3325 -0.7642  1.7213
  912MOL0     H20373   7.026   0.828   7.134  0.9171  0.9696  0.4816
  912MOL0     H20374   7.201   0.786   7.225 -1.0207 -0.7618 -1.4010
  912MOL0     H20375   7.370   0.841   7.239 -0.1275 -0.6117  1.2452
  912MOL0     H20376   7.380   0.607   7.212 -1.5104 -0.9207 -0.1244
  912MOL0     H20377   7.271   0.611   7.071  1.3887 -1.4178  1.4426
  912MOL0     H20378   7.549   0.706   7.070  0.0672  1.3505 -1.3768
  912MOL0     H20379   7.439   0.722   6.935  1.4536 -1.0293 -2.4252
  912MOL0     H20380   7.507   0.445   7.067 -3.0091 -1.3368  0.0583
  912MOL0     H20381   7.402   0.478   6.929  0.2621  1.2770 -1.6409
  912MOL0     H20382   7.784   0.510   6.761  0.0410  1.5283  0.8634
  912MOL0     H20383   7.274   1.038   6.863 -0.3652  0.6433 -0.5485
  912MOL0     H20384   7.100   1.080   6.710  0.5809 -0.4864  0.5449
  913MOL0     O20385   4.942   9.773   2.791  0.7140  0.3895 -0.6767
  913MOL0     C20386   4.984   9.662   2.749 -0.1930 -0.4158 -0.7724
  913MOL0     O20387   5.111   9.629   2.723 -0.2727 -0.2704  0.2538
  913MOL0     C20388   5.200   9.726   2.761 -0.6255 -0.2467  0.0379
  913MOL0     C20389   5.210   9.849   2.708  0.2555  0.5776  0.3689
  913MOL0     C20390   5.303   9.943   2.748  1.2135 -0.0336 -0.1774
  913MOL0     C20391   5.396   9.908   2.846 -0.7785 -0.6245  0.0491
  913MOL0     O20392   5.491   9.997   2.880  0.1919  0.4737 -0.7931
  913MOL0     C20393   5.452  10.132   2.898 -0.2976  0.0847 -0.0116
  913MOL0     C20394   5.563  10.202   2.960  0.4720 -0.6247  0.1282
  913MOL0     C20395   5.690  10.208   2.878 -0.5894  0.5339 -0.3437
  913MOL0     C20396   5.783  10.313   2.940  0.5776 -0.3250 -0.3534
  913MOL0     C20397   5.910  10.312   2.856 -0.2299 -0.9736  0.4404
  913MOL0     C20398   6.031  10.383   2.925  0.1859 -0.0504 -0.3582
  913MOL0     C20399   6.024  10.524   2.967 -0.6130 -0.9018  0.1512
  913MOL0     C20400   5.949  10.626   2.876  0.1565 -0.2831 -0.2930
  913MOL0     N20401   5.965  10.765   2.918 -0.5610 -0.0217 -0.4058
  913MOL0     C20402   6.086  10.834   2.911 -0.3495 -0.9297 -0.2382
  913MOL0     C20403   6.048  10.962   2.933 -1.2645  0.0053 -0.6304
  913MOL0     C20404   6.134  11.088   2.927 -0.1156 -0.1298  0.1968
  913MOL0     C20405   6.156  11.129   3.073 -0.3683 -0.0415 -0.8446
  913MOL0     C20406   6.215  11.273   3.095 -0.4460 -0.3231 -0.6181
  913MOL0     C20407   6.342  11.304   3.023  0.1918  0.8025  0.1317
  913MOL0     O20408   6.395  11.443   3.053  0.5672 -0.2830  0.3381
  913MOL0     C20409   6.527  11.469   3.013  0.0387  0.2223 -0.4906
  913MOL0     C20410   6.593  11.578   3.071  0.0383 -0.3036  0.4854
  913MOL0     C20411   6.736  11.598   3.050  0.5793  0.2605 -0.2618
  913MOL0     C20412   6.804  11.510   2.954  0.1427 -0.4321 -1.0114
  913MOL0     C20413   6.935  11.548   2.914 -0.5069 -0.4554  1.4827
  913MOL0     O20414   6.993  11.454   2.832 -0.9663 -0.3918  0.1569
  913MOL0     C20415   7.120  11.469   2.790  0.0827  0.1949 -0.1885
  913MOL0     C20416   7.149  11.585   2.708  0.4211  0.4818  0.5285
  913MOL0     C20417   7.270  11.617   2.655 -0.4470 -0.6043 -0.1203
  913MOL0     C20418   7.378  11.536   2.704 -0.0628  0.3185  0.7113
  913MOL0     O20419   7.508  11.549   2.669  0.5001  0.2729 -0.0701
  913MOL0     C20420   7.538  11.608   2.542  0.8141 -0.6100 -0.1661
  913MOL0     C20421   7.688  11.643   2.514 -0.7919 -0.4640  0.8523
  913MOL0     C20422   7.710  11.792   2.562 -0.1872  0.2056  0.5241
  913MOL0     C20423   7.858  11.851   2.549  0.8819 -0.1776  0.2329
  913MOL0     C20424   7.865  12.006   2.547 -0.3412  0.0988  0.0165
  913MOL0     C20425   7.997  12.073   2.501  0.8117  0.1730  0.1629
  913MOL0     C20426   8.016  12.199   2.581 -0.5381  0.3401  0.3489
  913MOL0     C20427   8.130  12.293   2.534  0.5541 -0.7721  0.5944
  913MOL0    Cl20428   8.083  12.385   2.389  0.1385  0.1011  0.1455
  913MOL0     C20429   7.357  11.423   2.788  0.6972 -0.2025  0.3595
  913MOL0     C20430   7.227  11.390   2.836 -0.0378  0.1861  0.1036
  913MOL0     O20431   6.995  11.643   2.959 -0.0263 -0.1353  0.1004
  913MOL0     C20432   6.736  11.401   2.894  0.9687 -0.7526 -0.8110
  913MOL0     C20433   6.599  11.382   2.931 -0.0630  0.0976  0.9754
  913MOL0     N20434   5.915  10.966   2.951 -0.4977 -0.7254  0.7707
  913MOL0     N20435   5.864  10.848   2.946 -0.1611  0.6543  0.4187
  913MOL0     C20436   5.389   9.783   2.908 -0.9545 -0.3269 -0.0014
  913MOL0     C20437   5.290   9.692   2.864 -0.2859  0.8669  0.2554
  913MOL0     C20438   4.880   9.569   2.728  0.3272 -0.9525 -0.0365
  913MOL0     C20439   4.741   9.604   2.752 -0.1927  0.4074 -0.5748
  913MOL0     C20440   4.645   9.508   2.730  0.3213  0.5731  0.5446
  913MOL0     C20441   4.681   9.372   2.700  0.1348 -0.4616 -0.3426
  913MOL0     O20442   4.592   9.267   2.681  0.0271 -0.6219 -0.0738
  913MOL0     C20443   4.451   9.292   2.696 -0.1285 -0.1969  0.3609
  913MOL0     C20444   4.399   9.296   2.835  0.2393 -0.2952  0.0266
  913MOL0     C20445   4.259   9.349   2.831 -0.2556  0.5420 -0.2903
  913MOL0     C20446   4.252   9.498   2.866 -0.3099 -0.2988  0.6899
  913MOL0     C20447   4.247   9.506   3.011  0.2709 -0.3641 -0.7362
  913MOL0     C20448   4.250   9.533   3.133 -1.1159  0.4730 -0.4617
  913MOL0     C20449   4.814   9.345   2.664 -0.4335  0.4590 -0.5265
  913MOL0     C20450   4.907   9.444   2.668  0.3117 -0.1864  0.2495
  913MOL0     H20451   5.136   9.862   2.629  0.0345  1.0428  0.6506
  913MOL0     H20452   5.318  10.032   2.687  1.1362  0.9602  1.1832
  913MOL0     H20453   5.361  10.149   2.957 -0.4629  1.4384 -0.6275
  913MOL0     H20454   5.447  10.166   2.794  3.6445  0.2952 -0.2772
  913MOL0     H20455   5.579  10.164   3.061 -1.0846  3.1182  1.9812
  913MOL0     H20456   5.534  10.307   2.970  1.2951 -0.1612 -1.8076
  913MOL0     H20457   5.660  10.238   2.777  1.1296  0.2398 -0.9726
  913MOL0     H20458   5.733  10.108   2.884 -3.1214 -0.6579 -0.6426
  913MOL0     H20459   5.736  10.411   2.930  1.1490 -0.2163 -2.5622
  913MOL0     H20460   5.808  10.313   3.046  1.3168  3.1565 -0.4030
  913MOL0     H20461   5.897  10.373   2.766  2.8028 -0.5322  0.1890
  913MOL0     H20462   5.947  10.210   2.839  1.6268 -0.3375  0.4249
  913MOL0     H20463   6.111  10.370   2.852  0.3305 -0.5990 -0.1075
  913MOL0     H20464   6.061  10.331   3.017  0.8876  0.2183 -0.4249
  913MOL0     H20465   5.971  10.532   3.063 -1.2688  1.2766 -0.3346
  913MOL0     H20466   6.123  10.560   2.997  0.5316 -2.4792 -1.5258
  913MOL0     H20467   5.842  10.605   2.891  0.3222 -1.5177 -0.7510
  913MOL0     H20468   5.988  10.620   2.774 -1.5314  1.3412 -1.1037
  913MOL0     H20469   6.187  10.801   2.892  0.6637 -0.5609  3.6548
  913MOL0     H20470   6.092  11.169   2.867  4.6558  1.4701 -1.3957
  913MOL0     H20471   6.226  11.066   2.872 -0.7660  0.2074 -1.0513
  913MOL0     H20472   6.216  11.054   3.125 -3.2981 -2.8917 -1.2613
  913MOL0     H20473   6.062  11.138   3.129  0.1975  3.4129 -0.2202
  913MOL0     H20474   6.137  11.345   3.068 -0.0463  0.1503 -0.5145
  913MOL0     H20475   6.235  11.286   3.202  0.4730  0.0849 -0.8383
  913MOL0     H20476   6.313  11.299   2.917  0.6582 -3.4791  0.0614
  913MOL0     H20477   6.410  11.221   3.041  1.3151  0.4985 -4.2361
  913MOL0     H20478   6.531  11.636   3.139  0.3513 -1.9723  2.2768
  913MOL0     H20479   6.799  11.682   3.078  2.3546 -0.0146 -2.9975
  913MOL0     H20480   7.074  11.650   2.664 -0.4918 -0.4890  0.6128
  913MOL0     H20481   7.273  11.685   2.571 -3.7864 -1.1202 -0.8070
  913MOL0     H20482   7.487  11.705   2.535  0.9589 -0.5447 -0.3112
  913MOL0     H20483   7.504  11.549   2.457  2.3999  0.3252 -1.5008
  913MOL0     H20484   7.716  11.654   2.408  0.4428 -0.9876  1.1084
  913MOL0     H20485   7.750  11.567   2.562 -1.4617 -3.4549 -2.5714
  913MOL0     H20486   7.667  11.787   2.662  0.8781 -0.6202  0.9601
  913MOL0     H20487   7.649  11.865   2.509  0.0170  1.1051  1.4922
  913MOL0     H20488   7.921  11.807   2.626  0.2919 -2.1290 -0.3352
  913MOL0     H20489   7.895  11.814   2.453  0.4231  0.3934 -0.1715
  913MOL0     H20490   7.842  12.037   2.649 -0.7652  0.0470 -0.0628
  913MOL0     H20491   7.776  12.031   2.488 -1.9894 -2.0197  1.4399
  913MOL0     H20492   7.969  12.094   2.397  1.8900 -0.0061 -0.1752
  913MOL0     H20493   8.086  12.011   2.512  2.0400  1.6889 -0.7342
  913MOL0     H20494   7.928  12.263   2.582  0.8913  2.4431 -0.3733
  913MOL0     H20495   8.033  12.176   2.686 -3.4359  4.2462  1.9235
  913MOL0     H20496   8.217  12.229   2.518  0.5311 -0.6126 -0.2174
  913MOL0     H20497   8.156  12.373   2.605 -0.6160  3.3124 -3.1310
  913MOL0     H20498   7.443  11.359   2.807  0.3378 -1.2445 -1.3527
  913MOL0     H20499   7.207  11.300   2.893 -3.0125 -0.7592 -2.1799
  913MOL0     H20500   6.774  11.341   2.812  3.9198  2.9144 -2.4469
  913MOL0     H20501   6.550  11.310   2.866 -0.3499  1.7342 -0.7104
  913MOL0     H20502   5.457   9.762   2.990 -0.5355  0.5926 -0.0957
  913MOL0     H20503   5.291   9.595   2.912 -0.9206  1.0370  0.6252
  913MOL0     H20504   4.701   9.700   2.782 -0.5462 -0.2918  1.3330
  913MOL0     H20505   4.540   9.527   2.749  0.2110 -0.5254  1.1149
  913MOL0     H20506   4.408   9.205   2.645 -1.8813 -1.1785  3.3061
  913MOL0     H20507   4.430   9.382   2.636  0.8718  0.7151  1.3436
  913MOL0     H20508   4.394   9.191   2.868 -0.0831 -0.4679 -0.5694
  913MOL0     H20509   4.461   9.351   2.907 -0.5723  1.3881 -0.5308
  913MOL0     H20510   4.175   9.300   2.881 -1.0840  1.3861 -0.8225
  913MOL0     H20511   4.220   9.343   2.729  2.7371  0.1454 -1.5035
  913MOL0     H20512   4.337   9.558   2.834 -1.4730 -0.8500 -4.3027
  913MOL0     H20513   4.159   9.548   2.836  0.6778  2.9871  2.5989
  913MOL0     H20514   4.246   9.569   3.234 -1.1071 -2.5915  0.7159
  913MOL0     H20515   4.847   9.248   2.629 -1.7105  0.7570 -2.8191
  913MOL0     H20516   5.005   9.407   2.638 -0.7866 -0.8905 -2.8693
  914MOL0     O20517  11.119   6.490   6.911 -0.1759 -0.0518  0.0671
  914MOL0     C20518  11.212   6.533   6.981 -0.2338 -0.7934 -0.1430
  914MOL0     O20519  11.194   6.611   7.098 -0.1472  0.2333 -0.0708
  914MOL0     C20520  11.070   6.657   7.126 -1.3408  0.5456  0.6418
  914MOL0     C20521  10.991   6.725   7.029 -0.8031 -1.3252 -0.4387
  914MOL0     C20522  10.877   6.781   7.064  1.9066 -0.2104 -0.7331
  914MOL0     C20523  10.825   6.797   7.192 -0.0847 -0.4197  0.0677
  914MOL0     O20524  10.702   6.860   7.220 -0.0574  0.0998  0.8300
  914MOL0     C20525  10.626   6.813   7.331 -0.4303  0.6459 -0.4166
  914MOL0     C20526  10.482   6.862   7.365 -0.2858 -0.3519 -0.1116
  914MOL0     C20527  10.394   6.869   7.246 -0.3443 -0.2953  0.7801
  914MOL0     C20528  10.255   6.807   7.292  0.0678  0.0333  0.7272
  914MOL0     C20529  10.149   6.833   7.195 -0.2661 -0.5633  0.5397
  914MOL0     C20530  10.006   6.778   7.229 -0.2531 -0.7401 -0.3625
  914MOL0     C20531   9.891   6.814   7.126  0.1131 -0.4358  0.7693
  914MOL0     C20532   9.789   6.703   7.109 -0.2384 -0.0960 -0.6530
  914MOL0     N20533   9.700   6.714   7.226  0.7878 -0.2542  0.5374
  914MOL0     C20534   9.566   6.761   7.237  0.0653 -0.2856 -0.2133
  914MOL0     C20535   9.542   6.767   7.369  0.8554  1.3874 -0.1555
  914MOL0     C20536   9.414   6.824   7.436 -0.3109  0.0057 -0.7152
  914MOL0     C20537   9.392   6.964   7.392  0.5081  0.3767  0.4939
  914MOL0     C20538   9.309   7.058   7.486 -0.3637  0.3296  0.0789
  914MOL0     C20539   9.163   7.011   7.506 -0.1073 -0.1567 -1.0363
  914MOL0     O20540   9.067   7.077   7.417 -0.5419  0.2514 -0.9421
  914MOL0     C20541   8.939   7.038   7.435  0.3679  0.0258 -0.0891
  914MOL0     C20542   8.843   7.118   7.364  0.0768 -0.4208  0.5388
  914MOL0     C20543   8.704   7.095   7.375 -0.1035  0.3586  0.2321
  914MOL0     C20544   8.660   7.003   7.468  0.7184 -0.2694  0.6770
  914MOL0     C20545   8.514   6.972   7.499 -0.3354 -1.4979 -0.0352
  914MOL0     O20546   8.484   6.871   7.594 -0.0927  0.0593 -0.5752
  914MOL0     C20547   8.359   6.839   7.620 -0.1092 -0.0211  0.1334
  914MOL0     C20548   8.341   6.733   7.715  0.5260  1.4005 -0.0726
  914MOL0     C20549   8.219   6.670   7.740 -0.1581  0.4887  1.3758
  914MOL0     C20550   8.106   6.729   7.698 -0.1069 -0.6909 -0.0569
  914MOL0     O20551   7.993   6.682   7.748  0.4263 -0.1694 -0.7433
  914MOL0     C20552   7.865   6.731   7.710 -0.1036  0.0150 -0.1048
  914MOL0     C20553   7.763   6.620   7.737  0.2171  0.3079  0.2649
  914MOL0     C20554   7.691   6.629   7.875  0.2984 -0.0806  0.2706
  914MOL0     C20555   7.595   6.504   7.898  0.3529  0.5421 -0.5480
  914MOL0     C20556   7.473   6.556   7.982 -0.0848 -0.6323  0.5588
  914MOL0     C20557   7.347   6.468   7.980  0.7947  0.0546 -0.1605
  914MOL0     C20558   7.387   6.331   8.053 -0.5731 -0.6070 -0.8398
  914MOL0     C20559   7.337   6.327   8.201 -0.5678 -0.3399  0.3477
  914MOL0    Cl20560   7.400   6.184   8.285 -0.0494  0.0738 -0.0234
  914MOL0     C20561   8.114   6.839   7.615 -0.1305 -0.6674 -0.8334
  914MOL0     C20562   8.236   6.891   7.577  0.6063 -0.3994  0.1728
  914MOL0     O20563   8.436   7.043   7.438 -0.0327  0.2560 -0.5455
  914MOL0     C20564   8.752   6.923   7.544 -0.2164 -0.3017  0.5465
  914MOL0     C20565   8.891   6.939   7.519  0.5775  0.2274 -0.1304
  914MOL0     N20566   9.649   6.716   7.435  0.4763  0.1038 -0.5119
  914MOL0     N20567   9.745   6.688   7.357 -0.0168  0.0515  0.4951
  914MOL0     C20568  10.909   6.742   7.296 -0.5909 -0.0864  0.3342
  914MOL0     C20569  11.021   6.658   7.252  0.7389  0.4673 -0.8693
  914MOL0     C20570  11.349   6.497   6.947  0.7742  0.1206 -0.8219
  914MOL0     C20571  11.379   6.402   6.845  0.1495 -0.0992  0.2107
  914MOL0     C20572  11.512   6.365   6.822 -0.0325  1.1351 -0.7602
  914MOL0     C20573  11.613   6.421   6.900 -0.1024 -0.2815  0.2336
  914MOL0     O20574  11.743   6.375   6.890  0.2902  0.0886 -0.5537
  914MOL0     C20575  11.782   6.290   6.783  1.2792  0.1081  0.1457
  914MOL0     C20576  11.929   6.263   6.784 -0.2901  0.8605 -0.1616
  914MOL0     C20577  12.019   6.383   6.745  0.1459 -0.2997  0.2343
  914MOL0     C20578  12.006   6.410   6.597 -0.3573  0.1502 -0.7565
  914MOL0     C20579  12.104   6.521   6.568  0.8577 -0.4421 -0.1529
  914MOL0     C20580  12.194   6.596   6.558  0.1017 -0.5823  0.7444
  914MOL0     C20581  11.586   6.508   6.999 -0.7312 -0.3835  0.2268
  914MOL0     C20582  11.452   6.547   7.030  0.3767  1.0859  0.0590
  914MOL0     H20583  11.035   6.720   6.929 -1.3698 -2.5848 -0.6512
  914MOL0     H20584  10.819   6.820   6.981  1.7439  0.8704 -0.1344
  914MOL0     H20585  10.688   6.827   7.420  0.6696  0.5040 -1.1320
  914MOL0     H20586  10.618   6.705   7.320  0.7186  0.5523 -0.5354
  914MOL0     H20587  10.475   6.967   7.396  1.6954 -0.1163 -0.3436
  914MOL0     H20588  10.430   6.802   7.440 -0.7254 -1.7666 -1.5102
  914MOL0     H20589  10.427   6.816   7.156  0.6531  2.2774 -0.4651
  914MOL0     H20590  10.379   6.972   7.213 -5.6252 -0.3694  2.0512
  914MOL0     H20591  10.263   6.700   7.312  1.5415 -0.1481 -0.6355
  914MOL0     H20592  10.230   6.855   7.387  1.6571  0.5556  0.9127
  914MOL0     H20593  10.181   6.776   7.107  0.3844 -2.4001  1.9133
  914MOL0     H20594  10.148   6.940   7.172 -3.5856 -0.5433  0.3682
  914MOL0     H20595   9.977   6.813   7.329 -1.8008 -0.7277 -0.7980
  914MOL0     H20596  10.022   6.670   7.237  0.6547 -0.4686  2.3996
  914MOL0     H20597   9.832   6.899   7.163 -0.5169 -0.0368 -1.0262
  914MOL0     H20598   9.937   6.842   7.031 -2.4376  1.8557  0.0724
  914MOL0     H20599   9.826   6.600   7.101 -0.2818 -0.2003  0.3632
  914MOL0     H20600   9.738   6.713   7.013  2.9766  4.0894 -2.2436
  914MOL0     H20601   9.504   6.794   7.154 -0.1067 -1.4487 -0.5661
  914MOL0     H20602   9.424   6.824   7.545 -2.2664 -2.5074 -0.4352
  914MOL0     H20603   9.326   6.761   7.420  0.0896 -0.3984 -1.3490
  914MOL0     H20604   9.349   6.957   7.292  4.4490 -0.3844 -1.3024
  914MOL0     H20605   9.486   7.017   7.379  1.7497 -2.0290 -1.1222
  914MOL0     H20606   9.349   7.081   7.585 -1.3517  0.9934  0.3415
  914MOL0     H20607   9.315   7.164   7.459 -1.9995  0.2372 -0.8221
  914MOL0     H20608   9.136   7.015   7.612 -4.7037  1.0510 -2.0230
  914MOL0     H20609   9.155   6.908   7.470 -1.4397 -0.1921 -0.6885
  914MOL0     H20610   8.882   7.196   7.300 -0.8530 -0.7156 -0.4156
  914MOL0     H20611   8.635   7.159   7.321 -0.6615 -0.2895  0.1673
  914MOL0     H20612   8.431   6.691   7.758 -1.5443 -2.6720  0.8079
  914MOL0     H20613   8.221   6.588   7.810 -1.0744  0.2172  1.1023
  914MOL0     H20614   7.854   6.765   7.607 -0.7458 -0.0452 -0.0568
  914MOL0     H20615   7.855   6.827   7.763 -0.0229 -0.2552  0.4025
  914MOL0     H20616   7.813   6.523   7.729 -0.3183  0.1363 -1.4433
  914MOL0     H20617   7.681   6.627   7.664 -0.1764  0.4279  0.7165
  914MOL0     H20618   7.642   6.726   7.862 -0.8643 -0.8051 -0.9872
  914MOL0     H20619   7.765   6.643   7.954 -1.5336  1.2666  1.8641
  914MOL0     H20620   7.557   6.457   7.807 -1.1745  0.0769  0.2955
  914MOL0     H20621   7.650   6.425   7.950 -2.9750 -0.8480  1.1837
  914MOL0     H20622   7.442   6.655   7.947 -5.2378 -1.4319  1.9991
  914MOL0     H20623   7.494   6.577   8.087 -0.5526  0.8033  0.3854
  914MOL0     H20624   7.312   6.450   7.878  0.7206  1.3381 -0.3787
  914MOL0     H20625   7.274   6.516   8.047  2.7213 -1.9380  3.6850
  914MOL0     H20626   7.335   6.242   8.015  0.3017 -3.0883  3.1944
  914MOL0     H20627   7.495   6.317   8.042 -0.4399  0.6591 -1.2115
  914MOL0     H20628   7.228   6.328   8.208 -0.6557 -1.4608 -0.6190
  914MOL0     H20629   7.386   6.415   8.245  0.1208 -0.0794 -0.9162
  914MOL0     H20630   8.024   6.887   7.576 -0.4052 -2.2744 -2.3313
  914MOL0     H20631   8.240   6.976   7.509 -1.0745  0.7824  1.4487
  914MOL0     H20632   8.719   6.847   7.614  2.3613 -0.9954  1.0909
  914MOL0     H20633   8.953   6.880   7.584 -0.2542 -1.5507 -0.8992
  914MOL0     H20634  10.888   6.746   7.402 -2.8513  0.1021 -0.0777
  914MOL0     H20635  11.078   6.608   7.330  0.3424  0.7124 -0.4107
  914MOL0     H20636  11.294   6.361   6.791 -2.4199  1.6863  2.5903
  914MOL0     H20637  11.530   6.298   6.739 -2.3936 -0.1186 -0.3650
  914MOL0     H20638  11.742   6.321   6.686 -2.0815 -0.5440  1.1680
  914MOL0     H20639  11.731   6.193   6.792 -0.5770  0.8839 -1.2611
  914MOL0     H20640  11.956   6.244   6.889  2.6271  2.1092 -0.5735
  914MOL0     H20641  11.941   6.167   6.732 -3.1751 -2.9516  5.1687
  914MOL0     H20642  12.124   6.373   6.770  0.1663 -0.1627  0.2081
  914MOL0     H20643  11.978   6.471   6.796 -0.4486  0.9965 -2.2736
  914MOL0     H20644  12.031   6.316   6.548 -0.7798 -0.1803 -0.3416
  914MOL0     H20645  11.906   6.431   6.556 -0.1324 -1.9892 -2.5932
  914MOL0     H20646  12.293   6.637   6.564 -0.8056  1.6497  1.7363
  914MOL0     H20647  11.667   6.544   7.062 -0.0838 -0.5788 -0.4814
  914MOL0     H20648  11.431   6.620   7.108 -0.3560  2.0704 -1.0339
  915MOL0     O20649   0.686  10.016   2.779 -0.9886  0.1884 -0.3137
  915MOL0     C20650   0.648  10.003   2.661  0.6832  0.1119 -0.6807
  915MOL0     O20651   0.525   9.954   2.627  0.1719 -0.0583 -0.3883
  915MOL0     C20652   0.450   9.911   2.735 -0.3011  0.2861  0.4679
  915MOL0     C20653   0.335   9.970   2.754  0.7862  1.0933  0.1980
  915MOL0     C20654   0.245   9.929   2.852 -0.7721  0.3740 -0.3134
  915MOL0     C20655   0.276   9.821   2.931  0.4456 -0.3574 -0.8752
  915MOL0     O20656   0.196   9.809   3.044  0.7078  0.8904 -0.3994
  915MOL0     C20657   0.183   9.682   3.111 -0.1528  0.2530  0.1019
  915MOL0     C20658   0.032   9.653   3.127  0.1747 -0.0615  0.2000
  915MOL0     C20659   0.006   9.531   3.216  0.2505 -0.0105  0.8827
  915MOL0     C20660  -0.144   9.510   3.243 -0.4315  0.1849  0.5928
  915MOL0     C20661  -0.167   9.423   3.371  0.4015  0.0986  0.1574
  915MOL0     C20662  -0.316   9.388   3.374 -0.0604  0.2560  0.4040
  915MOL0     C20663  -0.338   9.264   3.465 -0.0133 -0.3920  0.0948
  915MOL0     C20664  -0.477   9.204   3.430 -0.6934  0.4276  0.3092
  915MOL0     N20665  -0.483   9.071   3.489 -0.2418  0.6712  0.3615
  915MOL0     C20666  -0.547   9.032   3.606 -0.2144  0.4231 -0.8103
  915MOL0     C20667  -0.521   8.898   3.618  0.4372 -0.6268 -0.6229
  915MOL0     C20668  -0.559   8.807   3.730  0.1387  0.2732 -0.2990
  915MOL0     C20669  -0.697   8.847   3.793 -0.8476  0.7546 -0.4063
  915MOL0     C20670  -0.813   8.836   3.700  0.1081  0.8287  0.1043
  915MOL0     C20671  -0.940   8.815   3.779  0.7008  0.2858  0.7234
  915MOL0     O20672  -1.044   8.817   3.675  0.0421  0.0395  0.4471
  915MOL0     C20673  -1.173   8.800   3.715  0.0859  0.2239  0.2766
  915MOL0     C20674  -1.206   8.805   3.849  0.0425 -0.2434  0.4977
  915MOL0     C20675  -1.342   8.776   3.884  0.1934 -0.4997  0.5935
  915MOL0     C20676  -1.443   8.754   3.792  0.4115 -1.1647 -0.9699
  915MOL0     C20677  -1.579   8.749   3.845  0.3893 -0.0200 -0.9187
  915MOL0     O20678  -1.680   8.764   3.752  0.4097 -0.3049 -0.2840
  915MOL0     C20679  -1.807   8.752   3.796 -0.6066  0.5614  0.3742
  915MOL0     C20680  -1.874   8.811   3.903  0.4214 -0.6833 -0.1360
  915MOL0     C20681  -2.005   8.805   3.925  0.7628  0.6577  0.3968
  915MOL0     C20682  -2.085   8.718   3.846 -0.5672  0.6912  0.0108
  915MOL0     O20683  -2.225   8.703   3.838 -0.0107 -0.3152 -0.3168
  915MOL0     C20684  -2.284   8.696   3.963  0.2347  0.5780  0.2554
  915MOL0     C20685  -2.435   8.675   3.938 -1.0070 -1.6119  0.6511
  915MOL0     C20686  -2.501   8.594   4.049  0.3521  0.3999  0.6640
  915MOL0     C20687  -2.641   8.557   4.001  0.3123 -0.3575 -0.4780
  915MOL0     C20688  -2.709   8.444   4.071  0.1878  0.5501  0.7464
  915MOL0     C20689  -2.743   8.488   4.219 -0.1063  0.5983 -0.6899
  915MOL0     C20690  -2.858   8.417   4.287 -0.1902 -0.6376  0.2377
  915MOL0     C20691  -2.814   8.274   4.320 -0.8446 -0.6163 -0.0178
  915MOL0    Cl20692  -2.955   8.168   4.371 -0.3675 -0.2054 -0.0315
  915MOL0     C20693  -2.023   8.660   3.736 -0.3143 -0.4459  0.2941
  915MOL0     C20694  -1.885   8.682   3.711 -0.1010  1.1031 -0.4015
  915MOL0     O20695  -1.598   8.724   3.967 -0.1447 -0.3513  0.0642
  915MOL0     C20696  -1.407   8.750   3.657  0.3114  0.0710  0.0293
  915MOL0     C20697  -1.275   8.769   3.620 -1.1234  0.2710  0.1859
  915MOL0     N20698  -0.444   8.862   3.505  0.2302 -0.7321  0.0455
  915MOL0     N20699  -0.415   8.963   3.438 -0.4235 -0.4168 -0.0302
  915MOL0     C20700   0.390   9.739   2.905  0.3799  0.3601  0.7778
  915MOL0     C20701   0.484   9.786   2.803 -0.2174 -0.7749  0.0250
  915MOL0     C20702   0.734  10.050   2.556  0.0342 -0.2479  0.4809
  915MOL0     C20703   0.877  10.083   2.567  1.3542  0.1662  0.0369
  915MOL0     C20704   0.961  10.102   2.457 -0.1397  0.3275  0.3970
  915MOL0     C20705   0.905  10.100   2.329 -0.0356 -0.5948  0.6503
  915MOL0     O20706   0.974  10.113   2.212  0.3569 -0.6122 -0.5853
  915MOL0     C20707   1.096  10.045   2.220  0.2073  0.2002 -0.2534
  915MOL0     C20708   1.168  10.066   2.082  0.0853 -0.0238 -0.4186
  915MOL0     C20709   1.223  10.211   2.053 -0.8935 -0.4356 -0.6972
  915MOL0     C20710   1.337  10.216   1.943  0.1391 -0.0228 -0.7062
  915MOL0     C20711   1.467  10.177   1.996 -0.0750 -0.3785  0.3706
  915MOL0     C20712   1.571  10.132   2.044  0.1362 -0.0151 -0.8558
  915MOL0     C20713   0.766  10.085   2.321 -0.4096  0.1285 -0.8556
  915MOL0     C20714   0.691  10.060   2.434  0.3677 -0.5137  0.4999
  915MOL0     H20715   0.311  10.060   2.697  1.1405  2.3899  1.9915
  915MOL0     H20716   0.155   9.988   2.870 -0.0340  1.3007  0.4087
  915MOL0     H20717   0.229   9.693   3.210  1.8567 -1.7369 -0.4994
  915MOL0     H20718   0.227   9.592   3.066  0.6441 -2.3415  5.3090
  915MOL0     H20719  -0.021   9.640   3.032 -0.3924 -1.1137  0.6366
  915MOL0     H20720  -0.007   9.743   3.175  2.1160  1.5593 -1.1027
  915MOL0     H20721   0.059   9.549   3.311 -1.5475 -1.8521  2.3148
  915MOL0     H20722   0.050   9.434   3.191 -1.7191 -1.1492  1.6150
  915MOL0     H20723  -0.196   9.605   3.244  1.0110  1.0409  3.1013
  915MOL0     H20724  -0.178   9.458   3.153 -1.2628  0.9547  0.4536
  915MOL0     H20725  -0.142   9.471   3.466 -0.8503 -0.6691  0.9054
  915MOL0     H20726  -0.105   9.333   3.365  0.1727  0.0042 -1.2916
  915MOL0     H20727  -0.344   9.356   3.273 -0.6253  2.8167 -0.3217
  915MOL0     H20728  -0.381   9.469   3.407 -2.1240 -1.0933 -0.1279
  915MOL0     H20729  -0.264   9.184   3.452  0.2503 -0.0798 -0.3373
  915MOL0     H20730  -0.336   9.304   3.567 -2.0268  0.5277 -0.1933
  915MOL0     H20731  -0.474   9.195   3.321  4.2047  2.0718  0.0834
  915MOL0     H20732  -0.567   9.261   3.455 -0.6506  2.2830 -3.1215
  915MOL0     H20733  -0.599   9.100   3.674  0.8125  2.4052 -1.9074
  915MOL0     H20734  -0.476   8.798   3.801  0.3462 -2.1404 -0.7446
  915MOL0     H20735  -0.573   8.705   3.692 -1.0260 -0.9179  2.9362
  915MOL0     H20736  -0.695   8.947   3.838 -0.7385 -0.7931  3.4543
  915MOL0     H20737  -0.716   8.774   3.873  0.1250  0.6087 -0.2945
  915MOL0     H20738  -0.802   8.934   3.653  0.6215  0.6493 -0.1559
  915MOL0     H20739  -0.804   8.751   3.632  0.0231  1.4809 -0.7368
  915MOL0     H20740  -0.951   8.911   3.830 -2.1889  0.6254 -0.3599
  915MOL0     H20741  -0.944   8.726   3.843  0.9588 -0.1827  0.0947
  915MOL0     H20742  -1.144   8.842   3.930 -2.4227  2.3368  1.3631
  915MOL0     H20743  -1.375   8.794   3.986 -2.7925 -2.3707  0.0571
  915MOL0     H20744  -1.819   8.881   3.966  1.2409 -0.4922 -1.0318
  915MOL0     H20745  -2.045   8.862   4.009 -0.2972  0.7909 -0.1799
  915MOL0     H20746  -2.277   8.791   4.017 -0.1948 -0.2241  1.7927
  915MOL0     H20747  -2.237   8.615   4.019  1.0381  1.5147  0.9696
  915MOL0     H20748  -2.440   8.634   3.837  1.0295 -1.0169  0.2714
  915MOL0     H20749  -2.489   8.770   3.938 -0.2723 -1.1544 -0.9876
  915MOL0     H20750  -2.501   8.643   4.147 -0.8582  0.2419  0.7595
  915MOL0     H20751  -2.449   8.500   4.072 -3.2068 -1.7380  0.8135
  915MOL0     H20752  -2.710   8.639   3.982  0.6837  0.2906  0.8730
  915MOL0     H20753  -2.618   8.507   3.906  0.8095 -0.1068 -0.4932
  915MOL0     H20754  -2.652   8.351   4.071 -0.1711  0.3260  0.5325
  915MOL0     H20755  -2.809   8.431   4.029  1.2687  0.7530 -2.0982
  915MOL0     H20756  -2.768   8.595   4.223 -2.2806  0.1834 -2.0047
  915MOL0     H20757  -2.653   8.482   4.282 -0.8004 -1.5676  0.1706
  915MOL0     H20758  -2.884   8.476   4.375 -1.8483 -2.1709  0.8492
  915MOL0     H20759  -2.950   8.415   4.228 -0.8929 -5.5157  1.0099
  915MOL0     H20760  -2.748   8.278   4.408 -2.0335  2.6933  0.8912
  915MOL0     H20761  -2.759   8.220   4.242 -0.2812  0.6794 -0.5653
  915MOL0     H20762  -2.085   8.613   3.661  0.8789  2.0729 -2.4618
  915MOL0     H20763  -1.860   8.644   3.612  0.1565 -1.3507  0.5238
  915MOL0     H20764  -1.485   8.725   3.585 -3.5349  2.2886  3.0028
  915MOL0     H20765  -1.239   8.756   3.519  0.1446 -1.3018  0.7925
  915MOL0     H20766   0.399   9.653   2.971  1.0031 -0.3330 -0.1758
  915MOL0     H20767   0.574   9.733   2.772  0.6561  0.5619  0.2050
  915MOL0     H20768   0.917  10.089   2.668 -3.8969  4.3782  2.3827
  915MOL0     H20769   1.065  10.124   2.482  0.5296 -2.4186  0.3380
  915MOL0     H20770   1.075   9.939   2.236 -1.5007  0.4278 -0.8696
  915MOL0     H20771   1.165  10.084   2.296 -0.8411 -1.9106  1.8943
  915MOL0     H20772   1.234   9.984   2.054 -0.9343 -0.3064 -2.1758
  915MOL0     H20773   1.083  10.039   2.018 -1.4094  0.6757  1.1670
  915MOL0     H20774   1.267  10.244   2.148 -2.0869  3.1243 -1.2319
  915MOL0     H20775   1.141  10.284   2.048 -0.8929 -0.4912 -1.8907
  915MOL0     H20776   1.322  10.128   1.879  3.3444 -1.3505  0.1642
  915MOL0     H20777   1.339  10.303   1.877 -4.4732  1.5163  0.7817
  915MOL0     H20778   1.666  10.100   2.082 -0.2816 -0.8690 -0.5137
  915MOL0     H20779   0.705  10.076   2.231 -1.4508  0.8640 -0.2509
  915MOL0     H20780   0.588  10.039   2.408  0.1687 -0.4395  1.2185
  916MOL0     O20781   9.019   4.917   3.090  0.7031  0.2257 -0.1935
  916MOL0     C20782   9.019   5.000   3.182 -0.0685 -0.0356 -0.6762
  916MOL0     O20783   8.911   5.062   3.240  0.1845 -0.5121  0.1861
  916MOL0     C20784   8.781   5.036   3.207  0.3806  0.9928  0.0648
  916MOL0     C20785   8.742   4.973   3.090 -0.0235  0.4884  0.4072
  916MOL0     C20786   8.609   4.956   3.069  0.5058  0.0708  0.2093
  916MOL0     C20787   8.512   4.986   3.166 -0.3442 -0.1334 -0.1952
  916MOL0     O20788   8.376   4.984   3.164  0.2583  0.0778 -0.2473
  916MOL0     C20789   8.311   5.001   3.034 -1.0170  1.3708  1.0493
  916MOL0     C20790   8.164   5.047   3.041  0.5847 -0.3059  0.6500
  916MOL0     C20791   8.066   4.960   3.113 -0.8242 -0.4214 -0.0104
  916MOL0     C20792   7.920   5.007   3.090  0.6010  0.8557 -0.6462
  916MOL0     C20793   7.821   4.901   3.155  0.3536  0.1156 -0.3155
  916MOL0     C20794   7.674   4.928   3.143  0.9083 -0.6717 -0.4507
  916MOL0     C20795   7.570   4.809   3.128  0.8616  0.2897 -0.2611
  916MOL0     C20796   7.610   4.702   3.031 -0.4186  0.2237  0.2992
  916MOL0     N20797   7.508   4.601   3.001  0.5021 -0.0852 -0.2261
  916MOL0     C20798   7.443   4.535   3.100  0.3700  0.1165  0.3077
  916MOL0     C20799   7.398   4.424   3.033  0.1330 -0.5391 -0.6115
  916MOL0     C20800   7.291   4.338   3.101 -0.3059  0.0793 -0.2269
  916MOL0     C20801   7.159   4.341   3.022 -0.3026  0.3172 -0.8341
  916MOL0     C20802   7.046   4.298   3.124 -0.5336  0.0579  0.3805
  916MOL0     C20803   6.915   4.267   3.051  0.3297  1.1596 -0.0920
  916MOL0     O20804   6.925   4.168   2.942 -0.0748 -0.2637 -0.1830
  916MOL0     C20805   6.818   4.119   2.884  0.6622  0.5891  0.0146
  916MOL0     C20806   6.689   4.169   2.914  0.0676 -0.6244 -0.1899
  916MOL0     C20807   6.578   4.125   2.847  0.2010  0.0236  0.3819
  916MOL0     C20808   6.587   4.021   2.748  0.3972 -0.1016 -0.6056
  916MOL0     C20809   6.476   3.956   2.676 -0.8683  0.8717  0.9945
  916MOL0     O20810   6.499   3.847   2.591  0.6296  0.6012 -0.6680
  916MOL0     C20811   6.381   3.783   2.567  0.0737  0.0210  0.3611
  916MOL0     C20812   6.311   3.799   2.453  0.3346 -0.0880 -0.6240
  916MOL0     C20813   6.194   3.725   2.428  0.3362  1.1417 -0.0263
  916MOL0     C20814   6.148   3.629   2.522 -0.1845 -0.1734 -0.3457
  916MOL0     O20815   6.042   3.542   2.493 -0.1401 -0.1070 -0.2987
  916MOL0     C20816   6.011   3.510   2.353  0.4433  0.2920 -0.0406
  916MOL0     C20817   5.892   3.408   2.361 -0.1300 -0.1228 -0.2022
  916MOL0     C20818   5.848   3.360   2.224  0.9322 -0.1460  0.4834
  916MOL0     C20819   5.705   3.389   2.177  0.4614 -0.2411  0.5306
  916MOL0     C20820   5.671   3.315   2.043 -0.0320 -0.5054 -0.8534
  916MOL0     C20821   5.537   3.365   1.978 -0.4342 -0.3099 -0.1341
  916MOL0     C20822   5.531   3.311   1.831  0.8832  0.1623 -0.9517
  916MOL0     C20823   5.396   3.357   1.750 -1.0543  0.3382 -0.5796
  916MOL0    Cl20824   5.392   3.272   1.602  0.5726 -0.1225 -0.3552
  916MOL0     C20825   6.203   3.625   2.646 -0.1652  0.2423 -0.3829
  916MOL0     C20826   6.327   3.698   2.666 -0.4799 -0.6132 -0.1481
  916MOL0     O20827   6.364   3.998   2.711  0.1955  1.0332  0.1398
  916MOL0     C20828   6.717   3.956   2.734  0.0029 -0.0231 -0.2207
  916MOL0     C20829   6.829   4.005   2.794 -0.3055 -0.5459  0.0593
  916MOL0     N20830   7.436   4.430   2.902  0.2291 -0.8707  0.9432
  916MOL0     N20831   7.515   4.534   2.888 -0.9471 -0.5645  0.3707
  916MOL0     C20832   8.548   5.050   3.284 -0.1054 -0.3303  0.0231
  916MOL0     C20833   8.686   5.071   3.306 -0.2234 -0.5333 -0.0401
  916MOL0     C20834   9.140   5.038   3.246  0.0391  0.7562  0.2926
  916MOL0     C20835   9.139   5.084   3.372  0.3554 -1.4123 -0.6234
  916MOL0     C20836   9.260   5.121   3.439 -0.3017  0.6333  1.0226
  916MOL0     C20837   9.386   5.091   3.376  1.1428  0.1052 -0.1539
  916MOL0     O20838   9.503   5.085   3.433  0.6723  0.2003 -0.5474
  916MOL0     C20839   9.545   5.196   3.499 -0.0445  0.8636  0.1157
  916MOL0     C20840   9.665   5.256   3.416 -0.8609  0.9382  0.2497
  916MOL0     C20841   9.625   5.315   3.279  1.3835  0.6779  0.0528
  916MOL0     C20842   9.730   5.418   3.221  0.1893 -0.6514 -0.4279
  916MOL0     C20843   9.866   5.363   3.190  0.1540 -1.3236 -0.1558
  916MOL0     C20844   9.974   5.328   3.146 -0.3593 -0.1097  0.8458
  916MOL0     C20845   9.384   5.046   3.241  0.8032  0.6171 -0.2423
  916MOL0     C20846   9.262   5.020   3.184 -0.2590  0.2151  0.1499
  916MOL0     H20847   8.812   4.950   3.010  3.0207  1.1902  2.6540
  916MOL0     H20848   8.572   4.915   2.976 -0.1010  0.0063  0.4723
  916MOL0     H20849   8.318   4.910   2.974 -0.5134  2.9213 -1.4066
  916MOL0     H20850   8.372   5.079   2.986  0.8964  0.4712  1.8977
  916MOL0     H20851   8.142   5.068   2.936  1.1923 -0.0307  0.5743
  916MOL0     H20852   8.168   5.145   3.090  2.5210 -0.4342  0.7935
  916MOL0     H20853   8.086   4.961   3.220 -0.4770  1.0259 -0.0665
  916MOL0     H20854   8.083   4.856   3.081  3.6800 -0.3631  1.4554
  916MOL0     H20855   7.912   5.107   3.133  2.4169  0.6368  0.3133
  916MOL0     H20856   7.904   5.013   2.982  2.1020  1.1539 -0.8802
  916MOL0     H20857   7.840   4.881   3.261 -2.3988  1.7358  0.5628
  916MOL0     H20858   7.857   4.812   3.101  1.4113 -0.6902  1.6333
  916MOL0     H20859   7.657   4.991   3.056  1.3171  2.3384  1.5135
  916MOL0     H20860   7.645   4.997   3.223 -2.0855 -0.7782 -1.3493
  916MOL0     H20861   7.538   4.778   3.228 -1.6400  2.7269 -0.1875
  916MOL0     H20862   7.480   4.850   3.082  0.9185 -0.5184 -1.1256
  916MOL0     H20863   7.694   4.643   3.069 -1.3081 -2.2795 -1.3481
  916MOL0     H20864   7.656   4.740   2.940 -1.1983 -2.4474 -1.3457
  916MOL0     H20865   7.419   4.570   3.199 -1.0936 -1.5726  0.5928
  916MOL0     H20866   7.266   4.391   3.193 -0.9961 -0.4944 -0.0789
  916MOL0     H20867   7.328   4.235   3.105 -2.3066 -0.7687 -1.7940
  916MOL0     H20868   7.155   4.300   2.921 -2.1358  2.2555 -1.6188
  916MOL0     H20869   7.139   4.443   2.988  0.5786  0.9830  0.5697
  916MOL0     H20870   7.068   4.210   3.184 -1.8913 -1.2296 -0.9238
  916MOL0     H20871   7.024   4.382   3.191 -1.7216  0.4134 -0.4175
  916MOL0     H20872   6.876   4.357   3.004 -3.3781 -2.1244 -4.2649
  916MOL0     H20873   6.840   4.232   3.124 -0.8983 -0.8966 -2.1878
  916MOL0     H20874   6.664   4.239   2.993 -1.5799 -1.7522  0.3504
  916MOL0     H20875   6.478   4.163   2.864  0.0696 -0.2541  0.2511
  916MOL0     H20876   6.345   3.876   2.385  2.3290 -0.8475 -0.5603
  916MOL0     H20877   6.134   3.746   2.340  1.9571 -0.6443 -1.6520
  916MOL0     H20878   6.101   3.463   2.313  0.3935 -0.5980  0.8510
  916MOL0     H20879   5.982   3.594   2.289  0.1278 -0.2050 -0.5690
  916MOL0     H20880   5.812   3.452   2.421 -0.2425  1.2935 -1.3497
  916MOL0     H20881   5.924   3.320   2.418 -0.8134  0.8102  1.7303
  916MOL0     H20882   5.849   3.251   2.231 -1.0212 -0.1037  2.3016
  916MOL0     H20883   5.922   3.389   2.149  2.2998 -3.5379  0.3395
  916MOL0     H20884   5.648   3.364   2.267  0.7203  0.7355  0.9839
  916MOL0     H20885   5.684   3.495   2.162 -2.4282 -0.6188  1.2695
  916MOL0     H20886   5.658   3.210   2.072 -1.0089 -0.3049 -0.5038
  916MOL0     H20887   5.755   3.321   1.973 -0.5379  1.0430 -1.3704
  916MOL0     H20888   5.552   3.474   1.975  4.1405 -0.7309  0.3069
  916MOL0     H20889   5.445   3.350   2.036 -0.6127 -1.0976 -0.6092
  916MOL0     H20890   5.617   3.336   1.769  0.8341 -1.7664 -1.8740
  916MOL0     H20891   5.524   3.202   1.828  1.7591 -0.1886  3.2394
  916MOL0     H20892   5.397   3.464   1.729 -1.8151  0.2820 -0.9265
  916MOL0     H20893   5.305   3.347   1.809 -0.5941 -1.5536 -0.1265
  916MOL0     H20894   6.153   3.560   2.717 -2.0952  1.7575 -0.2524
  916MOL0     H20895   6.380   3.687   2.760 -2.2385  0.8695  1.0756
  916MOL0     H20896   6.735   3.864   2.679 -2.8660 -0.9988  0.2612
  916MOL0     H20897   6.923   3.955   2.774 -1.1467 -1.8857 -0.6904
  916MOL0     H20898   8.462   5.079   3.344 -2.2800 -0.3674 -2.8425
  916MOL0     H20899   8.721   5.112   3.400 -0.9486  1.4347 -0.5793
  916MOL0     H20900   9.049   5.101   3.431  0.4235  2.3163 -1.3687
  916MOL0     H20901   9.250   5.150   3.543  1.9174  1.0245  1.1699
  916MOL0     H20902   9.594   5.178   3.596  3.3899  2.4278 -1.1784
  916MOL0     H20903   9.477   5.281   3.510 -0.0102  0.8052  0.9067
  916MOL0     H20904   9.719   5.326   3.481 -1.8310  2.1755 -0.2276
  916MOL0     H20905   9.742   5.180   3.401  0.1083  1.4465  2.3057
  916MOL0     H20906   9.523   5.354   3.285 -0.2761 -2.5268 -3.1652
  916MOL0     H20907   9.619   5.230   3.210 -0.0182  2.7331 -2.5314
  916MOL0     H20908   9.694   5.460   3.127  0.0910  0.9632  0.3025
  916MOL0     H20909   9.732   5.498   3.296 -2.5944  0.7274 -1.6721
  916MOL0     H20910  10.072   5.323   3.103 -0.7734  0.7398 -0.2291
  916MOL0     H20911   9.484   5.037   3.200  2.2044  2.4443  2.4570
  916MOL0     H20912   9.253   4.987   3.081  2.7272 -0.6545  0.0808
  917MOL0     O20913   0.163   9.285   9.444 -0.2646 -0.7058  0.2717
  917MOL0     C20914   0.242   9.217   9.502 -0.3681 -0.2372 -0.2307
  917MOL0     O20915   0.229   9.153   9.620 -0.0761 -1.0475  0.7796
  917MOL0     C20916   0.118   9.162   9.703  0.5637 -0.3453  0.1645
  917MOL0     C20917   0.018   9.260   9.689  0.5407 -0.0822 -0.1836
  917MOL0     C20918  -0.093   9.269   9.781  0.0093 -0.3953  0.2582
  917MOL0     C20919  -0.100   9.182   9.893 -0.4262  0.5727  0.5317
  917MOL0     O20920  -0.213   9.199   9.975 -0.8912  0.2539 -0.3338
  917MOL0     C20921  -0.263   9.084  10.042  0.2612 -0.2242 -0.5282
  917MOL0     C20922  -0.414   9.095  10.048  0.2838  0.0710  0.7252
  917MOL0     C20923  -0.471   9.225  10.114  0.3378  0.5720 -0.3025
  917MOL0     C20924  -0.618   9.196  10.156 -0.1301  0.4590  0.3368
  917MOL0     C20925  -0.676   9.313  10.231 -0.7296  0.3175 -0.3810
  917MOL0     C20926  -0.820   9.286  10.284 -0.4667 -0.3498  0.5410
  917MOL0     C20927  -0.926   9.329  10.183  0.3195  0.0189 -0.0624
  917MOL0     C20928  -1.071   9.296  10.221  0.2578  0.4663  0.4552
  917MOL0     N20929  -1.158   9.350  10.117  0.3254 -0.0098 -1.3428
  917MOL0     C20930  -1.226   9.466  10.135  0.5868 -0.2962  0.0101
  917MOL0     C20931  -1.293   9.479  10.027  0.2321 -0.1238  0.1075
  917MOL0     C20932  -1.397   9.586   9.989 -0.9853  0.2119  0.3629
  917MOL0     C20933  -1.539   9.582  10.050 -0.1198  0.3472 -0.6516
  917MOL0     C20934  -1.533   9.635  10.196  0.7403  0.5800 -0.4123
  917MOL0     C20935  -1.658   9.621  10.265  1.5264  0.3802  0.3538
  917MOL0     O20936  -1.758   9.693  10.184  0.0535 -0.1807 -0.7711
  917MOL0     C20937  -1.873   9.713  10.259  0.4087  0.3194 -0.8672
  917MOL0     C20938  -1.893   9.837  10.325  0.0636  0.0762  0.0132
  917MOL0     C20939  -2.019   9.859  10.386  0.1181  0.0511 -0.4154
  917MOL0     C20940  -2.131   9.765  10.385  0.4738  0.3466  0.3310
  917MOL0     C20941  -2.263   9.803  10.453  0.3915 -1.2651 -0.1902
  917MOL0     O20942  -2.358   9.710  10.430 -0.2257 -0.2709  0.1926
  917MOL0     C20943  -2.484   9.703  10.478 -0.2197  0.5010  0.0456
  917MOL0     C20944  -2.554   9.581  10.475  0.4903 -0.3740 -0.1015
  917MOL0     C20945  -2.695   9.579  10.508 -0.3247 -0.0915  0.5028
  917MOL0     C20946  -2.773   9.696  10.536 -0.3202  0.0943 -0.1598
  917MOL0     O20947  -2.907   9.696  10.552 -0.2152 -1.1636  0.4823
  917MOL0     C20948  -2.958   9.633  10.671  0.4366  0.4993 -0.3710
  917MOL0     C20949  -3.104   9.667  10.695 -0.1436 -0.5727  0.2616
  917MOL0     C20950  -3.194   9.548  10.739 -0.2804  0.4181  0.4748
  917MOL0     C20951  -3.158   9.515  10.888 -0.2602 -0.0440 -0.0444
  917MOL0     C20952  -3.235   9.386  10.938 -0.0161  0.0422 -1.2418
  917MOL0     C20953  -3.389   9.409  10.936 -0.6604 -1.2831 -1.1456
  917MOL0     C20954  -3.466   9.315  11.023 -0.4698  0.7209 -0.3269
  917MOL0     C20955  -3.503   9.182  10.942 -0.4360 -0.7980 -0.1402
  917MOL0    Cl20956  -3.615   9.200  10.804 -0.2884  0.1919  0.4158
  917MOL0     C20957  -2.695   9.809  10.557  0.4544 -0.4777  0.2613
  917MOL0     C20958  -2.561   9.811  10.519  0.8349  0.1785  0.2924
  917MOL0     O20959  -2.277   9.904  10.523  0.4452 -0.0480 -0.6155
  917MOL0     C20960  -2.099   9.639  10.326  0.2890  0.0448 -0.4948
  917MOL0     C20961  -1.976   9.617  10.267 -0.4170 -0.2072  0.7051
  917MOL0     N20962  -1.267   9.369   9.943 -0.3127 -0.7128 -0.1406
  917MOL0     N20963  -1.197   9.288  10.005 -0.2957  0.4481  0.5763
  917MOL0     C20964   0.003   9.085   9.914  0.0263  1.1835  1.4337
  917MOL0     C20965   0.117   9.077   9.818 -0.0132 -0.2080  0.2586
  917MOL0     C20966   0.379   9.204   9.439  0.0031  0.5940  0.5173
  917MOL0     C20967   0.414   9.280   9.320 -0.5534  0.3738 -0.1273
  917MOL0     C20968   0.540   9.259   9.258 -0.2951  0.9116 -0.2811
  917MOL0     C20969   0.626   9.158   9.307 -0.0984 -0.2930 -1.4802
  917MOL0     O20970   0.743   9.153   9.233  0.1148  0.2263 -0.9766
  917MOL0     C20971   0.823   9.037   9.250  0.5753 -0.1353  0.3329
  917MOL0     C20972   0.925   9.044   9.131 -0.9678  0.3403  0.2680
  917MOL0     C20973   1.036   9.140   9.148 -0.0294 -0.0947 -0.4032
  917MOL0     C20974   0.993   9.285   9.136 -0.4656  0.2717 -0.0032
  917MOL0     C20975   1.121   9.370   9.147  0.3904  0.0290  1.0490
  917MOL0     C20976   1.222   9.443   9.148  0.4026 -0.1880 -0.2011
  917MOL0     C20977   0.597   9.085   9.422  0.9533 -0.1609 -0.2304
  917MOL0     C20978   0.471   9.106   9.481  0.2935 -0.5406 -0.0639
  917MOL0     H20979   0.018   9.332   9.608 -1.7628  0.1565 -0.0244
  917MOL0     H20980  -0.170   9.345   9.774  0.2979 -0.1147  0.0712
  917MOL0     H20981  -0.233   9.086  10.147  1.8173 -2.8553 -0.8257
  917MOL0     H20982  -0.231   8.991   9.993 -1.5005  0.0741 -2.3618
  917MOL0     H20983  -0.448   9.001  10.092  2.6059 -0.1611  2.2150
  917MOL0     H20984  -0.443   9.089   9.943  0.6317  1.8611  0.5014
  917MOL0     H20985  -0.451   9.319  10.062 -0.1718 -0.6755 -2.9282
  917MOL0     H20986  -0.400   9.234  10.197  0.8263  1.9213 -0.8343
  917MOL0     H20987  -0.672   9.185  10.061 -0.1359  1.4751  0.2116
  917MOL0     H20988  -0.628   9.101  10.210  0.7529  0.9072  1.3231
  917MOL0     H20989  -0.683   9.405  10.173  1.0686 -0.2486 -1.5715
  917MOL0     H20990  -0.612   9.334  10.318 -1.3156  3.2154 -0.5468
  917MOL0     H20991  -0.837   9.332  10.382  0.1236  3.0314 -0.8179
  917MOL0     H20992  -0.831   9.177  10.289 -2.6966 -0.2430 -0.9920
  917MOL0     H20993  -0.923   9.437  10.169 -2.4543 -0.0576 -1.9433
  917MOL0     H20994  -0.906   9.283  10.086 -1.3595  0.9610 -0.8993
  917MOL0     H20995  -1.089   9.341  10.319 -1.1705 -0.9385  0.8786
  917MOL0     H20996  -1.080   9.187  10.233  1.8972  0.5901  4.1111
  917MOL0     H20997  -1.225   9.533  10.220  0.3312 -0.2193 -0.0453
  917MOL0     H20998  -1.409   9.574   9.881 -4.2381 -0.0750  0.6479
  917MOL0     H20999  -1.344   9.679  10.011  2.4927 -1.3213 -0.7704
  917MOL0     H21000  -1.589   9.486  10.064 -5.1105  2.4298 -2.0197
  917MOL0     H21001  -1.604   9.637   9.981 -1.6269 -0.2109  0.2635
  917MOL0     H21002  -1.465   9.571  10.253 -1.9054 -0.0529  2.3106
  917MOL0     H21003  -1.499   9.738  10.202 -0.0041  0.7310  2.1635
  917MOL0     H21004  -1.651   9.672  10.362 -1.1689  1.7389 -0.0506
  917MOL0     H21005  -1.682   9.516  10.280  0.4005  0.3859 -1.1091
  917MOL0     H21006  -1.825   9.921  10.314 -4.5050  3.9659 -2.6097
  917MOL0     H21007  -2.020   9.947  10.450  1.5286 -0.2074  0.0065
  917MOL0     H21008  -2.511   9.485  10.452  0.6161  0.1729 -2.3906
  917MOL0     H21009  -2.742   9.482  10.498 -2.0313  0.4017  2.7988
  917MOL0     H21010  -2.889   9.653  10.754 -2.8000  2.1052  2.1813
  917MOL0     H21011  -2.948   9.525  10.655 -1.5515  0.0358  1.1166
  917MOL0     H21012  -3.152   9.699  10.603 -1.5715 -0.2953  1.0732
  917MOL0     H21013  -3.093   9.747  10.769 -1.6235 -0.8276  0.7740
  917MOL0     H21014  -3.176   9.456  10.682 -0.7559 -1.0393  2.5646
  917MOL0     H21015  -3.301   9.567  10.736 -0.1203  1.2829  0.1032
  917MOL0     H21016  -3.051   9.495  10.902 -0.5927 -0.2805  2.8074
  917MOL0     H21017  -3.178   9.600  10.955  2.1717  0.8218 -0.3121
  917MOL0     H21018  -3.198   9.361  11.038  1.0677 -0.9606 -1.8557
  917MOL0     H21019  -3.209   9.301  10.875 -1.7337 -2.8279  1.6061
  917MOL0     H21020  -3.412   9.399  10.829  0.3093 -4.1651 -1.1607
  917MOL0     H21021  -3.410   9.512  10.965  3.6497 -0.5221 -0.1313
  917MOL0     H21022  -3.412   9.270  11.107 -0.4837 -0.5126 -0.9622
  917MOL0     H21023  -3.556   9.365  11.061  0.0580  0.8075  0.8313
  917MOL0     H21024  -3.541   9.104  11.007 -1.8257  2.5144  3.4195
  917MOL0     H21025  -3.406   9.144  10.909  0.9608  1.9959  0.4172
  917MOL0     H21026  -2.735   9.903  10.595 -0.9354 -0.7136 -0.5377
  917MOL0     H21027  -2.517   9.908  10.539  2.9697  0.3619 -4.0528
  917MOL0     H21028  -2.179   9.565  10.322  1.7053 -1.5469 -0.4815
  917MOL0     H21029  -1.967   9.521  10.216 -1.4283 -0.7899  1.5815
  917MOL0     H21030   0.002   9.033  10.009  0.4993  0.4268  1.0335
  917MOL0     H21031   0.198   9.005   9.824  0.0068 -0.3714 -1.5306
  917MOL0     H21032   0.339   9.344   9.274 -1.5538  0.9894  2.2095
  917MOL0     H21033   0.568   9.313   9.168 -0.4963 -1.8414 -2.1313
  917MOL0     H21034   0.759   8.948   9.254 -2.1386  1.7705  1.5820
  917MOL0     H21035   0.886   9.048   9.338  1.0229 -1.3083  0.1790
  917MOL0     H21036   0.974   8.946   9.130  1.3914  1.4166 -2.0345
  917MOL0     H21037   0.879   9.062   9.033 -1.4514  2.6115  0.8470
  917MOL0     H21038   1.106   9.125   9.066  1.0410  3.8029 -0.3829
  917MOL0     H21039   1.085   9.135   9.246 -1.3051  2.6198  0.4635
  917MOL0     H21040   0.949   9.298   9.037  2.6094  0.9578 -1.3905
  917MOL0     H21041   0.933   9.318   9.221 -0.8704 -1.4439  0.4185
  917MOL0     H21042   1.310   9.503   9.157  0.4189 -0.5142  2.8250
  917MOL0     H21043   0.664   9.008   9.457  2.1863  1.7840  1.9417
  917MOL0     H21044   0.451   9.041   9.566  4.5484 -0.8661  0.9400
  918MOL0     O21045   4.465   0.567   8.441 -0.2788  0.3476  0.1079
  918MOL0     C21046   4.432   0.561   8.320  0.7876 -0.2635 -1.1657
  918MOL0     O21047   4.516   0.574   8.215 -0.3294  0.6848 -0.0654
  918MOL0     C21048   4.655   0.587   8.240 -0.1643  0.2487  1.0651
  918MOL0     C21049   4.715   0.668   8.333 -1.0664  0.1934 -0.2284
  918MOL0     C21050   4.857   0.698   8.333 -0.9498 -0.2083  0.2528
  918MOL0     C21051   4.947   0.633   8.240  0.1120  0.0469 -0.4939
  918MOL0     O21052   5.081   0.666   8.249  0.1836  0.3456  0.4290
  918MOL0     C21053   5.185   0.564   8.254  0.2417  0.5661 -0.0318
  918MOL0     C21054   5.301   0.620   8.337 -0.3601  1.2412 -0.6895
  918MOL0     C21055   5.263   0.658   8.481  0.4080 -0.7453  0.1300
  918MOL0     C21056   5.371   0.755   8.531  0.7859 -0.1771  0.2611
  918MOL0     C21057   5.341   0.809   8.671  0.5871 -0.4190 -0.2799
  918MOL0     C21058   5.360   0.692   8.779 -0.2071  0.3308 -0.7062
  918MOL0     C21059   5.374   0.743   8.924 -0.0834  0.3947  0.1096
  918MOL0     C21060   5.253   0.689   9.002 -0.5882 -0.8387 -0.5434
  918MOL0     N21061   5.265   0.554   9.053 -0.0305  1.0078  0.4491
  918MOL0     C21062   5.337   0.452   9.003 -0.7742 -0.2386  0.1108
  918MOL0     C21063   5.328   0.354   9.093  0.0487  0.2822  0.1311
  918MOL0     C21064   5.383   0.214   9.079  0.2997  0.7734 -0.4053
  918MOL0     C21065   5.483   0.186   9.203 -0.2331  0.1016  0.0331
  918MOL0     C21066   5.604   0.272   9.232 -0.3752  0.1385 -0.4978
  918MOL0     C21067   5.714   0.261   9.128 -0.2727 -0.7222 -0.1304
  918MOL0     O21068   5.673   0.309   8.989 -0.0088  0.2010 -0.0028
  918MOL0     C21069   5.779   0.341   8.904  0.5954  0.4710  0.8676
  918MOL0     C21070   5.898   0.276   8.916  0.6944 -0.6013 -0.8738
  918MOL0     C21071   6.007   0.331   8.849 -0.7652  0.4433  0.4133
  918MOL0     C21072   5.989   0.428   8.734 -1.2807  0.2699 -0.5001
  918MOL0     C21073   6.116   0.463   8.658 -0.3081  0.1274 -0.2050
  918MOL0     O21074   6.236   0.435   8.723 -0.5642  0.2124  0.4161
  918MOL0     C21075   6.354   0.461   8.643  0.3176 -0.5175 -0.2295
  918MOL0     C21076   6.366   0.388   8.518  0.5679  0.5005  0.5308
  918MOL0     C21077   6.489   0.412   8.434 -0.5352  0.2880 -0.1291
  918MOL0     C21078   6.592   0.497   8.476  0.2556 -0.0495  0.1909
  918MOL0     O21079   6.690   0.546   8.402  0.1692  0.7946  0.7402
  918MOL0     C21080   6.728   0.462   8.296 -0.0504  0.0160  0.1569
  918MOL0     C21081   6.844   0.540   8.221 -0.7235 -0.7558  0.1550
  918MOL0     C21082   6.798   0.658   8.134 -0.3754  0.8223  1.3827
  918MOL0     C21083   6.917   0.727   8.064 -0.1957 -0.4418 -0.4675
  918MOL0     C21084   6.890   0.847   7.971  0.6630 -0.5297 -0.4892
  918MOL0     C21085   6.790   0.803   7.862  0.5568 -1.3036 -0.1178
  918MOL0     C21086   6.766   0.926   7.771 -0.3538 -0.6279 -0.0423
  918MOL0     C21087   6.624   0.962   7.742  0.2541  0.1396 -0.4707
  918MOL0    Cl21088   6.617   1.089   7.624 -0.0283 -0.4370 -0.0652
  918MOL0     C21089   6.568   0.566   8.597 -0.5891  0.1715 -0.2582
  918MOL0     C21090   6.455   0.545   8.678 -1.5643 -1.1657  0.4192
  918MOL0     O21091   6.108   0.521   8.548 -0.2680  0.2525  0.2080
  918MOL0     C21092   5.855   0.479   8.707 -0.5525  0.1475 -0.3147
  918MOL0     C21093   5.758   0.439   8.807 -0.5572 -0.4721 -0.6910
  918MOL0     N21094   5.245   0.398   9.191 -0.1111  0.3196 -0.8718
  918MOL0     N21095   5.208   0.514   9.172 -0.3569 -0.6034  1.0737
  918MOL0     C21096   4.885   0.557   8.148 -0.0196  1.7156 -0.0780
  918MOL0     C21097   4.746   0.544   8.143  0.9858  0.3266  0.5231
  918MOL0     C21098   4.291   0.528   8.292  0.6174 -0.9439 -0.2266
  918MOL0     C21099   4.258   0.487   8.161  0.3794 -0.5027  0.1778
  918MOL0     C21100   4.121   0.468   8.118 -0.6733 -0.8419 -0.0832
  918MOL0     C21101   4.016   0.490   8.210 -0.3475  0.3438  0.1318
  918MOL0     O21102   3.891   0.465   8.161 -0.4067  1.1489 -0.4551
  918MOL0     C21103   3.779   0.453   8.254  0.1218  0.5920  0.3244
  918MOL0     C21104   3.653   0.427   8.174  0.1907  0.5129  0.4435
  918MOL0     C21105   3.664   0.309   8.075  0.4004 -0.3569  0.6768
  918MOL0     C21106   3.610   0.338   7.936  0.5728 -1.4382 -0.1306
  918MOL0     C21107   3.690   0.442   7.869  0.0883  0.2452  0.4589
  918MOL0     C21108   3.771   0.528   7.824  0.6659 -0.3195 -0.2704
  918MOL0     C21109   4.056   0.524   8.347 -0.4144 -0.4743  0.0140
  918MOL0     C21110   4.190   0.538   8.390  0.3237 -0.2669  0.2005
  918MOL0     H21111   4.661   0.722   8.411 -0.5046 -0.0484  0.3355
  918MOL0     H21112   4.917   0.752   8.407  0.8737 -1.5425 -0.1697
  918MOL0     H21113   5.218   0.540   8.153  2.4821 -0.7232  0.9310
  918MOL0     H21114   5.151   0.476   8.309  2.9340  0.4708  1.6986
  918MOL0     H21115   5.337   0.707   8.281  1.8753 -0.0115 -1.3461
  918MOL0     H21116   5.386   0.551   8.348 -0.3815  1.3006 -0.0814
  918MOL0     H21117   5.252   0.574   8.550  1.3519 -1.0260 -0.0388
  918MOL0     H21118   5.169   0.713   8.473 -0.0458 -1.5712 -0.2940
  918MOL0     H21119   5.469   0.705   8.530  0.1647 -1.5063 -2.1837
  918MOL0     H21120   5.391   0.839   8.464  1.7038 -0.0629  0.6587
  918MOL0     H21121   5.242   0.854   8.681 -1.4126 -4.1217 -1.5760
  918MOL0     H21122   5.412   0.890   8.688 -1.1933  1.4500 -1.3070
  918MOL0     H21123   5.451   0.638   8.752 -0.9164 -1.1391 -0.2716
  918MOL0     H21124   5.279   0.621   8.759 -2.2275  2.7769 -1.7241
  918MOL0     H21125   5.464   0.694   8.960 -0.8273 -2.0726 -1.1432
  918MOL0     H21126   5.372   0.853   8.919  1.7281  0.4150 -0.6263
  918MOL0     H21127   5.156   0.688   8.951 -1.4509 -0.4520  1.0276
  918MOL0     H21128   5.235   0.751   9.090 -0.9019 -1.3360 -0.2561
  918MOL0     H21129   5.385   0.445   8.906 -1.9255 -2.0163 -0.3695
  918MOL0     H21130   5.421   0.193   8.979 -0.6671 -0.1977 -0.5798
  918MOL0     H21131   5.303   0.140   9.087  1.2365 -0.2990 -0.6381
  918MOL0     H21132   5.525   0.085   9.199  3.9662  1.6306  0.6664
  918MOL0     H21133   5.420   0.169   9.291  0.3451 -4.4780 -0.1783
  918MOL0     H21134   5.573   0.377   9.230  2.8198  1.1768 -1.2784
  918MOL0     H21135   5.639   0.251   9.333 -4.4731 -0.1906  1.0689
  918MOL0     H21136   5.759   0.161   9.127 -0.1790 -0.6839  0.1448
  918MOL0     H21137   5.786   0.333   9.169  0.3974 -1.0824 -0.6407
  918MOL0     H21138   5.904   0.191   8.982  1.3816 -0.9454 -1.3656
  918MOL0     H21139   6.107   0.295   8.869 -1.2875 -1.4368 -0.1406
  918MOL0     H21140   6.281   0.325   8.494  0.0069  1.7788 -1.0185
  918MOL0     H21141   6.497   0.356   8.342 -2.6049 -0.9923  0.3922
  918MOL0     H21142   6.647   0.449   8.223  0.2165 -0.8120 -0.0009
  918MOL0     H21143   6.771   0.371   8.336  2.4687  1.8965  2.0278
  918MOL0     H21144   6.908   0.484   8.153  0.7937 -2.1586  2.5941
  918MOL0     H21145   6.916   0.577   8.295  0.1161  0.4767 -1.2030
  918MOL0     H21146   6.745   0.739   8.185 -1.8657  1.3925 -0.8911
  918MOL0     H21147   6.742   0.610   8.054 -0.1268  0.7109  1.2748
  918MOL0     H21148   6.975   0.769   8.147 -1.0537 -0.4207  0.1323
  918MOL0     H21149   6.984   0.662   8.006 -1.4602 -1.3148 -0.9832
  918MOL0     H21150   6.987   0.864   7.922  0.9529 -1.2523 -0.1850
  918MOL0     H21151   6.867   0.930   8.038  1.3669 -0.4736 -0.2998
  918MOL0     H21152   6.694   0.785   7.911 -0.5078  3.9625  0.2165
  918MOL0     H21153   6.825   0.718   7.802 -3.7507 -0.5907 -4.1921
  918MOL0     H21154   6.809   1.012   7.824  2.1340 -1.9280  0.2047
  918MOL0     H21155   6.827   0.923   7.680 -1.6848  1.2970 -1.0678
  918MOL0     H21156   6.575   0.977   7.838  0.8207  1.2837 -0.3432
  918MOL0     H21157   6.567   0.880   7.698 -1.5896  1.3853 -0.4977
  918MOL0     H21158   6.642   0.637   8.632 -3.0635  2.5871  0.4745
  918MOL0     H21159   6.443   0.607   8.767  2.5990 -0.5401  0.7164
  918MOL0     H21160   5.831   0.541   8.621  1.1477 -0.2027 -1.0680
  918MOL0     H21161   5.660   0.485   8.807  0.5551  2.0702 -1.5763
  918MOL0     H21162   4.929   0.512   8.060 -1.0074  0.1095  0.2110
  918MOL0     H21163   4.708   0.488   8.057  2.7192 -1.4238  0.8402
  918MOL0     H21164   4.341   0.467   8.094  0.5318  1.2306 -0.1898
  918MOL0     H21165   4.094   0.431   8.020 -3.9971 -0.2451  0.5182
  918MOL0     H21166   3.774   0.537   8.324  2.6322  0.1896  1.0884
  918MOL0     H21167   3.796   0.369   8.322 -0.4865 -1.0228 -1.4486
  918MOL0     H21168   3.562   0.411   8.233  0.0487  0.2830  0.1689
  918MOL0     H21169   3.634   0.517   8.115 -2.3323  0.6639  1.3662
  918MOL0     H21170   3.611   0.224   8.120 -2.4354  2.1220  2.3295
  918MOL0     H21171   3.764   0.263   8.067  1.1925  0.5491  3.8122
  918MOL0     H21172   3.623   0.250   7.873 -0.0868 -1.2883 -0.4855
  918MOL0     H21173   3.506   0.369   7.925  1.3989  1.5456 -0.5061
  918MOL0     H21174   3.847   0.602   7.809  1.0731 -1.0933 -2.4326
  918MOL0     H21175   3.987   0.541   8.429 -1.1544  1.8067 -0.9864
  918MOL0     H21176   4.217   0.561   8.493  0.1806 -0.6198  0.3187
  919MOL0     O21177   1.569  10.033   6.116  0.8447  0.3402  0.3283
  919MOL0     C21178   1.497   9.949   6.060  0.6728 -0.4053  0.0830
  919MOL0     O21179   1.545   9.836   6.007 -0.1061  0.3114  0.5707
  919MOL0     C21180   1.666   9.791   6.043  0.0662 -0.1553 -0.1347
  919MOL0     C21181   1.666   9.708   6.150 -0.2612  0.4998  1.1724
  919MOL0     C21182   1.786   9.666   6.207  1.4837  0.5673 -0.2828
  919MOL0     C21183   1.908   9.717   6.163  0.4657 -0.1783  0.0801
  919MOL0     O21184   2.027   9.677   6.211 -0.7282  0.4443  0.5047
  919MOL0     C21185   2.034   9.535   6.242 -0.7364 -0.4011  0.2601
  919MOL0     C21186   2.155   9.498   6.334 -0.6278 -0.0642  0.1159
  919MOL0     C21187   2.181   9.597   6.447  0.5473  0.3961 -0.5173
  919MOL0     C21188   2.296   9.542   6.527 -0.3208  0.2082  0.2930
  919MOL0     C21189   2.311   9.629   6.644 -0.2973  0.2089  0.3519
  919MOL0     C21190   2.440   9.587   6.719 -0.2101 -0.7564  0.6742
  919MOL0     C21191   2.458   9.672   6.846 -0.3791 -0.3040 -0.1299
  919MOL0     C21192   2.520   9.813   6.819 -0.1208  0.3730  0.9494
  919MOL0     N21193   2.516   9.898   6.935 -0.7045 -0.2781 -0.8470
  919MOL0     C21194   2.403   9.961   6.984  0.2543  0.4868 -1.1208
  919MOL0     C21195   2.455  10.027   7.092  0.8240 -0.6861 -0.3956
  919MOL0     C21196   2.371  10.094   7.198  0.9046 -0.8319 -1.5089
  919MOL0     C21197   2.417  10.229   7.241  1.1527 -0.0906  0.1051
  919MOL0     C21198   2.341  10.294   7.357  0.1569  0.4402  0.4605
  919MOL0     C21199   2.293  10.192   7.466  0.0239  0.3994 -0.1510
  919MOL0     O21200   2.259  10.265   7.587  0.5745 -0.0254 -0.4389
  919MOL0     C21201   2.138  10.317   7.608 -0.4983  0.0279 -0.0070
  919MOL0     C21202   2.127  10.381   7.729  0.1246 -0.2600  0.1196
  919MOL0     C21203   2.009  10.454   7.761 -0.2819  0.5219  0.1325
  919MOL0     C21204   1.908  10.450   7.661  0.3843 -0.4619 -0.4531
  919MOL0     C21205   1.775  10.516   7.687 -0.1634  0.0165  0.1807
  919MOL0     O21206   1.760  10.563   7.823  0.2982 -0.2305 -0.1059
  919MOL0     C21207   1.646  10.636   7.849  0.4103 -1.3068 -0.6401
  919MOL0     C21208   1.658  10.763   7.909 -0.9217 -0.0850  0.0951
  919MOL0     C21209   1.546  10.838   7.927  1.0360 -0.8518  0.5998
  919MOL0     C21210   1.411  10.787   7.903  0.0234  0.5918 -0.3143
  919MOL0     O21211   1.295  10.858   7.935 -0.0055  0.1889 -0.0476
  919MOL0     C21212   1.172  10.781   7.947 -0.0267  0.6276  0.0831
  919MOL0     C21213   1.053  10.867   7.994  0.0426 -1.3706 -1.1163
  919MOL0     C21214   1.015  10.984   7.903 -1.6616 -0.2667  0.8863
  919MOL0     C21215   0.904  11.081   7.956 -0.2755  0.0130  0.1763
  919MOL0     C21216   0.769  11.019   7.979 -0.3726  1.0726  0.2151
  919MOL0     C21217   0.723  10.942   7.858 -0.2441  0.2533  0.1560
  919MOL0     C21218   0.575  10.928   7.858 -0.2565  0.2528 -0.0706
  919MOL0     C21219   0.508  10.838   7.959  0.5517 -0.4639 -0.9488
  919MOL0    Cl21220   0.321  10.864   7.968  0.0101  0.0776  0.3525
  919MOL0     C21221   1.401  10.653   7.861  0.3285  0.1349  0.3748
  919MOL0     C21222   1.516  10.584   7.818 -0.8003 -0.3409 -0.8077
  919MOL0     O21223   1.701  10.543   7.586 -0.1423 -0.2922 -0.4372
  919MOL0     C21224   1.923  10.382   7.543 -0.2142 -0.2558  0.7699
  919MOL0     C21225   2.043  10.321   7.510  0.7722  0.0261 -0.4850
  919MOL0     N21226   2.588   9.983   7.116 -0.5357  0.6011  0.8787
  919MOL0     N21227   2.622   9.912   7.014  0.4954 -0.0672 -0.6633
  919MOL0     C21228   1.910   9.805   6.053  0.3643  0.5039  0.1053
  919MOL0     C21229   1.787   9.844   5.994  0.9576 -0.4312  0.6724
  919MOL0     C21230   1.350   9.984   6.040 -0.6752  0.2488  0.2601
  919MOL0     C21231   1.291   9.924   5.936  1.3239  0.6946  0.8477
  919MOL0     C21232   1.161   9.959   5.897  0.1768 -0.3146 -0.6905
  919MOL0     C21233   1.079  10.045   5.979  0.8685 -0.5426  0.1661
  919MOL0     O21234   0.938  10.077   5.960  0.1945  0.0923 -0.2999
  919MOL0     C21235   0.864  10.008   5.858 -0.7692 -0.0158 -0.3306
  919MOL0     C21236   0.728  10.075   5.836 -0.3275  0.0219 -0.4257
  919MOL0     C21237   0.642   9.999   5.729  0.2365  0.3883  0.0617
  919MOL0     C21238   0.556  10.112   5.666  0.0096  0.7028 -0.0598
  919MOL0     C21239   0.474  10.067   5.542 -0.5608 -0.4296 -0.1405
  919MOL0     C21240   0.424  10.017   5.445  0.1164 -0.3237 -0.7202
  919MOL0     C21241   1.148  10.097   6.090  0.2166 -0.0466 -0.4086
  919MOL0     C21242   1.282  10.068   6.124 -0.3082  0.2595 -0.5193
  919MOL0     H21243   1.571   9.669   6.185 -0.1647 -0.1360  0.7374
  919MOL0     H21244   1.772   9.601   6.293  0.1039  3.9160  2.2471
  919MOL0     H21245   2.023   9.474   6.152 -2.2063 -1.1916  0.9460
  919MOL0     H21246   1.952   9.512   6.310 -0.3922  0.7994  1.1198
  919MOL0     H21247   2.245   9.506   6.273 -0.3827 -3.2891 -0.1171
  919MOL0     H21248   2.154   9.397   6.377 -1.3145  0.3356  1.0799
  919MOL0     H21249   2.093   9.613   6.510  0.5200  2.9984 -1.0859
  919MOL0     H21250   2.207   9.697   6.410  0.2175  0.4196 -0.6876
  919MOL0     H21251   2.270   9.443   6.563  1.9980 -1.9500 -3.3052
  919MOL0     H21252   2.388   9.531   6.468 -0.5917 -1.2333  0.1032
  919MOL0     H21253   2.227   9.602   6.708  0.0017  1.7084  1.4133
  919MOL0     H21254   2.309   9.735   6.618  0.9553 -0.2519 -1.9011
  919MOL0     H21255   2.529   9.604   6.658  0.6544 -4.7898  0.4928
  919MOL0     H21256   2.437   9.478   6.734  4.0701 -1.0504  0.5938
  919MOL0     H21257   2.368   9.685   6.907 -0.1066 -1.2108  0.4775
  919MOL0     H21258   2.530   9.616   6.906 -0.7216 -1.4902 -0.8021
  919MOL0     H21259   2.460   9.859   6.740 -5.1194 -1.3219  3.3426
  919MOL0     H21260   2.625   9.812   6.789 -0.2943 -2.0084  0.2557
  919MOL0     H21261   2.300   9.948   6.952  0.7726 -0.1994 -2.6101
  919MOL0     H21262   2.366  10.032   7.288  3.2918  2.4950  1.1732
  919MOL0     H21263   2.272  10.103   7.152  0.8177  1.0465 -1.0426
  919MOL0     H21264   2.411  10.298   7.156 -2.0317 -1.0454 -0.5913
  919MOL0     H21265   2.520  10.226   7.277  1.1390  1.8024  0.3799
  919MOL0     H21266   2.399  10.374   7.405  1.8490 -0.5284  0.1314
  919MOL0     H21267   2.257  10.338   7.302  0.5335 -2.5624 -2.8243
  919MOL0     H21268   2.374  10.122   7.486 -0.4691  0.3270  1.7561
  919MOL0     H21269   2.206  10.133   7.437 -0.6102  1.0803  0.3212
  919MOL0     H21270   2.215  10.386   7.792 -0.1662  2.0013  0.4400
  919MOL0     H21271   2.000  10.503   7.857  0.8494  1.9896 -0.4677
  919MOL0     H21272   1.754  10.809   7.929 -0.4347 -1.0307  0.0209
  919MOL0     H21273   1.542  10.938   7.969 -2.4545  0.0303 -1.4140
  919MOL0     H21274   1.190  10.706   8.025  3.4661  1.9280  0.7546
  919MOL0     H21275   1.161  10.742   7.846  3.2504  0.8733 -0.4890
  919MOL0     H21276   1.057  10.904   8.097 -0.1588  4.5904 -2.8534
  919MOL0     H21277   0.972  10.794   7.995 -0.1874 -1.1209 -0.0536
  919MOL0     H21278   0.976  10.952   7.806  0.9501  0.3855 -0.4618
  919MOL0     H21279   1.105  11.045   7.891 -0.8480 -1.2556  1.7190
  919MOL0     H21280   0.940  11.125   8.049 -0.0398 -1.3315  0.7363
  919MOL0     H21281   0.895  11.161   7.881 -0.3438 -0.3186 -0.1746
  919MOL0     H21282   0.695  11.100   7.988  0.7802  2.1424  0.3165
  919MOL0     H21283   0.754  10.968   8.074  0.1553  2.9292  1.3417
  919MOL0     H21284   0.760  10.839   7.860 -0.2840  0.2051 -1.0022
  919MOL0     H21285   0.747  10.998   7.767 -2.2989  0.0999 -0.5262
  919MOL0     H21286   0.523  11.024   7.854  0.4415  0.6030 -2.4672
  919MOL0     H21287   0.554  10.884   7.759  2.0438 -0.2535 -0.3948
  919MOL0     H21288   0.550  10.833   8.060  1.4518 -2.9822 -1.3607
  919MOL0     H21289   0.541  10.741   7.920 -0.9440 -1.7730  0.8814
  919MOL0     H21290   1.304  10.605   7.853 -0.7781  2.0292  1.6796
  919MOL0     H21291   1.507  10.492   7.760  0.8024  0.8824 -3.1476
  919MOL0     H21292   1.845  10.363   7.470  1.4991 -1.8976 -0.7203
  919MOL0     H21293   2.036  10.257   7.422 -1.1662 -0.8909  0.2844
  919MOL0     H21294   2.006   9.839   6.017 -2.0600  3.8603 -4.0619
  919MOL0     H21295   1.775   9.923   5.922  0.3666 -1.0258  0.0995
  919MOL0     H21296   1.331   9.848   5.871  1.3865  0.2581  1.3863
  919MOL0     H21297   1.127   9.906   5.808 -0.9415 -1.2788  0.2792
  919MOL0     H21298   0.849   9.903   5.885  3.1839 -0.8287 -0.6731
  919MOL0     H21299   0.931  10.009   5.772  0.5874 -0.9897  0.6664
  919MOL0     H21300   0.668  10.090   5.927 -0.9922 -0.2175 -0.8163
  919MOL0     H21301   0.750  10.176   5.801  0.5227 -0.5279 -1.5058
  919MOL0     H21302   0.587   9.913   5.768  2.1947  0.1911  2.6572
  919MOL0     H21303   0.700   9.956   5.647  0.5448 -2.3905  1.6111
  919MOL0     H21304   0.497  10.165   5.741  0.6581  2.6837 -0.8972
  919MOL0     H21305   0.626  10.187   5.630  0.8975 -0.8958 -1.8567
  919MOL0     H21306   0.371   9.967   5.366 -2.7566 -0.6141  1.2356
  919MOL0     H21307   1.106  10.160   6.168  0.4970 -0.5131  0.1255
  919MOL0     H21308   1.320  10.112   6.216  0.6355  2.6983 -1.9932
  920MOL0     O21309   6.204   5.966   8.908 -0.1454  0.3461  0.3283
  920MOL0     C21310   6.222   5.958   8.791 -0.4733  0.5494 -0.6790
  920MOL0     O21311   6.133   5.929   8.699 -0.1525  0.0669 -0.1487
  920MOL0     C21312   6.006   5.906   8.734 -0.3129 -0.1392  0.5953
  920MOL0     C21313   5.921   6.014   8.758  0.2227  0.2259 -0.2509
  920MOL0     C21314   5.782   5.996   8.795  0.1717 -0.2158 -0.7779
  920MOL0     C21315   5.722   5.866   8.792  0.7877  0.2993 -0.5584
  920MOL0     O21316   5.595   5.836   8.846  0.5072  0.2883  0.3263
  920MOL0     C21317   5.496   5.942   8.816 -0.2371  0.8564  0.5465
  920MOL0     C21318   5.464   6.023   8.940  0.8667 -0.6594 -1.0277
  920MOL0     C21319   5.408   5.933   9.052 -0.1524 -0.6357 -1.2926
  920MOL0     C21320   5.274   5.869   9.024  0.8177  0.3039 -0.3051
  920MOL0     C21321   5.162   5.974   9.006 -0.0834 -0.3031  0.1303
  920MOL0     C21322   5.126   6.069   9.127  0.3024 -0.2802 -0.1189
  920MOL0     C21323   4.994   6.148   9.084  0.4414 -0.2340  0.4957
  920MOL0     C21324   4.929   6.246   9.182  0.4437 -0.1066 -0.6010
  920MOL0     N21325   4.799   6.284   9.117 -0.8845  0.0545 -0.2222
  920MOL0     C21326   4.694   6.199   9.126  0.2039  0.1108  1.0065
  920MOL0     C21327   4.590   6.263   9.083  0.3148 -0.9204 -0.0299
  920MOL0     C21328   4.455   6.206   9.046  0.4806 -0.0489 -0.1876
  920MOL0     C21329   4.343   6.267   9.128 -0.1494  0.1979 -0.7803
  920MOL0     C21330   4.340   6.203   9.264 -0.2804 -1.0350 -0.6326
  920MOL0     C21331   4.291   6.293   9.376  0.6186 -0.7578 -0.0422
  920MOL0     O21332   4.155   6.337   9.342  0.4749  0.1241 -0.3285
  920MOL0     C21333   4.047   6.262   9.389  0.2784 -0.2530 -0.4654
  920MOL0     C21334   4.039   6.192   9.515  0.4129 -0.4351  0.7943
  920MOL0     C21335   3.918   6.135   9.556 -0.2744  0.5638 -0.4516
  920MOL0     C21336   3.809   6.126   9.465  0.4709  0.1359  0.1841
  920MOL0     C21337   3.686   6.045   9.490  0.1654  0.1767 -0.6752
  920MOL0     O21338   3.581   6.034   9.391  0.5776  0.0314 -0.5680
  920MOL0     C21339   3.474   5.955   9.414  1.0032 -0.5334  0.4266
  920MOL0     C21340   3.445   5.872   9.526  0.2158 -0.6964 -0.1222
  920MOL0     C21341   3.326   5.800   9.539  0.2344 -0.0566 -0.7509
  920MOL0     C21342   3.228   5.809   9.439 -0.7621  0.5202  0.0772
  920MOL0     O21343   3.119   5.730   9.446 -0.1325  0.2022  0.1946
  920MOL0     C21344   3.092   5.644   9.563 -0.0390  0.9127  0.0779
  920MOL0     C21345   2.947   5.602   9.579  0.6508 -0.3427 -0.0062
  920MOL0     C21346   2.926   5.546   9.723 -0.0737 -0.9022  0.0246
  920MOL0     C21347   2.799   5.461   9.715 -0.7114 -0.5226  0.0802
  920MOL0     C21348   2.763   5.414   9.863  0.3758 -1.0647  0.6326
  920MOL0     C21349   2.684   5.291   9.860  0.2686  0.5819 -0.4172
  920MOL0     C21350   2.554   5.293   9.785  0.0009 -0.7440 -0.2374
  920MOL0     C21351   2.504   5.147   9.757 -0.4468  0.5203 -0.0370
  920MOL0    Cl21352   2.385   5.155   9.631  0.5031 -0.1961  0.0572
  920MOL0     C21353   3.255   5.883   9.322  0.0642 -0.1765 -0.3216
  920MOL0     C21354   3.376   5.958   9.319 -0.3696 -0.0756  0.4287
  920MOL0     O21355   3.691   5.984   9.594  0.1499 -0.2062  0.2596
  920MOL0     C21356   3.812   6.201   9.346 -0.2030 -0.9753  0.2232
  920MOL0     C21357   3.928   6.273   9.314  0.1657 -0.6583  0.1644
  920MOL0     N21358   4.639   6.389   9.029  0.2366 -0.0710 -0.2767
  920MOL0     N21359   4.765   6.396   9.058  0.5735  0.8271 -0.3900
  920MOL0     C21360   5.808   5.760   8.754  0.0261 -0.3711 -0.4344
  920MOL0     C21361   5.944   5.778   8.727  0.5160  0.2810 -1.1301
  920MOL0     C21362   6.369   5.945   8.746 -0.3373  0.0825 -0.7000
  920MOL0     C21363   6.410   5.865   8.640 -0.6610 -0.3849  0.0496
  920MOL0     C21364   6.548   5.852   8.624  0.6130  0.3625  0.2168
  920MOL0     C21365   6.644   5.919   8.703 -0.8617  0.0370  0.4957
  920MOL0     O21366   6.775   5.911   8.678 -0.2914  0.5341  0.2577
  920MOL0     C21367   6.819   5.966   8.546  0.0094  0.0673  0.3208
  920MOL0     C21368   6.923   6.084   8.557  0.2861  0.9067 -0.6249
  920MOL0     C21369   7.020   6.070   8.679 -0.0666  0.1908  0.5766
  920MOL0     C21370   7.104   6.206   8.703 -0.3476  0.2016 -0.4309
  920MOL0     C21371   7.006   6.318   8.728  0.3863  0.7874 -0.8135
  920MOL0     C21372   6.919   6.400   8.750  0.2292 -0.2442  0.0165
  920MOL0     C21373   6.600   6.004   8.800  1.2853  0.3769 -0.6224
  920MOL0     C21374   6.462   6.011   8.827 -0.0448 -0.4472  1.2655
  920MOL0     H21375   5.959   6.115   8.748  0.1640  0.4731  1.6640
  920MOL0     H21376   5.727   6.084   8.828  1.2719  0.4141 -0.5623
  920MOL0     H21377   5.405   5.891   8.786 -0.0467  0.9275 -0.1700
  920MOL0     H21378   5.523   6.004   8.729  1.1700 -0.7491 -0.2328
  920MOL0     H21379   5.392   6.101   8.910  2.0260  0.5050 -0.8667
  920MOL0     H21380   5.561   6.068   8.964  0.2711 -0.4889  1.3351
  920MOL0     H21381   5.418   5.992   9.144  3.4692 -3.7249  0.5857
  920MOL0     H21382   5.477   5.849   9.071 -0.0337 -0.7382 -2.1481
  920MOL0     H21383   5.284   5.799   8.940  0.2653  1.4209 -1.3184
  920MOL0     H21384   5.259   5.803   9.111  2.4779  0.4664  0.1459
  920MOL0     H21385   5.078   5.907   8.987 -1.9597  1.7241  0.7888
  920MOL0     H21386   5.183   6.044   8.924  0.9662 -1.6000 -0.7372
  920MOL0     H21387   5.208   6.136   9.156 -0.5672  0.7027  0.1095
  920MOL0     H21388   5.101   6.007   9.213 -4.9565  2.8512  1.0384
  920MOL0     H21389   5.021   6.200   8.991  2.3585 -0.9953  0.5906
  920MOL0     H21390   4.920   6.070   9.062  1.1282 -0.8135  0.2106
  920MOL0     H21391   4.997   6.331   9.195  0.2531  0.0858 -0.8513
  920MOL0     H21392   4.915   6.196   9.279  1.6002  1.2969  0.3453
  920MOL0     H21393   4.703   6.091   9.138  2.5973 -0.0633 -1.4543
  920MOL0     H21394   4.459   6.097   9.053 -3.7016 -0.3125  0.1160
  920MOL0     H21395   4.443   6.219   8.938 -2.1873 -0.7943 -0.0374
  920MOL0     H21396   4.243   6.259   9.084  0.2134  2.5897 -2.2192
  920MOL0     H21397   4.363   6.375   9.129  1.6281 -0.0952  0.3486
  920MOL0     H21398   4.279   6.113   9.273 -0.1909 -0.9880  0.6924
  920MOL0     H21399   4.440   6.164   9.284 -0.6464 -0.1594  4.0175
  920MOL0     H21400   4.361   6.377   9.380  0.7232 -0.6703 -2.5664
  920MOL0     H21401   4.292   6.237   9.470 -0.0139 -2.5580 -1.0709
  920MOL0     H21402   4.114   6.188   9.594 -0.2367  0.1721  1.4592
  920MOL0     H21403   3.904   6.092   9.655  1.6363  0.6716 -0.0858
  920MOL0     H21404   3.514   5.844   9.605 -0.9682 -0.0781  1.1896
  920MOL0     H21405   3.320   5.728   9.620 -0.5791 -1.2653 -1.8348
  920MOL0     H21406   3.121   5.706   9.649  2.7265 -1.0722  0.7224
  920MOL0     H21407   3.154   5.554   9.551 -0.0904  0.9177 -0.2391
  920MOL0     H21408   2.918   5.524   9.509  1.7776 -0.0941 -0.7844
  920MOL0     H21409   2.891   5.694   9.559 -0.1866 -1.0665 -1.0590
  920MOL0     H21410   2.915   5.634   9.787 -1.2464  0.4017 -1.8662
  920MOL0     H21411   3.014   5.493   9.759 -0.7415  0.2856  3.8118
  920MOL0     H21412   2.713   5.514   9.672  1.0432 -0.3558 -3.5910
  920MOL0     H21413   2.811   5.371   9.653  0.7750  0.4055 -1.0429
  920MOL0     H21414   2.701   5.485   9.918  0.3586 -0.8244  0.3052
  920MOL0     H21415   2.851   5.403   9.927  0.7127  0.0318  0.3839
  920MOL0     H21416   2.658   5.276   9.966  1.6777  1.2486  0.0553
  920MOL0     H21417   2.751   5.207   9.840 -0.5306 -0.8910  2.4844
  920MOL0     H21418   2.475   5.332   9.850 -1.2170 -2.4715 -0.5729
  920MOL0     H21419   2.550   5.361   9.699  0.5971 -1.4397 -0.8321
  920MOL0     H21420   2.452   5.098   9.840 -2.0312  1.0628 -0.6585
  920MOL0     H21421   2.584   5.087   9.714  1.2641  2.6545  0.0042
  920MOL0     H21422   3.205   5.862   9.227 -0.0046  0.8749 -0.5290
  920MOL0     H21423   3.398   6.011   9.226  0.4972 -0.3951  0.4361
  920MOL0     H21424   3.722   6.212   9.287  0.2834  2.9416 -0.0718
  920MOL0     H21425   3.930   6.342   9.231 -0.3671 -1.7103 -0.7476
  920MOL0     H21426   5.768   5.659   8.750  1.3012 -0.9135  0.0983
  920MOL0     H21427   6.013   5.698   8.703  0.4386 -0.4979  0.9968
  920MOL0     H21428   6.346   5.816   8.568 -1.1467 -0.1399  0.3096
  920MOL0     H21429   6.596   5.780   8.559  1.3603 -0.1291  1.2969
  920MOL0     H21430   6.735   5.991   8.481 -0.2392 -1.6936 -0.0833
  920MOL0     H21431   6.867   5.885   8.490 -2.3048 -0.0688 -1.6209
  920MOL0     H21432   6.985   6.094   8.467 -2.7683  1.1821 -2.8319
  920MOL0     H21433   6.857   6.170   8.564  1.1889  1.5697  0.0179
  920MOL0     H21434   7.092   5.988   8.667  2.6083  2.3704  0.7458
  920MOL0     H21435   6.960   6.051   8.769 -1.5824 -1.0109 -0.6311
  920MOL0     H21436   7.158   6.187   8.797  1.3646  0.0125 -1.4164
  920MOL0     H21437   7.174   6.214   8.620 -0.2708 -0.9431 -0.4859
  920MOL0     H21438   6.840   6.466   8.775  0.3076 -0.5652  1.1534
  920MOL0     H21439   6.675   6.071   8.841  1.8416 -0.0892 -0.8598
  920MOL0     H21440   6.434   6.088   8.898  2.0272  0.5301  1.0913
  921MOL0     O21441   2.924   4.468   1.354  0.1232 -0.0485 -0.2169
  921MOL0     C21442   2.939   4.570   1.295 -0.3899 -0.2603 -0.0240
  921MOL0     O21443   3.056   4.623   1.253 -0.2883  0.3669  0.8272
  921MOL0     C21444   3.177   4.577   1.291  1.3842  0.1283  0.4227
  921MOL0     C21445   3.201   4.505   1.414 -0.6140  0.1763 -0.3496
  921MOL0     C21446   3.335   4.458   1.433  0.6114 -0.7771  0.4930
  921MOL0     C21447   3.438   4.494   1.347  0.6597 -0.3667  0.6912
  921MOL0     O21448   3.565   4.444   1.356  0.3560  0.6207 -0.2842
  921MOL0     C21449   3.625   4.391   1.477 -0.2956  0.5019 -0.2248
  921MOL0     C21450   3.770   4.375   1.429  0.3565 -0.7061 -0.0505
  921MOL0     C21451   3.871   4.365   1.549  0.5140  0.0110 -0.0759
  921MOL0     C21452   4.018   4.356   1.508  0.2232  0.4037 -0.0412
  921MOL0     C21453   4.079   4.494   1.474 -0.2899 -0.7703 -0.3423
  921MOL0     C21454   4.185   4.513   1.368  0.0126 -0.0932  0.3150
  921MOL0     C21455   4.304   4.413   1.380  0.2430  0.4155 -0.0060
  921MOL0     C21456   4.384   4.428   1.506 -0.8420  0.4231  0.2789
  921MOL0     N21457   4.496   4.338   1.508 -0.1169 -0.0110 -0.0411
  921MOL0     C21458   4.472   4.208   1.554 -0.1690 -0.1243 -0.1496
  921MOL0     C21459   4.571   4.129   1.492 -0.1239  0.3656 -0.7480
  921MOL0     C21460   4.579   3.982   1.490 -1.0153  0.1049 -0.3022
  921MOL0     C21461   4.575   3.928   1.342  0.5920 -0.6801 -0.0501
  921MOL0     C21462   4.467   4.006   1.258  0.4589 -1.3904 -0.2667
  921MOL0     C21463   4.324   3.993   1.315 -0.8329 -0.6291 -0.2309
  921MOL0     O21464   4.223   4.022   1.217 -0.0527  0.0331  0.2003
  921MOL0     C21465   4.092   4.023   1.259  0.5545 -0.4239 -0.4529
  921MOL0     C21466   4.001   4.056   1.163 -1.3408 -0.0338  0.0695
  921MOL0     C21467   3.864   4.058   1.189  0.3267 -0.0739 -0.0033
  921MOL0     C21468   3.818   4.040   1.318 -0.4512 -0.3603 -0.3105
  921MOL0     C21469   3.676   4.035   1.339  0.0034 -0.3414 -0.0365
  921MOL0     O21470   3.624   4.056   1.462 -0.5175  0.5152  0.0926
  921MOL0     C21471   3.488   4.057   1.492  0.1818  0.2036 -0.4882
  921MOL0     C21472   3.390   4.125   1.409  0.6068  0.1973 -0.0211
  921MOL0     C21473   3.251   4.124   1.438 -0.8343  0.2699 -0.5235
  921MOL0     C21474   3.197   4.039   1.538  0.8728  0.7781 -0.0869
  921MOL0     O21475   3.061   4.033   1.548 -0.2306  0.1024  0.3569
  921MOL0     C21476   2.991   3.944   1.630 -0.3257 -0.3574 -0.3099
  921MOL0     C21477   2.841   3.957   1.588 -0.3656 -0.3915  0.1938
  921MOL0     C21478   2.823   3.895   1.452 -0.2952 -0.0761 -0.8760
  921MOL0     C21479   2.673   3.894   1.404  1.0696 -0.4087 -0.8132
  921MOL0     C21480   2.636   4.029   1.344  0.5420 -1.4822 -0.2208
  921MOL0     C21481   2.597   4.136   1.455  0.5164  0.3511 -0.4896
  921MOL0     C21482   2.488   4.243   1.411 -0.3456  0.8323  0.5348
  921MOL0     C21483   2.434   4.313   1.529 -0.4416  0.2438  0.5499
  921MOL0    Cl21484   2.325   4.443   1.473 -0.1025  0.1121  0.6377
  921MOL0     C21485   3.288   3.974   1.617  0.6594 -0.1105  0.3553
  921MOL0     C21486   3.430   3.978   1.597 -0.5029 -0.7184  0.2274
  921MOL0     O21487   3.604   4.037   1.241  0.3375 -0.3576  0.8044
  921MOL0     C21488   3.906   4.006   1.421 -0.4796 -0.2855  0.0248
  921MOL0     C21489   4.039   3.991   1.390  0.0157 -0.0429  0.7455
  921MOL0     N21490   4.643   4.219   1.408  0.2728  0.1521  0.0549
  921MOL0     N21491   4.595   4.336   1.410  0.2165 -0.4647 -0.0974
  921MOL0     C21492   3.408   4.552   1.220  0.3433 -0.0141  0.4643
  921MOL0     C21493   3.281   4.597   1.197  0.7082  0.1945  0.0375
  921MOL0     C21494   2.813   4.641   1.258 -0.6499  0.1143  0.7453
  921MOL0     C21495   2.690   4.586   1.298  0.7377 -0.8655  0.3535
  921MOL0     C21496   2.571   4.644   1.259  0.4736 -0.1116  0.2308
  921MOL0     C21497   2.578   4.761   1.190  0.7625  0.2874 -0.0072
  921MOL0     O21498   2.459   4.811   1.144  0.0647  0.1169  0.6204
  921MOL0     C21499   2.399   4.924   1.214  0.3923  0.0299 -0.4420
  921MOL0     C21500   2.248   4.922   1.214 -0.4606  0.5799 -0.5644
  921MOL0     C21501   2.196   4.802   1.288 -0.6003 -0.1472 -0.5057
  921MOL0     C21502   2.040   4.812   1.307  0.0801 -0.3778  0.5032
  921MOL0     C21503   2.001   4.731   1.417  0.3880 -0.2921 -0.1763
  921MOL0     C21504   1.971   4.652   1.504 -0.3297  0.3604  0.3128
  921MOL0     C21505   2.695   4.812   1.137  0.6819 -1.0301 -0.1146
  921MOL0     C21506   2.812   4.754   1.169  0.4582  0.7129  0.4540
  921MOL0     H21507   3.127   4.483   1.490 -0.7566  1.6178 -0.0408
  921MOL0     H21508   3.349   4.382   1.509 -1.0129 -0.8080  0.7899
  921MOL0     H21509   3.570   4.307   1.520 -0.5653  0.9730  0.3579
  921MOL0     H21510   3.626   4.459   1.563 -1.7881 -0.6732  0.7723
  921MOL0     H21511   3.799   4.470   1.382  0.7398 -0.2985  0.9754
  921MOL0     H21512   3.786   4.291   1.361  2.4285  1.8492 -2.9875
  921MOL0     H21513   3.850   4.274   1.605 -1.8922 -0.1776 -1.1815
  921MOL0     H21514   3.852   4.446   1.620  0.6338  1.2724 -1.4247
  921MOL0     H21515   4.086   4.308   1.579 -1.3176 -1.6565  0.1644
  921MOL0     H21516   4.025   4.295   1.417 -0.1375  1.2055 -0.6150
  921MOL0     H21517   4.117   4.536   1.568 -4.9059  0.9630  0.9835
  921MOL0     H21518   3.992   4.550   1.439  0.1670 -0.6455 -1.3172
  921MOL0     H21519   4.226   4.614   1.376  0.2343 -0.2106  0.6937
  921MOL0     H21520   4.140   4.500   1.269  3.3341  0.3926 -1.4053
  921MOL0     H21521   4.280   4.311   1.349 -3.4185  0.3326  2.5235
  921MOL0     H21522   4.365   4.455   1.299 -1.3566  0.5040 -1.2251
  921MOL0     H21523   4.322   4.426   1.596 -1.5492 -0.8220 -0.2144
  921MOL0     H21524   4.430   4.527   1.514 -0.9080  0.3518  1.6989
  921MOL0     H21525   4.403   4.171   1.628  0.7270  0.3273  0.9348
  921MOL0     H21526   4.499   3.936   1.549 -0.3242 -0.3526  0.2947
  921MOL0     H21527   4.670   3.949   1.540  1.2954  0.5484 -3.8450
  921MOL0     H21528   4.546   3.824   1.358  0.4359 -0.4224  1.4478
  921MOL0     H21529   4.672   3.914   1.292  0.3283 -3.1122  0.0077
  921MOL0     H21530   4.493   4.110   1.240  0.6984 -1.7184 -2.0736
  921MOL0     H21531   4.468   3.958   1.159  1.7422  2.1069 -2.1417
  921MOL0     H21532   4.304   4.066   1.393 -1.2735  0.4143 -1.2876
  921MOL0     H21533   4.307   3.895   1.361  1.7042 -0.4106  1.3930
  921MOL0     H21534   4.023   4.074   1.058 -1.7026 -1.3613 -0.2568
  921MOL0     H21535   3.786   4.075   1.115  0.6215 -0.9138 -0.5176
  921MOL0     H21536   3.414   4.180   1.319  0.2136 -2.3025 -1.7453
  921MOL0     H21537   3.185   4.180   1.372  1.2313  3.7467  0.1255
  921MOL0     H21538   3.002   3.970   1.735 -0.8331  0.3843 -0.4280
  921MOL0     H21539   3.024   3.840   1.618 -0.2315 -0.7750  2.8823
  921MOL0     H21540   2.817   4.064   1.585 -0.1611 -0.3727 -0.8822
  921MOL0     H21541   2.779   3.900   1.658  0.1832 -1.8113 -0.4528
  921MOL0     H21542   2.864   3.794   1.469 -0.3723 -0.0053 -0.2440
  921MOL0     H21543   2.880   3.941   1.371 -1.4800  2.1476 -0.4977
  921MOL0     H21544   2.669   3.824   1.321  1.3933 -1.9928  0.4573
  921MOL0     H21545   2.597   3.855   1.472 -1.6238 -1.6663 -4.2536
  921MOL0     H21546   2.551   4.020   1.275  1.1732 -0.8571 -1.0893
  921MOL0     H21547   2.724   4.066   1.291 -0.1624 -0.4157 -0.6807
  921MOL0     H21548   2.685   4.187   1.495  0.2049 -1.9313  3.7802
  921MOL0     H21549   2.555   4.085   1.543  3.1979 -0.0757  0.6334
  921MOL0     H21550   2.539   4.308   1.340 -1.8020  0.7273 -0.6442
  921MOL0     H21551   2.405   4.199   1.355 -0.2348  3.5953 -2.0030
  921MOL0     H21552   2.520   4.348   1.586  1.6832 -0.2589 -2.1541
  921MOL0     H21553   2.394   4.246   1.606  1.5790 -1.2760  0.3788
  921MOL0     H21554   3.247   3.916   1.699  1.5075 -0.0291  0.8518
  921MOL0     H21555   3.495   3.924   1.666  1.1546  2.4172  1.2847
  921MOL0     H21556   3.871   3.988   1.522  2.0823  2.3794  1.5452
  921MOL0     H21557   4.115   3.964   1.463  2.6391 -3.7572 -2.8723
  921MOL0     H21558   3.478   4.546   1.138 -0.6926  0.1980 -0.4603
  921MOL0     H21559   3.265   4.632   1.096  0.8305  0.4831  0.1145
  921MOL0     H21560   2.691   4.500   1.365 -1.0513  1.6506  3.9287
  921MOL0     H21561   2.473   4.601   1.274 -0.6587  1.0327 -3.1146
  921MOL0     H21562   2.424   5.020   1.168 -2.8958 -0.3474 -3.4000
  921MOL0     H21563   2.429   4.921   1.319  0.7717 -1.6085 -0.5702
  921MOL0     H21564   2.214   5.000   1.282  1.0530  0.2692  0.6152
  921MOL0     H21565   2.200   4.942   1.118  0.8914  4.2978 -0.6322
  921MOL0     H21566   2.265   4.783   1.372  0.2075 -0.5955 -1.2488
  921MOL0     H21567   2.212   4.720   1.217 -1.4156  0.5326 -1.4851
  921MOL0     H21568   2.018   4.916   1.334 -0.8149 -0.6629  0.9073
  921MOL0     H21569   1.984   4.789   1.216  1.9660 -0.5289 -0.6691
  921MOL0     H21570   1.937   4.592   1.586  1.6855 -0.4378  0.6191
  921MOL0     H21571   2.680   4.891   1.064  3.8834  2.0841  2.2751
  921MOL0     H21572   2.904   4.789   1.124 -0.0874  0.7717 -0.6671
  922MOL0     O21573   9.641   7.602   1.680  0.7136  0.6113  0.2540
  922MOL0     C21574   9.643   7.717   1.724  0.7728  0.0753 -0.6963
  922MOL0     O21575   9.751   7.796   1.739  0.2307 -0.4716 -0.3807
  922MOL0     C21576   9.864   7.762   1.672  0.1915  0.0752  0.0343
  922MOL0     C21577   9.986   7.784   1.740  0.2570 -0.5363 -0.0781
  922MOL0     C21578  10.108   7.752   1.692  0.6294 -0.3222  0.0466
  922MOL0     C21579  10.112   7.691   1.569 -0.0771 -0.0659 -0.5030
  922MOL0     O21580  10.218   7.651   1.489  0.3420  0.3934  0.2356
  922MOL0     C21581  10.355   7.686   1.520  0.0353 -0.6882  0.0236
  922MOL0     C21582  10.424   7.576   1.594  0.4564  0.1362 -0.0716
  922MOL0     C21583  10.569   7.624   1.630  0.3057  0.3205  1.4924
  922MOL0     C21584  10.640   7.517   1.709 -0.3978 -0.1295 -0.3137
  922MOL0     C21585  10.789   7.533   1.713  0.4582  0.8600 -0.9346
  922MOL0     C21586  10.830   7.643   1.808  0.4312 -0.5409  0.5883
  922MOL0     C21587  10.983   7.649   1.794  0.4398 -0.3550  0.5392
  922MOL0     C21588  11.031   7.741   1.902  0.5404 -0.4145  0.7659
  922MOL0     N21589  11.163   7.803   1.878  0.4205  0.2001  0.0244
  922MOL0     C21590  11.268   7.736   1.920 -0.8730 -0.6107 -0.1214
  922MOL0     C21591  11.371   7.799   1.858 -0.7430 -0.0177 -0.2066
  922MOL0     C21592  11.514   7.781   1.894 -0.1252 -0.2145  0.0445
  922MOL0     C21593  11.539   7.781   2.043  0.2353  0.2419  0.0435
  922MOL0     C21594  11.686   7.761   2.075  0.0158  0.2687  1.2490
  922MOL0     C21595  11.750   7.618   2.053 -0.1783  0.4167  0.5487
  922MOL0     O21596  11.656   7.513   2.093  0.4757 -0.2166 -0.4784
  922MOL0     C21597  11.636   7.476   2.222  0.0982 -0.3982  0.1508
  922MOL0     C21598  11.716   7.528   2.321 -0.3278  0.7485  0.8648
  922MOL0     C21599  11.706   7.470   2.448 -0.6892 -0.1452  0.3231
  922MOL0     C21600  11.622   7.360   2.479  0.2431 -0.2151 -0.2403
  922MOL0     C21601  11.630   7.294   2.612 -0.1089 -0.1070  0.6973
  922MOL0     O21602  11.731   7.339   2.689  0.4864 -0.1934 -0.3680
  922MOL0     C21603  11.780   7.270   2.802  0.6471 -0.0108 -0.4368
  922MOL0     C21604  11.799   7.134   2.810 -0.2485  0.2108  0.2403
  922MOL0     C21605  11.878   7.079   2.911  0.3933  0.8432  0.8111
  922MOL0     C21606  11.921   7.171   3.007 -0.2851  0.1434 -0.7542
  922MOL0     O21607  12.007   7.128   3.116 -0.3362 -0.5726  0.4642
  922MOL0     C21608  11.950   7.014   3.184 -0.2478 -0.4973  0.1828
  922MOL0     C21609  12.057   6.961   3.279 -0.3538  0.2869  0.0961
  922MOL0     C21610  12.003   6.847   3.359 -0.1982 -1.0295 -0.4584
  922MOL0     C21611  11.994   6.707   3.293 -0.3972  0.4133 -0.3771
  922MOL0     C21612  11.857   6.643   3.301  0.4684  0.3945 -0.8370
  922MOL0     C21613  11.799   6.644   3.439  0.8911  0.0536 -0.1697
  922MOL0     C21614  11.662   6.558   3.443  0.5678 -0.0321 -0.9884
  922MOL0     C21615  11.601   6.562   3.579 -0.5537  0.4411 -0.8617
  922MOL0    Cl21616  11.450   6.478   3.568 -0.7506  0.4567 -0.0777
  922MOL0     C21617  11.913   7.309   2.994 -0.2123  0.3385  0.1653
  922MOL0     C21618  11.838   7.356   2.893 -0.9836 -0.0440  0.2694
  922MOL0     O21619  11.558   7.201   2.639 -0.7356 -0.2243 -0.1780
  922MOL0     C21620  11.535   7.314   2.377 -0.2885  0.4821 -0.5301
  922MOL0     C21621  11.540   7.376   2.254 -0.4971  0.1756  1.2269
  922MOL0     N21622  11.320   7.906   1.782  0.1387 -0.4781  0.0216
  922MOL0     N21623  11.199   7.908   1.800  0.6344  0.1237 -0.2759
  922MOL0     C21624   9.997   7.659   1.501 -0.1941  0.1130  0.5531
  922MOL0     C21625   9.871   7.696   1.546  0.1874  0.7560  0.5847
  922MOL0     C21626   9.514   7.789   1.751 -0.7104  0.3487  0.0893
  922MOL0     C21627   9.390   7.728   1.720  0.1512 -0.2730 -1.3414
  922MOL0     C21628   9.273   7.785   1.765  0.6972 -0.2009 -0.5457
  922MOL0     C21629   9.271   7.911   1.837  0.3404 -0.0425  0.1911
  922MOL0     O21630   9.151   7.974   1.866  0.0458 -0.0037  0.5347
  922MOL0     C21631   9.121   7.958   2.004  0.4547 -0.0839 -0.3345
  922MOL0     C21632   9.039   8.075   2.047 -0.2239  0.1029  0.2864
  922MOL0     C21633   9.113   8.205   2.068  0.7710  0.2942 -0.2109
  922MOL0     C21634   9.023   8.306   2.141 -0.4726 -0.0983  0.6739
  922MOL0     C21635   9.088   8.436   2.142  0.2031  0.0125  0.4500
  922MOL0     C21636   9.140   8.542   2.132  0.1226  0.0018 -0.0752
  922MOL0     C21637   9.390   7.972   1.865  0.0849 -0.1365  0.3610
  922MOL0     C21638   9.513   7.908   1.825  0.7841 -0.8009 -0.4149
  922MOL0     H21639   9.990   7.828   1.840 -0.1190  0.4995 -0.5018
  922MOL0     H21640  10.196   7.773   1.752  2.7092 -2.7800 -1.9350
  922MOL0     H21641  10.351   7.769   1.591 -3.0840 -0.8067  0.1060
  922MOL0     H21642  10.413   7.724   1.435  0.5711  0.1308  0.7325
  922MOL0     H21643  10.411   7.483   1.537 -2.1199  0.7564 -0.6131
  922MOL0     H21644  10.372   7.563   1.689  3.1589 -1.0215  1.3695
  922MOL0     H21645  10.575   7.711   1.696  0.6083  1.3373  0.1686
  922MOL0     H21646  10.622   7.628   1.534 -1.4003  0.5116  0.5329
  922MOL0     H21647  10.600   7.532   1.810  1.3451  1.9534  0.1508
  922MOL0     H21648  10.620   7.421   1.660 -0.2341 -0.8597  1.0131
  922MOL0     H21649  10.829   7.545   1.611  1.0942 -0.2374 -0.8304
  922MOL0     H21650  10.843   7.446   1.752 -0.1144  1.7255  1.9668
  922MOL0     H21651  10.792   7.614   1.907  2.2891 -1.8025  0.9808
  922MOL0     H21652  10.789   7.739   1.774  2.1864  0.1214  0.2343
  922MOL0     H21653  11.023   7.550   1.816 -1.1096 -2.5024 -4.7618
  922MOL0     H21654  11.013   7.671   1.691 -1.0272  1.2144  0.4051
  922MOL0     H21655  11.026   7.698   2.003 -0.1043  0.6758  1.2237
  922MOL0     H21656  10.961   7.825   1.907 -1.4599 -2.0026  0.5977
  922MOL0     H21657  11.257   7.653   1.988 -1.0731 -0.9405 -0.5507
  922MOL0     H21658  11.571   7.860   1.844  0.7110 -1.0218 -0.3038
  922MOL0     H21659  11.551   7.686   1.853  3.5714  0.0257  2.3209
  922MOL0     H21660  11.486   7.709   2.105  3.1133  0.6232  3.2571
  922MOL0     H21661  11.516   7.881   2.081  1.3887  0.8575 -0.8067
  922MOL0     H21662  11.740   7.829   2.007 -0.4217 -1.4883 -0.9644
  922MOL0     H21663  11.714   7.797   2.174  0.8363  1.5286  0.5976
  922MOL0     H21664  11.846   7.619   2.105  0.6571 -1.6746 -0.8213
  922MOL0     H21665  11.775   7.612   1.946  1.2002 -2.4687  0.9495
  922MOL0     H21666  11.798   7.598   2.316 -0.5441  0.9147 -2.3613
  922MOL0     H21667  11.774   7.498   2.527 -2.1975 -1.7118  2.2960
  922MOL0     H21668  11.766   7.059   2.738  0.2985 -0.7851  1.0065
  922MOL0     H21669  11.903   6.973   2.914  0.1349  0.7010 -0.9957
  922MOL0     H21670  11.926   6.926   3.124  0.8341 -0.9622  0.3973
  922MOL0     H21671  11.868   7.059   3.240  0.6066  0.4937  0.6687
  922MOL0     H21672  12.096   7.043   3.339 -1.5294  0.6877  0.3434
  922MOL0     H21673  12.143   6.916   3.229 -0.7067 -2.5864  1.8164
  922MOL0     H21674  11.909   6.887   3.400  0.1905 -1.9298  1.4268
  922MOL0     H21675  12.073   6.844   3.443  2.0357  2.5041 -1.9835
  922MOL0     H21676  12.026   6.729   3.191  3.4847  1.3033  0.8463
  922MOL0     H21677  12.064   6.644   3.349 -2.7495  0.2741  2.6604
  922MOL0     H21678  11.873   6.545   3.255 -1.7843  1.0900 -3.3657
  922MOL0     H21679  11.780   6.694   3.243 -2.7952 -1.3698  1.6701
  922MOL0     H21680  11.768   6.744   3.471  1.3597  0.6672 -1.5731
  922MOL0     H21681  11.872   6.605   3.510  0.4488 -0.0010  0.2654
  922MOL0     H21682  11.585   6.592   3.373 -2.2573  0.8740  2.3206
  922MOL0     H21683  11.686   6.455   3.415  0.8974  0.5510 -3.0866
  922MOL0     H21684  11.587   6.660   3.626  0.9120 -0.9046  2.7247
  922MOL0     H21685  11.676   6.511   3.640 -1.7211  0.8397  1.0033
  922MOL0     H21686  11.973   7.378   3.052  1.4775  0.6840 -1.8587
  922MOL0     H21687  11.826   7.462   2.873  1.4076  0.3449  0.6376
  922MOL0     H21688  11.475   7.227   2.399  1.5542 -0.1774  2.5658
  922MOL0     H21689  11.472   7.345   2.175 -1.8587  0.6031  2.1957
  922MOL0     H21690  10.028   7.621   1.403  2.0032 -1.0153  1.5942
  922MOL0     H21691   9.789   7.668   1.481 -1.8741  1.6744  2.6058
  922MOL0     H21692   9.373   7.629   1.679 -2.0625  0.1192 -1.5334
  922MOL0     H21693   9.189   7.719   1.745  0.6789 -0.1231 -0.7334
  922MOL0     H21694   9.215   7.959   2.059  0.0561 -2.0332  0.4694
  922MOL0     H21695   9.066   7.864   2.017 -1.2970  1.1395  2.1167
  922MOL0     H21696   8.951   8.082   1.982  1.0878  3.4010 -1.3959
  922MOL0     H21697   9.001   8.050   2.146 -0.2466  0.9296  0.4867
  922MOL0     H21698   9.147   8.236   1.969 -0.2196  0.2377 -0.5765
  922MOL0     H21699   9.202   8.202   2.132  2.2593  0.0050 -2.1821
  922MOL0     H21700   8.924   8.317   2.097  0.2195 -2.1709 -1.5884
  922MOL0     H21701   9.005   8.268   2.242  1.3016 -1.6499  0.4638
  922MOL0     H21702   9.183   8.640   2.125 -1.6993  0.8397 -0.0783
  922MOL0     H21703   9.399   8.060   1.928 -2.9157  1.0577 -0.6819
  922MOL0     H21704   9.608   7.949   1.858 -0.0079 -0.2896  1.3676
  923MOL0     O21705   8.597   0.158  10.547 -0.0298  0.0926 -0.8654
  923MOL0     C21706   8.700   0.209  10.515 -1.0378  0.2842  0.1430
  923MOL0     O21707   8.816   0.139  10.492  0.3083 -0.2421 -0.4878
  923MOL0     C21708   8.824   0.008  10.517  0.5176  0.2792  0.2067
  923MOL0     C21709   8.911  -0.041  10.618  0.5078  0.1092 -0.0922
  923MOL0     C21710   8.924  -0.190  10.631  0.7590 -0.0243  0.9717
  923MOL0     C21711   8.868  -0.274  10.535 -0.1729 -0.6886 -0.2564
  923MOL0     O21712   8.900  -0.402  10.514  0.4592 -0.4060 -0.0145
  923MOL0     C21713   8.988  -0.471  10.602 -0.2744 -0.6308  0.3287
  923MOL0     C21714   9.009  -0.600  10.530  0.8542 -0.7350  0.5840
  923MOL0     C21715   9.091  -0.699  10.618  0.4794 -0.3508  0.3584
  923MOL0     C21716   9.245  -0.685  10.600 -0.3465 -0.0320  0.1840
  923MOL0     C21717   9.320  -0.794  10.682  0.7875 -1.5590 -1.0394
  923MOL0     C21718   9.297  -0.934  10.620  0.2924 -0.0541  1.5125
  923MOL0     C21719   9.334  -1.046  10.711 -0.3064  0.5196  0.1518
  923MOL0     C21720   9.352  -1.180  10.635 -0.3015 -0.2458  0.6328
  923MOL0     N21721   9.491  -1.188  10.588  0.3814 -0.2373  0.1081
  923MOL0     C21722   9.550  -1.124  10.479  0.2436  0.2711 -1.1111
  923MOL0     C21723   9.675  -1.167  10.490 -0.8406  0.2044  0.1472
  923MOL0     C21724   9.787  -1.133  10.403  0.3334 -0.5522  0.6546
  923MOL0     C21725   9.825  -1.257  10.325  0.3916 -0.0130 -0.2972
  923MOL0     C21726   9.925  -1.210  10.218  0.6187 -0.0039  0.6344
  923MOL0     C21727  10.002  -1.330  10.176  0.0785 -0.6820 -0.1653
  923MOL0     O21728  10.103  -1.291  10.075 -0.0551 -0.2794 -0.2161
  923MOL0     C21729  10.214  -1.367  10.055  0.4841  0.3501 -0.3260
  923MOL0     C21730  10.325  -1.310   9.996 -0.3506  0.2219 -0.8650
  923MOL0     C21731  10.452  -1.388  10.009  0.1144 -0.8510  0.9987
  923MOL0     C21732  10.458  -1.514  10.056  0.0823  0.4131 -0.8673
  923MOL0     C21733  10.584  -1.589  10.070  0.5961 -0.5659  0.0901
  923MOL0     O21734  10.695  -1.538  10.004  1.2359  0.1971 -0.3624
  923MOL0     C21735  10.812  -1.614  10.013  0.0793  0.4815  0.1375
  923MOL0     C21736  10.888  -1.617  10.135  0.8630 -0.2946 -0.5471
  923MOL0     C21737  11.014  -1.685  10.144 -0.1048 -0.1132  0.4280
  923MOL0     C21738  11.055  -1.756  10.035  0.3590  0.5511  0.5668
  923MOL0     O21739  11.176  -1.820  10.023 -0.0083  0.1665  0.1834
  923MOL0     C21740  11.281  -1.787  10.107 -0.2978 -0.6015  0.2366
  923MOL0     C21741  11.409  -1.847  10.067  0.3428 -1.0124 -0.9879
  923MOL0     C21742  11.452  -1.798   9.932 -0.5161  0.8505 -0.4024
  923MOL0     C21743  11.589  -1.850   9.899  0.7159  0.5099 -0.1649
  923MOL0     C21744  11.682  -1.770   9.806  0.1582  0.8211 -0.7215
  923MOL0     C21745  11.664  -1.811   9.659  0.3829 -0.4120 -0.2260
  923MOL0     C21746  11.786  -1.759   9.571  0.6780 -1.2109  0.4811
  923MOL0     C21747  11.742  -1.679   9.442  0.5979  0.0428  0.1385
  923MOL0    Cl21748  11.880  -1.617   9.354 -0.2346 -0.0746  0.6530
  923MOL0     C21749  10.971  -1.761   9.915 -0.7114 -0.0125 -1.2068
  923MOL0     C21750  10.855  -1.689   9.905 -0.6116 -0.0089  0.6254
  923MOL0     O21751  10.583  -1.699  10.131  0.5655 -0.5652  0.1140
  923MOL0     C21752  10.337  -1.574  10.104  0.2918  0.1458  0.1560
  923MOL0     C21753  10.221  -1.498  10.110 -0.2108  0.3580  0.3061
  923MOL0     N21754   9.688  -1.257  10.595 -0.2416 -0.7481  0.1919
  923MOL0     N21755   9.571  -1.272  10.648  0.1217  0.3744  0.2841
  923MOL0     C21756   8.777  -0.223  10.446  0.8911 -1.2417 -0.3877
  923MOL0     C21757   8.757  -0.086  10.434  0.5773 -0.6119 -0.3172
  923MOL0     C21758   8.705   0.359  10.524  0.9386  0.2922 -0.1423
  923MOL0     C21759   8.600   0.436  10.585 -0.6045  0.4540  0.2990
  923MOL0     C21760   8.614   0.575  10.592 -1.0552  0.1381 -1.1167
  923MOL0     C21761   8.723   0.640  10.530  0.3943 -0.2797 -0.0302
  923MOL0     O21762   8.754   0.780  10.537  0.0789  0.1616  0.1744
  923MOL0     C21763   8.676   0.854  10.629  0.3533  0.0850  0.3104
  923MOL0     C21764   8.715   0.999  10.638 -0.0913  0.1086 -0.2490
  923MOL0     C21765   8.704   1.069  10.502  0.0752 -0.2517 -0.5923
  923MOL0     C21766   8.746   1.219  10.531  0.6376 -0.2280  0.4613
  923MOL0     C21767   8.736   1.291  10.405  1.6963 -0.5447 -0.4193
  923MOL0     C21768   8.708   1.374  10.317  0.9442  0.3891  1.0026
  923MOL0     C21769   8.824   0.562  10.468  0.3826 -0.5368 -0.2579
  923MOL0     C21770   8.814   0.424  10.478 -1.6524  0.0184  0.1991
  923MOL0     H21771   8.980   0.030  10.662  1.3080 -1.1363  0.7412
  923MOL0     H21772   8.992  -0.232  10.704  0.6995 -1.8211  0.0425
  923MOL0     H21773   8.933  -0.476  10.696 -0.0304  0.4960  0.5374
  923MOL0     H21774   9.084  -0.419  10.605 -0.1623 -0.8307  0.2299
  923MOL0     H21775   9.069  -0.570  10.443  1.1547  4.5132  2.2317
  923MOL0     H21776   8.903  -0.625  10.516 -0.2788 -0.1908  6.0483
  923MOL0     H21777   9.057  -0.798  10.584  3.6874 -1.8954  1.2777
  923MOL0     H21778   9.067  -0.685  10.723  0.1158  0.9118  0.1303
  923MOL0     H21779   9.279  -0.694  10.496  1.1479 -1.2077  0.7368
  923MOL0     H21780   9.291  -0.591  10.632  1.7611 -1.2838  1.0351
  923MOL0     H21781   9.274  -0.798  10.781  1.1681  1.0894 -0.6841
  923MOL0     H21782   9.427  -0.772  10.687  0.5753  0.3489 -3.4766
  923MOL0     H21783   9.346  -0.942  10.523  0.3132 -0.7982  1.5794
  923MOL0     H21784   9.193  -0.950  10.589  1.6507 -4.1487 -1.7940
  923MOL0     H21785   9.432  -1.012  10.745  1.2029 -1.8023 -1.5609
  923MOL0     H21786   9.269  -1.056  10.798  1.4508  0.2303  1.4965
  923MOL0     H21787   9.284  -1.175  10.550  2.2051  1.7597 -1.4359
  923MOL0     H21788   9.325  -1.268  10.695  0.8156  0.9943  3.1501
  923MOL0     H21789   9.516  -1.047  10.410  0.0756 -1.3316 -2.8860
  923MOL0     H21790   9.871  -1.102  10.467 -1.3046  2.4082  1.5902
  923MOL0     H21791   9.762  -1.050  10.337  3.4963  0.3568  0.3890
  923MOL0     H21792   9.740  -1.302  10.272  1.3325 -0.7834 -1.1823
  923MOL0     H21793   9.872  -1.324  10.397 -1.2255 -0.8075  0.0727
  923MOL0     H21794   9.888  -1.144  10.139 -0.9864  2.8380  3.5025
  923MOL0     H21795  10.006  -1.148  10.259  1.4604  0.8858 -2.1745
  923MOL0     H21796   9.931  -1.395  10.124  0.3776  0.0032 -1.4823
  923MOL0     H21797  10.052  -1.370  10.264 -0.5035  0.6314  0.7979
  923MOL0     H21798  10.308  -1.208   9.962 -1.2745  0.0418 -0.9641
  923MOL0     H21799  10.543  -1.340   9.975 -1.7428  1.3634 -1.2987
  923MOL0     H21800  10.857  -1.562  10.224  3.4234 -1.8203  1.4296
  923MOL0     H21801  11.074  -1.691  10.234 -2.1371  1.4745  2.0236
  923MOL0     H21802  11.256  -1.809  10.211  0.0745 -4.2682 -0.3129
  923MOL0     H21803  11.283  -1.679  10.092 -2.8621 -0.3143  1.4061
  923MOL0     H21804  11.406  -1.956  10.066  0.3854 -1.0637 -3.9333
  923MOL0     H21805  11.471  -1.802  10.145 -3.0153  4.5609 -0.9702
  923MOL0     H21806  11.470  -1.690   9.936  2.6600  0.4271 -0.0831
  923MOL0     H21807  11.368  -1.814   9.865 -2.5476  1.6549  1.8219
  923MOL0     H21808  11.648  -1.858   9.991 -0.6537 -2.7785  0.5559
  923MOL0     H21809  11.570  -1.954   9.869 -2.0736 -0.4396  4.0745
  923MOL0     H21810  11.786  -1.784   9.837 -0.3637  0.5297  0.9857
  923MOL0     H21811  11.661  -1.665   9.832  0.2577  1.1588 -1.9384
  923MOL0     H21812  11.573  -1.761   9.624  0.9705  2.4540  1.9483
  923MOL0     H21813  11.656  -1.920   9.648  1.5752 -0.4051 -1.3365
  923MOL0     H21814  11.859  -1.694   9.620  2.7526 -3.4383  0.4892
  923MOL0     H21815  11.853  -1.841   9.544  0.1533 -1.6692  0.5493
  923MOL0     H21816  11.679  -1.593   9.465  2.9391  1.0991  3.2123
  923MOL0     H21817  11.677  -1.747   9.385 -0.0595  0.6404  0.1655
  923MOL0     H21818  11.014  -1.821   9.836  0.5909  0.0298 -0.5556
  923MOL0     H21819  10.792  -1.698   9.816  1.0379  1.5767 -0.7960
  923MOL0     H21820  10.331  -1.670  10.154  2.5545  1.3579  3.0592
  923MOL0     H21821  10.142  -1.546  10.166 -2.7672  0.3406 -2.9783
  923MOL0     H21822   8.732  -0.290  10.373  1.3648  0.1015 -1.9659
  923MOL0     H21823   8.683  -0.049  10.364  2.5607  2.5142 -0.9111
  923MOL0     H21824   8.510   0.383  10.616 -0.1670 -1.8822 -2.0289
  923MOL0     H21825   8.531   0.630  10.636 -2.3338 -3.2043  1.0303
  923MOL0     H21826   8.697   0.801  10.723  0.3496  0.6443  0.6263
  923MOL0     H21827   8.572   0.840  10.597  0.6107 -0.6859 -0.2215
  923MOL0     H21828   8.636   1.046  10.696 -0.3553 -0.4324 -0.1636
  923MOL0     H21829   8.817   1.005  10.678  2.0385 -1.4308 -4.7106
  923MOL0     H21830   8.599   1.060  10.470 -0.9661  2.3035  1.6874
  923MOL0     H21831   8.785   1.032  10.439  1.5236 -0.1640  1.1564
  923MOL0     H21832   8.681   1.255  10.611  0.2809 -0.6995  0.3855
  923MOL0     H21833   8.848   1.229  10.570  1.3084 -3.1231 -0.2457
  923MOL0     H21834   8.674   1.433  10.235 -2.6794  0.0571  2.0757
  923MOL0     H21835   8.911   0.618  10.435 -1.6914  1.9298 -1.9399
  923MOL0     H21836   8.901   0.364  10.450 -1.7342 -0.7036  1.4465
  924MOL0     O21837   8.597   8.756   8.195  0.2768 -0.0300 -0.3792
  924MOL0     C21838   8.647   8.864   8.227 -0.4817  0.0155 -0.9764
  924MOL0     O21839   8.581   8.966   8.298  0.9564 -0.6495 -0.0460
  924MOL0     C21840   8.442   8.967   8.303  0.1845  0.1614  0.2971
  924MOL0     C21841   8.380   8.915   8.411 -0.1737  0.0396  0.2938
  924MOL0     C21842   8.242   8.912   8.410  0.1065 -0.3525 -0.3612
  924MOL0     C21843   8.168   8.953   8.303  0.3135  0.5371 -0.1132
  924MOL0     O21844   8.035   8.922   8.319  0.4584  1.0303 -0.3663
  924MOL0     C21845   7.946   8.940   8.209 -0.0704  0.4676  0.1254
  924MOL0     C21846   7.900   9.078   8.193  0.0517 -0.2287 -0.4143
  924MOL0     C21847   7.791   9.092   8.096 -0.4818 -0.1255 -0.4778
  924MOL0     C21848   7.744   9.243   8.104 -0.6213 -0.2515  0.0957
  924MOL0     C21849   7.633   9.291   8.005 -0.3480 -0.2847 -0.0160
  924MOL0     C21850   7.546   9.176   7.960  0.6391 -0.4953  0.0301
  924MOL0     C21851   7.411   9.225   7.906 -0.3713  0.0711 -0.1356
  924MOL0     C21852   7.298   9.218   8.018 -1.1917 -0.7424 -0.8868
  924MOL0     N21853   7.158   9.244   7.983  0.5538 -0.0855  0.5938
  924MOL0     C21854   7.093   9.217   7.868  0.4788 -0.7401 -0.2067
  924MOL0     C21855   6.971   9.269   7.895  0.3461 -0.2680  0.6095
  924MOL0     C21856   6.856   9.262   7.802  0.5262 -0.7178  0.6184
  924MOL0     C21857   6.801   9.398   7.768 -0.1600 -1.2515  0.4494
  924MOL0     C21858   6.657   9.397   7.720 -0.0556 -1.1551  0.6990
  924MOL0     C21859   6.597   9.534   7.676  0.0792 -0.3812  0.7448
  924MOL0     O21860   6.454   9.542   7.696 -0.6260  0.3091  0.2343
  924MOL0     C21861   6.392   9.656   7.662  0.4894  0.4539  0.2082
  924MOL0     C21862   6.258   9.648   7.654  0.5858  0.3066 -0.1986
  924MOL0     C21863   6.183   9.762   7.607  0.3701  0.7478 -0.0313
  924MOL0     C21864   6.247   9.889   7.575 -0.1972  0.4482 -0.7727
  924MOL0     C21865   6.169  10.004   7.531 -0.6118 -0.4581  0.4731
  924MOL0     O21866   6.032   9.981   7.514 -0.9289 -0.0046 -0.4816
  924MOL0     C21867   5.949  10.078   7.469 -0.4289 -0.2783 -0.0210
  924MOL0     C21868   5.831  10.092   7.542 -0.2454  0.0223 -0.8660
  924MOL0     C21869   5.735  10.179   7.512  0.0147 -0.4075 -0.4648
  924MOL0     C21870   5.740  10.246   7.386  0.4175  0.9284 -0.7188
  924MOL0     O21871   5.629  10.309   7.330 -0.2381 -0.0114 -0.0112
  924MOL0     C21872   5.502  10.300   7.389  0.0872 -0.2886 -0.3577
  924MOL0     C21873   5.403  10.390   7.302 -0.1486  0.1709 -0.1844
  924MOL0     C21874   5.252  10.378   7.348  0.2031  0.5071  0.5858
  924MOL0     C21875   5.163  10.474   7.276  0.2541 -0.0251  0.6243
  924MOL0     C21876   5.016  10.490   7.335 -0.4466 -0.0960  0.3335
  924MOL0     C21877   5.027  10.610   7.428  0.7928 -0.6437 -0.1358
  924MOL0     C21878   4.899  10.643   7.491  0.4883  0.7469  0.2743
  924MOL0     C21879   4.789  10.689   7.386  0.1762 -0.0893 -1.3411
  924MOL0    Cl21880   4.845  10.832   7.289 -0.0474 -0.4249  0.4868
  924MOL0     C21881   5.861  10.243   7.321 -0.2240 -1.0468 -0.0144
  924MOL0     C21882   5.971  10.162   7.363  0.2892 -0.8944  0.0850
  924MOL0     O21883   6.223  10.112   7.528  0.0867  0.4432  0.5981
  924MOL0     C21884   6.387   9.895   7.594  0.1245  0.6135  0.5395
  924MOL0     C21885   6.460   9.781   7.628 -0.0131  0.6208 -0.0917
  924MOL0     N21886   6.962   9.329   8.023 -0.7864  0.1088  1.0011
  924MOL0     N21887   7.075   9.295   8.076  0.1799 -0.2895 -0.6726
  924MOL0     C21888   8.227   9.015   8.189 -1.0109 -0.4747  0.6164
  924MOL0     C21889   8.367   9.016   8.194  0.3488  0.1156  0.4163
  924MOL0     C21890   8.792   8.879   8.209  0.6860 -0.5006 -0.2416
  924MOL0     C21891   8.857   9.007   8.225  0.1368  0.8408 -0.0461
  924MOL0     C21892   8.998   9.008   8.210 -0.2868  0.0930 -0.0674
  924MOL0     C21893   9.071   8.898   8.163 -0.6624 -0.4325  0.4200
  924MOL0     O21894   9.205   8.885   8.141  0.3439 -0.1406  0.8340
  924MOL0     C21895   9.293   8.989   8.175  0.5010 -0.5999  0.4282
  924MOL0     C21896   9.442   8.948   8.165 -0.0162 -0.2455  1.3234
  924MOL0     C21897   9.485   8.913   8.016  0.0866 -0.6890  0.7372
  924MOL0     C21898   9.634   8.931   7.978  0.0959  0.3282 -0.2827
  924MOL0     C21899   9.681   9.069   7.970  0.1544  0.4609  0.4384
  924MOL0     C21900   9.729   9.182   7.953  1.0348 -1.0954 -0.2075
  924MOL0     C21901   9.001   8.776   8.153  0.0819  0.3323 -0.3901
  924MOL0     C21902   8.865   8.768   8.172 -0.7663 -0.2729 -0.0514
  924MOL0     H21903   8.432   8.877   8.499 -1.9524 -1.2256  0.8550
  924MOL0     H21904   8.190   8.872   8.496 -1.8084  2.0905 -0.3020
  924MOL0     H21905   7.858   8.878   8.232  1.0269 -0.6985  1.3684
  924MOL0     H21906   7.980   8.895   8.115 -1.4474 -1.1456  0.3338
  924MOL0     H21907   7.986   9.140   8.167 -1.4949  1.7433 -1.0385
  924MOL0     H21908   7.871   9.116   8.291  3.5248 -1.3297  1.1852
  924MOL0     H21909   7.704   9.034   8.129  0.5367 -0.3185  2.1489
  924MOL0     H21910   7.807   9.076   7.989  0.7762  0.3167 -0.3690
  924MOL0     H21911   7.709   9.262   8.206  0.8121  0.7555  0.4288
  924MOL0     H21912   7.835   9.302   8.090  0.7841 -1.9180  1.7044
  924MOL0     H21913   7.680   9.330   7.914 -1.6431  1.8634  0.1819
  924MOL0     H21914   7.572   9.367   8.054  1.9698  1.1044  0.8457
  924MOL0     H21915   7.521   9.108   8.042 -1.3507  0.2358  0.0821
  924MOL0     H21916   7.599   9.131   7.876 -1.0481 -1.5971 -0.4837
  924MOL0     H21917   7.408   9.331   7.880 -0.9272 -0.0588 -0.6467
  924MOL0     H21918   7.376   9.165   7.821 -0.3261 -1.6015  0.9715
  924MOL0     H21919   7.327   9.295   8.089  0.3908 -1.2035 -0.9719
  924MOL0     H21920   7.299   9.120   8.066 -2.3698 -0.8571 -1.0685
  924MOL0     H21921   7.130   9.186   7.770  1.6306  0.2455 -0.1119
  924MOL0     H21922   6.771   9.205   7.840 -0.5211  1.0602  1.0524
  924MOL0     H21923   6.895   9.216   7.711  1.6258 -1.2386  1.3260
  924MOL0     H21924   6.869   9.442   7.695  0.3529 -1.3760  0.8457
  924MOL0     H21925   6.798   9.456   7.860  1.5735 -1.8364  0.9082
  924MOL0     H21926   6.645   9.322   7.641 -1.9559  0.5248 -0.6976
  924MOL0     H21927   6.591   9.368   7.803  0.1331  0.8260  1.5963
  924MOL0     H21928   6.628   9.572   7.578  1.4905  0.1717  1.3705
  924MOL0     H21929   6.626   9.600   7.759  2.8734 -0.8889  0.2916
  924MOL0     H21930   6.212   9.550   7.668  0.4391  0.2169 -1.2607
  924MOL0     H21931   6.078   9.744   7.588  0.2369  0.7580  0.6602
  924MOL0     H21932   5.816  10.024   7.625  3.9884  2.0943  1.9760
  924MOL0     H21933   5.648  10.185   7.576  1.5124 -0.2852  1.6499
  924MOL0     H21934   5.495  10.331   7.494 -0.1434  1.1742 -0.7715
  924MOL0     H21935   5.474  10.195   7.392  1.3911 -0.7939 -2.8132
  924MOL0     H21936   5.404  10.358   7.197  2.3106 -1.0021  0.1056
  924MOL0     H21937   5.432  10.496   7.304  1.7583 -0.3213  0.3882
  924MOL0     H21938   5.241  10.403   7.454 -0.5644 -0.8945  0.8601
  924MOL0     H21939   5.226  10.276   7.317 -0.2312  0.9785 -0.6765
  924MOL0     H21940   5.206  10.575   7.267 -1.2111  0.5174 -0.9317
  924MOL0     H21941   5.168  10.445   7.170  3.8499  0.6113  0.4990
  924MOL0     H21942   4.990  10.399   7.391 -0.8269 -0.5973 -0.6383
  924MOL0     H21943   4.948  10.502   7.250 -1.3913 -1.7554  0.8121
  924MOL0     H21944   5.053  10.699   7.369 -0.6077 -0.6232 -0.7808
  924MOL0     H21945   5.094  10.604   7.513  0.7703 -0.8477 -0.1319
  924MOL0     H21946   4.862  10.552   7.541 -0.0822 -1.2302 -3.4193
  924MOL0     H21947   4.923  10.721   7.564  1.2042  1.4031 -0.6502
  924MOL0     H21948   4.713  10.734   7.451  2.9343  1.0552  1.3039
  924MOL0     H21949   4.741  10.613   7.324 -4.1896  2.4394 -1.5087
  924MOL0     H21950   5.874  10.307   7.235 -1.3177  0.3354  0.8017
  924MOL0     H21951   6.062  10.154   7.303  0.7081  1.6996  0.2829
  924MOL0     H21952   6.441   9.986   7.573  3.3820 -1.3643 -0.2086
  924MOL0     H21953   6.568   9.785   7.635  0.3366 -3.2268 -0.8872
  924MOL0     H21954   8.171   9.050   8.103 -2.1717 -5.1376 -0.8427
  924MOL0     H21955   8.409   9.058   8.103 -3.0101 -0.7453 -1.7357
  924MOL0     H21956   8.800   9.094   8.258  0.7268  0.7634  1.2251
  924MOL0     H21957   9.041   9.106   8.226  0.0702 -0.1695  0.6157
  924MOL0     H21958   9.274   9.026   8.277  0.6616 -1.0637  0.6292
  924MOL0     H21959   9.274   9.069   8.104 -2.1350 -2.4747 -1.1303
  924MOL0     H21960   9.507   9.031   8.195  2.1187 -0.2782 -2.5118
  924MOL0     H21961   9.462   8.873   8.242  1.0966  0.0129  1.2940
  924MOL0     H21962   9.424   8.958   7.938  1.0358 -1.6019 -0.5702
  924MOL0     H21963   9.462   8.806   8.005  0.0073 -0.7500  1.4484
  924MOL0     H21964   9.692   8.869   8.047  0.6021 -0.4108 -1.3525
  924MOL0     H21965   9.642   8.887   7.879 -1.9357 -0.2185 -0.2393
  924MOL0     H21966   9.757   9.283   7.929 -1.3298 -0.9778 -3.0056
  924MOL0     H21967   9.056   8.689   8.115 -0.8081  0.2791 -1.6244
  924MOL0     H21968   8.820   8.669   8.175 -0.5238 -0.3878 -0.1247
  925MOL0     O21969   3.906   2.620   1.767 -0.7634  0.3858  0.4383
  925MOL0     C21970   3.866   2.737   1.757 -0.4771  0.1324 -0.0653
  925MOL0     O21971   3.930   2.845   1.803  0.1598  0.6401  0.7961
  925MOL0     C21972   4.053   2.825   1.863 -0.0699 -0.3457  0.6137
  925MOL0     C21973   4.170   2.848   1.790 -0.2761  0.4745 -0.1050
  925MOL0     C21974   4.294   2.832   1.856 -0.0483 -0.0728  0.3898
  925MOL0     C21975   4.293   2.781   1.985 -0.7625 -0.6440 -0.0677
  925MOL0     O21976   4.409   2.745   2.052  0.1160 -0.2826  0.5099
  925MOL0     C21977   4.528   2.807   2.027  0.5800 -0.1106  0.8584
  925MOL0     C21978   4.644   2.759   2.112  0.1637 -0.5681 -0.4500
  925MOL0     C21979   4.781   2.830   2.098  0.2440 -1.2291  1.1964
  925MOL0     C21980   4.884   2.741   2.171  0.4321  0.9819 -0.3571
  925MOL0     C21981   5.007   2.816   2.209  0.1756 -0.2127 -0.3839
  925MOL0     C21982   5.118   2.724   2.272 -0.2152 -0.5813 -0.3550
  925MOL0     C21983   5.232   2.796   2.335  0.0319 -0.1515 -0.3035
  925MOL0     C21984   5.199   2.925   2.414 -0.7272 -1.0578  0.7356
  925MOL0     N21985   5.117   2.886   2.522  0.0862 -0.8305 -0.1165
  925MOL0     C21986   4.982   2.906   2.552 -1.1328 -0.5386  0.0109
  925MOL0     C21987   4.979   2.863   2.682 -0.2458 -1.6623 -0.2145
  925MOL0     C21988   4.859   2.879   2.772  0.0451  0.2899  0.3265
  925MOL0     C21989   4.783   2.742   2.770 -0.3538  0.5607  0.0187
  925MOL0     C21990   4.744   2.679   2.637  0.1220 -0.7792  0.6594
  925MOL0     C21991   4.636   2.760   2.567 -0.3814  0.9372 -0.8914
  925MOL0     O21992   4.515   2.758   2.651 -0.6534  0.9596 -0.3062
  925MOL0     C21993   4.408   2.823   2.596  0.6699  0.1165 -0.3479
  925MOL0     C21994   4.387   2.870   2.466  0.0037 -0.2282 -0.4588
  925MOL0     C21995   4.263   2.929   2.418 -0.6584 -1.5480  1.2829
  925MOL0     C21996   4.159   2.935   2.510  0.5035 -0.1219  0.2529
  925MOL0     C21997   4.035   2.994   2.470  0.9575  0.1729 -0.7320
  925MOL0     O21998   4.027   3.067   2.356 -0.0469 -0.6739 -0.2916
  925MOL0     C21999   3.909   3.105   2.296 -0.3344 -0.1699  0.3116
  925MOL0     C22000   3.771   3.095   2.346 -0.3368  0.2427 -0.4537
  925MOL0     C22001   3.659   3.124   2.267 -0.2935 -0.2916  0.5051
  925MOL0     C22002   3.668   3.186   2.140 -0.2648  0.2911 -0.0879
  925MOL0     O22003   3.554   3.212   2.063  0.2854 -0.2162 -0.3412
  925MOL0     C22004   3.560   3.323   1.967  0.3145 -0.4716  0.0418
  925MOL0     C22005   3.433   3.344   1.884 -0.6213 -0.1757 -1.1177
  925MOL0     C22006   3.409   3.227   1.784 -0.5423 -0.3180 -0.9535
  925MOL0     C22007   3.278   3.229   1.718  0.0168 -0.2808  0.3605
  925MOL0     C22008   3.242   3.370   1.651  0.8632  0.7385  0.0021
  925MOL0     C22009   3.107   3.351   1.584 -0.2385 -0.7101 -0.9606
  925MOL0     C22010   3.056   3.473   1.508 -0.1842 -0.5914  0.7836
  925MOL0     C22011   2.915   3.443   1.467  1.0462  0.0186  0.3042
  925MOL0    Cl22012   2.900   3.275   1.404 -0.1127  0.1934  0.6046
  925MOL0     C22013   3.795   3.195   2.082  0.7985 -0.0569  0.3412
  925MOL0     C22014   3.912   3.154   2.163 -0.2138  0.5101 -0.5457
  925MOL0     O22015   3.945   2.957   2.537  0.1826 -0.4963 -0.2032
  925MOL0     C22016   4.179   2.890   2.638  0.6113 -0.7973 -0.2600
  925MOL0     C22017   4.297   2.841   2.677  0.2415  0.1597 -0.0560
  925MOL0     N22018   5.107   2.821   2.722  0.6274 -0.0346 -0.4520
  925MOL0     N22019   5.190   2.847   2.631  0.0265  0.0492  0.2647
  925MOL0     C22020   4.181   2.760   2.056 -0.4837 -0.7806  0.1416
  925MOL0     C22021   4.054   2.793   2.000  0.1555  0.3157  0.3086
  925MOL0     C22022   3.734   2.762   1.696 -0.5171 -0.3035 -0.3488
  925MOL0     C22023   3.651   2.866   1.740 -0.1905  0.2838  0.0822
  925MOL0     C22024   3.520   2.881   1.694  0.0797  0.2577  0.2529
  925MOL0     C22025   3.466   2.799   1.585  0.2433  1.1458  0.5562
  925MOL0     O22026   3.347   2.799   1.512 -0.3225  0.5697 -0.1250
  925MOL0     C22027   3.236   2.803   1.607  0.8257  0.8854  0.0627
  925MOL0     C22028   3.096   2.793   1.542  0.7940 -0.4448 -0.1075
  925MOL0     C22029   3.086   2.676   1.448  0.5271  0.5857  0.5243
  925MOL0     C22030   3.092   2.534   1.506  1.1168  0.0743 -0.7489
  925MOL0     C22031   3.000   2.519   1.621  0.6495 -0.1542 -0.3727
  925MOL0     C22032   2.935   2.493   1.716 -1.1146  0.0736 -0.7024
  925MOL0     C22033   3.549   2.696   1.547 -0.5804  0.0632  0.1891
  925MOL0     C22034   3.682   2.682   1.597  0.7580 -0.3612 -0.3276
  925MOL0     H22035   4.170   2.886   1.688 -1.0991 -0.6051 -0.5262
  925MOL0     H22036   4.385   2.866   1.807 -1.0302 -0.4513 -1.7874
  925MOL0     H22037   4.523   2.916   2.017  4.6445 -0.0084 -3.4447
  925MOL0     H22038   4.559   2.777   1.927 -1.4198 -2.4638  0.8643
  925MOL0     H22039   4.653   2.652   2.093 -0.9459 -0.7241 -0.1837
  925MOL0     H22040   4.605   2.770   2.214 -0.8199  4.9827 -1.1172
  925MOL0     H22041   4.778   2.934   2.133  2.3902 -0.4021 -0.7676
  925MOL0     H22042   4.800   2.832   1.990 -0.9566 -1.9509  0.9581
  925MOL0     H22043   4.835   2.706   2.262  0.1186  0.0209 -0.8802
  925MOL0     H22044   4.905   2.653   2.109 -1.7240 -2.0792  2.9088
  925MOL0     H22045   4.961   2.878   2.286 -2.1734 -1.0737 -1.0310
  925MOL0     H22046   5.047   2.878   2.127 -2.0411  0.7741 -0.7833
  925MOL0     H22047   5.141   2.662   2.186 -1.2289  1.8408 -2.5085
  925MOL0     H22048   5.064   2.670   2.351 -2.6926  1.6333 -0.3885
  925MOL0     H22049   5.290   2.726   2.396  1.6795 -0.7069 -2.4012
  925MOL0     H22050   5.301   2.818   2.253  0.3248 -1.3488 -0.3977
  925MOL0     H22051   5.149   2.998   2.349 -0.8172 -0.1347  1.8035
  925MOL0     H22052   5.297   2.960   2.448 -0.9930 -2.0962  2.7274
  925MOL0     H22053   4.896   2.946   2.498 -1.1951  2.9934  2.4138
  925MOL0     H22054   4.800   2.958   2.725 -1.5949 -1.4667 -0.7369
  925MOL0     H22055   4.878   2.902   2.877  2.5090 -0.8063  0.1644
  925MOL0     H22056   4.687   2.745   2.823  0.7110 -3.6567  2.6719
  925MOL0     H22057   4.837   2.664   2.824 -0.7219  0.5703  0.4092
  925MOL0     H22058   4.837   2.662   2.582 -1.2727 -0.5584 -1.9166
  925MOL0     H22059   4.704   2.578   2.647 -2.1274  0.2011  2.4162
  925MOL0     H22060   4.620   2.735   2.461 -0.6442  0.4428 -0.7364
  925MOL0     H22061   4.674   2.863   2.562  1.9488  0.2992  1.4126
  925MOL0     H22062   4.472   2.874   2.398 -0.3091 -2.3425 -1.0379
  925MOL0     H22063   4.249   2.974   2.321  1.1379  1.2156  2.1935
  925MOL0     H22064   3.744   3.045   2.438 -2.5126  0.0267 -1.1601
  925MOL0     H22065   3.559   3.108   2.306 -1.1426 -1.6731 -2.0443
  925MOL0     H22066   3.644   3.318   1.896 -0.6156 -1.2733 -1.0311
  925MOL0     H22067   3.572   3.415   2.025 -3.6615  0.8153 -0.8665
  925MOL0     H22068   3.447   3.438   1.831  1.7318  0.1484 -0.0307
  925MOL0     H22069   3.354   3.350   1.959  0.7453 -2.0175  0.5811
  925MOL0     H22070   3.400   3.128   1.829 -0.4891 -0.3719 -1.0621
  925MOL0     H22071   3.489   3.219   1.710 -0.2147 -4.5975 -0.3429
  925MOL0     H22072   3.299   3.154   1.641  4.4874 -0.7388  1.7571
  925MOL0     H22073   3.197   3.192   1.781 -1.4733 -2.5655 -2.6254
  925MOL0     H22074   3.320   3.385   1.575 -0.5835 -2.5322 -2.3870
  925MOL0     H22075   3.237   3.449   1.726  3.9136 -1.8996  3.3658
  925MOL0     H22076   3.044   3.336   1.672 -2.0504  1.5482 -1.7594
  925MOL0     H22077   3.128   3.267   1.518 -1.2767 -2.4697  0.8370
  925MOL0     H22078   3.048   3.559   1.575 -2.2305 -0.0066 -0.1299
  925MOL0     H22079   3.107   3.500   1.416 -0.3437 -2.0872  0.2299
  925MOL0     H22080   2.873   3.514   1.395  1.0325 -0.7623 -0.4855
  925MOL0     H22081   2.857   3.440   1.559 -1.7572  0.2750 -1.3465
  925MOL0     H22082   3.818   3.227   1.981  2.9186 -1.3444  0.3505
  925MOL0     H22083   4.010   3.163   2.117 -1.0208  0.1479 -2.4418
  925MOL0     H22084   4.093   2.893   2.704  0.2560  3.3493 -0.6593
  925MOL0     H22085   4.293   2.818   2.783 -0.0893 -1.3452 -0.3617
  925MOL0     H22086   4.187   2.724   2.158  2.1543 -1.9301 -0.3405
  925MOL0     H22087   3.961   2.772   2.052 -0.2676  2.1815  0.3935
  925MOL0     H22088   3.672   2.944   1.813  0.0290  0.7217 -0.4418
  925MOL0     H22089   3.457   2.966   1.720  1.2266  0.9404  0.8822
  925MOL0     H22090   3.251   2.895   1.664  2.2519  1.1004 -0.6061
  925MOL0     H22091   3.250   2.721   1.678 -0.9399 -0.7780 -1.3700
  925MOL0     H22092   3.021   2.783   1.621 -0.2397  1.5045 -0.7698
  925MOL0     H22093   3.077   2.889   1.492  1.0897 -0.3197  0.0212
  925MOL0     H22094   3.166   2.684   1.374 -0.8658 -1.2686 -1.2843
  925MOL0     H22095   2.989   2.683   1.399  1.7997  1.0605 -2.0999
  925MOL0     H22096   3.063   2.465   1.426  2.3369 -0.4091 -0.7987
  925MOL0     H22097   3.193   2.504   1.533  0.0932 -2.4358  0.5403
  925MOL0     H22098   2.877   2.464   1.801 -0.7044  0.7883 -0.1643
  925MOL0     H22099   3.510   2.623   1.477 -0.8153 -2.2374  2.5640
  925MOL0     H22100   3.746   2.605   1.555  2.3542  0.2480  0.9006
  926MOL0     O22101   1.894   2.283   4.202  0.0772 -0.1432  1.2241
  926MOL0     C22102   1.976   2.345   4.123  0.2114  1.0469  0.7711
  926MOL0     O22103   1.953   2.422   4.014  0.4702 -0.1100 -0.5452
  926MOL0     C22104   1.823   2.445   3.974  0.3108 -0.7025 -0.0265
  926MOL0     C22105   1.733   2.348   3.914  0.0499  0.3042 -0.2183
  926MOL0     C22106   1.597   2.379   3.885 -0.4742 -0.1713 -0.3493
  926MOL0     C22107   1.554   2.511   3.917 -0.3900 -0.4463 -0.6035
  926MOL0     O22108   1.425   2.548   3.885  0.2143 -0.1751 -0.1181
  926MOL0     C22109   1.354   2.675   3.906  0.0908 -0.4031 -0.0014
  926MOL0     C22110   1.204   2.643   3.900  0.1964 -0.4462 -0.2218
  926MOL0     C22111   1.153   2.593   3.766  0.0156  0.0060 -0.5069
  926MOL0     C22112   1.006   2.562   3.772  0.6520  0.9289  0.1324
  926MOL0     C22113   0.937   2.501   3.654  0.2449 -0.8624 -0.1136
  926MOL0     C22114   0.926   2.588   3.528  0.8358 -0.0157 -1.0547
  926MOL0     C22115   0.817   2.693   3.543  0.9194 -0.6606 -0.0841
  926MOL0     C22116   0.803   2.789   3.425  0.1852  0.7572  0.0142
  926MOL0     N22117   0.713   2.900   3.443  1.3243 -0.3255 -0.1231
  926MOL0     C22118   0.585   2.883   3.503 -0.4949 -0.3994  0.0795
  926MOL0     C22119   0.564   3.009   3.552  0.0824 -0.3036 -0.8947
  926MOL0     C22120   0.430   3.040   3.611  0.5574  0.2679  0.4033
  926MOL0     C22121   0.312   3.052   3.514  1.0434 -0.0354  0.3102
  926MOL0     C22122   0.314   3.180   3.450  0.4185  0.0047 -0.1069
  926MOL0     C22123   0.172   3.220   3.385  0.5925  1.0191 -0.2432
  926MOL0     O22124   0.125   3.120   3.289 -0.1195 -0.6518  0.3434
  926MOL0     C22125   0.011   3.142   3.217 -0.1793 -0.8692  0.5505
  926MOL0     C22126  -0.041   3.271   3.209 -0.7498 -0.5673  0.2485
  926MOL0     C22127  -0.156   3.302   3.133  0.2837 -0.1814  0.0300
  926MOL0     C22128  -0.242   3.195   3.094 -0.1930 -0.3628 -0.2855
  926MOL0     C22129  -0.365   3.228   3.034  0.3349 -0.1671 -0.2276
  926MOL0     O22130  -0.406   3.358   3.043  0.4744 -0.5474 -0.3436
  926MOL0     C22131  -0.528   3.394   2.982 -0.4414  0.0639  0.3932
  926MOL0     C22132  -0.573   3.351   2.852 -0.1813  0.3549  0.1836
  926MOL0     C22133  -0.673   3.417   2.781 -0.3406 -0.2653  0.4350
  926MOL0     C22134  -0.734   3.527   2.838  0.7323  0.8215 -0.7203
  926MOL0     O22135  -0.813   3.605   2.757  0.6544  0.1714  0.1267
  926MOL0     C22136  -0.949   3.608   2.799 -0.7791  0.1093 -0.2655
  926MOL0     C22137  -1.057   3.622   2.693 -0.2485  0.6208  0.5383
  926MOL0     C22138  -1.202   3.623   2.759 -0.6197  0.4175  0.0295
  926MOL0     C22139  -1.311   3.602   2.662 -0.1526 -0.1255 -0.1627
  926MOL0     C22140  -1.339   3.731   2.580 -0.5411 -0.1835  0.2198
  926MOL0     C22141  -1.420   3.694   2.452  0.5813 -0.3933  0.6872
  926MOL0     C22142  -1.498   3.817   2.401  0.3199 -0.5837  0.5667
  926MOL0     C22143  -1.407   3.920   2.342  0.1486  0.5552 -0.1752
  926MOL0    Cl22144  -1.306   3.865   2.203 -0.1346  0.2093  0.1483
  926MOL0     C22145  -0.701   3.563   2.967  0.2893  0.0277  0.0203
  926MOL0     C22146  -0.602   3.503   3.038 -0.1076 -0.6976 -0.0784
  926MOL0     O22147  -0.440   3.143   2.997 -0.2246  0.5133 -0.0128
  926MOL0     C22148  -0.189   3.057   3.099 -0.2419 -0.9390  0.7051
  926MOL0     C22149  -0.060   3.037   3.157 -0.8665 -0.0927 -0.7501
  926MOL0     N22150   0.664   3.096   3.514 -0.1405  0.4631  0.4947
  926MOL0     N22151   0.749   3.027   3.454 -0.3951  0.2267  0.5030
  926MOL0     C22152   1.638   2.607   3.975  0.2380 -0.1155  0.3214
  926MOL0     C22153   1.771   2.571   4.004  0.2136  0.0153  0.6498
  926MOL0     C22154   2.111   2.347   4.169  0.0735 -0.1494 -0.6747
  926MOL0     C22155   2.212   2.410   4.092  0.5013  0.0974  0.0147
  926MOL0     C22156   2.346   2.413   4.130  0.2561 -0.1329 -0.6370
  926MOL0     C22157   2.385   2.350   4.246 -0.5169 -0.2951 -0.1913
  926MOL0     O22158   2.523   2.361   4.276  0.4771 -0.3694 -0.2990
  926MOL0     C22159   2.594   2.290   4.373 -0.0514 -0.2804 -0.3214
  926MOL0     C22160   2.737   2.350   4.378 -0.1203  0.6471  0.9324
  926MOL0     C22161   2.841   2.280   4.466  0.2987 -0.0209  0.3529
  926MOL0     C22162   2.787   2.238   4.609  1.0693 -0.5977  0.2182
  926MOL0     C22163   2.781   2.351   4.698  0.0587 -0.2712 -0.5987
  926MOL0     C22164   2.785   2.445   4.780  0.7810  0.2111 -0.4527
  926MOL0     C22165   2.289   2.278   4.322  0.4683  0.0734 -0.0371
  926MOL0     C22166   2.151   2.280   4.289 -0.7483  1.2928 -0.0339
  926MOL0     H22167   1.771   2.249   3.889 -3.1344 -0.1118 -4.8307
  926MOL0     H22168   1.524   2.311   3.844 -2.0632 -0.7544  3.0733
  926MOL0     H22169   1.371   2.755   3.833 -1.7904  0.5356  0.5294
  926MOL0     H22170   1.372   2.712   4.008  1.0574  1.0105 -0.6502
  926MOL0     H22171   1.147   2.736   3.912 -1.3333 -1.3430 -0.3895
  926MOL0     H22172   1.177   2.589   3.991  0.8740  1.0342  0.8959
  926MOL0     H22173   1.216   2.505   3.746  3.0105  1.5930  1.1296
  926MOL0     H22174   1.169   2.676   3.697  3.2232 -1.5026 -1.7821
  926MOL0     H22175   0.991   2.490   3.852 -1.1140  0.3655 -0.6373
  926MOL0     H22176   0.956   2.656   3.796 -1.9860 -0.1959 -0.5651
  926MOL0     H22177   0.839   2.473   3.693  0.9024 -2.2518  0.6026
  926MOL0     H22178   0.997   2.413   3.629 -0.5788 -1.7901  1.0906
  926MOL0     H22179   0.899   2.526   3.441 -0.9848 -1.2053  0.2843
  926MOL0     H22180   1.021   2.638   3.507 -0.6839  2.8865 -1.5699
  926MOL0     H22181   0.724   2.641   3.565 -0.8036  1.9427 -0.7713
  926MOL0     H22182   0.836   2.755   3.631 -1.6943  1.3515 -0.7924
  926MOL0     H22183   0.772   2.735   3.335 -2.7469  2.7167 -0.2708
  926MOL0     H22184   0.907   2.814   3.403  1.6919 -1.6534  3.3941
  926MOL0     H22185   0.518   2.798   3.494 -1.0097  0.2082 -2.8861
  926MOL0     H22186   0.429   3.110   3.695 -2.3024 -0.7935  1.3633
  926MOL0     H22187   0.408   2.945   3.662 -1.8655 -0.3724 -1.6293
  926MOL0     H22188   0.229   3.064   3.583  0.9759  0.6967  0.1127
  926MOL0     H22189   0.293   2.967   3.447 -0.5487 -0.3181  1.0762
  926MOL0     H22190   0.340   3.263   3.516 -0.7953  2.7218 -2.7820
  926MOL0     H22191   0.392   3.186   3.374  4.0857 -0.2688  3.3395
  926MOL0     H22192   0.189   3.312   3.329  4.0949  0.2539 -0.6818
  926MOL0     H22193   0.100   3.228   3.466  2.5783 -1.2331  1.9296
  926MOL0     H22194   0.003   3.355   3.262 -0.3190 -0.8589  0.3589
  926MOL0     H22195  -0.189   3.404   3.123  0.9065  0.0922  0.6713
  926MOL0     H22196  -0.512   3.281   2.797 -1.5587 -0.9414  0.2359
  926MOL0     H22197  -0.700   3.393   2.679  1.1251 -1.0138  0.2109
  926MOL0     H22198  -0.955   3.695   2.866 -0.8059  1.7553 -2.2784
  926MOL0     H22199  -0.976   3.528   2.868 -1.6360 -0.3273 -1.0760
  926MOL0     H22200  -1.044   3.530   2.636  3.0450  1.4606 -0.2678
  926MOL0     H22201  -1.035   3.703   2.623 -1.6138  1.0539  0.5748
  926MOL0     H22202  -1.213   3.719   2.811  0.4480  0.3142  0.4838
  926MOL0     H22203  -1.216   3.550   2.839  0.5073  0.9379  0.7318
  926MOL0     H22204  -1.277   3.523   2.595  1.0431 -0.3806  0.7213
  926MOL0     H22205  -1.410   3.575   2.701 -0.5323 -1.6670 -2.0277
  926MOL0     H22206  -1.244   3.780   2.556 -0.1354  1.2012  4.1092
  926MOL0     H22207  -1.399   3.795   2.644 -2.1252  0.0069 -1.3711
  926MOL0     H22208  -1.495   3.621   2.484  0.3371  0.0347  1.1090
  926MOL0     H22209  -1.372   3.647   2.366  2.5399  0.2107  1.3901
  926MOL0     H22210  -1.560   3.790   2.315 -1.5324  3.7934  0.2458
  926MOL0     H22211  -1.574   3.864   2.464 -1.9157  3.0953 -4.1902
  926MOL0     H22212  -1.343   3.963   2.420  0.0174 -0.2499  0.3899
  926MOL0     H22213  -1.469   3.994   2.290 -0.6331 -2.9484 -4.8429
  926MOL0     H22214  -0.747   3.651   3.012  1.1946 -0.0724  1.1757
  926MOL0     H22215  -0.593   3.533   3.142 -2.2058  0.1669 -0.0959
  926MOL0     H22216  -0.248   2.968   3.087 -0.2275 -1.0453  1.3574
  926MOL0     H22217  -0.031   2.934   3.174  3.1941  0.7349 -1.7124
  926MOL0     H22218   1.596   2.702   4.007  1.9607  1.3524 -1.4897
  926MOL0     H22219   1.833   2.634   4.066  1.5414 -3.3050  2.9753
  926MOL0     H22220   2.188   2.460   3.999  0.2726 -0.9464 -0.5076
  926MOL0     H22221   2.421   2.450   4.061 -0.2641 -0.7593 -1.5797
  926MOL0     H22222   2.600   2.183   4.350 -0.1090 -1.5453  4.4853
  926MOL0     H22223   2.565   2.308   4.477  1.8404 -0.6161  0.2915
  926MOL0     H22224   2.760   2.334   4.273  0.8121 -1.1027  1.3669
  926MOL0     H22225   2.731   2.457   4.399  0.1813  0.7272  0.6191
  926MOL0     H22226   2.919   2.356   4.474 -1.6231  2.1577 -0.2257
  926MOL0     H22227   2.876   2.190   4.415 -0.8942 -0.2287 -0.1397
  926MOL0     H22228   2.692   2.188   4.588  2.2281 -2.0540 -1.8985
  926MOL0     H22229   2.849   2.163   4.660  1.5810  0.5472  1.3166
  926MOL0     H22230   2.806   2.519   4.855  3.1380  1.2681 -2.0189
  926MOL0     H22231   2.305   2.213   4.407 -6.1238 -3.4841 -0.7900
  926MOL0     H22232   2.089   2.212   4.346 -0.6573  0.7997 -0.5058
  927MOL0     O22233   2.591   5.053  10.172 -0.5044  0.1637  1.0280
  927MOL0     C22234   2.560   5.080  10.287  0.5873 -0.2178  0.5419
  927MOL0     O22235   2.643   5.062  10.398 -0.6419  0.0711  0.4503
  927MOL0     C22236   2.778   5.051  10.374 -0.8276  0.5642 -0.4219
  927MOL0     C22237   2.836   4.947  10.301  0.1686 -0.2847 -0.0798
  927MOL0     C22238   2.969   4.921  10.293 -0.6490  1.0900 -1.1127
  927MOL0     C22239   3.064   4.991  10.365  0.1724 -0.2859 -0.7217
  927MOL0     O22240   3.194   4.965  10.346  0.2427  0.2259 -0.3134
  927MOL0     C22241   3.294   5.066  10.363  0.4341  0.1945 -0.3747
  927MOL0     C22242   3.438   5.010  10.351  0.4046  0.1118  0.5095
  927MOL0     C22243   3.538   5.121  10.340 -0.4528  0.3881 -0.0740
  927MOL0     C22244   3.680   5.077  10.309  0.2876  0.3409  0.5970
  927MOL0     C22245   3.740   5.178  10.207  0.3913  0.4009 -0.6076
  927MOL0     C22246   3.778   5.312  10.256  1.1095 -0.0279  0.0294
  927MOL0     C22247   3.877   5.312  10.379  0.3564 -0.1908 -0.6848
  927MOL0     C22248   4.012   5.252  10.344  0.1927 -0.2300  0.8347
  927MOL0     N22249   4.059   5.303  10.215 -0.3949  0.5188 -0.8004
  927MOL0     C22250   4.102   5.238  10.101 -0.5928  0.3964 -0.2330
  927MOL0     C22251   4.155   5.325  10.023  0.2823  0.1836 -0.3142
  927MOL0     C22252   4.208   5.302   9.889  0.3020  1.3804  0.8309
  927MOL0     C22253   4.102   5.241   9.786 -0.0428  0.0830 -1.1605
  927MOL0     C22254   3.985   5.343   9.754 -0.3638 -0.2442  0.7436
  927MOL0     C22255   3.869   5.268   9.701 -0.0683 -1.3298  0.8235
  927MOL0     O22256   3.820   5.171   9.792 -0.2600  0.1554 -0.0405
  927MOL0     C22257   3.718   5.087   9.761  0.3776  0.0778  0.4885
  927MOL0     C22258   3.618   5.100   9.657 -0.3927  0.5006 -0.0521
  927MOL0     C22259   3.507   5.010   9.638 -0.8188 -1.2346 -0.6761
  927MOL0     C22260   3.492   4.905   9.728 -1.4398  0.6248 -1.2368
  927MOL0     C22261   3.381   4.814   9.715  0.3615 -0.0388  0.6890
  927MOL0     O22262   3.302   4.829   9.606  0.1293  1.2769  0.5254
  927MOL0     C22263   3.218   4.729   9.566  0.4970  0.4666 -0.7642
  927MOL0     C22264   3.094   4.768   9.509  0.1039  0.0495 -0.2302
  927MOL0     C22265   3.009   4.673   9.461  0.2429  0.6584  0.3047
  927MOL0     C22266   3.025   4.533   9.487 -0.1599 -0.6736  0.7436
  927MOL0     O22267   2.931   4.444   9.443  0.8227 -0.6652 -0.6167
  927MOL0     C22268   2.923   4.324   9.527  0.3327 -0.4106 -1.0411
  927MOL0     C22269   2.795   4.253   9.515  0.0965  0.7470  0.1633
  927MOL0     C22270   2.784   4.133   9.619  0.2951 -0.1359  0.4503
  927MOL0     C22271   2.641   4.070   9.618  0.7440  0.2178 -0.3100
  927MOL0     C22272   2.602   3.969   9.735 -0.1315 -0.0054 -0.1365
  927MOL0     C22273   2.711   3.859   9.758  0.8771 -0.0251  0.5298
  927MOL0     C22274   2.725   3.761   9.635  0.2366  0.6857  0.6463
  927MOL0     C22275   2.803   3.639   9.692  0.0567  0.8595 -0.6909
  927MOL0    Cl22276   2.973   3.679   9.712 -0.4704 -0.0782  0.0501
  927MOL0     C22277   3.145   4.496   9.545 -0.1115 -0.8543 -0.3602
  927MOL0     C22278   3.240   4.593   9.574 -0.4503  0.7258 -0.3976
  927MOL0     O22279   3.366   4.725   9.797 -0.0091 -0.7949 -1.2637
  927MOL0     C22280   3.583   4.898   9.845 -0.0912  0.0516  1.0298
  927MOL0     C22281   3.695   4.980   9.851 -0.4555  0.6879 -0.1185
  927MOL0     N22282   4.147   5.448  10.085 -0.2955 -0.1266  0.9299
  927MOL0     N22283   4.085   5.432  10.195  0.1317 -0.2913  0.3439
  927MOL0     C22284   3.006   5.101  10.442  0.2010 -0.1107  0.2435
  927MOL0     C22285   2.871   5.128  10.445 -0.0795  1.0273 -0.0387
  927MOL0     C22286   2.419   5.094  10.331  0.4727  0.2431 -0.0998
  927MOL0     C22287   2.312   5.098  10.242 -0.2517 -0.7026 -0.8754
  927MOL0     C22288   2.177   5.122  10.283  0.6034 -0.0075 -0.6566
  927MOL0     C22289   2.155   5.150  10.425  0.0350  0.4478  0.0136
  927MOL0     O22290   2.023   5.157  10.457  0.1252 -0.3470  0.2882
  927MOL0     C22291   1.979   5.295  10.469  0.7718  0.1822 -0.1454
  927MOL0     C22292   1.841   5.297  10.542  0.4839  0.0716  0.3410
  927MOL0     C22293   1.780   5.436  10.547 -0.4029  0.2737 -0.3460
  927MOL0     C22294   1.672   5.437  10.650 -0.3539 -0.5403 -0.1313
  927MOL0     C22295   1.590   5.565  10.639 -0.3292  0.9355  0.1783
  927MOL0     C22296   1.513   5.651  10.631  0.7301 -0.3015  1.1920
  927MOL0     C22297   2.257   5.129  10.519  0.4448 -0.1087  0.8980
  927MOL0     C22298   2.382   5.099  10.466 -0.0814 -0.8317  0.0431
  927MOL0     H22299   2.766   4.887  10.244  3.0155 -2.0298 -2.0110
  927MOL0     H22300   3.004   4.841  10.229 -1.0327 -0.8297  0.9694
  927MOL0     H22301   3.291   5.111  10.462  1.2548 -1.1792  0.3051
  927MOL0     H22302   3.275   5.143  10.288 -2.3001  0.4748  0.4923
  927MOL0     H22303   3.433   4.954  10.257 -3.9861  1.4698 -0.2860
  927MOL0     H22304   3.463   4.932  10.423 -0.1762 -0.1793  0.4031
  927MOL0     H22305   3.546   5.166  10.439 -0.7281 -0.2350  0.2370
  927MOL0     H22306   3.509   5.198  10.267  0.6781  2.5799  1.6632
  927MOL0     H22307   3.737   5.050  10.398 -0.9827 -0.1649  1.2877
  927MOL0     H22308   3.669   4.978  10.265 -0.7238  0.8095 -0.2577
  927MOL0     H22309   3.667   5.193  10.128 -1.0780  0.1977  0.6588
  927MOL0     H22310   3.833   5.136  10.167  0.2816 -0.9642  0.4749
  927MOL0     H22311   3.684   5.365  10.272 -1.4633 -4.5477  1.8396
  927MOL0     H22312   3.823   5.361  10.170 -1.2716 -2.8649 -3.1183
  927MOL0     H22313   3.879   5.415  10.416  1.0253 -1.0944  1.9927
  927MOL0     H22314   3.842   5.246  10.458  0.0214 -3.8029 -3.5692
  927MOL0     H22315   4.005   5.144  10.327  0.4308  0.1423 -2.2134
  927MOL0     H22316   4.081   5.280  10.424  0.6814  2.1922 -0.3184
  927MOL0     H22317   4.107   5.130  10.092 -1.5108  0.0402  2.6554
  927MOL0     H22318   4.295   5.238   9.906 -0.9566 -0.3090  1.1080
  927MOL0     H22319   4.247   5.393   9.842  0.5434  1.6056  1.4651
  927MOL0     H22320   4.064   5.152   9.836  3.0639 -0.3533  0.6625
  927MOL0     H22321   4.170   5.219   9.703  1.8484  5.6680 -1.5568
  927MOL0     H22322   3.976   5.411   9.839  0.4891  0.9066 -0.0588
  927MOL0     H22323   4.023   5.404   9.672  0.4100 -0.9157  0.5872
  927MOL0     H22324   3.904   5.234   9.603  0.8516  1.9523 -0.1390
  927MOL0     H22325   3.789   5.341   9.684  1.5924  0.4784  0.3717
  927MOL0     H22326   3.632   5.181   9.587 -2.6183 -0.9258 -2.3021
  927MOL0     H22327   3.435   5.025   9.558  0.1104  1.0242 -1.1619
  927MOL0     H22328   3.065   4.871   9.494 -4.2921 -0.6038  2.2311
  927MOL0     H22329   2.923   4.703   9.402  1.5863  0.4285 -1.8774
  927MOL0     H22330   2.934   4.354   9.632  0.5452  1.3030 -1.5173
  927MOL0     H22331   3.004   4.255   9.503  0.1747 -1.8675  2.0834
  927MOL0     H22332   2.795   4.217   9.411  0.4173 -1.6624  0.9324
  927MOL0     H22333   2.715   4.326   9.528 -0.3095  0.2004  0.7796
  927MOL0     H22334   2.803   4.180   9.716  2.7202 -2.1048  1.0491
  927MOL0     H22335   2.855   4.050   9.609  1.0057  0.5973 -0.7601
  927MOL0     H22336   2.566   4.150   9.608 -0.2314 -0.5324  0.7765
  927MOL0     H22337   2.623   4.015   9.525 -1.0543  0.3097 -0.0625
  927MOL0     H22338   2.511   3.923   9.696 -0.2139  0.2034 -0.1893
  927MOL0     H22339   2.571   4.024   9.825 -2.2608 -1.5826  0.1738
  927MOL0     H22340   2.696   3.806   9.853 -0.2882  0.5695  0.7061
  927MOL0     H22341   2.805   3.914   9.766  0.4512  1.2954 -2.3681
  927MOL0     H22342   2.630   3.715   9.608  1.1187 -0.1862 -1.1007
  927MOL0     H22343   2.758   3.803   9.539 -0.1476 -1.4446 -0.4712
  927MOL0     H22344   2.782   3.558   9.622 -2.2549  0.4021  0.4082
  927MOL0     H22345   2.762   3.610   9.790 -1.0892  1.0517 -1.0934
  927MOL0     H22346   3.188   4.400   9.569  0.0941 -1.0579 -1.4868
  927MOL0     H22347   3.333   4.551   9.610 -0.4821  1.3958  0.5090
  927MOL0     H22348   3.579   4.821   9.921 -0.7568 -1.2098 -0.2351
  927MOL0     H22349   3.769   4.982   9.930 -0.2696  4.3854 -0.2208
  927MOL0     H22350   3.080   5.159  10.497  0.9914  0.5682 -1.4557
  927MOL0     H22351   2.846   5.208  10.514 -0.4879  0.8224  0.0494
  927MOL0     H22352   2.330   5.096  10.135 -0.5259  0.3005 -0.9495
  927MOL0     H22353   2.102   5.124  10.204  0.2438 -1.1616 -0.3729
  927MOL0     H22354   1.971   5.339  10.370 -1.3429  0.7850  0.2383
  927MOL0     H22355   2.050   5.355  10.527 -1.2890  3.7789 -1.0415
  927MOL0     H22356   1.773   5.227  10.491 -2.2618  2.3722  0.6133
  927MOL0     H22357   1.844   5.265  10.647 -1.4178  2.2423  1.1476
  927MOL0     H22358   1.728   5.471  10.457 -0.3652  1.6877  0.1592
  927MOL0     H22359   1.864   5.501  10.571  0.0315 -0.7068  0.8916
  927MOL0     H22360   1.610   5.347  10.645 -0.6348 -0.9305  4.8352
  927MOL0     H22361   1.714   5.431  10.751  0.5516 -0.2098 -0.4833
  927MOL0     H22362   1.439   5.726  10.609  1.5495 -0.3179 -2.1464
  927MOL0     H22363   2.241   5.137  10.626 -2.0614 -1.4240  0.6782
  927MOL0     H22364   2.451   5.079  10.548 -1.4105 -2.1441  0.8818
  928MOL0     O22365  10.020   7.514   3.016  0.7572 -0.9121  0.1887
  928MOL0     C22366   9.931   7.604   3.029  0.4060  0.7727  0.2500
  928MOL0     O22367   9.939   7.735   3.015  0.2469  0.5234 -0.4961
  928MOL0     C22368  10.064   7.789   2.999  0.2051  0.3064 -0.5470
  928MOL0     C22369  10.085   7.870   2.883  0.0690 -0.5834  0.1502
  928MOL0     C22370  10.206   7.932   2.864  0.4470 -0.1721  0.1134
  928MOL0     C22371  10.312   7.906   2.945 -0.1030  0.2068 -0.5033
  928MOL0     O22372  10.430   7.970   2.914  0.6476 -0.2789  1.3026
  928MOL0     C22373  10.504   8.004   3.029  0.9311 -0.3180 -0.5906
  928MOL0     C22374  10.610   8.107   2.982  0.3570 -0.3117  0.0830
  928MOL0     C22375  10.654   8.181   3.108  0.4171  0.0622 -0.7889
  928MOL0     C22376  10.771   8.279   3.091 -0.0451 -0.6363  0.4769
  928MOL0     C22377  10.830   8.340   3.213  1.5647  0.2962 -0.8837
  928MOL0     C22378  10.976   8.373   3.188  0.0775  1.0606  0.0659
  928MOL0     C22379  11.032   8.466   3.299 -0.5947 -0.2444 -0.3139
  928MOL0     C22380  11.135   8.570   3.245 -0.3382  0.8435  0.3788
  928MOL0     N22381  11.234   8.605   3.341 -0.3509 -0.6351  0.3318
  928MOL0     C22382  11.214   8.657   3.467 -1.2965  0.1426 -0.8802
  928MOL0     C22383  11.331   8.662   3.532 -0.7334  0.3748 -0.0554
  928MOL0     C22384  11.349   8.704   3.678 -0.5337  0.0342  0.6226
  928MOL0     C22385  11.247   8.799   3.740 -0.4828  0.1417  0.4264
  928MOL0     C22386  11.292   8.950   3.710  0.8956 -0.3402 -0.2503
  928MOL0     C22387  11.180   9.046   3.756  0.3177 -0.0725 -0.7955
  928MOL0     O22388  11.179   9.075   3.903  0.0901  0.3811  0.7151
  928MOL0     C22389  11.063   9.044   3.964  0.1176 -0.8470  0.0252
  928MOL0     C22390  10.948   9.100   3.907 -0.0755  0.8987  0.2885
  928MOL0     C22391  10.826   9.071   3.962 -1.0984  0.9360 -0.2965
  928MOL0     C22392  10.821   8.978   4.066  1.2010  0.1915 -0.6763
  928MOL0     C22393  10.685   8.942   4.126  0.3085 -0.8983 -0.2609
  928MOL0     O22394  10.579   9.011   4.060 -0.5971  0.8938 -0.1692
  928MOL0     C22395  10.454   9.015   4.131 -0.5693  1.0728  0.2468
  928MOL0     C22396  10.412   9.137   4.181 -0.0443  0.0790 -0.4346
  928MOL0     C22397  10.284   9.138   4.246 -0.5254 -0.0280 -0.2487
  928MOL0     C22398  10.204   9.031   4.261  0.2070 -0.3090  0.7990
  928MOL0     O22399  10.087   9.035   4.331 -0.4083 -0.3306 -0.6789
  928MOL0     C22400   9.975   8.957   4.280 -0.5117  0.3156 -0.6386
  928MOL0     C22401   9.853   9.011   4.345  0.2225  0.5331  0.9549
  928MOL0     C22402   9.729   8.955   4.281  0.1657  0.2852  0.2058
  928MOL0     C22403   9.600   9.010   4.343  0.5824 -0.0396  0.2969
  928MOL0     C22404   9.479   8.930   4.314  0.0021 -0.4300  0.6948
  928MOL0     C22405   9.365   8.950   4.415  0.7295 -0.3269 -0.0895
  928MOL0     C22406   9.270   8.830   4.404  0.1410 -0.5309 -0.7107
  928MOL0     C22407   9.187   8.833   4.284  0.0995  0.6342  0.7208
  928MOL0    Cl22408   9.041   8.727   4.301  0.4387 -0.0052 -0.2656
  928MOL0     C22409  10.249   8.910   4.203  0.4436 -0.1854  0.7655
  928MOL0     C22410  10.373   8.900   4.138  0.1214 -0.0927 -1.0483
  928MOL0     O22411  10.677   8.867   4.221 -0.9635 -0.3886 -0.6994
  928MOL0     C22412  10.938   8.923   4.121 -0.5587 -0.3259  0.0872
  928MOL0     C22413  11.059   8.963   4.072 -0.5871 -0.9861  0.2186
  928MOL0     N22414  11.427   8.611   3.444  0.1552 -0.1585  0.4483
  928MOL0     N22415  11.372   8.579   3.327  0.7894 -0.0274  0.0243
  928MOL0     C22416  10.297   7.813   3.049  0.3483  0.4721 -0.2918
  928MOL0     C22417  10.176   7.754   3.077 -0.2355 -0.1116 -0.4461
  928MOL0     C22418   9.799   7.555   3.090 -0.2439 -0.7383 -0.1514
  928MOL0     C22419   9.675   7.621   3.076  0.0923  0.2408 -0.6304
  928MOL0     C22420   9.557   7.584   3.144  0.6701 -0.4977 -0.6823
  928MOL0     C22421   9.555   7.467   3.213  0.2042  0.5159  0.0211
  928MOL0     O22422   9.447   7.409   3.269 -0.9253 -0.4821 -0.6156
  928MOL0     C22423   9.338   7.499   3.307 -0.2925  0.2636  0.3001
  928MOL0     C22424   9.256   7.441   3.420  0.4096 -0.3056  0.6532
  928MOL0     C22425   9.172   7.322   3.373 -0.9534 -0.5853 -0.1856
  928MOL0     C22426   9.085   7.262   3.481  0.4682  0.1310  0.8598
  928MOL0     C22427   9.144   7.207   3.591  0.1047 -0.1087 -0.8188
  928MOL0     C22428   9.200   7.157   3.679  0.1342 -0.5342  0.7578
  928MOL0     C22429   9.668   7.390   3.214  0.0786 -0.4414 -0.6489
  928MOL0     C22430   9.792   7.436   3.166 -0.1606  0.2318 -0.6495
  928MOL0     H22431   9.994   7.888   2.826 -1.6255 -1.7865  2.3396
  928MOL0     H22432  10.216   8.003   2.782 -1.3931  3.6479  2.8663
  928MOL0     H22433  10.552   7.912   3.063 -0.9374 -1.9226 -2.0353
  928MOL0     H22434  10.432   8.049   3.099  0.0331 -0.1363 -1.6067
  928MOL0     H22435  10.579   8.182   2.909  1.4284  1.4874  1.3712
  928MOL0     H22436  10.688   8.047   2.934  1.1151  1.2434 -0.7060
  928MOL0     H22437  10.683   8.109   3.185 -1.3791 -1.1447 -1.1854
  928MOL0     H22438  10.579   8.232   3.169  2.6548  1.8464  0.6173
  928MOL0     H22439  10.850   8.222   3.042 -1.8032 -2.6862 -0.1177
  928MOL0     H22440  10.724   8.354   3.026  0.0090 -2.8237 -2.2563
  928MOL0     H22441  10.821   8.269   3.295  0.7929  1.3348 -0.0424
  928MOL0     H22442  10.776   8.433   3.231 -0.4628 -1.0235  0.1746
  928MOL0     H22443  10.978   8.412   3.086  0.1460 -0.2971 -0.4771
  928MOL0     H22444  11.042   8.286   3.182  0.8529  1.6820 -0.6169
  928MOL0     H22445  10.958   8.519   3.361 -0.9334 -2.3254  1.1727
  928MOL0     H22446  11.078   8.392   3.365  0.0272  0.8741  0.5275
  928MOL0     H22447  11.069   8.651   3.210 -0.2577 -1.3435 -5.8845
  928MOL0     H22448  11.180   8.534   3.153 -0.0664  1.9089  0.0855
  928MOL0     H22449  11.125   8.701   3.511 -0.6147 -0.8424  1.6059
  928MOL0     H22450  11.453   8.722   3.706 -1.2711  2.4023  2.1839
  928MOL0     H22451  11.327   8.614   3.736 -0.7905  0.1346  0.6843
  928MOL0     H22452  11.252   8.776   3.847 -2.5614 -1.8344  0.1816
  928MOL0     H22453  11.146   8.787   3.699 -0.1751 -0.1950 -0.2528
  928MOL0     H22454  11.390   8.965   3.756  1.0169  1.3567 -0.9675
  928MOL0     H22455  11.298   8.973   3.603  0.9523  2.2898  0.2484
  928MOL0     H22456  11.087   9.002   3.718  0.8273  2.1186 -5.2747
  928MOL0     H22457  11.182   9.140   3.699  0.5050  0.5485  0.2098
  928MOL0     H22458  10.948   9.163   3.819  0.1388  0.6114  0.0819
  928MOL0     H22459  10.730   9.102   3.922 -3.1334 -1.5306  2.2701
  928MOL0     H22460  10.468   9.230   4.189 -2.1510  1.2782  1.8980
  928MOL0     H22461  10.244   9.233   4.281  0.6953 -0.1451  1.5484
  928MOL0     H22462   9.994   8.854   4.310  0.0925  0.6856  0.3020
  928MOL0     H22463   9.975   8.953   4.171 -1.9181 -1.7164 -0.6193
  928MOL0     H22464   9.847   9.118   4.321 -1.6390  0.3951  0.5908
  928MOL0     H22465   9.853   8.991   4.453  2.4881 -3.3052  0.4293
  928MOL0     H22466   9.734   8.852   4.316  1.2168  1.3241  3.4991
  928MOL0     H22467   9.725   8.965   4.173 -1.4572  0.8377  0.2911
  928MOL0     H22468   9.616   9.017   4.451  0.4535 -0.6867  0.3572
  928MOL0     H22469   9.599   9.115   4.310  0.7508  0.3861  1.5610
  928MOL0     H22470   9.502   8.824   4.300 -1.4511 -0.7290  0.4286
  928MOL0     H22471   9.434   8.953   4.217  3.9394  1.2952 -0.9573
  928MOL0     H22472   9.316   9.047   4.400 -0.8230 -1.4144 -2.6120
  928MOL0     H22473   9.394   8.928   4.518 -2.0727  0.4568  0.9585
  928MOL0     H22474   9.333   8.742   4.419  0.6431 -0.4117 -1.9430
  928MOL0     H22475   9.203   8.836   4.490  0.6150 -2.0752 -0.1986
  928MOL0     H22476   9.253   8.801   4.203  1.3869  0.4002  1.8135
  928MOL0     H22477   9.150   8.932   4.257  0.0476  0.2106 -0.8277
  928MOL0     H22478  10.187   8.823   4.218 -0.5750  0.6703  1.6973
  928MOL0     H22479  10.415   8.815   4.086  0.5694  0.1458 -1.0803
  928MOL0     H22480  10.952   8.857   4.206 -0.1496  2.4419  2.3325
  928MOL0     H22481  11.148   8.922   4.119 -0.2234 -1.7699 -1.0926
  928MOL0     H22482  10.386   7.782   3.102  2.2608  2.4142 -2.1521
  928MOL0     H22483  10.153   7.691   3.162  1.6481 -2.4499 -1.5642
  928MOL0     H22484   9.667   7.710   3.014  0.1666  0.8966  0.2797
  928MOL0     H22485   9.469   7.646   3.133 -0.6254 -1.6408  2.2144
  928MOL0     H22486   9.281   7.503   3.213 -1.0790  2.3215  0.8205
  928MOL0     H22487   9.364   7.600   3.337 -1.2865  1.5067 -2.6102
  928MOL0     H22488   9.325   7.420   3.503 -0.4793  0.1109  1.5086
  928MOL0     H22489   9.198   7.526   3.455  2.7814  1.9977 -0.7059
  928MOL0     H22490   9.239   7.241   3.344  0.6947  1.1883 -1.5935
  928MOL0     H22491   9.113   7.361   3.289  1.2054  1.8599 -0.6972
  928MOL0     H22492   9.026   7.348   3.511 -1.1299  0.1989 -2.0866
  928MOL0     H22493   9.012   7.193   3.438 -0.4643  3.9602 -4.8066
  928MOL0     H22494   9.248   7.107   3.761 -2.0841  0.1216  2.5514
  928MOL0     H22495   9.663   7.288   3.250  0.8728 -0.5079 -0.7101
  928MOL0     H22496   9.882   7.379   3.186  1.0334  2.1148 -0.4259
  929MOL0     O22497  10.339  10.930   0.791 -0.2281  0.0970 -0.5333
  929MOL0     C22498  10.375  10.971   0.681 -0.3699  0.5098  0.9440
  929MOL0     O22499  10.299  11.058   0.605 -0.0302 -0.0408  0.0465
  929MOL0     C22500  10.188  11.113   0.659  0.7369 -0.7163 -0.1396
  929MOL0     C22501  10.069  11.063   0.624  0.4025  1.0898  0.4757
  929MOL0     C22502   9.947  11.119   0.679 -0.5344 -0.0887  0.0937
  929MOL0     C22503   9.955  11.226   0.768  0.5156  0.5530 -0.0094
  929MOL0     O22504   9.843  11.290   0.823 -0.3877  0.2784 -0.6460
  929MOL0     C22505   9.726  11.213   0.835 -0.2906  0.5535 -0.3986
  929MOL0     C22506   9.628  11.292   0.916  0.1544  0.2448 -0.9690
  929MOL0     C22507   9.595  11.423   0.833  0.6916  0.2380  0.1555
  929MOL0     C22508   9.469  11.501   0.889  0.4432  0.4604  0.6298
  929MOL0     C22509   9.477  11.638   0.822 -0.3814 -0.2014  0.8050
  929MOL0     C22510   9.344  11.669   0.745 -0.1078  0.3457 -0.0742
  929MOL0     C22511   9.236  11.708   0.847  0.2470  0.0643  0.0175
  929MOL0     C22512   9.085  11.698   0.795  0.0474  0.6843  0.3588
  929MOL0     N22513   9.076  11.743   0.650 -0.2082  0.2716 -0.2843
  929MOL0     C22514   9.142  11.857   0.590  0.3746 -0.4818 -0.7075
  929MOL0     C22515   9.136  11.831   0.458 -0.3216  0.5602 -0.0408
  929MOL0     C22516   9.191  11.904   0.344 -0.1760 -0.3340  0.4392
  929MOL0     C22517   9.325  11.845   0.300  0.0904  0.5671 -0.5302
  929MOL0     C22518   9.392  11.926   0.190 -0.3942  0.5472  0.3148
  929MOL0     C22519   9.552  11.903   0.201  0.4498  1.1725 -0.3587
  929MOL0     O22520   9.573  11.774   0.137 -0.1466 -0.5495 -0.1842
  929MOL0     C22521   9.696  11.724   0.126  0.0355 -0.2989  0.0005
  929MOL0     C22522   9.705  11.588   0.100 -0.2626 -0.0920  0.3320
  929MOL0     C22523   9.820  11.509   0.095 -0.6772  0.0719 -0.7524
  929MOL0     C22524   9.946  11.571   0.120 -0.6033  0.7960  0.2970
  929MOL0     C22525  10.078  11.501   0.111  0.0030  0.7199 -0.2411
  929MOL0     O22526  10.057  11.366   0.139  0.3221 -0.3117  0.1044
  929MOL0     C22527  10.153  11.265   0.131 -1.1149 -0.3473  0.1543
  929MOL0     C22528  10.225  11.248   0.009  0.0976  0.0072  0.6510
  929MOL0     C22529  10.322  11.148  -0.000 -0.0169 -0.2477  0.3710
  929MOL0     C22530  10.346  11.064   0.105  0.7587  0.0791  0.2632
  929MOL0     O22531  10.461  10.985   0.097 -0.9635  0.3353 -0.0367
  929MOL0     C22532  10.437  10.852   0.130  0.1292  0.7197 -0.4074
  929MOL0     C22533  10.561  10.763   0.108 -0.4497  0.9439 -0.1217
  929MOL0     C22534  10.617  10.770  -0.032 -0.9429  0.2403  0.4342
  929MOL0     C22535  10.702  10.656  -0.081 -0.7661  0.9524 -0.2573
  929MOL0     C22536  10.842  10.666  -0.040  1.0075  0.4712  0.0837
  929MOL0     C22537  10.940  10.572  -0.116 -0.0039 -0.7236 -0.4630
  929MOL0     C22538  10.992  10.625  -0.254  0.3477  0.9264 -0.2103
  929MOL0     C22539  11.090  10.526  -0.317  0.0074 -0.5401  0.0904
  929MOL0    Cl22540  11.245  10.581  -0.234 -0.3887  0.8269  0.0008
  929MOL0     C22541  10.259  11.073   0.216 -0.8065  0.1031  0.1221
  929MOL0     C22542  10.161  11.173   0.234 -0.5955 -0.2847 -1.7793
  929MOL0     O22543  10.183  11.563   0.114 -0.4171 -0.5827 -0.1405
  929MOL0     C22544   9.944  11.710   0.147  0.5751 -0.2521 -0.1132
  929MOL0     C22545   9.822  11.787   0.148  1.0564  0.3257  0.0064
  929MOL0     N22546   9.063  11.709   0.439 -0.3197 -0.1983 -0.5989
  929MOL0     N22547   9.025  11.659   0.558 -0.1205 -0.3516  0.2934
  929MOL0     C22548  10.080  11.273   0.810 -0.0962 -0.2699  0.7839
  929MOL0     C22549  10.200  11.217   0.754  0.0482 -0.7443  0.7561
  929MOL0     C22550  10.500  10.928   0.607  0.7150  0.0691  0.5447
  929MOL0     C22551  10.586  10.839   0.673 -0.6024  0.2279  0.5592
  929MOL0     C22552  10.698  10.788   0.598 -0.6997  0.5695  0.1468
  929MOL0     C22553  10.736  10.842   0.474 -0.4877  0.1312  0.1099
  929MOL0     O22554  10.847  10.789   0.403 -0.9074 -0.1948 -0.3462
  929MOL0     C22555  10.926  10.865   0.307 -0.6494  0.0798  0.2203
  929MOL0     C22556  11.080  10.841   0.306 -0.4878  0.2660  0.3260
  929MOL0     C22557  11.109  10.722   0.213  0.2731 -0.2498 -0.2118
  929MOL0     C22558  11.257  10.694   0.213 -0.1446  1.0962 -0.7965
  929MOL0     C22559  11.292  10.621   0.334  1.0964  0.3864  0.4110
  929MOL0     C22560  11.293  10.566   0.444  0.1729 -0.7295 -0.1236
  929MOL0     C22561  10.643  10.922   0.410  0.3308 -0.5401  0.2796
  929MOL0     C22562  10.528  10.973   0.477  0.9304  0.0489 -0.2834
  929MOL0     H22563  10.050  10.975   0.563  2.8750 -2.4773  4.2996
  929MOL0     H22564   9.852  11.080   0.646  0.0787 -1.2038 -0.3985
  929MOL0     H22565   9.755  11.124   0.891  0.2781 -1.0690 -3.1293
  929MOL0     H22566   9.682  11.195   0.737  2.4405  0.5855 -1.7237
  929MOL0     H22567   9.668  11.314   1.015 -4.0761 -0.0310  1.0177
  929MOL0     H22568   9.537  11.233   0.926  2.3429 -2.9555  2.3656
  929MOL0     H22569   9.575  11.384   0.732 -0.8531  0.1818  0.4683
  929MOL0     H22570   9.678  11.493   0.821 -0.3861  1.3547 -1.2889
  929MOL0     H22571   9.380  11.446   0.858 -0.1102  0.9123  1.3600
  929MOL0     H22572   9.472  11.517   0.998  1.1884 -1.6907  0.9594
  929MOL0     H22573   9.563  11.646   0.755  0.9381 -2.1170  2.1738
  929MOL0     H22574   9.496  11.711   0.902  1.5334 -0.0910  0.2946
  929MOL0     H22575   9.317  11.579   0.688  0.4896  0.1778 -0.1073
  929MOL0     H22576   9.353  11.749   0.671 -3.3851 -1.5472 -2.7883
  929MOL0     H22577   9.247  11.655   0.942  1.4464  0.1354 -0.0692
  929MOL0     H22578   9.248  11.814   0.873 -0.0436 -0.5526  3.0015
  929MOL0     H22579   9.032  11.770   0.857 -0.1735  3.6748 -2.9337
  929MOL0     H22580   9.046  11.597   0.804  2.1782 -0.4606 -1.9230
  929MOL0     H22581   9.192  11.941   0.638 -0.6368 -0.0694 -0.3303
  929MOL0     H22582   9.216  12.006   0.376  0.6919 -1.3393  3.3598
  929MOL0     H22583   9.122  11.909   0.260  1.5531 -2.1397 -1.1819
  929MOL0     H22584   9.311  11.744   0.261 -3.5145  0.4639  0.6718
  929MOL0     H22585   9.390  11.831   0.388 -1.3618 -2.7399  0.1651
  929MOL0     H22586   9.352  11.898   0.092  1.4784 -0.8462 -0.0932
  929MOL0     H22587   9.385  12.036   0.188  1.7576  0.7383 -1.7737
  929MOL0     H22588   9.587  11.912   0.304 -1.0044 -5.6952  1.2696
  929MOL0     H22589   9.604  11.975   0.139  1.4138  3.1307  2.5145
  929MOL0     H22590   9.606  11.547   0.082  0.1376 -1.5072  1.2392
  929MOL0     H22591   9.814  11.403   0.075  2.0871 -0.3477  0.1006
  929MOL0     H22592  10.201  11.317  -0.071 -0.5498 -1.8228 -0.7885
  929MOL0     H22593  10.392  11.140  -0.082 -0.4094  2.7381 -0.3735
  929MOL0     H22594  10.357  10.809   0.068  1.2986  0.8217 -2.0615
  929MOL0     H22595  10.404  10.835   0.233 -3.5685  2.1529 -1.2021
  929MOL0     H22596  10.535  10.659   0.128 -0.0975  1.1395  1.5243
  929MOL0     H22597  10.625  10.796   0.190 -2.0750 -0.6949  1.9052
  929MOL0     H22598  10.672  10.865  -0.033 -0.3521 -0.1019  0.4595
  929MOL0     H22599  10.547  10.768  -0.116  1.7442 -2.1394 -1.9677
  929MOL0     H22600  10.676  10.557  -0.042 -0.8266 -0.1477 -2.8536
  929MOL0     H22601  10.706  10.643  -0.190 -1.1786  1.9672 -0.4041
  929MOL0     H22602  10.859  10.629   0.062  0.1208 -1.1428 -0.3161
  929MOL0     H22603  10.885  10.763  -0.067  2.1387 -0.2183 -0.7247
  929MOL0     H22604  10.893  10.473  -0.121 -0.8876 -0.3372 -0.0161
  929MOL0     H22605  11.034  10.558  -0.062 -0.2594 -2.0601 -0.3151
  929MOL0     H22606  10.910  10.632  -0.326 -0.9376 -0.2205  1.0832
  929MOL0     H22607  11.038  10.725  -0.250  0.6729  0.8754 -1.8193
  929MOL0     H22608  11.098  10.525  -0.426  1.7078  2.3601  0.0746
  929MOL0     H22609  11.066  10.425  -0.285  2.7912 -0.4257  3.1252
  929MOL0     H22610  10.292  11.013   0.300 -0.5793 -2.0890 -1.4692
  929MOL0     H22611  10.103  11.188   0.325  1.3382 -0.5114 -0.4512
  929MOL0     H22612  10.039  11.759   0.167  1.1817 -2.3371  2.8193
  929MOL0     H22613   9.812  11.894   0.159  0.1984  0.0212  3.2611
  929MOL0     H22614  10.080  11.334   0.899 -0.3346  0.1962  0.4654
  929MOL0     H22615  10.301  11.250   0.773  0.1856  0.2528 -1.4180
  929MOL0     H22616  10.560  10.803   0.772  2.0230 -1.3674  0.7637
  929MOL0     H22617  10.762  10.711   0.640 -2.0719 -0.8247 -0.2369
  929MOL0     H22618  10.898  10.970   0.321 -3.3999 -0.2990 -1.6571
  929MOL0     H22619  10.898  10.860   0.202  1.6783  1.6133 -0.5485
  929MOL0     H22620  11.133  10.933   0.278  1.7259 -0.9761  0.2044
  929MOL0     H22621  11.114  10.816   0.407 -0.6864 -0.3278  0.2490
  929MOL0     H22622  11.085  10.752   0.111  0.9899 -1.1392 -0.6529
  929MOL0     H22623  11.060  10.626   0.233  2.6940 -1.4961  0.1487
  929MOL0     H22624  11.292  10.630   0.131  1.8417  1.9563 -0.6856
  929MOL0     H22625  11.321  10.782   0.203  0.5379  0.6054 -0.9050
  929MOL0     H22626  11.299  10.528   0.544 -3.0316 -4.0087 -0.9332
  929MOL0     H22627  10.660  10.957   0.309  0.5482  0.7368  0.7405
  929MOL0     H22628  10.470  11.052   0.429  0.1538 -0.7019 -0.6093
  930MOL0     O22629   0.838   4.970   6.607  0.2262 -0.0544 -0.1429
  930MOL0     C22630   0.897   4.898   6.524 -0.1755  0.1640 -0.0141
  930MOL0     O22631   1.027   4.894   6.501 -0.2048 -0.8466  0.0001
  930MOL0     C22632   1.122   4.955   6.570  0.1884 -0.7731 -0.4085
  930MOL0     C22633   1.236   5.009   6.504 -0.1949 -0.7407  0.4941
  930MOL0     C22634   1.331   5.089   6.570  0.0929  1.0034  0.5054
  930MOL0     C22635   1.324   5.098   6.711 -0.0318 -0.2433  0.1386
  930MOL0     O22636   1.428   5.146   6.782 -0.1544 -0.3747  0.5174
  930MOL0     C22637   1.548   5.074   6.756 -0.2531 -0.6189 -0.1164
  930MOL0     C22638   1.620   5.054   6.887 -0.9861  0.5284  0.1520
  930MOL0     C22639   1.650   5.176   6.974  0.4851 -1.0215 -0.2798
  930MOL0     C22640   1.736   5.272   6.896  0.1288  0.2034  0.2843
  930MOL0     C22641   1.784   5.390   6.991  0.9912 -0.8128  1.0036
  930MOL0     C22642   1.874   5.489   6.921  0.3303 -0.9723  0.2841
  930MOL0     C22643   2.007   5.427   6.901  0.1673  0.0090 -0.6234
  930MOL0     C22644   2.114   5.541   6.910  0.6087  0.3089  0.6635
  930MOL0     N22645   2.255   5.507   6.904 -0.5714 -0.0326 -0.3212
  930MOL0     C22646   2.322   5.429   6.994  0.1383  0.7324 -0.5429
  930MOL0     C22647   2.437   5.398   6.939  0.2228 -0.1846 -1.1021
  930MOL0     C22648   2.554   5.322   6.983  0.2439 -0.1551 -0.5704
  930MOL0     C22649   2.667   5.407   7.049 -0.0289  0.4115  0.1284
  930MOL0     C22650   2.618   5.501   7.165 -0.0401 -0.0311 -0.0985
  930MOL0     C22651   2.720   5.554   7.256  0.1560 -0.0506 -0.2192
  930MOL0     O22652   2.816   5.620   7.179 -0.6686  0.4428  0.6348
  930MOL0     C22653   2.942   5.635   7.236 -0.3745 -1.1249  1.2443
  930MOL0     C22654   2.965   5.639   7.364  0.3635  0.4380  0.0011
  930MOL0     C22655   3.095   5.658   7.417 -0.0967 -0.6133 -0.0672
  930MOL0     C22656   3.204   5.677   7.329 -0.0608  1.0821 -0.3097
  930MOL0     C22657   3.337   5.693   7.378 -0.2830 -0.8714 -0.1758
  930MOL0     O22658   3.425   5.751   7.300 -0.2218 -0.7119 -0.2642
  930MOL0     C22659   3.558   5.727   7.333 -0.4672  0.3147  0.3168
  930MOL0     C22660   3.633   5.817   7.420  0.8174  0.2729  0.3314
  930MOL0     C22661   3.767   5.798   7.445 -0.3295  0.1946  0.8188
  930MOL0     C22662   3.833   5.688   7.381 -0.3695 -0.4419 -0.3480
  930MOL0     O22663   3.970   5.652   7.398  0.6251 -0.2992  0.3755
  930MOL0     C22664   4.062   5.758   7.402  0.1960 -0.1270  0.3829
  930MOL0     C22665   4.203   5.709   7.399 -0.0036 -0.0964 -1.0865
  930MOL0     C22666   4.222   5.603   7.509  0.2835 -0.3871  0.0994
  930MOL0     C22667   4.376   5.566   7.522  0.4191 -1.1122  0.1270
  930MOL0     C22668   4.405   5.481   7.649 -0.2825 -0.1135 -0.7288
  930MOL0     C22669   4.553   5.435   7.647  0.2017  0.4216 -0.4215
  930MOL0     C22670   4.604   5.362   7.532 -0.6318  0.3234  0.9706
  930MOL0     C22671   4.704   5.250   7.565  0.6622  0.0856 -0.4135
  930MOL0    Cl22672   4.846   5.328   7.635 -0.3416 -0.1476  0.1394
  930MOL0     C22673   3.765   5.613   7.290 -0.1770 -0.3862  0.0156
  930MOL0     C22674   3.631   5.636   7.261 -0.3466  0.3023 -0.4083
  930MOL0     O22675   3.360   5.662   7.495 -0.7831  0.8120  0.3698
  930MOL0     C22676   3.182   5.683   7.193 -0.3854 -0.6282 -0.1584
  930MOL0     C22677   3.046   5.670   7.154  0.1188  0.1560  0.6326
  930MOL0     N22678   2.432   5.445   6.812 -0.2240  0.4406  0.4391
  930MOL0     N22679   2.322   5.502   6.784 -0.1573 -0.0249 -0.0916
  930MOL0     C22680   1.226   5.033   6.779  0.1554 -0.4031  0.5113
  930MOL0     C22681   1.122   4.974   6.711  0.3173 -0.0946 -0.0143
  930MOL0     C22682   0.822   4.812   6.426  0.1176  0.0588  0.2347
  930MOL0     C22683   0.712   4.740   6.458 -0.6015  0.7750 -0.8990
  930MOL0     C22684   0.639   4.646   6.375 -0.0679  0.0540 -0.7897
  930MOL0     C22685   0.676   4.642   6.243  0.8713  0.3100  0.3418
  930MOL0     O22686   0.608   4.564   6.154 -0.1123 -0.0503 -0.4100
  930MOL0     C22687   0.695   4.494   6.059 -0.0890  0.1115  0.4107
  930MOL0     C22688   0.665   4.345   6.038 -0.3025  0.3778  0.3200
  930MOL0     C22689   0.524   4.322   5.986 -0.0381 -0.2540 -0.4908
  930MOL0     C22690   0.494   4.169   5.973  0.4987 -0.5096  0.4492
  930MOL0     C22691   0.354   4.148   5.936 -0.2729 -0.4729  0.1762
  930MOL0     C22692   0.236   4.117   5.921 -0.9026  0.2098 -0.2498
  930MOL0     C22693   0.782   4.726   6.200  0.0089  0.2222  0.2881
  930MOL0     C22694   0.858   4.808   6.292  0.5809 -1.1338  0.3949
  930MOL0     H22695   1.237   5.006   6.396  1.5745  2.8181  0.2623
  930MOL0     H22696   1.413   5.142   6.520 -2.1908  1.0250 -3.7044
  930MOL0     H22697   1.623   5.123   6.694 -0.7652 -0.1795 -0.3921
  930MOL0     H22698   1.530   4.973   6.717  2.7200 -2.7280  3.2656
  930MOL0     H22699   1.715   5.012   6.853 -0.8733 -3.2721  4.2757
  930MOL0     H22700   1.573   4.980   6.953 -1.8024 -2.2124 -3.2242
  930MOL0     H22701   1.693   5.158   7.073 -2.6928 -1.3494  1.1624
  930MOL0     H22702   1.559   5.232   6.994  1.8937  1.3367 -0.0763
  930MOL0     H22703   1.824   5.220   6.857  1.0008  1.4249  0.5651
  930MOL0     H22704   1.678   5.320   6.817  1.4414 -1.0471 -1.5258
  930MOL0     H22705   1.846   5.346   7.070  4.2744  0.2772 -0.7694
  930MOL0     H22706   1.701   5.450   7.029  2.3174  1.3592  0.6556
  930MOL0     H22707   1.876   5.579   6.984 -1.7460 -0.6050 -0.0983
  930MOL0     H22708   1.819   5.526   6.834  1.7877 -0.1010 -0.2947
  930MOL0     H22709   2.024   5.350   6.977 -1.5827 -0.0200 -0.2082
  930MOL0     H22710   2.004   5.380   6.802 -2.3726 -0.7501 -0.2612
  930MOL0     H22711   2.099   5.593   7.005  1.1442  3.6380 -0.9015
  930MOL0     H22712   2.106   5.605   6.822 -2.1617 -4.0263 -2.6923
  930MOL0     H22713   2.295   5.418   7.098  1.1879 -1.4333 -0.4626
  930MOL0     H22714   2.598   5.274   6.895  0.1919 -0.4457 -0.4401
  930MOL0     H22715   2.531   5.252   7.064  3.1767  1.5594  1.9424
  930MOL0     H22716   2.738   5.444   6.975 -0.4284 -1.6471 -1.3490
  930MOL0     H22717   2.731   5.329   7.092 -1.1554 -0.7721 -0.2719
  930MOL0     H22718   2.572   5.588   7.117  0.8948 -1.5273 -4.1182
  930MOL0     H22719   2.553   5.443   7.231  1.9581 -1.7877  0.4430
  930MOL0     H22720   2.766   5.473   7.314  2.5160  2.4670  1.6986
  930MOL0     H22721   2.677   5.623   7.329 -0.7084 -1.9044  1.1418
  930MOL0     H22722   2.878   5.620   7.427  1.0552 -2.1990  0.2935
  930MOL0     H22723   3.115   5.641   7.522  1.3285 -0.5642 -0.3138
  930MOL0     H22724   3.577   5.893   7.474 -2.4747 -3.4029  2.6439
  930MOL0     H22725   3.813   5.868   7.514  0.4744 -0.0171  0.5094
  930MOL0     H22726   4.047   5.815   7.494  0.6836 -3.1976  2.4767
  930MOL0     H22727   4.054   5.818   7.310  2.4559  1.1166  0.9166
  930MOL0     H22728   4.272   5.786   7.434  2.0551 -2.3842  0.1942
  930MOL0     H22729   4.226   5.666   7.301 -3.3371  0.5721 -2.3002
  930MOL0     H22730   4.163   5.515   7.484 -0.1135  0.3127 -1.5068
  930MOL0     H22731   4.186   5.637   7.606  1.3330 -1.2103  0.8068
  930MOL0     H22732   4.405   5.505   7.436 -2.1833 -2.8396  0.3526
  930MOL0     H22733   4.440   5.655   7.522  1.8058 -2.0615 -1.1493
  930MOL0     H22734   4.339   5.394   7.649 -0.0755 -0.2830  0.1969
  930MOL0     H22735   4.392   5.535   7.742  1.8436 -2.7467  1.2867
  930MOL0     H22736   4.562   5.372   7.736 -2.8805  1.4014  0.7137
  930MOL0     H22737   4.618   5.522   7.660  0.1401  0.5559 -0.9861
  930MOL0     H22738   4.516   5.327   7.478 -1.4262  1.3671  1.5538
  930MOL0     H22739   4.655   5.427   7.461  0.3590  0.4832  1.7959
  930MOL0     H22740   4.726   5.191   7.476 -3.6510 -0.6416 -1.1964
  930MOL0     H22741   4.673   5.185   7.647 -0.9194  0.7739 -0.4208
  930MOL0     H22742   3.821   5.538   7.236 -0.8120 -0.2317 -0.8846
  930MOL0     H22743   3.572   5.576   7.193  1.4805 -1.2781 -0.6672
  930MOL0     H22744   3.261   5.700   7.121  0.9426  1.1319  1.6064
  930MOL0     H22745   3.026   5.674   7.047 -0.8901 -0.1003  0.8003
  930MOL0     H22746   1.225   5.047   6.886 -1.9117 -1.1967  0.6397
  930MOL0     H22747   1.038   4.951   6.775  2.0001  0.8510  2.6867
  930MOL0     H22748   0.691   4.740   6.565  0.0255 -0.4766 -0.7541
  930MOL0     H22749   0.562   4.576   6.405  0.4224 -0.3355 -0.4239
  930MOL0     H22750   0.799   4.499   6.092 -0.0128  1.1103  0.0472
  930MOL0     H22751   0.691   4.554   5.968  4.5299  0.3131  0.1061
  930MOL0     H22752   0.740   4.308   5.967  2.7697  0.5049  3.2346
  930MOL0     H22753   0.670   4.288   6.132 -1.5417 -2.5197 -1.2455
  930MOL0     H22754   0.524   4.373   5.889  4.0558  4.4989  1.5934
  930MOL0     H22755   0.441   4.372   6.036  1.1258  3.4996 -1.9760
  930MOL0     H22756   0.566   4.125   5.904  1.2127  1.3222 -0.0437
  930MOL0     H22757   0.508   4.121   6.070 -0.6021  0.4322  1.1159
  930MOL0     H22758   0.138   4.097   5.882 -1.0520 -0.2716  0.3552
  930MOL0     H22759   0.818   4.735   6.098  0.1812 -0.7919  0.2492
  930MOL0     H22760   0.944   4.868   6.264 -0.7747  0.4113 -0.7199
  931MOL0     O22761   3.574   6.373   4.345 -0.3495 -0.1106  0.4995
  931MOL0     C22762   3.659   6.396   4.255  0.2145 -0.2997  0.0363
  931MOL0     O22763   3.630   6.393   4.122 -0.0297 -0.2143 -0.0648
  931MOL0     C22764   3.500   6.384   4.086  0.1082 -0.4657  0.8163
  931MOL0     C22765   3.410   6.485   4.098 -0.4517 -0.2863 -0.7514
  931MOL0     C22766   3.274   6.466   4.063 -0.0132  0.0465  0.6382
  931MOL0     C22767   3.229   6.350   4.012  0.4432  0.9800  0.6240
  931MOL0     O22768   3.095   6.338   4.000 -0.4244  0.1301  0.3282
  931MOL0     C22769   3.026   6.216   4.044 -0.0366  0.2910 -0.1210
  931MOL0     C22770   2.870   6.238   4.055 -0.7909  0.3187  0.1491
  931MOL0     C22771   2.809   6.282   3.930  0.2316  0.1050  0.1686
  931MOL0     C22772   2.673   6.354   3.933 -1.4669  0.5546 -0.2181
  931MOL0     C22773   2.653   6.449   3.809  0.1685  0.8835 -0.6000
  931MOL0     C22774   2.538   6.545   3.827 -0.5255  0.2515 -0.7512
  931MOL0     C22775   2.539   6.660   3.728 -0.9529 -0.2754  0.1376
  931MOL0     C22776   2.476   6.612   3.589 -0.6700 -0.9353  0.4082
  931MOL0     N22777   2.332   6.586   3.603 -0.0546 -0.0144  0.2302
  931MOL0     C22778   2.241   6.661   3.671  0.5996 -0.7279 -0.4832
  931MOL0     C22779   2.120   6.589   3.673 -0.1994 -0.3622  0.6373
  931MOL0     C22780   1.992   6.630   3.733  0.1407 -0.4782  0.4350
  931MOL0     C22781   1.947   6.550   3.857 -0.0319 -0.9418 -0.6207
  931MOL0     C22782   1.787   6.551   3.860  0.1815 -0.0764  0.3997
  931MOL0     C22783   1.721   6.681   3.873 -0.2779 -0.3976 -0.5316
  931MOL0     O22784   1.588   6.674   3.924  0.6145 -0.2849  0.8163
  931MOL0     C22785   1.494   6.760   3.856 -0.4713 -0.5366  0.1116
  931MOL0     C22786   1.489   6.789   3.722 -0.7660 -0.3237 -0.2926
  931MOL0     C22787   1.399   6.882   3.663  0.0517  0.1363  0.1857
  931MOL0     C22788   1.304   6.938   3.743  0.2734 -0.1487 -0.2599
  931MOL0     C22789   1.198   7.032   3.692  0.0203 -0.1616  0.7378
  931MOL0     O22790   1.176   7.022   3.558 -0.1623 -0.0179 -0.4851
  931MOL0     C22791   1.093   7.095   3.482 -0.6455 -0.1837 -0.2227
  931MOL0     C22792   0.975   7.160   3.524 -0.3125 -1.5036 -0.0355
  931MOL0     C22793   0.906   7.235   3.422  0.3415  1.1505  0.1063
  931MOL0     C22794   0.955   7.242   3.282  0.1254 -0.3138  0.1327
  931MOL0     O22795   0.881   7.320   3.190 -0.0085 -0.1000 -0.3080
  931MOL0     C22796   0.920   7.325   3.050 -0.0398  1.6168 -0.2053
  931MOL0     C22797   0.895   7.474   3.004 -1.0095 -0.4992  0.2351
  931MOL0     C22798   1.012   7.578   2.990 -0.1846 -0.1575  0.1449
  931MOL0     C22799   1.081   7.612   3.115  0.2635 -0.5929 -0.7378
  931MOL0     C22800   1.165   7.741   3.103  0.9140  0.3552 -0.2607
  931MOL0     C22801   1.245   7.772   3.230 -0.2883 -0.4318 -0.8252
  931MOL0     C22802   1.363   7.681   3.251 -0.2569 -0.9491 -0.4359
  931MOL0     C22803   1.466   7.753   3.336 -0.1441  0.3504 -0.1784
  931MOL0    Cl22804   1.564   7.882   3.244 -0.0209 -0.4788 -0.1218
  931MOL0     C22805   1.080   7.181   3.258 -0.0243 -0.4385 -0.2400
  931MOL0     C22806   1.143   7.104   3.349  0.0308  0.6464  0.0142
  931MOL0     O22807   1.132   7.100   3.777 -0.7991 -0.1204  0.7661
  931MOL0     C22808   1.302   6.904   3.880  0.6116 -0.1090 -0.0825
  931MOL0     C22809   1.393   6.817   3.937 -1.1138 -0.3382 -0.1317
  931MOL0     N22810   2.154   6.464   3.620  0.1877 -0.5866 -0.1360
  931MOL0     N22811   2.272   6.464   3.579  0.3385 -0.2832  0.2055
  931MOL0     C22812   3.323   6.247   3.983 -0.0220 -0.4109  0.3881
  931MOL0     C22813   3.457   6.274   4.015 -0.4827  0.6460 -0.9176
  931MOL0     C22814   3.800   6.410   4.301  0.0728  0.1774  0.1180
  931MOL0     C22815   3.826   6.402   4.444  0.2371 -0.4093 -0.3226
  931MOL0     C22816   3.959   6.429   4.488 -0.0148  0.3448 -0.0188
  931MOL0     C22817   4.055   6.478   4.408  0.5187 -0.2906  1.2436
  931MOL0     O22818   4.181   6.505   4.466  1.2114  0.4139  0.2195
  931MOL0     C22819   4.291   6.554   4.390 -0.0994  0.5593  0.1508
  931MOL0     C22820   4.413   6.549   4.476  0.5723 -1.0430 -0.8573
  931MOL0     C22821   4.419   6.669   4.574 -0.7159 -0.2939  1.2513
  931MOL0     C22822   4.483   6.801   4.503 -0.5002  0.8760  0.1267
  931MOL0     C22823   4.624   6.780   4.474 -1.1961 -0.0603 -0.4533
  931MOL0     C22824   4.732   6.745   4.451 -0.0996  0.1938 -0.1802
  931MOL0     C22825   4.028   6.489   4.265 -0.0675  0.0989  0.3987
  931MOL0     C22826   3.905   6.445   4.208  0.2379 -0.1010 -0.9187
  931MOL0     H22827   3.424   6.582   4.145 -0.7564 -0.8382  0.5314
  931MOL0     H22828   3.206   6.547   4.087  0.1037  0.4962 -0.4783
  931MOL0     H22829   3.077   6.175   4.132  1.5445 -0.1400 -1.1807
  931MOL0     H22830   3.056   6.139   3.972  1.6967  0.3847  0.4439
  931MOL0     H22831   2.853   6.304   4.141 -0.0420  0.1311  0.4397
  931MOL0     H22832   2.827   6.142   4.083  0.4907  0.6466  3.6261
  931MOL0     H22833   2.782   6.202   3.860 -2.2890  2.5008 -1.8628
  931MOL0     H22834   2.893   6.340   3.892  3.4091 -3.3741  1.2853
  931MOL0     H22835   2.584   6.291   3.938 -0.0350 -1.5784 -0.1339
  931MOL0     H22836   2.671   6.413   4.025  1.8734 -0.8151  0.9055
  931MOL0     H22837   2.628   6.384   3.725 -0.3616  1.1774 -0.6804
  931MOL0     H22838   2.751   6.488   3.781  0.0788  0.7372 -1.1291
  931MOL0     H22839   2.562   6.594   3.922 -1.1921  2.2913 -1.5571
  931MOL0     H22840   2.440   6.496   3.832 -0.3229 -0.0176  1.0950
  931MOL0     H22841   2.494   6.752   3.765 -3.9024 -0.4854 -2.4855
  931MOL0     H22842   2.638   6.703   3.714 -1.0369 -0.1894 -0.2024
  931MOL0     H22843   2.516   6.514   3.560 -0.9872 -1.3429  1.3109
  931MOL0     H22844   2.503   6.674   3.503  1.2875 -1.4925  0.5550
  931MOL0     H22845   2.242   6.761   3.713  0.1985 -0.8071 -0.2757
  931MOL0     H22846   1.915   6.609   3.657 -1.0912  0.6266  1.3419
  931MOL0     H22847   1.998   6.732   3.770  0.1674 -0.8410  1.4634
  931MOL0     H22848   1.977   6.613   3.942 -1.1508  0.2378 -1.0535
  931MOL0     H22849   1.984   6.450   3.838 -0.1469 -1.2009  0.4595
  931MOL0     H22850   1.742   6.505   3.772 -0.2925  0.7608  0.1940
  931MOL0     H22851   1.751   6.497   3.948  1.1349  0.6801  1.2953
  931MOL0     H22852   1.721   6.722   3.772 -2.7186 -1.4978 -1.0460
  931MOL0     H22853   1.783   6.743   3.939  1.6765 -1.1723 -1.5448
  931MOL0     H22854   1.564   6.749   3.655 -1.4437 -2.2523  0.0466
  931MOL0     H22855   1.407   6.902   3.557 -2.8244 -3.8509 -0.9834
  931MOL0     H22856   0.933   7.143   3.622 -0.1520  2.3103  0.8670
  931MOL0     H22857   0.808   7.274   3.449 -1.4009 -1.7536 -1.5040
  931MOL0     H22858   0.859   7.251   2.997 -1.7593 -1.0108  4.8086
  931MOL0     H22859   1.026   7.300   3.037 -0.7987 -1.3511 -1.4061
  931MOL0     H22860   0.822   7.523   3.069 -0.9654 -0.6553  0.4007
  931MOL0     H22861   0.852   7.469   2.903 -1.1561 -0.7477  0.3089
  931MOL0     H22862   0.976   7.670   2.942  0.2984 -0.5270 -0.9705
  931MOL0     H22863   1.087   7.532   2.925 -1.7401 -0.8211 -1.2849
  931MOL0     H22864   0.998   7.636   3.182  0.8166 -0.9631  0.0944
  931MOL0     H22865   1.131   7.521   3.148 -1.5926 -0.7757  1.9347
  931MOL0     H22866   1.104   7.824   3.066  3.4757  1.0247 -3.3839
  931MOL0     H22867   1.234   7.716   3.022 -0.1658 -1.8852 -0.5772
  931MOL0     H22868   1.179   7.742   3.312 -0.9141  0.9913 -0.7964
  931MOL0     H22869   1.285   7.873   3.234  0.0752 -0.5768 -0.6735
  931MOL0     H22870   1.331   7.591   3.304 -0.2017 -0.2515  0.8252
  931MOL0     H22871   1.398   7.649   3.153 -2.1732 -3.6414 -0.3546
  931MOL0     H22872   1.522   7.669   3.378 -0.4144 -1.0921 -2.5102
  931MOL0     H22873   1.413   7.802   3.418  0.0717  0.5336 -0.1489
  931MOL0     H22874   1.128   7.171   3.161 -2.6142 -0.7811 -1.5818
  931MOL0     H22875   1.233   7.059   3.309  0.0986  2.1554 -1.6882
  931MOL0     H22876   1.228   6.944   3.949  1.4473  3.7166 -1.2002
  931MOL0     H22877   1.391   6.803   4.044 -0.0216 -0.9875 -0.1813
  931MOL0     H22878   3.289   6.149   3.948 -0.6733  0.6277 -2.1538
  931MOL0     H22879   3.539   6.203   4.013  0.1665  1.3656 -0.3055
  931MOL0     H22880   3.750   6.359   4.508  2.7216 -1.3455  2.2322
  931MOL0     H22881   3.975   6.426   4.596 -0.7516 -0.4084  0.0795
  931MOL0     H22882   4.280   6.661   4.369  0.5909  0.5910 -0.0841
  931MOL0     H22883   4.303   6.478   4.313  1.3339 -3.3625  3.8498
  931MOL0     H22884   4.410   6.455   4.532  0.4649  0.0592  1.0934
  931MOL0     H22885   4.497   6.552   4.406 -0.9888  0.7804 -2.8057
  931MOL0     H22886   4.481   6.647   4.661 -1.1109 -1.7045  1.2132
  931MOL0     H22887   4.314   6.686   4.603 -0.4471  2.6120  0.7975
  931MOL0     H22888   4.429   6.830   4.412 -0.0811  2.4155  0.3303
  931MOL0     H22889   4.472   6.886   4.571 -0.6224  1.9645 -1.1870
  931MOL0     H22890   4.834   6.734   4.423 -0.3945 -0.3134 -1.0689
  931MOL0     H22891   4.112   6.522   4.204  0.2577 -1.0353  0.2196
  931MOL0     H22892   3.891   6.444   4.101  3.5777 -0.2849 -1.4839
  932MOL0     O22893   6.495   8.385   0.390  0.0487 -0.5534 -0.2849
  932MOL0     C22894   6.607   8.434   0.361  0.7187  0.9659  0.0839
  932MOL0     O22895   6.622   8.550   0.285 -0.6496 -0.7048 -0.7782
  932MOL0     C22896   6.511   8.623   0.232 -0.7380 -0.1014 -0.0329
  932MOL0     C22897   6.478   8.587   0.101 -0.6049  0.2217 -0.0068
  932MOL0     C22898   6.365   8.644   0.032 -0.0033 -0.1809 -0.1360
  932MOL0     C22899   6.293   8.739   0.104  0.5844 -0.4297  0.6590
  932MOL0     O22900   6.202   8.831   0.051  0.4658  0.4707  1.0738
  932MOL0     C22901   6.120   8.788  -0.065  0.4552  0.7287  0.4787
  932MOL0     C22902   5.997   8.879  -0.088 -0.8065  0.5867 -0.4323
  932MOL0     C22903   6.040   9.022  -0.111  0.2632 -0.2585 -0.1855
  932MOL0     C22904   5.924   9.107  -0.156  0.6694  0.6177 -0.1653
  932MOL0     C22905   5.967   9.248  -0.196  0.1430 -0.0072  1.0430
  932MOL0     C22906   5.850   9.335  -0.266  0.3593  0.2455 -1.6488
  932MOL0     C22907   5.836   9.291  -0.413 -0.4059 -0.1179 -0.0736
  932MOL0     C22908   5.713   9.356  -0.480  0.3034 -0.3899  0.2524
  932MOL0     N22909   5.707   9.343  -0.627 -0.0121 -0.0489  0.2441
  932MOL0     C22910   5.796   9.394  -0.711 -0.5761 -0.2225 -0.0517
  932MOL0     C22911   5.756   9.349  -0.833 -0.4262 -0.6064  0.2935
  932MOL0     C22912   5.840   9.351  -0.946 -0.7023  0.0653 -0.3457
  932MOL0     C22913   5.839   9.489  -1.006 -0.0870  0.2994  0.1192
  932MOL0     C22914   5.937   9.505  -1.116  0.2313  0.6361 -0.2942
  932MOL0     C22915   6.072   9.469  -1.066 -0.7359  0.1770  0.3004
  932MOL0     O22916   6.109   9.546  -0.946  0.1950  0.5329 -0.3597
  932MOL0     C22917   6.226   9.518  -0.880  0.4330  1.0260  0.0315
  932MOL0     C22918   6.264   9.596  -0.768  0.1278  0.8541  0.3788
  932MOL0     C22919   6.379   9.581  -0.701 -0.2216  0.9914 -0.0844
  932MOL0     C22920   6.482   9.492  -0.743  0.2015 -0.6852  1.0311
  932MOL0     C22921   6.627   9.489  -0.687 -0.5506 -0.3873  0.3390
  932MOL0     O22922   6.709   9.381  -0.730 -0.3964 -0.3991  0.1252
  932MOL0     C22923   6.825   9.365  -0.671 -0.3685 -0.1920 -0.7571
  932MOL0     C22924   6.846   9.364  -0.529 -0.2261  0.2252 -0.0224
  932MOL0     C22925   6.977   9.338  -0.485 -0.0630 -0.2245  0.0816
  932MOL0     C22926   7.083   9.303  -0.572 -0.4620 -0.4640 -0.7082
  932MOL0     O22927   7.207   9.261  -0.533  0.0008  0.4913 -0.0877
  932MOL0     C22928   7.261   9.326  -0.417 -0.9246  0.0761  0.0680
  932MOL0     C22929   7.404   9.363  -0.448  0.1878  1.1671 -0.1067
  932MOL0     C22930   7.434   9.491  -0.537  0.0298  1.1631  0.5969
  932MOL0     C22931   7.383   9.617  -0.476 -0.1569 -0.8696 -0.8167
  932MOL0     C22932   7.445   9.756  -0.531 -0.1056  0.2556 -0.7240
  932MOL0     C22933   7.371   9.874  -0.468 -0.2660  0.5121  1.2965
  932MOL0     C22934   7.449  10.007  -0.478  0.1983 -0.8180 -0.2600
  932MOL0     C22935   7.485  10.068  -0.616 -0.8757  0.0495  0.3320
  932MOL0    Cl22936   7.444   9.974  -0.755 -0.1988 -0.1592  0.5291
  932MOL0     C22937   7.053   9.296  -0.701 -0.4174  0.1444  0.8065
  932MOL0     C22938   6.933   9.346  -0.756  0.9625  0.2281  0.0437
  932MOL0     O22939   6.661   9.578  -0.612  1.0468 -0.1693 -0.0691
  932MOL0     C22940   6.445   9.414  -0.855  0.0635 -0.3270  0.2097
  932MOL0     C22941   6.318   9.418  -0.919  0.2914  0.4933 -0.5592
  932MOL0     N22942   5.638   9.291  -0.827  0.0861 -0.6187 -0.0936
  932MOL0     N22943   5.621   9.275  -0.701 -0.4151 -0.0091  0.3661
  932MOL0     C22944   6.330   8.777   0.231  0.1172  0.0672  0.1635
  932MOL0     C22945   6.436   8.722   0.295 -0.1419 -0.0034  0.7374
  932MOL0     C22946   6.725   8.361   0.413 -0.7240 -0.3692  0.3013
  932MOL0     C22947   6.848   8.417   0.384  0.6801  0.1919  0.6316
  932MOL0     C22948   6.962   8.356   0.423  0.7900  0.0035  0.6724
  932MOL0     C22949   6.957   8.232   0.480 -0.1362  0.1756 -0.3217
  932MOL0     O22950   7.078   8.160   0.487  0.2421 -0.2486  0.2684
  932MOL0     C22951   7.113   8.120   0.621  0.0363 -0.2050  0.4237
  932MOL0     C22952   7.267   8.098   0.645 -0.4350  0.2316 -0.9822
  932MOL0     C22953   7.348   8.218   0.608  0.0452  0.4432  0.2644
  932MOL0     C22954   7.497   8.204   0.642  0.0811  0.1357 -0.0234
  932MOL0     C22955   7.560   8.104   0.558 -0.3150  0.3201  0.6147
  932MOL0     C22956   7.612   8.011   0.508 -0.3771 -0.2280  0.5788
  932MOL0     C22957   6.840   8.180   0.516  0.2329  0.7045  0.2975
  932MOL0     C22958   6.717   8.244   0.486  0.0573  0.6558  0.0636
  932MOL0     H22959   6.538   8.507   0.060  2.0186  1.2832  1.4922
  932MOL0     H22960   6.337   8.606  -0.066  0.2523  0.8062 -0.6142
  932MOL0     H22961   6.069   8.692  -0.051 -2.0134  1.2604 -3.3135
  932MOL0     H22962   6.186   8.787  -0.152 -0.9013 -1.1534 -0.6008
  932MOL0     H22963   5.928   8.866  -0.005 -0.1899  1.7444  0.2950
  932MOL0     H22964   5.954   8.835  -0.178 -0.5708  0.2672 -0.3906
  932MOL0     H22965   6.119   9.013  -0.186 -0.0482 -0.0660 -0.5447
  932MOL0     H22966   6.075   9.067  -0.017  1.0281  0.2225 -0.6865
  932MOL0     H22967   5.886   9.048  -0.240 -0.8963 -1.4679  1.8908
  932MOL0     H22968   5.847   9.114  -0.078 -0.4719  2.6493 -1.3700
  932MOL0     H22969   6.060   9.249  -0.254  0.5379 -2.4790  1.5219
  932MOL0     H22970   5.993   9.297  -0.102  0.3390 -1.3367  1.6985
  932MOL0     H22971   5.875   9.441  -0.251 -0.7667  0.2248  0.8054
  932MOL0     H22972   5.754   9.311  -0.220  2.0665  0.6455  2.5280
  932MOL0     H22973   5.921   9.330  -0.469  0.6031  0.7594  1.9316
  932MOL0     H22974   5.815   9.184  -0.423 -1.1625 -0.2294  2.0463
  932MOL0     H22975   5.704   9.464  -0.462 -1.3152 -0.8854  2.9635
  932MOL0     H22976   5.620   9.311  -0.444  0.6404 -1.7425 -0.5463
  932MOL0     H22977   5.880   9.460  -0.694  0.9255 -2.8528  4.0617
  932MOL0     H22978   5.814   9.268  -1.013  0.8952 -2.0037  1.4580
  932MOL0     H22979   5.935   9.331  -0.897 -1.4721  1.1764  1.7262
  932MOL0     H22980   5.867   9.559  -0.927  1.8367 -1.3039  0.9298
  932MOL0     H22981   5.740   9.522  -1.037 -1.2490  0.3288  3.4773
  932MOL0     H22982   5.909   9.434  -1.195 -0.1473  2.2039 -1.6498
  932MOL0     H22983   5.929   9.606  -1.158 -2.0009 -0.3946 -2.6605
  932MOL0     H22984   6.137   9.492  -1.151 -0.4093 -2.3585 -0.2139
  932MOL0     H22985   6.083   9.361  -1.055 -0.3772  0.0817 -0.8648
  932MOL0     H22986   6.194   9.675  -0.743 -3.2239 -0.7750 -2.9381
  932MOL0     H22987   6.392   9.660  -0.628  2.4216  0.5075  0.0677
  932MOL0     H22988   6.767   9.390  -0.460  2.0673  0.5297  2.6780
  932MOL0     H22989   6.978   9.332  -0.376 -0.5563 -0.9685  0.0516
  932MOL0     H22990   7.270   9.256  -0.334 -0.3403  0.5919  0.4522
  932MOL0     H22991   7.200   9.408  -0.378  1.1926  1.8342 -0.1503
  932MOL0     H22992   7.448   9.275  -0.497 -1.9128 -0.9663  1.5649
  932MOL0     H22993   7.458   9.363  -0.353  3.1846 -0.7553 -1.6406
  932MOL0     H22994   7.394   9.473  -0.637 -0.4175 -3.1491  1.3473
  932MOL0     H22995   7.542   9.496  -0.554 -0.1267 -1.5514 -2.0116
  932MOL0     H22996   7.273   9.620  -0.480 -0.1609  2.1181 -0.3956
  932MOL0     H22997   7.401   9.621  -0.369 -1.4618 -0.9558 -0.5782
  932MOL0     H22998   7.442   9.771  -0.639 -4.9990  2.3777 -0.5356
  932MOL0     H22999   7.551   9.766  -0.507 -0.5021 -0.3830  1.5643
  932MOL0     H23000   7.359   9.857  -0.361  0.2503 -0.3271  1.2314
  932MOL0     H23001   7.271   9.877  -0.512  1.3421  1.3969 -2.7896
  932MOL0     H23002   7.377  10.083  -0.448  0.9266 -0.6449  1.1012
  932MOL0     H23003   7.531  10.019  -0.408 -0.0518 -3.6776  0.6386
  932MOL0     H23004   7.593  10.083  -0.610 -0.5340 -2.4383  2.7260
  932MOL0     H23005   7.427  10.160  -0.622 -0.7254  0.0459 -2.2070
  932MOL0     H23006   7.129   9.264  -0.772  0.7043  2.8675  0.6567
  932MOL0     H23007   6.916   9.349  -0.863  1.2843 -1.9905 -0.1132
  932MOL0     H23008   6.516   9.352  -0.908 -0.9812  0.0699 -1.7386
  932MOL0     H23009   6.300   9.352  -1.003 -1.1706 -0.2618  0.3284
  932MOL0     H23010   6.275   8.863   0.269  2.0559  3.0556 -3.1988
  932MOL0     H23011   6.459   8.756   0.395 -1.1282  1.6718  0.4336
  932MOL0     H23012   6.855   8.502   0.317 -0.2096  2.8118  3.6224
  932MOL0     H23013   7.057   8.398   0.394  2.0898 -2.1078  1.6878
  932MOL0     H23014   7.068   8.025   0.649 -0.3639 -0.6528 -1.5681
  932MOL0     H23015   7.086   8.202   0.688 -1.1671  1.7824 -2.2787
  932MOL0     H23016   7.288   8.074   0.750  1.1387 -0.2133 -1.3629
  932MOL0     H23017   7.301   8.009   0.591 -2.9950 -0.5527 -1.4144
  932MOL0     H23018   7.313   8.310   0.656 -0.1449  0.4372  0.1379
  932MOL0     H23019   7.336   8.248   0.503  0.9773  2.5596  0.7064
  932MOL0     H23020   7.557   8.290   0.610  0.2366 -0.2263 -0.7396
  932MOL0     H23021   7.510   8.183   0.748  0.4375 -1.4922 -0.3642
  932MOL0     H23022   7.654   7.917   0.478 -0.0059  0.1351 -0.0830
  932MOL0     H23023   6.836   8.088   0.575  2.0267  0.7040  0.4655
  932MOL0     H23024   6.618   8.209   0.512 -0.7136  2.2375 -0.6621
  933MOL0     O23025   5.678   1.028   8.496  0.1304  0.1234  0.2457
  933MOL0     C23026   5.707   1.085   8.599 -0.1030 -0.0395 -0.5925
  933MOL0     O23027   5.631   1.184   8.655 -0.2622 -0.0804 -0.3029
  933MOL0     C23028   5.499   1.213   8.610 -0.0489  0.4148 -0.5756
  933MOL0     C23029   5.446   1.335   8.652  0.5171  0.7753 -0.8707
  933MOL0     C23030   5.315   1.372   8.617  0.4909  0.1547  0.8996
  933MOL0     C23031   5.231   1.299   8.525  0.1587 -0.4680 -0.2886
  933MOL0     O23032   5.112   1.328   8.478  1.2578 -0.0311 -0.1368
  933MOL0     C23033   5.058   1.444   8.519  0.9943 -0.0096 -0.1522
  933MOL0     C23034   4.922   1.448   8.443 -0.3430 -0.7900  0.0370
  933MOL0     C23035   4.808   1.510   8.527  0.0818  0.3954 -0.6231
  933MOL0     C23036   4.685   1.529   8.430 -0.6897  0.7194  0.6735
  933MOL0     C23037   4.574   1.616   8.499 -0.3103  0.2523  0.2029
  933MOL0     C23038   4.450   1.626   8.417  0.4631 -1.9231  0.0289
  933MOL0     C23039   4.358   1.736   8.491 -0.2105 -0.3266  1.6595
  933MOL0     C23040   4.228   1.756   8.410 -0.5624  0.5616  0.6998
  933MOL0     N23041   4.140   1.642   8.381  0.4756 -0.1423 -0.1588
  933MOL0     C23042   4.122   1.545   8.476  0.0969  0.1468  1.1047
  933MOL0     C23043   4.048   1.453   8.410 -0.1181  0.2189  0.7822
  933MOL0     C23044   3.982   1.339   8.471 -0.2944 -0.0955  0.8785
  933MOL0     C23045   3.828   1.327   8.451 -0.7495 -0.6094 -0.1517
  933MOL0     C23046   3.765   1.201   8.518  0.2015 -0.1958 -1.4109
  933MOL0     C23047   3.610   1.210   8.508 -0.2086  0.1408  0.2617
  933MOL0     O23048   3.569   1.165   8.382  0.6005  0.3177 -0.0697
  933MOL0     C23049   3.437   1.135   8.360  0.7899  0.1551 -0.4540
  933MOL0     C23050   3.416   1.076   8.237 -0.0150 -0.5941  0.0051
  933MOL0     C23051   3.286   1.086   8.185 -0.4814  0.0443 -0.4822
  933MOL0     C23052   3.175   1.124   8.265 -0.2806  0.0160  0.3388
  933MOL0     C23053   3.036   1.108   8.212 -0.5025  0.3033  0.0824
  933MOL0     O23054   2.938   1.145   8.290  0.5869  1.0883  0.4033
  933MOL0     C23055   2.811   1.140   8.248 -0.0595 -0.5360  0.5401
  933MOL0     C23056   2.764   1.183   8.126  0.0634 -1.2021  1.2038
  933MOL0     C23057   2.629   1.167   8.090 -0.6519  0.3497  0.1892
  933MOL0     C23058   2.548   1.094   8.181  0.6821  0.0511  0.7322
  933MOL0     O23059   2.414   1.081   8.156  0.3320  0.0209 -0.2548
  933MOL0     C23060   2.358   1.066   8.027 -0.8015 -0.1578 -0.0026
  933MOL0     C23061   2.215   1.107   8.007  0.0165 -0.0151  0.0647
  933MOL0     C23062   2.183   1.103   7.859 -0.1110 -0.2720  0.9829
  933MOL0     C23063   2.062   1.181   7.809  0.3743 -0.1560  0.3624
  933MOL0     C23064   1.919   1.130   7.867  0.1906  0.4800  0.1937
  933MOL0     C23065   1.859   1.022   7.778 -0.6275  0.4820  1.2812
  933MOL0     C23066   1.735   0.948   7.811  0.2561  0.9600  1.6355
  933MOL0     C23067   1.624   1.041   7.806 -0.4654  0.1149  0.0364
  933MOL0    Cl23068   1.469   0.950   7.812 -0.2509 -0.6458 -0.0268
  933MOL0     C23069   2.596   1.051   8.302  0.1288  1.1687 -0.1615
  933MOL0     C23070   2.731   1.067   8.329  0.1792 -0.9775 -1.0748
  933MOL0     O23071   3.022   1.064   8.098 -0.4537 -0.1040 -0.7187
  933MOL0     C23072   3.191   1.169   8.397  0.4989  0.0479 -0.1610
  933MOL0     C23073   3.331   1.177   8.443 -0.2798 -0.1684 -0.1192
  933MOL0     N23074   4.020   1.492   8.280  0.3428  0.2927  0.2852
  933MOL0     N23075   4.076   1.609   8.265  0.5620 -0.4227  0.0674
  933MOL0     C23076   5.296   1.179   8.482 -0.8943 -0.2142  0.4257
  933MOL0     C23077   5.419   1.137   8.524 -0.6145  0.1558 -0.3738
  933MOL0     C23078   5.830   1.045   8.660  0.9797 -0.3526 -0.2375
  933MOL0     C23079   5.934   0.997   8.575  0.2312 -0.3725  0.2381
  933MOL0     C23080   6.060   0.959   8.628  1.2050 -0.5967  0.4075
  933MOL0     C23081   6.086   0.966   8.763 -0.1190 -0.7229 -0.4972
  933MOL0     O23082   6.206   0.951   8.821  0.0739  0.6259 -0.5855
  933MOL0     C23083   6.298   0.859   8.759 -0.2847  1.0226 -0.0910
  933MOL0     C23084   6.411   0.947   8.690 -0.2792 -0.1820 -0.4772
  933MOL0     C23085   6.470   1.065   8.754 -0.0802 -0.3105 -0.0283
  933MOL0     C23086   6.560   1.136   8.662  0.7589 -0.4432  0.3116
  933MOL0     C23087   6.641   1.225   8.740 -0.4206 -0.1138  0.4521
  933MOL0     C23088   6.702   1.310   8.805 -0.8721 -0.3106  0.5678
  933MOL0     C23089   5.980   1.010   8.851  0.3560  0.2051 -0.7443
  933MOL0     C23090   5.847   1.046   8.805 -0.6047 -0.3142  0.9797
  933MOL0     H23091   5.500   1.385   8.732  0.1403  1.0202 -0.7705
  933MOL0     H23092   5.279   1.461   8.668  0.3225  0.3399  0.4576
  933MOL0     H23093   5.110   1.536   8.491 -1.8312  1.6217 -0.5135
  933MOL0     H23094   5.024   1.430   8.622 -0.1836  1.7731 -0.2422
  933MOL0     H23095   4.890   1.348   8.415 -2.0666  0.5511 -3.3887
  933MOL0     H23096   4.939   1.503   8.350 -1.3746 -0.5147 -0.0101
  933MOL0     H23097   4.841   1.611   8.548  4.0652 -1.0624  1.0139
  933MOL0     H23098   4.787   1.449   8.615 -0.0913  1.1790 -0.1131
  933MOL0     H23099   4.718   1.577   8.337  0.9335 -0.7126  0.4780
  933MOL0     H23100   4.653   1.429   8.401 -1.4951  1.0568  0.3634
  933MOL0     H23101   4.622   1.713   8.513  1.4391 -0.2802 -1.5821
  933MOL0     H23102   4.550   1.596   8.604 -0.2477  2.6939  0.7528
  933MOL0     H23103   4.401   1.528   8.409  0.6997 -1.9184 -1.8875
  933MOL0     H23104   4.495   1.666   8.326 -3.1587  0.2964 -1.0066
  933MOL0     H23105   4.338   1.706   8.594  0.1629  0.2403  1.9023
  933MOL0     H23106   4.408   1.833   8.491  1.3122 -1.0357 -0.3083
  933MOL0     H23107   4.256   1.805   8.316  0.1016  4.0449  2.5480
  933MOL0     H23108   4.164   1.830   8.461  1.1273  1.2838  1.8768
  933MOL0     H23109   4.135   1.547   8.583 -2.0716  2.4266  1.3916
  933MOL0     H23110   4.005   1.320   8.576  0.6728 -3.9119  0.1113
  933MOL0     H23111   4.030   1.255   8.420 -0.6407  0.6377 -0.7132
  933MOL0     H23112   3.812   1.305   8.345 -0.9069 -0.8908 -0.0679
  933MOL0     H23113   3.772   1.418   8.475  2.8034  1.5251  0.8779
  933MOL0     H23114   3.800   1.112   8.464  0.9859 -2.9479  3.1339
  933MOL0     H23115   3.798   1.190   8.622 -1.5677 -0.1875 -0.8181
  933MOL0     H23116   3.581   1.314   8.525 -0.1020 -0.2475  3.6910
  933MOL0     H23117   3.563   1.161   8.594  1.2557  0.7547  1.4711
  933MOL0     H23118   3.512   1.044   8.195  1.5638  2.2265  1.1878
  933MOL0     H23119   3.272   1.042   8.087 -3.5818 -0.1218 -0.0599
  933MOL0     H23120   2.827   1.233   8.052 -1.5936  1.3277  1.3897
  933MOL0     H23121   2.606   1.214   7.996  0.5044  2.5370  0.9311
  933MOL0     H23122   2.371   0.964   7.989 -2.6348  0.1312 -1.5163
  933MOL0     H23123   2.423   1.125   7.962 -0.4712 -1.3708 -0.8248
  933MOL0     H23124   2.200   1.209   8.043 -1.4225  0.2254 -1.1135
  933MOL0     H23125   2.137   1.045   8.051  0.8878 -0.6466  0.7398
  933MOL0     H23126   2.181   1.006   7.808  1.2803  1.3854 -2.4784
  933MOL0     H23127   2.261   1.154   7.803 -1.1055 -1.7181 -1.8910
  933MOL0     H23128   2.086   1.285   7.833  4.7107 -0.6354 -1.0370
  933MOL0     H23129   2.061   1.165   7.701  2.6553  0.0337  0.2787
  933MOL0     H23130   1.856   1.217   7.885 -0.4219  1.4251 -5.0278
  933MOL0     H23131   1.944   1.076   7.959  3.2177  0.6028 -0.4532
  933MOL0     H23132   1.932   0.942   7.764 -2.1195 -0.7654  0.3764
  933MOL0     H23133   1.866   1.066   7.678  0.9699  0.2688  1.2670
  933MOL0     H23134   1.726   0.865   7.740 -1.3321 -0.0495  2.9269
  933MOL0     H23135   1.754   0.893   7.904  3.4350  1.1111  1.1765
  933MOL0     H23136   1.629   1.103   7.716 -2.2578 -2.9752 -2.4277
  933MOL0     H23137   1.629   1.110   7.890  2.5400 -2.0575  1.8370
  933MOL0     H23138   2.533   0.996   8.371 -1.9110 -2.7002 -4.5594
  933MOL0     H23139   2.768   1.031   8.425  1.9339  0.8876 -0.9966
  933MOL0     H23140   3.112   1.205   8.462 -0.3427  0.2324 -1.2600
  933MOL0     H23141   3.354   1.230   8.535 -3.1752  0.6662  0.2208
  933MOL0     H23142   5.236   1.121   8.413 -2.7186 -1.0689  2.5921
  933MOL0     H23143   5.452   1.038   8.495 -0.8017 -0.5018  1.5284
  933MOL0     H23144   5.917   0.979   8.469 -1.2401 -0.6362  0.5071
  933MOL0     H23145   6.126   0.935   8.545  0.5873  0.1441 -0.3119
  933MOL0     H23146   6.244   0.787   8.698 -3.2021  4.0394 -1.4229
  933MOL0     H23147   6.347   0.801   8.837  0.0589  0.6050 -0.6157
  933MOL0     H23148   6.494   0.881   8.664  0.0218 -0.4563  1.0794
  933MOL0     H23149   6.371   0.984   8.595  1.9624  0.3784 -1.2852
  933MOL0     H23150   6.507   1.047   8.856 -2.9107  2.8879  1.8088
  933MOL0     H23151   6.389   1.138   8.766 -0.2615 -0.8330  2.7933
  933MOL0     H23152   6.622   1.056   8.618 -1.8701 -2.9609  0.8838
  933MOL0     H23153   6.501   1.180   8.581  2.2767 -0.6196 -0.9341
  933MOL0     H23154   6.736   1.394   8.862 -1.0426 -0.9765  1.6755
  933MOL0     H23155   6.010   1.020   8.955 -2.4562  3.0314 -0.0296
  933MOL0     H23156   5.771   1.081   8.874  2.0405  2.0854  2.9352
  934MOL0     O23157   0.494   3.700   9.318 -0.4446 -0.0059  0.7339
  934MOL0     C23158   0.485   3.801   9.394 -1.0476  0.3786 -0.2468
  934MOL0     O23159   0.376   3.877   9.422  0.1842  0.1626 -0.0579
  934MOL0     C23160   0.254   3.854   9.370 -0.2272 -0.8805 -1.0118
  934MOL0     C23161   0.176   3.963   9.323  0.5943 -0.0597  0.3742
  934MOL0     C23162   0.055   3.932   9.254 -0.2794  0.9845 -0.3330
  934MOL0     C23163   0.009   3.800   9.250  1.0580  0.8184  1.1485
  934MOL0     O23164  -0.104   3.754   9.178 -0.5873  0.0481  0.2985
  934MOL0     C23165  -0.108   3.821   9.048 -0.5851  0.6593 -0.5021
  934MOL0     C23166  -0.227   3.769   8.962  0.4745  0.1527  0.1523
  934MOL0     C23167  -0.374   3.797   9.018  0.5817  0.4332 -0.0062
  934MOL0     C23168  -0.484   3.735   8.929 -0.3649  0.4584  0.0146
  934MOL0     C23169  -0.622   3.797   8.952  1.0991  0.5427 -0.0578
  934MOL0     C23170  -0.721   3.730   8.869 -0.7060  0.5639  0.1853
  934MOL0     C23171  -0.862   3.776   8.890 -0.4934  0.3742 -0.6873
  934MOL0     C23172  -0.930   3.732   9.014 -0.4029  0.3851 -0.3485
  934MOL0     N23173  -1.076   3.748   9.008  0.6703  0.1129  0.8409
  934MOL0     C23174  -1.160   3.677   9.079 -0.2708 -0.9475  0.2780
  934MOL0     C23175  -1.285   3.707   9.035 -0.6981  0.6444 -0.3245
  934MOL0     C23176  -1.411   3.655   9.099  0.0564 -0.7787  1.2797
  934MOL0     C23177  -1.532   3.744   9.084  0.0119 -0.5651  0.3587
  934MOL0     C23178  -1.652   3.692   9.154  1.0859 -0.0120 -0.3212
  934MOL0     C23179  -1.784   3.763   9.124 -0.1932  0.6388  0.5774
  934MOL0     O23180  -1.816   3.756   8.982 -0.0713 -0.3844 -0.6695
  934MOL0     C23181  -1.948   3.759   8.946 -0.1847  0.4084  0.0332
  934MOL0     C23182  -2.050   3.821   9.018  0.3994  0.1189  0.3276
  934MOL0     C23183  -2.180   3.818   8.973  0.0407  0.5243 -0.1417
  934MOL0     C23184  -2.205   3.779   8.841 -0.0872 -0.4945  0.2689
  934MOL0     C23185  -2.349   3.781   8.795 -0.2957  0.6552  0.7005
  934MOL0     O23186  -2.365   3.718   8.676  0.8030 -0.5156 -0.3773
  934MOL0     C23187  -2.488   3.707   8.603  0.2267 -0.3664 -0.5428
  934MOL0     C23188  -2.605   3.783   8.620 -0.1475 -0.3166  0.9167
  934MOL0     C23189  -2.723   3.747   8.555  0.0551  0.0122  0.1157
  934MOL0     C23190  -2.738   3.640   8.472 -0.3095 -0.3349  0.3039
  934MOL0     O23191  -2.850   3.603   8.404  0.6256 -0.1803  0.2202
  934MOL0     C23192  -2.975   3.658   8.455  1.0829  0.8625 -0.5334
  934MOL0     C23193  -3.103   3.565   8.418 -0.2882 -0.0764 -0.2441
  934MOL0     C23194  -3.101   3.455   8.513 -0.0105  1.6532 -0.2123
  934MOL0     C23195  -3.202   3.340   8.481 -0.9411 -0.5139 -0.3464
  934MOL0     C23196  -3.207   3.226   8.585 -0.4633  0.3070  0.3096
  934MOL0     C23197  -3.076   3.156   8.587 -0.5710  0.2079 -0.0179
  934MOL0     C23198  -3.071   3.045   8.691  0.2317  0.3678 -0.0079
  934MOL0     C23199  -2.932   2.988   8.732 -0.5032 -0.7859 -0.0846
  934MOL0    Cl23200  -2.937   2.850   8.848  0.8038 -0.3631 -0.1832
  934MOL0     C23201  -2.617   3.586   8.436 -0.6971  0.9344 -0.2565
  934MOL0     C23202  -2.500   3.611   8.498 -0.7565  0.3807 -0.0156
  934MOL0     O23203  -2.434   3.839   8.857  0.9219 -0.3509 -0.8478
  934MOL0     C23204  -2.106   3.716   8.768  0.4726  0.0458  0.1484
  934MOL0     C23205  -1.977   3.712   8.823 -0.4716  0.2671 -0.7234
  934MOL0     N23206  -1.275   3.796   8.928  0.0672  0.3113 -0.5188
  934MOL0     N23207  -1.142   3.817   8.910  0.8396 -0.7069 -0.6650
  934MOL0     C23208   0.072   3.700   9.323  0.2423  0.1463  1.0624
  934MOL0     C23209   0.195   3.732   9.381  0.2590  0.0141 -0.9985
  934MOL0     C23210   0.620   3.841   9.458 -0.1747  0.1035  0.0757
  934MOL0     C23211   0.740   3.766   9.454 -0.2781  0.3642 -0.0076
  934MOL0     C23212   0.847   3.807   9.530 -0.7630 -0.3117 -0.6841
  934MOL0     C23213   0.852   3.922   9.615  0.2856  0.2629  0.0905
  934MOL0     O23214   0.951   3.967   9.694  0.0147  0.4528  0.2619
  934MOL0     C23215   1.073   3.892   9.691 -1.6493 -0.1117  0.2987
  934MOL0     C23216   1.178   3.942   9.802  0.3023  0.3081  0.4205
  934MOL0     C23217   1.331   3.935   9.768 -0.1894  0.8086 -0.5102
  934MOL0     C23218   1.408   4.017   9.874  0.7227 -0.1358 -0.1944
  934MOL0     C23219   1.452   3.932   9.978 -0.7102 -0.2486 -0.4356
  934MOL0     C23220   1.491   3.851  10.062  0.5648  0.2608  0.3997
  934MOL0     C23221   0.733   3.995   9.617  0.2443  0.2489  0.1487
  934MOL0     C23222   0.617   3.956   9.544 -0.2210  0.8455 -0.1259
  934MOL0     H23223   0.214   4.064   9.318 -0.1975  0.2325  0.2132
  934MOL0     H23224  -0.004   4.016   9.220  0.1010  1.6459  0.6161
  934MOL0     H23225  -0.011   3.806   8.999  1.0272 -0.2342  2.6692
  934MOL0     H23226  -0.120   3.928   9.067 -0.5328  0.2101  2.6617
  934MOL0     H23227  -0.224   3.660   8.956  1.1979  0.0225  2.2304
  934MOL0     H23228  -0.206   3.802   8.860 -1.3261 -1.0368 -0.6568
  934MOL0     H23229  -0.400   3.902   9.009 -1.0183 -0.0409 -1.4122
  934MOL0     H23230  -0.378   3.766   9.123  2.6364 -2.9820 -0.7703
  934MOL0     H23231  -0.459   3.745   8.823 -4.1360  1.4177 -0.9273
  934MOL0     H23232  -0.483   3.628   8.954  1.1218  0.3775 -0.3059
  934MOL0     H23233  -0.619   3.901   8.919  0.8518  0.7338  0.5118
  934MOL0     H23234  -0.648   3.794   9.058  1.6690 -0.3385  0.0634
  934MOL0     H23235  -0.720   3.623   8.895 -1.5958  0.8248  1.3406
  934MOL0     H23236  -0.694   3.742   8.764  1.5100  1.7932  0.8328
  934MOL0     H23237  -0.853   3.884   8.897 -0.0168  0.2482  1.1100
  934MOL0     H23238  -0.913   3.758   8.795 -1.9886  2.2579 -0.2884
  934MOL0     H23239  -0.897   3.778   9.107  1.0265 -3.4940  1.2926
  934MOL0     H23240  -0.899   3.628   9.025 -2.8962 -0.3309  0.4876
  934MOL0     H23241  -1.145   3.602   9.155 -0.8822 -0.8222  0.5323
  934MOL0     H23242  -1.396   3.647   9.207  3.0094 -1.1883  0.9096
  934MOL0     H23243  -1.429   3.555   9.058  0.6496  0.4488 -2.3759
  934MOL0     H23244  -1.554   3.758   8.977 -0.7127 -0.2155  0.5431
  934MOL0     H23245  -1.507   3.843   9.124  0.4072  0.5196 -2.3768
  934MOL0     H23246  -1.667   3.588   9.125 -0.6192 -0.1610  0.9723
  934MOL0     H23247  -1.621   3.701   9.259 -0.0485 -0.1890  0.0368
  934MOL0     H23248  -1.778   3.870   9.148  0.3054  0.8462 -0.4142
  934MOL0     H23249  -1.866   3.718   9.180  0.2928  0.3731  1.0846
  934MOL0     H23250  -2.040   3.846   9.123 -1.4186  1.4819  0.2108
  934MOL0     H23251  -2.266   3.842   9.035 -0.1275  0.6990 -0.4395
  934MOL0     H23252  -2.600   3.858   8.698  1.4830 -0.8658  1.3731
  934MOL0     H23253  -2.810   3.798   8.594 -0.2001 -0.1875 -0.1817
  934MOL0     H23254  -2.999   3.754   8.408 -1.1977  0.1624 -0.8915
  934MOL0     H23255  -2.966   3.667   8.563  2.1341  0.5316 -0.5816
  934MOL0     H23256  -3.086   3.544   8.312  2.1270 -0.2468  0.1138
  934MOL0     H23257  -3.199   3.616   8.419 -1.3308 -1.6375  4.4639
  934MOL0     H23258  -3.135   3.488   8.611 -2.3335 -1.1634  0.0589
  934MOL0     H23259  -2.999   3.415   8.510  0.0931  1.8847  0.1318
  934MOL0     H23260  -3.300   3.382   8.458 -0.6318  2.0696  2.3122
  934MOL0     H23261  -3.166   3.289   8.392 -0.2885  0.5276 -0.6995
  934MOL0     H23262  -3.276   3.149   8.550 -1.4583  0.6288  1.5155
  934MOL0     H23263  -3.234   3.282   8.675 -1.3978  2.3606 -1.1586
  934MOL0     H23264  -2.994   3.227   8.601 -1.2992  1.0610 -0.0414
  934MOL0     H23265  -3.058   3.109   8.489 -2.2075 -0.9431  0.2022
  934MOL0     H23266  -3.130   3.082   8.775 -2.1443 -2.4783 -0.2288
  934MOL0     H23267  -3.131   2.958   8.660  0.6570 -0.2306  0.8165
  934MOL0     H23268  -2.874   3.073   8.768  0.0396  1.0097 -4.5591
  934MOL0     H23269  -2.884   2.943   8.645 -1.3445  1.0175 -1.5506
  934MOL0     H23270  -2.616   3.507   8.362  0.9679  0.2821  0.4040
  934MOL0     H23271  -2.411   3.549   8.489  1.6315  3.3020  1.6633
  934MOL0     H23272  -2.126   3.670   8.672  1.3583  0.6707 -0.3443
  934MOL0     H23273  -1.893   3.663   8.774  1.8019  0.5543  2.5684
  934MOL0     H23274   0.028   3.601   9.320 -0.1080  0.2637  1.9969
  934MOL0     H23275   0.244   3.656   9.441  1.7849  1.6312 -0.0916
  934MOL0     H23276   0.755   3.666   9.412  2.8332 -0.1927  2.0599
  934MOL0     H23277   0.925   3.732   9.521 -2.0618 -1.4513 -3.3787
  934MOL0     H23278   1.098   3.891   9.585  2.4805 -0.7414  1.1296
  934MOL0     H23279   1.065   3.786   9.716 -0.2769  0.0999  1.7956
  934MOL0     H23280   1.147   4.046   9.814 -1.7751 -0.0381 -1.4936
  934MOL0     H23281   1.166   3.894   9.900  0.5515  1.9037  1.2868
  934MOL0     H23282   1.353   3.985   9.673  2.0322 -0.3254 -0.6468
  934MOL0     H23283   1.373   3.835   9.772 -0.0678  0.8939  0.6559
  934MOL0     H23284   1.494   4.056   9.820  0.6296 -0.6919 -0.7565
  934MOL0     H23285   1.347   4.096   9.918  1.6250 -1.1957  3.3202
  934MOL0     H23286   1.515   3.779  10.138  0.1175 -1.9921 -1.4985
  934MOL0     H23287   0.718   4.081   9.682 -1.8679 -1.3751  1.9879
  934MOL0     H23288   0.526   4.010   9.569  0.2658  1.1557  1.0159
  935MOL0     O23289   2.067   0.403   1.370 -0.4730  0.2930  0.1874
  935MOL0     C23290   2.025   0.330   1.458  0.1292  0.1200  0.2294
  935MOL0     O23291   2.075   0.211   1.488  0.5316 -1.1028 -0.0895
  935MOL0     C23292   2.176   0.160   1.404  0.9383 -0.4374  0.2374
  935MOL0     C23293   2.152   0.040   1.344 -0.5944  0.1602  0.6785
  935MOL0     C23294   2.239  -0.017   1.256 -1.1264 -0.8499  0.8471
  935MOL0     C23295   2.370   0.041   1.240  0.7278 -0.3075  1.0369
  935MOL0     O23296   2.462  -0.005   1.149  0.8619  0.4410 -0.0928
  935MOL0     C23297   2.496  -0.136   1.185 -0.6008  1.3396 -0.9182
  935MOL0     C23298   2.646  -0.159   1.164  0.4982 -0.3024 -0.2975
  935MOL0     C23299   2.693  -0.141   1.021 -0.0539 -0.5781 -0.3289
  935MOL0     C23300   2.834  -0.210   1.021  0.1967  0.9044  0.1150
  935MOL0     C23301   2.944  -0.118   1.051 -0.2669 -0.3909 -0.2324
  935MOL0     C23302   3.080  -0.178   1.057 -0.2918 -0.2678  0.4470
  935MOL0     C23303   3.198  -0.088   1.027  0.2103 -0.6967  0.4586
  935MOL0     C23304   3.336  -0.148   1.027 -0.8222  0.1124  0.3235
  935MOL0     N23305   3.389  -0.206   1.147 -0.7087  0.3991 -0.5646
  935MOL0     C23306   3.345  -0.159   1.273 -0.5218 -0.1701 -0.0863
  935MOL0     C23307   3.428  -0.207   1.359  0.3456  0.1435 -0.8412
  935MOL0     C23308   3.411  -0.193   1.512  0.4578  1.3258  0.4622
  935MOL0     C23309   3.508  -0.103   1.571  0.0729  0.2823 -0.3809
  935MOL0     C23310   3.509  -0.120   1.722 -0.8760 -0.3006 -0.7542
  935MOL0     C23311   3.397  -0.040   1.792 -0.2207  0.8156  0.3900
  935MOL0     O23312   3.289  -0.130   1.824 -0.4594 -0.6473 -0.3983
  935MOL0     C23313   3.177  -0.079   1.881  0.3663  0.9781  0.1549
  935MOL0     C23314   3.165   0.064   1.910  0.0250  0.9154  1.1737
  935MOL0     C23315   3.055   0.111   1.966 -0.8811 -0.1970  0.1839
  935MOL0     C23316   2.944   0.026   1.991 -0.1812 -0.8829  0.1837
  935MOL0     C23317   2.819   0.070   2.062  0.0855 -0.2379 -0.3603
  935MOL0     O23318   2.797   0.211   2.059 -0.0893  0.5423  0.1820
  935MOL0     C23319   2.697   0.264   2.125  0.2443 -0.1655 -0.4099
  935MOL0     C23320   2.570   0.253   2.061 -0.0146  0.3002  0.5633
  935MOL0     C23321   2.452   0.290   2.123  0.2785  0.2698  0.1431
  935MOL0     C23322   2.458   0.367   2.242  0.3927 -0.2300 -0.2663
  935MOL0     O23323   2.343   0.421   2.306 -0.2063 -0.0311  0.0326
  935MOL0     C23324   2.358   0.565   2.305  0.3150 -0.1054  0.9344
  935MOL0     C23325   2.343   0.631   2.160  0.5344  0.7903 -0.6682
  935MOL0     C23326   2.310   0.782   2.184  0.0575 -0.0470  0.1710
  935MOL0     C23327   2.292   0.865   2.052 -0.0636  0.8490 -0.2867
  935MOL0     C23328   2.240   1.003   2.060  0.5189  0.1595  1.0865
  935MOL0     C23329   2.324   1.073   2.170  0.8356 -0.0941 -0.4926
  935MOL0     C23330   2.295   1.226   2.167  0.2400 -0.4455  0.6870
  935MOL0     C23331   2.391   1.310   2.252 -0.7279 -0.3664  0.0678
  935MOL0    Cl23332   2.389   1.250   2.426  0.3165  0.0606  0.2184
  935MOL0     C23333   2.585   0.380   2.301  0.1059  0.2119 -0.2489
  935MOL0     C23334   2.706   0.324   2.247  0.0905  0.1821  0.0293
  935MOL0     O23335   2.750  -0.018   2.115  0.1178 -0.2128 -1.1417
  935MOL0     C23336   2.946  -0.105   1.947 -0.0721  0.5295 -0.5200
  935MOL0     C23337   3.063  -0.162   1.897  1.2372  0.3287 -0.5678
  935MOL0     N23338   3.531  -0.272   1.291 -0.6413 -0.5800 -0.1184
  935MOL0     N23339   3.507  -0.273   1.160  0.0715 -0.0979  0.2661
  935MOL0     C23340   2.390   0.169   1.292 -0.0687  1.0661 -0.1509
  935MOL0     C23341   2.297   0.226   1.377 -1.0746  0.2404 -0.2907
  935MOL0     C23342   1.905   0.386   1.523  0.5012  0.3177 -0.0184
  935MOL0     C23343   1.843   0.314   1.624 -0.7216  1.1857 -0.6491
  935MOL0     C23344   1.732   0.348   1.687  0.4003  1.1533 -0.5897
  935MOL0     C23345   1.668   0.461   1.648 -0.0079  0.3808 -0.6035
  935MOL0     O23346   1.564   0.515   1.728 -0.0836 -0.4349 -1.0317
  935MOL0     C23347   1.433   0.513   1.669 -0.2407 -0.8043 -0.3930
  935MOL0     C23348   1.416   0.406   1.558 -0.3923  0.0582 -0.4362
  935MOL0     C23349   1.267   0.391   1.524 -0.3623  0.0427  0.5391
  935MOL0     C23350   1.246   0.311   1.396 -0.1824 -0.5825  0.0890
  935MOL0     C23351   1.225   0.177   1.444  0.5993 -0.1878  0.4282
  935MOL0     C23352   1.234   0.059   1.482  0.9920 -0.3590 -0.7726
  935MOL0     C23353   1.719   0.544   1.556  0.9238  0.2523  0.1160
  935MOL0     C23354   1.840   0.509   1.486  0.5221 -0.4915 -0.9894
  935MOL0     H23355   2.058  -0.006   1.371 -0.9773 -0.2276 -1.1791
  935MOL0     H23356   2.217  -0.115   1.217 -1.6367 -0.8008  1.0059
  935MOL0     H23357   2.445  -0.208   1.120  0.7691  0.3105 -0.9090
  935MOL0     H23358   2.479  -0.150   1.292 -3.2245  4.3641 -0.8017
  935MOL0     H23359   2.667  -0.255   1.212  1.4229 -0.1293 -0.3398
  935MOL0     H23360   2.704  -0.093   1.229 -1.0360 -0.0202  0.8505
  935MOL0     H23361   2.702  -0.039   0.984  1.1658 -1.0969 -1.5675
  935MOL0     H23362   2.616  -0.179   0.953 -0.3458  0.0988 -0.3846
  935MOL0     H23363   2.835  -0.304   1.076  3.6878  0.7134 -0.0444
  935MOL0     H23364   2.854  -0.243   0.918  1.9334 -0.1121  0.7438
  935MOL0     H23365   2.927  -0.086   1.154 -0.5650 -0.6712 -0.1922
  935MOL0     H23366   2.937  -0.031   0.986 -0.2800 -0.3242 -0.1409
  935MOL0     H23367   3.080  -0.254   0.977 -0.8625  2.3466 -2.2049
  935MOL0     H23368   3.091  -0.233   1.151 -2.8028  1.9694  2.1996
  935MOL0     H23369   3.189  -0.039   0.930  0.9153 -3.2719 -0.9955
  935MOL0     H23370   3.183  -0.015   1.107 -1.2040  0.8642 -1.1421
  935MOL0     H23371   3.390  -0.062   0.988 -0.2931 -0.2079  0.3433
  935MOL0     H23372   3.344  -0.228   0.953 -0.0073 -2.2389  2.7692
  935MOL0     H23373   3.260  -0.094   1.293  0.1317  1.7459 -2.9920
  935MOL0     H23374   3.440  -0.293   1.545 -1.0198  0.1989 -1.4139
  935MOL0     H23375   3.310  -0.180   1.552 -0.6976 -2.9772 -0.5858
  935MOL0     H23376   3.485   0.000   1.544 -1.7722  0.0546  0.1725
  935MOL0     H23377   3.611  -0.118   1.539  0.5979  0.9721  0.9156
  935MOL0     H23378   3.508  -0.229   1.737  4.2912 -0.5241 -0.3804
  935MOL0     H23379   3.599  -0.076   1.765 -3.0907  2.4884  1.3906
  935MOL0     H23380   3.361   0.047   1.737  0.6269  0.0422 -1.4848
  935MOL0     H23381   3.444  -0.003   1.884  1.8446 -0.3805 -0.1088
  935MOL0     H23382   3.251   0.128   1.894  2.0924 -2.1653 -1.2351
  935MOL0     H23383   3.067   0.213   1.999  2.3401  0.1130 -1.5278
  935MOL0     H23384   2.564   0.209   1.962  0.2622  1.7649 -0.1308
  935MOL0     H23385   2.352   0.268   2.088 -1.1810  0.8126  3.5689
  935MOL0     H23386   2.446   0.603   2.357 -0.4720  3.1058  0.0966
  935MOL0     H23387   2.270   0.601   2.360 -0.8402 -4.7109  2.6390
  935MOL0     H23388   2.260   0.580   2.111  1.8777  0.2670 -2.5048
  935MOL0     H23389   2.441   0.622   2.113  0.7697 -0.1742 -0.0149
  935MOL0     H23390   2.391   0.814   2.251 -1.9666 -2.0504  3.8857
  935MOL0     H23391   2.211   0.795   2.227  0.0953  1.8869 -0.2523
  935MOL0     H23392   2.390   0.871   2.004 -0.7881  0.7974 -1.8285
  935MOL0     H23393   2.233   0.803   1.984 -1.2314  1.0624  0.5022
  935MOL0     H23394   2.133   0.998   2.080 -0.0812  2.5435 -0.9792
  935MOL0     H23395   2.246   1.046   1.960 -3.5593  0.4894  0.8102
  935MOL0     H23396   2.432   1.058   2.167  1.0577  0.7639  1.4321
  935MOL0     H23397   2.291   1.027   2.264  0.3247  1.1829 -0.0157
  935MOL0     H23398   2.295   1.263   2.064  1.9597  1.4221  1.2801
  935MOL0     H23399   2.199   1.257   2.208  0.7841  0.4480  1.3403
  935MOL0     H23400   2.373   1.418   2.256  1.9826  0.1022  2.4043
  935MOL0     H23401   2.492   1.306   2.211 -1.3681  1.6362 -1.9467
  935MOL0     H23402   2.580   0.432   2.396 -2.3740  0.0096 -0.1992
  935MOL0     H23403   2.793   0.327   2.312 -0.2276  1.6186  0.4245
  935MOL0     H23404   2.859  -0.170   1.953 -0.3969  0.9704 -0.4117
  935MOL0     H23405   3.063  -0.269   1.882 -0.2414  0.3832 -1.0797
  935MOL0     H23406   2.471   0.230   1.254  1.0582  1.7833  3.0837
  935MOL0     H23407   2.326   0.320   1.424 -0.4598 -0.5898  1.0597
  935MOL0     H23408   1.897   0.229   1.665  0.0456  3.1347  2.7451
  935MOL0     H23409   1.700   0.289   1.772  3.5218 -1.6377 -1.1362
  935MOL0     H23410   1.407   0.613   1.631  1.1192 -0.8638 -1.5630
  935MOL0     H23411   1.376   0.481   1.757  2.3442 -1.9305  0.9993
  935MOL0     H23412   1.473   0.434   1.469  1.1149 -1.6214 -0.0456
  935MOL0     H23413   1.447   0.306   1.591 -2.9253 -0.6204  0.1029
  935MOL0     H23414   1.223   0.489   1.504  1.2732  0.4053 -1.7069
  935MOL0     H23415   1.220   0.345   1.612  0.4716 -2.8630 -0.4212
  935MOL0     H23416   1.154   0.337   1.343  0.2761  0.0017 -0.4497
  935MOL0     H23417   1.331   0.312   1.327 -1.9050 -0.7247 -2.1520
  935MOL0     H23418   1.237  -0.045   1.506  0.5448 -0.2883 -0.3814
  935MOL0     H23419   1.669   0.631   1.513 -2.1676  0.1460  3.0107
  935MOL0     H23420   1.892   0.581   1.422  0.1576 -0.3127 -1.0886
  936MOL0     O23421   2.619   2.416   3.227  1.0132 -0.1203  0.2117
  936MOL0     C23422   2.627   2.451   3.343 -0.5786 -0.0364 -0.1572
  936MOL0     O23423   2.523   2.486   3.423  0.2062 -1.2746 -0.0894
  936MOL0     C23424   2.401   2.511   3.371 -0.8953  0.0485 -0.1134
  936MOL0     C23425   2.313   2.402   3.337 -0.8352  0.2747  0.4662
  936MOL0     C23426   2.187   2.422   3.286  0.5946  0.5000 -1.0453
  936MOL0     C23427   2.145   2.554   3.276 -1.0185  0.4192 -0.4585
  936MOL0     O23428   2.025   2.589   3.226  0.0322 -0.5253 -1.0521
  936MOL0     C23429   1.915   2.501   3.210 -0.3529  1.0454 -0.6128
  936MOL0     C23430   1.846   2.553   3.083  0.0701 -0.4028  0.8861
  936MOL0     C23431   1.701   2.513   3.105 -0.6006 -0.4107  0.0100
  936MOL0     C23432   1.612   2.579   2.997 -0.8652 -0.4017 -0.1299
  936MOL0     C23433   1.468   2.523   3.006  0.0005 -0.1726  0.0471
  936MOL0     C23434   1.376   2.589   2.906  0.3098  0.1366 -0.3433
  936MOL0     C23435   1.233   2.542   2.910 -0.3015  0.3126  0.3213
  936MOL0     C23436   1.152   2.598   2.787  0.7023  0.2478 -0.0966
  936MOL0     N23437   1.015   2.544   2.794  1.0042  0.3044  0.1134
  936MOL0     C23438   0.906   2.615   2.818  0.0322  0.4443  0.6865
  936MOL0     C23439   0.802   2.530   2.800  0.1147 -0.8433  0.6458
  936MOL0     C23440   0.651   2.563   2.823  0.3038  0.8603 -0.4987
  936MOL0     C23441   0.563   2.485   2.725  0.1555 -0.4895  0.0547
  936MOL0     C23442   0.412   2.491   2.752  0.7977 -0.5573 -0.4944
  936MOL0     C23443   0.327   2.393   2.661 -0.4400 -0.0642  0.2484
  936MOL0     O23444   0.198   2.378   2.717  0.0765 -0.8005  0.7551
  936MOL0     C23445   0.088   2.439   2.652 -0.6892  0.6740 -0.0680
  936MOL0     C23446  -0.038   2.389   2.684 -0.2412 -0.1003  0.3014
  936MOL0     C23447  -0.140   2.421   2.604 -0.1718  0.0301 -0.4982
  936MOL0     C23448  -0.135   2.524   2.517 -0.0315  0.2640  0.0928
  936MOL0     C23449  -0.256   2.567   2.457  0.9480 -0.6824  0.7621
  936MOL0     O23450  -0.248   2.653   2.348 -0.3617  0.7729  0.1830
  936MOL0     C23451  -0.351   2.690   2.275 -0.5913 -0.1233 -0.2062
  936MOL0     C23452  -0.338   2.815   2.222  1.0206  0.1842 -0.2259
  936MOL0     C23453  -0.452   2.874   2.153  0.3297 -0.6644  0.0138
  936MOL0     C23454  -0.567   2.803   2.136 -0.4183  0.1433  0.1297
  936MOL0     O23455  -0.679   2.847   2.081  0.4779  0.5259  0.0103
  936MOL0     C23456  -0.706   2.982   2.107  0.4714  0.3922 -0.6686
  936MOL0     C23457  -0.858   3.009   2.098 -0.4470  0.6916 -0.3278
  936MOL0     C23458  -0.943   2.930   1.992 -0.0087  1.0165 -0.5889
  936MOL0     C23459  -1.091   2.954   2.010 -0.6390  0.2023 -0.2661
  936MOL0     C23460  -1.196   2.890   1.914 -0.2518  0.3063  0.3671
  936MOL0     C23461  -1.182   2.939   1.773 -0.2781 -0.0656 -0.8297
  936MOL0     C23462  -1.296   2.891   1.674 -0.7856 -0.1597  0.1649
  936MOL0     C23463  -1.300   2.742   1.661 -0.1293  0.1755  0.0479
  936MOL0    Cl23464  -1.434   2.679   1.557  0.2921  0.2042  0.4361
  936MOL0     C23465  -0.566   2.678   2.190  0.9536  0.2655  0.2619
  936MOL0     C23466  -0.469   2.619   2.258 -0.9331  0.9413 -0.1086
  936MOL0     O23467  -0.361   2.536   2.514 -0.6029  0.5284 -0.3481
  936MOL0     C23468  -0.009   2.574   2.478  0.1163 -1.0254 -0.4288
  936MOL0     C23469   0.099   2.535   2.549 -0.8035  1.3760 -0.5045
  936MOL0     N23470   0.854   2.404   2.765  0.1167 -0.1047 -0.6529
  936MOL0     N23471   0.976   2.412   2.773  0.4858  0.4832  0.4919
  936MOL0     C23472   2.222   2.658   3.319 -0.3961  0.1435  0.7770
  936MOL0     C23473   2.358   2.643   3.360 -0.5576  0.4135 -0.4734
  936MOL0     C23474   2.765   2.490   3.406  0.0809 -0.5344 -0.2128
  936MOL0     C23475   2.886   2.439   3.361 -0.0105  0.8515  0.2299
  936MOL0     C23476   3.011   2.478   3.421  0.5774 -0.7174 -0.0185
  936MOL0     C23477   3.011   2.563   3.518 -0.3981 -0.2550  0.4524
  936MOL0     O23478   3.137   2.579   3.570  0.7182 -0.2084 -0.2180
  936MOL0     C23479   3.152   2.681   3.665  0.9673  0.3396  0.0988
  936MOL0     C23480   3.107   2.617   3.807  0.4154 -0.5518  0.8568
  936MOL0     C23481   3.202   2.502   3.833 -0.4309  0.2259 -0.0607
  936MOL0     C23482   3.217   2.471   3.984 -0.4048  0.3239 -0.6100
  936MOL0     C23483   3.080   2.452   4.054  0.3714  0.4594  0.1087
  936MOL0     C23484   2.965   2.449   4.102 -0.4045  0.3477 -0.7155
  936MOL0     C23485   2.891   2.628   3.557 -0.6332 -0.2076 -0.0602
  936MOL0     C23486   2.768   2.591   3.504 -0.0697  0.4705  0.2898
  936MOL0     H23487   2.356   2.302   3.342 -0.5151  0.4378  1.2321
  936MOL0     H23488   2.129   2.336   3.252  2.2550 -2.6877  3.2922
  936MOL0     H23489   1.854   2.503   3.301 -0.5051  2.2412 -0.7259
  936MOL0     H23490   1.942   2.399   3.182  1.2756  0.4480  2.6422
  936MOL0     H23491   1.893   2.518   2.991  0.8218 -0.7483  1.3921
  936MOL0     H23492   1.848   2.662   3.087 -1.1963 -0.4077  3.1358
  936MOL0     H23493   1.679   2.544   3.207  0.3157  0.6092 -0.0777
  936MOL0     H23494   1.695   2.405   3.090  0.9324 -0.4670 -0.4526
  936MOL0     H23495   1.606   2.687   3.018 -1.5256 -0.3611 -0.4955
  936MOL0     H23496   1.649   2.561   2.895 -0.3379 -0.8356  0.1364
  936MOL0     H23497   1.436   2.525   3.110  4.3859 -0.3849  1.6136
  936MOL0     H23498   1.480   2.421   2.968  0.9247 -0.2475  0.5133
  936MOL0     H23499   1.411   2.563   2.806  1.2142 -1.9983  0.4780
  936MOL0     H23500   1.380   2.698   2.918  1.9205  0.0167  0.3824
  936MOL0     H23501   1.226   2.433   2.902  2.2120  0.2360 -1.6791
  936MOL0     H23502   1.184   2.577   3.002 -0.2972 -1.2889  0.9824
  936MOL0     H23503   1.205   2.560   2.698  0.6991 -0.9752  0.4028
  936MOL0     H23504   1.139   2.707   2.789 -0.5809  0.1175 -0.6327
  936MOL0     H23505   0.891   2.720   2.838 -2.4041  0.9827 -3.0477
  936MOL0     H23506   0.633   2.670   2.817  0.1764  0.7355 -3.6173
  936MOL0     H23507   0.642   2.524   2.925  1.7081 -0.1021 -0.7100
  936MOL0     H23508   0.583   2.377   2.719  0.4635 -0.4897  0.9416
  936MOL0     H23509   0.581   2.531   2.627  1.2000 -2.8761 -0.9679
  936MOL0     H23510   0.399   2.459   2.856  2.2623  1.4277  0.3563
  936MOL0     H23511   0.366   2.590   2.748 -2.3656 -1.9348 -0.9238
  936MOL0     H23512   0.371   2.293   2.670  4.6381  1.7783 -0.3261
  936MOL0     H23513   0.327   2.408   2.553  1.1927 -0.3581  0.1799
  936MOL0     H23514  -0.053   2.309   2.756  1.4569  1.8340  2.9868
  936MOL0     H23515  -0.231   2.378   2.646  0.6688  3.0631  5.4392
  936MOL0     H23516  -0.258   2.879   2.257 -1.0198  0.8132  3.9400
  936MOL0     H23517  -0.436   2.980   2.137 -1.0339  0.0592  2.8476
  936MOL0     H23518  -0.648   3.046   2.040  2.1739  1.9564  2.0775
  936MOL0     H23519  -0.681   3.005   2.211 -0.4573 -2.4729  0.2839
  936MOL0     H23520  -0.871   3.115   2.074  1.1618  0.5809 -1.8609
  936MOL0     H23521  -0.905   2.998   2.196  1.1100  4.8609  1.1115
  936MOL0     H23522  -0.924   2.822   2.001 -0.4931  1.0548  1.1056
  936MOL0     H23523  -0.904   2.967   1.896  1.9288  2.7783  0.7962
  936MOL0     H23524  -1.113   2.919   2.112  1.9084  0.1869  0.3522
  936MOL0     H23525  -1.109   3.062   2.008 -0.6271  0.2453 -3.5129
  936MOL0     H23526  -1.297   2.911   1.951 -1.0735 -0.9070 -1.0861
  936MOL0     H23527  -1.180   2.782   1.914  0.4893  0.3848 -1.2410
  936MOL0     H23528  -1.080   2.910   1.743  0.1351 -0.6591  1.0368
  936MOL0     H23529  -1.189   3.047   1.785  1.1620  0.0444 -0.7638
  936MOL0     H23530  -1.390   2.931   1.713  0.4901  2.9519  0.3503
  936MOL0     H23531  -1.282   2.932   1.574 -2.0549 -0.3939 -0.1176
  936MOL0     H23532  -1.301   2.700   1.762  1.8611  3.0650  1.4006
  936MOL0     H23533  -1.206   2.713   1.613 -0.5685 -0.9421 -0.1829
  936MOL0     H23534  -0.661   2.626   2.183  0.5069  1.2102 -1.3765
  936MOL0     H23535  -0.487   2.523   2.304 -0.6067  1.0320  0.2161
  936MOL0     H23536   0.005   2.642   2.395  1.8347  1.4023  1.6873
  936MOL0     H23537   0.191   2.582   2.519 -0.1321  1.3377  1.3439
  936MOL0     H23538   2.178   2.758   3.317  2.4669  1.4861 -0.2051
  936MOL0     H23539   2.413   2.727   3.400  0.2603 -1.8573  3.7037
  936MOL0     H23540   2.876   2.362   3.285 -1.1169  1.0689  0.1415
  936MOL0     H23541   3.095   2.418   3.387  0.3233  0.0436 -2.1164
  936MOL0     H23542   3.087   2.759   3.626 -0.1968 -1.7588 -2.4937
  936MOL0     H23543   3.254   2.717   3.680  0.5364  1.0892  1.3697
  936MOL0     H23544   3.106   2.694   3.884 -1.4266  0.4787 -0.1352
  936MOL0     H23545   3.007   2.575   3.794  0.7109 -1.2529  0.7774
  936MOL0     H23546   3.299   2.517   3.785  0.6731  0.2908  2.0428
  936MOL0     H23547   3.165   2.411   3.785  2.5773 -2.0431  1.5159
  936MOL0     H23548   3.266   2.373   3.988 -3.0032 -1.0642 -0.5628
  936MOL0     H23549   3.275   2.551   4.031 -2.0364  0.4881  1.3072
  936MOL0     H23550   2.871   2.440   4.153  0.2788  2.8780  1.1951
  936MOL0     H23551   2.895   2.702   3.636  0.9623  1.0659 -1.2728
  936MOL0     H23552   2.676   2.643   3.527 -0.3226 -0.4609  1.5000
  937MOL0     O23553   0.473   1.235   5.934 -0.0544  0.1183  0.2584
  937MOL0     C23554   0.418   1.156   5.851  0.1181  0.0121  0.6097
  937MOL0     O23555   0.342   1.192   5.752 -0.3098 -0.5624 -0.0006
  937MOL0     C23556   0.297   1.324   5.730  0.8456  0.5701 -0.5192
  937MOL0     C23557   0.213   1.369   5.829  0.8767 -0.0643  0.3750
  937MOL0     C23558   0.163   1.499   5.817  0.0618 -0.6329  0.2242
  937MOL0     C23559   0.203   1.587   5.718  0.6424 -0.6933 -0.0341
  937MOL0     O23560   0.154   1.716   5.721  0.6586  0.4760 -0.6375
  937MOL0     C23561   0.206   1.798   5.614 -0.5339 -0.8939 -0.2446
  937MOL0     C23562   0.164   1.935   5.657 -0.0788  0.1253 -0.2905
  937MOL0     C23563   0.191   2.031   5.543 -0.7681 -0.1689 -0.3680
  937MOL0     C23564   0.195   2.174   5.594  0.3837  0.8630 -0.4892
  937MOL0     C23565   0.220   2.275   5.486 -0.2749  0.5547 -0.1392
  937MOL0     C23566   0.366   2.269   5.424 -0.8976 -0.5414  0.1704
  937MOL0     C23567   0.479   2.310   5.526  0.3384 -0.1414  0.4249
  937MOL0     C23568   0.480   2.464   5.560  0.7014 -0.4126 -0.6146
  937MOL0     N23569   0.494   2.547   5.434 -0.3847 -0.1528  0.3217
  937MOL0     C23570   0.613   2.567   5.367  0.5845  0.1984  0.2083
  937MOL0     C23571   0.581   2.669   5.280  0.3707 -0.1008 -0.0417
  937MOL0     C23572   0.690   2.749   5.200 -0.5459  0.9565 -0.7681
  937MOL0     C23573   0.635   2.833   5.084 -0.3500  0.3556  0.7671
  937MOL0     C23574   0.599   2.774   4.943  0.1660 -0.3298 -0.5303
  937MOL0     C23575   0.592   2.888   4.834 -0.3065  0.2299 -0.2507
  937MOL0     O23576   0.587   2.834   4.702 -0.4213  0.1577  0.0564
  937MOL0     C23577   0.475   2.782   4.652 -0.1063  0.8495 -0.7532
  937MOL0     C23578   0.355   2.781   4.717 -0.4610  0.3454 -0.5222
  937MOL0     C23579   0.246   2.726   4.657  0.1361  1.1149  0.2953
  937MOL0     C23580   0.249   2.679   4.524 -0.4823  1.2196  1.1492
  937MOL0     C23581   0.124   2.616   4.462 -0.7772  0.2949  0.3554
  937MOL0     O23582   0.011   2.632   4.531 -0.2254  0.6166 -0.4102
  937MOL0     C23583  -0.109   2.592   4.470 -1.4139  0.0532  0.0080
  937MOL0     C23584  -0.160   2.640   4.353 -0.0541  0.5301 -0.2790
  937MOL0     C23585  -0.276   2.584   4.291 -0.3404 -0.1535  0.1657
  937MOL0     C23586  -0.347   2.483   4.358 -0.0828  1.0832  0.2823
  937MOL0     O23587  -0.453   2.425   4.290  0.0625  0.3458 -0.4529
  937MOL0     C23588  -0.544   2.342   4.361  0.1855  0.9569 -0.2928
  937MOL0     C23589  -0.657   2.298   4.266 -0.0196 -0.1173  0.5302
  937MOL0     C23590  -0.721   2.413   4.213  0.2613 -0.7241 -0.7311
  937MOL0     C23591  -0.820   2.377   4.105 -0.3695  0.3979  0.0360
  937MOL0     C23592  -0.891   2.500   4.053 -0.0374  0.0730 -0.0377
  937MOL0     C23593  -0.976   2.467   3.929  0.6044  0.7597 -0.2065
  937MOL0     C23594  -1.084   2.570   3.906  0.4445  0.2697  0.1021
  937MOL0     C23595  -1.190   2.505   3.814  0.3427  0.8602 -0.3132
  937MOL0    Cl23596  -1.301   2.633   3.781  0.4201  0.1522 -0.3341
  937MOL0     C23597  -0.295   2.445   4.479 -0.1285 -1.0987  0.6186
  937MOL0     C23598  -0.190   2.506   4.547 -0.5247  0.6095 -0.1657
  937MOL0     O23599   0.134   2.564   4.357 -0.2251 -0.3108 -0.3517
  937MOL0     C23600   0.376   2.666   4.467  0.0289  0.4060  0.1599
  937MOL0     C23601   0.489   2.718   4.528 -0.1992 -1.0213 -0.0663
  937MOL0     N23602   0.450   2.701   5.286 -0.3728 -0.1447 -0.4795
  937MOL0     N23603   0.396   2.629   5.379  0.1175 -0.0521  0.5544
  937MOL0     C23604   0.281   1.534   5.612 -0.5916 -0.3908 -1.1149
  937MOL0     C23605   0.324   1.401   5.617 -0.0146  0.1237  0.8450
  937MOL0     C23606   0.460   1.009   5.846 -0.8086 -0.6616  0.0731
  937MOL0     C23607   0.396   0.926   5.741 -0.8843  0.8393 -0.8188
  937MOL0     C23608   0.431   0.793   5.721 -0.6254 -0.8246  0.4277
  937MOL0     C23609   0.526   0.731   5.806 -0.2703 -0.2865 -0.9195
  937MOL0     O23610   0.563   0.604   5.787 -0.0633 -0.6510 -0.4507
  937MOL0     C23611   0.698   0.565   5.814 -0.5870  0.3010 -0.6105
  937MOL0     C23612   0.777   0.585   5.682  0.1114 -0.6244  0.5396
  937MOL0     C23613   0.823   0.451   5.623  0.3950 -0.3783  0.0747
  937MOL0     C23614   0.957   0.402   5.680 -0.1614 -0.4452  0.6697
  937MOL0     C23615   1.069   0.493   5.656  0.5132  0.3400 -0.3944
  937MOL0     C23616   1.155   0.577   5.638 -0.1812 -0.6318 -0.4156
  937MOL0     C23617   0.580   0.810   5.915 -0.1425 -0.5801 -0.5114
  937MOL0     C23618   0.555   0.949   5.931 -0.5882 -0.0032 -0.5905
  937MOL0     H23619   0.203   1.324   5.927  1.8624 -2.1033 -0.4046
  937MOL0     H23620   0.094   1.544   5.888 -1.5899  0.8824 -2.1664
  937MOL0     H23621   0.146   1.786   5.524 -0.3557  3.5285 -1.1410
  937MOL0     H23622   0.314   1.799   5.599 -0.2712  1.8690  1.2866
  937MOL0     H23623   0.204   1.969   5.753 -0.1764  2.0646 -0.8888
  937MOL0     H23624   0.057   1.932   5.677  0.1889 -0.4043  1.1711
  937MOL0     H23625   0.118   2.031   5.462 -0.0706 -0.4306 -1.0071
  937MOL0     H23626   0.288   2.001   5.502 -1.1810 -1.3332 -0.5120
  937MOL0     H23627   0.102   2.204   5.644 -1.1302 -1.0956 -1.9623
  937MOL0     H23628   0.273   2.179   5.670  1.7845 -0.7078 -1.7547
  937MOL0     H23629   0.204   2.374   5.530  2.1230  1.0188 -0.1641
  937MOL0     H23630   0.159   2.265   5.396  0.5890  1.2957 -0.8289
  937MOL0     H23631   0.378   2.329   5.333 -0.1538 -0.8250  0.0781
  937MOL0     H23632   0.386   2.172   5.378  0.1495 -0.1910 -0.1541
  937MOL0     H23633   0.466   2.255   5.620 -2.5182 -0.8804 -0.3042
  937MOL0     H23634   0.576   2.289   5.482  1.5737  3.8021  0.8750
  937MOL0     H23635   0.566   2.480   5.625 -0.2665  1.2749  0.3047
  937MOL0     H23636   0.392   2.496   5.617 -1.8025 -1.2743 -3.6909
  937MOL0     H23637   0.712   2.526   5.382  1.1236  1.7169  0.9153
  937MOL0     H23638   0.773   2.682   5.173  0.7055  0.4877  3.4501
  937MOL0     H23639   0.737   2.809   5.279  3.2119 -0.9442 -1.3320
  937MOL0     H23640   0.716   2.904   5.065 -0.3122  0.6643  2.0073
  937MOL0     H23641   0.554   2.899   5.116  1.2409  4.1004 -2.1482
  937MOL0     H23642   0.679   2.710   4.905  1.1391  0.1288  0.6521
  937MOL0     H23643   0.510   2.714   4.962 -0.6413  0.8418 -0.5222
  937MOL0     H23644   0.686   2.943   4.840  0.7099 -1.5856  3.7804
  937MOL0     H23645   0.508   2.956   4.853 -0.5583 -0.2823  0.5149
  937MOL0     H23646   0.346   2.814   4.820  1.9924 -0.5084  0.0249
  937MOL0     H23647   0.152   2.726   4.713 -0.0020  2.2770  0.0848
  937MOL0     H23648  -0.099   2.704   4.290  0.1449 -1.7257 -2.5231
  937MOL0     H23649  -0.311   2.612   4.192 -0.8683 -0.0206  0.3870
  937MOL0     H23650  -0.585   2.396   4.447  1.0682  0.9341  0.1523
  937MOL0     H23651  -0.495   2.249   4.391  0.9991  1.6388  0.5524
  937MOL0     H23652  -0.721   2.234   4.327 -1.4258 -1.6705 -2.4066
  937MOL0     H23653  -0.617   2.238   4.185  0.2172  1.1389 -0.3092
  937MOL0     H23654  -0.644   2.484   4.181 -0.4240 -0.4317 -1.7892
  937MOL0     H23655  -0.781   2.459   4.292 -2.2317 -1.0317 -2.3211
  937MOL0     H23656  -0.777   2.317   4.023  2.2779  0.4250  1.2951
  937MOL0     H23657  -0.893   2.311   4.152 -0.9632  1.5621  0.7645
  937MOL0     H23658  -0.820   2.578   4.025 -0.4621  0.2515 -0.6530
  937MOL0     H23659  -0.955   2.544   4.130 -4.6565 -0.6060 -3.0411
  937MOL0     H23660  -1.029   2.372   3.929 -2.4372  2.2018 -3.8383
  937MOL0     H23661  -0.907   2.467   3.844  1.7960 -0.4977  0.7226
  937MOL0     H23662  -1.131   2.605   3.998 -0.3864 -0.4948 -0.0180
  937MOL0     H23663  -1.049   2.659   3.853  1.3143 -0.7312 -1.0898
  937MOL0     H23664  -1.245   2.437   3.881  1.4112  0.4851  0.1944
  937MOL0     H23665  -1.145   2.449   3.731 -2.7209  0.1745 -1.6614
  937MOL0     H23666  -0.345   2.371   4.540  0.8669 -1.3290  1.1784
  937MOL0     H23667  -0.158   2.460   4.640 -0.0719  0.2917 -0.4757
  937MOL0     H23668   0.388   2.615   4.372  0.9533  1.3889 -0.2711
  937MOL0     H23669   0.585   2.687   4.487  0.8136 -0.9070  2.0502
  937MOL0     H23670   0.317   1.591   5.527 -0.2946  0.5683 -0.3513
  937MOL0     H23671   0.377   1.352   5.536  1.2368  1.8133  0.5787
  937MOL0     H23672   0.318   0.959   5.674  1.3600  1.4660 -3.3035
  937MOL0     H23673   0.376   0.743   5.642 -0.3899 -1.2411  0.5227
  937MOL0     H23674   0.693   0.459   5.840 -0.7327  0.4097 -0.1883
  937MOL0     H23675   0.748   0.609   5.900 -1.9315 -0.6907  0.7196
  937MOL0     H23676   0.729   0.642   5.602  1.3229 -0.4977 -0.1207
  937MOL0     H23677   0.864   0.650   5.700  0.1129 -0.6503  0.6262
  937MOL0     H23678   0.821   0.463   5.514  0.2041  3.8973  0.3901
  937MOL0     H23679   0.745   0.376   5.636  0.1403  0.1073  1.4781
  937MOL0     H23680   0.959   0.365   5.783  2.0604 -3.1243 -0.2040
  937MOL0     H23681   0.989   0.314   5.623  2.2845  0.9700 -0.3444
  937MOL0     H23682   1.218   0.663   5.641  0.6439 -1.1641 -1.7573
  937MOL0     H23683   0.651   0.767   5.985 -1.8332 -1.6607  0.6568
  937MOL0     H23684   0.629   1.008   5.984 -1.1268 -0.7223  1.0427
  938MOL0     O23685  10.043   4.661   6.112 -0.3403  0.3463  0.1852
  938MOL0     C23686  10.091   4.770   6.110 -0.5368 -0.0023 -0.8791
  938MOL0     O23687  10.081   4.863   6.210 -0.2119  0.0264  0.8675
  938MOL0     C23688  10.012   4.845   6.324  0.1118 -0.0296 -0.9570
  938MOL0     C23689  10.043   4.947   6.417  0.5351 -0.6217 -0.3743
  938MOL0     C23690   9.954   4.976   6.526 -0.5299  0.3743  0.8071
  938MOL0     C23691   9.845   4.881   6.538 -0.9829  0.6483  1.4128
  938MOL0     O23692   9.759   4.913   6.630 -0.4897 -0.6879 -0.2985
  938MOL0     C23693   9.617   4.919   6.604 -0.1791 -0.3150 -0.5628
  938MOL0     C23694   9.574   5.062   6.654  0.1902 -0.4700 -1.0688
  938MOL0     C23695   9.433   5.084   6.618  0.0346 -0.6098  0.2190
  938MOL0     C23696   9.391   5.226   6.662  0.1497  0.3517 -0.8205
  938MOL0     C23697   9.243   5.260   6.681  0.1635 -0.3301 -0.5616
  938MOL0     C23698   9.223   5.395   6.744  0.0915 -0.4839 -0.1934
  938MOL0     C23699   9.307   5.511   6.686  0.2514 -0.2495 -0.5031
  938MOL0     C23700   9.287   5.632   6.771  0.5976  0.6615 -0.8158
  938MOL0     N23701   9.146   5.675   6.795  0.7762  0.3997  0.1830
  938MOL0     C23702   9.083   5.775   6.722  0.0984  0.0891 -0.8713
  938MOL0     C23703   8.962   5.792   6.784 -0.4437 -0.3703  0.1284
  938MOL0     C23704   8.849   5.889   6.739  0.4071 -0.7884 -0.2050
  938MOL0     C23705   8.726   5.885   6.827 -0.1359 -0.8909 -0.5923
  938MOL0     C23706   8.612   5.965   6.767  0.0031 -0.2238  0.4586
  938MOL0     C23707   8.492   5.972   6.863  0.1432 -0.4798  0.2736
  938MOL0     O23708   8.406   6.066   6.795  0.7225  0.4245  0.4809
  938MOL0     C23709   8.270   6.034   6.784 -0.2311 -0.8512 -0.4753
  938MOL0     C23710   8.201   5.937   6.862  0.3672 -0.7474 -0.3408
  938MOL0     C23711   8.066   5.921   6.847  0.6426  0.2165  0.8894
  938MOL0     C23712   7.994   6.005   6.765 -0.4606 -0.0948 -1.0801
  938MOL0     C23713   7.851   5.990   6.766  0.4253  0.4380  0.3212
  938MOL0     O23714   7.780   6.088   6.710  0.3556 -0.2431 -0.3618
  938MOL0     C23715   7.637   6.092   6.712 -0.6811  0.0691  0.3371
  938MOL0     C23716   7.573   6.118   6.593  0.1052 -0.1648 -0.1741
  938MOL0     C23717   7.432   6.128   6.593  0.0089  0.0647 -0.2918
  938MOL0     C23718   7.361   6.134   6.712  0.4470 -0.4597  0.6822
  938MOL0     O23719   7.231   6.169   6.739 -0.1069 -0.4926 -0.0324
  938MOL0     C23720   7.137   6.177   6.633 -0.2924  0.0723 -0.1948
  938MOL0     C23721   7.011   6.106   6.666  0.0677 -0.2450 -0.1650
  938MOL0     C23722   6.912   6.128   6.545  0.0373 -0.2758  0.2457
  938MOL0     C23723   6.769   6.107   6.596  0.6001  0.0127  0.1332
  938MOL0     C23724   6.680   6.101   6.480  0.4275 -0.2882 -0.1177
  938MOL0     C23725   6.606   6.237   6.457 -0.5639 -0.4430  0.5994
  938MOL0     C23726   6.541   6.249   6.320  0.2475 -0.5634  0.4845
  938MOL0     C23727   6.412   6.164   6.308 -0.2292  0.0239 -0.5941
  938MOL0    Cl23728   6.299   6.221   6.421  0.4796  0.0621  0.1229
  938MOL0     C23729   7.438   6.129   6.833 -0.2936  0.7579  0.0728
  938MOL0     C23730   7.574   6.097   6.830  0.6380 -0.4906 -0.3170
  938MOL0     O23731   7.802   5.885   6.809  0.0819 -0.3478 -0.4999
  938MOL0     C23732   8.056   6.103   6.697  0.2825 -0.3881 -0.1576
  938MOL0     C23733   8.192   6.114   6.708  0.2671 -0.0014 -0.4897
  938MOL0     N23734   8.956   5.708   6.896 -0.2693  0.4833  0.8822
  938MOL0     N23735   9.063   5.630   6.898 -0.2235 -0.5764 -0.2711
  938MOL0     C23736   9.826   4.777   6.448  0.5563 -0.3032 -0.4494
  938MOL0     C23737   9.913   4.754   6.348  0.3416 -0.1578 -0.0660
  938MOL0     C23738  10.164   4.810   5.983 -0.5734  0.1397 -0.0945
  938MOL0     C23739  10.246   4.921   5.996 -0.3256 -0.4875 -1.3048
  938MOL0     C23740  10.320   4.959   5.882  0.5835  0.0521  0.1344
  938MOL0     C23741  10.319   4.888   5.769 -0.0998  0.6291  0.0537
  938MOL0     O23742  10.393   4.925   5.664 -0.4075 -0.8945  0.0022
  938MOL0     C23743  10.535   4.920   5.679  0.1849 -0.7960 -1.0053
  938MOL0     C23744  10.598   4.803   5.615  0.6223  0.3787  0.1461
  938MOL0     C23745  10.735   4.772   5.673  0.3908 -0.5967  1.3292
  938MOL0     C23746  10.797   4.639   5.613  0.5318 -0.3349  0.2378
  938MOL0     C23747  10.898   4.595   5.710  0.2385  0.3389 -0.5771
  938MOL0     C23748  10.980   4.543   5.784 -0.8496 -0.2809 -0.3674
  938MOL0     C23749  10.226   4.784   5.753  0.1913 -0.0151  0.1668
  938MOL0     C23750  10.142   4.746   5.858 -0.1849  0.2869 -0.7131
  938MOL0     H23751  10.121   5.019   6.397 -2.7083  2.8326 -1.7540
  938MOL0     H23752   9.961   5.071   6.579 -1.5049  1.2811 -0.6463
  938MOL0     H23753   9.558   4.838   6.647 -0.4529  2.2035  4.5167
  938MOL0     H23754   9.595   4.930   6.497 -0.2292 -2.4510 -0.8034
  938MOL0     H23755   9.638   5.131   6.597  0.9509  0.3052  0.6493
  938MOL0     H23756   9.596   5.069   6.761  0.2356  2.6507 -1.1876
  938MOL0     H23757   9.371   5.013   6.674  0.1139 -1.1979 -0.4266
  938MOL0     H23758   9.407   5.062   6.514  0.4999  2.9537 -0.7964
  938MOL0     H23759   9.428   5.249   6.762 -2.1599 -0.7640  0.3439
  938MOL0     H23760   9.435   5.300   6.593  1.7308  1.0257  0.8178
  938MOL0     H23761   9.208   5.181   6.750  0.1674 -0.6040 -0.8702
  938MOL0     H23762   9.196   5.253   6.583 -1.2077  0.3529  0.0215
  938MOL0     H23763   9.250   5.399   6.850  1.1445 -0.3841 -0.4547
  938MOL0     H23764   9.119   5.420   6.725  0.8331  3.9756  0.6427
  938MOL0     H23765   9.414   5.488   6.694 -0.0928 -2.8481 -2.0340
  938MOL0     H23766   9.286   5.541   6.583  0.2191  2.1066  0.1401
  938MOL0     H23767   9.332   5.718   6.721  0.9942 -0.3302 -2.2312
  938MOL0     H23768   9.333   5.622   6.869 -0.6146  0.6198 -0.2344
  938MOL0     H23769   9.116   5.828   6.633 -1.2699  0.0639 -1.4274
  938MOL0     H23770   8.827   5.875   6.633  0.4247  1.6673 -0.5733
  938MOL0     H23771   8.889   5.990   6.748  0.0918 -0.7067  0.3289
  938MOL0     H23772   8.752   5.921   6.927  0.1360 -0.0210 -0.9661
  938MOL0     H23773   8.672   5.789   6.826 -1.2771 -0.2806 -0.0844
  938MOL0     H23774   8.660   6.060   6.741  2.7113 -1.8609 -1.0466
  938MOL0     H23775   8.577   5.921   6.674 -0.9453  3.4569 -1.0852
  938MOL0     H23776   8.519   6.019   6.958  0.1022  0.5393 -0.2088
  938MOL0     H23777   8.445   5.875   6.881  0.7156 -0.8910 -0.3802
  938MOL0     H23778   8.239   5.861   6.930 -0.6283 -1.9837 -1.1128
  938MOL0     H23779   8.016   5.853   6.915 -0.7577 -0.6328 -0.9123
  938MOL0     H23780   7.629   6.128   6.500 -0.5780 -1.4166 -0.7531
  938MOL0     H23781   7.379   6.136   6.499 -0.9139  3.3071  0.3663
  938MOL0     H23782   7.176   6.121   6.547 -0.4709 -0.2984 -0.0351
  938MOL0     H23783   7.117   6.281   6.608 -0.5417 -0.0945 -0.6999
  938MOL0     H23784   6.974   6.158   6.755  1.0736  0.2720 -0.0352
  938MOL0     H23785   7.025   5.999   6.682 -3.2334 -0.9785 -1.3664
  938MOL0     H23786   6.934   6.063   6.460 -1.2430  1.4963 -1.5303
  938MOL0     H23787   6.905   6.232   6.510 -0.5263 -0.4064 -0.0422
  938MOL0     H23788   6.770   6.014   6.653  1.3510 -0.4752 -0.6494
  938MOL0     H23789   6.747   6.185   6.669  1.6600  0.3319  0.1287
  938MOL0     H23790   6.595   6.035   6.502 -2.8569  4.2062  2.5037
  938MOL0     H23791   6.714   6.076   6.379 -0.3994  3.5887 -1.5338
  938MOL0     H23792   6.681   6.317   6.454  0.5064 -1.3962 -2.9538
  938MOL0     H23793   6.535   6.257   6.538 -1.0692 -1.7466  0.5004
  938MOL0     H23794   6.514   6.353   6.298 -0.3466 -0.4704  1.5924
  938MOL0     H23795   6.611   6.212   6.244 -1.7461  1.2424 -2.4549
  938MOL0     H23796   6.434   6.059   6.331 -2.6068  0.1744  3.1267
  938MOL0     H23797   6.371   6.178   6.207  0.7355  1.5309 -0.7945
  938MOL0     H23798   7.379   6.131   6.924 -0.3695 -0.9319  0.1031
  938MOL0     H23799   7.622   6.074   6.925  0.8716 -2.8770 -0.9428
  938MOL0     H23800   8.018   6.172   6.623 -0.9098 -2.3575 -1.4501
  938MOL0     H23801   8.242   6.192   6.651  0.2247  0.1376 -0.3370
  938MOL0     H23802   9.735   4.717   6.453 -1.2848  2.3884  0.9993
  938MOL0     H23803   9.894   4.668   6.284  0.8838  0.7343 -1.4663
  938MOL0     H23804  10.277   4.971   6.087 -0.3892  0.2052 -1.6536
  938MOL0     H23805  10.390   5.042   5.882  1.7494 -0.6874 -4.2515
  938MOL0     H23806  10.554   4.920   5.787 -2.0489  0.4491 -0.5519
  938MOL0     H23807  10.587   5.009   5.642 -1.4313  0.3469 -0.6582
  938MOL0     H23808  10.542   4.710   5.625  1.5872 -0.0721  1.6423
  938MOL0     H23809  10.590   4.827   5.509  1.5209  1.5980  0.3353
  938MOL0     H23810  10.727   4.757   5.781  0.9283 -1.2516  1.2811
  938MOL0     H23811  10.804   4.857   5.671  1.2654 -1.2775 -0.9837
  938MOL0     H23812  10.717   4.566   5.598  2.8917 -3.0555  0.1183
  938MOL0     H23813  10.842   4.662   5.516  1.2023 -3.1565 -0.2029
  938MOL0     H23814  11.052   4.484   5.838 -0.3474 -0.6096 -1.3634
  938MOL0     H23815  10.229   4.727   5.661 -1.7096  0.4468 -0.2197
  938MOL0     H23816  10.075   4.661   5.848 -1.0111  1.1059 -2.8043
  939MOL0     O23817   2.328   3.936  11.332 -1.0209 -0.7964 -0.2364
  939MOL0     C23818   2.340   3.982  11.445 -0.0549  0.2547  0.0748
  939MOL0     O23819   2.437   4.060  11.499  0.8197 -1.0691 -0.2976
  939MOL0     C23820   2.532   4.098  11.404  0.1482  0.4347 -0.9071
  939MOL0     C23821   2.575   4.230  11.402 -0.7299  0.1566 -0.0146
  939MOL0     C23822   2.672   4.265  11.311 -0.3048  0.2991  0.3312
  939MOL0     C23823   2.752   4.169  11.239 -0.4565  0.3889 -0.0430
  939MOL0     O23824   2.857   4.208  11.159  0.7326 -1.2102 -0.3557
  939MOL0     C23825   2.978   4.246  11.224  0.3056  0.0648  0.3488
  939MOL0     C23826   3.066   4.333  11.136 -0.0105 -0.9499  1.5993
  939MOL0     C23827   3.201   4.369  11.202 -0.5053  0.5580  0.5188
  939MOL0     C23828   3.276   4.486  11.127  0.3488  0.6549 -0.0024
  939MOL0     C23829   3.405   4.519  11.198  0.3252  0.1737  0.1654
  939MOL0     C23830   3.480   4.623  11.116  0.2637  0.3092  0.3819
  939MOL0     C23831   3.621   4.637  11.162  0.1036  0.4920 -0.4674
  939MOL0     C23832   3.633   4.747  11.268  0.8429  0.9018  0.0664
  939MOL0     N23833   3.770   4.790  11.273  0.3547 -0.6505  0.7751
  939MOL0     C23834   3.837   4.865  11.178 -0.7787 -0.1483 -0.2683
  939MOL0     C23835   3.964   4.863  11.221  0.3756 -0.3246  0.1859
  939MOL0     C23836   4.090   4.928  11.149  0.4868 -0.6680 -0.1378
  939MOL0     C23837   4.104   5.084  11.178 -0.4939  1.1097 -0.5020
  939MOL0     C23838   4.200   5.162  11.090 -0.6398  1.3970 -0.2603
  939MOL0     C23839   4.344   5.108  11.096 -0.3676  0.5005 -0.2297
  939MOL0     O23840   4.429   5.180  11.007  0.5240 -0.3481  0.2098
  939MOL0     C23841   4.564   5.158  11.009  0.0317  0.5272  0.0301
  939MOL0     C23842   4.645   5.233  10.925 -0.3115 -0.5343 -0.4616
  939MOL0     C23843   4.785   5.206  10.908  0.8508  0.1483 -0.2197
  939MOL0     C23844   4.836   5.105  10.987  0.7908  0.0340 -0.0543
  939MOL0     C23845   4.982   5.084  10.977 -0.1022  0.0278 -0.8076
  939MOL0     O23846   5.045   5.146  10.875 -0.2228  0.6520 -0.5134
  939MOL0     C23847   5.183   5.111  10.854  0.5978  0.4758  0.7688
  939MOL0     C23848   5.208   5.011  10.761  0.0536  1.6204  0.0050
  939MOL0     C23849   5.339   4.990  10.725 -0.2246 -0.3979 -0.5961
  939MOL0     C23850   5.444   5.040  10.802  1.2565 -0.3032 -0.2771
  939MOL0     O23851   5.569   5.009  10.759  0.7383  0.3539  0.5589
  939MOL0     C23852   5.672   5.020  10.855 -0.7247 -0.1209  0.1883
  939MOL0     C23853   5.786   4.926  10.814 -0.8192  0.9752  0.3874
  939MOL0     C23854   5.898   4.937  10.921  0.7167  0.7021  0.4867
  939MOL0     C23855   6.025   4.870  10.863 -0.6885 -0.1117  0.1819
  939MOL0     C23856   6.141   4.862  10.970  0.2630 -0.4356 -0.5642
  939MOL0     C23857   6.224   4.744  10.945  0.0268  0.2535  0.2579
  939MOL0     C23858   6.342   4.739  11.048  0.3371 -0.7328  0.2132
  939MOL0     C23859   6.442   4.632  11.011  0.3588 -0.7840  0.8766
  939MOL0    Cl23860   6.584   4.618  11.119  0.4214 -0.3567 -0.2767
  939MOL0     C23861   5.414   5.128  10.907 -0.1307  0.6312  0.0600
  939MOL0     C23862   5.285   5.169  10.931  0.2219  0.0817 -0.0604
  939MOL0     O23863   5.041   5.002  11.055  0.6845 -0.6970 -0.2518
  939MOL0     C23864   4.764   5.037  11.084 -0.6440  0.2733  1.1654
  939MOL0     C23865   4.627   5.063  11.106 -0.8038 -0.5606  0.1925
  939MOL0     N23866   3.967   4.812  11.347  0.9983 -0.1760 -0.1500
  939MOL0     N23867   3.859   4.761  11.373 -0.3970  0.0510  0.0416
  939MOL0     C23868   2.727   4.027  11.261 -0.2061 -0.1949 -0.7043
  939MOL0     C23869   2.606   4.003  11.337 -1.1206  0.3995  0.5608
  939MOL0     C23870   2.226   3.956  11.539  1.2395 -0.1680 -0.5487
  939MOL0     C23871   2.215   4.043  11.655 -0.4119  0.8107 -0.3407
  939MOL0     C23872   2.114   4.023  11.741 -0.0854  0.4855 -0.4871
  939MOL0     C23873   2.012   3.928  11.727  0.0099 -0.2439  0.2499
  939MOL0     O23874   1.913   3.928  11.826  0.4698 -0.3247 -0.0216
  939MOL0     C23875   1.774   3.891  11.777  0.5170 -0.2683  0.4198
  939MOL0     C23876   1.677   3.924  11.890 -0.3073 -0.1639  0.4559
  939MOL0     C23877   1.721   3.879  12.028 -0.4287  1.0188 -0.9432
  939MOL0     C23878   1.595   3.880  12.126 -0.6696  0.1948  0.2462
  939MOL0     C23879   1.482   3.790  12.097  0.0509 -0.0704  0.6351
  939MOL0     C23880   1.378   3.729  12.063 -0.0893  0.4446 -1.4685
  939MOL0     C23881   2.026   3.834  11.620  0.1966 -0.4512 -0.5343
  939MOL0     C23882   2.132   3.847  11.532 -0.2457 -0.6676  0.8826
  939MOL0     H23883   2.529   4.310  11.459 -0.6193  1.1618 -1.2919
  939MOL0     H23884   2.704   4.369  11.311 -1.1572  0.5742  0.9889
  939MOL0     H23885   3.026   4.158  11.268 -0.4726  0.4512  2.0324
  939MOL0     H23886   2.956   4.302  11.315 -1.7616 -1.1222  0.6391
  939MOL0     H23887   3.017   4.427  11.113  4.0888  0.8257 -1.0014
  939MOL0     H23888   3.077   4.280  11.041 -0.0517  2.6667 -0.5773
  939MOL0     H23889   3.263   4.279  11.201  2.8752  2.6635  1.2819
  939MOL0     H23890   3.188   4.397  11.307  0.6925 -3.0029  1.7662
  939MOL0     H23891   3.294   4.451  11.025  2.4939 -3.0168  1.4284
  939MOL0     H23892   3.214   4.574  11.109 -1.8669 -1.0165 -1.0959
  939MOL0     H23893   3.464   4.427  11.196  1.7421  0.9893  1.7527
  939MOL0     H23894   3.385   4.557  11.299  0.0890  2.5682 -0.7060
  939MOL0     H23895   3.421   4.714  11.125 -4.4390 -2.4498  0.2670
  939MOL0     H23896   3.491   4.601  11.010 -0.5946  0.2281  0.3031
  939MOL0     H23897   3.658   4.539  11.191 -2.0220 -0.8947 -2.1430
  939MOL0     H23898   3.686   4.660  11.076 -0.5275 -1.3137 -1.4704
  939MOL0     H23899   3.604   4.711  11.367 -0.8104  1.8462 -0.0364
  939MOL0     H23900   3.571   4.830  11.232  1.6861  1.5390  0.0555
  939MOL0     H23901   3.792   4.905  11.088  0.1204  4.1086  0.9685
  939MOL0     H23902   4.070   4.909  11.043  2.8292  0.2428 -0.7972
  939MOL0     H23903   4.182   4.878  11.181 -0.2225 -0.6660  2.1007
  939MOL0     H23904   4.119   5.105  11.285 -0.7663  0.9947 -0.4387
  939MOL0     H23905   4.003   5.120  11.153 -0.9791  1.1075  1.2652
  939MOL0     H23906   4.161   5.158  10.988  0.2852 -0.2990 -0.5897
  939MOL0     H23907   4.200   5.268  11.115 -0.3196  1.1019  1.1043
  939MOL0     H23908   4.338   5.001  11.076 -1.2788  0.4424  0.2760
  939MOL0     H23909   4.371   5.130  11.200 -1.5880  0.8280  0.0371
  939MOL0     H23910   4.594   5.309  10.867 -2.1866 -0.2861  1.4110
  939MOL0     H23911   4.853   5.272  10.854  0.9191 -1.0165 -1.5832
  939MOL0     H23912   5.129   4.972  10.699  0.4335 -0.1000  0.5446
  939MOL0     H23913   5.360   4.932  10.636  0.2438 -0.6638 -0.3201
  939MOL0     H23914   5.647   5.009  10.960  2.0158  1.6266  1.1422
  939MOL0     H23915   5.715   5.120  10.840 -2.0202  0.2597 -1.2869
  939MOL0     H23916   5.827   4.955  10.717  1.2826  2.2416  1.5722
  939MOL0     H23917   5.763   4.819  10.803  2.7099  0.1496 -0.3311
  939MOL0     H23918   5.873   4.877  11.010  0.2224 -0.0868 -0.1708
  939MOL0     H23919   5.927   5.040  10.945  3.8375 -0.8228  4.5718
  939MOL0     H23920   5.998   4.770  10.827 -3.8105 -0.3177  2.6128
  939MOL0     H23921   6.055   4.936  10.782 -2.5309  0.6269  0.0406
  939MOL0     H23922   6.085   4.866  11.064  1.1900  0.9347 -0.0482
  939MOL0     H23923   6.198   4.954  10.960  0.4870 -0.5274 -0.1364
  939MOL0     H23924   6.261   4.740  10.842  0.7492 -2.8660  0.5325
  939MOL0     H23925   6.162   4.654  10.955  1.0670 -0.5421 -0.2624
  939MOL0     H23926   6.386   4.839  11.048 -1.0894 -0.0599  1.7344
  939MOL0     H23927   6.291   4.712  11.141  0.5235 -2.9986 -0.2651
  939MOL0     H23928   6.469   4.650  10.906 -1.6416  0.1678  0.4787
  939MOL0     H23929   6.396   4.533  11.012  1.7919 -1.4766  0.9548
  939MOL0     H23930   5.502   5.152  10.966 -0.1339  0.7541  0.0141
  939MOL0     H23931   5.276   5.238  11.015  1.9158 -0.3641  0.5481
  939MOL0     H23932   4.812   4.958  11.141  2.8593 -0.1806 -2.0749
  939MOL0     H23933   4.568   4.997  11.169  0.5642 -1.4524  0.5873
  939MOL0     H23934   2.765   3.939  11.210 -0.3913 -1.0582  0.6097
  939MOL0     H23935   2.573   3.900  11.336 -2.6772  0.8667  1.0679
  939MOL0     H23936   2.288   4.122  11.673 -1.4130  0.9769  3.9705
  939MOL0     H23937   2.105   4.098  11.819 -1.8088 -0.2445  0.0568
  939MOL0     H23938   1.773   3.786  11.745  0.3430  0.3398 -1.7200
  939MOL0     H23939   1.733   3.931  11.684 -0.9999 -4.2876 -0.8611
  939MOL0     H23940   1.650   4.030  11.896  0.0591 -0.1079  1.2771
  939MOL0     H23941   1.581   3.875  11.870 -0.6772  0.7165  0.0099
  939MOL0     H23942   1.801   3.942  12.066  2.1673 -1.6531 -1.5868
  939MOL0     H23943   1.751   3.773  12.027 -1.2324  0.7388  1.0330
  939MOL0     H23944   1.630   3.841  12.222 -0.7745  0.7078  0.4923
  939MOL0     H23945   1.566   3.985  12.137 -0.5258  0.0936  1.9539
  939MOL0     H23946   1.281   3.698  12.029 -1.9200  2.0877  1.7500
  939MOL0     H23947   1.963   3.746  11.619 -0.0750 -0.4128  2.4715
  939MOL0     H23948   2.136   3.776  11.449 -1.0971 -0.3447  0.5619
  940MOL0     O23949   0.245  10.578   6.996 -0.1516  0.3208 -0.0374
  940MOL0     C23950   0.205  10.676   7.047  0.0946 -0.4058 -0.6163
  940MOL0     O23951   0.275  10.769   7.125 -0.0480  0.4182  0.1213
  940MOL0     C23952   0.407  10.743   7.147 -0.7433 -0.5172 -0.2026
  940MOL0     C23953   0.447  10.730   7.284 -0.8544  0.5431  0.2348
  940MOL0     C23954   0.584  10.721   7.304 -0.2133 -1.0419  0.0292
  940MOL0     C23955   0.688  10.725   7.200 -0.5655 -0.0809 -0.2956
  940MOL0     O23956   0.819  10.718   7.235 -0.0610 -0.8244  0.0336
  940MOL0     C23957   0.871  10.719   7.373  0.7675  0.1274 -0.0888
  940MOL0     C23958   1.021  10.688   7.359 -0.3734  1.5031  0.4201
  940MOL0     C23959   1.104  10.668   7.491 -1.0039 -0.0359  0.5453
  940MOL0     C23960   1.259  10.680   7.477 -0.9209  0.1695 -0.5035
  940MOL0     C23961   1.327  10.569   7.396  0.5538  0.2429  0.2496
  940MOL0     C23962   1.471  10.612   7.371  0.1546  1.4203  0.0713
  940MOL0     C23963   1.559  10.492   7.312  0.7078 -0.3373  0.7705
  940MOL0     C23964   1.680  10.551   7.240 -0.5941 -0.1650  0.1755
  940MOL0     N23965   1.746  10.442   7.163  0.4979  0.8821 -0.4743
  940MOL0     C23966   1.730  10.435   7.026  0.2113  0.0729 -0.5347
  940MOL0     C23967   1.831  10.364   6.976  0.5118  0.2186 -0.3921
  940MOL0     C23968   1.879  10.341   6.839  0.1520 -0.8175 -0.4946
  940MOL0     C23969   1.773  10.369   6.734 -0.0630  0.5315 -0.6123
  940MOL0     C23970   1.818  10.316   6.601  0.3455 -0.3551  0.1476
  940MOL0     C23971   1.730  10.367   6.490  0.3127 -0.1841 -0.5177
  940MOL0     O23972   1.608  10.288   6.502 -0.4297 -0.8733 -0.2113
  940MOL0     C23973   1.499  10.338   6.441  0.7115  0.5235  1.2107
  940MOL0     C23974   1.371  10.276   6.467  0.0243 -0.0710  0.6647
  940MOL0     C23975   1.252  10.313   6.393 -0.9049  0.5520 -0.5403
  940MOL0     C23976   1.258  10.410   6.287  0.2116  0.1380  0.4269
  940MOL0     C23977   1.142  10.460   6.205 -1.4189  0.5894  0.9209
  940MOL0     O23978   1.170  10.523   6.089  0.7827  0.3706 -0.2664
  940MOL0     C23979   1.061  10.578   6.023 -0.0639  0.1854  0.3000
  940MOL0     C23980   0.966  10.507   5.950  0.5436  0.8530  0.6511
  940MOL0     C23981   0.884  10.567   5.857  0.3944 -0.3416  0.7344
  940MOL0     C23982   0.891  10.704   5.848  0.0191 -0.1989  0.8688
  940MOL0     O23983   0.795  10.756   5.764  0.6981  0.1323 -0.0532
  940MOL0     C23984   0.852  10.810   5.647 -0.6300  1.0816  0.2743
  940MOL0     C23985   0.791  10.953   5.651 -0.6038  0.2548 -0.0798
  940MOL0     C23986   0.855  11.049   5.549 -0.5283  0.1625 -0.0518
  940MOL0     C23987   0.794  11.189   5.557 -0.3736  0.3024 -0.2078
  940MOL0     C23988   0.839  11.258   5.689  0.1483 -0.4689  0.9285
  940MOL0     C23989   0.974  11.333   5.666  0.2196  0.0311  0.3655
  940MOL0     C23990   1.015  11.376   5.799 -0.8215  0.1720 -0.2912
  940MOL0     C23991   1.157  11.451   5.792 -0.1401  0.3383  0.2358
  940MOL0    Cl23992   1.177  11.546   5.943 -0.2368  0.3314  0.3608
  940MOL0     C23993   0.982  10.784   5.911 -1.0618 -0.5420 -0.4623
  940MOL0     C23994   1.066  10.716   6.005  0.1262  0.7881 -0.3258
  940MOL0     O23995   1.034  10.437   6.260  0.3832 -0.2806  0.3971
  940MOL0     C23996   1.382  10.464   6.258  0.1705 -0.2087 -0.2243
  940MOL0     C23997   1.489  10.436   6.339 -0.4055 -0.1764 -0.1361
  940MOL0     N23998   1.905  10.325   7.087 -0.3289  0.6559  0.4673
  940MOL0     N23999   1.859  10.379   7.197  0.3650  0.0664 -0.0232
  940MOL0     C24000   0.647  10.729   7.073  0.0387  0.0158  0.3450
  940MOL0     C24001   0.510  10.755   7.042 -0.3733  0.3678 -0.1244
  940MOL0     C24002   0.060  10.701   7.029 -0.8680 -0.4489  0.5283
  940MOL0     C24003   0.011  10.829   7.075  0.4870  0.3061  1.2491
  940MOL0     C24004  -0.122  10.852   7.062  0.6910 -0.2257  0.7225
  940MOL0     C24005  -0.220  10.762   7.012  0.7183 -0.4611  0.0738
  940MOL0     O24006  -0.349  10.811   7.004  0.3432  0.2577  0.1505
  940MOL0     C24007  -0.456  10.722   6.974 -0.4376 -0.0547 -0.3385
  940MOL0     C24008  -0.572  10.769   7.054  0.2801 -0.0104  0.3563
  940MOL0     C24009  -0.701  10.692   7.039  0.6455  0.4411 -1.1979
  940MOL0     C24010  -0.757  10.678   7.182 -1.2258  0.8159 -0.8494
  940MOL0     C24011  -0.883  10.603   7.175 -1.0545 -0.3587  0.1848
  940MOL0     C24012  -0.995  10.549   7.157  0.7981 -1.0094  0.0047
  940MOL0     C24013  -0.176  10.642   6.967  0.5751 -0.5320  0.2056
  940MOL0     C24014  -0.040  10.613   6.973 -0.1880  0.3512 -1.0378
  940MOL0     H24015   0.386  10.754   7.370 -0.1162  3.0277  0.1555
  940MOL0     H24016   0.619  10.700   7.405 -1.5898  2.3021  1.3380
  940MOL0     H24017   0.833  10.633   7.429 -1.9522 -0.2307 -2.2894
  940MOL0     H24018   0.849  10.814   7.423 -1.3400  1.3577 -3.0690
  940MOL0     H24019   1.070  10.764   7.299 -0.9616  2.6126  1.2987
  940MOL0     H24020   1.022  10.595   7.302  0.0241  1.5035  0.4242
  940MOL0     H24021   1.077  10.575   7.543 -2.4089 -0.1901 -0.4148
  940MOL0     H24022   1.078  10.742   7.567 -2.0691 -0.2673  0.4194
  940MOL0     H24023   1.283  10.773   7.426  1.1346  0.2755  0.5468
  940MOL0     H24024   1.298  10.667   7.578 -2.7494 -1.6204  0.0542
  940MOL0     H24025   1.270  10.541   7.307 -0.1836 -3.3413  1.7080
  940MOL0     H24026   1.331  10.476   7.452 -1.2084 -0.9903 -1.5382
  940MOL0     H24027   1.523  10.647   7.461  0.5559  1.7655 -0.2937
  940MOL0     H24028   1.466  10.690   7.295  1.6651  0.9404 -0.5466
  940MOL0     H24029   1.593  10.428   7.394  0.0224  1.6382  2.6542
  940MOL0     H24030   1.495  10.430   7.248 -0.1025 -0.0801  1.3216
  940MOL0     H24031   1.741  10.600   7.316  0.2525  0.1438 -0.6864
  940MOL0     H24032   1.663  10.631   7.168  0.2331  0.3637  0.5634
  940MOL0     H24033   1.659  10.492   6.968  0.8120  1.2383 -0.1544
  940MOL0     H24034   1.907  10.235   6.840 -2.9602 -1.8372  3.3514
  940MOL0     H24035   1.968  10.403   6.828  1.1183 -1.6915  1.8133
  940MOL0     H24036   1.742  10.474   6.731 -2.9696 -0.2424 -1.3553
  940MOL0     H24037   1.677  10.322   6.756 -0.6591  0.6237 -2.7571
  940MOL0     H24038   1.919  10.349   6.575  0.2221 -0.4039 -0.4111
  940MOL0     H24039   1.824  10.207   6.600  2.3558 -0.2835 -0.0592
  940MOL0     H24040   1.771  10.353   6.390 -0.7841 -2.0103 -0.7573
  940MOL0     H24041   1.710  10.472   6.513 -0.6024 -0.5563  0.4854
  940MOL0     H24042   1.361  10.201   6.545 -2.2335 -0.1685  0.3685
  940MOL0     H24043   1.158  10.266   6.420 -0.0277 -1.8982 -1.4731
  940MOL0     H24044   0.969  10.399   5.956  2.9355  0.7177 -1.2772
  940MOL0     H24045   0.809  10.512   5.801  0.8628 -1.1513  0.8972
  940MOL0     H24046   0.816  10.774   5.550 -0.8007 -0.6227  0.9363
  940MOL0     H24047   0.960  10.816   5.656 -0.3934 -0.9969 -0.5403
  940MOL0     H24048   0.805  10.988   5.753  1.2066  3.3438 -1.2580
  940MOL0     H24049   0.684  10.939   5.636 -0.6628 -1.9882  1.8348
  940MOL0     H24050   0.847  11.012   5.447  2.9033  2.3222 -1.3185
  940MOL0     H24051   0.961  11.067   5.572 -0.4035  0.9651 -1.1838
  940MOL0     H24052   0.808  11.250   5.467  0.4141 -2.4432 -2.0775
  940MOL0     H24053   0.686  11.171   5.551 -0.4854  1.2758 -1.7290
  940MOL0     H24054   0.842  11.188   5.773  0.0762 -2.9331 -1.0155
  940MOL0     H24055   0.751  11.322   5.705 -2.5631 -2.7661 -2.9479
  940MOL0     H24056   0.949  11.413   5.595  1.9975  0.5159  0.2336
  940MOL0     H24057   1.048  11.268   5.618 -0.4725 -2.5288  2.5260
  940MOL0     H24058   0.931  11.439   5.831 -2.4963 -1.9033 -0.3660
  940MOL0     H24059   1.021  11.290   5.867  1.4834 -0.4786 -1.2466
  940MOL0     H24060   1.168  11.511   5.702  1.8432  0.0489  0.2305
  940MOL0     H24061   1.244  11.384   5.786  2.0733  2.9780  0.5845
  940MOL0     H24062   0.996  10.890   5.897 -1.7964 -0.2941  0.5462
  940MOL0     H24063   1.141  10.779   6.052 -3.2718  2.7084  3.1764
  940MOL0     H24064   1.399  10.540   6.182  2.1460  1.0343  1.3573
  940MOL0     H24065   1.576  10.495   6.314  0.0732 -1.7677 -2.6084
  940MOL0     H24066   0.722  10.729   6.995  0.2602  1.5167  0.5301
  940MOL0     H24067   0.480  10.759   6.937  2.9400 -2.4337 -1.3620
  940MOL0     H24068   0.083  10.899   7.116  0.1255  3.7113 -3.0924
  940MOL0     H24069  -0.156  10.953   7.080 -1.0536 -0.3535 -1.3870
  940MOL0     H24070  -0.438  10.622   7.014 -0.2102  0.0156 -0.2656
  940MOL0     H24071  -0.463  10.697   6.867 -0.4211 -1.8320  0.0327
  940MOL0     H24072  -0.545  10.791   7.158  0.3414  0.2179  0.2942
  940MOL0     H24073  -0.583  10.869   7.011  2.6072  0.5133  0.8525
  940MOL0     H24074  -0.685  10.596   6.988  1.7551 -1.2467  2.0383
  940MOL0     H24075  -0.778  10.747   6.984 -1.1334  0.6326  1.2939
  940MOL0     H24076  -0.694  10.615   7.244  0.0567  1.3544 -1.5727
  940MOL0     H24077  -0.766  10.780   7.222  1.5664  0.9927 -0.4804
  940MOL0     H24078  -1.089  10.502   7.140  0.2724 -0.8370  2.1604
  940MOL0     H24079  -0.242  10.577   6.910  0.0675  0.8834 -0.8872
  940MOL0     H24080   0.005  10.527   6.924  0.2452  0.1254 -0.2615
  941MOL0     O24081   3.476   4.817   4.020  0.0226  0.1814 -0.2583
  941MOL0     C24082   3.566   4.900   3.994 -0.7379  0.2865  0.7043
  941MOL0     O24083   3.549   5.021   3.936 -0.5476 -0.5956  0.5906
  941MOL0     C24084   3.432   5.042   3.868 -0.1805 -0.4006 -0.6280
  941MOL0     C24085   3.375   5.165   3.910  0.3065 -0.9592  0.1461
  941MOL0     C24086   3.265   5.214   3.853  0.9553  0.1735  1.1437
  941MOL0     C24087   3.194   5.136   3.755 -0.9275 -0.9867 -0.5471
  941MOL0     O24088   3.083   5.196   3.710  0.4200  1.0336  0.4057
  941MOL0     C24089   2.985   5.116   3.638 -0.7416  0.8204 -0.1086
  941MOL0     C24090   2.885   5.225   3.583  0.0670  0.3502 -0.2819
  941MOL0     C24091   2.797   5.172   3.472 -0.3741  0.1307  0.6847
  941MOL0     C24092   2.673   5.097   3.524 -0.1572 -0.4296 -0.3140
  941MOL0     C24093   2.583   5.052   3.411 -0.4451 -1.1268  0.4285
  941MOL0     C24094   2.470   4.964   3.467 -0.0368  0.1290 -0.0138
  941MOL0     C24095   2.341   4.988   3.383  0.6822 -0.2683  0.3451
  941MOL0     C24096   2.265   5.122   3.399  0.4999 -0.4333  0.7534
  941MOL0     N24097   2.119   5.125   3.417  0.1368 -0.1010 -0.2913
  941MOL0     C24098   2.051   5.171   3.529  0.5377 -0.2480  0.3935
  941MOL0     C24099   1.920   5.172   3.492 -0.4890  0.4567  0.3905
  941MOL0     C24100   1.811   5.227   3.570  0.5214 -0.1844 -0.9137
  941MOL0     C24101   1.840   5.371   3.602  0.1174 -0.0189 -0.1124
  941MOL0     C24102   1.718   5.456   3.637  1.0771  0.0337 -0.5181
  941MOL0     C24103   1.750   5.610   3.604  0.0348 -0.6021  0.0048
  941MOL0     O24104   1.880   5.658   3.659 -0.1863  0.4755  0.4989
  941MOL0     C24105   1.901   5.679   3.790  0.1232 -0.7309 -1.1809
  941MOL0     C24106   1.794   5.682   3.888 -0.7184  0.1189  0.3223
  941MOL0     C24107   1.817   5.695   4.021 -0.1430  1.1933  0.2471
  941MOL0     C24108   1.953   5.713   4.064  0.8186  0.0297 -0.0527
  941MOL0     C24109   1.982   5.713   4.207  1.4505 -0.1683  0.1237
  941MOL0     O24110   2.112   5.731   4.247 -0.1217  0.0469  0.5976
  941MOL0     C24111   2.122   5.708   4.380  0.2605  0.2876 -0.0804
  941MOL0     C24112   2.090   5.813   4.468  1.6264 -0.3534 -0.5764
  941MOL0     C24113   2.100   5.800   4.607  0.3046 -0.1204 -0.3322
  941MOL0     C24114   2.141   5.677   4.663  0.3071  0.2261 -0.1331
  941MOL0     O24115   2.155   5.687   4.798 -0.2112  0.4865 -0.1383
  941MOL0     C24116   2.192   5.576   4.880  0.0645  0.1217  0.0048
  941MOL0     C24117   2.079   5.474   4.906 -0.0036 -0.2838 -0.9063
  941MOL0     C24118   2.117   5.341   4.964 -0.0528 -0.2941 -0.2743
  941MOL0     C24119   1.990   5.258   4.989 -0.1908  0.7568  0.3481
  941MOL0     C24120   2.033   5.118   5.033 -0.2845  0.2305 -0.2915
  941MOL0     C24121   2.126   5.113   5.160  0.5564  0.4360  0.1537
  941MOL0     C24122   2.147   4.965   5.198 -0.8129  0.2660 -0.3146
  941MOL0     C24123   2.245   4.936   5.315  0.3334  0.0906  0.0064
  941MOL0    Cl24124   2.314   4.767   5.310  0.0108 -0.1763 -0.2027
  941MOL0     C24125   2.176   5.569   4.578 -0.8413 -0.9338  0.0031
  941MOL0     C24126   2.168   5.582   4.435 -0.6672  0.7787  0.2213
  941MOL0     O24127   1.886   5.696   4.284  0.2340 -0.5102  0.8186
  941MOL0     C24128   2.055   5.720   3.967 -0.3010  0.5042 -0.1091
  941MOL0     C24129   2.031   5.705   3.829  0.7684 -0.9006  0.5066
  941MOL0     N24130   1.905   5.130   3.367 -0.7719  0.0010 -0.2412
  941MOL0     N24131   2.025   5.105   3.321  0.3439 -0.5197 -0.1465
  941MOL0     C24132   3.233   5.012   3.732 -0.9301  0.8769  0.6862
  941MOL0     C24133   3.357   4.959   3.784  0.1312  0.0231  1.0362
  941MOL0     C24134   3.698   4.837   4.022 -0.7248 -0.1147  0.1683
  941MOL0     C24135   3.821   4.903   3.987 -0.2653 -0.2426 -0.8897
  941MOL0     C24136   3.948   4.857   4.020  0.3860 -0.3564 -0.0561
  941MOL0     C24137   3.954   4.747   4.106  1.0479 -0.1785 -0.4259
  941MOL0     O24138   4.073   4.712   4.171  0.3450 -0.5205  0.2166
  941MOL0     C24139   4.197   4.785   4.133  0.1528  0.3473  0.3890
  941MOL0     C24140   4.310   4.735   4.226 -0.4641  0.4623  0.3306
  941MOL0     C24141   4.346   4.585   4.200 -0.5203  0.0877  0.6926
  941MOL0     C24142   4.479   4.539   4.256  0.6272  0.3661  0.3803
  941MOL0     C24143   4.548   4.443   4.175  0.0013  0.1759  1.1127
  941MOL0     C24144   4.603   4.350   4.119  0.2849 -0.2105  1.0705
  941MOL0     C24145   3.838   4.669   4.126 -0.6290 -0.3715  0.1089
  941MOL0     C24146   3.716   4.720   4.098 -0.2585  0.3101  0.2925
  941MOL0     H24147   3.420   5.220   3.992 -1.9560 -0.3127  1.0502
  941MOL0     H24148   3.226   5.310   3.885  2.8286  0.9130  1.3219
  941MOL0     H24149   2.927   5.045   3.698 -1.8409  2.2001  0.5278
  941MOL0     H24150   3.017   5.048   3.559 -1.2212  0.7670 -0.2650
  941MOL0     H24151   2.943   5.310   3.545 -0.0248  2.0711  3.0699
  941MOL0     H24152   2.825   5.257   3.669 -0.8292  1.2106 -1.1987
  941MOL0     H24153   2.842   5.115   3.391  1.7275  1.3889  0.9004
  941MOL0     H24154   2.760   5.262   3.421 -1.6276 -2.1058 -2.7028
  941MOL0     H24155   2.711   5.007   3.574  2.9155  1.7825  1.6653
  941MOL0     H24156   2.615   5.157   3.596  0.0495 -0.1580 -0.3748
  941MOL0     H24157   2.632   4.993   3.333 -0.3811  2.5772 -2.6578
  941MOL0     H24158   2.544   5.138   3.356 -0.2824 -0.9646  0.5627
  941MOL0     H24159   2.452   4.996   3.570 -3.1737  0.0521 -0.4428
  941MOL0     H24160   2.513   4.863   3.459  0.0058  0.1701 -0.3148
  941MOL0     H24161   2.359   4.986   3.275  1.6613 -1.9268  0.5155
  941MOL0     H24162   2.274   4.906   3.408 -1.0231  0.6908 -0.8829
  941MOL0     H24163   2.284   5.176   3.306 -0.2873  1.5911  1.6961
  941MOL0     H24164   2.308   5.175   3.485  2.2069 -2.3768  1.1825
  941MOL0     H24165   2.083   5.219   3.620  6.6412 -0.5797 -1.1403
  941MOL0     H24166   1.794   5.175   3.664  3.5145 -0.1237 -0.2234
  941MOL0     H24167   1.722   5.215   3.507 -0.9821  0.9988  0.8941
  941MOL0     H24168   1.905   5.409   3.523  0.8382 -0.1244  0.4196
  941MOL0     H24169   1.903   5.369   3.691 -0.8718  5.6176  1.0728
  941MOL0     H24170   1.640   5.419   3.570  0.5076  0.4338 -0.0877
  941MOL0     H24171   1.688   5.445   3.742  1.1436 -1.6084 -0.6422
  941MOL0     H24172   1.661   5.665   3.637  1.4225  2.8865 -1.5533
  941MOL0     H24173   1.750   5.618   3.495  3.4365 -0.9170 -0.1248
  941MOL0     H24174   1.689   5.669   3.867 -1.3210  0.5474  2.8147
  941MOL0     H24175   1.733   5.698   4.090 -0.1021 -0.6143  0.4256
  941MOL0     H24176   2.070   5.908   4.420 -1.3679 -0.6932 -0.2210
  941MOL0     H24177   2.082   5.882   4.676 -0.0390 -0.9312  0.5596
  941MOL0     H24178   2.231   5.605   4.978 -3.3250 -2.6149  2.4574
  941MOL0     H24179   2.277   5.524   4.836  0.4998  0.4861  0.3981
  941MOL0     H24180   2.032   5.442   4.812 -1.2740 -1.8954  0.2288
  941MOL0     H24181   1.998   5.521   4.963 -1.6996  0.0147 -3.3886
  941MOL0     H24182   2.172   5.354   5.058 -1.1050 -0.8593  0.4285
  941MOL0     H24183   2.194   5.299   4.899  0.1043 -0.8187  0.2453
  941MOL0     H24184   1.927   5.299   5.069 -2.0585  1.0094 -1.1999
  941MOL0     H24185   1.924   5.248   4.903 -0.8244  4.2045  0.3017
  941MOL0     H24186   2.085   5.066   4.952 -1.0529 -1.2005  0.1079
  941MOL0     H24187   1.940   5.063   5.047  0.2329 -0.6080 -0.1198
  941MOL0     H24188   2.085   5.180   5.235 -1.1524 -1.0877  0.6674
  941MOL0     H24189   2.226   5.147   5.130  0.3895 -0.0911 -1.0714
  941MOL0     H24190   2.055   4.920   5.235 -0.4279 -0.0614  0.2532
  941MOL0     H24191   2.170   4.909   5.107 -2.2604  0.3870 -0.7793
  941MOL0     H24192   2.184   4.964   5.401  0.4199  3.1894 -0.8319
  941MOL0     H24193   2.325   5.010   5.311 -0.6850  1.2640  0.7276
  941MOL0     H24194   2.216   5.478   4.622  2.9368 -0.5443 -2.2079
  941MOL0     H24195   2.183   5.499   4.367 -1.6671  2.1781 -1.8407
  941MOL0     H24196   2.156   5.753   3.991  0.9291 -0.8176 -2.9887
  941MOL0     H24197   2.114   5.709   3.759  1.5935 -0.2895  1.4985
  941MOL0     H24198   3.178   4.948   3.663 -1.1516  2.1808 -0.3851
  941MOL0     H24199   3.392   4.864   3.745  0.3775  0.3649  0.4055
  941MOL0     H24200   3.811   4.992   3.924 -3.1279 -0.0835 -0.3418
  941MOL0     H24201   4.027   4.922   3.983  0.5627 -0.5515 -0.0256
  941MOL0     H24202   4.195   4.894   4.132  0.3510  0.3982 -2.5388
  941MOL0     H24203   4.208   4.760   4.027 -1.2294  2.9748 -0.4555
  941MOL0     H24204   4.399   4.799   4.229  3.3347 -4.2862  0.6408
  941MOL0     H24205   4.283   4.726   4.331 -0.8106 -0.1143  0.1984
  941MOL0     H24206   4.349   4.582   4.091  0.5268  0.8473  0.6882
  941MOL0     H24207   4.266   4.517   4.231  0.2833  0.1568  3.1181
  941MOL0     H24208   4.547   4.621   4.282  3.4810 -1.7225 -0.0456
  941MOL0     H24209   4.463   4.493   4.354  3.2092 -0.8925  0.3073
  941MOL0     H24210   4.641   4.253   4.093  0.7780  0.0190  0.9230
  941MOL0     H24211   3.855   4.576   4.181  0.1228  1.7921  3.9354
  941MOL0     H24212   3.633   4.660   4.135 -0.0566  0.1145  0.4342
  942MOL0     O24213   0.316  11.153   2.067  0.1911  0.0977  0.0883
  942MOL0     C24214   0.242  11.156   2.163 -0.1792 -0.3931  0.0513
  942MOL0     O24215   0.258  11.077   2.279 -0.0947  0.4232  0.0225
  942MOL0     C24216   0.361  10.984   2.283  0.0157 -0.0517  0.3300
  942MOL0     C24217   0.491  11.012   2.233 -0.7518  0.6654 -0.5695
  942MOL0     C24218   0.594  10.911   2.253  0.8454  0.3150  0.8940
  942MOL0     C24219   0.559  10.779   2.291  0.0280 -0.2673 -0.0630
  942MOL0     O24220   0.643  10.676   2.283 -0.5819  0.3993  0.7081
  942MOL0     C24221   0.763  10.695   2.361  0.4186 -0.2713  0.4216
  942MOL0     C24222   0.883  10.709   2.263 -0.4005  0.5988 -0.8770
  942MOL0     C24223   0.893  10.584   2.169  0.0419 -0.8042 -0.2172
  942MOL0     C24224   0.811  10.607   2.039 -0.5025  0.3795  1.0147
  942MOL0     C24225   0.913  10.592   1.917  0.6865 -0.1710 -0.7040
  942MOL0     C24226   0.842  10.624   1.787 -0.6643 -0.2297  0.0874
  942MOL0     C24227   0.926  10.711   1.697 -0.3384 -0.2036  0.2197
  942MOL0     C24228   1.067  10.661   1.662 -0.3540 -0.1576 -0.7535
  942MOL0     N24229   1.152  10.763   1.609 -0.2127 -0.2488  0.1357
  942MOL0     C24230   1.260  10.739   1.522  0.7902 -0.1868  0.9033
  942MOL0     C24231   1.326  10.857   1.512 -0.1020 -0.4341 -0.7267
  942MOL0     C24232   1.441  10.896   1.421  0.0066 -0.3228 -0.4928
  942MOL0     C24233   1.566  10.901   1.517  0.5500  0.7593 -0.3929
  942MOL0     C24234   1.658  10.991   1.445 -0.1472  0.1387  0.1721
  942MOL0     C24235   1.804  10.992   1.498 -0.5037 -0.7652  0.2798
  942MOL0     O24236   1.869  11.083   1.404 -0.6581 -0.3089 -0.5484
  942MOL0     C24237   1.975  11.017   1.339 -0.0442  0.4879 -0.5023
  942MOL0     C24238   1.954  10.942   1.227  0.4721  0.4694  0.7736
  942MOL0     C24239   2.050  10.867   1.168  0.2453 -0.4293  0.4762
  942MOL0     C24240   2.179  10.873   1.215 -0.0663 -0.3589  0.2604
  942MOL0     C24241   2.293  10.815   1.134 -0.4182 -0.0465 -0.3735
  942MOL0     O24242   2.256  10.697   1.081  0.0391 -0.9483  0.2896
  942MOL0     C24243   2.354  10.612   1.037  0.4613  0.0710 -0.5394
  942MOL0     C24244   2.419  10.528   1.127  0.0330 -1.2008  0.2988
  942MOL0     C24245   2.505  10.424   1.085  0.1284 -0.0633 -0.2793
  942MOL0     C24246   2.554  10.416   0.952 -0.2575  0.0894 -0.1785
  942MOL0     O24247   2.659  10.350   0.893 -0.0959 -0.6012  0.4672
  942MOL0     C24248   2.707  10.246   0.969 -0.1308  0.2494 -0.2203
  942MOL0     C24249   2.802  10.173   0.879  0.2885 -0.1659  0.3997
  942MOL0     C24250   2.902  10.103   0.973 -1.2419 -0.7712  0.0340
  942MOL0     C24251   2.975  10.006   0.893  0.6825  0.5302  0.7910
  942MOL0     C24252   3.117   9.978   0.936 -1.2147 -0.2423  0.2642
  942MOL0     C24253   3.228  10.086   0.894 -0.7394 -0.0350 -0.2881
  942MOL0     C24254   3.361  10.011   0.900  0.1686 -0.4230 -0.4330
  942MOL0     C24255   3.481  10.096   0.927 -0.9384 -0.5809  0.2945
  942MOL0    Cl24256   3.492  10.149   1.109  0.1524 -0.7717  0.4674
  942MOL0     C24257   2.482  10.495   0.862  0.4421 -0.0533 -0.6103
  942MOL0     C24258   2.383  10.590   0.902 -0.1703  1.5338 -0.8286
  942MOL0     O24259   2.402  10.866   1.142  0.4398 -0.5876  0.9440
  942MOL0     C24260   2.203  10.970   1.321 -0.0581  0.1015 -0.4323
  942MOL0     C24261   2.103  11.038   1.388 -0.6415 -0.1407 -0.2631
  942MOL0     N24262   1.263  10.941   1.595 -0.0595 -0.4002 -0.1974
  942MOL0     N24263   1.167  10.883   1.655  0.4464 -0.7184 -0.4799
  942MOL0     C24264   0.430  10.755   2.340  0.3764  0.4472  0.4685
  942MOL0     C24265   0.334  10.861   2.344 -0.1529 -0.0263 -0.6662
  942MOL0     C24266   0.124  11.242   2.145  0.3480  0.0917  0.4274
  942MOL0     C24267  -0.001  11.208   2.203  0.0957  0.1340  0.1181
  942MOL0     C24268  -0.127  11.278   2.182  0.1323  0.6200  0.0196
  942MOL0     C24269  -0.120  11.391   2.109  0.9982  0.3544  0.3723
  942MOL0     O24270  -0.239  11.451   2.088  0.0749  0.4921  0.8171
  942MOL0     C24271  -0.229  11.567   2.008  0.0645  0.2463 -0.1675
  942MOL0     C24272  -0.372  11.610   2.003 -0.4658  0.6975 -0.4982
  942MOL0     C24273  -0.385  11.747   1.929  1.0427 -0.4948 -0.3083
  942MOL0     C24274  -0.387  11.741   1.774 -0.0021  0.2459  0.1063
  942MOL0     C24275  -0.248  11.755   1.718 -0.0308 -0.0725  0.3572
  942MOL0     C24276  -0.137  11.764   1.666 -0.7730  0.8408  0.0337
  942MOL0     C24277   0.005  11.436   2.048 -0.4135 -0.5452 -0.2784
  942MOL0     C24278   0.120  11.356   2.059 -0.2598 -0.1170 -0.1332
  942MOL0     H24279   0.512  11.102   2.176  1.4358  1.5239  1.4179
  942MOL0     H24280   0.693  10.923   2.211  0.4405  3.6134  0.6504
  942MOL0     H24281   0.789  10.612   2.428 -0.1955  1.7853  3.4208
  942MOL0     H24282   0.756  10.789   2.418  1.4356 -1.4304  2.6081
  942MOL0     H24283   0.982  10.721   2.309 -1.0375 -1.9770  1.3740
  942MOL0     H24284   0.871  10.795   2.197 -1.5779  0.1842 -1.2246
  942MOL0     H24285   0.871  10.485   2.210  3.2457 -1.3792  0.4065
  942MOL0     H24286   0.998  10.569   2.143  0.0447 -1.6728  0.2431
  942MOL0     H24287   0.732  10.531   2.037 -2.6668  2.4514  2.0289
  942MOL0     H24288   0.769  10.708   2.036  0.3082  0.8901  3.8272
  942MOL0     H24289   0.951  10.489   1.911  3.3314  0.7651 -1.5434
  942MOL0     H24290   1.000  10.653   1.944 -0.1826 -0.0091  2.0255
  942MOL0     H24291   0.757  10.689   1.809 -2.7876 -2.1018 -2.0263
  942MOL0     H24292   0.806  10.532   1.740 -0.0313 -0.5363  0.1924
  942MOL0     H24293   0.867  10.731   1.607 -1.8529  0.6743  1.3666
  942MOL0     H24294   0.933  10.809   1.745 -3.2124 -0.3907  1.1853
  942MOL0     H24295   1.037  10.577   1.599 -0.1978 -2.8600  2.5006
  942MOL0     H24296   1.113  10.621   1.753 -0.4666  2.8850  0.7604
  942MOL0     H24297   1.271  10.642   1.474  0.1324  0.0557  0.2456
  942MOL0     H24298   1.425  10.994   1.375  0.8511 -1.0618 -2.4283
  942MOL0     H24299   1.460  10.832   1.335 -0.4206 -0.5066 -0.4545
  942MOL0     H24300   1.606  10.800   1.530 -0.1842  0.7867  3.0631
  942MOL0     H24301   1.535  10.932   1.617  0.5208 -1.0227  0.1956
  942MOL0     H24302   1.667  10.968   1.339  2.5201  1.9698 -0.1145
  942MOL0     H24303   1.620  11.093   1.458 -0.1099 -0.1354  2.9703
  942MOL0     H24304   1.851  10.893   1.488  3.7614  1.0474  0.2369
  942MOL0     H24305   1.820  11.023   1.601  2.1485 -0.6396 -0.0987
  942MOL0     H24306   1.854  10.941   1.185  0.4267  0.0958  0.8869
  942MOL0     H24307   2.032  10.808   1.078 -1.0488  1.6805 -0.7158
  942MOL0     H24308   2.402  10.536   1.234 -0.3710  0.3001  0.1365
  942MOL0     H24309   2.543  10.362   1.166 -0.8349 -0.4897 -0.1439
  942MOL0     H24310   2.631  10.177   1.004  0.3316 -0.9342 -1.4554
  942MOL0     H24311   2.754  10.288   1.059 -1.2266  0.6480  0.1758
  942MOL0     H24312   2.857  10.230   0.803 -0.2590  0.8908  0.7802
  942MOL0     H24313   2.738  10.105   0.823  3.0194 -1.1669 -1.7361
  942MOL0     H24314   2.868  10.026   1.043 -1.8946 -1.1553 -0.6778
  942MOL0     H24315   2.971  10.171   1.023 -1.7115 -1.9902  2.4881
  942MOL0     H24316   2.922   9.910   0.886 -1.4926  1.7488 -0.8511
  942MOL0     H24317   2.978  10.031   0.786 -1.7371 -1.0320  0.2702
  942MOL0     H24318   3.144   9.892   0.875 -1.9674 -0.0683 -0.3272
  942MOL0     H24319   3.130   9.958   1.043  1.4514 -0.0296  0.0488
  942MOL0     H24320   3.234  10.172   0.960 -2.7351  1.8614 -2.3905
  942MOL0     H24321   3.210  10.125   0.793 -0.6781 -1.5820 -0.9322
  942MOL0     H24322   3.353   9.929   0.972  0.1452  0.9194  1.1760
  942MOL0     H24323   3.369   9.956   0.807  2.0185 -0.6981 -0.1521
  942MOL0     H24324   3.495  10.180   0.858  2.8879 -3.4470 -2.8585
  942MOL0     H24325   3.567  10.035   0.900 -1.0916  0.5224 -3.1184
  942MOL0     H24326   2.520  10.506   0.761  2.1742  1.2321  0.1224
  942MOL0     H24327   2.335  10.647   0.823 -0.8539  0.1144 -1.4647
  942MOL0     H24328   2.299  10.971   1.372 -1.1702  2.7235  1.8859
  942MOL0     H24329   2.108  11.107   1.471 -0.3212  2.0325 -2.0051
  942MOL0     H24330   0.401  10.653   2.365 -1.5640  0.5178 -1.2438
  942MOL0     H24331   0.235  10.832   2.377 -0.1410  1.3730  0.7211
  942MOL0     H24332  -0.017  11.122   2.268 -0.1707 -0.1955 -0.3698
  942MOL0     H24333  -0.222  11.242   2.221  1.3642 -0.1125  2.5536
  942MOL0     H24334  -0.184  11.560   1.909  2.1876  1.1855  0.6850
  942MOL0     H24335  -0.165  11.646   2.048  2.0787  0.8520 -4.1721
  942MOL0     H24336  -0.428  11.530   1.954 -0.6516  1.8455 -2.2653
  942MOL0     H24337  -0.413  11.618   2.104 -0.0809  2.7802 -0.4657
  942MOL0     H24338  -0.301  11.811   1.957  2.5856 -1.1749 -3.0069
  942MOL0     H24339  -0.478  11.792   1.965 -0.1459 -1.7293 -1.6579
  942MOL0     H24340  -0.449  11.657   1.743 -0.4067  0.0170  1.4797
  942MOL0     H24341  -0.438  11.832   1.740 -2.0536 -1.0090 -0.3324
  942MOL0     H24342  -0.040  11.774   1.622 -0.8051 -0.9274 -0.5258
  942MOL0     H24343   0.008  11.517   1.975 -2.0743 -3.0298 -3.3397
  942MOL0     H24344   0.204  11.377   1.994 -0.1564 -1.5878 -0.5045
  943MOL0     O24345   0.975   3.198   4.774 -0.3306  0.2959 -0.8379
  943MOL0     C24346   0.884   3.122   4.751 -0.1479  1.4197 -0.1427
  943MOL0     O24347   0.892   2.984   4.765  0.2093 -0.1343 -0.0011
  943MOL0     C24348   0.951   2.937   4.881  0.4632 -0.1946 -0.4436
  943MOL0     C24349   1.006   2.814   4.875  0.5899  0.9001 -0.2548
  943MOL0     C24350   1.051   2.744   4.986 -0.3074 -0.3189 -0.2805
  943MOL0     C24351   1.060   2.805   5.110  0.3429 -1.8122  0.0925
  943MOL0     O24352   1.130   2.753   5.213  0.2416  0.2739 -0.4959
  943MOL0     C24353   1.240   2.666   5.196  1.2184 -0.1246  0.4399
  943MOL0     C24354   1.282   2.616   5.336  0.5329  0.8298 -0.5781
  943MOL0     C24355   1.307   2.727   5.434 -0.5955  0.5707 -0.2000
  943MOL0     C24356   1.379   2.665   5.554 -0.5200 -0.3099 -0.8394
  943MOL0     C24357   1.450   2.781   5.627 -0.9117  0.8234 -0.5770
  943MOL0     C24358   1.521   2.723   5.750  0.3471  0.1371 -0.1272
  943MOL0     C24359   1.556   2.823   5.851 -0.3061  0.0551  0.5609
  943MOL0     C24360   1.667   2.766   5.936  0.1752 -0.6226 -0.9490
  943MOL0     N24361   1.795   2.748   5.866 -0.5950 -0.5387  0.4249
  943MOL0     C24362   1.874   2.640   5.882  0.4166  0.8806  0.4435
  943MOL0     C24363   1.981   2.669   5.806  0.3758  0.0183 -1.2058
  943MOL0     C24364   2.082   2.569   5.804 -0.8599  0.0466  0.0314
  943MOL0     C24365   2.042   2.447   5.721  0.6143 -0.0373  0.3492
  943MOL0     C24366   2.041   2.474   5.565  0.1180 -0.2425 -0.8284
  943MOL0     C24367   2.015   2.339   5.489 -0.9236 -0.2303 -0.3155
  943MOL0     O24368   2.029   2.366   5.348 -0.4202  0.5796  0.4692
  943MOL0     C24369   1.933   2.410   5.265  0.8941 -0.4904 -0.2306
  943MOL0     C24370   1.959   2.430   5.124  0.4835  0.4234 -0.2803
  943MOL0     C24371   1.866   2.478   5.036  0.8489  0.2738  0.1667
  943MOL0     C24372   1.730   2.498   5.080  0.3892  0.0904  0.3339
  943MOL0     C24373   1.627   2.539   4.988  0.0447 -0.4060 -0.1946
  943MOL0     O24374   1.645   2.529   4.850 -0.5228  0.7159  0.3404
  943MOL0     C24375   1.548   2.579   4.760  0.2845 -0.5784  0.1519
  943MOL0     C24376   1.523   2.543   4.626 -0.6853  0.0233 -0.2882
  943MOL0     C24377   1.440   2.615   4.531 -0.7247 -0.8392  0.0818
  943MOL0     C24378   1.367   2.726   4.574  0.2699 -0.9276  0.6606
  943MOL0     O24379   1.284   2.796   4.479  0.4299  0.4244 -0.5414
  943MOL0     C24380   1.188   2.890   4.545  0.1362  1.0534 -0.8360
  943MOL0     C24381   1.097   2.971   4.450  0.5078 -1.4453 -0.2438
  943MOL0     C24382   1.023   2.877   4.355  0.6077  0.3153  0.6659
  943MOL0     C24383   0.932   2.950   4.259  0.0006 -0.2265  0.2583
  943MOL0     C24384   0.871   2.852   4.158  0.3656  0.1818  0.7309
  943MOL0     C24385   0.728   2.902   4.127 -0.4621 -0.2157 -0.1915
  943MOL0     C24386   0.666   2.851   4.002 -0.1718  0.2675  0.3621
  943MOL0     C24387   0.536   2.923   3.984  0.8890  0.2485 -0.5224
  943MOL0    Cl24388   0.555   3.099   3.958 -0.1875 -0.3592 -0.1650
  943MOL0     C24389   1.382   2.769   4.712  0.5149  0.8856  0.1924
  943MOL0     C24390   1.478   2.697   4.797 -0.5563 -0.6925  1.2199
  943MOL0     O24391   1.523   2.575   5.046  0.4525 -0.1576  0.6370
  943MOL0     C24392   1.710   2.481   5.215 -0.0094  0.2031 -0.3876
  943MOL0     C24393   1.800   2.438   5.302  0.0329 -0.2513 -0.7570
  943MOL0     N24394   1.972   2.792   5.745 -0.1589 -0.1684 -0.0604
  943MOL0     N24395   1.853   2.834   5.777 -0.2472  0.3886 -0.6309
  943MOL0     C24396   1.014   2.943   5.114  1.1111  0.3463 -0.7093
  943MOL0     C24397   0.947   3.007   5.007 -0.2443 -0.2006  0.0648
  943MOL0     C24398   0.768   3.170   4.663  0.1500 -0.0164  0.3084
  943MOL0     C24399   0.708   3.306   4.672 -1.6022 -0.2663 -0.3747
  943MOL0     C24400   0.619   3.348   4.576 -0.0003 -0.1437 -0.1181
  943MOL0     C24401   0.565   3.267   4.480 -0.5079 -0.1212 -0.4392
  943MOL0     O24402   0.478   3.328   4.394  0.1105 -0.5555 -0.3536
  943MOL0     C24403   0.459   3.295   4.264 -0.0677 -0.8915  0.8284
  943MOL0     C24404   0.401   3.416   4.196  0.6805 -0.0454 -0.1262
  943MOL0     C24405   0.374   3.369   4.056  0.0907  0.2082  0.4047
  943MOL0     C24406   0.350   3.495   3.986 -0.3561  1.2169  0.4838
  943MOL0     C24407   0.347   3.481   3.837  1.2011 -0.2780 -0.1835
  943MOL0     C24408   0.347   3.480   3.720 -0.2615  0.8069  0.3492
  943MOL0     C24409   0.618   3.140   4.475  0.4928  0.3132  0.1802
  943MOL0     C24410   0.721   3.087   4.559  0.0396  0.4632 -1.2600
  943MOL0     H24411   0.988   2.772   4.776  0.1928  0.3719  0.0399
  943MOL0     H24412   1.086   2.641   4.982  1.8395  0.3919 -1.6500
  943MOL0     H24413   1.326   2.716   5.152 -0.1098 -0.0010 -2.2152
  943MOL0     H24414   1.218   2.579   5.132 -2.2630  1.0438 -0.1395
  943MOL0     H24415   1.371   2.556   5.318 -0.7244 -1.6671  1.0277
  943MOL0     H24416   1.215   2.540   5.377  1.5074  0.9040  1.2353
  943MOL0     H24417   1.207   2.767   5.456 -2.5613 -4.1127  0.5225
  943MOL0     H24418   1.371   2.803   5.387  0.3508  1.1854  1.9465
  943MOL0     H24419   1.301   2.623   5.617  0.8085  2.4617  3.0053
  943MOL0     H24420   1.438   2.578   5.523 -0.3862 -1.7011  2.8264
  943MOL0     H24421   1.379   2.858   5.660 -0.5079  0.2674  1.7661
  943MOL0     H24422   1.528   2.831   5.569  2.5455 -1.3621  1.7697
  943MOL0     H24423   1.596   2.650   5.719 -2.0546 -2.2407 -0.8301
  943MOL0     H24424   1.450   2.665   5.811  1.3433 -1.7205 -0.6605
  943MOL0     H24425   1.599   2.904   5.790  0.5881 -1.8396 -1.4318
  943MOL0     H24426   1.467   2.850   5.908 -0.9252 -1.9646  0.6081
  943MOL0     H24427   1.634   2.667   5.968  0.8232  0.0563  2.1929
  943MOL0     H24428   1.671   2.842   6.015 -1.7275  0.7032 -2.0486
  943MOL0     H24429   1.859   2.555   5.948 -0.5204  0.6317 -0.0645
  943MOL0     H24430   2.105   2.532   5.905  1.0848 -1.0038 -0.7524
  943MOL0     H24431   2.168   2.626   5.769 -1.6697  2.4000  1.6498
  943MOL0     H24432   1.937   2.430   5.747  0.4299  0.5808  0.0152
  943MOL0     H24433   2.109   2.366   5.752  1.3064  0.4745  0.2021
  943MOL0     H24434   1.964   2.547   5.541 -0.9422 -1.3957 -1.0808
  943MOL0     H24435   2.139   2.516   5.540  0.1865 -0.6937 -1.3383
  943MOL0     H24436   1.916   2.301   5.516 -0.7267  0.0740  0.8730
  943MOL0     H24437   2.093   2.270   5.521 -2.9693 -3.0311 -0.9611
  943MOL0     H24438   2.055   2.386   5.102 -0.7600 -2.2682 -0.8133
  943MOL0     H24439   1.899   2.491   4.933  0.4220 -0.3613 -0.0525
  943MOL0     H24440   1.573   2.449   4.604 -1.2351 -0.4824  0.5668
  943MOL0     H24441   1.427   2.577   4.430 -0.6822  1.3052 -0.7875
  943MOL0     H24442   1.255   2.958   4.598 -0.1865 -0.5453  1.7759
  943MOL0     H24443   1.122   2.840   4.615 -0.0561  0.2701 -1.5534
  943MOL0     H24444   1.161   3.022   4.377  0.0793 -1.9657 -0.9951
  943MOL0     H24445   1.026   3.032   4.506 -3.9693 -4.6800 -1.8028
  943MOL0     H24446   0.960   2.824   4.428  0.5174 -2.7584 -1.4944
  943MOL0     H24447   1.085   2.810   4.296  0.0767  2.6277 -2.7740
  943MOL0     H24448   0.855   3.014   4.305  0.9121  3.4136 -2.8235
  943MOL0     H24449   0.986   3.024   4.199 -3.2512  2.9565  0.8780
  943MOL0     H24450   0.855   2.749   4.193 -0.1776 -0.5546 -1.5023
  943MOL0     H24451   0.926   2.850   4.064 -0.2706 -1.5618  0.3448
  943MOL0     H24452   0.728   3.011   4.129  3.7330 -0.0974  0.4767
  943MOL0     H24453   0.662   2.876   4.211 -0.3796  0.1090 -0.0267
  943MOL0     H24454   0.735   2.876   3.921 -1.0862 -1.9420 -1.2003
  943MOL0     H24455   0.651   2.742   4.002  0.5321  0.1058  2.6342
  943MOL0     H24456   0.485   2.910   4.081  3.8423  2.8962  1.5852
  943MOL0     H24457   0.482   2.879   3.900 -0.5977 -1.3110  1.1367
  943MOL0     H24458   1.342   2.863   4.748  1.4664  1.6872 -0.7557
  943MOL0     H24459   1.508   2.756   4.883 -3.4822  0.6834  1.4298
  943MOL0     H24460   1.624   2.511   5.274  1.6017  0.2216  2.0824
  943MOL0     H24461   1.781   2.434   5.409  0.4293  2.3330 -0.5367
  943MOL0     H24462   1.035   3.003   5.202 -1.1413  1.4924 -0.8550
  943MOL0     H24463   0.919   3.112   5.014 -1.8946 -0.5585 -0.7021
  943MOL0     H24464   0.760   3.373   4.739  0.0871 -2.3990  0.5874
  943MOL0     H24465   0.582   3.449   4.583  1.6559  0.4669  0.1979
  943MOL0     H24466   0.394   3.207   4.265  0.0217 -0.9733  3.1896
  943MOL0     H24467   0.547   3.263   4.208 -0.8316 -1.4842 -0.0801
  943MOL0     H24468   0.315   3.447   4.255  0.5642 -1.2741  0.3786
  943MOL0     H24469   0.473   3.499   4.201  0.1135  0.3685  2.1085
  943MOL0     H24470   0.291   3.301   4.036  0.6958  0.0179 -1.7239
  943MOL0     H24471   0.456   3.322   4.001 -0.5679  0.8602 -1.2029
  943MOL0     H24472   0.247   3.527   4.006 -0.7312  1.2770 -1.3313
  943MOL0     H24473   0.420   3.576   4.007 -0.5757  1.4656  0.2655
  943MOL0     H24474   0.367   3.484   3.615 -4.4291 -2.3764 -0.8740
  943MOL0     H24475   0.584   3.078   4.392 -1.1463  1.4184 -0.0350
  943MOL0     H24476   0.771   2.992   4.541 -0.6445 -0.2829  0.5598
  944MOL0     O24477   4.507   4.073   7.887  0.1391 -0.1788  0.4689
  944MOL0     C24478   4.484   4.041   7.769 -0.1982  1.0222  0.4917
  944MOL0     O24479   4.387   4.102   7.683 -1.4001  0.3063  0.5367
  944MOL0     C24480   4.330   4.213   7.722  0.5784 -0.2045  0.2059
  944MOL0     C24481   4.197   4.203   7.757 -0.1378 -0.2653  0.3817
  944MOL0     C24482   4.134   4.325   7.788 -0.5938 -0.4243  0.7095
  944MOL0     C24483   4.208   4.447   7.796 -0.3956  0.5731 -0.0789
  944MOL0     O24484   4.167   4.570   7.839  0.5587 -0.0427 -0.1043
  944MOL0     C24485   4.029   4.609   7.833  1.5879  0.1096 -0.4586
  944MOL0     C24486   3.991   4.661   7.696 -0.4103  0.0350  0.2570
  944MOL0     C24487   3.842   4.630   7.674  0.3325  0.1023 -0.5782
  944MOL0     C24488   3.755   4.715   7.578  1.5240 -0.6154  0.0809
  944MOL0     C24489   3.603   4.685   7.609  0.2986  0.3843 -0.1934
  944MOL0     C24490   3.514   4.769   7.508  0.4248 -0.6616  0.3045
  944MOL0     C24491   3.377   4.718   7.504  0.5217 -0.0989  0.6565
  944MOL0     C24492   3.280   4.805   7.434  0.9386 -0.0128 -0.9677
  944MOL0     N24493   3.146   4.743   7.411  0.2125  0.1701 -0.5605
  944MOL0     C24494   3.104   4.707   7.286  0.3302 -0.3146 -0.6743
  944MOL0     C24495   2.973   4.673   7.304 -0.2650 -0.0295 -0.6829
  944MOL0     C24496   2.877   4.639   7.192 -0.3179 -0.2953 -0.2835
  944MOL0     C24497   2.858   4.486   7.196  0.0297 -0.1336  1.1571
  944MOL0     C24498   2.725   4.462   7.128  0.8577  1.3221 -0.5633
  944MOL0     C24499   2.696   4.319   7.084 -1.9413 -0.6383  0.2767
  944MOL0     O24500   2.567   4.317   7.019  0.7863  0.4442  0.6273
  944MOL0     C24501   2.529   4.228   6.917  1.4481 -0.3840  0.8307
  944MOL0     C24502   2.410   4.254   6.846  0.0775  1.0381  0.6069
  944MOL0     C24503   2.358   4.154   6.762  0.0139 -0.1017 -0.5122
  944MOL0     C24504   2.420   4.039   6.739  0.1703  0.2950  0.0841
  944MOL0     C24505   2.362   3.939   6.657  0.9090  0.2409  0.0883
  944MOL0     O24506   2.221   3.944   6.639  0.3558  0.3113 -0.9245
  944MOL0     C24507   2.153   3.866   6.542 -0.7867  1.2795 -1.0096
  944MOL0     C24508   2.201   3.745   6.478  0.4035 -0.1024 -0.5058
  944MOL0     C24509   2.115   3.691   6.383  0.0661  0.1549  0.3901
  944MOL0     C24510   1.992   3.745   6.349 -0.3025  0.3386 -0.7849
  944MOL0     O24511   1.940   3.692   6.237  0.0519 -0.0888  0.5690
  944MOL0     C24512   1.806   3.736   6.191  0.4089 -0.2961  0.0999
  944MOL0     C24513   1.773   3.679   6.048 -0.1030 -0.1981  0.5324
  944MOL0     C24514   1.641   3.729   5.991  0.1378  0.6233 -0.0571
  944MOL0     C24515   1.605   3.676   5.847 -0.1940  0.3949 -0.0509
  944MOL0     C24516   1.470   3.713   5.801 -0.3890  0.9689 -0.0395
  944MOL0     C24517   1.417   3.611   5.713  0.1643 -0.4186  0.3240
  944MOL0     C24518   1.300   3.658   5.633  0.6694 -0.1090  0.2575
  944MOL0     C24519   1.331   3.771   5.534 -0.2366 -0.1592 -0.2158
  944MOL0    Cl24520   1.196   3.792   5.418  0.1323 -0.1578  0.5924
  944MOL0     C24521   1.943   3.841   6.429  0.7001  0.5816  0.5057
  944MOL0     C24522   2.025   3.904   6.516 -0.1325 -0.7491 -0.2464
  944MOL0     O24523   2.437   3.872   6.597 -0.0404 -0.2460  0.0437
  944MOL0     C24524   2.532   4.011   6.808  0.1400  0.0395 -0.2681
  944MOL0     C24525   2.585   4.102   6.900  1.3545  0.7428  0.1986
  944MOL0     N24526   2.944   4.679   7.435  0.2869  0.0235 -0.5315
  944MOL0     N24527   3.047   4.728   7.500  1.0098 -0.0462 -0.0359
  944MOL0     C24528   4.349   4.443   7.768 -0.1219 -0.1492  0.2071
  944MOL0     C24529   4.410   4.331   7.725  0.2739  0.0483 -0.0519
  944MOL0     C24530   4.548   3.913   7.718 -0.2565 -0.6703  0.2777
  944MOL0     C24531   4.513   3.882   7.579 -1.0342  0.2785  1.6383
  944MOL0     C24532   4.570   3.764   7.524  1.0337  0.2286  1.2347
  944MOL0     C24533   4.657   3.688   7.600 -0.8155  0.5968  0.6031
  944MOL0     O24534   4.726   3.593   7.531  0.3423 -0.1880 -0.0079
  944MOL0     C24535   4.860   3.617   7.523 -0.9445 -0.0253 -0.7396
  944MOL0     C24536   4.897   3.650   7.383  0.4803 -0.1195  0.6859
  944MOL0     C24537   4.892   3.519   7.303  0.1839 -0.6604  0.7007
  944MOL0     C24538   4.935   3.539   7.160  0.9509  0.4184 -0.7257
  944MOL0     C24539   5.072   3.577   7.154  0.5574 -0.2435 -0.3448
  944MOL0     C24540   5.192   3.587   7.145 -0.3872  0.2868 -0.3451
  944MOL0     C24541   4.673   3.703   7.737  0.1140  0.0505  0.6111
  944MOL0     C24542   4.632   3.830   7.796  0.1223  0.6647  0.0264
  944MOL0     H24543   4.139   4.112   7.760  0.1141 -0.4108  0.8946
  944MOL0     H24544   4.033   4.322   7.828 -1.4624  0.6454 -1.2320
  944MOL0     H24545   4.009   4.685   7.909 -0.3100  0.5022 -1.2972
  944MOL0     H24546   3.975   4.518   7.860  5.2760 -2.0672  0.2283
  944MOL0     H24547   4.059   4.616   7.624  2.7202  1.8157  1.8841
  944MOL0     H24548   4.015   4.768   7.690  0.4898 -0.1602  0.1550
  944MOL0     H24549   3.781   4.648   7.763 -0.6846  0.6407 -1.3644
  944MOL0     H24550   3.832   4.525   7.643 -2.0634  0.8663 -2.7655
  944MOL0     H24551   3.773   4.822   7.582 -1.4736  0.0353 -1.2429
  944MOL0     H24552   3.776   4.685   7.474  0.0077  1.9121 -1.0431
  944MOL0     H24553   3.577   4.716   7.711 -2.2476 -1.9307 -0.0275
  944MOL0     H24554   3.587   4.578   7.598 -0.9328  0.5217  0.0489
  944MOL0     H24555   3.550   4.743   7.408 -1.5535 -0.2625 -0.5504
  944MOL0     H24556   3.538   4.874   7.526  1.0177 -0.6541 -0.4893
  944MOL0     H24557   3.378   4.624   7.448 -0.0651 -0.1253  0.6839
  944MOL0     H24558   3.326   4.700   7.599 -1.8511  0.2522 -0.4817
  944MOL0     H24559   3.318   4.844   7.339 -0.4026  3.4240 -0.2717
  944MOL0     H24560   3.271   4.891   7.501 -1.8998  1.0997 -2.5924
  944MOL0     H24561   3.165   4.724   7.198  0.4192 -0.8188 -0.7117
  944MOL0     H24562   2.923   4.673   7.098  0.5389  1.6439  0.7907
  944MOL0     H24563   2.786   4.694   7.216 -0.7804 -0.9180 -0.5960
  944MOL0     H24564   2.852   4.442   7.296  0.3288 -1.1860  0.7334
  944MOL0     H24565   2.936   4.433   7.139 -2.8336 -1.4913 -1.8630
  944MOL0     H24566   2.647   4.480   7.202  0.7818  3.2298 -1.0544
  944MOL0     H24567   2.708   4.533   7.047 -3.1807  0.4074 -0.7458
  944MOL0     H24568   2.698   4.254   7.172  2.1128  2.0202  2.5022
  944MOL0     H24569   2.776   4.276   7.022 -1.9378  0.0449 -0.2014
  944MOL0     H24570   2.360   4.350   6.854  0.2112  1.2644 -0.8886
  944MOL0     H24571   2.274   4.183   6.699 -2.5502 -1.4042  2.0340
  944MOL0     H24572   2.302   3.710   6.492  0.8491  1.5026  0.6045
  944MOL0     H24573   2.157   3.620   6.312 -2.7516  0.5462 -1.8407
  944MOL0     H24574   1.801   3.845   6.187  1.7077 -0.2433 -0.7960
  944MOL0     H24575   1.718   3.705   6.249  1.5688 -1.7591  1.1774
  944MOL0     H24576   1.758   3.570   6.049  1.6466 -0.5097 -0.9110
  944MOL0     H24577   1.857   3.701   5.981  0.1682  1.5869  1.4098
  944MOL0     H24578   1.643   3.838   5.991 -0.5915  0.6475 -0.8370
  944MOL0     H24579   1.566   3.703   6.066  1.4148 -0.0275  1.0243
  944MOL0     H24580   1.677   3.708   5.771 -1.4592  0.3209 -1.3124
  944MOL0     H24581   1.629   3.570   5.861  4.4722  1.1074 -0.9455
  944MOL0     H24582   1.472   3.814   5.759  0.1545  0.5604 -1.0205
  944MOL0     H24583   1.401   3.721   5.885  0.5778 -0.8673  1.0016
  944MOL0     H24584   1.381   3.521   5.764  1.0096 -1.8222 -1.4440
  944MOL0     H24585   1.501   3.577   5.652 -0.6347  0.0533 -1.0809
  944MOL0     H24586   1.273   3.574   5.568  1.2003  1.2971 -1.9014
  944MOL0     H24587   1.216   3.688   5.695 -0.0823  0.2619 -0.8949
  944MOL0     H24588   1.424   3.746   5.482  0.8089  1.5077  0.7377
  944MOL0     H24589   1.351   3.864   5.588 -0.4998 -0.9693  1.3330
  944MOL0     H24590   1.842   3.872   6.404  0.5489 -1.3830 -1.6575
  944MOL0     H24591   1.997   4.003   6.551  0.9992 -0.9641  1.3696
  944MOL0     H24592   2.581   3.917   6.785  0.6958 -1.0483  4.4064
  944MOL0     H24593   2.673   4.086   6.961  1.0573 -0.7315  0.2691
  944MOL0     H24594   4.409   4.533   7.766 -0.8256  0.3289  0.4390
  944MOL0     H24595   4.516   4.332   7.702  1.1799  0.8912  3.6085
  944MOL0     H24596   4.459   3.946   7.510  0.7979  1.2847  1.0761
  944MOL0     H24597   4.546   3.742   7.421  1.0241  0.3079  1.2204
  944MOL0     H24598   4.922   3.531   7.548  2.1276  2.7347  2.1739
  944MOL0     H24599   4.887   3.702   7.587  0.0005 -0.0513 -1.0818
  944MOL0     H24600   4.828   3.731   7.357  4.0268  3.4622  1.3006
  944MOL0     H24601   4.999   3.691   7.385 -0.1766  1.6976 -0.4920
  944MOL0     H24602   4.795   3.468   7.303  1.1778 -2.6412  1.4678
  944MOL0     H24603   4.956   3.453   7.362 -0.5175 -0.8942  1.2255
  944MOL0     H24604   4.931   3.443   7.107 -0.1295  0.1930 -0.2591
  944MOL0     H24605   4.865   3.604   7.107 -1.9064 -1.5140  0.4204
  944MOL0     H24606   5.298   3.588   7.161 -0.1379 -5.2943  0.3560
  944MOL0     H24607   4.738   3.636   7.792  0.7834 -1.2409 -1.6289
  944MOL0     H24608   4.654   3.851   7.900 -0.2604  0.2111  0.2048
  945MOL0     O24609   3.427   7.371   2.012 -0.2979 -0.9318 -0.7282
  945MOL0     C24610   3.464   7.457   2.097 -1.1645  0.2004 -0.0464
  945MOL0     O24611   3.399   7.495   2.210  0.5251  0.1345  0.1388
  945MOL0     C24612   3.271   7.448   2.203  0.7963  0.2432 -0.0537
  945MOL0     C24613   3.243   7.313   2.241  0.4947 -0.4301 -0.2784
  945MOL0     C24614   3.108   7.269   2.223 -0.4269  0.0714  0.2816
  945MOL0     C24615   3.007   7.349   2.169 -1.4900  0.0608  0.5764
  945MOL0     O24616   2.880   7.299   2.167 -0.1049  0.8753  0.1321
  945MOL0     C24617   2.823   7.281   2.301  0.2019  0.5875  0.8153
  945MOL0     C24618   2.677   7.314   2.290 -0.1337 -0.7401  0.2867
  945MOL0     C24619   2.616   7.303   2.431 -0.2132 -0.3021 -0.5621
  945MOL0     C24620   2.465   7.257   2.434 -0.7388 -0.0413  0.6091
  945MOL0     C24621   2.374   7.374   2.387  0.1595  1.2603  0.1093
  945MOL0     C24622   2.232   7.323   2.356  0.3472  0.2454  0.4113
  945MOL0     C24623   2.181   7.226   2.467 -0.1031 -0.7759  0.1775
  945MOL0     C24624   2.032   7.256   2.505  0.7941  0.3443  0.6136
  945MOL0     N24625   2.026   7.364   2.609  0.7276  0.7065  0.5598
  945MOL0     C24626   2.072   7.490   2.588  0.0830  0.5925  0.7759
  945MOL0     C24627   2.052   7.557   2.702  0.0418 -0.9190 -0.6207
  945MOL0     C24628   2.079   7.706   2.717  0.6992  0.9624  0.5190
  945MOL0     C24629   2.207   7.758   2.663 -0.2165  0.0585  1.0221
  945MOL0     C24630   2.329   7.697   2.725 -0.0948 -0.1189 -0.4441
  945MOL0     C24631   2.447   7.776   2.671  1.1240  0.2845  0.8034
  945MOL0     O24632   2.471   7.733   2.535  0.2664  0.1801 -0.9921
  945MOL0     C24633   2.593   7.762   2.484  0.3370 -0.0214  0.2100
  945MOL0     C24634   2.640   7.701   2.372 -0.8652 -0.3151  0.3705
  945MOL0     C24635   2.747   7.750   2.304  0.1860  1.3618 -0.2322
  945MOL0     C24636   2.828   7.864   2.348  0.8278 -0.4303  0.2464
  945MOL0     C24637   2.945   7.908   2.274  0.0743  0.3549  0.2076
  945MOL0     O24638   3.008   8.026   2.303  0.7524 -0.2331  0.0462
  945MOL0     C24639   3.136   8.048   2.256  0.1811  0.8126 -0.0453
  945MOL0     C24640   3.179   8.174   2.212  0.2051  0.0463  0.7151
  945MOL0     C24641   3.315   8.184   2.174  0.0023  0.7084  0.9775
  945MOL0     C24642   3.406   8.082   2.171  0.2450  0.3079  0.4311
  945MOL0     O24643   3.543   8.104   2.155 -0.1465 -0.8401  0.7774
  945MOL0     C24644   3.603   8.075   2.029  0.3388 -0.1684 -0.0086
  945MOL0     C24645   3.606   8.211   1.943  0.2474  0.2534  0.0044
  945MOL0     C24646   3.708   8.312   1.980 -0.4135 -0.0507 -0.5972
  945MOL0     C24647   3.686   8.446   1.910  0.3010 -0.5697 -0.3222
  945MOL0     C24648   3.805   8.542   1.935  0.4666 -0.6541 -0.1128
  945MOL0     C24649   3.791   8.696   1.909 -0.0617  0.2981  0.1850
  945MOL0     C24650   3.913   8.779   1.956  0.1744 -1.1020  0.4899
  945MOL0     C24651   3.884   8.928   1.943  0.2765  0.2633 -0.1124
  945MOL0    Cl24652   4.035   9.014   1.982 -0.1856  0.1964  0.7036
  945MOL0     C24653   3.365   7.963   2.225  0.2761 -0.4533  0.8219
  945MOL0     C24654   3.231   7.948   2.264 -1.0350  0.1802  0.3280
  945MOL0     O24655   2.991   7.815   2.204  0.3199 -0.0643 -0.4480
  945MOL0     C24656   2.784   7.919   2.466  0.0717  0.2585 -1.1813
  945MOL0     C24657   2.667   7.876   2.528  0.2680  0.1848 -0.3382
  945MOL0     N24658   2.004   7.475   2.794  0.7198  0.2417 -0.3980
  945MOL0     N24659   1.982   7.360   2.739 -0.0756  0.1311 -0.8921
  945MOL0     C24660   3.045   7.481   2.138  0.2015  0.9595  1.2375
  945MOL0     C24661   3.176   7.529   2.146  0.4388 -0.5366 -0.5691
  945MOL0     C24662   3.586   7.540   2.069 -0.2669 -0.0283  0.1450
  945MOL0     C24663   3.653   7.517   1.950  0.7092  0.4932  0.0791
  945MOL0     C24664   3.735   7.607   1.899 -0.7860  0.7844 -0.5076
  945MOL0     C24665   3.788   7.716   1.977 -0.8564 -0.3575  0.5181
  945MOL0     O24666   3.891   7.801   1.943 -0.3868 -0.1067  0.2428
  945MOL0     C24667   3.973   7.770   1.830 -0.9042  0.4185 -0.0061
  945MOL0     C24668   4.109   7.845   1.857  0.5571 -0.0969 -0.0951
  945MOL0     C24669   4.209   7.762   1.933 -0.2549  0.0890 -0.8215
  945MOL0     C24670   4.316   7.861   1.981  0.3715 -1.0537 -0.1672
  945MOL0     C24671   4.416   7.795   2.062  0.1333  0.3901  0.0942
  945MOL0     C24672   4.498   7.734   2.129 -0.0069 -0.4506 -0.1653
  945MOL0     C24673   3.744   7.724   2.105 -0.4281  0.0710  0.6545
  945MOL0     C24674   3.638   7.637   2.150 -1.0759 -0.2337  0.1631
  945MOL0     H24675   3.325   7.248   2.270  1.6225  1.3676  0.7247
  945MOL0     H24676   3.071   7.171   2.251  0.2119  0.2817  2.0055
  945MOL0     H24677   2.877   7.343   2.374 -1.7719  0.3148  2.5987
  945MOL0     H24678   2.829   7.174   2.322  0.6050 -0.2612 -2.9480
  945MOL0     H24679   2.628   7.251   2.215 -0.6675  2.2882 -2.1352
  945MOL0     H24680   2.671   7.416   2.251  1.3859 -1.0742 -0.8984
  945MOL0     H24681   2.643   7.392   2.489  2.0315 -0.5565 -1.1148
  945MOL0     H24682   2.667   7.226   2.491  2.0758 -0.0441 -2.0620
  945MOL0     H24683   2.462   7.178   2.358  0.9410  2.0660 -1.7946
  945MOL0     H24684   2.443   7.215   2.533  2.5826  0.8639  1.8614
  945MOL0     H24685   2.414   7.419   2.296  2.6783 -2.0284 -0.5829
  945MOL0     H24686   2.361   7.444   2.470  1.3103 -0.2853  1.6676
  945MOL0     H24687   2.247   7.253   2.273 -0.9807  0.3852  0.0230
  945MOL0     H24688   2.158   7.395   2.319  1.1369 -0.3032 -2.4691
  945MOL0     H24689   2.198   7.122   2.437 -0.8960 -0.5468 -1.1459
  945MOL0     H24690   2.240   7.240   2.558  2.9283  0.9659 -1.8803
  945MOL0     H24691   1.987   7.164   2.543 -0.3870  0.7756  0.2771
  945MOL0     H24692   1.973   7.279   2.416  2.7574  0.8039 -0.6479
  945MOL0     H24693   2.116   7.521   2.493 -1.9893  0.5148 -0.2755
  945MOL0     H24694   2.071   7.733   2.823 -0.6468  3.2656 -0.1042
  945MOL0     H24695   1.996   7.769   2.684 -1.5035 -0.5981  2.7126
  945MOL0     H24696   2.197   7.867   2.662 -1.4084 -0.0154 -1.3343
  945MOL0     H24697   2.206   7.737   2.556  0.4472  0.9443  0.8338
  945MOL0     H24698   2.330   7.707   2.834 -0.9164  3.0407 -0.6264
  945MOL0     H24699   2.330   7.589   2.706  2.1761 -0.0993 -0.7438
  945MOL0     H24700   2.533   7.764   2.738 -0.1360  3.0867  3.1015
  945MOL0     H24701   2.430   7.884   2.670 -1.2545  0.1936 -4.5447
  945MOL0     H24702   2.580   7.620   2.332 -0.3187 -0.3694 -0.3684
  945MOL0     H24703   2.780   7.692   2.218 -0.5601  2.1700 -1.0823
  945MOL0     H24704   3.116   8.262   2.206  0.6952  0.3407 -0.6187
  945MOL0     H24705   3.348   8.280   2.138 -2.1493  0.7392 -1.1668
  945MOL0     H24706   3.544   7.998   1.978 -3.8914  1.0893  2.4350
  945MOL0     H24707   3.704   8.046   2.060  0.8504  2.7171  1.3548
  945MOL0     H24708   3.509   8.255   1.969 -0.0502 -0.2058 -0.3283
  945MOL0     H24709   3.614   8.189   1.837  1.5042  3.1557 -0.6026
  945MOL0     H24710   3.802   8.261   1.956 -1.9981 -3.0123 -0.8782
  945MOL0     H24711   3.706   8.335   2.087 -2.6541  1.4419 -0.9001
  945MOL0     H24712   3.666   8.438   1.803 -2.4719  1.5569 -0.0867
  945MOL0     H24713   3.591   8.493   1.939  0.2321 -0.9229  0.0519
  945MOL0     H24714   3.897   8.508   1.886  1.5940  1.8800  0.1409
  945MOL0     H24715   3.822   8.531   2.043  2.1495 -1.8973 -0.4626
  945MOL0     H24716   3.718   8.734   1.981  0.1492 -1.5593  1.4632
  945MOL0     H24717   3.759   8.714   1.805 -1.7734 -1.4897  0.3274
  945MOL0     H24718   3.952   8.744   2.053  1.4183  0.6274  0.6668
  945MOL0     H24719   3.975   8.748   1.872  0.7576  0.1635  0.4252
  945MOL0     H24720   3.807   8.965   2.010 -0.1498  0.0164 -0.4648
  945MOL0     H24721   3.848   8.949   1.842  1.0625 -2.2030 -0.9925
  945MOL0     H24722   3.440   7.886   2.225  1.3362  0.5355 -0.3964
  945MOL0     H24723   3.212   7.852   2.311  1.2219 -0.6593 -0.3577
  945MOL0     H24724   2.828   8.009   2.507 -1.1035 -0.2281  1.3003
  945MOL0     H24725   2.625   7.928   2.614  0.2423 -0.0875 -0.1825
  945MOL0     H24726   2.975   7.559   2.110 -0.3359  0.5322  1.3707
  945MOL0     H24727   3.195   7.631   2.114 -0.2510  1.2092  3.8196
  945MOL0     H24728   3.632   7.434   1.882  1.7751  1.6147 -1.7073
  945MOL0     H24729   3.776   7.582   1.802  2.8347  0.3178  0.9597
  945MOL0     H24730   3.927   7.808   1.738 -0.4148 -0.8777 -0.8185
  945MOL0     H24731   3.982   7.662   1.817 -2.6831  0.0637  1.3269
  945MOL0     H24732   4.160   7.870   1.764 -0.8732 -0.4466 -1.0026
  945MOL0     H24733   4.073   7.928   1.918 -1.5229 -0.2794 -1.0092
  945MOL0     H24734   4.244   7.695   1.854 -1.0503  0.0453 -1.1402
  945MOL0     H24735   4.163   7.721   2.023  1.8864  3.0068  1.8709
  945MOL0     H24736   4.362   7.915   1.898  1.4398 -0.0086  1.0663
  945MOL0     H24737   4.264   7.935   2.043  0.8974 -1.3651  0.6534
  945MOL0     H24738   4.577   7.679   2.176  0.8364  1.3588  0.6170
  945MOL0     H24739   3.785   7.809   2.159  2.7330  0.0203 -1.3805
  945MOL0     H24740   3.596   7.638   2.250 -1.3421 -0.3918  0.0538
  946MOL0     O24741   9.758   3.844   9.949  0.0111  0.2268 -1.0892
  946MOL0     C24742   9.783   3.895   9.849 -0.5845 -0.1782  0.1342
  946MOL0     O24743   9.714   3.994   9.782 -0.5407  0.2417  0.1819
  946MOL0     C24744   9.591   4.051   9.813  0.7599  0.3587 -1.0618
  946MOL0     C24745   9.493   3.990   9.893  0.8827  0.6715 -0.4945
  946MOL0     C24746   9.374   4.059   9.931 -0.2799 -0.2541  0.3660
  946MOL0     C24747   9.339   4.186   9.876 -0.5431 -0.6823 -0.2689
  946MOL0     O24748   9.211   4.238   9.907 -0.3497 -0.3006  0.1522
  946MOL0     C24749   9.170   4.355   9.836 -0.2868 -0.4613 -0.0499
  946MOL0     C24750   9.025   4.396   9.867 -0.6190 -0.0053 -0.6660
  946MOL0     C24751   8.989   4.528   9.809 -0.5059 -0.4497  0.0167
  946MOL0     C24752   8.842   4.565   9.847  0.2698 -0.5025 -0.3935
  946MOL0     C24753   8.800   4.695   9.771  0.5657 -0.7031  0.2362
  946MOL0     C24754   8.646   4.721   9.799 -0.4911 -0.2488 -0.4641
  946MOL0     C24755   8.608   4.843   9.708 -0.3393 -0.1103 -1.0017
  946MOL0     C24756   8.457   4.880   9.711  0.9509  0.5136 -0.2418
  946MOL0     N24757   8.445   5.024   9.705  0.1642 -0.3207  0.5325
  946MOL0     C24758   8.426   5.098   9.598  0.2179  0.1290 -0.3503
  946MOL0     C24759   8.415   5.221   9.635 -0.0412 -0.4278 -0.3272
  946MOL0     C24760   8.396   5.330   9.538  0.9594  0.2856  0.1899
  946MOL0     C24761   8.522   5.425   9.522  0.0219 -0.9215 -0.0631
  946MOL0     C24762   8.666   5.364   9.492 -0.3895  0.9994 -0.0304
  946MOL0     C24763   8.725   5.285   9.614 -0.6018 -0.1490  0.2141
  946MOL0     O24764   8.871   5.303   9.635 -0.4928  0.8218  0.2228
  946MOL0     C24765   8.959   5.196   9.626 -0.1390 -0.7800 -0.8096
  946MOL0     C24766   8.929   5.084   9.546  0.2200  0.4313 -0.2214
  946MOL0     C24767   9.017   4.972   9.537  0.1967 -0.5091  0.6672
  946MOL0     C24768   9.136   4.968   9.613  0.5790  0.0064  0.0080
  946MOL0     C24769   9.226   4.851   9.608 -0.2719 -0.0356  0.0263
  946MOL0     O24770   9.354   4.869   9.670  0.2850  0.7675  0.7463
  946MOL0     C24771   9.459   4.788   9.629 -0.1398 -0.3821 -0.3177
  946MOL0     C24772   9.563   4.772   9.723  0.1337  0.0019  0.5466
  946MOL0     C24773   9.689   4.719   9.682  0.2791  0.2518 -0.0260
  946MOL0     C24774   9.707   4.661   9.551  0.8004  0.4587  0.5759
  946MOL0     O24775   9.816   4.590   9.517  0.3595 -0.8147  0.0627
  946MOL0     C24776   9.887   4.526   9.620  0.4426 -0.5248 -0.0709
  946MOL0     C24777  10.028   4.561   9.630  0.7180 -0.2100  0.7313
  946MOL0     C24778  10.109   4.454   9.704  0.4698 -0.2898  0.0685
  946MOL0     C24779  10.260   4.487   9.673  0.5894  0.5357  0.2453
  946MOL0     C24780  10.354   4.428   9.772  0.0126  0.4479  0.3380
  946MOL0     C24781  10.341   4.479   9.918  0.3043 -0.5080  0.9508
  946MOL0     C24782  10.445   4.433  10.020 -0.2429 -0.6756  0.0320
  946MOL0     C24783  10.414   4.489  10.163 -0.3997 -0.8481  0.6611
  946MOL0    Cl24784  10.252   4.456  10.221 -0.1322  0.5589  0.2463
  946MOL0     C24785   9.607   4.681   9.463  1.0420 -0.3264  1.1116
  946MOL0     C24786   9.487   4.751   9.494  0.2786 -0.6666  0.4587
  946MOL0     O24787   9.189   4.748   9.552  0.3864 -0.8263  0.2039
  946MOL0     C24788   9.150   5.072   9.707  1.0288  0.2942 -0.3003
  946MOL0     C24789   9.078   5.188   9.702  0.1353  0.1887 -0.3333
  946MOL0     N24790   8.456   5.231   9.768 -0.9762 -0.4893 -0.1228
  946MOL0     N24791   8.470   5.111   9.808  0.0381  1.1030 -0.2396
  946MOL0     C24792   9.431   4.246   9.790  0.7640  0.7186 -0.1493
  946MOL0     C24793   9.553   4.173   9.760 -0.2403  0.0306  0.0401
  946MOL0     C24794   9.927   3.865   9.797  0.9199  0.1511 -0.2163
  946MOL0     C24795   9.976   3.938   9.689 -0.0462 -0.6837  0.0609
  946MOL0     C24796  10.100   3.912   9.630  0.8621  0.0717  0.1358
  946MOL0     C24797  10.178   3.802   9.666  0.6541  0.0975 -0.1370
  946MOL0     O24798  10.288   3.761   9.596 -0.2042  1.3140  0.1060
  946MOL0     C24799  10.375   3.654   9.632  0.1908 -0.2373 -0.0477
  946MOL0     C24800  10.514   3.699   9.573  0.3498 -0.0418 -0.1606
  946MOL0     C24801  10.520   3.688   9.426 -0.3119  0.1648  0.0282
  946MOL0     C24802  10.649   3.730   9.365  0.4989  0.0563 -0.6161
  946MOL0     C24803  10.742   3.623   9.330  0.3005  0.3075  0.5242
  946MOL0     C24804  10.829   3.542   9.319 -0.4861 -0.3561  0.1366
  946MOL0     C24805  10.135   3.732   9.777 -0.1733 -0.1114  0.3040
  946MOL0     C24806  10.014   3.765   9.846  0.6432 -0.0136  0.2207
  946MOL0     H24807   9.512   3.894   9.941  2.6495  1.3442  0.2594
  946MOL0     H24808   9.295   4.016   9.991  1.7396 -2.7004  1.4215
  946MOL0     H24809   9.192   4.352   9.729 -0.0458 -4.0497 -0.0325
  946MOL0     H24810   9.230   4.441   9.868 -1.3575 -0.0076  0.8411
  946MOL0     H24811   9.014   4.390   9.976  0.4238 -2.2990 -0.6349
  946MOL0     H24812   8.961   4.313   9.834  2.0208 -3.1079  1.4211
  946MOL0     H24813   8.994   4.526   9.700 -1.5311 -1.4048 -0.0249
  946MOL0     H24814   9.064   4.603   9.835 -0.7749 -0.3653  0.5699
  946MOL0     H24815   8.779   4.482   9.813  0.4310 -1.0696  0.6600
  946MOL0     H24816   8.820   4.588   9.952 -0.5717 -0.9622 -0.4549
  946MOL0     H24817   8.812   4.668   9.666 -0.5961 -0.7470  0.1001
  946MOL0     H24818   8.863   4.780   9.801 -3.3122  1.7806  2.1974
  946MOL0     H24819   8.637   4.738   9.907  1.4989 -1.8636  0.0317
  946MOL0     H24820   8.586   4.633   9.773 -2.2722  0.2536  1.5959
  946MOL0     H24821   8.669   4.924   9.749  0.0139  0.2208 -2.1564
  946MOL0     H24822   8.650   4.812   9.612  1.5164 -0.8131 -0.0125
  946MOL0     H24823   8.405   4.849   9.802 -0.2633  3.0061  0.0005
  946MOL0     H24824   8.393   4.846   9.629  1.3108  0.4729 -0.5075
  946MOL0     H24825   8.411   5.071   9.494  1.2004  1.3848 -0.8419
  946MOL0     H24826   8.305   5.382   9.570 -0.5062 -2.3994  0.6722
  946MOL0     H24827   8.376   5.287   9.439 -0.1592  0.4697  0.3241
  946MOL0     H24828   8.525   5.493   9.608 -1.7539 -1.0897  0.1582
  946MOL0     H24829   8.500   5.492   9.439 -0.3319 -0.3808  0.4550
  946MOL0     H24830   8.643   5.289   9.415  2.8528 -1.0177  0.7989
  946MOL0     H24831   8.742   5.434   9.455  2.4753 -2.3889 -1.1258
  946MOL0     H24832   8.688   5.183   9.612 -1.1764  0.0651 -0.9984
  946MOL0     H24833   8.686   5.329   9.706 -3.0889 -2.0174  0.1383
  946MOL0     H24834   8.847   5.089   9.476  0.3206  3.2069 -0.2464
  946MOL0     H24835   8.992   4.886   9.476  2.2011 -0.9084  0.3464
  946MOL0     H24836   9.558   4.821   9.820  1.0456  0.9169  0.1494
  946MOL0     H24837   9.759   4.709   9.765  1.3091 -0.5491 -0.9678
  946MOL0     H24838   9.870   4.420   9.600  0.3349 -0.0973 -2.4929
  946MOL0     H24839   9.839   4.538   9.718  0.4011  0.9905 -0.2459
  946MOL0     H24840  10.038   4.661   9.672 -0.5548  0.8665 -1.3791
  946MOL0     H24841  10.057   4.564   9.524 -1.0645  1.2100  0.2301
  946MOL0     H24842  10.086   4.354   9.666 -1.9527  0.0275  0.5229
  946MOL0     H24843  10.080   4.460   9.809 -2.1868  0.3999 -0.6369
  946MOL0     H24844  10.281   4.461   9.569 -1.2155  2.4210 -0.6628
  946MOL0     H24845  10.282   4.594   9.667  2.7921  0.1094 -0.1632
  946MOL0     H24846  10.456   4.449   9.739 -1.5893 -0.5592 -7.0267
  946MOL0     H24847  10.361   4.319   9.765  0.7271  0.6039 -2.6039
  946MOL0     H24848  10.245   4.453   9.964  0.7973  0.2845  2.5427
  946MOL0     H24849  10.327   4.588   9.919  1.8050 -0.2427  3.4567
  946MOL0     H24850  10.444   4.324  10.037 -2.8915 -0.7785 -0.2945
  946MOL0     H24851  10.546   4.461   9.990  0.3662 -2.3756  0.3878
  946MOL0     H24852  10.436   4.596  10.159  1.8164 -1.3081 -1.0857
  946MOL0     H24853  10.496   4.450  10.225  1.0375 -0.2407 -0.7869
  946MOL0     H24854   9.621   4.639   9.364 -2.8350  0.6364 -0.0075
  946MOL0     H24855   9.428   4.779   9.408 -0.5346 -2.2185  0.4657
  946MOL0     H24856   9.243   5.064   9.762  0.4308  0.4853  0.7748
  946MOL0     H24857   9.107   5.269   9.768  1.6313 -0.4967 -0.1170
  946MOL0     H24858   9.413   4.342   9.743  2.4362  1.7005  1.1256
  946MOL0     H24859   9.616   4.228   9.691 -0.9738 -0.6659 -1.2184
  946MOL0     H24860   9.916   4.025   9.664 -0.1505 -0.7467  0.0959
  946MOL0     H24861  10.123   3.977   9.547 -1.1574  0.7381  0.0364
  946MOL0     H24862  10.350   3.568   9.568  0.7902  0.3633 -1.1227
  946MOL0     H24863  10.396   3.633   9.737  5.6917 -1.5285 -1.0646
  946MOL0     H24864  10.515   3.801   9.612 -1.1667  0.6351 -1.7318
  946MOL0     H24865  10.596   3.637   9.610  1.3313  0.4581 -1.4230
  946MOL0     H24866  10.447   3.756   9.379 -0.5665 -1.0925 -1.4956
  946MOL0     H24867  10.470   3.598   9.390  0.5599 -0.1046 -0.5512
  946MOL0     H24868  10.631   3.787   9.273  1.9990 -0.1527 -1.0603
  946MOL0     H24869  10.700   3.797   9.435  1.1507 -1.0392 -0.0120
  946MOL0     H24870  10.892   3.455   9.325 -0.0858 -0.0168  1.1236
  946MOL0     H24871  10.194   3.651   9.820 -2.6141 -2.7255 -0.9573
  946MOL0     H24872   9.987   3.708   9.934  1.0010 -3.6187 -1.7999
  947MOL0     O24873   7.663   7.129  11.309  0.8216  0.0988 -0.9110
  947MOL0     C24874   7.703   7.246  11.327  0.6893 -0.0205 -0.0459
  947MOL0     O24875   7.629   7.365  11.352 -0.0806  0.0536  0.5427
  947MOL0     C24876   7.495   7.349  11.370  0.2314  0.2519 -0.5768
  947MOL0     C24877   7.441   7.373  11.497 -0.6289  0.3267  0.1653
  947MOL0     C24878   7.316   7.353  11.528  1.3073  0.3734 -0.3263
  947MOL0     C24879   7.225   7.304  11.420 -0.4052 -0.0993 -0.8939
  947MOL0     O24880   7.093   7.283  11.460 -0.4723  0.1697 -0.6832
  947MOL0     C24881   6.994   7.232  11.367 -0.1128  0.2908  0.9004
  947MOL0     C24882   7.025   7.086  11.323  0.4544 -0.0747 -0.1264
  947MOL0     C24883   7.088   7.003  11.444  1.2813  0.5043  0.1698
  947MOL0     C24884   7.116   6.861  11.404  0.0862 -0.5418 -0.2605
  947MOL0     C24885   7.048   6.755  11.494 -0.2976 -0.5671 -0.4020
  947MOL0     C24886   6.887   6.769  11.487  0.2235  0.4917 -0.3102
  947MOL0     C24887   6.810   6.664  11.571  0.1032  0.1636 -0.9930
  947MOL0     C24888   6.861   6.673  11.716 -0.1414  0.6617  0.2505
  947MOL0     N24889   6.759   6.620  11.811 -0.3149 -0.6546 -0.1028
  947MOL0     C24890   6.734   6.486  11.838 -0.6435  0.2820  0.5248
  947MOL0     C24891   6.622   6.490  11.910 -0.0164 -0.4559 -0.5015
  947MOL0     C24892   6.562   6.360  11.955  0.3318 -0.4973  0.2368
  947MOL0     C24893   6.442   6.318  11.867 -0.7741 -0.2437 -0.1664
  947MOL0     C24894   6.390   6.180  11.921  0.9487 -0.1236 -0.1766
  947MOL0     C24895   6.283   6.117  11.832  0.2874  0.0681  0.1634
  947MOL0     O24896   6.184   6.221  11.805 -0.4340  0.5231  1.2185
  947MOL0     C24897   6.069   6.188  11.749 -0.4565 -0.3444  0.2356
  947MOL0     C24898   6.066   6.085  11.656  0.6234  0.1968  0.6434
  947MOL0     C24899   5.946   6.041  11.600 -0.6413  0.3346 -0.7127
  947MOL0     C24900   5.824   6.114  11.622  0.3636  0.1654 -0.7514
  947MOL0     C24901   5.706   6.051  11.565  0.5682 -0.5512 -0.5257
  947MOL0     O24902   5.584   6.099  11.601 -1.0575  0.1002  0.2029
  947MOL0     C24903   5.466   6.025  11.599 -0.1304 -0.7690  0.5022
  947MOL0     C24904   5.347   6.093  11.613 -0.0796 -0.9705 -0.2270
  947MOL0     C24905   5.218   6.041  11.603 -0.6726 -0.4682 -1.2151
  947MOL0     C24906   5.203   5.909  11.558  0.9930  0.4287 -0.3173
  947MOL0     O24907   5.083   5.854  11.522  0.5422 -0.2379 -0.4215
  947MOL0     C24908   5.000   5.816  11.635 -0.9116  1.4324  0.1360
  947MOL0     C24909   4.864   5.766  11.595 -0.4183  0.9461  0.0452
  947MOL0     C24910   4.753   5.747  11.705 -0.2897  0.7565  0.4077
  947MOL0     C24911   4.653   5.649  11.647  0.5549 -0.0533 -0.0671
  947MOL0     C24912   4.512   5.667  11.726  1.0139 -0.0750  0.6555
  947MOL0     C24913   4.393   5.586  11.668 -0.8576  0.5492  0.2319
  947MOL0     C24914   4.263   5.613  11.732  0.6565  0.0372  0.7481
  947MOL0     C24915   4.152   5.518  11.678 -0.1780 -0.0145  0.0333
  947MOL0    Cl24916   4.128   5.524  11.493 -0.1703  0.0814  0.0639
  947MOL0     C24917   5.324   5.836  11.543  0.7909 -0.3412 -0.1612
  947MOL0     C24918   5.452   5.889  11.558 -0.9235 -0.0902 -0.9378
  947MOL0     O24919   5.719   5.962  11.490  0.1381  1.2484 -0.0502
  947MOL0     C24920   5.832   6.215  11.713 -0.1616 -0.2609  0.4490
  947MOL0     C24921   5.955   6.262  11.764  0.5447 -0.5494  0.2655
  947MOL0     N24922   6.579   6.618  11.933  0.9334  0.1410 -0.1539
  947MOL0     N24923   6.672   6.693  11.886  1.4684 -0.1173 -0.0602
  947MOL0     C24924   7.275   7.282  11.292 -0.1708 -0.3599  0.0914
  947MOL0     C24925   7.411   7.304  11.265  0.9606  0.1176  0.2606
  947MOL0     C24926   7.845   7.242  11.319  0.0127 -0.4508 -0.9613
  947MOL0     C24927   7.927   7.144  11.256  0.1915 -0.1548 -0.5632
  947MOL0     C24928   8.067   7.162  11.254  0.2890 -0.0622  0.0616
  947MOL0     C24929   8.138   7.276  11.302  0.9907 -0.0230  0.0446
  947MOL0     O24930   8.270   7.295  11.285  0.6762  0.3108  0.1408
  947MOL0     C24931   8.360   7.261  11.394  0.6499 -0.0851  0.4756
  947MOL0     C24932   8.488   7.203  11.332 -0.0487  0.5947 -0.3390
  947MOL0     C24933   8.579   7.183  11.456 -0.1026 -0.3671  0.7137
  947MOL0     C24934   8.711   7.128  11.418  0.6802  0.3449  1.2771
  947MOL0     C24935   8.689   7.003  11.338 -0.1274  0.4701 -0.8572
  947MOL0     C24936   8.635   6.908  11.286  0.0394  0.5244  0.1660
  947MOL0     C24937   8.058   7.377  11.363 -0.2008  0.6260 -0.2450
  947MOL0     C24938   7.919   7.357  11.366 -0.2509 -1.0381  0.6408
  947MOL0     H24939   7.505   7.403  11.579  0.1454 -0.0432 -0.2882
  947MOL0     H24940   7.281   7.361  11.631  1.0523 -0.1483 -0.3708
  947MOL0     H24941   6.983   7.296  11.279  1.5387 -0.0537  0.4264
  947MOL0     H24942   6.896   7.238  11.416 -0.5001  0.9182  0.0659
  947MOL0     H24943   7.098   7.090  11.241  0.3340  0.1949 -0.2240
  947MOL0     H24944   6.935   7.030  11.296  0.0906 -0.2965  1.4595
  947MOL0     H24945   7.017   7.010  11.527  1.1057  0.3673  0.0303
  947MOL0     H24946   7.181   7.055  11.470  1.4069  1.9414 -2.7915
  947MOL0     H24947   7.081   6.841  11.303  1.3284 -2.1846 -0.4091
  947MOL0     H24948   7.225   6.848  11.399  0.1237  0.3269 -3.1220
  947MOL0     H24949   7.078   6.771  11.598 -1.2841  1.2301 -0.3565
  947MOL0     H24950   7.062   6.650  11.468 -1.6860 -1.0408  0.6694
  947MOL0     H24951   6.860   6.767  11.381 -2.0044 -0.9116  0.2131
  947MOL0     H24952   6.857   6.866  11.526  1.7376  0.3011  1.5012
  947MOL0     H24953   6.702   6.683  11.575 -0.2775 -1.9696  1.0955
  947MOL0     H24954   6.827   6.564  11.532 -1.7084  0.5855 -3.0601
  947MOL0     H24955   6.887   6.778  11.735 -1.1213  0.7467  1.1609
  947MOL0     H24956   6.949   6.608  11.719 -0.4477  0.2864  1.8089
  947MOL0     H24957   6.783   6.398  11.798 -0.5841  0.2814  0.5989
  947MOL0     H24958   6.530   6.365  12.060 -0.2802 -0.0890  0.0317
  947MOL0     H24959   6.643   6.287  11.958  1.2571  0.5151  1.0118
  947MOL0     H24960   6.487   6.300  11.769  0.5300  0.9879  0.1755
  947MOL0     H24961   6.374   6.403  11.861  0.0020  0.4553  0.5970
  947MOL0     H24962   6.477   6.117  11.941  1.9564  1.8259  2.1339
  947MOL0     H24963   6.336   6.205  12.013  2.5586  1.5049  0.3839
  947MOL0     H24964   6.236   6.038  11.891 -3.3272 -0.1209 -2.5764
  947MOL0     H24965   6.334   6.078  11.743 -2.7091 -0.6975 -1.3448
  947MOL0     H24966   6.158   6.033  11.632  1.4181  1.8200 -0.0424
  947MOL0     H24967   5.955   5.955  11.535  1.7072  1.0095 -1.3844
  947MOL0     H24968   5.359   6.200  11.628 -2.8334 -0.4782 -1.0186
  947MOL0     H24969   5.130   6.105  11.606  0.6808  1.4535  0.5390
  947MOL0     H24970   4.991   5.889  11.716 -2.1181 -0.3158  1.6522
  947MOL0     H24971   5.052   5.742  11.697 -2.1123  1.4366  1.1773
  947MOL0     H24972   4.877   5.662  11.563 -3.7934 -0.5189  2.7381
  947MOL0     H24973   4.819   5.810  11.506 -2.6597 -1.0953  0.0555
  947MOL0     H24974   4.705   5.845  11.718 -1.8620  0.6127 -3.2264
  947MOL0     H24975   4.788   5.714  11.803 -3.0520 -3.6400  0.1981
  947MOL0     H24976   4.626   5.681  11.546  0.6503 -0.2426 -0.1512
  947MOL0     H24977   4.687   5.546  11.657 -3.1020 -1.2347  2.2917
  947MOL0     H24978   4.482   5.771  11.716  0.3991 -0.2670  0.4775
  947MOL0     H24979   4.521   5.640  11.832 -0.1457 -2.0351  0.3006
  947MOL0     H24980   4.418   5.479  11.675  0.6342  0.4115 -4.0897
  947MOL0     H24981   4.392   5.608  11.561  0.2799 -1.0630 -0.1437
  947MOL0     H24982   4.264   5.603  11.841 -0.7015 -0.0331  0.7646
  947MOL0     H24983   4.235   5.716  11.709  3.2598  0.5415 -0.5127
  947MOL0     H24984   4.065   5.552  11.735  0.3823 -0.7500  1.3731
  947MOL0     H24985   4.170   5.416  11.714 -4.2195 -0.0687  2.4737
  947MOL0     H24986   5.332   5.737  11.499  3.3671  0.8618 -2.6726
  947MOL0     H24987   5.537   5.825  11.537 -0.5892 -0.1460  0.4476
  947MOL0     H24988   5.736   6.259  11.739 -0.4723 -0.4627 -0.3177
  947MOL0     H24989   5.954   6.352  11.825  1.0169  0.6030 -1.3696
  947MOL0     H24990   7.197   7.263  11.218  0.4540  0.2558 -0.7526
  947MOL0     H24991   7.453   7.305  11.165 -1.3247 -3.3925 -0.9346
  947MOL0     H24992   7.883   7.062  11.201 -0.9537 -0.2157  0.4115
  947MOL0     H24993   8.114   7.084  11.196 -2.6318 -2.2172  0.3171
  947MOL0     H24994   8.315   7.184  11.458  1.5250 -0.0360  1.1727
  947MOL0     H24995   8.378   7.350  11.454  0.5296  1.1044 -1.1905
  947MOL0     H24996   8.469   7.107  11.284  1.2826 -0.5565  1.2991
  947MOL0     H24997   8.526   7.277  11.261 -3.0503  1.3971 -1.2383
  947MOL0     H24998   8.536   7.113  11.527  2.8964 -1.4415  1.6149
  947MOL0     H24999   8.594   7.281  11.502 -2.5495  0.8057 -0.7694
  947MOL0     H25000   8.767   7.203  11.363  0.8133  0.2971  1.3443
  947MOL0     H25001   8.772   7.100  11.505  2.3504 -1.7699 -0.4698
  947MOL0     H25002   8.604   6.818  11.238  0.8414  1.0965 -1.5013
  947MOL0     H25003   8.108   7.468  11.392 -1.3461  1.3868 -0.5735
  947MOL0     H25004   7.858   7.440  11.400  2.2645  0.9657  0.5444
  948MOL0     O25005   6.862   9.749   7.732 -0.8236  0.3410 -1.0585
  948MOL0     C25006   6.940   9.845   7.754 -0.5185  0.0620 -0.1082
  948MOL0     O25007   6.896   9.967   7.779 -0.0918 -0.6044 -0.3365
  948MOL0     C25008   6.765   9.984   7.793 -0.8305  0.6431  0.2533
  948MOL0     C25009   6.688   9.911   7.890 -0.3424 -0.5739 -0.8372
  948MOL0     C25010   6.555   9.955   7.915  0.2027 -0.9202 -0.4580
  948MOL0     C25011   6.504  10.075   7.853  0.5781  0.4104 -1.0166
  948MOL0     O25012   6.373  10.125   7.862  0.0978  0.2954  0.2212
  948MOL0     C25013   6.281  10.056   7.945 -0.1241  0.9830  0.4400
  948MOL0     C25014   6.165  10.119   8.003  0.6251  0.7242 -0.0362
  948MOL0     C25015   6.065  10.179   7.894  0.1770 -0.1954 -0.5401
  948MOL0     C25016   5.950  10.243   7.971  0.0314  0.3476 -0.7772
  948MOL0     C25017   5.849  10.313   7.882 -0.9866  0.0056  0.5188
  948MOL0     C25018   5.905  10.433   7.802 -1.3066  0.4093 -0.1356
  948MOL0     C25019   5.813  10.551   7.780 -0.4655 -0.0385  0.4344
  948MOL0     C25020   5.676  10.494   7.728 -0.0672 -1.2487 -0.4810
  948MOL0     N25021   5.584  10.607   7.709  0.3465 -0.2707 -0.2761
  948MOL0     C25022   5.552  10.706   7.789 -0.2914  0.1079  0.3321
  948MOL0     C25023   5.464  10.782   7.724  0.2718  0.8462  0.3423
  948MOL0     C25024   5.372  10.879   7.772  0.6577 -0.3059 -0.1298
  948MOL0     C25025   5.228  10.825   7.754 -0.0045  0.0334  0.0218
  948MOL0     C25026   5.132  10.919   7.824 -0.4881 -0.0310 -0.2248
  948MOL0     C25027   4.987  10.896   7.782 -0.4390 -0.3602  0.2979
  948MOL0     O25028   4.910  10.980   7.859 -0.2743  0.2666 -0.5056
  948MOL0     C25029   4.779  11.006   7.821  0.2221 -0.0085 -0.0836
  948MOL0     C25030   4.705  11.062   7.928 -0.5125 -0.2917 -0.2151
  948MOL0     C25031   4.576  11.090   7.918  0.4666  0.3459  0.5056
  948MOL0     C25032   4.500  11.038   7.814 -0.2013 -0.6267 -0.0464
  948MOL0     C25033   4.350  11.056   7.812 -0.9186 -1.0278 -0.2417
  948MOL0     O25034   4.277  10.976   7.727  0.0193  0.1217  0.6567
  948MOL0     C25035   4.142  10.989   7.733 -0.3853 -0.1444 -0.1484
  948MOL0     C25036   4.060  10.880   7.777 -0.1661 -0.2152 -0.5458
  948MOL0     C25037   3.926  10.901   7.787 -0.3541 -0.5329  0.2131
  948MOL0     C25038   3.867  11.022   7.745  0.2816  1.0560 -0.8795
  948MOL0     O25039   3.729  11.046   7.752  0.0934  0.2875 -0.2186
  948MOL0     C25040   3.636  10.939   7.732 -0.0789  0.0570 -0.2854
  948MOL0     C25041   3.501  11.008   7.721 -0.4409 -0.4476  0.2734
  948MOL0     C25042   3.449  11.077   7.846  0.6130 -0.4277 -0.2511
  948MOL0     C25043   3.318  11.160   7.828  0.3619 -0.1165  0.7113
  948MOL0     C25044   3.196  11.079   7.790  0.7155 -0.0100 -0.1627
  948MOL0     C25045   3.139  10.996   7.906  1.1954 -0.2219 -0.5040
  948MOL0     C25046   3.026  10.916   7.846  0.2859  0.3514  0.1041
  948MOL0     C25047   2.903  10.987   7.800  0.3446 -0.5887 -0.6944
  948MOL0    Cl25048   2.825  11.058   7.948  0.0897  0.3286 -0.0880
  948MOL0     C25049   3.946  11.132   7.694 -0.0880  0.4911 -0.7016
  948MOL0     C25050   4.082  11.103   7.679 -0.4389  0.0627  0.5169
  948MOL0     O25051   4.300  11.123   7.903  0.0426  0.1599  0.9464
  948MOL0     C25052   4.570  10.964   7.710  1.2938 -0.8574 -0.0838
  948MOL0     C25053   4.702  10.946   7.718 -0.1355  1.2489  0.1778
  948MOL0     N25054   5.443  10.728   7.590  0.1114 -0.2246 -0.2623
  948MOL0     N25055   5.529  10.628   7.584  0.6209 -0.1833  1.5025
  948MOL0     C25056   6.581  10.137   7.761  0.2076 -1.1820  0.5084
  948MOL0     C25057   6.707  10.085   7.718  0.5491  0.7061 -0.1168
  948MOL0     C25058   7.082   9.802   7.782  0.9589 -0.3503 -0.2513
  948MOL0     C25059   7.186   9.898   7.804 -0.2804 -0.4212  0.0675
  948MOL0     C25060   7.323   9.856   7.820  0.3597  0.2307  0.8730
  948MOL0     C25061   7.351   9.718   7.835  1.2949 -0.6034  0.7875
  948MOL0     O25062   7.467   9.675   7.872 -0.5012  0.6004 -0.4901
  948MOL0     C25063   7.583   9.747   7.890 -0.5712 -0.1349 -0.6047
  948MOL0     C25064   7.687   9.650   7.954  0.6023  0.3301 -0.8316
  948MOL0     C25065   7.825   9.702   7.967  0.4357  0.2302 -0.1909
  948MOL0     C25066   7.912   9.629   8.072  0.2966  0.1145 -0.7820
  948MOL0     C25067   8.041   9.694   8.095  0.3839  0.0379  0.0933
  948MOL0     C25068   8.148   9.758   8.109  0.3641 -0.4284  0.7802
  948MOL0     C25069   7.249   9.628   7.823 -0.8622  0.1344  0.4797
  948MOL0     C25070   7.119   9.670   7.794  0.3152  0.6489 -0.7992
  948MOL0     H25071   6.726   9.844   7.966  0.1244  1.2003  0.5770
  948MOL0     H25072   6.490   9.894   7.978 -0.8395  1.4674  0.9210
  948MOL0     H25073   6.336  10.031   8.036 -1.1290  4.4118  2.1930
  948MOL0     H25074   6.247   9.963   7.900 -2.9428  1.8662  0.5707
  948MOL0     H25075   6.205  10.182   8.083  0.1407 -0.2310  0.9805
  948MOL0     H25076   6.104  10.044   8.055 -0.9220 -1.1534 -4.1267
  948MOL0     H25077   6.025  10.098   7.833 -1.4496  0.4154 -0.3258
  948MOL0     H25078   6.121  10.242   7.824  1.6389  0.0918  0.8183
  948MOL0     H25079   5.890  10.170   8.025 -0.0322 -0.2402 -1.6342
  948MOL0     H25080   5.992  10.314   8.044 -0.5876  0.6600 -0.7175
  948MOL0     H25081   5.769  10.346   7.948 -1.0731 -2.0263  1.5286
  948MOL0     H25082   5.807  10.240   7.811 -0.2603 -0.4449  0.5408
  948MOL0     H25083   5.951  10.404   7.707 -0.1676  0.6092  0.3346
  948MOL0     H25084   5.996  10.468   7.851  0.0252 -3.1156  0.2476
  948MOL0     H25085   5.816  10.612   7.871  2.2396 -0.8238  0.9442
  948MOL0     H25086   5.852  10.614   7.699  0.4095  0.6708  1.3791
  948MOL0     H25087   5.645  10.431   7.811 -2.4088  3.3424  2.5111
  948MOL0     H25088   5.688  10.425   7.644 -0.8586 -0.7928 -0.9817
  948MOL0     H25089   5.581  10.712   7.894 -0.9275  0.7078  0.4860
  948MOL0     H25090   5.378  10.985   7.748 -2.3508  0.7565  2.8983
  948MOL0     H25091   5.396  10.885   7.879 -1.6212  0.3589  0.4051
  948MOL0     H25092   5.220  10.721   7.788 -2.1198 -0.5413 -1.9479
  948MOL0     H25093   5.200  10.822   7.648  2.3936 -0.4743 -0.6405
  948MOL0     H25094   5.128  10.897   7.931  0.8629 -2.2895 -0.5648
  948MOL0     H25095   5.162  11.023   7.816 -0.7575  0.8379  5.4953
  948MOL0     H25096   4.957  10.791   7.795 -0.4155 -0.8859 -3.0291
  948MOL0     H25097   4.981  10.911   7.674 -1.3724 -0.8036  0.2725
  948MOL0     H25098   4.754  11.106   8.014 -1.1018  0.0403 -0.0480
  948MOL0     H25099   4.531  11.138   8.004 -0.8290 -0.1860  0.1480
  948MOL0     H25100   4.106  10.784   7.796 -1.8852 -0.8502  0.5837
  948MOL0     H25101   3.864  10.824   7.832 -1.3526  0.1773  0.0940
  948MOL0     H25102   3.651  10.860   7.806 -0.6575 -1.9015 -2.1553
  948MOL0     H25103   3.655  10.888   7.638  1.4355  0.9460 -0.5023
  948MOL0     H25104   3.418  10.944   7.689  0.3791 -0.2281 -2.5812
  948MOL0     H25105   3.506  11.092   7.651  1.1798 -0.2406  0.5894
  948MOL0     H25106   3.528  11.133   7.896  1.8375 -1.0258 -1.4301
  948MOL0     H25107   3.424  10.993   7.911 -1.8802  0.8172  0.5080
  948MOL0     H25108   3.300  11.210   7.924 -1.1440 -1.0385  0.9350
  948MOL0     H25109   3.327  11.227   7.742 -1.6607 -0.6124  0.0584
  948MOL0     H25110   3.232  11.013   7.711 -0.1974 -1.0599  0.2623
  948MOL0     H25111   3.115  11.143   7.754 -2.2184 -2.3452  1.6991
  948MOL0     H25112   3.103  11.053   7.993  1.6356  0.6157 -0.8590
  948MOL0     H25113   3.207  10.920   7.946  0.0525 -0.5560  0.9092
  948MOL0     H25114   3.072  10.862   7.762  1.2142 -0.7059  1.2566
  948MOL0     H25115   2.995  10.836   7.913  0.4511 -1.4454 -1.8483
  948MOL0     H25116   2.837  10.911   7.758  2.2814 -2.0806 -1.1897
  948MOL0     H25117   2.931  11.072   7.738  0.8443 -0.0010  0.3144
  948MOL0     H25118   3.904  11.215   7.637 -2.2091  1.3119  1.8714
  948MOL0     H25119   4.145  11.189   7.655 -1.0548  0.9636  2.0046
  948MOL0     H25120   4.513  10.910   7.636  1.9908 -1.9735  0.1721
  948MOL0     H25121   4.760  10.889   7.646  0.3747  0.0308  1.4918
  948MOL0     H25122   6.572  10.226   7.700  2.2451 -1.2892 -0.0463
  948MOL0     H25123   6.767  10.134   7.642 -0.6956  2.5329 -0.0001
  948MOL0     H25124   7.141   9.996   7.816 -2.7775 -1.3162 -1.2436
  948MOL0     H25125   7.403   9.917   7.860  0.0935 -0.4811  2.5905
  948MOL0     H25126   7.548   9.827   7.955 -1.0919 -0.0251 -1.0074
  948MOL0     H25127   7.625   9.790   7.798  0.9231  0.4859  0.3268
  948MOL0     H25128   7.667   9.623   8.058  0.4292  0.4881 -0.8241
  948MOL0     H25129   7.686   9.562   7.888 -1.4321 -2.8533  3.0101
  948MOL0     H25130   7.820   9.806   8.003  3.1065  0.4497 -0.2272
  948MOL0     H25131   7.877   9.696   7.871 -5.3102 -1.7768 -3.6237
  948MOL0     H25132   7.862   9.623   8.169  1.4211 -0.4044 -0.2184
  948MOL0     H25133   7.919   9.523   8.044 -4.2489 -0.8342  0.7730
  948MOL0     H25134   8.232   9.811   8.148 -0.8600  0.4052  2.4268
  948MOL0     H25135   7.269   9.522   7.832  0.3887  0.4688  1.8901
  948MOL0     H25136   7.042   9.594   7.799  2.0043 -1.1041 -0.3485
  949MOL0     O25137  11.118   8.965   6.327  0.0455  0.7446  0.0951
  949MOL0     C25138  11.096   9.065   6.386  0.0133 -0.2768 -0.4822
  949MOL0     O25139  11.187   9.164   6.416 -0.2015 -0.1389 -0.6981
  949MOL0     C25140  11.311   9.139   6.356 -0.2825  0.8011  0.0038
  949MOL0     C25141  11.420   9.086   6.423 -0.7597 -0.8633 -0.4968
  949MOL0     C25142  11.544   9.084   6.355  0.7275 -0.0356 -0.0509
  949MOL0     C25143  11.564   9.132   6.221  0.5958 -0.4536 -1.1243
  949MOL0     O25144  11.685   9.130   6.148  0.5276  0.4317 -0.9660
  949MOL0     C25145  11.814   9.110   6.198  0.0857 -1.2052 -0.1222
  949MOL0     C25146  11.907   9.140   6.078  0.4887 -0.9952  0.9183
  949MOL0     C25147  12.036   9.070   6.096  0.1312  0.2949  0.2681
  949MOL0     C25148  12.130   9.039   5.973 -0.8429  0.7939 -0.5425
  949MOL0     C25149  12.238   8.941   6.010 -0.0982 -0.4142  0.4203
  949MOL0     C25150  12.359   8.987   6.091 -0.2021 -0.4121 -0.1719
  949MOL0     C25151  12.479   8.894   6.118  0.9830 -0.3765  0.4258
  949MOL0     C25152  12.559   8.854   5.992  0.6360  0.1000  0.0038
  949MOL0     N25153  12.626   8.962   5.904  0.5306 -0.2214  0.2076
  949MOL0     C25154  12.751   8.995   5.926  0.1157  1.3921  0.5014
  949MOL0     C25155  12.775   9.087   5.836 -0.2018 -1.7846 -0.9334
  949MOL0     C25156  12.903   9.168   5.816 -0.1860  1.4221  0.0119
  949MOL0     C25157  13.018   9.085   5.745 -0.5077  0.2352 -0.0597
  949MOL0     C25158  13.069   8.974   5.847  0.5251  0.2663 -0.0042
  949MOL0     C25159  13.209   8.927   5.813  0.4236 -1.0197  0.1903
  949MOL0     O25160  13.213   8.868   5.684  0.2408 -0.3194 -0.0643
  949MOL0     C25161  13.322   8.880   5.602  0.4044 -0.2269 -1.0261
  949MOL0     C25162  13.296   8.874   5.468 -0.5457  0.6744  0.1979
  949MOL0     C25163  13.401   8.849   5.376 -0.1853  0.8447  0.6493
  949MOL0     C25164  13.529   8.825   5.419 -0.6848 -0.1754 -0.5613
  949MOL0     C25165  13.631   8.793   5.319 -0.2089 -0.2195  0.4746
  949MOL0     O25166  13.587   8.752   5.197 -0.0452  0.1516 -0.3174
  949MOL0     C25167  13.663   8.718   5.089  0.3883  0.0996  0.3579
  949MOL0     C25168  13.782   8.791   5.059  1.1400 -0.2550 -0.0232
  949MOL0     C25169  13.867   8.751   4.950  0.4116 -0.8398 -0.0149
  949MOL0     C25170  13.843   8.645   4.861  0.0282  0.9709  0.1316
  949MOL0     O25171  13.928   8.610   4.757  0.3335  0.4137  0.4063
  949MOL0     C25172  13.892   8.696   4.645  0.5883 -0.0596  0.5872
  949MOL0     C25173  14.015   8.676   4.557 -0.8878  0.2452 -0.0663
  949MOL0     C25174  14.144   8.742   4.601  0.4859  0.6715 -0.1531
  949MOL0     C25175  14.260   8.734   4.500  0.3235  0.2821  0.1510
  949MOL0     C25176  14.323   8.592   4.505  1.2042  0.5562  0.0049
  949MOL0     C25177  14.433   8.568   4.398  0.2722 -0.3187 -0.1243
  949MOL0     C25178  14.462   8.418   4.386 -0.2426 -0.2826  0.1169
  949MOL0     C25179  14.612   8.393   4.360 -0.0526 -0.6823 -0.9923
  949MOL0    Cl25180  14.665   8.486   4.215  0.1004  0.2358  0.7952
  949MOL0     C25181  13.723   8.573   4.895 -0.7377  0.8513 -0.0337
  949MOL0     C25182  13.636   8.608   5.005 -0.6265 -0.1387  0.5542
  949MOL0     O25183  13.745   8.806   5.360  1.3907 -0.2275 -0.0975
  949MOL0     C25184  13.556   8.821   5.556 -0.3883  0.7526  0.2781
  949MOL0     C25185  13.455   8.847   5.647 -0.2355  0.6125  0.1395
  949MOL0     N25186  12.665   9.096   5.752 -0.4012 -0.0770 -0.9354
  949MOL0     N25187  12.578   9.027   5.800  0.1196 -0.6651 -0.6922
  949MOL0     C25188  11.455   9.181   6.153  1.0013  0.3769  0.0820
  949MOL0     C25189  11.327   9.178   6.223  0.1108  1.6006  0.1774
  949MOL0     C25190  10.958   9.078   6.429 -0.3400  0.6272 -0.2134
  949MOL0     C25191  10.893   9.204   6.452  0.6978 -0.6362 -0.0607
  949MOL0     C25192  10.758   9.221   6.458 -0.1641 -0.6894  0.4993
  949MOL0     C25193  10.671   9.116   6.456 -0.8707  0.8669  0.1520
  949MOL0     O25194  10.535   9.142   6.470 -0.3170 -0.5122 -0.4074
  949MOL0     C25195  10.446   9.024   6.486 -0.4562 -1.0514  0.5405
  949MOL0     C25196  10.429   8.972   6.632 -0.5329 -0.3390  0.6638
  949MOL0     C25197  10.375   9.080   6.726 -1.1064  0.2696 -0.3839
  949MOL0     C25198  10.237   9.139   6.697  0.3291 -0.3957  0.2881
  949MOL0     C25199  10.124   9.056   6.682 -0.5125  0.2327  1.2219
  949MOL0     C25200  10.021   8.991   6.683 -1.1720  0.3430  0.3562
  949MOL0     C25201  10.734   8.988   6.430  0.9667 -0.3873  0.4955
  949MOL0     C25202  10.872   8.963   6.423  0.3893 -0.2282 -0.3018
  949MOL0     H25203  11.417   9.054   6.527  0.0214 -1.1928 -0.5685
  949MOL0     H25204  11.619   9.029   6.411 -0.2549 -1.2587  0.1061
  949MOL0     H25205  11.832   9.007   6.230 -0.5485 -1.4397 -0.5003
  949MOL0     H25206  11.837   9.172   6.285  0.2673 -2.5535  0.8247
  949MOL0     H25207  11.908   9.250   6.086 -0.4257 -0.6518 -2.3289
  949MOL0     H25208  11.873   9.113   5.978 -0.7129  2.5849  0.1930
  949MOL0     H25209  12.010   8.977   6.147 -1.7777 -0.8982 -2.6458
  949MOL0     H25210  12.096   9.120   6.173  0.9354 -1.1198  0.5851
  949MOL0     H25211  12.076   9.002   5.885  1.3518 -0.2702 -1.5180
  949MOL0     H25212  12.186   9.120   5.925 -3.3053  2.2898 -1.0760
  949MOL0     H25213  12.274   8.907   5.912 -0.5811  0.7441 -0.1744
  949MOL0     H25214  12.198   8.856   6.066 -1.0917 -0.4775 -0.3603
  949MOL0     H25215  12.323   9.018   6.190  0.3426 -1.6991  0.4607
  949MOL0     H25216  12.399   9.081   6.054 -2.6323  0.6615 -0.1972
  949MOL0     H25217  12.559   8.936   6.179  0.8111 -0.1932  0.5272
  949MOL0     H25218  12.443   8.807   6.175 -0.1260  0.3930  0.9429
  949MOL0     H25219  12.494   8.797   5.925 -4.1226  3.8569  0.9324
  949MOL0     H25220  12.641   8.789   6.025  0.7995  0.5123  0.4231
  949MOL0     H25221  12.822   8.957   5.999  0.5382  2.0717  0.4585
  949MOL0     H25222  12.936   9.194   5.917  1.4561 -0.3281 -0.0338
  949MOL0     H25223  12.884   9.252   5.748 -0.0123 -1.5036 -4.0011
  949MOL0     H25224  13.105   9.146   5.715 -2.0984  1.6073 -2.1890
  949MOL0     H25225  12.978   9.033   5.657  0.9768 -0.2082 -0.5042
  949MOL0     H25226  13.064   9.018   5.947  0.8311 -2.3197  1.2258
  949MOL0     H25227  13.009   8.883   5.838 -1.0938  1.3861 -1.1664
  949MOL0     H25228  13.232   8.839   5.874  1.9663 -1.2508 -0.6870
  949MOL0     H25229  13.282   9.006   5.831  1.1213 -2.1918  3.0954
  949MOL0     H25230  13.194   8.881   5.432  0.0883 -2.4636 -2.7622
  949MOL0     H25231  13.368   8.852   5.273 -1.2973 -0.4719  0.9293
  949MOL0     H25232  13.802   8.880   5.119  0.9070  1.7395 -2.7174
  949MOL0     H25233  13.964   8.797   4.933  0.3812 -0.4497  0.8419
  949MOL0     H25234  13.871   8.803   4.656 -2.7757 -0.1799 -2.7964
  949MOL0     H25235  13.804   8.651   4.599 -0.6139  1.8678  0.8825
  949MOL0     H25236  13.983   8.710   4.458  1.6228  2.5531 -0.2321
  949MOL0     H25237  14.036   8.569   4.555  0.6863  0.5098 -2.5912
  949MOL0     H25238  14.175   8.695   4.695  0.8294  1.4512  0.1284
  949MOL0     H25239  14.125   8.846   4.626 -0.7714  0.8175 -1.5926
  949MOL0     H25240  14.229   8.759   4.399 -0.9395 -0.1833  0.4065
  949MOL0     H25241  14.335   8.805   4.538  0.1661  1.7864 -2.1609
  949MOL0     H25242  14.242   8.528   4.468  0.5497  2.5990 -2.3739
  949MOL0     H25243  14.352   8.569   4.608  1.6269 -0.0568 -0.2453
  949MOL0     H25244  14.520   8.623   4.435 -0.0370 -0.2996  0.5875
  949MOL0     H25245  14.401   8.583   4.295  2.8518 -3.0947 -1.5049
  949MOL0     H25246  14.436   8.370   4.480 -1.4431 -1.3748 -0.7391
  949MOL0     H25247  14.406   8.363   4.310  0.6064 -2.3868  0.9489
  949MOL0     H25248  14.628   8.285   4.353 -2.6140 -1.2938  1.1439
  949MOL0     H25249  14.670   8.421   4.449  0.7819 -3.9101 -0.4088
  949MOL0     H25250  13.709   8.477   4.846 -1.7469  0.9276  0.0723
  949MOL0     H25251  13.546   8.549   5.017 -1.4015 -0.2651 -4.0027
  949MOL0     H25252  13.652   8.780   5.588 -0.6350 -0.2865 -0.3023
  949MOL0     H25253  13.472   8.840   5.754  0.2990 -0.1824  0.0050
  949MOL0     H25254  11.468   9.216   6.051  2.7542  0.8264  0.4338
  949MOL0     H25255  11.244   9.224   6.170 -0.0525 -0.4997 -1.5630
  949MOL0     H25256  10.951   9.295   6.447 -1.5478  0.7946 -4.2766
  949MOL0     H25257  10.716   9.321   6.459 -1.7762 -1.3264 -0.0604
  949MOL0     H25258  10.470   8.935   6.428  0.7708 -0.1553 -0.3832
  949MOL0     H25259  10.348   9.051   6.445 -1.2379 -0.8941  2.4026
  949MOL0     H25260  10.362   8.886   6.625  0.0043 -0.6934 -0.2680
  949MOL0     H25261  10.530   8.947   6.667 -1.1710 -0.5622  2.4330
  949MOL0     H25262  10.447   9.161   6.736 -0.1392 -0.8166  2.3297
  949MOL0     H25263  10.372   9.037   6.827 -1.3315  0.3142 -0.3705
  949MOL0     H25264  10.214   9.201   6.785 -0.0484 -0.6413  0.3641
  949MOL0     H25265  10.240   9.205   6.610  1.3189 -0.4379  0.2799
  949MOL0     H25266   9.931   8.934   6.697 -0.1949 -2.1913 -2.5294
  949MOL0     H25267  10.676   8.899   6.408  2.0149 -1.0013  0.1226
  949MOL0     H25268  10.922   8.867   6.411  3.9734  1.3158  1.1307
  950MOL0     O25269   1.414   1.164   4.937 -0.0916 -0.1578  0.4193
  950MOL0     C25270   1.512   1.200   4.870 -0.0469  0.6263  0.6784
  950MOL0     O25271   1.505   1.255   4.746 -0.3855 -0.1678 -0.3869
  950MOL0     C25272   1.384   1.265   4.686 -0.2001 -0.1853  0.2791
  950MOL0     C25273   1.303   1.152   4.644  0.9408 -0.7357 -0.2471
  950MOL0     C25274   1.179   1.175   4.584 -0.2109 -0.1538  0.5826
  950MOL0     C25275   1.137   1.301   4.545  0.2550  0.8929 -0.2640
  950MOL0     O25276   1.028   1.306   4.465  0.2885 -0.1016 -0.4168
  950MOL0     C25277   0.948   1.418   4.506 -0.7242 -0.0192  0.1554
  950MOL0     C25278   0.809   1.404   4.430 -1.0708  0.2711  0.0336
  950MOL0     C25279   0.821   1.406   4.272 -0.4055 -0.6829  0.4127
  950MOL0     C25280   0.681   1.418   4.210  0.4772  0.6010  0.9997
  950MOL0     C25281   0.678   1.435   4.056  0.2268 -0.0614 -0.0679
  950MOL0     C25282   0.758   1.567   4.012 -0.0781  1.1792 -0.3635
  950MOL0     C25283   0.738   1.589   3.869 -0.4037  0.8089  0.1314
  950MOL0     C25284   0.850   1.669   3.799  0.5685 -0.6483 -0.2271
  950MOL0     N25285   0.986   1.609   3.793  0.7860  0.3627  1.0817
  950MOL0     C25286   1.104   1.676   3.821 -0.8398 -0.6075 -0.8293
  950MOL0     C25287   1.199   1.585   3.796 -0.5636 -0.3509  0.2749
  950MOL0     C25288   1.340   1.591   3.850  0.2947 -0.3556  0.6750
  950MOL0     C25289   1.370   1.541   3.992 -0.4903 -1.0609 -0.2014
  950MOL0     C25290   1.502   1.604   4.014 -0.1557  0.6304  1.0363
  950MOL0     C25291   1.616   1.556   3.938 -0.5451 -0.4466 -0.4902
  950MOL0     O25292   1.727   1.595   4.005 -0.6933 -0.5287 -0.4863
  950MOL0     C25293   1.842   1.541   3.983  1.1347 -0.3632 -0.4113
  950MOL0     C25294   1.871   1.444   3.893 -0.3264 -0.0080  0.0200
  950MOL0     C25295   2.015   1.403   3.874 -0.6321 -0.2747  0.2993
  950MOL0     C25296   2.111   1.457   3.968 -0.8380  0.4550  1.7389
  950MOL0     C25297   2.253   1.420   3.959 -0.4648  0.3588  0.7248
  950MOL0     O25298   2.313   1.396   3.839  0.0896 -0.2898  0.5545
  950MOL0     C25299   2.441   1.378   3.824 -0.2607 -0.8724 -0.1508
  950MOL0     C25300   2.518   1.470   3.763  0.2083 -0.1224  0.4684
  950MOL0     C25301   2.661   1.458   3.745 -0.4948 -0.3107 -0.1455
  950MOL0     C25302   2.730   1.352   3.804  1.0362 -0.9780 -0.8054
  950MOL0     O25303   2.865   1.342   3.797 -0.7351 -0.6851 -0.9375
  950MOL0     C25304   2.923   1.392   3.677 -0.3208 -0.3833 -0.2980
  950MOL0     C25305   3.071   1.337   3.663  0.3939 -0.4544 -0.1092
  950MOL0     C25306   3.176   1.400   3.763 -0.8319 -0.9872  0.8147
  950MOL0     C25307   3.318   1.338   3.759 -0.2588 -0.1933 -0.0803
  950MOL0     C25308   3.402   1.420   3.861 -0.2303  0.7537 -0.4281
  950MOL0     C25309   3.542   1.371   3.864  0.1888 -0.6400  0.2502
  950MOL0     C25310   3.625   1.471   3.928 -0.0343  0.6850  0.2882
  950MOL0     C25311   3.596   1.493   4.080  0.2256  0.0039 -0.0210
  950MOL0    Cl25312   3.736   1.596   4.136 -0.6042 -0.3369 -0.5299
  950MOL0     C25313   2.653   1.254   3.863 -0.5047  0.1685  0.2399
  950MOL0     C25314   2.513   1.267   3.876  0.1380 -0.1553 -0.2223
  950MOL0     O25315   2.308   1.395   4.069  0.5282 -0.5977  0.2572
  950MOL0     C25316   2.079   1.541   4.067  0.0632  0.0230 -0.3741
  950MOL0     C25317   1.941   1.590   4.072  0.3723  0.0675  0.4379
  950MOL0     N25318   1.135   1.477   3.747  0.1965 -0.4562 -0.4840
  950MOL0     N25319   1.010   1.488   3.765  0.2858  0.3660 -0.2926
  950MOL0     C25320   1.220   1.413   4.571  0.7803 -0.5637  0.1354
  950MOL0     C25321   1.336   1.390   4.649  0.8516  0.0293 -0.2050
  950MOL0     C25322   1.645   1.179   4.921 -0.6685 -0.3581  0.5694
  950MOL0     C25323   1.672   1.161   5.055 -0.2394  0.4402 -0.3966
  950MOL0     C25324   1.804   1.141   5.099 -0.0026 -0.5854  0.9796
  950MOL0     C25325   1.912   1.136   5.011  0.6716  0.5519 -0.0114
  950MOL0     O25326   2.042   1.104   5.046 -0.1244  0.0858 -0.2194
  950MOL0     C25327   2.070   1.065   5.179 -0.6716  0.4635 -0.3005
  950MOL0     C25328   2.227   1.069   5.210  1.1014  0.2501 -0.3336
  950MOL0     C25329   2.284   0.947   5.271  0.1429  0.3335 -0.0870
  950MOL0     C25330   2.407   0.979   5.345  0.3284  1.0819  0.1521
  950MOL0     C25331   2.493   0.850   5.348 -0.4274 -0.2056 -0.1251
  950MOL0     C25332   2.562   0.752   5.366  0.2206  0.3629  0.7806
  950MOL0     C25333   1.880   1.156   4.875 -0.6126  0.9347 -0.0784
  950MOL0     C25334   1.750   1.179   4.837  0.3901 -0.2629  0.0245
  950MOL0     H25335   1.323   1.046   4.660  0.1711 -0.8105  0.2926
  950MOL0     H25336   1.124   1.082   4.571 -1.0297  0.3494  0.3605
  950MOL0     H25337   0.993   1.516   4.484  3.3779 -1.7498 -0.0097
  950MOL0     H25338   0.931   1.422   4.614  2.5097  0.7046  0.7626
  950MOL0     H25339   0.739   1.478   4.469  1.2262  3.1667 -0.9182
  950MOL0     H25340   0.763   1.311   4.464 -2.4519  1.4006  1.3413
  950MOL0     H25341   0.876   1.323   4.227 -2.4706 -1.5016 -0.7644
  950MOL0     H25342   0.875   1.499   4.251 -3.1470  1.4765  2.2232
  950MOL0     H25343   0.629   1.327   4.242  1.9516 -0.6908 -0.1003
  950MOL0     H25344   0.633   1.507   4.251 -0.9203  0.6189 -0.5394
  950MOL0     H25345   0.575   1.432   4.019  0.8091  0.1921 -1.8395
  950MOL0     H25346   0.732   1.353   4.009  0.3585 -0.5598  0.9313
  950MOL0     H25347   0.862   1.558   4.043 -0.1421  1.0186 -0.1915
  950MOL0     H25348   0.730   1.658   4.067  1.3807  2.1593 -1.1976
  950MOL0     H25349   0.741   1.497   3.810 -0.8703  2.8207 -3.3175
  950MOL0     H25350   0.641   1.631   3.841 -0.9314 -1.6512 -2.1182
  950MOL0     H25351   0.870   1.769   3.840 -0.4285  0.8678 -3.2011
  950MOL0     H25352   0.819   1.693   3.698  1.6067  1.8606 -0.0389
  950MOL0     H25353   1.112   1.775   3.866  0.3152 -1.8844  1.9904
  950MOL0     H25354   1.351   1.699   3.858 -3.1501  0.0517  1.3793
  950MOL0     H25355   1.401   1.542   3.773  1.0957 -0.2316  1.2191
  950MOL0     H25356   1.377   1.432   3.991 -0.1167 -1.0355 -0.8540
  950MOL0     H25357   1.293   1.586   4.056  1.2055  2.7036 -0.6049
  950MOL0     H25358   1.505   1.713   4.018  2.5759  0.7372 -0.8892
  950MOL0     H25359   1.523   1.577   4.118  0.9162  0.7672  0.8635
  950MOL0     H25360   1.611   1.613   3.845  0.8573  4.0620  1.8817
  950MOL0     H25361   1.612   1.447   3.932  0.5798 -0.5211 -0.1477
  950MOL0     H25362   1.792   1.413   3.826 -0.1290  2.7781 -1.6250
  950MOL0     H25363   2.032   1.333   3.792  1.4669  0.3469  0.1511
  950MOL0     H25364   2.480   1.570   3.745  1.1907  0.2132  0.1877
  950MOL0     H25365   2.716   1.539   3.698  1.4001 -2.1436 -1.2629
  950MOL0     H25366   2.913   1.501   3.672 -1.7470 -0.2592  3.0046
  950MOL0     H25367   2.860   1.354   3.595 -1.7922 -1.8447  1.4275
  950MOL0     H25368   3.106   1.351   3.560  0.1730 -0.0198 -0.1239
  950MOL0     H25369   3.062   1.232   3.693 -0.6952  0.2702  2.3679
  950MOL0     H25370   3.148   1.396   3.869  0.9162 -0.0529  1.3644
  950MOL0     H25371   3.188   1.506   3.739  0.0598 -0.9835  1.2438
  950MOL0     H25372   3.299   1.237   3.796  2.7060 -1.0271 -0.6161
  950MOL0     H25373   3.346   1.342   3.653 -0.6545 -0.8897 -0.2191
  950MOL0     H25374   3.354   1.412   3.959  1.0345  1.5804  0.3019
  950MOL0     H25375   3.395   1.529   3.850 -4.5203  1.1759  3.4487
  950MOL0     H25376   3.570   1.359   3.759 -0.1647  0.2039  0.0532
  950MOL0     H25377   3.550   1.271   3.907 -0.4678 -0.4576  0.8077
  950MOL0     H25378   3.727   1.432   3.923  0.7769  2.5723  0.9839
  950MOL0     H25379   3.624   1.569   3.879  1.9243  0.3655 -0.4650
  950MOL0     H25380   3.605   1.395   4.126  4.0804 -0.6786 -1.8261
  950MOL0     H25381   3.495   1.534   4.090 -1.4076 -3.1295 -2.1102
  950MOL0     H25382   2.715   1.177   3.906  0.2021  1.6550  2.0471
  950MOL0     H25383   2.455   1.193   3.931 -2.0172 -0.2431 -2.4483
  950MOL0     H25384   2.154   1.570   4.139 -0.3577 -0.0488  0.1010
  950MOL0     H25385   1.910   1.674   4.134  0.8087  0.2592  0.3999
  950MOL0     H25386   1.193   1.514   4.543  0.4034 -1.6317 -4.1749
  950MOL0     H25387   1.392   1.480   4.671  1.3040 -0.5350  1.0641
  950MOL0     H25388   1.600   1.159   5.136  2.0764  0.6290  1.7718
  950MOL0     H25389   1.822   1.118   5.204  2.3233  2.3715  1.3777
  950MOL0     H25390   2.041   0.960   5.186  0.5250 -0.0715 -2.5240
  950MOL0     H25391   2.023   1.143   5.240  0.0275 -0.6896  1.7980
  950MOL0     H25392   2.277   1.112   5.123 -1.7758  2.4314 -1.0720
  950MOL0     H25393   2.244   1.143   5.289 -0.5712 -1.2767  1.5873
  950MOL0     H25394   2.296   0.875   5.190 -0.1630  1.0721 -0.7918
  950MOL0     H25395   2.217   0.898   5.343 -1.7573 -1.6058 -2.9623
  950MOL0     H25396   2.466   1.064   5.308  1.0347  1.0091  1.0551
  950MOL0     H25397   2.382   1.006   5.448 -2.0027  3.7083 -0.9856
  950MOL0     H25398   2.627   0.671   5.394  0.8633  0.1266 -1.2456
  950MOL0     H25399   1.957   1.172   4.800  2.1945 -0.5367  2.3187
  950MOL0     H25400   1.742   1.200   4.731  1.4529 -1.2891 -0.2828
  951MOL0     O25401   7.065   5.990   9.587  0.1592  0.5244  0.0201
  951MOL0     C25402   7.135   6.086   9.592  0.7672  0.6157 -0.6945
  951MOL0     O25403   7.092   6.211   9.608  0.3672  0.4837 -0.2196
  951MOL0     C25404   6.965   6.247   9.645 -0.0116 -0.0304 -0.9516
  951MOL0     C25405   6.850   6.192   9.585  0.0475 -0.1149 -0.4182
  951MOL0     C25406   6.723   6.221   9.635  1.0474  0.3275  0.0882
  951MOL0     C25407   6.712   6.312   9.741 -0.5505  0.4309  0.7254
  951MOL0     O25408   6.593   6.356   9.788  0.1192  0.8147 -0.0811
  951MOL0     C25409   6.472   6.286   9.754 -0.2483 -0.0347  0.9250
  951MOL0     C25410   6.357   6.345   9.835 -0.7961 -0.7604  0.2855
  951MOL0     C25411   6.247   6.245   9.798  0.4276 -1.2386 -0.1333
  951MOL0     C25412   6.104   6.290   9.850 -0.7521 -0.4433 -0.3718
  951MOL0     C25413   6.045   6.166   9.913  0.0614  0.4885  0.7017
  951MOL0     C25414   5.902   6.193   9.930 -0.2950 -0.3265  0.0356
  951MOL0     C25415   5.819   6.074   9.972 -0.6260  0.3472  0.5387
  951MOL0     C25416   5.837   6.042  10.118  0.0401 -0.0483  0.3135
  951MOL0     N25417   5.742   5.933  10.143  0.1774  0.0047 -0.1115
  951MOL0     C25418   5.767   5.798  10.127  0.3021 -0.9048 -0.7925
  951MOL0     C25419   5.659   5.731  10.170 -0.2349  0.6623  0.5434
  951MOL0     C25420   5.659   5.572  10.185  0.6901  0.0250  0.1107
  951MOL0     C25421   5.794   5.493  10.166  0.1184 -0.1804 -0.1818
  951MOL0     C25422   5.904   5.526  10.263  0.8523 -0.6730  0.3047
  951MOL0     C25423   6.036   5.455  10.232  0.0383  0.3809 -0.4455
  951MOL0     O25424   6.149   5.557  10.217  0.2982 -0.5167 -0.2914
  951MOL0     C25425   6.285   5.517  10.214  0.8863 -0.7476 -0.7211
  951MOL0     C25426   6.380   5.617  10.188  0.8501 -0.4304  0.5733
  951MOL0     C25427   6.518   5.586  10.187 -0.3919 -0.2458 -0.1123
  951MOL0     C25428   6.561   5.458  10.219  0.2805 -0.1489  0.5788
  951MOL0     C25429   6.706   5.423  10.222  0.7584  1.2491 -0.2047
  951MOL0     O25430   6.781   5.480  10.130 -0.6533 -0.6544 -0.1928
  951MOL0     C25431   6.915   5.448  10.132 -0.3218 -0.3054  0.3780
  951MOL0     C25432   7.011   5.550  10.101 -0.4309  0.0627 -0.8259
  951MOL0     C25433   7.141   5.525  10.073 -0.1525  0.5304  0.2329
  951MOL0     C25434   7.193   5.396  10.069  0.2398  0.2986  0.1479
  951MOL0     O25435   7.322   5.359  10.036 -0.5543  0.1609 -0.3242
  951MOL0     C25436   7.419   5.460  10.071  0.6394 -0.1045 -0.5129
  951MOL0     C25437   7.446   5.569   9.954  0.6938 -0.3505 -0.8079
  951MOL0     C25438   7.546   5.519   9.856 -0.0393  0.0036  0.9907
  951MOL0     C25439   7.589   5.620   9.745 -0.8479  0.1876  0.3643
  951MOL0     C25440   7.724   5.585   9.691 -0.4676  0.6393 -0.2323
  951MOL0     C25441   7.736   5.445   9.640 -0.0615  0.0215 -0.5889
  951MOL0     C25442   7.866   5.439   9.560 -0.6235  0.5006  0.2207
  951MOL0     C25443   7.845   5.401   9.418 -0.7812 -0.6737  0.2008
  951MOL0    Cl25444   7.997   5.416   9.327 -0.3049 -0.5318 -0.0645
  951MOL0     C25445   7.100   5.293  10.095  0.5485 -0.3667  0.1689
  951MOL0     C25446   6.967   5.319  10.121 -0.9370  0.9674  0.2564
  951MOL0     O25447   6.747   5.347  10.313 -0.3134 -0.4578  0.8859
  951MOL0     C25448   6.462   5.355  10.242  0.1025 -1.0058 -0.2768
  951MOL0     C25449   6.324   5.392  10.233 -0.1489  1.5760  0.3453
  951MOL0     N25450   5.563   5.829  10.196  0.9235 -0.3205 -1.0476
  951MOL0     N25451   5.617   5.946  10.195 -0.5298  0.2667 -0.5655
  951MOL0     C25452   6.824   6.386   9.788 -0.0757  0.1476 -0.2651
  951MOL0     C25453   6.945   6.343   9.748 -0.0538 -0.1357 -0.4372
  951MOL0     C25454   7.278   6.064   9.572  0.0831 -0.4239  1.1472
  951MOL0     C25455   7.335   5.930   9.564 -0.2501 -0.5489  1.1630
  951MOL0     C25456   7.477   5.910   9.545 -0.5275  0.9650 -0.9365
  951MOL0     C25457   7.561   6.025   9.538  0.2053  1.2302 -0.7236
  951MOL0     O25458   7.702   6.013   9.526  0.3809 -0.3380 -0.0141
  951MOL0     C25459   7.756   6.053   9.396  0.1855  0.9170 -0.2799
  951MOL0     C25460   7.894   5.983   9.375  0.3415 -0.2078  0.2207
  951MOL0     C25461   8.005   6.016   9.474 -0.3893  0.4757 -1.0852
  951MOL0     C25462   8.135   6.042   9.410 -0.1763  0.7229  0.3005
  951MOL0     C25463   8.197   5.913   9.382 -0.5659  0.7612  0.2917
  951MOL0     C25464   8.227   5.794   9.376 -0.1065  0.0593  0.2320
  951MOL0     C25465   7.500   6.144   9.544 -0.1266 -0.7517  0.2539
  951MOL0     C25466   7.362   6.170   9.553 -0.1661 -0.6662 -0.3862
  951MOL0     H25467   6.851   6.126   9.499 -3.1678  1.3859 -1.7647
  951MOL0     H25468   6.638   6.173   9.588  2.3884 -2.3172  0.1829
  951MOL0     H25469   6.490   6.180   9.776  4.2485  0.4806  0.5875
  951MOL0     H25470   6.461   6.306   9.647 -1.2054  1.2400  1.2336
  951MOL0     H25471   6.334   6.447   9.803  2.1613  0.2064  0.8775
  951MOL0     H25472   6.372   6.356   9.943  1.9804 -0.8086 -0.0258
  951MOL0     H25473   6.273   6.158   9.859 -3.1981 -2.2491  0.2097
  951MOL0     H25474   6.236   6.224   9.691 -1.5576 -0.8818 -0.0346
  951MOL0     H25475   6.111   6.370   9.924 -0.0158  0.2006 -1.1096
  951MOL0     H25476   6.043   6.321   9.764 -2.0409  0.5959  0.8746
  951MOL0     H25477   6.089   6.140  10.010 -2.2184 -3.8884  0.7958
  951MOL0     H25478   6.057   6.075   9.853  2.2117  0.5728  0.9185
  951MOL0     H25479   5.869   6.228   9.831 -0.9853 -2.1924 -0.4413
  951MOL0     H25480   5.885   6.273  10.002  1.1938 -0.2175  0.2798
  951MOL0     H25481   5.714   6.103   9.965 -0.7877  0.1646  1.9529
  951MOL0     H25482   5.840   5.982   9.916 -2.0193  1.8488 -2.6905
  951MOL0     H25483   5.823   6.133  10.177 -1.7572  0.0158 -0.1523
  951MOL0     H25484   5.938   6.006  10.142  0.9807  2.3233  0.1805
  951MOL0     H25485   5.865   5.763  10.095  2.7152  0.3450  4.1441
  951MOL0     H25486   5.603   5.533  10.100  2.0136  0.4119 -0.9660
  951MOL0     H25487   5.605   5.549  10.277  0.1156  2.2185  0.3818
  951MOL0     H25488   5.818   5.503  10.060  0.8717  3.1738  0.1920
  951MOL0     H25489   5.766   5.389  10.184 -1.3550  0.1515 -0.4458
  951MOL0     H25490   5.920   5.634  10.264  1.2490 -0.7138 -0.4146
  951MOL0     H25491   5.879   5.504  10.367  0.2884 -1.2087  0.0571
  951MOL0     H25492   6.039   5.401  10.137  3.4931  2.2300 -1.5768
  951MOL0     H25493   6.050   5.376  10.306 -1.6449  0.8150  0.3867
  951MOL0     H25494   6.339   5.715  10.165 -3.6298 -2.6369 -2.0083
  951MOL0     H25495   6.604   5.651  10.175  0.9560 -0.9930  3.9051
  951MOL0     H25496   6.952   5.640  10.106 -2.1767 -1.0662  2.7505
  951MOL0     H25497   7.199   5.615  10.056  0.1375  0.3403  0.2050
  951MOL0     H25498   7.514   5.405  10.076  3.1220  3.5847 -2.0930
  951MOL0     H25499   7.409   5.499  10.173  2.9419  1.3113 -0.7472
  951MOL0     H25500   7.485   5.658  10.004  2.4500 -2.2209  1.3827
  951MOL0     H25501   7.352   5.596   9.906  0.3209 -2.4669 -1.3733
  951MOL0     H25502   7.498   5.432   9.810 -1.1536 -1.0244  3.8604
  951MOL0     H25503   7.631   5.476   9.910  1.1171  3.1271  1.9005
  951MOL0     H25504   7.518   5.611   9.663  0.6199  0.4694 -0.9755
  951MOL0     H25505   7.588   5.722   9.783  1.0095 -0.1080  1.3715
  951MOL0     H25506   7.800   5.604   9.767 -0.9085 -0.8848  0.6291
  951MOL0     H25507   7.740   5.643   9.599  2.2893  0.8021  0.2676
  951MOL0     H25508   7.641   5.422   9.591 -1.0080 -1.5746  1.7868
  951MOL0     H25509   7.733   5.384   9.731 -0.6433  1.9605  0.7722
  951MOL0     H25510   7.928   5.528   9.574  4.6496 -2.7025 -0.1283
  951MOL0     H25511   7.934   5.363   9.600 -0.4579  2.0124  3.0957
  951MOL0     H25512   7.788   5.476   9.364  3.9474  0.8626 -3.3550
  951MOL0     H25513   7.807   5.299   9.405  0.5559 -1.0041 -1.4474
  951MOL0     H25514   7.133   5.190  10.085  0.8228 -0.4481  1.5933
  951MOL0     H25515   6.898   5.236  10.131 -0.6437  0.7630  0.6130
  951MOL0     H25516   6.499   5.254  10.255 -1.1016 -1.3692  0.4137
  951MOL0     H25517   6.251   5.311  10.233 -0.7802  1.9507  4.2981
  951MOL0     H25518   6.799   6.472   9.849  1.8918  0.5357  0.0705
  951MOL0     H25519   7.038   6.374   9.796  1.0152 -3.0508 -0.4106
  951MOL0     H25520   7.277   5.838   9.554  2.3390 -2.0639 -1.4629
  951MOL0     H25521   7.522   5.814   9.524  2.9603  2.4401 -0.8149
  951MOL0     H25522   7.764   6.162   9.388 -0.8853  1.3467  2.9864
  951MOL0     H25523   7.691   6.014   9.318  2.5617 -3.1523 -0.4880
  951MOL0     H25524   7.875   5.876   9.369  1.3109 -0.5323  2.1738
  951MOL0     H25525   7.930   6.018   9.277  0.4765 -0.8663  0.0335
  951MOL0     H25526   8.009   5.930   9.542 -2.7944  0.1520 -1.2396
  951MOL0     H25527   7.975   6.107   9.527  0.2795  0.7932 -1.2544
  951MOL0     H25528   8.134   6.101   9.318  1.9468  2.2732  1.1785
  951MOL0     H25529   8.206   6.090   9.478  1.2683  0.7588 -1.1677
  951MOL0     H25530   8.238   5.688   9.374  0.9693  0.0843  2.3529
  951MOL0     H25531   7.564   6.230   9.530 -0.8544  0.2151  2.4758
  951MOL0     H25532   7.324   6.272   9.549 -1.0399 -0.9224  0.9229
  952MOL0     O25533   0.146   6.993   3.781  0.4905 -0.0954 -0.6395
  952MOL0     C25534   0.209   6.950   3.870  0.5080 -0.0946  0.4542
  952MOL0     O25535   0.151   6.904   3.986  0.2387 -0.3217  0.3202
  952MOL0     C25536   0.009   6.911   3.998  0.0940  0.1229 -1.1043
  952MOL0     C25537  -0.055   7.016   4.070  0.5655  0.5827  0.2653
  952MOL0     C25538  -0.195   7.009   4.096  0.6931  0.7125  0.1007
  952MOL0     C25539  -0.281   6.896   4.062 -0.0419 -0.0627 -0.6940
  952MOL0     O25540  -0.409   6.877   4.087  0.3077  0.1948 -1.3436
  952MOL0     C25541  -0.474   6.921   4.208 -0.0123  0.9710  0.1337
  952MOL0     C25542  -0.627   6.895   4.201  0.8512 -0.4554  0.4368
  952MOL0     C25543  -0.667   6.749   4.205 -0.1562 -0.5276 -0.3826
  952MOL0     C25544  -0.808   6.739   4.171 -0.2411 -0.0838  0.4988
  952MOL0     C25545  -0.875   6.598   4.204 -0.7567 -0.7094 -0.0384
  952MOL0     C25546  -0.856   6.504   4.087 -0.3785 -1.0534 -0.1658
  952MOL0     C25547  -0.915   6.369   4.126  0.2549  0.3021  0.2004
  952MOL0     C25548  -0.930   6.271   4.010 -1.0614  0.6371 -0.3533
  952MOL0     N25549  -0.948   6.132   4.058 -0.1472 -0.0336 -0.0849
  952MOL0     C25550  -1.072   6.075   4.072  0.0836  0.8643  0.1724
  952MOL0     C25551  -1.046   5.944   4.100  0.2726 -1.0379  0.1950
  952MOL0     C25552  -1.146   5.831   4.095 -0.6862 -0.2704  0.4621
  952MOL0     C25553  -1.201   5.826   3.956  0.6483  0.3822  0.2115
  952MOL0     C25554  -1.299   5.712   3.939  1.1136  0.8202  0.2160
  952MOL0     C25555  -1.424   5.720   4.024 -0.4432 -0.2120 -0.0819
  952MOL0     O25556  -1.501   5.836   3.977  0.0991 -0.0035 -0.2465
  952MOL0     C25557  -1.607   5.808   3.890  0.0924 -0.2311  0.6159
  952MOL0     C25558  -1.626   5.690   3.810  0.4671 -0.6359  0.0084
  952MOL0     C25559  -1.737   5.670   3.728 -0.0383  0.5231  0.6427
  952MOL0     C25560  -1.844   5.763   3.727 -0.5979 -0.5699 -0.1538
  952MOL0     C25561  -1.965   5.735   3.645 -0.1293  0.2853 -0.5173
  952MOL0     O25562  -2.069   5.814   3.658  0.5524 -0.0877  0.1477
  952MOL0     C25563  -2.180   5.782   3.585 -0.0354  0.0849  0.2317
  952MOL0     C25564  -2.192   5.786   3.446 -0.5646 -0.2930 -0.2161
  952MOL0     C25565  -2.317   5.771   3.390 -0.4211  0.9567  0.5309
  952MOL0     C25566  -2.436   5.764   3.469  0.0161 -1.2236 -0.1858
  952MOL0     O25567  -2.562   5.744   3.422 -0.2546  0.4733  0.0474
  952MOL0     C25568  -2.603   5.780   3.291  0.6374  0.1221 -0.0557
  952MOL0     C25569  -2.756   5.744   3.267 -0.3695 -0.4488 -0.5027
  952MOL0     C25570  -2.783   5.597   3.302 -0.0426 -0.0940  0.0294
  952MOL0     C25571  -2.929   5.570   3.279  0.4435  0.3129  0.5935
  952MOL0     C25572  -2.967   5.419   3.317 -0.5731 -0.3437  0.4833
  952MOL0     C25573  -3.094   5.367   3.254 -0.3806  0.0196 -0.3175
  952MOL0     C25574  -3.220   5.404   3.338 -0.0249 -0.7256 -0.4447
  952MOL0     C25575  -3.362   5.362   3.293  0.5192  0.8540 -0.9385
  952MOL0    Cl25576  -3.408   5.408   3.122 -0.3427 -0.4064 -0.2205
  952MOL0     C25577  -2.422   5.770   3.607  0.6024 -0.3988  0.4303
  952MOL0     C25578  -2.291   5.773   3.662 -0.0933  0.0957 -0.4958
  952MOL0     O25579  -1.958   5.638   3.564 -0.0610  0.1202  0.2320
  952MOL0     C25580  -1.827   5.877   3.806  0.2109  0.7927  0.5260
  952MOL0     C25581  -1.716   5.895   3.886  0.1760  0.8284  0.3954
  952MOL0     N25582  -0.906   5.931   4.101  0.2112 -0.4101 -0.2854
  952MOL0     N25583  -0.853   6.043   4.084 -0.4110  0.0099 -0.0603
  952MOL0     C25584  -0.211   6.798   3.991 -0.3523 -0.7770 -0.1049
  952MOL0     C25585  -0.077   6.804   3.961  0.3751 -0.6947  0.5463
  952MOL0     C25586   0.356   6.931   3.846  0.8734 -0.1268  0.6270
  952MOL0     C25587   0.434   6.877   3.950 -0.0688 -0.2659  0.4740
  952MOL0     C25588   0.569   6.846   3.928  0.3063  0.6024 -0.5153
  952MOL0     C25589   0.628   6.870   3.807 -0.2251 -0.0719 -0.3442
  952MOL0     O25590   0.758   6.846   3.796 -0.3479 -0.4467  0.1903
  952MOL0     C25591   0.801   6.713   3.817 -0.2879  0.2100 -0.1063
  952MOL0     C25592   0.936   6.684   3.742 -0.4215  0.2939  0.4959
  952MOL0     C25593   0.895   6.672   3.586  0.4883  0.3273  0.3960
  952MOL0     C25594   0.992   6.575   3.515  0.5189 -0.7624 -0.5778
  952MOL0     C25595   0.952   6.528   3.380 -0.4416  0.1225 -0.6969
  952MOL0     C25596   0.920   6.475   3.270 -0.2082 -0.0861  0.1211
  952MOL0     C25597   0.555   6.921   3.705  0.2926 -0.0669  0.1588
  952MOL0     C25598   0.418   6.946   3.719 -0.2893 -0.6018  0.5319
  952MOL0     H25599   0.001   7.100   4.110  0.2352  1.1552 -0.4404
  952MOL0     H25600  -0.245   7.094   4.142 -1.8643 -0.7739  0.2228
  952MOL0     H25601  -0.465   7.029   4.211  1.2169  0.8763  0.2132
  952MOL0     H25602  -0.427   6.878   4.297  2.2422  1.7876 -0.6110
  952MOL0     H25603  -0.663   6.956   4.117  1.1325  1.6704  1.7812
  952MOL0     H25604  -0.671   6.952   4.283  0.1582 -0.6442  0.2005
  952MOL0     H25605  -0.641   6.700   4.299  0.1396 -2.3591 -1.3474
  952MOL0     H25606  -0.602   6.690   4.139  0.9860 -2.2581  2.1206
  952MOL0     H25607  -0.855   6.819   4.231 -0.0667  1.5654 -1.4477
  952MOL0     H25608  -0.819   6.767   4.066  0.6406  0.4082  0.5281
  952MOL0     H25609  -0.983   6.609   4.210 -0.4406  2.8684  2.4995
  952MOL0     H25610  -0.836   6.559   4.299 -0.0234  1.2830  0.5381
  952MOL0     H25611  -0.749   6.498   4.065 -0.7622 -1.2074 -2.2235
  952MOL0     H25612  -0.895   6.546   3.994  0.4534  0.6174  0.2026
  952MOL0     H25613  -0.862   6.317   4.206  1.6665  1.2882 -0.0439
  952MOL0     H25614  -1.016   6.392   4.162 -1.5239 -1.7081 -3.0364
  952MOL0     H25615  -0.835   6.273   3.955 -0.5400  0.0047  0.4946
  952MOL0     H25616  -1.019   6.307   3.958 -0.7361  1.0041 -0.6670
  952MOL0     H25617  -1.168   6.126   4.073  0.9492  2.7059 -1.7293
  952MOL0     H25618  -1.215   5.832   4.180 -0.5632  0.1406  0.5565
  952MOL0     H25619  -1.078   5.746   4.104  0.8653  1.0762  2.2734
  952MOL0     H25620  -1.113   5.809   3.894 -0.3696  0.2544 -1.2528
  952MOL0     H25621  -1.249   5.914   3.913  0.5604 -0.9071 -2.5703
  952MOL0     H25622  -1.317   5.697   3.832 -0.0250 -2.6515  0.7405
  952MOL0     H25623  -1.265   5.612   3.969 -1.0420 -0.1410 -0.3186
  952MOL0     H25624  -1.399   5.740   4.129 -1.1529 -1.5918  0.3703
  952MOL0     H25625  -1.480   5.626   4.032 -1.3822  0.5107  2.9529
  952MOL0     H25626  -1.554   5.611   3.828  1.1952 -0.2662 -1.1506
  952MOL0     H25627  -1.749   5.578   3.672 -0.4145 -0.1783  1.8430
  952MOL0     H25628  -2.107   5.794   3.379 -0.1560 -2.3738 -0.0000
  952MOL0     H25629  -2.331   5.788   3.284 -0.0875  1.1242  0.5132
  952MOL0     H25630  -2.550   5.720   3.215  0.3447  0.8550 -0.8571
  952MOL0     H25631  -2.595   5.888   3.278 -2.2309  0.6211  1.5613
  952MOL0     H25632  -2.770   5.763   3.160  0.2523  1.1414 -0.3401
  952MOL0     H25633  -2.824   5.810   3.322  0.4285 -1.3872  1.7203
  952MOL0     H25634  -2.771   5.590   3.411  0.5694  0.6928  0.0219
  952MOL0     H25635  -2.716   5.527   3.251 -1.2689 -0.7597 -0.7068
  952MOL0     H25636  -2.998   5.642   3.324  0.2640  1.1194 -0.8881
  952MOL0     H25637  -2.959   5.590   3.175 -1.7512  2.1848  1.4887
  952MOL0     H25638  -2.965   5.425   3.426  0.8065  3.0710  0.3764
  952MOL0     H25639  -2.887   5.354   3.280  0.3891  1.1316 -0.0932
  952MOL0     H25640  -3.080   5.258   3.248  3.1222  0.4287 -2.4047
  952MOL0     H25641  -3.097   5.403   3.150 -0.9176 -1.1588 -0.7353
  952MOL0     H25642  -3.214   5.367   3.441 -1.5143 -0.6933 -0.3309
  952MOL0     H25643  -3.214   5.512   3.347  0.6722 -0.8609  1.0436
  952MOL0     H25644  -3.439   5.398   3.362 -0.1047 -0.3911 -0.9533
  952MOL0     H25645  -3.365   5.253   3.307  1.1493  0.7926 -1.2708
  952MOL0     H25646  -2.510   5.779   3.670 -0.8904  0.3428 -1.6199
  952MOL0     H25647  -2.292   5.786   3.770 -1.0132 -2.2045 -0.1786
  952MOL0     H25648  -1.902   5.956   3.800 -0.4619  0.0316 -2.3567
  952MOL0     H25649  -1.717   5.982   3.951 -1.3691  1.2466 -0.1424
  952MOL0     H25650  -0.271   6.710   3.971 -0.6413 -0.2880 -1.4397
  952MOL0     H25651  -0.037   6.720   3.906 -2.6852 -0.3578 -2.5612
  952MOL0     H25652   0.377   6.866   4.042 -0.1543 -4.1807  0.1213
  952MOL0     H25653   0.634   6.814   4.009  0.8482  0.4704 -0.9941
  952MOL0     H25654   0.725   6.643   3.783 -0.4459  1.8787 -3.7111
  952MOL0     H25655   0.820   6.700   3.924  1.6783 -0.0932 -0.4571
  952MOL0     H25656   1.005   6.767   3.759  0.3436 -0.1864 -0.1991
  952MOL0     H25657   0.971   6.584   3.771 -0.2142  0.1354 -0.2758
  952MOL0     H25658   0.887   6.766   3.532  1.1711 -0.5692 -1.3668
  952MOL0     H25659   0.801   6.621   3.564  1.1698  0.1593 -2.5820
  952MOL0     H25660   1.088   6.626   3.514  0.7293 -1.1189 -2.6059
  952MOL0     H25661   1.000   6.478   3.566 -0.1023 -1.5895 -1.9963
  952MOL0     H25662   0.894   6.431   3.176 -2.5265  1.3829 -0.0201
  952MOL0     H25663   0.598   6.954   3.611 -2.8388 -0.7970 -1.6898
  952MOL0     H25664   0.376   6.974   3.624 -1.8071 -2.4452  0.6013
  953MOL0     O25665   3.867   4.202   6.941  0.3356 -0.0471  0.4319
  953MOL0     C25666   3.930   4.269   6.857 -0.4865 -0.5544  0.1317
  953MOL0     O25667   3.881   4.304   6.732  0.0688 -0.1984  0.4811
  953MOL0     C25668   3.757   4.321   6.686 -0.2257 -0.7704  0.3354
  953MOL0     C25669   3.751   4.348   6.552  1.0226  0.7070 -0.1526
  953MOL0     C25670   3.625   4.383   6.492  0.1796 -0.0913 -0.2628
  953MOL0     C25671   3.507   4.394   6.568 -0.3166 -0.1147 -0.2581
  953MOL0     O25672   3.386   4.410   6.497  0.0561 -0.4536 -0.1098
  953MOL0     C25673   3.368   4.332   6.373  1.1406 -0.4941 -0.2674
  953MOL0     C25674   3.218   4.350   6.326 -0.6782  0.2799  0.1072
  953MOL0     C25675   3.108   4.300   6.420  0.6915  0.5143 -0.5119
  953MOL0     C25676   3.078   4.153   6.411 -0.1876  0.6928  0.6766
  953MOL0     C25677   2.950   4.115   6.492 -0.4324 -0.4404  0.2538
  953MOL0     C25678   2.962   4.128   6.646 -0.1175 -0.3551  1.0146
  953MOL0     C25679   2.901   4.001   6.695 -0.2601 -0.1201 -0.1048
  953MOL0     C25680   2.915   3.990   6.845 -0.6686  0.4406  0.7071
  953MOL0     N25681   2.844   3.876   6.902  0.2120  0.0010 -0.0605
  953MOL0     C25682   2.855   3.747   6.855 -0.4296  0.0273 -0.0190
  953MOL0     C25683   2.785   3.666   6.934  0.2670  0.0898  0.3649
  953MOL0     C25684   2.777   3.514   6.902  0.4057 -0.1038 -0.0144
  953MOL0     C25685   2.689   3.490   6.771  0.7453  0.6604  0.0476
  953MOL0     C25686   2.538   3.506   6.805 -0.2912 -0.7672 -0.4816
  953MOL0     C25687   2.454   3.489   6.685 -0.4886 -0.4041 -0.3733
  953MOL0     O25688   2.473   3.359   6.617  0.1222 -0.3607 -0.5396
  953MOL0     C25689   2.356   3.292   6.594 -0.6131  0.3349 -0.0881
  953MOL0     C25690   2.327   3.163   6.639 -0.1526 -0.4415 -1.0480
  953MOL0     C25691   2.212   3.099   6.616  0.1400  0.0892 -0.1241
  953MOL0     C25692   2.109   3.168   6.534 -0.5800  0.2238  0.4104
  953MOL0     C25693   1.981   3.104   6.503 -0.6972 -0.4861 -0.3844
  953MOL0     O25694   1.891   3.175   6.434 -0.6988 -0.3110 -0.8046
  953MOL0     C25695   1.773   3.115   6.419  0.4046 -0.0447  0.0941
  953MOL0     C25696   1.688   3.071   6.522 -0.4643  0.7974  0.1128
  953MOL0     C25697   1.555   3.020   6.487  0.3864 -0.5073 -0.0885
  953MOL0     C25698   1.516   3.002   6.347 -0.8827 -0.2058 -0.4835
  953MOL0     O25699   1.388   2.980   6.336 -0.3970 -0.6091  0.1174
  953MOL0     C25700   1.330   2.928   6.213 -0.3863 -0.9834  0.5959
  953MOL0     C25701   1.182   2.955   6.223 -1.2852 -0.1176  0.2860
  953MOL0     C25702   1.108   2.862   6.135  0.6915  0.5342  0.5003
  953MOL0     C25703   1.137   2.876   5.988  0.9637 -0.6558  0.2011
  953MOL0     C25704   1.048   2.778   5.913 -0.5160 -0.4995  0.9452
  953MOL0     C25705   1.042   2.797   5.768  0.4732 -0.4928  0.3163
  953MOL0     C25706   0.934   2.712   5.706  0.1345  0.4104  0.4007
  953MOL0     C25707   0.909   2.744   5.561 -0.6390  0.0571 -0.4607
  953MOL0    Cl25708   0.803   2.880   5.545 -0.0909 -0.1334  0.2177
  953MOL0     C25709   1.607   3.044   6.252  0.5315  0.6791 -0.7032
  953MOL0     C25710   1.723   3.108   6.287  1.0159 -0.2958 -0.3317
  953MOL0     O25711   1.964   2.982   6.531  0.2903  0.2507  0.0764
  953MOL0     C25712   2.140   3.300   6.477 -0.1023  1.5092  0.1423
  953MOL0     C25713   2.261   3.355   6.507  0.0431  0.9574 -0.3259
  953MOL0     N25714   2.728   3.748   7.029  0.8205  1.1912  0.2660
  953MOL0     N25715   2.762   3.873   7.010  0.1425  0.7642  0.3727
  953MOL0     C25716   3.517   4.380   6.701 -0.2068  0.0996 -0.9304
  953MOL0     C25717   3.641   4.337   6.758  0.7789  0.0058  0.3738
  953MOL0     C25718   4.079   4.281   6.872 -0.3717  0.0387  1.1343
  953MOL0     C25719   4.156   4.211   6.966  0.6287 -0.4755  0.1777
  953MOL0     C25720   4.298   4.224   6.962  0.3787  0.2056  0.5686
  953MOL0     C25721   4.363   4.298   6.866  0.2424  0.3636 -0.1086
  953MOL0     O25722   4.501   4.294   6.847  0.2478  0.1335 -0.3408
  953MOL0     C25723   4.577   4.201   6.930  0.1308 -0.2868  0.0842
  953MOL0     C25724   4.717   4.199   6.861 -0.7676 -0.1570 -0.2934
  953MOL0     C25725   4.802   4.100   6.948 -0.1707  0.2463  0.2879
  953MOL0     C25726   4.861   4.156   7.079 -0.0636 -0.2698  0.6898
  953MOL0     C25727   4.923   4.051   7.167 -0.1365  0.1191  0.5569
  953MOL0     C25728   4.968   3.953   7.219 -0.2816  0.6773  0.9113
  953MOL0     C25729   4.285   4.384   6.783 -1.1176 -0.3047  0.2813
  953MOL0     C25730   4.148   4.365   6.776  0.6935 -0.2644 -0.2836
  953MOL0     H25731   3.838   4.345   6.487  0.7156  1.2978 -0.5978
  953MOL0     H25732   3.632   4.400   6.385  0.9764  1.1496 -0.0271
  953MOL0     H25733   3.398   4.228   6.393  1.9049 -0.0628  0.9876
  953MOL0     H25734   3.422   4.366   6.284  1.5858 -0.7957 -0.1166
  953MOL0     H25735   3.202   4.290   6.236  0.5050  0.9277 -0.5661
  953MOL0     H25736   3.206   4.457   6.302  1.3464  0.4946 -0.0791
  953MOL0     H25737   3.017   4.353   6.389  1.4018  0.6247 -2.5584
  953MOL0     H25738   3.144   4.332   6.518 -1.8210  3.9386 -0.5168
  953MOL0     H25739   3.055   4.126   6.307  0.7631 -2.4168  1.1677
  953MOL0     H25740   3.161   4.089   6.442  0.7694  0.0287 -2.8111
  953MOL0     H25741   2.929   4.010   6.470  1.3629 -0.4408 -1.7093
  953MOL0     H25742   2.868   4.179   6.459 -2.1069 -2.9401 -0.6814
  953MOL0     H25743   2.897   4.206   6.686  0.6965 -0.1128  1.8890
  953MOL0     H25744   3.069   4.140   6.668 -0.1138 -1.9610  2.0493
  953MOL0     H25745   2.798   3.988   6.659 -0.1481 -1.5416  0.0228
  953MOL0     H25746   2.969   3.926   6.653  1.3540  1.2909 -0.1204
  953MOL0     H25747   2.880   4.077   6.903  0.7728  1.0801  0.6499
  953MOL0     H25748   3.022   3.981   6.865 -0.4248  3.4244  1.3370
  953MOL0     H25749   2.916   3.714   6.771  2.7251  1.8208  1.3680
  953MOL0     H25750   2.727   3.456   6.981 -6.6920 -0.4817 -3.8944
  953MOL0     H25751   2.871   3.460   6.890 -1.5483 -4.0000  0.2734
  953MOL0     H25752   2.699   3.387   6.738  0.0296  1.2369 -2.1180
  953MOL0     H25753   2.724   3.561   6.695  0.2470  1.6667  0.7319
  953MOL0     H25754   2.514   3.431   6.880  1.3300 -2.1529 -1.2760
  953MOL0     H25755   2.529   3.606   6.848  1.4877 -0.1839 -1.3634
  953MOL0     H25756   2.473   3.558   6.603  0.2640 -1.8259 -1.4300
  953MOL0     H25757   2.350   3.508   6.713 -1.3790 -3.7638 -0.9770
  953MOL0     H25758   2.398   3.127   6.713  2.6499  2.4254 -2.0952
  953MOL0     H25759   2.179   2.999   6.644  1.8305 -0.0414  1.6676
  953MOL0     H25760   1.728   3.076   6.622 -1.4322 -1.3919  0.6678
  953MOL0     H25761   1.480   2.991   6.560  3.1849 -1.1871  2.6987
  953MOL0     H25762   1.335   2.819   6.200 -0.0954 -1.0582  1.2857
  953MOL0     H25763   1.371   2.983   6.128  1.5014 -1.4183  1.1663
  953MOL0     H25764   1.161   3.058   6.191 -1.6849 -0.6565 -1.2764
  953MOL0     H25765   1.164   2.940   6.330  0.3035 -2.8520  0.2741
  953MOL0     H25766   1.002   2.890   6.144  0.4158 -0.3771  0.2479
  953MOL0     H25767   1.117   2.756   6.164  3.0068  0.9543  1.5071
  953MOL0     H25768   1.116   2.978   5.953 -1.0046 -1.5862 -1.5486
  953MOL0     H25769   1.241   2.844   5.973  1.2097 -1.8245  3.6094
  953MOL0     H25770   0.946   2.782   5.951 -0.4531  0.7017  1.0291
  953MOL0     H25771   1.090   2.680   5.940  2.4343 -0.0286 -1.4215
  953MOL0     H25772   1.135   2.764   5.720  0.5713  1.7860 -1.1761
  953MOL0     H25773   1.027   2.902   5.742  1.7406 -0.5643 -0.7778
  953MOL0     H25774   0.966   2.607   5.713  0.0881  0.3564 -0.1936
  953MOL0     H25775   0.839   2.727   5.757 -0.7139  2.6441 -1.6815
  953MOL0     H25776   0.852   2.664   5.513 -3.2734  1.2589  0.4907
  953MOL0     H25777   1.000   2.763   5.503 -0.8099 -0.4099 -0.8871
  953MOL0     H25778   1.582   3.030   6.148  1.6782  0.2100 -0.9376
  953MOL0     H25779   1.789   3.149   6.211 -0.1224  1.5413 -0.3761
  953MOL0     H25780   2.067   3.350   6.413 -0.7077  0.2919 -0.1484
  953MOL0     H25781   2.285   3.451   6.461 -0.2496  2.4316  2.4185
  953MOL0     H25782   3.423   4.373   6.755  1.4896  2.6834  2.6954
  953MOL0     H25783   3.631   4.290   6.856 -1.5595 -4.1474 -1.5739
  953MOL0     H25784   4.115   4.141   7.038 -1.5808  0.3940 -0.1502
  953MOL0     H25785   4.350   4.179   7.046 -0.1164  0.3735  0.9669
  953MOL0     H25786   4.535   4.100   6.929  3.9234 -2.0396  0.2306
  953MOL0     H25787   4.585   4.222   7.037 -1.8357 -1.3736  0.4925
  953MOL0     H25788   4.706   4.150   6.764  0.5099 -2.8767  0.8280
  953MOL0     H25789   4.776   4.291   6.860  2.0314 -1.7216  2.4383
  953MOL0     H25790   4.884   4.065   6.884 -0.4107  1.8545 -0.9577
  953MOL0     H25791   4.745   4.012   6.979 -0.4869 -0.3833 -1.9049
  953MOL0     H25792   4.938   4.230   7.057 -2.6903  2.0225 -1.7446
  953MOL0     H25793   4.790   4.215   7.138  2.0417  0.7374  2.3654
  953MOL0     H25794   5.021   3.873   7.265  1.6321  1.0366 -0.5817
  953MOL0     H25795   4.340   4.445   6.712 -1.9993 -0.4925 -0.5752
  953MOL0     H25796   4.100   4.419   6.695  3.5668  3.2626  0.1171
  954MOL0     O25797   6.758   3.627   8.022 -0.3429  0.1555  0.8424
  954MOL0     C25798   6.829   3.591   7.927 -0.2860  0.2930 -0.7567
  954MOL0     O25799   6.794   3.600   7.790 -0.2872  0.1214  0.4215
  954MOL0     C25800   6.680   3.668   7.765  0.0252 -0.1915 -0.8843
  954MOL0     C25801   6.586   3.607   7.680 -0.8422  0.6035 -0.4823
  954MOL0     C25802   6.473   3.673   7.638  0.7970  0.3064 -0.0484
  954MOL0     C25803   6.446   3.803   7.690  0.7175  0.9938 -0.4160
  954MOL0     O25804   6.332   3.867   7.666 -0.3571 -0.4387  0.2758
  954MOL0     C25805   6.271   3.848   7.537  0.1971 -0.3952  0.7133
  954MOL0     C25806   6.189   3.978   7.519  0.0866 -0.3492  0.6936
  954MOL0     C25807   6.094   3.965   7.404  0.3421 -0.9214 -0.2003
  954MOL0     C25808   5.994   4.081   7.409 -0.8208  0.5053  0.2319
  954MOL0     C25809   5.894   4.085   7.289  0.9530 -0.3719 -0.8527
  954MOL0     C25810   5.804   4.210   7.306 -0.3612 -0.5075 -0.4521
  954MOL0     C25811   5.712   4.203   7.183 -0.1570 -0.1366 -0.8131
  954MOL0     C25812   5.631   4.336   7.172 -0.6041  0.5173  0.2167
  954MOL0     N25813   5.553   4.328   7.046 -0.2863  0.4068  0.8380
  954MOL0     C25814   5.419   4.301   7.028 -0.6283  0.5739  0.1206
  954MOL0     C25815   5.394   4.331   6.891 -0.0523 -0.4854 -0.9238
  954MOL0     C25816   5.267   4.342   6.819 -0.2546  0.0110  0.5032
  954MOL0     C25817   5.134   4.379   6.888 -0.7556 -0.6108 -0.4225
  954MOL0     C25818   5.144   4.527   6.940  0.5555  0.4300 -0.8886
  954MOL0     C25819   5.005   4.608   6.916 -0.7219  0.3872 -0.2596
  954MOL0     O25820   4.890   4.531   6.953 -0.0607 -0.1179 -0.5872
  954MOL0     C25821   4.771   4.582   6.920  0.8807  0.1901  0.0470
  954MOL0     C25822   4.649   4.539   6.980  0.1534  0.3147 -0.3003
  954MOL0     C25823   4.522   4.592   6.942 -0.5318  0.0651  0.5259
  954MOL0     C25824   4.511   4.683   6.833  0.8662 -1.4506 -0.2765
  954MOL0     C25825   4.386   4.750   6.799  0.4536 -0.0646  0.5189
  954MOL0     O25826   4.390   4.830   6.689 -0.5328 -0.1980  0.4068
  954MOL0     C25827   4.287   4.918   6.660  0.3383  0.3379  1.0209
  954MOL0     C25828   4.309   5.056   6.696 -0.0226 -0.0438  0.0686
  954MOL0     C25829   4.220   5.156   6.656 -0.4579  0.1077  0.9009
  954MOL0     C25830   4.100   5.113   6.588  0.1460 -0.8184 -0.0613
  954MOL0     O25831   4.015   5.216   6.563 -0.0908  0.2393  0.4492
  954MOL0     C25832   3.900   5.190   6.484 -0.1602 -0.3721  0.8672
  954MOL0     C25833   3.817   5.311   6.481  0.7971  0.0606 -0.2307
  954MOL0     C25834   3.679   5.279   6.409 -0.0926 -0.5174  0.4317
  954MOL0     C25835   3.617   5.414   6.385 -0.1049 -0.1541 -0.8790
  954MOL0     C25836   3.472   5.405   6.328 -0.5441  0.5166  0.7821
  954MOL0     C25837   3.395   5.536   6.330 -0.0133  0.3828 -0.0292
  954MOL0     C25838   3.265   5.513   6.264  0.6588  0.1405  0.8398
  954MOL0     C25839   3.179   5.409   6.327  0.3366  1.4997  0.0519
  954MOL0    Cl25840   3.019   5.406   6.244  0.2474  0.7994 -0.1960
  954MOL0     C25841   4.091   4.978   6.559  0.6560 -0.1160 -0.5156
  954MOL0     C25842   4.172   4.871   6.596  0.3347 -0.3523  0.2782
  954MOL0     O25843   4.290   4.738   6.871  1.3743  0.1778  0.7438
  954MOL0     C25844   4.632   4.725   6.776  0.3973 -0.0393 -0.4128
  954MOL0     C25845   4.757   4.677   6.818 -0.5910 -0.5089 -0.4693
  954MOL0     N25846   5.511   4.388   6.841  0.1597 -0.2351 -0.4160
  954MOL0     N25847   5.601   4.380   6.933 -0.6028 -0.1163  0.4625
  954MOL0     C25848   6.548   3.869   7.763  0.0510  0.4692 -0.5028
  954MOL0     C25849   6.661   3.800   7.808 -0.1351 -0.6608  0.0679
  954MOL0     C25850   6.970   3.549   7.955  0.3021 -0.0756 -0.0237
  954MOL0     C25851   7.048   3.508   7.849  0.4110 -0.0855  0.1722
  954MOL0     C25852   7.184   3.471   7.869  0.2376  0.1224  0.8337
  954MOL0     C25853   7.231   3.468   8.001  0.0441 -0.7510 -0.4743
  954MOL0     O25854   7.352   3.416   8.030  0.2227  0.2595  0.0867
  954MOL0     C25855   7.372   3.271   7.992 -0.0635  0.3140  0.0490
  954MOL0     C25856   7.517   3.242   7.965  0.8948  0.4954 -0.2802
  954MOL0     C25857   7.541   3.092   7.928  0.6468  0.7753  1.0064
  954MOL0     C25858   7.688   3.094   7.900 -0.1722  1.0795  0.5434
  954MOL0     C25859   7.729   2.963   7.859  0.5849 -0.4024  0.1304
  954MOL0     C25860   7.777   2.849   7.841  0.2098 -0.2883 -0.7029
  954MOL0     C25861   7.163   3.526   8.108  0.0680 -0.0313 -0.1554
  954MOL0     C25862   7.030   3.570   8.081  0.6880 -0.4341  0.1922
  954MOL0     H25863   6.612   3.510   7.638 -1.6550  0.5492 -0.8677
  954MOL0     H25864   6.397   3.626   7.577 -0.0908  4.0924 -2.1141
  954MOL0     H25865   6.203   3.763   7.549  0.4594 -0.3439  3.1299
  954MOL0     H25866   6.342   3.828   7.456 -1.6626 -2.1478 -0.5859
  954MOL0     H25867   6.258   4.062   7.505  1.6017 -1.7162 -0.4015
  954MOL0     H25868   6.129   3.989   7.610  0.7574 -1.4929  1.3006
  954MOL0     H25869   6.027   3.878   7.403 -2.4080  1.0076  1.3516
  954MOL0     H25870   6.136   3.974   7.303 -0.3976  3.0393 -0.3102
  954MOL0     H25871   5.929   4.077   7.497  1.0044  0.3502  1.6373
  954MOL0     H25872   6.054   4.173   7.415  1.2833 -0.8130  0.3289
  954MOL0     H25873   5.833   3.995   7.280 -1.0745  0.8301 -0.0191
  954MOL0     H25874   5.952   4.093   7.197  2.9043  0.2573  0.3793
  954MOL0     H25875   5.851   4.309   7.315 -0.0639 -0.7969  1.6340
  954MOL0     H25876   5.751   4.196   7.400 -1.5429 -0.4955 -1.0940
  954MOL0     H25877   5.772   4.191   7.093 -0.0292  3.6263 -1.3874
  954MOL0     H25878   5.641   4.120   7.181 -1.8134  1.2174 -0.4978
  954MOL0     H25879   5.688   4.429   7.177  1.9246 -0.8578 -1.1358
  954MOL0     H25880   5.564   4.346   7.258 -1.6982  1.4494 -0.7095
  954MOL0     H25881   5.348   4.273   7.106  0.9474  0.3553  1.5222
  954MOL0     H25882   5.250   4.246   6.770  4.0400  0.8520 -3.3234
  954MOL0     H25883   5.287   4.416   6.741 -2.1108  1.3656  1.2485
  954MOL0     H25884   5.114   4.322   6.979  1.1025  1.5349  1.4958
  954MOL0     H25885   5.053   4.381   6.815  0.5375  5.7556 -2.2865
  954MOL0     H25886   5.173   4.530   7.046  1.4515  1.4847 -1.1423
  954MOL0     H25887   5.214   4.590   6.884  0.1366  1.5480 -0.2061
  954MOL0     H25888   5.006   4.638   6.811  2.8356  0.6004 -0.2872
  954MOL0     H25889   5.006   4.705   6.968 -0.5171  1.4598 -2.1777
  954MOL0     H25890   4.656   4.473   7.066 -0.0105  1.8669  0.9497
  954MOL0     H25891   4.429   4.568   6.991 -1.1870 -0.7649 -1.0534
  954MOL0     H25892   4.400   5.076   6.751 -1.0072  2.6570  0.8812
  954MOL0     H25893   4.244   5.261   6.671 -0.0573  0.0744  0.5091
  954MOL0     H25894   3.839   5.106   6.521  0.0574 -2.6608 -3.3025
  954MOL0     H25895   3.932   5.176   6.380 -0.3775  0.7927  0.6288
  954MOL0     H25896   3.875   5.388   6.429 -0.9815  0.8848 -1.0441
  954MOL0     H25897   3.807   5.343   6.585  3.0842  1.4304 -0.3642
  954MOL0     H25898   3.615   5.214   6.470  0.8485 -3.2391 -1.2990
  954MOL0     H25899   3.696   5.219   6.319  4.2665 -4.1154  3.1795
  954MOL0     H25900   3.602   5.458   6.484  3.0866 -1.9545  0.5764
  954MOL0     H25901   3.683   5.468   6.316 -0.5001  2.2883  0.5594
  954MOL0     H25902   3.420   5.328   6.384 -1.7796  1.3864  0.8731
  954MOL0     H25903   3.476   5.368   6.225 -3.6090  1.8180  0.0599
  954MOL0     H25904   3.456   5.603   6.269 -0.6804  0.1830 -0.9287
  954MOL0     H25905   3.392   5.572   6.433  0.4884 -0.3139  0.2399
  954MOL0     H25906   3.214   5.609   6.272  0.1570  0.0649 -0.9199
  954MOL0     H25907   3.286   5.510   6.157  0.9371 -0.2314  0.9009
  954MOL0     H25908   3.161   5.439   6.431 -2.0026  3.3231 -0.7863
  954MOL0     H25909   3.232   5.314   6.325  2.5920  2.6847  0.2744
  954MOL0     H25910   3.995   4.942   6.524  0.6366 -0.1338 -0.4442
  954MOL0     H25911   4.152   4.766   6.575 -0.3226 -0.0617 -0.6108
  954MOL0     H25912   4.632   4.797   6.694  3.6642 -1.0892 -1.4879
  954MOL0     H25913   4.843   4.716   6.763  0.1296 -1.0190  0.2687
  954MOL0     H25914   6.542   3.969   7.806 -0.5397 -0.1516  0.9064
  954MOL0     H25915   6.735   3.850   7.869 -0.6001  1.4750 -1.0230
  954MOL0     H25916   7.002   3.499   7.751 -0.0225  2.8886 -0.0076
  954MOL0     H25917   7.253   3.436   7.793 -0.9226  1.2933 -0.8338
  954MOL0     H25918   7.322   3.230   7.904  3.5135  0.3235 -2.1725
  954MOL0     H25919   7.333   3.211   8.075 -0.2476 -3.1221 -2.3081
  954MOL0     H25920   7.545   3.305   7.880 -0.6344 -0.5044 -1.5901
  954MOL0     H25921   7.571   3.269   8.056  0.0917 -0.7251  0.5857
  954MOL0     H25922   7.470   3.060   7.851 -0.4445 -2.4214  3.1383
  954MOL0     H25923   7.522   3.016   8.005  2.1300 -2.0398 -1.2062
  954MOL0     H25924   7.700   3.168   7.821 -3.2366 -0.4874 -1.5912
  954MOL0     H25925   7.736   3.135   7.990 -0.5014  1.1579  0.6841
  954MOL0     H25926   7.829   2.761   7.810 -0.9725 -1.5989  0.8844
  954MOL0     H25927   7.208   3.551   8.204 -0.3910 -1.4213  0.4476
  954MOL0     H25928   6.964   3.632   8.142  0.0685 -0.6249 -0.2675
  955MOL0     O25929   0.887   3.462  10.128  0.4720 -0.0978  0.4057
  955MOL0     C25930   0.879   3.547  10.039 -0.1446  1.2381  0.0178
  955MOL0     O25931   0.977   3.596   9.961  0.1694  0.1143  0.1877
  955MOL0     C25932   1.107   3.559   9.976  0.2966  1.0415 -0.5241
  955MOL0     C25933   1.171   3.547  10.099  0.0086 -1.2407 -0.1654
  955MOL0     C25934   1.304   3.506  10.106 -0.3187 -0.0420 -0.5460
  955MOL0     C25935   1.385   3.489   9.991  0.5295 -0.6735 -0.5851
  955MOL0     O25936   1.520   3.440  10.005 -0.0808 -0.6092 -0.6618
  955MOL0     C25937   1.608   3.438   9.887  0.0934  0.4684  0.4220
  955MOL0     C25938   1.723   3.372   9.940  0.9867  0.1095  0.6785
  955MOL0     C25939   1.845   3.372   9.847  0.3091  0.4365  0.0627
  955MOL0     C25940   1.948   3.277   9.908 -0.7959 -0.0525  1.4798
  955MOL0     C25941   2.064   3.233   9.820 -0.5589 -0.4722  0.6832
  955MOL0     C25942   2.155   3.350   9.799  0.2024  0.2248  0.2709
  955MOL0     C25943   2.265   3.301   9.689 -0.5089  0.5016  0.5104
  955MOL0     C25944   2.379   3.395   9.666  0.0492 -0.0138 -0.0121
  955MOL0     N25945   2.345   3.502   9.570  0.4980  0.4467 -0.1019
  955MOL0     C25946   2.265   3.488   9.453 -0.1031  0.0298 -0.2593
  955MOL0     C25947   2.264   3.615   9.400  0.2075  0.4783  0.3769
  955MOL0     C25948   2.197   3.647   9.271 -0.5218 -0.0360  0.0209
  955MOL0     C25949   2.046   3.665   9.302  0.1416  0.0687  0.1506
  955MOL0     C25950   1.980   3.542   9.356  0.7756 -0.4495 -0.2601
  955MOL0     C25951   1.825   3.550   9.332 -0.3727  0.2542 -0.0559
  955MOL0     O25952   1.751   3.443   9.401 -0.1386  1.4770 -0.6698
  955MOL0     C25953   1.622   3.461   9.426 -0.1178  0.4090 -1.4389
  955MOL0     C25954   1.550   3.350   9.482 -0.3990 -0.1243  0.2793
  955MOL0     C25955   1.415   3.349   9.500  0.2947  0.2594 -0.2413
  955MOL0     C25956   1.335   3.458   9.475 -0.2452 -0.2781  0.1479
  955MOL0     C25957   1.184   3.469   9.497 -0.7314  0.2385 -0.5442
  955MOL0     O25958   1.125   3.354   9.550  0.2184  0.1258 -0.0899
  955MOL0     C25959   0.988   3.354   9.563  0.3132 -0.1293 -0.3183
  955MOL0     C25960   0.940   3.308   9.686 -0.1465  0.5524 -0.1659
  955MOL0     C25961   0.806   3.315   9.718 -0.7187  0.4135 -0.2943
  955MOL0     C25962   0.717   3.362   9.619  0.3413  1.1144 -0.4258
  955MOL0     O25963   0.579   3.377   9.630  0.3034 -0.5959  0.0204
  955MOL0     C25964   0.537   3.359   9.768 -0.6154  1.1846  0.2655
  955MOL0     C25965   0.394   3.423   9.768 -0.4269 -0.6746  1.1303
  955MOL0     C25966   0.294   3.362   9.667 -0.1384  0.0770  0.5152
  955MOL0     C25967   0.175   3.450   9.673 -0.3371 -0.4694  0.0653
  955MOL0     C25968   0.054   3.403   9.602  0.7970  0.5120 -0.7175
  955MOL0     C25969  -0.073   3.490   9.638  0.4529 -0.0075 -0.6032
  955MOL0     C25970  -0.198   3.460   9.550 -0.9418  0.9115  0.5761
  955MOL0     C25971  -0.307   3.560   9.593 -0.5043 -0.3334  0.2462
  955MOL0    Cl25972  -0.255   3.727   9.571 -0.7651  0.4269 -0.0051
  955MOL0     C25973   0.759   3.395   9.492 -0.2237 -0.6540  0.4046
  955MOL0     C25974   0.894   3.395   9.466 -0.3629  0.2063  0.1323
  955MOL0     O25975   1.128   3.580   9.483  0.2214 -0.0467  0.1368
  955MOL0     C25976   1.395   3.573   9.419  0.4587  0.0102 -0.0400
  955MOL0     C25977   1.538   3.567   9.398 -0.3405 -0.6021  0.3950
  955MOL0     N25978   2.327   3.707   9.482  0.0009  0.2870  1.0841
  955MOL0     N25979   2.378   3.636   9.580  0.0101 -0.5605  0.2906
  955MOL0     C25980   1.327   3.525   9.867  0.1705 -0.7796  0.2340
  955MOL0     C25981   1.185   3.548   9.862 -0.6868  0.0421  1.1558
  955MOL0     C25982   0.743   3.600  10.010 -0.7857  0.4294  0.0511
  955MOL0     C25983   0.721   3.686   9.896 -0.1576  0.6798 -0.6000
  955MOL0     C25984   0.594   3.730   9.866  0.2925  0.0987 -0.4646
  955MOL0     C25985   0.492   3.693   9.950 -0.1779 -0.1172  0.2849
  955MOL0     O25986   0.361   3.734   9.940  0.3680 -0.3626  0.1926
  955MOL0     C25987   0.311   3.821   9.843 -1.5014  0.1852 -0.1303
  955MOL0     C25988   0.156   3.793   9.826 -0.0733 -0.3942  0.7371
  955MOL0     C25989   0.078   3.859   9.950 -0.4030  0.2759 -0.8646
  955MOL0     C25990  -0.073   3.855   9.935  0.3368 -0.1552  0.0138
  955MOL0     C25991  -0.124   3.718   9.944 -0.0596  0.7742 -0.2625
  955MOL0     C25992  -0.171   3.605   9.968  0.3005 -0.5058  0.4759
  955MOL0     C25993   0.515   3.613  10.061 -0.4266 -0.0538  0.7149
  955MOL0     C25994   0.640   3.563  10.091  0.1508  0.2166  0.4589
  955MOL0     H25995   1.114   3.548  10.191  3.1479 -1.4845  1.9510
  955MOL0     H25996   1.347   3.480  10.202 -2.3258  0.8734  0.6602
  955MOL0     H25997   1.642   3.536   9.853  2.1965 -0.0304  0.9292
  955MOL0     H25998   1.561   3.377   9.811  1.6185  0.8851 -0.9190
  955MOL0     H25999   1.692   3.270   9.965 -1.3825  0.4545 -0.5788
  955MOL0     H26000   1.760   3.425  10.028  2.2027  2.8271 -1.3269
  955MOL0     H26001   1.899   3.468   9.851  3.5293 -1.2971  1.9599
  955MOL0     H26002   1.810   3.350   9.746  0.3285  0.0999  0.1300
  955MOL0     H26003   1.987   3.320  10.001 -0.3808 -1.8145  2.1487
  955MOL0     H26004   1.902   3.182   9.934  0.4086 -0.8365  0.8286
  955MOL0     H26005   2.021   3.186   9.731 -2.3773  0.4221  1.0422
  955MOL0     H26006   2.122   3.160   9.877 -0.2638 -0.3565  0.5337
  955MOL0     H26007   2.211   3.363   9.892  1.9680 -1.1928 -0.5334
  955MOL0     H26008   2.097   3.435   9.762 -2.3420 -0.7554  1.7397
  955MOL0     H26009   2.311   3.208   9.722  0.5466 -0.5037 -3.2984
  955MOL0     H26010   2.208   3.273   9.599 -0.7629  5.6223 -1.2634
  955MOL0     H26011   2.465   3.335   9.634 -1.8873 -3.6326  0.9796
  955MOL0     H26012   2.403   3.453   9.755 -0.8344  0.3286  0.0094
  955MOL0     H26013   2.240   3.389   9.415  1.0704 -0.2799 -0.2892
  955MOL0     H26014   2.211   3.565   9.201  0.4004  1.2817 -1.4170
  955MOL0     H26015   2.243   3.739   9.232  1.0511  0.5842  3.0077
  955MOL0     H26016   1.989   3.703   9.217  0.2575  1.2941  0.5982
  955MOL0     H26017   2.031   3.748   9.371  0.3478  2.5373 -2.5779
  955MOL0     H26018   2.023   3.456   9.305 -0.0227 -1.0453  0.0543
  955MOL0     H26019   2.006   3.534   9.462  3.0594  1.4453 -0.5950
  955MOL0     H26020   1.816   3.555   9.223  0.2903  1.5724 -0.0664
  955MOL0     H26021   1.788   3.643   9.376  1.5190  0.5986  0.8987
  955MOL0     H26022   1.605   3.261   9.511 -2.5655 -1.1055  1.5665
  955MOL0     H26023   1.366   3.270   9.557  2.5951 -0.9491  0.1586
  955MOL0     H26024   1.012   3.278   9.761  0.0459  2.0575  0.2854
  955MOL0     H26025   0.766   3.291   9.816 -1.2780  3.2456  0.2707
  955MOL0     H26026   0.593   3.428   9.830 -1.3484  0.7695  1.4237
  955MOL0     H26027   0.537   3.252   9.794 -1.3555  1.1099 -0.0091
  955MOL0     H26028   0.415   3.524   9.731 -0.0814 -1.2341 -0.2570
  955MOL0     H26029   0.349   3.428   9.868  0.5433  1.4025  1.5121
  955MOL0     H26030   0.277   3.265   9.716 -3.4764  1.0342  1.4849
  955MOL0     H26031   0.324   3.350   9.562 -0.1917  0.1365  0.4934
  955MOL0     H26032   0.144   3.443   9.778 -1.0173 -4.9893 -0.2434
  955MOL0     H26033   0.196   3.553   9.640 -1.5447  0.3704  1.7470
  955MOL0     H26034   0.047   3.296   9.625  2.1346  0.0033 -2.4692
  955MOL0     H26035   0.057   3.411   9.493 -0.4524  0.6153 -0.7565
  955MOL0     H26036  -0.053   3.597   9.638 -1.6617  0.4304 -0.8738
  955MOL0     H26037  -0.104   3.475   9.741 -0.1612  0.2286 -0.7495
  955MOL0     H26038  -0.178   3.476   9.443 -2.7631 -1.8080 -0.2792
  955MOL0     H26039  -0.228   3.355   9.557 -0.1239  0.7282  1.4121
  955MOL0     H26040  -0.343   3.542   9.695 -0.6363  2.7141  0.8460
  955MOL0     H26041  -0.399   3.536   9.540  0.1524 -1.1370 -0.5768
  955MOL0     H26042   0.689   3.431   9.417  1.9582  1.3926 -0.7918
  955MOL0     H26043   0.931   3.438   9.373 -1.2155 -4.0913 -2.4743
  955MOL0     H26044   1.337   3.658   9.385 -0.3763 -0.7873 -0.6517
  955MOL0     H26045   1.581   3.660   9.359  0.9459 -1.8711 -1.4139
  955MOL0     H26046   1.371   3.493   9.773 -1.0877  3.4963 -2.0503
  955MOL0     H26047   1.117   3.552   9.778 -2.4791  1.0152  2.5832
  955MOL0     H26048   0.800   3.724   9.832  1.5492  1.1485  1.6597
  955MOL0     H26049   0.588   3.793   9.778  0.7807  0.6400 -0.1169
  955MOL0     H26050   0.359   3.804   9.746  1.0199  1.1669  0.8628
  955MOL0     H26051   0.329   3.926   9.869 -0.4108 -0.4491  1.9034
  955MOL0     H26052   0.124   3.837   9.731  0.7329  0.4041  0.8145
  955MOL0     H26053   0.142   3.685   9.831  4.3315 -1.2147 -0.3103
  955MOL0     H26054   0.110   3.963   9.958 -0.7477  0.6352 -3.4803
  955MOL0     H26055   0.110   3.808  10.042 -2.9091  1.5466  0.8208
  955MOL0     H26056  -0.111   3.909  10.022 -0.0518 -2.6555  1.5185
  955MOL0     H26057  -0.096   3.904   9.841 -1.6780 -0.7374  0.1639
  955MOL0     H26058  -0.215   3.510   9.989 -1.1480 -0.3909 -1.7558
  955MOL0     H26059   0.422   3.596  10.114 -0.7015  1.6959  0.8271
  955MOL0     H26060   0.650   3.505  10.183  0.2540  2.4161  1.9056
  956MOL0     O26061   6.645   7.262   7.293  0.3232 -0.0255  0.0660
  956MOL0     C26062   6.633   7.140   7.312 -0.0139 -0.8636  1.0109
  956MOL0     O26063   6.535   7.076   7.380  0.4979 -0.1733  0.1612
  956MOL0     C26064   6.412   7.133   7.407 -0.3469  0.1455 -0.3235
  956MOL0     C26065   6.339   7.065   7.508 -0.6197  0.1155  0.0767
  956MOL0     C26066   6.206   7.093   7.529 -0.0457  0.1136  0.6160
  956MOL0     C26067   6.146   7.194   7.458 -0.3362  0.2113 -1.1994
  956MOL0     O26068   6.014   7.227   7.481  0.2309 -0.2036 -0.8295
  956MOL0     C26069   5.944   7.200   7.602 -0.0341  0.2032  1.4219
  956MOL0     C26070   5.802   7.206   7.554  0.6555 -0.3684 -0.4505
  956MOL0     C26071   5.744   7.353   7.539  0.3753  0.3655 -0.3141
  956MOL0     C26072   5.595   7.341   7.495  0.8925 -0.2115  0.0172
  956MOL0     C26073   5.552   7.480   7.463  0.7066 -0.8306 -0.8260
  956MOL0     C26074   5.575   7.521   7.317  0.3812 -1.3954  0.7425
  956MOL0     C26075   5.512   7.666   7.295 -0.6768  0.1267 -0.0350
  956MOL0     C26076   5.528   7.721   7.158 -0.1715  0.2828  0.1621
  956MOL0     N26077   5.663   7.783   7.148  0.9376 -0.2864  0.4787
  956MOL0     C26078   5.777   7.721   7.108 -0.2166  0.8758 -0.9825
  956MOL0     C26079   5.878   7.811   7.110 -0.0284  0.1548 -0.4426
  956MOL0     C26080   6.012   7.798   7.053 -0.3668 -0.2586  0.4444
  956MOL0     C26081   6.075   7.669   7.112  1.2470  0.3987  0.6297
  956MOL0     C26082   6.101   7.555   7.000  0.2220 -0.0747  0.2478
  956MOL0     C26083   6.240   7.559   6.930 -0.5741 -0.8572  0.8530
  956MOL0     O26084   6.287   7.695   6.907 -0.7702 -0.2523 -0.5999
  956MOL0     C26085   6.418   7.704   6.869  0.0917  0.0373  0.4522
  956MOL0     C26086   6.510   7.779   6.936 -0.6341 -0.0277  0.1344
  956MOL0     C26087   6.648   7.776   6.900  0.2040  0.3594  0.8167
  956MOL0     C26088   6.687   7.689   6.797 -0.9801  0.1485  0.0217
  956MOL0     C26089   6.830   7.666   6.775 -0.4580  0.5540 -0.5271
  956MOL0     O26090   6.868   7.560   6.699 -0.1435 -0.1094  0.0143
  956MOL0     C26091   6.998   7.563   6.641  0.2975  0.3326  0.0825
  956MOL0     C26092   7.073   7.443   6.647 -0.8921 -0.1395 -1.1276
  956MOL0     C26093   7.208   7.449   6.599 -0.1412 -0.5209  0.1812
  956MOL0     C26094   7.256   7.563   6.540  0.2372 -0.3491  0.2635
  956MOL0     O26095   7.395   7.571   6.525  0.2806  0.0153  0.1780
  956MOL0     C26096   7.447   7.496   6.414  0.1671 -0.1878 -0.3341
  956MOL0     C26097   7.602   7.481   6.419  0.1422  0.6413  0.4457
  956MOL0     C26098   7.676   7.619   6.436  0.3941 -0.3789  0.3297
  956MOL0     C26099   7.827   7.602   6.397  0.3262 -0.6099 -0.9375
  956MOL0     C26100   7.895   7.721   6.484  0.0700  0.0758 -0.1535
  956MOL0     C26101   8.040   7.689   6.494 -0.7385 -0.0935 -0.0868
  956MOL0     C26102   8.124   7.771   6.593 -0.2701 -0.5910 -0.4112
  956MOL0     C26103   8.277   7.769   6.569  0.1082  0.1646  0.6429
  956MOL0    Cl26104   8.371   7.816   6.719  0.4166  0.6965 -0.1391
  956MOL0     C26105   7.174   7.677   6.531 -0.0071 -0.7133 -0.2213
  956MOL0     C26106   7.046   7.677   6.580 -0.1020  0.1104 -0.0551
  956MOL0     O26107   6.903   7.751   6.822  0.0974  0.0691  0.2558
  956MOL0     C26108   6.594   7.614   6.724  0.4999 -0.3866  0.5357
  956MOL0     C26109   6.453   7.629   6.756 -0.6647  0.6374 -0.1786
  956MOL0     N26110   5.816   7.928   7.138  0.8820 -0.1070  0.2205
  956MOL0     N26111   5.688   7.914   7.165  0.1719  0.8567 -0.4903
  956MOL0     C26112   6.208   7.265   7.355  0.1560  0.3587  0.6642
  956MOL0     C26113   6.343   7.232   7.332 -0.0877  0.1413  0.1545
  956MOL0     C26114   6.739   7.061   7.256  0.0741  0.8262  0.3426
  956MOL0     C26115   6.854   7.122   7.201 -0.2085 -0.4926  0.2368
  956MOL0     C26116   6.960   7.047   7.157 -0.5697 -0.3905  0.1930
  956MOL0     C26117   6.950   6.902   7.168  0.1043 -0.4135  1.1618
  956MOL0     O26118   7.045   6.809   7.124  0.1989 -0.7663 -0.1556
  956MOL0     C26119   7.173   6.865   7.077  0.5723  0.2514  0.0445
  956MOL0     C26120   7.254   6.744   7.043 -0.4303 -1.2140  0.9743
  956MOL0     C26121   7.288   6.628   7.145 -0.7443 -0.0875 -0.8386
  956MOL0     C26122   7.392   6.536   7.082  0.5620  0.1307  0.1237
  956MOL0     C26123   7.529   6.582   7.107 -0.2026 -0.8933 -0.9983
  956MOL0     C26124   7.649   6.619   7.130  0.8358 -0.4640 -0.3657
  956MOL0     C26125   6.840   6.842   7.221  0.1239 -0.1366  0.1450
  956MOL0     C26126   6.734   6.916   7.265  0.9471 -0.0141  0.1329
  956MOL0     H26127   6.389   6.990   7.569  1.2370  1.8442  0.8184
  956MOL0     H26128   6.153   7.056   7.615 -1.1827 -0.3026 -0.2308
  956MOL0     H26129   5.967   7.276   7.678 -2.3894  3.6624 -1.0340
  956MOL0     H26130   5.949   7.094   7.630 -1.8988  0.2648  2.1121
  956MOL0     H26131   5.735   7.145   7.616  0.7075 -1.2872 -1.2808
  956MOL0     H26132   5.800   7.155   7.458  1.3875  3.0677 -2.4768
  956MOL0     H26133   5.804   7.415   7.472  0.8085 -0.1296 -0.3928
  956MOL0     H26134   5.747   7.382   7.645  2.0066 -1.8555  0.3367
  956MOL0     H26135   5.590   7.271   7.411  0.5192 -0.7923  0.5136
  956MOL0     H26136   5.541   7.292   7.576  1.4477 -0.7349  0.0744
  956MOL0     H26137   5.580   7.555   7.538 -0.3698  0.6763 -1.8882
  956MOL0     H26138   5.444   7.487   7.455  0.6319 -1.5362 -0.5149
  956MOL0     H26139   5.538   7.450   7.242  0.0979 -0.7330  0.2510
  956MOL0     H26140   5.684   7.519   7.313  0.4230 -1.3827  1.5898
  956MOL0     H26141   5.405   7.665   7.320 -0.1277 -0.2064  2.6260
  956MOL0     H26142   5.554   7.741   7.364 -2.1434  0.0705  0.9731
  956MOL0     H26143   5.453   7.799   7.143 -1.0714  0.4922  4.5246
  956MOL0     H26144   5.519   7.646   7.079  0.2683  0.0343  0.3431
  956MOL0     H26145   5.787   7.613   7.096  3.1836  0.2831  4.0359
  956MOL0     H26146   6.066   7.892   7.072 -2.6891  0.9002  1.8428
  956MOL0     H26147   6.006   7.791   6.944 -0.1737 -0.7572  0.4655
  956MOL0     H26148   6.011   7.623   7.188  0.1364  0.3405 -0.3135
  956MOL0     H26149   6.171   7.685   7.162  1.1621 -2.3712  1.8857
  956MOL0     H26150   6.098   7.455   7.045 -1.5775 -0.4665 -0.6478
  956MOL0     H26151   6.020   7.547   6.927  1.7972  0.4385 -1.6701
  956MOL0     H26152   6.231   7.505   6.835 -2.5321 -0.7807  0.9628
  956MOL0     H26153   6.308   7.501   6.994  0.4642 -1.2861 -0.5887
  956MOL0     H26154   6.484   7.829   7.029 -1.5806  0.4565 -0.3748
  956MOL0     H26155   6.712   7.840   6.959 -1.6623  0.8230  2.4524
  956MOL0     H26156   7.042   7.346   6.685  0.2117  0.5122  1.6547
  956MOL0     H26157   7.266   7.357   6.605  0.3991 -0.1152  1.6477
  956MOL0     H26158   7.423   7.559   6.327  1.1271 -0.0945 -0.5463
  956MOL0     H26159   7.398   7.398   6.404  0.0751 -0.2026  0.2351
  956MOL0     H26160   7.640   7.434   6.329 -0.6653  2.1258 -0.7190
  956MOL0     H26161   7.632   7.405   6.492 -1.7334 -1.7848 -1.1646
  956MOL0     H26162   7.658   7.647   6.540 -0.0575 -0.7840  0.3652
  956MOL0     H26163   7.632   7.686   6.361  3.7321  1.9389  0.2278
  956MOL0     H26164   7.861   7.504   6.430  2.7294  0.5097  0.1664
  956MOL0     H26165   7.859   7.611   6.292  2.4748  1.7033 -0.1873
  956MOL0     H26166   7.858   7.725   6.587  1.4317  2.0563  0.2969
  956MOL0     H26167   7.893   7.822   6.444  1.2151 -0.4440 -1.5889
  956MOL0     H26168   8.090   7.707   6.398  1.0535  2.0847  1.1570
  956MOL0     H26169   8.046   7.584   6.524  0.3143  0.4968  1.9335
  956MOL0     H26170   8.099   7.877   6.579  1.7774 -0.0818 -0.6484
  956MOL0     H26171   8.099   7.746   6.696  3.2145  0.0268  0.7335
  956MOL0     H26172   8.297   7.832   6.482  0.2437 -0.7801 -0.0209
  956MOL0     H26173   8.299   7.667   6.537 -1.5512  0.5039 -1.7899
  956MOL0     H26174   7.218   7.767   6.490  0.1945  0.3196  2.1147
  956MOL0     H26175   6.992   7.771   6.578  0.1048  0.2501 -2.5573
  956MOL0     H26176   6.628   7.545   6.647 -0.7318 -1.2458  0.7245
  956MOL0     H26177   6.387   7.562   6.703 -2.2393  0.5448  1.7974
  956MOL0     H26178   6.155   7.335   7.292 -0.3613 -0.9576 -0.4099
  956MOL0     H26179   6.388   7.267   7.239 -0.8950  0.4619 -0.1269
  956MOL0     H26180   6.864   7.230   7.200  0.7083 -0.5560  0.9373
  956MOL0     H26181   7.053   7.091   7.124 -0.4238 -2.0862 -1.9050
  956MOL0     H26182   7.210   6.934   7.153  0.5749 -0.2682  0.5266
  956MOL0     H26183   7.137   6.921   6.991 -1.2809  1.4424  1.4960
  956MOL0     H26184   7.205   6.702   6.955  1.8190  0.1338 -1.0226
  956MOL0     H26185   7.346   6.795   7.014 -1.3693  3.4510  4.8118
  956MOL0     H26186   7.198   6.569   7.167  0.2713 -1.2815  0.3036
  956MOL0     H26187   7.318   6.668   7.242 -5.0173 -0.8093  1.0142
  956MOL0     H26188   7.394   6.437   7.127 -1.5041  1.3947  3.3332
  956MOL0     H26189   7.373   6.529   6.974 -2.4887 -1.6409  0.6707
  956MOL0     H26190   7.747   6.659   7.142 -0.0113  2.5610 -2.4811
  956MOL0     H26191   6.841   6.736   7.201  1.1493 -0.1760  0.3091
  956MOL0     H26192   6.651   6.856   7.301  0.6060  1.7628  2.6094
  957MOL0     O26193   6.123   2.118   7.263 -0.2986  0.4798  0.3951
  957MOL0     C26194   6.176   2.121   7.157  0.2772 -0.0844 -0.4243
  957MOL0     O26195   6.141   2.200   7.061 -0.3777 -0.6006 -0.3600
  957MOL0     C26196   6.033   2.292   7.064 -0.7542 -0.0032 -0.2871
  957MOL0     C26197   5.924   2.293   7.162 -0.7160 -0.2173 -0.1324
  957MOL0     C26198   5.820   2.383   7.144  0.0703  0.0692 -0.8351
  957MOL0     C26199   5.831   2.487   7.050  0.1121 -0.3179 -0.3270
  957MOL0     O26200   5.723   2.570   7.039 -0.0108  1.0220 -0.8872
  957MOL0     C26201   5.750   2.703   6.997 -1.1639  1.1401 -0.3487
  957MOL0     C26202   5.646   2.794   7.060 -0.1440  0.6785  0.5570
  957MOL0     C26203   5.678   2.938   7.019  0.6867  0.1146  0.1394
  957MOL0     C26204   5.630   2.947   6.871 -0.6159  0.3995  0.4738
  957MOL0     C26205   5.662   3.082   6.797  0.6290  0.7085  0.1149
  957MOL0     C26206   5.801   3.092   6.737 -0.5625  0.0470 -0.2327
  957MOL0     C26207   5.814   3.230   6.670  0.7999  0.7744  0.0933
  957MOL0     C26208   5.932   3.236   6.567  0.5797  0.6904  0.2932
  957MOL0     N26209   6.055   3.234   6.640  0.2916 -0.2728  0.3297
  957MOL0     C26210   6.114   3.117   6.689  0.0831  0.7212 -0.0023
  957MOL0     C26211   6.210   3.164   6.773 -0.7129  0.3321 -0.5718
  957MOL0     C26212   6.313   3.093   6.851 -0.1526  1.1508  0.1629
  957MOL0     C26213   6.270   3.067   6.991 -0.7629 -0.2334 -0.0495
  957MOL0     C26214   6.150   2.972   7.002  0.7578  0.1834  0.7917
  957MOL0     C26215   6.101   2.929   7.148 -1.2589  0.6162 -0.4109
  957MOL0     O26216   6.211   2.899   7.249  0.3326  0.2467  0.5126
  957MOL0     C26217   6.285   2.792   7.229  0.2003  0.1298  0.6822
  957MOL0     C26218   6.420   2.801   7.253 -0.3238 -0.7527  0.4030
  957MOL0     C26219   6.508   2.699   7.221 -0.3463 -0.2756  0.6533
  957MOL0     C26220   6.454   2.576   7.173  0.1382  0.0855 -0.1170
  957MOL0     C26221   6.543   2.459   7.141  0.2260 -0.4488  0.3518
  957MOL0     O26222   6.672   2.464   7.208  0.7498  0.0984  0.4495
  957MOL0     C26223   6.757   2.359   7.216  0.4736 -0.6957  0.0779
  957MOL0     C26224   6.741   2.227   7.181 -0.0177 -0.2734 -0.1424
  957MOL0     C26225   6.850   2.137   7.192 -0.6493  0.0482  0.1368
  957MOL0     C26226   6.983   2.174   7.237  0.0301 -0.3482  0.0168
  957MOL0     O26227   7.080   2.079   7.262  0.3365  0.7204  0.0565
  957MOL0     C26228   7.084   1.962   7.172 -0.4166  0.7425  0.4705
  957MOL0     C26229   7.219   1.886   7.188 -0.1872  0.5654  0.0776
  957MOL0     C26230   7.350   1.967   7.171 -0.2641 -0.6538  0.1785
  957MOL0     C26231   7.469   1.871   7.199  0.7428 -0.5603 -0.2270
  957MOL0     C26232   7.604   1.926   7.148  0.3862 -0.3903 -0.5705
  957MOL0     C26233   7.710   1.817   7.165  0.3534 -0.2450 -0.4143
  957MOL0     C26234   7.850   1.857   7.126 -1.4167  0.5569 -0.6547
  957MOL0     C26235   7.896   1.991   7.186 -0.7646 -0.2536 -0.4569
  957MOL0    Cl26236   8.061   1.979   7.241 -0.0928  0.5193  0.1331
  957MOL0     C26237   6.998   2.313   7.279 -0.8591 -0.6315 -1.1557
  957MOL0     C26238   6.886   2.399   7.262 -1.0201 -0.1423 -0.1488
  957MOL0     O26239   6.506   2.374   7.062  0.5360  0.1533  0.5231
  957MOL0     C26240   6.317   2.560   7.156 -0.7263 -0.1861  0.8222
  957MOL0     C26241   6.234   2.677   7.173  0.5807  0.5257  0.0712
  957MOL0     N26242   6.211   3.301   6.774  0.0090  0.3836 -0.6680
  957MOL0     N26243   6.126   3.341   6.686 -0.0812 -0.5980  0.4519
  957MOL0     C26244   5.943   2.499   6.963 -0.1622 -0.1495  0.2979
  957MOL0     C26245   6.042   2.395   6.972  0.1764 -0.0963  0.2040
  957MOL0     C26246   6.299   2.045   7.112 -0.4336 -0.1926  0.5889
  957MOL0     C26247   6.363   2.059   6.980  0.4502 -0.5605  0.3063
  957MOL0     C26248   6.488   1.999   6.960  0.4765  0.0862  0.0736
  957MOL0     C26249   6.539   1.909   7.057 -0.1690  0.1087 -0.8049
  957MOL0     O26250   6.651   1.832   7.041 -0.0503  0.2954 -0.7520
  957MOL0     C26251   6.629   1.690   7.012  0.4737 -0.9258 -0.9054
  957MOL0     C26252   6.750   1.612   7.064  0.4496  0.2832  0.0080
  957MOL0     C26253   6.884   1.651   7.005 -0.3221  0.5691 -0.5263
  957MOL0     C26254   6.993   1.567   7.073  1.0706 -0.3465 -0.3346
  957MOL0     C26255   7.030   1.611   7.213  0.7222 -0.0844 -0.5328
  957MOL0     C26256   7.061   1.637   7.331 -0.3129  0.3670  0.0267
  957MOL0     C26257   6.474   1.899   7.181  0.4773 -0.1144 -0.7618
  957MOL0     C26258   6.359   1.971   7.207 -0.3300  0.8837 -1.3465
  957MOL0     H26259   5.921   2.214   7.237 -0.1872 -1.4230 -1.3263
  957MOL0     H26260   5.729   2.375   7.202 -1.0290 -0.0816 -2.5233
  957MOL0     H26261   5.740   2.695   6.888 -0.2189 -2.7353 -0.2755
  957MOL0     H26262   5.850   2.738   7.025 -1.6982  2.6019 -0.1639
  957MOL0     H26263   5.647   2.796   7.170 -2.3942  1.2851  0.5973
  957MOL0     H26264   5.549   2.760   7.025  0.8424  0.8586 -2.7059
  957MOL0     H26265   5.784   2.959   7.036  0.0127  3.1734  1.2856
  957MOL0     H26266   5.611   3.002   7.077 -0.6070  0.8915 -2.1119
  957MOL0     H26267   5.668   2.867   6.807  1.1228  1.3113  0.3086
  957MOL0     H26268   5.524   2.926   6.889 -0.8982  2.3074  1.2773
  957MOL0     H26269   5.649   3.167   6.865 -1.8462  2.6215 -2.4845
  957MOL0     H26270   5.585   3.092   6.719 -1.0059 -0.5135  1.4958
  957MOL0     H26271   5.821   3.014   6.663 -0.6486  1.4849 -1.8461
  957MOL0     H26272   5.879   3.080   6.813 -0.0557 -1.5334 -0.9657
  957MOL0     H26273   5.720   3.242   6.616  0.2547  2.3731  1.3369
  957MOL0     H26274   5.838   3.316   6.733  0.2028 -0.2961  1.8457
  957MOL0     H26275   5.927   3.327   6.507  0.4666  0.1875 -0.4651
  957MOL0     H26276   5.924   3.150   6.500  0.2638  1.8070 -1.1451
  957MOL0     H26277   6.109   3.014   6.655  0.0455  0.6037  0.3642
  957MOL0     H26278   6.401   3.159   6.853  0.8390 -0.1165  0.0784
  957MOL0     H26279   6.353   3.006   6.799 -1.9013 -0.3448  1.1929
  957MOL0     H26280   6.248   3.156   7.050 -3.7575 -1.4463  0.8607
  957MOL0     H26281   6.351   3.024   7.051 -1.5694 -0.1873  1.0953
  957MOL0     H26282   6.071   3.031   6.954  1.9139  1.7244  0.6771
  957MOL0     H26283   6.169   2.887   6.936 -1.0886 -0.2887  0.8074
  957MOL0     H26284   6.026   2.851   7.132 -0.5028 -0.2666  0.2440
  957MOL0     H26285   6.055   3.016   7.197  0.6400  1.2380  0.3478
  957MOL0     H26286   6.477   2.882   7.297  1.7648 -1.1451 -1.3615
  957MOL0     H26287   6.609   2.705   7.260 -0.4185 -0.1717  0.8258
  957MOL0     H26288   6.648   2.179   7.152  0.7110 -2.5987  1.0460
  957MOL0     H26289   6.842   2.032   7.168 -2.0660  0.0157  0.6485
  957MOL0     H26290   7.076   1.993   7.067 -0.4219 -3.3309 -0.9220
  957MOL0     H26291   7.006   1.892   7.202  0.7106  0.0155  1.8332
  957MOL0     H26292   7.229   1.809   7.111  3.8795  2.0328 -1.1210
  957MOL0     H26293   7.221   1.842   7.288  0.2410  2.1088  0.7776
  957MOL0     H26294   7.358   2.051   7.241  2.3888 -2.5164  2.3353
  957MOL0     H26295   7.351   2.004   7.069 -1.1165 -0.1588  0.3432
  957MOL0     H26296   7.477   1.871   7.308 -0.1439  3.4066  0.0099
  957MOL0     H26297   7.453   1.772   7.157  1.5892  0.6607 -3.7812
  957MOL0     H26298   7.637   2.010   7.210 -0.3345  0.5716 -1.4500
  957MOL0     H26299   7.602   1.956   7.043 -1.2448 -1.9062 -1.0288
  957MOL0     H26300   7.675   1.741   7.094 -0.6018  0.8335 -1.1218
  957MOL0     H26301   7.708   1.778   7.268 -2.6345  1.5026  0.3014
  957MOL0     H26302   7.921   1.788   7.172  0.2120  1.6905 -1.3478
  957MOL0     H26303   7.858   1.845   7.017  1.0227 -1.9021 -0.3004
  957MOL0     H26304   7.829   2.019   7.268  0.7482 -0.5913  0.9344
  957MOL0     H26305   7.876   2.068   7.111 -1.7060  0.3493  0.3798
  957MOL0     H26306   7.078   2.331   7.350 -2.8454  1.9410  0.6106
  957MOL0     H26307   6.897   2.501   7.298  0.0557 -0.7993  1.4571
  957MOL0     H26308   6.271   2.468   7.121  0.3196 -0.0017 -1.2163
  957MOL0     H26309   6.133   2.660   7.139  0.6673  3.0492 -1.7563
  957MOL0     H26310   5.952   2.578   6.890 -0.8077 -0.0429  0.3324
  957MOL0     H26311   6.119   2.395   6.896 -1.1540  1.1710 -1.2180
  957MOL0     H26312   6.320   2.115   6.898 -0.3793 -0.2072  0.9686
  957MOL0     H26313   6.548   2.025   6.874 -0.4646  2.1994 -0.0112
  957MOL0     H26314   6.621   1.684   6.903  1.3323  0.5714 -1.0779
  957MOL0     H26315   6.541   1.655   7.066  0.8680 -1.4519 -0.6041
  957MOL0     H26316   6.750   1.623   7.173  0.8695  2.6303 -0.1837
  957MOL0     H26317   6.725   1.508   7.041  0.9527 -0.8598  3.9666
  957MOL0     H26318   6.903   1.754   7.035 -1.4548  0.5796  0.2506
  957MOL0     H26319   6.887   1.637   6.897  1.8171  0.3334 -0.4700
  957MOL0     H26320   6.964   1.461   7.064 -1.2226  0.2949 -1.0942
  957MOL0     H26321   7.081   1.578   7.010  3.6561 -2.7359  2.5288
  957MOL0     H26322   7.088   1.646   7.434  1.7782  1.3895 -0.5435
  957MOL0     H26323   6.510   1.844   7.267  2.1316  0.3143 -1.1562
  957MOL0     H26324   6.315   1.946   7.303 -0.3657  2.4006 -0.9355
  958MOL0     O26325   4.942   5.286   4.085  0.5224  0.6334 -0.1453
  958MOL0     C26326   4.931   5.363   3.990 -0.7820 -0.4815  0.2161
  958MOL0     O26327   5.000   5.483   3.973 -0.5384 -0.5212  0.0994
  958MOL0     C26328   5.091   5.529   4.075  1.3532  0.1663  0.6225
  958MOL0     C26329   5.225   5.565   4.041 -0.0515  1.3658 -0.1652
  958MOL0     C26330   5.315   5.606   4.144 -0.5417 -0.1890 -0.2894
  958MOL0     C26331   5.259   5.639   4.277 -0.8824  0.4195  0.5834
  958MOL0     O26332   5.334   5.700   4.370 -0.6826  0.2727 -1.0913
  958MOL0     C26333   5.472   5.731   4.360  0.0579 -0.3665  0.3002
  958MOL0     C26334   5.523   5.730   4.505  0.3708 -0.2079  0.4820
  958MOL0     C26335   5.679   5.699   4.517  0.3406 -0.7225 -0.2088
  958MOL0     C26336   5.759   5.824   4.504 -1.2720 -0.2688 -1.6484
  958MOL0     C26337   5.910   5.796   4.492 -0.3909  0.2942 -0.0798
  958MOL0     C26338   5.986   5.927   4.507  0.6569  0.7331  0.6778
  958MOL0     C26339   5.963   6.022   4.390 -0.2923  0.5024 -0.8749
  958MOL0     C26340   6.033   6.153   4.417 -0.5987  0.3636  0.2971
  958MOL0     N26341   6.182   6.164   4.383 -0.1107 -0.2903 -0.1255
  958MOL0     C26342   6.293   6.113   4.450  0.2800  0.2129 -0.1249
  958MOL0     C26343   6.400   6.142   4.370 -0.1330 -2.0589  0.0838
  958MOL0     C26344   6.547   6.123   4.403  1.0007  0.4212  0.3144
  958MOL0     C26345   6.583   6.185   4.541  0.6141 -0.9408 -0.2234
  958MOL0     C26346   6.526   6.329   4.560 -0.4184  0.8450 -0.1288
  958MOL0     C26347   6.558   6.420   4.445 -0.0822 -0.6421  0.5325
  958MOL0     O26348   6.518   6.557   4.454  0.0439 -0.0521 -0.0592
  958MOL0     C26349   6.385   6.579   4.488 -0.1435 -0.5203 -0.1545
  958MOL0     C26350   6.356   6.680   4.581  0.7537 -0.2439  0.1200
  958MOL0     C26351   6.220   6.699   4.608 -0.6315  0.5056 -0.0612
  958MOL0     C26352   6.117   6.619   4.557  0.1598 -0.1883  0.3077
  958MOL0     C26353   5.978   6.646   4.589 -0.4337 -0.4446 -0.5019
  958MOL0     O26354   5.961   6.736   4.687  0.0884 -0.2763  1.0222
  958MOL0     C26355   5.838   6.793   4.708  0.3456 -0.1185  0.1837
  958MOL0     C26356   5.830   6.927   4.713  0.0569 -0.2414 -0.0705
  958MOL0     C26357   5.710   6.995   4.734  0.5101  0.1136 -0.2136
  958MOL0     C26358   5.587   6.922   4.731  1.0710  0.2631 -0.7622
  958MOL0     O26359   5.456   6.968   4.741 -0.0513 -0.4975 -0.0464
  958MOL0     C26360   5.447   7.114   4.724 -0.2875 -0.4452 -0.1071
  958MOL0     C26361   5.297   7.163   4.698  0.0616  0.4867  0.3243
  958MOL0     C26362   5.222   7.166   4.826  0.0509 -1.0300  0.1530
  958MOL0     C26363   5.082   7.226   4.814  0.4412 -1.0711 -0.0151
  958MOL0     C26364   5.081   7.380   4.789 -0.0731 -0.3151 -0.8412
  958MOL0     C26365   4.955   7.456   4.836  0.3401  0.0966  0.0455
  958MOL0     C26366   4.837   7.420   4.747 -1.0821 -0.4047 -0.1419
  958MOL0     C26367   4.718   7.506   4.767 -0.7139 -0.0133  0.7476
  958MOL0    Cl26368   4.572   7.437   4.687  0.4026  0.1452 -0.3308
  958MOL0     C26369   5.597   6.782   4.730  1.3343 -0.2989 -0.7520
  958MOL0     C26370   5.723   6.721   4.729  0.7718 -0.5022  0.7594
  958MOL0     O26371   5.887   6.582   4.525  0.5002  0.2220 -0.3123
  958MOL0     C26372   6.152   6.526   4.462 -0.3950  1.3034 -0.4838
  958MOL0     C26373   6.284   6.508   4.427 -0.9254 -0.4744 -0.2260
  958MOL0     N26374   6.348   6.190   4.253 -0.1770 -0.3009 -0.0551
  958MOL0     N26375   6.222   6.197   4.261 -0.4737  0.0421  0.4151
  958MOL0     C26376   5.123   5.606   4.303  0.4977  0.7408 -0.3714
  958MOL0     C26377   5.040   5.552   4.200 -0.7102 -1.0346 -0.0869
  958MOL0     C26378   4.826   5.343   3.891  0.2589 -0.7356 -0.3153
  958MOL0     C26379   4.769   5.213   3.898  0.8980 -0.7212  0.2491
  958MOL0     C26380   4.657   5.190   3.817  0.0147  0.3183 -0.1160
  958MOL0     C26381   4.617   5.272   3.717  0.2918  0.2689 -0.6758
  958MOL0     O26382   4.514   5.224   3.639  0.2123 -0.1151 -0.3498
  958MOL0     C26383   4.470   5.312   3.535  0.7164  0.3126 -0.1362
  958MOL0     C26384   4.382   5.232   3.447  0.7061  0.1584  0.2754
  958MOL0     C26385   4.450   5.134   3.351  0.1748 -0.4274  0.6708
  958MOL0     C26386   4.365   5.021   3.294 -0.4486 -0.0856  0.4734
  958MOL0     C26387   4.246   5.063   3.231 -0.0795 -0.3332 -0.5522
  958MOL0     C26388   4.137   5.102   3.193  0.0780 -0.4645  0.2340
  958MOL0     C26389   4.671   5.401   3.714 -0.7256  0.0497  0.3766
  958MOL0     C26390   4.773   5.438   3.801  0.0911  0.2603 -0.9155
  958MOL0     H26391   5.256   5.564   3.937 -4.9293  2.2226 -1.8624
  958MOL0     H26392   5.415   5.629   4.110 -0.2917 -1.5651 -0.5427
  958MOL0     H26393   5.498   5.819   4.300  1.5023 -2.7242 -2.8507
  958MOL0     H26394   5.523   5.654   4.301  1.6750  0.3888  0.6469
  958MOL0     H26395   5.478   5.641   4.549  1.2290 -0.7007  0.3914
  958MOL0     H26396   5.476   5.816   4.554 -1.0300 -1.5738  1.6478
  958MOL0     H26397   5.700   5.630   4.434 -1.1867  1.2904 -2.3864
  958MOL0     H26398   5.694   5.645   4.611  3.2390 -2.2122 -1.3912
  958MOL0     H26399   5.729   5.879   4.414  0.6255 -0.8385 -2.7013
  958MOL0     H26400   5.748   5.894   4.587  4.3174  1.0180 -1.5994
  958MOL0     H26401   5.946   5.757   4.397  0.2139 -0.1690  0.3258
  958MOL0     H26402   5.944   5.728   4.571  1.0132 -0.9144 -1.6550
  958MOL0     H26403   6.093   5.905   4.514  0.1321 -1.9726  1.1508
  958MOL0     H26404   5.958   5.978   4.600 -2.2210 -1.4711  1.1602
  958MOL0     H26405   6.008   5.975   4.303  4.1180 -0.0745  1.4636
  958MOL0     H26406   5.858   6.050   4.371 -0.5922 -0.1403 -0.2141
  958MOL0     H26407   6.017   6.188   4.520  0.9553 -0.1119  0.7370
  958MOL0     H26408   5.979   6.223   4.354  0.7450  2.0985  0.9744
  958MOL0     H26409   6.302   6.082   4.554  0.5202  1.7763  0.3549
  958MOL0     H26410   6.613   6.168   4.328  1.8429  0.8018  1.2763
  958MOL0     H26411   6.580   6.019   4.402  1.5557  0.5481 -1.9472
  958MOL0     H26412   6.693   6.186   4.540  0.6509 -2.4954 -1.4331
  958MOL0     H26413   6.563   6.113   4.621 -1.7436 -1.7702 -1.4519
  958MOL0     H26414   6.420   6.320   4.587 -0.2327  1.5232  0.8756
  958MOL0     H26415   6.579   6.362   4.650 -1.4416  0.5534  0.6045
  958MOL0     H26416   6.512   6.379   4.355  1.7797 -0.6959 -0.4479
  958MOL0     H26417   6.665   6.416   4.423  0.3189 -1.9716  2.4464
  958MOL0     H26418   6.429   6.745   4.629  1.0919  1.1952 -2.1935
  958MOL0     H26419   6.199   6.775   4.682  1.9515 -0.0320  1.3733
  958MOL0     H26420   5.921   6.987   4.710  0.3380 -0.5634  1.1468
  958MOL0     H26421   5.720   7.101   4.754  0.4372 -0.1832  1.6391
  958MOL0     H26422   5.503   7.135   4.632  1.4638 -1.6853  0.6063
  958MOL0     H26423   5.496   7.159   4.811  3.4015 -1.6863 -1.3302
  958MOL0     H26424   5.249   7.088   4.634  2.2188 -0.2322 -0.5371
  958MOL0     H26425   5.292   7.260   4.648 -0.3122 -0.8484 -2.4278
  958MOL0     H26426   5.272   7.237   4.892  2.3024 -1.1511 -1.3086
  958MOL0     H26427   5.211   7.064   4.865 -3.0932 -0.6841  0.4264
  958MOL0     H26428   5.031   7.178   4.730 -3.1331  0.9925  0.7458
  958MOL0     H26429   5.018   7.196   4.896 -0.7691  0.4401 -0.3527
  958MOL0     H26430   5.096   7.390   4.681  0.6665 -0.3513 -0.7503
  958MOL0     H26431   5.162   7.422   4.851 -1.8014 -0.6088  1.7539
  958MOL0     H26432   4.975   7.563   4.839 -2.5094  0.6912  1.0813
  958MOL0     H26433   4.921   7.432   4.938  0.9698  2.4097  0.8628
  958MOL0     H26434   4.867   7.425   4.641  1.0723 -1.3701  0.3654
  958MOL0     H26435   4.805   7.317   4.764 -2.2441 -0.4347 -2.1495
  958MOL0     H26436   4.746   7.609   4.743  0.7634 -0.4620  0.4761
  958MOL0     H26437   4.689   7.514   4.873  0.6217  1.4194  1.0421
  958MOL0     H26438   5.499   6.737   4.732 -0.1202  2.6025 -0.6849
  958MOL0     H26439   5.715   6.613   4.743  0.1053 -0.2997  2.0879
  958MOL0     H26440   6.073   6.463   4.422  0.7782 -0.2527 -0.4434
  958MOL0     H26441   6.303   6.434   4.349  2.2572 -1.4143  1.2766
  958MOL0     H26442   5.074   5.629   4.397  2.0221  1.8503  0.1927
  958MOL0     H26443   4.941   5.524   4.237 -0.1280 -1.6512  1.0655
  958MOL0     H26444   4.805   5.131   3.958 -1.0247 -0.7486  1.4529
  958MOL0     H26445   4.610   5.094   3.835  0.3029  0.4584  1.5180
  958MOL0     H26446   4.551   5.362   3.481  0.2641 -0.2113 -1.3367
  958MOL0     H26447   4.427   5.402   3.579  1.2005  0.2991  0.3603
  958MOL0     H26448   4.313   5.180   3.514 -3.0635  1.9883 -1.8640
  958MOL0     H26449   4.313   5.299   3.396  3.0700  3.2366  0.7959
  958MOL0     H26450   4.540   5.093   3.398 -0.6193 -2.7933  0.2454
  958MOL0     H26451   4.480   5.197   3.267  1.7735 -2.1934 -0.1671
  958MOL0     H26452   4.434   4.966   3.230  0.5784  0.7643  0.8174
  958MOL0     H26453   4.325   4.958   3.374 -0.9243  0.0206  0.3268
  958MOL0     H26454   4.037   5.117   3.158  0.0820  0.0560  0.4403
  958MOL0     H26455   4.630   5.472   3.643 -0.8495 -1.1768 -0.8366
  958MOL0     H26456   4.808   5.538   3.825 -0.7066  0.3916 -0.2188
  959MOL0     O26457   0.842   5.244   4.915  0.0035  0.3263 -0.0292
  959MOL0     C26458   0.884   5.253   5.032  0.7163  0.1943 -0.3312
  959MOL0     O26459   0.997   5.319   5.078 -0.0209  0.4410  0.1678
  959MOL0     C26460   1.106   5.348   4.999 -0.4491  1.0812 -0.6217
  959MOL0     C26461   1.190   5.444   5.044 -0.3091  0.5519 -0.2750
  959MOL0     C26462   1.292   5.488   4.964 -0.3534  0.4237 -0.6361
  959MOL0     C26463   1.303   5.431   4.842  0.8971 -0.4963 -0.4803
  959MOL0     O26464   1.410   5.457   4.761  0.4525 -0.3676  0.0040
  959MOL0     C26465   1.393   5.596   4.713  0.7667 -0.3032  0.3508
  959MOL0     C26466   1.506   5.639   4.609 -1.0422  0.0225 -0.3147
  959MOL0     C26467   1.507   5.777   4.557 -0.1875  0.2106 -0.3273
  959MOL0     C26468   1.621   5.809   4.467 -0.5515  0.3599  0.3098
  959MOL0     C26469   1.624   5.948   4.395 -0.4277  0.2869 -0.3086
  959MOL0     C26470   1.651   6.071   4.481 -0.3262  0.5992  2.0056
  959MOL0     C26471   1.791   6.072   4.539  0.8187  0.3858 -0.7635
  959MOL0     C26472   1.857   6.212   4.536 -1.0188 -0.1417 -0.3642
  959MOL0     N26473   1.814   6.297   4.647  0.5283  0.3471 -1.3088
  959MOL0     C26474   1.699   6.370   4.653  1.0535 -0.4368  0.0331
  959MOL0     C26475   1.700   6.430   4.777  0.1503  1.7039  0.1139
  959MOL0     C26476   1.593   6.517   4.827 -0.5335  0.2983 -0.3179
  959MOL0     C26477   1.457   6.450   4.853 -0.0746 -0.4245 -0.3948
  959MOL0     C26478   1.350   6.562   4.869  0.0534  0.5731  0.2399
  959MOL0     C26479   1.220   6.506   4.924  0.2262 -0.5738  0.1791
  959MOL0     O26480   1.159   6.412   4.839  0.2938 -0.0791 -0.0337
  959MOL0     C26481   1.051   6.349   4.908 -0.6891  0.6690  0.0591
  959MOL0     C26482   1.061   6.260   5.014  0.5323  0.7961  0.0756
  959MOL0     C26483   0.943   6.205   5.067  0.2780 -0.6351  0.0297
  959MOL0     C26484   0.821   6.224   5.007  0.3302 -0.5013  0.5529
  959MOL0     C26485   0.689   6.156   5.049 -0.3106 -0.9043 -0.2776
  959MOL0     O26486   0.700   6.089   5.163 -0.1376  0.0937 -0.2376
  959MOL0     C26487   0.595   6.012   5.202 -0.1948  0.4429 -0.0783
  959MOL0     C26488   0.548   5.897   5.129 -0.7046  0.2331 -0.8092
  959MOL0     C26489   0.434   5.830   5.174 -0.4784 -0.0288 -0.4536
  959MOL0     C26490   0.374   5.871   5.291 -0.4637 -0.5602  0.0332
  959MOL0     O26491   0.266   5.801   5.332 -0.5969 -0.4423 -0.3279
  959MOL0     C26492   0.248   5.667   5.285 -0.6163  0.2541  0.2914
  959MOL0     C26493   0.141   5.588   5.355  1.2806  0.5552  0.5343
  959MOL0     C26494  -0.004   5.637   5.332  0.3022  0.4277 -0.7824
  959MOL0     C26495  -0.111   5.585   5.431  0.1467 -0.4973 -0.6895
  959MOL0     C26496  -0.119   5.438   5.440  0.5582  0.7942 -0.0048
  959MOL0     C26497  -0.240   5.382   5.508  0.4265  0.1966  0.6297
  959MOL0     C26498  -0.222   5.228   5.498  0.0317 -0.5207 -0.1814
  959MOL0     C26499  -0.351   5.151   5.532 -0.5752 -0.0583 -0.7927
  959MOL0    Cl26500  -0.335   4.978   5.505  0.3295 -0.0610 -0.1780
  959MOL0     C26501   0.428   5.965   5.371 -0.2496 -0.4561 -0.2199
  959MOL0     C26502   0.529   6.043   5.321 -0.0328 -0.5238 -0.6137
  959MOL0     O26503   0.588   6.175   4.984 -0.8190 -0.3780 -0.0617
  959MOL0     C26504   0.816   6.311   4.890  0.1214  0.1716  0.3182
  959MOL0     C26505   0.934   6.373   4.849  0.2715  0.4726  0.6724
  959MOL0     N26506   1.812   6.376   4.840 -0.3624  0.2899 -0.8945
  959MOL0     N26507   1.886   6.297   4.765 -0.6663 -0.2203  0.2979
  959MOL0     C26508   1.218   5.331   4.795 -0.3021 -0.5568  0.3256
  959MOL0     C26509   1.126   5.281   4.880  0.8199 -0.2870  0.3927
  959MOL0     C26510   0.799   5.181   5.131 -0.4045  0.6300  0.1934
  959MOL0     C26511   0.712   5.075   5.094 -0.5359 -0.8345 -0.3772
  959MOL0     C26512   0.619   5.036   5.193  0.7889  0.5453 -0.0275
  959MOL0     C26513   0.620   5.084   5.323  0.0003  0.1299 -1.1082
  959MOL0     O26514   0.528   5.032   5.412  0.5438 -0.5661 -0.6914
  959MOL0     C26515   0.540   5.058   5.552 -0.0470  0.3036  0.2247
  959MOL0     C26516   0.476   4.957   5.639  0.0993  0.7099 -0.2404
  959MOL0     C26517   0.488   4.807   5.589 -0.0521 -0.5917 -0.3906
  959MOL0     C26518   0.434   4.720   5.703 -0.5275 -0.0835  0.6068
  959MOL0     C26519   0.411   4.584   5.657  0.0645  0.2753 -0.0088
  959MOL0     C26520   0.377   4.466   5.626  1.0008  0.4689  0.4510
  959MOL0     C26521   0.716   5.182   5.360  0.7656  0.5195 -0.1142
  959MOL0     C26522   0.803   5.235   5.267  0.6769  0.1848 -0.0319
  959MOL0     H26523   1.178   5.485   5.143 -3.1637  1.2102 -0.8213
  959MOL0     H26524   1.355   5.564   5.011  0.2595 -0.9615  0.8861
  959MOL0     H26525   1.395   5.670   4.794  1.5031  2.5512 -2.0958
  959MOL0     H26526   1.298   5.598   4.660  0.7645 -3.3270  0.1115
  959MOL0     H26527   1.521   5.575   4.522 -1.3134 -0.9039  0.3030
  959MOL0     H26528   1.603   5.615   4.653 -0.8455 -2.6675 -2.0074
  959MOL0     H26529   1.510   5.843   4.645 -2.5907 -0.1548  0.1101
  959MOL0     H26530   1.413   5.801   4.506 -0.7554  1.2305  1.1362
  959MOL0     H26531   1.717   5.789   4.515  1.1771 -0.8642 -3.2907
  959MOL0     H26532   1.623   5.738   4.384  1.0783 -1.7436  2.0119
  959MOL0     H26533   1.525   5.971   4.355 -0.1037  0.8797 -0.7859
  959MOL0     H26534   1.692   5.945   4.309 -1.0146 -1.1710 -0.7630
  959MOL0     H26535   1.578   6.091   4.560  0.6921  2.3262  2.5820
  959MOL0     H26536   1.640   6.156   4.413  0.2077 -2.3225 -2.0947
  959MOL0     H26537   1.779   6.045   4.644 -1.2398 -1.6640 -1.4331
  959MOL0     H26538   1.856   5.999   4.491 -0.7488 -1.4757 -0.1816
  959MOL0     H26539   1.832   6.265   4.444  1.3479  0.2530 -0.8484
  959MOL0     H26540   1.965   6.199   4.542 -1.0835 -0.2862  0.7561
  959MOL0     H26541   1.625   6.384   4.574 -0.7743 -2.6428  1.2227
  959MOL0     H26542   1.583   6.587   4.744 -3.1867  1.6914  1.0827
  959MOL0     H26543   1.641   6.573   4.907  3.6731  1.1746 -3.1199
  959MOL0     H26544   1.455   6.401   4.950 -0.6856 -1.3494 -0.8636
  959MOL0     H26545   1.429   6.381   4.773 -2.0129 -1.3226  1.0016
  959MOL0     H26546   1.388   6.648   4.925 -0.9193  1.5170 -0.4987
  959MOL0     H26547   1.332   6.587   4.764 -0.1463  1.4497  0.4778
  959MOL0     H26548   1.154   6.593   4.931 -1.3529 -1.8882  3.5370
  959MOL0     H26549   1.241   6.464   5.023 -0.8204  0.7996  1.0210
  959MOL0     H26550   1.155   6.229   5.057 -1.3323 -0.3972  3.6540
  959MOL0     H26551   0.936   6.141   5.155 -4.6451  0.9470  1.1262
  959MOL0     H26552   0.588   5.873   5.031 -0.0709 -1.3043 -0.2150
  959MOL0     H26553   0.397   5.753   5.107  0.4507 -1.2311  0.3597
  959MOL0     H26554   0.344   5.615   5.297  0.6070  3.0390  5.9544
  959MOL0     H26555   0.223   5.668   5.178  0.9419  1.3424 -0.1088
  959MOL0     H26556   0.144   5.571   5.463  0.4753  0.0163  0.4811
  959MOL0     H26557   0.149   5.486   5.315 -0.0291  1.5583 -2.6014
  959MOL0     H26558  -0.035   5.597   5.235  0.3680  0.8627 -0.9841
  959MOL0     H26559  -0.008   5.747   5.337 -0.3257  0.4067  4.3952
  959MOL0     H26560  -0.101   5.639   5.526 -4.0844  0.1852 -0.4280
  959MOL0     H26561  -0.211   5.613   5.397  0.3265  0.7401 -0.2554
  959MOL0     H26562  -0.034   5.406   5.503  0.6707  0.8852 -0.1105
  959MOL0     H26563  -0.109   5.392   5.342 -2.0987  0.1400 -0.0201
  959MOL0     H26564  -0.332   5.407   5.455  0.8289 -0.5463 -0.4591
  959MOL0     H26565  -0.256   5.408   5.613  2.0820 -0.3725  1.0608
  959MOL0     H26566  -0.195   5.218   5.393 -0.6433 -0.6579 -0.3478
  959MOL0     H26567  -0.142   5.189   5.562 -1.5184  0.5480  2.5694
  959MOL0     H26568  -0.441   5.204   5.501  0.2398  2.8671  1.3611
  959MOL0     H26569  -0.355   5.166   5.641  2.1216  3.4586 -1.0095
  959MOL0     H26570   0.368   5.993   5.457  3.6870 -2.7038  3.5982
  959MOL0     H26571   0.542   6.132   5.382 -1.0052 -0.7918  0.0001
  959MOL0     H26572   0.723   6.312   4.833 -0.1799 -0.8952  0.7563
  959MOL0     H26573   0.921   6.437   4.763 -0.7137 -1.3670 -0.6397
  959MOL0     H26574   1.232   5.281   4.700 -0.1176  0.1534 -0.0294
  959MOL0     H26575   1.070   5.193   4.852  0.2162  0.2884 -0.2458
  959MOL0     H26576   0.701   5.035   4.994 -2.3060 -0.5070 -0.3435
  959MOL0     H26577   0.534   4.973   5.169  0.9887 -1.4621  3.7213
  959MOL0     H26578   0.498   5.158   5.567  0.3135  0.7869 -1.6345
  959MOL0     H26579   0.642   5.061   5.591 -1.1409  2.0511  3.2625
  959MOL0     H26580   0.496   4.964   5.746  0.9722  0.7902 -0.3971
  959MOL0     H26581   0.371   4.978   5.657  0.1750 -0.8339  2.4857
  959MOL0     H26582   0.593   4.789   5.562  0.2061  0.7428 -0.3283
  959MOL0     H26583   0.434   4.798   5.494  0.4907  0.6623 -0.8416
  959MOL0     H26584   0.516   4.716   5.776  0.9261  1.5444 -0.8257
  959MOL0     H26585   0.339   4.753   5.745 -1.5405 -1.0950 -0.7870
  959MOL0     H26586   0.349   4.364   5.606 -2.0330  1.5352 -1.2899
  959MOL0     H26587   0.719   5.221   5.461  0.7373  2.6129 -0.8829
  959MOL0     H26588   0.863   5.324   5.281  0.8204  0.2544 -0.9935
  960MOL0     O26589  10.057   6.728   1.170  0.3889 -0.4507 -0.2760
  960MOL0     C26590   9.939   6.703   1.159 -0.0892  0.7501  0.1360
  960MOL0     O26591   9.882   6.630   1.053 -0.8028  0.0537 -0.0453
  960MOL0     C26592   9.983   6.582   0.966  0.3966 -0.6365 -0.7316
  960MOL0     C26593   9.980   6.617   0.838 -0.0057 -0.1723 -0.0429
  960MOL0     C26594  10.077   6.576   0.752  0.3114  0.9399  0.2138
  960MOL0     C26595  10.175   6.483   0.789 -0.2243  1.0139 -0.1250
  960MOL0     O26596  10.274   6.440   0.704 -0.2566 -0.1148  0.6199
  960MOL0     C26597  10.248   6.307   0.660 -0.1721 -0.3806  0.9218
  960MOL0     C26598  10.382   6.261   0.590 -1.0809  0.1931 -0.5074
  960MOL0     C26599  10.362   6.191   0.458  0.3101 -0.0324  0.0308
  960MOL0     C26600  10.272   6.074   0.465  0.6987 -0.2133 -0.3825
  960MOL0     C26601  10.255   6.006   0.325  0.3503  0.1521  0.0073
  960MOL0     C26602  10.318   5.863   0.333  0.1795 -0.2689 -0.2147
  960MOL0     C26603  10.349   5.806   0.192  0.6168 -0.3481 -0.5676
  960MOL0     C26604  10.420   5.667   0.194 -1.3808 -0.0282  0.3193
  960MOL0     N26605  10.361   5.566   0.278 -1.0411 -0.0924 -0.3091
  960MOL0     C26606  10.246   5.502   0.249 -0.0034 -0.7577 -0.2911
  960MOL0     C26607  10.228   5.422   0.359 -0.0092  0.6202  0.6578
  960MOL0     C26608  10.107   5.336   0.375  0.4784  0.2439 -0.6182
  960MOL0     C26609  10.006   5.400   0.478 -0.5168 -0.4547 -0.0440
  960MOL0     C26610   9.905   5.287   0.513 -0.7858 -0.1997  0.1371
  960MOL0     C26611   9.800   5.326   0.609 -0.1131 -0.2710  0.4297
  960MOL0     O26612   9.848   5.376   0.731  0.7171  0.0437  0.4390
  960MOL0     C26613   9.772   5.471   0.793 -0.1225  0.5036 -0.6550
  960MOL0     C26614   9.830   5.539   0.897 -0.0287 -0.1550  1.4175
  960MOL0     C26615   9.740   5.638   0.958 -0.9078 -0.3039 -0.5007
  960MOL0     C26616   9.606   5.656   0.924  0.8513 -0.2157 -0.0043
  960MOL0     C26617   9.513   5.764   0.983  0.2816 -0.0659 -1.1192
  960MOL0     O26618   9.373   5.746   0.962  0.5212 -0.1203 -0.3534
  960MOL0     C26619   9.276   5.837   0.971  0.4769 -1.3335  0.2809
  960MOL0     C26620   9.150   5.796   0.916 -0.3844  0.7565  0.1670
  960MOL0     C26621   9.026   5.866   0.922  0.3191  0.5971  0.5620
  960MOL0     C26622   9.025   5.987   0.998  0.1443  0.1642 -0.7495
  960MOL0     O26623   8.901   6.046   1.016 -0.2817  0.0536 -0.1999
  960MOL0     C26624   8.904   6.169   1.101 -0.7638 -0.7901  0.2249
  960MOL0     C26625   8.762   6.221   1.108  0.3602 -0.1910  0.5382
  960MOL0     C26626   8.653   6.110   1.124  0.4869  0.2566  0.2381
  960MOL0     C26627   8.533   6.154   1.206  0.0210 -0.5922 -0.5433
  960MOL0     C26628   8.470   6.289   1.180  0.4018  0.4225 -0.8832
  960MOL0     C26629   8.423   6.302   1.035  0.5975 -0.3603 -0.0740
  960MOL0     C26630   8.347   6.183   0.984 -0.4509  0.3276 -0.5166
  960MOL0     C26631   8.248   6.210   0.877 -0.4337 -0.5677  0.1705
  960MOL0    Cl26632   8.351   6.269   0.744  0.0303  0.1779  0.4381
  960MOL0     C26633   9.147   6.026   1.055  0.1630  0.6266 -0.4271
  960MOL0     C26634   9.269   5.957   1.048 -0.6251 -1.2126  0.0294
  960MOL0     O26635   9.559   5.865   1.031 -0.9354  0.7715 -0.6418
  960MOL0     C26636   9.563   5.592   0.810 -1.1685 -0.1197 -0.9216
  960MOL0     C26637   9.643   5.494   0.750 -0.1403  0.2693 -0.0814
  960MOL0     N26638  10.329   5.438   0.454 -0.3792 -0.0343  0.4713
  960MOL0     N26639  10.415   5.525   0.395  0.2445 -0.7662  0.4074
  960MOL0     C26640  10.176   6.425   0.917  0.6216  0.0411 -0.4366
  960MOL0     C26641  10.075   6.480   1.009  0.1773  0.4333 -0.1409
  960MOL0     C26642   9.846   6.743   1.265 -0.2918  0.3771 -0.2281
  960MOL0     C26643   9.707   6.708   1.259  0.3503  0.6152  0.7526
  960MOL0     C26644   9.618   6.747   1.357 -0.4732  0.8317 -0.7310
  960MOL0     C26645   9.662   6.804   1.481 -0.7540 -0.4536  0.0360
  960MOL0     O26646   9.598   6.822   1.594  0.6554 -0.2320 -0.2679
  960MOL0     C26647   9.471   6.764   1.605  0.0579  0.1528 -0.9758
  960MOL0     C26648   9.408   6.802   1.730 -0.8704 -0.1281 -0.1716
  960MOL0     C26649   9.389   6.955   1.746  0.1160 -0.3669  0.5011
  960MOL0     C26650   9.288   7.009   1.644  0.2302 -0.2689  0.3001
  960MOL0     C26651   9.162   6.944   1.664 -0.1289 -0.5123 -0.2767
  960MOL0     C26652   9.052   6.889   1.642 -0.2348  0.7280  0.1253
  960MOL0     C26653   9.799   6.825   1.487  0.0010 -0.4512 -0.7536
  960MOL0     C26654   9.891   6.804   1.384  0.0680 -0.0772 -0.4508
  960MOL0     H26655   9.904   6.691   0.814 -1.3470 -1.2005  0.8562
  960MOL0     H26656  10.074   6.599   0.646  0.6987  1.6497  0.3469
  960MOL0     H26657  10.166   6.306   0.588  1.9096 -1.0827 -1.5607
  960MOL0     H26658  10.221   6.235   0.738 -1.1704  1.3397  2.2246
  960MOL0     H26659  10.424   6.183   0.656  4.5247  1.2382 -2.2901
  960MOL0     H26660  10.460   6.336   0.601 -0.9479 -0.3242  4.2990
  960MOL0     H26661  10.459   6.147   0.431 -0.9767 -1.1850 -3.0963
  960MOL0     H26662  10.337   6.261   0.378 -0.1686 -0.7502 -0.4581
  960MOL0     H26663  10.310   6.007   0.542  0.9979  0.5506  0.1498
  960MOL0     H26664  10.175   6.103   0.507  2.2688 -0.4811  3.9726
  960MOL0     H26665  10.307   6.061   0.246  0.5378 -0.4008 -0.2632
  960MOL0     H26666  10.148   6.008   0.303  0.5111  1.4909 -0.7487
  960MOL0     H26667  10.249   5.797   0.387 -0.2499  0.9025  0.7046
  960MOL0     H26668  10.414   5.872   0.385  0.9739 -1.3553 -1.4346
  960MOL0     H26669  10.262   5.801   0.126  3.1442 -3.2113 -4.0787
  960MOL0     H26670  10.426   5.873   0.153  0.2488  1.2201  1.2552
  960MOL0     H26671  10.525   5.683   0.221 -1.0137 -1.9988  0.1745
  960MOL0     H26672  10.422   5.629   0.092 -2.2514  1.5605 -0.3293
  960MOL0     H26673  10.187   5.515   0.159 -1.8513  0.0886  0.9672
  960MOL0     H26674  10.134   5.237   0.412  0.8049  0.2018 -0.9650
  960MOL0     H26675  10.057   5.309   0.282 -2.3258  0.5084  0.6943
  960MOL0     H26676   9.967   5.490   0.431  1.7223  0.6637  0.1110
  960MOL0     H26677  10.059   5.430   0.569 -0.0332  0.5717 -0.6516
  960MOL0     H26678   9.851   5.254   0.423 -0.1538 -0.5348 -0.1253
  960MOL0     H26679   9.962   5.204   0.556 -1.1055  0.0721  1.1038
  960MOL0     H26680   9.730   5.242   0.622  1.9797 -2.0986  0.5101
  960MOL0     H26681   9.741   5.395   0.547 -3.2640 -1.2373  2.1361
  960MOL0     H26682   9.926   5.517   0.944  0.2102 -1.0934  0.5200
  960MOL0     H26683   9.789   5.705   1.027  3.0070 -1.2421 -2.1105
  960MOL0     H26684   9.159   5.700   0.866  0.3851 -0.5293  2.5958
  960MOL0     H26685   8.933   5.828   0.881  1.1275 -2.9469  1.6880
  960MOL0     H26686   8.969   6.240   1.049 -2.2336  1.0519  0.7667
  960MOL0     H26687   8.936   6.145   1.203 -1.9226 -1.3159  0.4802
  960MOL0     H26688   8.743   6.263   1.009 -1.0580 -1.4793  0.2415
  960MOL0     H26689   8.745   6.291   1.191 -1.2301  0.1507 -0.0526
  960MOL0     H26690   8.699   6.029   1.182 -0.8019  0.6928  1.9734
  960MOL0     H26691   8.618   6.061   1.032 -1.1592  0.0253  0.9528
  960MOL0     H26692   8.467   6.068   1.214  0.7202 -1.2712 -1.7567
  960MOL0     H26693   8.575   6.173   1.305  0.7275  0.9285 -1.0833
  960MOL0     H26694   8.539   6.371   1.200 -0.3845  1.2923 -1.5970
  960MOL0     H26695   8.383   6.303   1.245  0.8888  0.9596 -0.3431
  960MOL0     H26696   8.514   6.313   0.975 -0.0184  0.3205 -0.9080
  960MOL0     H26697   8.362   6.392   1.034  3.2886  1.6183 -2.0960
  960MOL0     H26698   8.418   6.109   0.946 -0.6638  1.1150 -2.5248
  960MOL0     H26699   8.295   6.128   1.063  0.3627 -2.0023 -1.5117
  960MOL0     H26700   8.169   6.280   0.906 -1.5320 -1.5111 -0.4391
  960MOL0     H26701   8.203   6.113   0.854  0.1700 -0.7475 -0.2703
  960MOL0     H26702   9.154   6.122   1.104 -0.5256  0.5036 -0.0806
  960MOL0     H26703   9.352   5.999   1.103 -0.1308  1.2378 -2.3831
  960MOL0     H26704   9.461   5.587   0.773 -1.2133  1.9211 -1.1800
  960MOL0     H26705   9.596   5.439   0.669 -1.4469 -1.4592  1.7538
  960MOL0     H26706  10.238   6.342   0.949  0.7218  0.4326  0.4408
  960MOL0     H26707  10.080   6.443   1.111  1.7691  2.1424  0.4731
  960MOL0     H26708   9.660   6.661   1.173 -2.6543 -0.1104  2.6069
  960MOL0     H26709   9.512   6.735   1.334 -0.9245 -3.5239  2.3359
  960MOL0     H26710   9.480   6.655   1.592  2.4368  0.0736  0.6226
  960MOL0     H26711   9.412   6.808   1.524 -0.6692  0.5172 -0.2665
  960MOL0     H26712   9.308   6.759   1.728 -1.3646  0.8700  1.4454
  960MOL0     H26713   9.474   6.764   1.808 -2.0316  1.4125  1.6331
  960MOL0     H26714   9.488   7.001   1.738 -1.3676  2.7963 -2.0920
  960MOL0     H26715   9.359   6.976   1.850  2.4047  0.7978  1.0013
  960MOL0     H26716   9.278   7.117   1.661 -1.6626 -0.2215 -0.8569
  960MOL0     H26717   9.327   6.996   1.542  0.2255  2.1985 -0.0722
  960MOL0     H26718   8.954   6.849   1.624  1.2652 -3.4153  0.0345
  960MOL0     H26719   9.847   6.851   1.581 -1.1539 -0.0692 -0.2533
  960MOL0     H26720   9.993   6.840   1.391  0.1591 -0.6842  3.0607
  961MOL0     O26721   0.472   2.063   0.157  0.1938 -0.4704 -0.1240
  961MOL0     C26722   0.441   1.964   0.094 -0.2693 -0.8047 -0.2171
  961MOL0     O26723   0.507   1.845   0.098  0.0427 -0.9568 -0.8640
  961MOL0     C26724   0.572   1.806   0.210  0.8548 -0.4022 -0.8399
  961MOL0     C26725   0.560   1.843   0.351 -0.5836  0.6058  0.7367
  961MOL0     C26726   0.649   1.790   0.447  1.4537  0.8791  0.1458
  961MOL0     C26727   0.744   1.694   0.422  0.3662  0.8429  0.2682
  961MOL0     O26728   0.833   1.638   0.504 -0.3134  0.6040 -0.4144
  961MOL0     C26729   0.780   1.622   0.641  0.0224 -0.1080 -1.0572
  961MOL0     C26730   0.880   1.542   0.719 -0.7474 -0.0819 -0.1874
  961MOL0     C26731   1.003   1.623   0.769 -0.2625  0.1242  0.4870
  961MOL0     C26732   1.131   1.528   0.775  1.2542  0.4258 -0.1436
  961MOL0     C26733   1.259   1.597   0.785 -0.5528  0.1304  1.0045
  961MOL0     C26734   1.379   1.501   0.802 -0.8781 -0.1939  0.6633
  961MOL0     C26735   1.508   1.579   0.799 -0.6448  0.0614  0.7272
  961MOL0     C26736   1.648   1.504   0.785  0.2362 -0.2065 -0.5557
  961MOL0     N26737   1.755   1.589   0.757 -0.0184 -0.4447 -0.0450
  961MOL0     C26738   1.779   1.655   0.643  0.3161 -0.1347 -0.3603
  961MOL0     C26739   1.884   1.739   0.671 -0.1054 -0.2670 -0.1384
  961MOL0     C26740   1.935   1.834   0.570 -0.1800  0.9454  1.2956
  961MOL0     C26741   2.085   1.799   0.542 -0.2491  0.5723 -0.3130
  961MOL0     C26742   2.097   1.647   0.494 -0.8311  0.1313  0.4756
  961MOL0     C26743   2.244   1.620   0.448  0.3419 -0.1765  0.2795
  961MOL0     O26744   2.324   1.584   0.557 -0.7761  0.3952  0.7397
  961MOL0     C26745   2.453   1.533   0.526  0.0791  0.2682  0.0185
  961MOL0     C26746   2.525   1.510   0.643 -0.6295  0.5053 -0.2233
  961MOL0     C26747   2.663   1.483   0.630  0.0290 -0.3980 -0.0525
  961MOL0     C26748   2.730   1.500   0.511  0.1996 -0.1324  0.2999
  961MOL0     C26749   2.877   1.509   0.514 -1.1140  0.1407 -0.7803
  961MOL0     O26750   2.946   1.440   0.608 -0.1058 -0.9561  0.1259
  961MOL0     C26751   3.071   1.415   0.571  0.4685 -1.1181  0.6984
  961MOL0     C26752   3.110   1.308   0.504 -0.1373  0.4584  1.3039
  961MOL0     C26753   3.250   1.295   0.470  0.7256  0.2389 -0.1933
  961MOL0     C26754   3.350   1.382   0.514 -0.3766  0.2222  0.2916
  961MOL0     O26755   3.479   1.355   0.488  0.7638  0.7588  0.4248
  961MOL0     C26756   3.505   1.365   0.351 -0.0121  0.0108  0.6851
  961MOL0     C26757   3.648   1.393   0.330  0.0088  0.2682  1.0555
  961MOL0     C26758   3.689   1.405   0.181  0.4368  0.0854 -0.6250
  961MOL0     C26759   3.835   1.371   0.158 -0.3949 -0.0570  0.0478
  961MOL0     C26760   3.885   1.435   0.026 -0.4898  0.1088  0.1714
  961MOL0     C26761   4.039   1.434   0.004 -0.4939 -0.2175 -0.1352
  961MOL0     C26762   4.072   1.508  -0.127 -0.3310  0.7522 -0.1127
  961MOL0     C26763   4.218   1.491  -0.162 -0.4174 -0.7259 -0.4752
  961MOL0    Cl26764   4.318   1.608  -0.062  0.1985  0.0784  0.2668
  961MOL0     C26765   3.311   1.485   0.599 -0.0607 -0.3434  0.1472
  961MOL0     C26766   3.165   1.506   0.621  0.5653  0.8718  0.3573
  961MOL0     O26767   2.931   1.553   0.411  0.2531  0.3288  0.8696
  961MOL0     C26768   2.649   1.500   0.395  1.0718  0.2042  0.1579
  961MOL0     C26769   2.507   1.514   0.406 -0.8758  0.3573 -0.0892
  961MOL0     N26770   1.923   1.717   0.798 -0.2230  0.2198  0.4720
  961MOL0     N26771   1.849   1.626   0.849  0.0607  0.7021  0.5123
  961MOL0     C26772   0.753   1.651   0.290 -1.1508 -0.5536  0.0192
  961MOL0     C26773   0.670   1.715   0.186  0.5670  0.2689  0.0140
  961MOL0     C26774   0.326   1.969   0.002  0.3386  0.2078 -0.2467
  961MOL0     C26775   0.265   2.088  -0.030  0.4584 -0.1637  0.0420
  961MOL0     C26776   0.157   2.101  -0.115  0.7628 -0.4042 -0.3305
  961MOL0     C26777   0.086   1.990  -0.154 -0.7209  0.7367  0.3976
  961MOL0     O26778  -0.030   1.998  -0.229  0.6496 -0.1443 -0.2297
  961MOL0     C26779  -0.121   2.081  -0.165 -0.7791 -0.0066  0.5003
  961MOL0     C26780  -0.262   2.059  -0.225 -0.6669 -0.4552  0.1150
  961MOL0     C26781  -0.381   2.118  -0.155 -0.3975  0.3283  0.2884
  961MOL0     C26782  -0.504   2.085  -0.235 -0.3265 -0.4135  0.2598
  961MOL0     C26783  -0.515   2.168  -0.351  0.1074  0.6711  0.5073
  961MOL0     C26784  -0.528   2.221  -0.464 -0.6885  0.3476 -0.2246
  961MOL0     C26785   0.133   1.859  -0.113 -0.1950 -0.2921 -0.3135
  961MOL0     C26786   0.253   1.850  -0.035  0.5566  0.0258 -0.0925
  961MOL0     H26787   0.486   1.917   0.380 -1.8063  0.4755 -1.7930
  961MOL0     H26788   0.638   1.825   0.550 -4.0068 -0.5671  0.3940
  961MOL0     H26789   0.690   1.564   0.619  0.4659 -1.7160  1.0394
  961MOL0     H26790   0.747   1.704   0.706  1.5561 -0.9115  0.8521
  961MOL0     H26791   0.910   1.463   0.650  1.4905  0.7751 -0.3081
  961MOL0     H26792   0.827   1.502   0.806  0.1031 -0.5479  0.1367
  961MOL0     H26793   0.971   1.670   0.862 -3.0127  4.3007 -2.1891
  961MOL0     H26794   1.027   1.701   0.696 -0.6746 -1.0967 -1.0075
  961MOL0     H26795   1.119   1.467   0.865  0.5197 -0.6769 -0.9556
  961MOL0     H26796   1.127   1.455   0.694 -1.0106 -0.2900  0.5234
  961MOL0     H26797   1.244   1.669   0.866  0.8049  2.5282 -0.7387
  961MOL0     H26798   1.286   1.659   0.699  2.3661  1.1844  2.5444
  961MOL0     H26799   1.374   1.437   0.713 -2.8728 -0.4144  0.8876
  961MOL0     H26800   1.377   1.434   0.889 -0.2239  1.1615  1.7711
  961MOL0     H26801   1.502   1.656   0.721  2.1579 -0.1594  0.1736
  961MOL0     H26802   1.518   1.638   0.891 -1.1317  0.6487  0.4077
  961MOL0     H26803   1.652   1.425   0.709 -0.3978 -1.7901  0.9946
  961MOL0     H26804   1.666   1.455   0.881  1.7878  1.6017  0.1488
  961MOL0     H26805   1.723   1.664   0.550  0.8575  1.4361 -0.5658
  961MOL0     H26806   1.932   1.929   0.625 -0.3634  1.8067 -0.1488
  961MOL0     H26807   1.872   1.837   0.481 -0.0287 -1.7979  1.0213
  961MOL0     H26808   2.138   1.819   0.635 -3.8880  0.5412  1.9536
  961MOL0     H26809   2.120   1.876   0.472  3.3379  3.0822  3.7345
  961MOL0     H26810   2.069   1.585   0.580  1.3756 -1.8685 -0.1515
  961MOL0     H26811   2.020   1.637   0.417 -1.0347 -1.5597  0.8604
  961MOL0     H26812   2.275   1.714   0.401  0.2118 -0.2326  0.0770
  961MOL0     H26813   2.241   1.542   0.371  0.1690  1.4641 -1.4692
  961MOL0     H26814   2.476   1.499   0.739  0.7656 -0.4226  0.4175
  961MOL0     H26815   2.727   1.480   0.718  0.1986 -0.6029 -0.1832
  961MOL0     H26816   3.030   1.242   0.471 -1.3451  2.3044  0.3285
  961MOL0     H26817   3.275   1.208   0.411 -0.6881  0.2272 -0.8152
  961MOL0     H26818   3.460   1.458   0.314 -0.2480 -0.8998 -1.4612
  961MOL0     H26819   3.467   1.274   0.305  0.1109  0.6578 -0.7509
  961MOL0     H26820   3.684   1.293   0.352 -1.5095 -0.2172  1.5026
  961MOL0     H26821   3.686   1.476   0.390  1.1172  1.8786 -1.6789
  961MOL0     H26822   3.663   1.506   0.151  0.7570  0.8656  1.5184
  961MOL0     H26823   3.628   1.340   0.118 -1.9879  0.2372  1.4291
  961MOL0     H26824   3.896   1.410   0.240  0.0459 -2.3214  0.8643
  961MOL0     H26825   3.847   1.262   0.155 -1.6201 -0.2422  0.8262
  961MOL0     H26826   3.846   1.537   0.018 -2.5944 -0.4739  2.0398
  961MOL0     H26827   3.841   1.385  -0.060  2.0259 -1.3263 -0.3704
  961MOL0     H26828   4.065   1.328  -0.001 -0.6131 -0.2446 -0.1871
  961MOL0     H26829   4.099   1.485   0.080  2.3761 -0.0919 -2.3175
  961MOL0     H26830   4.006   1.459  -0.200 -0.5775 -2.1934  1.9178
  961MOL0     H26831   4.048   1.614  -0.118 -2.1099  0.3718  0.1280
  961MOL0     H26832   4.240   1.512  -0.267  1.4374  2.1742  0.3883
  961MOL0     H26833   4.242   1.384  -0.153 -3.0002 -1.4046 -0.8530
  961MOL0     H26834   3.388   1.523   0.664  1.4834 -1.7174 -0.7863
  961MOL0     H26835   3.134   1.590   0.683 -1.9277 -1.1983  2.0802
  961MOL0     H26836   2.689   1.494   0.295  2.4419 -0.2196  0.6991
  961MOL0     H26837   2.444   1.527   0.319  0.0499  1.6443 -0.5944
  961MOL0     H26838   0.818   1.573   0.252 -1.1510 -0.4318 -0.2362
  961MOL0     H26839   0.686   1.675   0.086  0.5801  2.2773 -0.8315
  961MOL0     H26840   0.309   2.183  -0.000  0.0792  0.2107 -0.5722
  961MOL0     H26841   0.116   2.200  -0.133  3.8371  1.0104 -0.1862
  961MOL0     H26842  -0.106   2.186  -0.189 -4.5452  0.4400 -0.5207
  961MOL0     H26843  -0.128   2.067  -0.056 -0.7412  0.7144  0.5990
  961MOL0     H26844  -0.258   2.101  -0.326 -0.4787 -0.7604 -0.0038
  961MOL0     H26845  -0.274   1.951  -0.217  4.0585 -1.2516 -0.6358
  961MOL0     H26846  -0.381   2.228  -0.153  0.1745  0.4309 -2.0867
  961MOL0     H26847  -0.377   2.070  -0.057  0.6845 -2.9401 -1.2145
  961MOL0     H26848  -0.495   1.979  -0.262 -0.8708 -0.2849 -0.4348
  961MOL0     H26849  -0.600   2.094  -0.184 -2.0749 -2.7410 -2.3827
  961MOL0     H26850  -0.550   2.281  -0.550 -0.6364  0.3618 -0.2279
  961MOL0     H26851   0.064   1.778  -0.131 -1.0073  0.8788 -2.7748
  961MOL0     H26852   0.305   1.763   0.003  0.9326  0.4103  0.2730
  962MOL0     O26853   2.999   0.086   2.640 -0.3996  0.2507 -0.1224
  962MOL0     C26854   2.995   0.065   2.523  0.2634 -0.4455  0.9718
  962MOL0     O26855   2.880   0.071   2.440  0.0345 -0.6888 -0.1576
  962MOL0     C26856   2.763   0.124   2.490  0.9274  0.4982  0.2510
  962MOL0     C26857   2.745   0.219   2.595 -0.8263 -0.2235  0.2711
  962MOL0     C26858   2.618   0.248   2.651 -0.0025 -0.0043 -0.8792
  962MOL0     C26859   2.499   0.186   2.592 -1.1119 -0.6373  0.2600
  962MOL0     O26860   2.376   0.209   2.644 -0.1377  0.4688 -0.5257
  962MOL0     C26861   2.336   0.346   2.636 -0.1446  0.2492 -0.1499
  962MOL0     C26862   2.194   0.341   2.680  0.1979  1.0372  0.6322
  962MOL0     C26863   2.115   0.474   2.653  0.2986  0.3156 -1.0372
  962MOL0     C26864   1.963   0.465   2.696  0.4663 -0.0702 -0.1069
  962MOL0     C26865   1.896   0.595   2.729  0.0682  0.4456 -0.5265
  962MOL0     C26866   1.944   0.683   2.853  0.2031 -0.2783 -0.3331
  962MOL0     C26867   1.920   0.624   2.994 -0.2524 -0.4322 -0.2868
  962MOL0     C26868   1.780   0.574   3.026  0.2348  0.7860  0.1790
  962MOL0     N26869   1.759   0.580   3.170  1.1779  0.1695 -0.8337
  962MOL0     C26870   1.690   0.680   3.230 -0.1067 -0.1363 -0.6671
  962MOL0     C26871   1.683   0.638   3.360  0.4773  1.1710  0.2559
  962MOL0     C26872   1.597   0.710   3.472 -0.0426 -0.4426  0.1151
  962MOL0     C26873   1.481   0.616   3.509 -0.2597 -0.9634  0.3878
  962MOL0     C26874   1.376   0.602   3.391 -0.2437  0.1261 -0.4303
  962MOL0     C26875   1.259   0.519   3.441  0.3052  0.8981 -0.3661
  962MOL0     O26876   1.201   0.425   3.350  0.7469  0.4061 -0.6319
  962MOL0     C26877   1.077   0.455   3.296  0.7559 -0.2457  1.3751
  962MOL0     C26878   1.031   0.584   3.261  0.2605  0.6846  0.6281
  962MOL0     C26879   0.914   0.608   3.183 -0.1200  0.2472 -0.3672
  962MOL0     C26880   0.841   0.498   3.135 -0.3748 -0.6367  1.4952
  962MOL0     C26881   0.719   0.513   3.051 -0.9553  0.6005 -1.2200
  962MOL0     O26882   0.638   0.394   3.046  0.2947 -0.9104  0.4403
  962MOL0     C26883   0.502   0.403   3.010 -0.5518 -0.1943  0.0191
  962MOL0     C26884   0.430   0.288   2.961 -0.5324  0.0926  0.1961
  962MOL0     C26885   0.291   0.277   2.938 -1.2208  0.1339  0.2365
  962MOL0     C26886   0.217   0.395   2.952  0.4880  0.7200 -0.5512
  962MOL0     O26887   0.085   0.390   2.927  0.4735 -0.4180  0.6105
  962MOL0     C26888   0.024   0.507   2.860  0.8682 -0.6721 -0.8087
  962MOL0     C26889  -0.118   0.470   2.805  0.7291  0.3225 -0.3126
  962MOL0     C26890  -0.204   0.428   2.929  0.1719 -0.7199 -0.2930
  962MOL0     C26891  -0.343   0.414   2.873  0.1193  1.2744  0.0304
  962MOL0     C26892  -0.446   0.374   2.975 -0.0097  0.6075 -0.5049
  962MOL0     C26893  -0.579   0.357   2.911 -0.1494 -0.3930  0.3096
  962MOL0     C26894  -0.693   0.311   3.005  0.4410 -0.0645  0.0080
  962MOL0     C26895  -0.810   0.268   2.919 -0.1274 -0.5847 -0.4955
  962MOL0    Cl26896  -0.811   0.088   2.906 -0.1106 -0.2734  0.5520
  962MOL0     C26897   0.280   0.508   3.002 -0.3582  0.7320 -0.5795
  962MOL0     C26898   0.417   0.514   3.031 -0.4789 -0.1674 -0.0800
  962MOL0     O26899   0.686   0.628   3.001  0.0105 -0.0694 -0.0820
  962MOL0     C26900   0.893   0.371   3.153  0.1683 -0.4146  0.3153
  962MOL0     C26901   1.009   0.352   3.237 -0.1851  0.2068  0.5419
  962MOL0     N26902   1.768   0.522   3.378 -0.2209 -0.3665 -0.1000
  962MOL0     N26903   1.800   0.481   3.258  0.3655  0.2729 -0.2490
  962MOL0     C26904   2.520   0.101   2.482 -0.2553  0.8382  0.3518
  962MOL0     C26905   2.649   0.069   2.431  0.5236  0.2442 -0.2677
  962MOL0     C26906   3.118   0.007   2.453  0.4768  0.0312 -0.1087
  962MOL0     C26907   3.232  -0.023   2.526 -1.0810  0.2645  0.4103
  962MOL0     C26908   3.350  -0.062   2.459  0.5731 -0.0524 -0.6395
  962MOL0     C26909   3.348  -0.098   2.327 -0.1071  0.9755 -0.3160
  962MOL0     O26910   3.467  -0.154   2.274 -0.3684  0.5304 -0.7153
  962MOL0     C26911   3.499  -0.178   2.139  0.5576 -0.1199 -0.5710
  962MOL0     C26912   3.524  -0.327   2.130 -0.1163 -0.3309 -0.4060
  962MOL0     C26913   3.410  -0.420   2.179 -0.5756 -0.3624  1.0062
  962MOL0     C26914   3.486  -0.552   2.202 -0.5276 -0.7749  0.6030
  962MOL0     C26915   3.405  -0.669   2.221 -0.4595  0.0633 -0.2395
  962MOL0     C26916   3.334  -0.763   2.220  0.4542  0.0394 -0.5578
  962MOL0     C26917   3.228  -0.094   2.257  0.3399 -0.9782  0.6366
  962MOL0     C26918   3.114  -0.046   2.320  0.7589 -0.1275 -1.5300
  962MOL0     H26919   2.822   0.259   2.660 -0.4465  1.2898 -1.0307
  962MOL0     H26920   2.612   0.322   2.731 -0.2393  1.4524 -2.1789
  962MOL0     H26921   2.322   0.383   2.534  0.5295  0.9568  0.0033
  962MOL0     H26922   2.396   0.416   2.696 -0.0842  1.3163 -1.4120
  962MOL0     H26923   2.196   0.341   2.789  1.2398 -0.5760  0.6520
  962MOL0     H26924   2.147   0.250   2.641  2.8040 -0.0836 -0.1030
  962MOL0     H26925   2.120   0.510   2.549  2.2672  1.0048 -0.7468
  962MOL0     H26926   2.170   0.551   2.708 -0.4037 -1.2869  2.1133
  962MOL0     H26927   1.897   0.422   2.620 -1.2244  1.1061  0.6417
  962MOL0     H26928   1.954   0.403   2.785 -2.2732 -1.7736 -1.4495
  962MOL0     H26929   1.789   0.575   2.746 -1.1009 -0.0674 -6.4617
  962MOL0     H26930   1.904   0.660   2.641  0.6682  2.4771  0.9537
  962MOL0     H26931   1.887   0.776   2.846 -0.5048 -0.2963  3.1756
  962MOL0     H26932   2.051   0.700   2.844  0.7166 -1.9620  1.7661
  962MOL0     H26933   1.987   0.539   3.004 -0.3806 -0.5956 -0.7979
  962MOL0     H26934   1.945   0.695   3.073 -2.1098  1.6072 -1.3999
  962MOL0     H26935   1.770   0.475   2.980 -0.1624  1.9553 -2.4110
  962MOL0     H26936   1.704   0.634   2.975 -0.1117 -1.1166 -1.7096
  962MOL0     H26937   1.650   0.771   3.186  1.8546  1.1006 -0.0326
  962MOL0     H26938   1.570   0.813   3.445 -1.1042 -0.7245  0.0938
  962MOL0     H26939   1.670   0.718   3.553  1.1859  0.9090 -1.0470
  962MOL0     H26940   1.435   0.659   3.598  1.1434  2.8911 -0.5456
  962MOL0     H26941   1.531   0.523   3.537  1.3000  0.0289  1.0544
  962MOL0     H26942   1.325   0.696   3.369 -1.3405  0.1269  1.8553
  962MOL0     H26943   1.433   0.569   3.304  1.8608  2.5588 -0.1045
  962MOL0     H26944   1.184   0.590   3.478 -2.4447 -2.0441  0.1474
  962MOL0     H26945   1.288   0.463   3.531 -0.2195 -0.2761 -0.9145
  962MOL0     H26946   1.096   0.669   3.277  2.4177 -0.5898 -0.8854
  962MOL0     H26947   0.895   0.710   3.150  0.9518 -0.4852 -3.5436
  962MOL0     H26948   0.499   0.204   2.953 -1.0647 -0.3780  0.4923
  962MOL0     H26949   0.238   0.191   2.898  1.8682 -2.0185  0.4158
  962MOL0     H26950   0.090   0.559   2.790  0.6306  1.3513  0.3891
  962MOL0     H26951  -0.001   0.587   2.931  1.6786 -0.8272 -0.3396
  962MOL0     H26952  -0.111   0.386   2.736 -0.2823  0.2216 -0.3007
  962MOL0     H26953  -0.161   0.555   2.751  1.7522  1.0326 -0.0384
  962MOL0     H26954  -0.186   0.497   3.012  1.4984 -0.8683 -0.4281
  962MOL0     H26955  -0.157   0.333   2.959  1.9919 -0.1322 -1.1729
  962MOL0     H26956  -0.376   0.510   2.832 -1.3812  0.7681 -0.0107
  962MOL0     H26957  -0.340   0.338   2.794 -2.2312 -1.8071  2.6741
  962MOL0     H26958  -0.456   0.438   3.063  0.0648 -0.1475  0.0691
  962MOL0     H26959  -0.415   0.281   3.025 -0.2747  1.2219  0.8472
  962MOL0     H26960  -0.572   0.285   2.828  0.7078 -0.0311  0.0522
  962MOL0     H26961  -0.603   0.452   2.863  2.1158 -1.7010 -3.9519
  962MOL0     H26962  -0.661   0.234   3.077 -1.8306 -0.7755  0.3495
  962MOL0     H26963  -0.719   0.396   3.067  2.5955 -0.2648  1.3121
  962MOL0     H26964  -0.797   0.318   2.822  0.0691 -1.0727 -0.7244
  962MOL0     H26965  -0.902   0.312   2.957  0.8846  0.1261  1.2692
  962MOL0     H26966   0.218   0.596   3.008  1.4816  1.9725  2.0417
  962MOL0     H26967   0.452   0.613   3.059 -0.9958 -0.3013  1.1308
  962MOL0     H26968   0.847   0.283   3.110 -0.6648 -0.8245  1.9634
  962MOL0     H26969   1.056   0.254   3.244 -0.4752  0.0685  0.6041
  962MOL0     H26970   2.433   0.059   2.433  1.9368 -5.6432  0.9643
  962MOL0     H26971   2.658  -0.006   2.353  2.5359  0.9938 -0.8277
  962MOL0     H26972   3.248  -0.005   2.632 -1.7183 -1.1785  0.7742
  962MOL0     H26973   3.443  -0.067   2.515 -0.1686 -0.1352  0.6183
  962MOL0     H26974   3.590  -0.123   2.113 -0.0785  0.5281 -1.5059
  962MOL0     H26975   3.422  -0.147   2.067  0.8108 -2.1993 -1.8046
  962MOL0     H26976   3.540  -0.348   2.024  2.7409 -2.3442  0.3039
  962MOL0     H26977   3.614  -0.346   2.190 -1.8765  0.8218  2.8752
  962MOL0     H26978   3.326  -0.420   2.109 -0.5103  1.0116  0.8917
  962MOL0     H26979   3.363  -0.381   2.270  4.9511  1.9674  3.3097
  962MOL0     H26980   3.558  -0.558   2.119  2.4154  0.3562  2.9222
  962MOL0     H26981   3.543  -0.539   2.294 -0.6629  1.2397  0.4489
  962MOL0     H26982   3.288  -0.858   2.237  1.6379 -0.3196  0.7701
  962MOL0     H26983   3.232  -0.117   2.151  3.5606 -0.2503  0.5043
  962MOL0     H26984   3.031  -0.012   2.259  1.3793 -1.5293 -3.2575
  963MOL0     O26985   5.050   8.315   0.845 -0.3002  0.6264  0.3838
  963MOL0     C26986   5.106   8.347   0.951 -0.5248  0.2141  0.3893
  963MOL0     O26987   5.053   8.327   1.074  0.6826  0.0225 -0.4281
  963MOL0     C26988   4.946   8.240   1.095 -0.2268 -0.1166 -0.2584
  963MOL0     C26989   4.840   8.286   1.166 -0.0301 -0.4856 -0.3072
  963MOL0     C26990   4.732   8.207   1.193  0.0055  0.5147 -0.2491
  963MOL0     C26991   4.736   8.073   1.147  0.3098 -0.8597  0.5560
  963MOL0     O26992   4.624   8.006   1.183 -0.1847  0.2345  0.4405
  963MOL0     C26993   4.629   7.864   1.150 -0.0377 -0.2944 -0.2030
  963MOL0     C26994   4.521   7.788   1.244 -0.2250  0.6371  0.3704
  963MOL0     C26995   4.524   7.809   1.396 -0.2943  0.5919  0.8052
  963MOL0     C26996   4.630   7.724   1.463  0.6109 -0.2927 -0.0118
  963MOL0     C26997   4.603   7.731   1.618 -0.6376  0.5712 -0.5055
  963MOL0     C26998   4.497   7.631   1.660 -0.0628 -0.1375 -0.1469
  963MOL0     C26999   4.532   7.553   1.798 -0.6144  0.2320  0.4325
  963MOL0     C27000   4.441   7.427   1.811  0.1089 -0.2781 -0.3136
  963MOL0     N27001   4.468   7.352   1.941 -0.4458  0.1198  0.3141
  963MOL0     C27002   4.428   7.377   2.068  0.6660  0.2170 -0.0211
  963MOL0     C27003   4.426   7.259   2.143 -0.5652 -0.0911 -0.2103
  963MOL0     C27004   4.392   7.227   2.297 -0.6493  0.2936  0.5558
  963MOL0     C27005   4.254   7.155   2.309 -0.5190  0.0760 -0.0935
  963MOL0     C27006   4.213   7.169   2.460  0.4313  0.4996 -0.9492
  963MOL0     C27007   4.076   7.093   2.482  0.6386  0.2704  0.0284
  963MOL0     O27008   3.979   7.183   2.427 -0.2128  0.2150  0.0492
  963MOL0     C27009   3.851   7.151   2.471 -0.4968 -0.7281 -0.0783
  963MOL0     C27010   3.757   7.237   2.420 -0.4818  0.5170 -0.8029
  963MOL0     C27011   3.620   7.231   2.453  0.3589  0.6616  0.1153
  963MOL0     C27012   3.567   7.120   2.529  0.6254 -0.3731 -0.5478
  963MOL0     C27013   3.431   7.112   2.581  0.3659  0.7483 -0.3736
  963MOL0     O27014   3.342   7.208   2.561 -0.2974  0.3092  0.7406
  963MOL0     C27015   3.219   7.207   2.618  0.2130  1.0599 -0.1061
  963MOL0     C27016   3.114   7.127   2.562 -0.0454  0.2179 -0.8226
  963MOL0     C27017   2.986   7.127   2.615 -0.3224 -0.3580  0.4451
  963MOL0     C27018   2.964   7.203   2.730  0.6104  0.0242  0.2494
  963MOL0     O27019   2.839   7.186   2.782  0.3830  0.2414 -0.2023
  963MOL0     C27020   2.821   7.255   2.906 -0.8020 -0.0833 -0.2782
  963MOL0     C27021   2.680   7.234   2.962  0.4305 -0.0535 -0.3466
  963MOL0     C27022   2.567   7.205   2.862  0.1364  0.0204 -0.1629
  963MOL0     C27023   2.429   7.237   2.931  0.2987  1.3118  0.8734
  963MOL0     C27024   2.387   7.135   3.033 -0.5159  0.5587 -0.6812
  963MOL0     C27025   2.272   7.192   3.117 -0.2747 -0.3919 -0.7241
  963MOL0     C27026   2.146   7.198   3.030 -0.3419 -0.6234 -0.1649
  963MOL0     C27027   2.008   7.179   3.103 -0.0294 -0.9044  0.3775
  963MOL0    Cl27028   1.958   7.355   3.166 -0.1606 -0.2069  0.4659
  963MOL0     C27029   3.069   7.282   2.788  0.8159 -0.0485  0.3495
  963MOL0     C27030   3.191   7.290   2.723 -0.4076  0.7422 -0.2417
  963MOL0     O27031   3.403   7.008   2.646 -0.4514  0.4889  0.4937
  963MOL0     C27032   3.659   7.030   2.580  0.0903  0.5416  0.4791
  963MOL0     C27033   3.797   7.043   2.553  0.0728  0.8069  0.1058
  963MOL0     N27034   4.470   7.162   2.048  0.4217  0.2873  0.1638
  963MOL0     N27035   4.495   7.216   1.937 -0.0810 -0.6358  0.2926
  963MOL0     C27036   4.844   8.028   1.068  0.0632 -0.1870 -0.1764
  963MOL0     C27037   4.947   8.109   1.045 -0.5193 -0.6491  0.6388
  963MOL0     C27038   5.240   8.399   0.939 -0.0654 -0.0583 -0.4894
  963MOL0     C27039   5.312   8.433   1.055 -0.5868 -0.4929 -0.1283
  963MOL0     C27040   5.444   8.483   1.039  0.5493  0.4835  0.6626
  963MOL0     C27041   5.501   8.496   0.909 -0.4994 -0.1668 -0.1651
  963MOL0     O27042   5.624   8.556   0.881 -0.6149  0.0895  0.8112
  963MOL0     C27043   5.714   8.582   0.992 -0.5478 -0.7602 -0.5580
  963MOL0     C27044   5.853   8.561   0.954 -0.0334  0.2431  0.0872
  963MOL0     C27045   5.943   8.609   1.065 -0.5661 -0.3398 -1.1616
  963MOL0     C27046   6.081   8.644   1.015 -0.6564  0.6311  0.3171
  963MOL0     C27047   6.145   8.522   0.950  0.8225 -0.3896 -0.0663
  963MOL0     C27048   6.191   8.407   0.925  0.8702 -0.7745  0.1466
  963MOL0     C27049   5.430   8.446   0.804 -0.2844  0.2070 -0.1915
  963MOL0     C27050   5.309   8.400   0.817  0.0355  0.8948  0.6644
  963MOL0     H27051   4.844   8.388   1.202  1.7108 -0.8684  0.6989
  963MOL0     H27052   4.641   8.243   1.241 -1.3665 -1.3273 -1.3422
  963MOL0     H27053   4.727   7.824   1.180  0.3385  0.4822 -0.3778
  963MOL0     H27054   4.613   7.845   1.044  0.1668  1.5278 -0.5788
  963MOL0     H27055   4.536   7.682   1.222  2.9590  0.6493  2.0466
  963MOL0     H27056   4.423   7.809   1.199  0.1519 -1.1607 -1.4414
  963MOL0     H27057   4.427   7.772   1.431 -0.7280  0.3476 -0.6080
  963MOL0     H27058   4.530   7.918   1.407  0.5247  0.7592 -0.9342
  963MOL0     H27059   4.621   7.621   1.427 -5.2051 -1.1632  2.8150
  963MOL0     H27060   4.732   7.757   1.442  0.6106  1.0627  1.7952
  963MOL0     H27061   4.578   7.834   1.644  2.1849  1.4382 -0.9069
  963MOL0     H27062   4.694   7.710   1.674 -1.0887  1.6506  0.6884
  963MOL0     H27063   4.487   7.554   1.583 -1.1941 -1.0813  0.8951
  963MOL0     H27064   4.400   7.676   1.680 -0.2782 -1.2981  1.6957
  963MOL0     H27065   4.633   7.509   1.798 -0.1514  1.1861 -1.5254
  963MOL0     H27066   4.536   7.616   1.887  2.7453  1.2955 -0.2974
  963MOL0     H27067   4.452   7.362   1.723  0.1753 -1.0961  0.2875
  963MOL0     H27068   4.334   7.452   1.811 -0.2422 -1.6734 -0.1352
  963MOL0     H27069   4.385   7.472   2.098 -0.6807 -1.2124  2.9311
  963MOL0     H27070   4.388   7.322   2.350 -0.8623  0.7573 -0.2833
  963MOL0     H27071   4.469   7.158   2.332 -0.3150  1.0885  1.4223
  963MOL0     H27072   4.262   7.051   2.276 -2.5004  0.4058 -1.8299
  963MOL0     H27073   4.181   7.211   2.249  0.9644  2.4444  0.1594
  963MOL0     H27074   4.289   7.138   2.531 -0.2472  0.0014 -0.4354
  963MOL0     H27075   4.196   7.276   2.479 -1.1567  0.0705  0.2490
  963MOL0     H27076   4.059   7.071   2.588 -2.4975 -0.7307 -0.5527
  963MOL0     H27077   4.082   6.994   2.436  1.9021  0.0541  0.6174
  963MOL0     H27078   3.806   7.319   2.369 -0.9939  0.9707 -0.5645
  963MOL0     H27079   3.551   7.306   2.418  1.0928  0.3466 -2.2474
  963MOL0     H27080   3.131   7.065   2.475 -1.0008 -1.5433  0.2057
  963MOL0     H27081   2.911   7.060   2.575 -0.6445  0.1515  0.1922
  963MOL0     H27082   2.834   7.360   2.880 -2.4974 -0.2321 -1.9611
  963MOL0     H27083   2.897   7.224   2.978  1.6484 -0.2134 -2.7200
  963MOL0     H27084   2.634   7.318   3.016  2.2744  0.8987 -0.1684
  963MOL0     H27085   2.688   7.159   3.041  2.9028  1.4632  0.9856
  963MOL0     H27086   2.569   7.098   2.840 -0.6791 -0.4320  1.7113
  963MOL0     H27087   2.579   7.255   2.766 -0.0818 -0.9708 -0.7134
  963MOL0     H27088   2.426   7.343   2.958  3.1408  1.9842 -0.9250
  963MOL0     H27089   2.355   7.235   2.851  2.1075  0.5979 -0.8963
  963MOL0     H27090   2.453   7.124   3.118 -1.4877  0.6485  0.1085
  963MOL0     H27091   2.374   7.039   2.981  1.3063 -0.5128  0.7584
  963MOL0     H27092   2.304   7.293   3.145 -0.8433 -0.4767  0.3004
  963MOL0     H27093   2.257   7.134   3.208 -0.2630 -1.3315 -1.3169
  963MOL0     H27094   2.152   7.289   2.971 -2.1305  0.2442  0.8853
  963MOL0     H27095   2.156   7.113   2.962 -3.2818 -2.0913  1.0113
  963MOL0     H27096   2.005   7.103   3.181  0.9471 -0.7874  0.5343
  963MOL0     H27097   1.937   7.149   3.026  0.3839  1.8661 -1.2154
  963MOL0     H27098   3.051   7.341   2.878 -3.8146  1.0619 -1.0381
  963MOL0     H27099   3.268   7.355   2.762 -0.2633  1.9769 -2.4459
  963MOL0     H27100   3.627   6.951   2.648  3.7610 -1.5692  0.0154
  963MOL0     H27101   3.868   6.982   2.609 -1.3042  0.0731  1.1205
  963MOL0     H27102   4.843   7.921   1.050  1.6265 -0.4795  1.3005
  963MOL0     H27103   5.032   8.064   0.995 -0.9203  0.8338 -1.4841
  963MOL0     H27104   5.259   8.431   1.150  0.4427  1.1946  0.5184
  963MOL0     H27105   5.503   8.519   1.123  0.1581 -2.7226  2.4566
  963MOL0     H27106   5.692   8.508   1.070  1.4470  0.6620  1.4583
  963MOL0     H27107   5.697   8.685   1.022 -2.8828 -1.2422  0.0131
  963MOL0     H27108   5.881   8.459   0.929 -1.2076 -0.4837  1.5857
  963MOL0     H27109   5.870   8.620   0.863  2.2567  0.4602  0.6015
  963MOL0     H27110   5.950   8.542   1.150 -3.3605 -0.1895 -0.7076
  963MOL0     H27111   5.911   8.702   1.114  0.5085 -0.6538  0.1898
  963MOL0     H27112   6.085   8.733   0.952  2.6778  0.3304 -0.0783
  963MOL0     H27113   6.150   8.670   1.095 -0.2149  1.9779 -0.4681
  963MOL0     H27114   6.221   8.305   0.914 -2.7196 -2.2445  2.1052
  963MOL0     H27115   5.474   8.432   0.706  2.7463 -0.7678  1.1615
  963MOL0     H27116   5.266   8.374   0.721  2.5913  0.3851 -0.4259
  964MOL0     O27117  11.207  11.288   9.337  0.2270  0.1267 -0.4465
  964MOL0     C27118  11.160  11.232   9.236 -0.2501 -0.3942  0.7212
  964MOL0     O27119  11.037  11.197   9.223 -0.0725  0.1222  0.3952
  964MOL0     C27120  10.949  11.205   9.329  0.9573  0.2810 -0.0624
  964MOL0     C27121  10.930  11.086   9.397 -0.4623  0.7040  1.0863
  964MOL0     C27122  10.855  11.063   9.506  0.4568 -0.1201 -0.4022
  964MOL0     C27123  10.788  11.179   9.557 -0.3420  0.0309  0.7722
  964MOL0     O27124  10.691  11.179   9.653  0.2058  0.0441  0.2714
  964MOL0     C27125  10.663  11.049   9.711 -0.1663 -0.4407  0.4059
  964MOL0     C27126  10.586  11.078   9.849 -0.1223  0.4933  0.9998
  964MOL0     C27127  10.439  11.078   9.820 -0.4237 -0.5904  0.9457
  964MOL0     C27128  10.370  11.126   9.944 -1.2761  0.0099 -0.6023
  964MOL0     C27129  10.239  11.053   9.968  0.6355 -0.6836 -0.4849
  964MOL0     C27130  10.132  11.104   9.871 -0.6328 -0.0399  0.0944
  964MOL0     C27131   9.992  11.036   9.880  0.2139 -0.2462 -0.4179
  964MOL0     C27132   9.902  11.063   9.765 -0.2651 -0.4667 -0.0777
  964MOL0     N27133   9.759  11.046   9.786  0.6930 -0.0815 -0.6746
  964MOL0     C27134   9.670  11.154   9.798 -0.1861 -0.0221  0.1375
  964MOL0     C27135   9.560  11.120   9.728 -0.3175 -0.0503 -0.7102
  964MOL0     C27136   9.442  11.192   9.696  0.0144 -0.6578 -0.4968
  964MOL0     C27137   9.344  11.220   9.805  0.2239  0.1082 -0.4315
  964MOL0     C27138   9.387  11.310   9.914 -0.2820  0.9941 -0.5342
  964MOL0     C27139   9.412  11.447   9.881 -0.4311 -0.8097 -0.9019
  964MOL0     O27140   9.492  11.507   9.988  0.2949 -0.2659 -0.2495
  964MOL0     C27141   9.623  11.474  10.017  0.0698 -0.0888 -0.0288
  964MOL0     C27142   9.735  11.473   9.930 -0.8827 -0.2602  0.3825
  964MOL0     C27143   9.864  11.451   9.974  0.0411 -0.7656 -0.1028
  964MOL0     C27144   9.886  11.425  10.107 -0.9157  0.5884  0.0329
  964MOL0     C27145  10.017  11.397  10.160  0.5650  0.1247  0.7220
  964MOL0     O27146  10.041  11.400  10.293  0.2846 -0.0424 -0.3388
  964MOL0     C27147  10.165  11.339  10.329 -0.6560  0.3853 -0.0820
  964MOL0     C27148  10.177  11.197  10.332  0.2339 -0.2068  0.0982
  964MOL0     C27149  10.297  11.143  10.354 -0.0377 -0.2657  0.1115
  964MOL0     C27150  10.415  11.213  10.379 -1.1296  0.2746  0.2910
  964MOL0     O27151  10.527  11.136  10.392 -0.7215 -0.7803  0.4480
  964MOL0     C27152  10.650  11.196  10.345 -0.6077  0.5752  0.9477
  964MOL0     C27153  10.766  11.122  10.407 -0.2607 -0.0627  0.3548
  964MOL0     C27154  10.798  10.983  10.343  0.0950  0.1082 -0.6756
  964MOL0     C27155  10.926  10.928  10.410  0.5363  0.6261 -0.4388
  964MOL0     C27156  11.056  11.004  10.368 -0.4862  0.5146  0.0438
  964MOL0     C27157  11.180  10.967  10.449  0.6110  0.0992 -0.0538
  964MOL0     C27158  11.315  11.022  10.395  0.3823  0.8047  0.2774
  964MOL0     C27159  11.433  10.978  10.493 -0.4181 -0.9910  0.4233
  964MOL0    Cl27160  11.586  11.051  10.433  0.2723 -0.3475  0.5444
  964MOL0     C27161  10.405  11.350  10.388  1.0056 -0.4318  0.0177
  964MOL0     C27162  10.277  11.416  10.358  0.1643  0.0341  0.4537
  964MOL0     O27163  10.100  11.367  10.067  0.6368  0.1467 -0.8962
  964MOL0     C27164   9.782  11.414  10.202 -0.1055 -0.3115  0.4428
  964MOL0     C27165   9.655  11.446  10.146  0.2898  1.1791 -0.4871
  964MOL0     N27166   9.580  10.988   9.682  0.4409 -0.1167  0.0255
  964MOL0     N27167   9.694  10.947   9.711  0.0813 -0.1766  0.4682
  964MOL0     C27168  10.805  11.307   9.493  0.1660 -0.7352 -0.4856
  964MOL0     C27169  10.888  11.323   9.377 -0.8753 -0.4079 -0.2084
  964MOL0     C27170  11.258  11.216   9.115  0.3378 -0.2576 -0.5190
  964MOL0     C27171  11.378  11.293   9.123  0.3408 -0.2274  0.3599
  964MOL0     C27172  11.473  11.279   9.028 -0.0652 -0.0067  0.2143
  964MOL0     C27173  11.456  11.189   8.920 -0.5063 -0.4758  0.1332
  964MOL0     O27174  11.546  11.165   8.818  0.1034 -0.0157 -0.1662
  964MOL0     C27175  11.671  11.226   8.803  0.0118  0.0922 -0.9160
  964MOL0     C27176  11.795  11.152   8.856  0.2990  0.0542 -0.7704
  964MOL0     C27177  11.794  11.136   9.011  0.4968  0.4640 -0.6781
  964MOL0     C27178  11.933  11.076   9.055 -0.8760 -0.4567  0.1535
  964MOL0     C27179  12.053  11.144   9.009  0.8824 -1.1674 -0.5620
  964MOL0     C27180  12.138  11.212   8.957 -0.2581 -1.0914  0.3317
  964MOL0     C27181  11.334  11.117   8.912  0.8991  0.0633  0.2278
  964MOL0     C27182  11.232  11.138   9.007  0.0467 -0.2450  1.3365
  964MOL0     H27183  10.983  11.002   9.356 -0.0902  0.9614  1.0340
  964MOL0     H27184  10.858  10.969   9.561  0.7888  1.3135  2.1624
  964MOL0     H27185  10.758  11.000   9.736  0.1499 -0.4563 -0.7804
  964MOL0     H27186  10.600  10.982   9.653  0.0942  1.7895 -2.6905
  964MOL0     H27187  10.608  11.180   9.881 -2.3954  2.0313 -1.8344
  964MOL0     H27188  10.619  11.011   9.929 -1.4574  1.3622  2.3404
  964MOL0     H27189  10.416  10.973   9.800  1.7093 -0.7349 -1.3030
  964MOL0     H27190  10.416  11.135   9.729 -0.2474 -1.1592  0.5368
  964MOL0     H27191  10.422  11.121  10.040  0.4230  2.5478 -1.3031
  964MOL0     H27192  10.357  11.234   9.946  2.0290  0.5511 -1.9436
  964MOL0     H27193  10.207  11.075  10.070  0.8093 -3.7074  0.3345
  964MOL0     H27194  10.244  10.944   9.960 -0.7411 -0.9315  1.4756
  964MOL0     H27195  10.173  11.081   9.773 -0.8658 -0.7588  0.1608
  964MOL0     H27196  10.121  11.213   9.879 -3.4042 -0.3401  2.3874
  964MOL0     H27197  10.009  10.929   9.897  2.3953  0.1867  0.4814
  964MOL0     H27198   9.943  11.076   9.969  0.0651  0.7086 -0.9213
  964MOL0     H27199   9.938  10.998   9.684  0.1124 -0.6390  0.2285
  964MOL0     H27200   9.918  11.163   9.724 -0.0343 -0.4217  0.1185
  964MOL0     H27201   9.696  11.253   9.834 -0.0175 -0.0733  0.1622
  964MOL0     H27202   9.382  11.138   9.622 -1.7873  1.2702 -0.5696
  964MOL0     H27203   9.473  11.288   9.653  3.0821 -1.0398  0.6562
  964MOL0     H27204   9.326  11.120   9.846 -0.8461 -0.2056 -1.5959
  964MOL0     H27205   9.256  11.261   9.754  1.4838  1.0061 -1.9775
  964MOL0     H27206   9.322  11.298  10.001 -0.9701  1.5917 -0.9567
  964MOL0     H27207   9.479  11.262   9.950 -0.7031  0.9714  0.5286
  964MOL0     H27208   9.313  11.492   9.874 -1.9381 -3.6560  0.2537
  964MOL0     H27209   9.470  11.454   9.789  0.6005 -0.2261 -0.2355
  964MOL0     H27210   9.708  11.496   9.828  1.3119  2.2496  0.2489
  964MOL0     H27211   9.939  11.467   9.897  0.2422 -1.2910 -0.0191
  964MOL0     H27212  10.096  11.129  10.307 -0.3870 -0.1838  1.8881
  964MOL0     H27213  10.298  11.035  10.345 -1.9473 -0.2961 -0.0990
  964MOL0     H27214  10.653  11.304  10.363 -0.0502  0.4523  1.6315
  964MOL0     H27215  10.655  11.177  10.238 -2.6497  0.0948  0.9102
  964MOL0     H27216  10.757  11.112  10.516  1.2380  1.4741  0.6573
  964MOL0     H27217  10.843  11.198  10.391  1.2531 -2.2849 -4.8594
  964MOL0     H27218  10.816  11.004  10.238 -2.2386 -3.4413 -1.9493
  964MOL0     H27219  10.722  10.909  10.370  0.7765  0.4529  2.6879
  964MOL0     H27220  10.926  10.926  10.520 -1.8841  1.7462 -0.3420
  964MOL0     H27221  10.942  10.825  10.377 -0.2713  1.1561 -2.6585
  964MOL0     H27222  11.029  11.110  10.372 -0.6718  0.8453 -4.6897
  964MOL0     H27223  11.067  10.971  10.265 -0.7027  2.4937 -0.6512
  964MOL0     H27224  11.180  10.858  10.445 -0.5019  0.0803  0.2177
  964MOL0     H27225  11.169  10.989  10.556 -1.1866 -3.9508  0.7851
  964MOL0     H27226  11.318  10.979  10.294  2.3544 -1.2783  1.1422
  964MOL0     H27227  11.303  11.130  10.378 -0.6001  0.3558 -2.4322
  964MOL0     H27228  11.448  10.870  10.506  2.5476 -0.7674 -0.3611
  964MOL0     H27229  11.414  11.021  10.591  0.7682  1.1995 -0.2410
  964MOL0     H27230  10.490  11.411  10.417  1.3006  0.1943 -2.0323
  964MOL0     H27231  10.264  11.524  10.352  2.9842  0.3836 -0.8610
  964MOL0     H27232   9.794  11.398  10.308 -0.5362  3.1285  1.1086
  964MOL0     H27233   9.568  11.449  10.211 -1.6907 -2.7159 -2.5275
  964MOL0     H27234  10.754  11.393   9.536  0.9988  0.2842 -1.5019
  964MOL0     H27235  10.901  11.415   9.320 -1.0869 -0.1317  0.1895
  964MOL0     H27236  11.393  11.365   9.203  1.6622 -0.9790  0.8205
  964MOL0     H27237  11.570  11.321   9.054  0.3704  0.3752 -1.8361
  964MOL0     H27238  11.676  11.325   8.850 -0.1917 -1.4278  2.6192
  964MOL0     H27239  11.681  11.237   8.695  2.0605  0.2843 -0.7574
  964MOL0     H27240  11.787  11.055   8.806 -1.4836  0.0369 -0.4911
  964MOL0     H27241  11.877  11.219   8.826  0.1195  0.1528 -1.0354
  964MOL0     H27242  11.715  11.064   9.034  1.8641 -1.2578 -1.0895
  964MOL0     H27243  11.787  11.231   9.064 -1.3930  0.0375 -0.0866
  964MOL0     H27244  11.918  11.070   9.163 -2.5843 -4.0604 -0.1418
  964MOL0     H27245  11.944  10.970   9.031  0.0284 -1.0873  2.9488
  964MOL0     H27246  12.203  11.280   8.906 -2.7644 -0.1336 -1.8268
  964MOL0     H27247  11.308  11.056   8.826 -0.8760  0.3869  0.4898
  964MOL0     H27248  11.154  11.064   8.994  4.6087 -5.3834 -0.6515
  965MOL0     O27249   2.559   7.710   6.006 -0.1324 -0.5844 -0.0526
  965MOL0     C27250   2.573   7.649   5.899 -0.9050  0.0567 -1.1307
  965MOL0     O27251   2.471   7.583   5.828  0.8723 -1.3288  0.6466
  965MOL0     C27252   2.337   7.602   5.857  0.3532 -0.2969  0.0244
  965MOL0     C27253   2.285   7.532   5.970 -0.1781 -0.0675  0.9291
  965MOL0     C27254   2.150   7.538   5.995 -0.3813 -1.1978 -0.3236
  965MOL0     C27255   2.063   7.603   5.913 -0.5650 -0.1496 -0.2300
  965MOL0     O27256   1.930   7.583   5.935  0.1070  0.7681  0.5448
  965MOL0     C27257   1.833   7.690   5.914 -0.4054 -0.0889  0.2910
  965MOL0     C27258   1.693   7.625   5.943 -0.5900 -0.7848  0.7979
  965MOL0     C27259   1.581   7.707   5.882 -0.3787  0.2981 -0.0145
  965MOL0     C27260   1.457   7.633   5.917 -0.1797 -0.5426 -0.3654
  965MOL0     C27261   1.329   7.700   5.871  0.1131 -0.0879 -0.1817
  965MOL0     C27262   1.203   7.617   5.868 -0.2157  0.3284 -0.7424
  965MOL0     C27263   1.156   7.534   5.994  0.2622 -0.4948 -0.7095
  965MOL0     C27264   1.022   7.470   5.964 -0.1297 -0.0348  0.4509
  965MOL0     N27265   0.909   7.562   5.949  0.4218  0.5294 -0.3981
  965MOL0     C27266   0.863   7.650   6.049  0.2990  1.4124 -0.5315
  965MOL0     C27267   0.752   7.707   5.994 -0.3142 -0.1773 -0.7832
  965MOL0     C27268   0.665   7.814   6.050  0.4330 -0.7310  0.0342
  965MOL0     C27269   0.745   7.925   6.111 -0.2070 -0.4604 -0.2072
  965MOL0     C27270   0.832   7.994   6.001  1.2072 -0.4901 -0.3780
  965MOL0     C27271   0.879   8.130   6.054  0.0518 -0.0113  1.1681
  965MOL0     O27272   0.943   8.207   5.945  0.3739  0.6867  0.2366
  965MOL0     C27273   1.066   8.169   5.895  0.1801  0.2907 -0.1309
  965MOL0     C27274   1.094   8.204   5.760  0.4876 -0.9630  0.4732
  965MOL0     C27275   1.221   8.193   5.700  0.0837  0.1857  0.2382
  965MOL0     C27276   1.316   8.125   5.776 -0.5101  0.1080 -0.1165
  965MOL0     C27277   1.453   8.120   5.720  0.1316  0.1002  0.5890
  965MOL0     O27278   1.557   8.105   5.804 -0.2294  0.4113  0.2235
  965MOL0     C27279   1.685   8.095   5.751  0.4042  0.7444  0.0225
  965MOL0     C27280   1.707   8.020   5.633  0.5043  0.3720 -0.0449
  965MOL0     C27281   1.838   8.003   5.586  0.5340  0.2694 -0.1669
  965MOL0     C27282   1.947   8.059   5.653  1.1014  0.9630 -0.4650
  965MOL0     O27283   2.066   8.047   5.587 -0.0632 -0.4687 -0.4206
  965MOL0     C27284   2.185   8.104   5.646  1.4961  0.5426  0.1471
  965MOL0     C27285   2.299   8.047   5.577 -0.5543  0.7791  1.0830
  965MOL0     C27286   2.438   8.050   5.641  0.5389 -0.1077 -0.3444
  965MOL0     C27287   2.547   8.018   5.549 -0.5283  0.4610 -0.0058
  965MOL0     C27288   2.677   8.028   5.612 -0.6274 -0.5417  0.2496
  965MOL0     C27289   2.771   7.987   5.505  0.0736 -0.5735  0.5945
  965MOL0     C27290   2.902   7.951   5.558 -0.2555  0.0306  0.5012
  965MOL0     C27291   3.010   7.912   5.450  0.0185 -0.2846 -0.8737
  965MOL0    Cl27292   2.977   7.757   5.372 -0.3471 -0.3754 -0.2121
  965MOL0     C27293   1.929   8.128   5.772 -0.7477 -0.2759  0.0216
  965MOL0     C27294   1.796   8.156   5.808 -0.7657  0.3786  0.3605
  965MOL0     O27295   1.462   8.154   5.603 -0.5302 -0.0957 -0.0857
  965MOL0     C27296   1.284   8.081   5.905 -0.6007 -0.1119 -0.0104
  965MOL0     C27297   1.160   8.106   5.965  0.2166  0.2357  0.7882
  965MOL0     N27298   0.730   7.647   5.868 -0.2875  0.1744 -0.1103
  965MOL0     N27299   0.828   7.576   5.838  0.6189 -1.2345  0.2327
  965MOL0     C27300   2.109   7.671   5.806  0.4860 -0.5209 -0.1748
  965MOL0     C27301   2.245   7.681   5.785  0.0056 -0.5491  0.6468
  965MOL0     C27302   2.710   7.641   5.845  0.6665  0.3100 -0.2248
  965MOL0     C27303   2.737   7.562   5.735 -0.0273  0.4059  0.3288
  965MOL0     C27304   2.866   7.551   5.677  0.9544 -0.1124 -0.7324
  965MOL0     C27305   2.977   7.607   5.741  0.7976  1.1138  0.3505
  965MOL0     O27306   3.099   7.567   5.689 -0.1344  0.2155 -0.2972
  965MOL0     C27307   3.216   7.644   5.731  0.8605 -0.1465  0.3051
  965MOL0     C27308   3.352   7.582   5.690  0.6349  0.0200 -0.0709
  965MOL0     C27309   3.372   7.599   5.536  0.1551 -0.1318 -0.7134
  965MOL0     C27310   3.511   7.567   5.483 -0.4227  0.6903 -0.1979
  965MOL0     C27311   3.541   7.426   5.474  0.4486 -1.3795 -0.1015
  965MOL0     C27312   3.571   7.307   5.467 -0.3656 -0.6752 -0.1844
  965MOL0     C27313   2.944   7.683   5.852  0.1121  0.0326  0.6410
  965MOL0     C27314   2.816   7.702   5.903 -0.2975  0.0573 -0.1146
  965MOL0     H27315   2.350   7.472   6.032 -1.8705 -3.0989 -0.0142
  965MOL0     H27316   2.101   7.491   6.080 -0.5211 -0.8228 -0.1954
  965MOL0     H27317   1.847   7.733   5.814  2.1831  0.3162  0.7654
  965MOL0     H27318   1.855   7.768   5.987  1.7784 -1.1498  0.8406
  965MOL0     H27319   1.681   7.608   6.051 -3.3514 -1.7252  0.4167
  965MOL0     H27320   1.703   7.529   5.892  0.2740 -0.0375 -0.4890
  965MOL0     H27321   1.601   7.712   5.775  3.0296  0.0915  0.4794
  965MOL0     H27322   1.567   7.805   5.929 -0.1718  0.4455 -0.2581
  965MOL0     H27323   1.467   7.540   5.862  0.7684  0.6851 -2.3753
  965MOL0     H27324   1.449   7.619   6.026  1.9874  1.2834  0.1080
  965MOL0     H27325   1.352   7.744   5.774 -0.9095 -0.4663 -0.6164
  965MOL0     H27326   1.307   7.786   5.935 -0.7465 -0.4182 -0.0148
  965MOL0     H27327   1.199   7.555   5.778 -3.1305  0.2803 -0.6929
  965MOL0     H27328   1.126   7.690   5.844 -0.3343 -0.0695 -1.5980
  965MOL0     H27329   1.237   7.462   6.009  2.7795  2.5195  1.5898
  965MOL0     H27330   1.146   7.604   6.077 -3.1630 -0.4225 -1.0373
  965MOL0     H27331   0.999   7.396   6.041 -1.3910  0.4559  0.5623
  965MOL0     H27332   1.037   7.416   5.869 -2.3842  0.3111 -0.1638
  965MOL0     H27333   0.905   7.668   6.147  0.4685 -1.9503  0.1658
  965MOL0     H27334   0.592   7.774   6.121  0.6895 -0.5754  0.3877
  965MOL0     H27335   0.604   7.846   5.965 -1.2778 -5.2967 -0.7234
  965MOL0     H27336   0.806   7.877   6.188  1.6126 -1.1493 -1.9831
  965MOL0     H27337   0.680   8.003   6.151  2.0118  1.2587  0.2078
  965MOL0     H27338   0.915   7.929   5.969 -1.6630 -3.1818 -3.1405
  965MOL0     H27339   0.764   8.003   5.916 -1.2674  1.8045  1.6763
  965MOL0     H27340   0.948   8.117   6.138  1.6419  2.1181  0.3006
  965MOL0     H27341   0.797   8.190   6.097  0.7636 -0.1819  2.8544
  965MOL0     H27342   1.013   8.254   5.708  1.9101  2.3162  1.1650
  965MOL0     H27343   1.235   8.233   5.600 -0.1003  0.0443  0.1551
  965MOL0     H27344   1.620   7.983   5.582 -0.3514  1.4137  0.6114
  965MOL0     H27345   1.860   7.943   5.498 -0.6213  1.0830 -1.0437
  965MOL0     H27346   2.194   8.075   5.751  1.5101  0.0107  0.0047
  965MOL0     H27347   2.177   8.212   5.632  1.4342  1.1877  4.0625
  965MOL0     H27348   2.304   8.086   5.475  0.8257 -0.6395  0.5683
  965MOL0     H27349   2.269   7.943   5.557  2.4450  0.2198 -1.0805
  965MOL0     H27350   2.446   7.993   5.734  0.4088  0.8021  0.2384
  965MOL0     H27351   2.442   8.157   5.662 -1.8826  0.2118 -1.1998
  965MOL0     H27352   2.529   7.910   5.541 -2.3039  0.6377  1.2463
  965MOL0     H27353   2.547   8.059   5.447  0.4934 -1.8597 -1.0170
  965MOL0     H27354   2.671   7.961   5.699 -2.0265 -2.4665 -1.2338
  965MOL0     H27355   2.695   8.133   5.638 -1.9040 -1.0236  3.5680
  965MOL0     H27356   2.791   8.067   5.433  0.0661 -1.3162 -0.2550
  965MOL0     H27357   2.731   7.914   5.434 -1.4633  1.7596 -1.0849
  965MOL0     H27358   2.942   8.041   5.607 -2.0206  1.1005  0.0532
  965MOL0     H27359   2.882   7.861   5.617 -2.9551 -1.0981 -1.9070
  965MOL0     H27360   3.109   7.913   5.497 -0.3622 -0.5306 -0.0368
  965MOL0     H27361   3.007   7.981   5.366 -0.5437  2.8920  1.5722
  965MOL0     H27362   2.001   8.191   5.823 -0.0987 -1.1955  0.2582
  965MOL0     H27363   1.801   8.235   5.883  3.7469  2.8549 -2.1663
  965MOL0     H27364   1.359   8.021   5.956 -0.4445  0.6466  0.6711
  965MOL0     H27365   1.140   8.083   6.069 -0.4829 -2.7103  0.0895
  965MOL0     H27366   2.044   7.719   5.734  0.1947  0.4116  0.6813
  965MOL0     H27367   2.276   7.747   5.705 -1.6823  2.4316  2.2787
  965MOL0     H27368   2.653   7.523   5.679 -0.1329 -1.2486  1.5727
  965MOL0     H27369   2.880   7.504   5.580 -0.9227  0.5273 -1.3575
  965MOL0     H27370   3.222   7.657   5.839  2.7019  1.2295  0.0916
  965MOL0     H27371   3.202   7.740   5.680 -0.9945 -1.9834 -3.0196
  965MOL0     H27372   3.431   7.628   5.750  2.1357 -2.6473  0.1442
  965MOL0     H27373   3.349   7.475   5.711  1.9687 -0.0252 -0.0101
  965MOL0     H27374   3.350   7.705   5.521  1.2869  0.3166  0.6521
  965MOL0     H27375   3.306   7.533   5.479  0.5209 -0.2626 -0.9917
  965MOL0     H27376   3.514   7.600   5.379 -2.2211  0.3720 -0.3753
  965MOL0     H27377   3.585   7.626   5.538  1.4024 -1.3507 -0.3306
  965MOL0     H27378   3.598   7.205   5.450 -0.7686 -0.6829 -0.7825
  965MOL0     H27379   3.023   7.737   5.904  0.0653  2.2973 -1.4399
  965MOL0     H27380   2.801   7.760   5.994 -2.0863 -0.3006 -0.1435
  966MOL0     O27381   3.681  10.731   6.744 -0.3663  0.1910 -0.7648
  966MOL0     C27382   3.711  10.685   6.851  0.5084  0.2563 -0.5878
  966MOL0     O27383   3.627  10.662   6.958  0.0978  0.3808  0.6351
  966MOL0     C27384   3.493  10.703   6.943  0.2577 -0.5984  1.2869
  966MOL0     C27385   3.376  10.632   6.993  0.9202 -0.4503  0.4119
  966MOL0     C27386   3.247  10.684   6.982 -0.1131 -0.0750  0.0187
  966MOL0     C27387   3.231  10.822   6.947 -0.2434  0.3322 -0.1226
  966MOL0     O27388   3.113  10.895   6.950  0.3254 -0.4083 -0.6857
  966MOL0     C27389   2.990  10.843   7.005 -1.1085  0.7684  0.3531
  966MOL0     C27390   2.874  10.938   6.978  0.2913  0.7238  0.4455
  966MOL0     C27391   2.743  10.879   7.036 -0.1363  0.1358  0.1246
  966MOL0     C27392   2.618  10.964   7.037 -0.5032 -0.0487  0.2909
  966MOL0     C27393   2.554  10.961   7.179 -1.1947  0.0659  0.4529
  966MOL0     C27394   2.420  11.038   7.168  0.1966 -0.9940  0.1399
  966MOL0     C27395   2.359  11.066   7.306 -0.5318  0.4833  0.7079
  966MOL0     C27396   2.226  11.128   7.305  0.7943  0.0449  0.3255
  966MOL0     N27397   2.201  11.213   7.420 -0.3048  0.8044  0.3030
  966MOL0     C27398   2.156  11.337   7.409 -0.2728  0.4597 -0.2371
  966MOL0     C27399   2.092  11.369   7.519 -0.1493 -0.0883 -1.1756
  966MOL0     C27400   2.024  11.497   7.554  0.1035  0.8461 -0.2880
  966MOL0     C27401   1.890  11.531   7.488  0.1442 -0.5065 -0.0684
  966MOL0     C27402   1.775  11.449   7.554  0.2182 -0.1334  0.1802
  966MOL0     C27403   1.638  11.456   7.480  0.8399 -0.4695  0.0753
  966MOL0     O27404   1.536  11.417   7.575  0.5777  0.1185 -0.4202
  966MOL0     C27405   1.405  11.444   7.558 -0.7729  0.1231  0.4606
  966MOL0     C27406   1.345  11.456   7.684  0.5721  1.1962  0.4752
  966MOL0     C27407   1.213  11.491   7.689 -1.2518  0.3895  0.0004
  966MOL0     C27408   1.133  11.518   7.574  0.9757  0.9080  0.2622
  966MOL0     C27409   0.984  11.535   7.582  0.3985 -0.5874 -0.1788
  966MOL0     O27410   0.921  11.563   7.457 -0.3100  0.2711 -0.2238
  966MOL0     C27411   0.787  11.587   7.460  1.0128  0.0443  0.0739
  966MOL0     C27412   0.703  11.492   7.396 -0.4743  0.2619 -0.6736
  966MOL0     C27413   0.561  11.507   7.392 -0.1570 -0.0196  0.0254
  966MOL0     C27414   0.503  11.616   7.464  0.1141 -0.3991 -0.1166
  966MOL0     O27415   0.375  11.628   7.462 -0.0414  0.3950 -0.0901
  966MOL0     C27416   0.334  11.756   7.408  0.0720 -0.0815  0.8479
  966MOL0     C27417   0.200  11.719   7.344  0.1039  0.7735  0.2692
  966MOL0     C27418   0.085  11.690   7.435 -0.3224  0.4803  0.3742
  966MOL0     C27419  -0.051  11.678   7.362 -0.2689  0.4381 -0.0564
  966MOL0     C27420  -0.162  11.651   7.468 -0.5623 -0.7541 -0.7968
  966MOL0     C27421  -0.290  11.734   7.428 -0.4218 -0.6836 -0.2144
  966MOL0     C27422  -0.411  11.692   7.509  0.3811  0.4645  0.3898
  966MOL0     C27423  -0.535  11.765   7.446 -1.0081  0.1990  0.2488
  966MOL0    Cl27424  -0.691  11.743   7.514 -0.4534  0.1924  0.0931
  966MOL0     C27425   0.587  11.697   7.551  0.4493  0.1832 -0.4712
  966MOL0     C27426   0.726  11.672   7.548 -0.7547 -0.0964 -0.2523
  966MOL0     O27427   0.925  11.508   7.688 -0.0505  0.0826 -0.1366
  966MOL0     C27428   1.194  11.498   7.456 -1.5411  0.4241  0.3767
  966MOL0     C27429   1.332  11.473   7.440  0.7126  0.2816  0.3312
  966MOL0     N27430   2.102  11.254   7.605  0.8868 -0.4122 -0.4662
  966MOL0     N27431   2.171  11.162   7.544  0.3334 -0.7687 -0.7355
  966MOL0     C27432   3.347  10.895   6.902  0.3714  0.2033  0.2434
  966MOL0     C27433   3.474  10.831   6.894  0.2625  0.5853  0.2059
  966MOL0     C27434   3.857  10.644   6.876 -0.1665  0.6980  0.4830
  966MOL0     C27435   3.951  10.625   6.769 -0.1196 -0.1437 -0.1022
  966MOL0     C27436   4.086  10.580   6.795  0.5472  0.6750 -0.7581
  966MOL0     C27437   4.124  10.553   6.922 -0.1575 -0.0559 -0.2055
  966MOL0     O27438   4.231  10.473   6.964 -0.1882 -0.2420  0.5007
  966MOL0     C27439   4.327  10.421   6.867 -0.4185 -0.6759  0.4409
  966MOL0     C27440   4.255  10.289   6.805  0.9936 -1.6599 -0.0272
  966MOL0     C27441   4.315  10.165   6.865 -1.2476 -0.4069  0.4352
  966MOL0     C27442   4.444  10.105   6.786  0.2950  0.3932 -0.3690
  966MOL0     C27443   4.409  10.061   6.652  0.6829 -0.0072  0.3180
  966MOL0     C27444   4.400  10.023   6.536 -0.4792 -0.1507 -0.4728
  966MOL0     C27445   4.035  10.570   7.025 -0.2323  0.4238  0.1331
  966MOL0     C27446   3.905  10.629   7.008 -0.5545  0.6631 -0.8193
  966MOL0     H27447   3.378  10.532   7.036  2.3949  0.2461  2.0993
  966MOL0     H27448   3.160  10.624   7.006 -0.7520 -0.4373 -2.8525
  966MOL0     H27449   2.993  10.837   7.114 -0.3116 -1.3543  0.2747
  966MOL0     H27450   2.971  10.748   6.954  1.4344  1.6067 -2.4857
  966MOL0     H27451   2.871  10.959   6.870  0.6604  2.7705  0.7893
  966MOL0     H27452   2.886  11.037   7.023  0.2405  1.1833 -0.5163
  966MOL0     H27453   2.781  10.848   7.134 -2.0960 -2.8288  0.0870
  966MOL0     H27454   2.716  10.781   6.996 -2.9098 -0.4837  3.0677
  966MOL0     H27455   2.641  11.067   7.007 -0.3828  0.4996  2.1255
  966MOL0     H27456   2.541  10.921   6.973 -1.4898 -0.7360  1.8787
  966MOL0     H27457   2.618  11.015   7.248 -1.1730 -2.0471  2.2033
  966MOL0     H27458   2.541  10.858   7.213  0.6078 -0.3007  0.1191
  966MOL0     H27459   2.344  10.983   7.112 -0.4716  0.6092 -0.5995
  966MOL0     H27460   2.434  11.140   7.129  0.2316 -0.6629  0.9927
  966MOL0     H27461   2.360  10.970   7.358 -1.3710  0.9716  1.6559
  966MOL0     H27462   2.435  11.131   7.351 -0.5193  1.8287 -1.1228
  966MOL0     H27463   2.158  11.046   7.280  0.2048  0.7563 -0.4367
  966MOL0     H27464   2.215  11.186   7.213  1.3031  1.1378  0.9307
  966MOL0     H27465   2.167  11.398   7.320  1.8373 -0.3256 -0.5833
  966MOL0     H27466   2.091  11.583   7.557  0.6641  0.4198 -0.3868
  966MOL0     H27467   2.003  11.470   7.658 -3.1777  1.4221 -0.7159
  966MOL0     H27468   1.901  11.505   7.382 -1.1589  0.5131 -0.4873
  966MOL0     H27469   1.870  11.634   7.520  0.9823 -0.6850  1.0909
  966MOL0     H27470   1.811  11.347   7.544  4.5571  1.3950 -2.5057
  966MOL0     H27471   1.766  11.485   7.657 -0.3937 -0.7209  0.3396
  966MOL0     H27472   1.630  11.402   7.385 -2.7729  0.4309 -0.3084
  966MOL0     H27473   1.611  11.557   7.448 -2.9249 -2.2497 -3.2157
  966MOL0     H27474   1.407  11.448   7.772  3.3000  2.1254 -1.2279
  966MOL0     H27475   1.170  11.518   7.785 -1.3919  1.4580 -0.3450
  966MOL0     H27476   0.757  11.421   7.335  0.6693  0.7645 -0.2665
  966MOL0     H27477   0.496  11.441   7.335  1.4400 -0.9434 -0.8203
  966MOL0     H27478   0.407  11.791   7.335  1.0090  1.8754  2.6194
  966MOL0     H27479   0.305  11.835   7.478 -2.1743 -1.2661  1.3902
  966MOL0     H27480   0.222  11.629   7.285 -1.4961  1.1773 -1.0241
  966MOL0     H27481   0.168  11.802   7.281 -2.8269 -1.4635 -1.4802
  966MOL0     H27482   0.077  11.751   7.525 -1.6399  1.0958 -0.1267
  966MOL0     H27483   0.095  11.587   7.470 -1.2747 -1.5877 -4.5318
  966MOL0     H27484  -0.074  11.768   7.305  0.4084  0.5753 -0.1272
  966MOL0     H27485  -0.044  11.593   7.293 -2.5472  0.0705  0.0853
  966MOL0     H27486  -0.128  11.665   7.572 -1.1095 -0.6547 -0.6273
  966MOL0     H27487  -0.186  11.545   7.461 -0.2733 -0.8307 -0.6574
  966MOL0     H27488  -0.316  11.719   7.323  0.3085  1.6656 -0.7989
  966MOL0     H27489  -0.274  11.842   7.422 -0.6835 -0.6956 -1.4421
  966MOL0     H27490  -0.421  11.583   7.503 -0.2669  0.5769 -1.0946
  966MOL0     H27491  -0.393  11.717   7.613 -2.5842  0.8235  0.8987
  966MOL0     H27492  -0.544  11.748   7.339 -1.1104  5.1228 -0.7675
  966MOL0     H27493  -0.502  11.868   7.466 -2.8116  0.9661 -0.4571
  966MOL0     H27494   0.543  11.760   7.627  2.1943  0.4709  0.3512
  966MOL0     H27495   0.789  11.732   7.613 -1.1392  0.9232 -0.7881
  966MOL0     H27496   1.143  11.506   7.360 -2.6193  0.1432  0.9157
  966MOL0     H27497   1.379  11.456   7.344 -0.9269 -2.1386 -0.1356
  966MOL0     H27498   3.334  10.999   6.871  3.7889  0.8115  0.4390
  966MOL0     H27499   3.559  10.889   6.859  2.0798 -0.9586  1.8159
  966MOL0     H27500   3.924  10.664   6.671  1.0153  0.4572 -0.1932
  966MOL0     H27501   4.160  10.573   6.716  3.3645  1.4944  1.6218
  966MOL0     H27502   4.425  10.394   6.907 -0.9806 -1.7322  1.1668
  966MOL0     H27503   4.337  10.491   6.784 -0.1462 -1.7674 -0.4654
  966MOL0     H27504   4.148  10.286   6.826  0.3229  1.6860 -2.1695
  966MOL0     H27505   4.273  10.286   6.697  0.3202 -2.5261 -0.1334
  966MOL0     H27506   4.231  10.099   6.839 -0.9941  0.3163 -2.6562
  966MOL0     H27507   4.330  10.170   6.973  0.4139  4.4721  0.2070
  966MOL0     H27508   4.518  10.186   6.789 -0.2361  0.8643  1.0626
  966MOL0     H27509   4.485  10.018   6.837  0.4641 -0.5901 -2.1229
  966MOL0     H27510   4.399   9.972   6.442  1.2141 -3.1186  0.9774
  966MOL0     H27511   4.063  10.536   7.124  0.2849  0.7529  0.1028
  966MOL0     H27512   3.847  10.643   7.099 -0.5648 -0.8670 -0.5575
  967MOL0     O27513   9.536   1.709   8.986 -0.3038  0.1488  0.6027
  967MOL0     C27514   9.473   1.616   9.020 -0.3925 -0.6689 -0.0134
  967MOL0     O27515   9.519   1.491   9.040 -0.0793 -0.3004  0.0090
  967MOL0     C27516   9.658   1.478   9.036  1.1421 -1.3057 -0.5261
  967MOL0     C27517   9.742   1.547   9.124  0.0895  0.3192 -0.3543
  967MOL0     C27518   9.879   1.538   9.106  0.0309  0.3444 -0.5339
  967MOL0     C27519   9.934   1.446   9.009 -0.2721 -0.4250  0.3805
  967MOL0     O27520  10.070   1.422   8.989 -0.5706  0.8490  0.0831
  967MOL0     C27521  10.171   1.503   9.039  0.5854  0.3572  0.4076
  967MOL0     C27522  10.310   1.437   9.020 -0.9598 -0.0632  0.2936
  967MOL0     C27523  10.422   1.543   9.030  0.8194  0.4731 -1.2782
  967MOL0     C27524  10.532   1.498   8.933  0.5384  0.0548 -0.3958
  967MOL0     C27525  10.659   1.581   8.942 -0.7999  0.5372 -0.6871
  967MOL0     C27526  10.753   1.548   9.058  0.5485 -0.2948  1.1807
  967MOL0     C27527  10.892   1.612   9.030 -0.1030  0.8093 -0.8921
  967MOL0     C27528  10.972   1.633   9.160 -0.2342  0.2121 -0.1269
  967MOL0     N27529  11.098   1.696   9.149 -0.0649 -0.3787  0.1205
  967MOL0     C27530  11.137   1.780   9.046  0.6181 -0.7476 -0.0045
  967MOL0     C27531  11.272   1.808   9.069  0.3284  0.8513 -0.2499
  967MOL0     C27532  11.362   1.854   8.963  0.9537  0.5727  0.2757
  967MOL0     C27533  11.382   2.010   8.946  0.5363  0.6830 -0.4636
  967MOL0     C27534  11.483   2.075   9.040 -0.1140  0.8403 -1.4927
  967MOL0     C27535  11.640   2.062   9.008  0.1388 -0.4371  0.6235
  967MOL0     O27536  11.720   2.071   9.129 -0.3426  0.2406  0.1537
  967MOL0     C27537  11.855   2.097   9.113  0.1517  0.1755 -0.2243
  967MOL0     C27538  11.935   2.112   9.220  0.0859 -0.2219  0.2862
  967MOL0     C27539  12.072   2.134   9.217 -0.0982 -0.0415  0.5664
  967MOL0     C27540  12.134   2.130   9.092  0.5031  0.3981  0.7654
  967MOL0     C27541  12.279   2.146   9.076  0.6842  0.7806 -0.1194
  967MOL0     O27542  12.326   2.134   8.950 -0.2062  0.1366  0.1966
  967MOL0     C27543  12.464   2.164   8.942  0.2970  0.6471  0.1985
  967MOL0     C27544  12.508   2.280   8.888  0.2005 -0.3243 -0.1791
  967MOL0     C27545  12.642   2.309   8.870 -0.8522  0.4403 -0.0737
  967MOL0     C27546  12.734   2.206   8.892  0.1592  0.2898 -0.3135
  967MOL0     O27547  12.872   2.217   8.890  0.3237 -0.3769 -0.1679
  967MOL0     C27548  12.929   2.333   8.855 -0.3685 -1.0616 -0.1992
  967MOL0     C27549  13.077   2.327   8.811 -0.2665  0.3826  0.5740
  967MOL0     C27550  13.090   2.235   8.687  0.0695  0.5139 -0.0427
  967MOL0     C27551  13.234   2.255   8.620  0.9821  1.1267 -0.2421
  967MOL0     C27552  13.284   2.121   8.553  0.2342 -1.0224  0.2174
  967MOL0     C27553  13.380   2.169   8.437  0.1319 -0.9571  0.0485
  967MOL0     C27554  13.478   2.070   8.374  0.7039 -0.1657 -0.5210
  967MOL0     C27555  13.411   1.973   8.270  0.5518 -0.4768 -1.0636
  967MOL0    Cl27556  13.383   2.087   8.126  0.2802  0.0499 -0.1559
  967MOL0     C27557  12.691   2.082   8.950 -0.6434 -0.6226 -0.0144
  967MOL0     C27558  12.559   2.065   8.981  0.3279  0.1912  1.3445
  967MOL0     O27559  12.345   2.181   9.178  0.6973  0.9391  0.1493
  967MOL0     C27560  12.056   2.115   8.974  0.0479  1.0159  0.6055
  967MOL0     C27561  11.925   2.102   8.989  0.5457  0.2333 -1.0232
  967MOL0     N27562  11.304   1.738   9.187  0.6955  0.2663  0.4952
  967MOL0     N27563  11.203   1.668   9.231  0.1967  0.8943 -0.4903
  967MOL0     C27564   9.844   1.380   8.928  0.1472 -0.2727  0.8658
  967MOL0     C27565   9.707   1.389   8.946  0.6555 -0.0028  0.2692
  967MOL0     C27566   9.327   1.649   9.056  0.0798 -0.0629  0.2080
  967MOL0     C27567   9.272   1.781   9.044  1.0482  0.0963  0.0472
  967MOL0     C27568   9.130   1.815   9.065  0.1802  0.2290 -0.2649
  967MOL0     C27569   9.046   1.716   9.119 -0.0705  0.9827 -0.3105
  967MOL0     O27570   8.914   1.739   9.164  0.1616 -0.0519  0.1572
  967MOL0     C27571   8.837   1.636   9.218 -0.0161 -0.1049  0.3155
  967MOL0     C27572   8.711   1.703   9.292 -0.3939 -0.8171 -0.0186
  967MOL0     C27573   8.634   1.594   9.363  0.4630  0.5581  0.8019
  967MOL0     C27574   8.515   1.653   9.418  0.2886 -0.1169  0.5410
  967MOL0     C27575   8.447   1.553   9.503  0.3097 -0.6287 -0.1579
  967MOL0     C27576   8.398   1.466   9.582 -0.5458  0.2026  0.2167
  967MOL0     C27577   9.104   1.585   9.126  0.1010 -0.2567  0.2715
  967MOL0     C27578   9.233   1.553   9.096 -0.5178  0.6134  0.0906
  967MOL0     H27579   9.703   1.621   9.193  1.1184  0.2844  0.2703
  967MOL0     H27580   9.946   1.575   9.184  0.0534 -0.1044 -0.3339
  967MOL0     H27581  10.157   1.519   9.147  2.0831 -2.3795  1.1207
  967MOL0     H27582  10.167   1.597   8.984  2.5981  0.6016  0.5797
  967MOL0     H27583  10.309   1.391   8.921  3.9364  0.0653 -0.0423
  967MOL0     H27584  10.318   1.359   9.096  0.2487 -0.7780 -0.5270
  967MOL0     H27585  10.459   1.543   9.133  2.0371  0.7259 -1.7029
  967MOL0     H27586  10.382   1.642   9.009 -0.5384  0.6776  1.7599
  967MOL0     H27587  10.559   1.396   8.959 -0.5874 -0.3308 -0.6793
  967MOL0     H27588  10.484   1.500   8.834 -0.1252 -0.5579 -0.0945
  967MOL0     H27589  10.628   1.686   8.945 -1.0284  0.4535  1.3137
  967MOL0     H27590  10.707   1.566   8.845  0.5132 -0.1565  0.0488
  967MOL0     H27591  10.759   1.439   9.053 -0.1202 -0.3236  0.9163
  967MOL0     H27592  10.703   1.570   9.153 -2.4668 -0.1912 -0.3246
  967MOL0     H27593  10.937   1.544   8.957  1.6361  0.0742  0.7717
  967MOL0     H27594  10.865   1.715   9.003  3.2431  2.3517  0.9785
  967MOL0     H27595  10.988   1.539   9.213  0.1046 -0.4261 -1.3214
  967MOL0     H27596  10.901   1.689   9.222  1.7910  1.2183  1.4141
  967MOL0     H27597  11.073   1.816   8.966  1.5760  0.0827 -0.4161
  967MOL0     H27598  11.326   1.805   8.872 -1.9986  1.7574  0.6818
  967MOL0     H27599  11.462   1.816   8.984  0.7830  0.5097  1.0020
  967MOL0     H27600  11.284   2.053   8.968 -0.3459 -2.2646  2.1157
  967MOL0     H27601  11.421   2.028   8.845 -0.9740  0.3369 -1.1373
  967MOL0     H27602  11.466   2.183   9.047 -0.0326  1.0128 -3.2942
  967MOL0     H27603  11.447   2.042   9.138 -2.0680 -0.0142 -2.4229
  967MOL0     H27604  11.668   2.137   8.933  0.2147 -3.2964 -2.4359
  967MOL0     H27605  11.652   1.967   8.955  0.3762 -0.8823  1.4580
  967MOL0     H27606  11.876   2.121   9.311 -2.1322 -0.4542 -1.0515
  967MOL0     H27607  12.122   2.144   9.312 -0.4113 -0.1031  0.7412
  967MOL0     H27608  12.429   2.345   8.852  0.9120 -0.3260 -1.8495
  967MOL0     H27609  12.668   2.409   8.836  3.3668 -0.6554 -0.7173
  967MOL0     H27610  12.929   2.402   8.940 -1.9818  1.1650 -1.8915
  967MOL0     H27611  12.868   2.379   8.776 -0.1567  1.2374  0.8912
  967MOL0     H27612  13.140   2.287   8.891 -1.2395 -1.8795  0.2906
  967MOL0     H27613  13.109   2.427   8.782  0.9293 -0.7311 -2.2416
  967MOL0     H27614  13.015   2.270   8.615  0.1431 -0.7538 -0.7828
  967MOL0     H27615  13.070   2.132   8.719 -0.0959  1.3967  2.9223
  967MOL0     H27616  13.219   2.335   8.548  0.3340  0.0951 -1.2893
  967MOL0     H27617  13.304   2.283   8.699  5.4941 -2.8190 -2.3483
  967MOL0     H27618  13.195   2.069   8.515  1.9311 -3.4119 -0.7284
  967MOL0     H27619  13.344   2.068   8.627  2.3301  2.1700  1.0057
  967MOL0     H27620  13.435   2.263   8.452 -0.3873 -0.2931 -1.9208
  967MOL0     H27621  13.316   2.199   8.353  1.4684  3.1592  0.2865
  967MOL0     H27622  13.545   2.126   8.308  1.0723 -1.5636 -1.3727
  967MOL0     H27623  13.535   2.019   8.453  0.8191  0.3941 -0.2383
  967MOL0     H27624  13.318   1.939   8.317 -0.0716  2.4120  0.0272
  967MOL0     H27625  13.486   1.895   8.262  0.9489 -0.8395  3.6997
  967MOL0     H27626  12.747   1.990   8.953 -2.7698 -2.0607 -1.4720
  967MOL0     H27627  12.533   1.975   9.036 -0.6038 -0.2262  0.2733
  967MOL0     H27628  12.112   2.109   8.881  1.7509  1.5431  1.5538
  967MOL0     H27629  11.870   2.085   8.897  0.6515  2.3873 -1.5383
  967MOL0     H27630   9.883   1.299   8.868 -0.8559  0.5226 -0.9276
  967MOL0     H27631   9.642   1.332   8.881 -1.6012  4.0400 -1.4006
  967MOL0     H27632   9.350   1.853   9.022 -1.3757  2.5145 -1.3061
  967MOL0     H27633   9.101   1.920   9.058 -0.5066  0.1276  0.8181
  967MOL0     H27634   8.890   1.570   9.287  3.5876  2.5110  0.3086
  967MOL0     H27635   8.803   1.570   9.138  0.8308 -1.2979  0.8979
  967MOL0     H27636   8.748   1.774   9.366 -0.7841 -1.5564  0.9097
  967MOL0     H27637   8.656   1.757   9.215 -0.2930 -0.0430  0.4397
  967MOL0     H27638   8.696   1.544   9.439  3.6738  2.1486 -0.5495
  967MOL0     H27639   8.611   1.525   9.281 -0.2493  1.6168  0.0929
  967MOL0     H27640   8.533   1.748   9.469 -2.4427  1.1599 -0.6503
  967MOL0     H27641   8.439   1.675   9.344 -0.0340  2.8572  1.6404
  967MOL0     H27642   8.350   1.399   9.650 -1.7138  0.6567 -0.1278
  967MOL0     H27643   9.040   1.500   9.151 -1.2454  0.7520  0.3645
  967MOL0     H27644   9.272   1.452   9.103  2.2824  1.6187  0.4034
  968MOL0     O27645  11.199   4.975   1.388 -0.2092 -0.6520  0.5513
  968MOL0     C27646  11.272   5.001   1.292 -0.1501  0.0467  0.9971
  968MOL0     O27647  11.235   5.064   1.174 -0.3618  0.2124  0.3575
  968MOL0     C27648  11.102   5.097   1.156  0.2170  0.2616  0.3779
  968MOL0     C27649  11.028   5.171   1.256  0.9900 -0.7904 -0.7254
  968MOL0     C27650  10.899   5.204   1.220  0.1466  0.6700  0.2651
  968MOL0     C27651  10.833   5.168   1.096  0.4129 -0.1129 -0.2961
  968MOL0     O27652  10.702   5.209   1.073 -0.1208  0.2987  0.0895
  968MOL0     C27653  10.672   5.277   0.950 -1.1216  0.1621 -1.3637
  968MOL0     C27654  10.530   5.319   0.944  0.1247  0.4691  1.0014
  968MOL0     C27655  10.456   5.196   0.889 -0.6181  0.7959 -1.2255
  968MOL0     C27656  10.330   5.242   0.819  0.5909  0.1671 -0.1878
  968MOL0     C27657  10.210   5.131   0.819 -0.0792 -0.6992  0.3652
  968MOL0     C27658  10.267   4.989   0.767  0.6323  0.4267 -0.2605
  968MOL0     C27659  10.173   4.866   0.779  0.2518 -0.5669 -0.4319
  968MOL0     C27660  10.031   4.888   0.721 -0.0795  0.8550  0.4324
  968MOL0     N27661   9.949   4.767   0.716  0.1032  0.9316 -0.0884
  968MOL0     C27662   9.808   4.750   0.714  0.6004  0.0795 -0.9369
  968MOL0     C27663   9.787   4.616   0.728  0.7572  0.4233  0.5560
  968MOL0     C27664   9.646   4.574   0.743  0.0819 -0.1927  0.2679
  968MOL0     C27665   9.610   4.423   0.691 -0.0679  0.7918 -0.2959
  968MOL0     C27666   9.458   4.391   0.717 -0.3360 -1.6575 -0.4414
  968MOL0     C27667   9.429   4.240   0.698 -0.5360  0.4713 -0.1940
  968MOL0     O27668   9.316   4.215   0.783 -0.3344  0.0369 -0.4133
  968MOL0     C27669   9.190   4.197   0.733  0.4975  0.1190 -0.8089
  968MOL0     C27670   9.161   4.157   0.608 -0.6805  0.4717  0.6345
  968MOL0     C27671   9.027   4.127   0.564 -0.1071 -0.2550  0.7447
  968MOL0     C27672   8.921   4.134   0.647 -0.2729  1.1316  0.0278
  968MOL0     C27673   8.783   4.103   0.592  0.2156  0.4576  0.2692
  968MOL0     O27674   8.764   4.073   0.465 -0.1062 -0.3408 -0.3257
  968MOL0     C27675   8.638   4.090   0.413  0.1122  0.1230 -0.0199
  968MOL0     C27676   8.570   3.974   0.387  0.0422 -0.3549 -0.1252
  968MOL0     C27677   8.445   3.974   0.337  0.0943 -0.1195  0.6437
  968MOL0     C27678   8.376   4.098   0.325  0.8874  0.0304  0.9047
  968MOL0     O27679   8.247   4.127   0.279 -0.1375  0.1035  0.2003
  968MOL0     C27680   8.189   4.018   0.216  0.4161 -0.3228 -0.2695
  968MOL0     C27681   8.048   4.069   0.164 -0.2870 -0.1711 -0.1838
  968MOL0     C27682   7.926   4.022   0.247 -0.3335 -0.1143 -0.6670
  968MOL0     C27683   7.923   4.063   0.391 -0.6471 -0.2139  0.1937
  968MOL0     C27684   7.793   3.999   0.456  0.0452 -0.2067  0.2051
  968MOL0     C27685   7.772   4.034   0.604 -0.9850 -0.4851 -0.1293
  968MOL0     C27686   7.648   3.980   0.676  0.1571 -0.1597  0.0690
  968MOL0     C27687   7.674   3.953   0.823  0.4556  0.8117 -0.7689
  968MOL0    Cl27688   7.571   3.820   0.892 -0.1494  0.1961 -0.0767
  968MOL0     C27689   8.444   4.215   0.356 -0.0003  0.7255  0.8737
  968MOL0     C27690   8.579   4.215   0.400 -0.4169  0.6625 -0.0290
  968MOL0     O27691   8.691   4.124   0.668 -0.3278  0.0797 -0.2604
  968MOL0     C27692   8.950   4.170   0.780  0.1226  0.4242 -0.6622
  968MOL0     C27693   9.081   4.204   0.829 -0.1151  0.6330 -0.5414
  968MOL0     N27694   9.904   4.557   0.759 -0.4435 -0.1969  0.0833
  968MOL0     N27695   9.999   4.637   0.729 -0.4069  0.4221 -0.2598
  968MOL0     C27696  10.904   5.088   1.008  0.9740 -0.0920 -0.0922
  968MOL0     C27697  11.034   5.052   1.040 -0.0900 -0.1018 -0.1581
  968MOL0     C27698  11.409   4.956   1.307 -0.7329 -0.4300 -0.2220
  968MOL0     C27699  11.452   4.890   1.427  0.8078  0.2139  0.9729
  968MOL0     C27700  11.592   4.859   1.436 -0.3369 -0.0111 -0.1617
  968MOL0     C27701  11.677   4.892   1.333  0.8048 -0.5821  0.5442
  968MOL0     O27702  11.805   4.879   1.364 -1.3804  0.3270  0.4169
  968MOL0     C27703  11.923   4.924   1.290  0.3263 -0.0146  0.1554
  968MOL0     C27704  12.001   4.809   1.225 -0.1379  0.7817  0.2719
  968MOL0     C27705  12.041   4.690   1.314  0.8615 -0.2602 -1.0906
  968MOL0     C27706  12.101   4.716   1.454  0.1969  1.1627 -0.1035
  968MOL0     C27707  12.248   4.729   1.451 -0.2130  0.7739  0.2509
  968MOL0     C27708  12.357   4.769   1.467 -0.4968  0.3980 -0.1507
  968MOL0     C27709  11.630   4.949   1.211 -0.5768  0.3666  0.0321
  968MOL0     C27710  11.491   4.971   1.198 -0.6651  0.0828  0.4824
  968MOL0     H27711  11.071   5.200   1.351  1.6034 -3.5684 -0.0756
  968MOL0     H27712  10.845   5.270   1.286  1.6328 -0.7247  3.0368
  968MOL0     H27713  10.711   5.223   0.863 -0.0013  0.4508 -1.0561
  968MOL0     H27714  10.724   5.374   0.948 -0.0433 -0.4007 -1.3508
  968MOL0     H27715  10.524   5.411   0.885  3.0082 -1.5397 -2.8393
  968MOL0     H27716  10.479   5.338   1.039  0.9955 -3.8144  2.5274
  968MOL0     H27717  10.429   5.135   0.975  0.3955  0.7759 -0.9021
  968MOL0     H27718  10.520   5.131   0.828  0.5899 -0.4648  1.2497
  968MOL0     H27719  10.305   5.340   0.860  2.2437  0.3690  0.3891
  968MOL0     H27720  10.352   5.255   0.712  0.4359  0.0129 -0.2392
  968MOL0     H27721  10.126   5.154   0.754  0.0691 -1.7321 -0.2061
  968MOL0     H27722  10.164   5.118   0.918  0.7772 -0.1124  0.8518
  968MOL0     H27723  10.362   4.964   0.813 -0.5859 -0.5141  1.8797
  968MOL0     H27724  10.286   5.011   0.661  3.1772 -1.6733 -0.3145
  968MOL0     H27725  10.216   4.782   0.724  2.0628 -0.9007  1.3797
  968MOL0     H27726  10.164   4.831   0.882  1.5947  1.2603  0.3663
  968MOL0     H27727  10.030   4.932   0.621  2.9721  2.2034  0.8918
  968MOL0     H27728   9.973   4.957   0.783 -2.0414 -0.2741 -0.0746
  968MOL0     H27729   9.742   4.837   0.711  1.5855  1.2294  3.6847
  968MOL0     H27730   9.574   4.634   0.687 -2.1308 -0.7348  2.3621
  968MOL0     H27731   9.620   4.595   0.848 -0.2149  3.5379 -0.4026
  968MOL0     H27732   9.680   4.352   0.737 -1.4050  0.5469  1.4702
  968MOL0     H27733   9.613   4.421   0.582 -0.6103  0.7855 -0.3113
  968MOL0     H27734   9.451   4.418   0.823  0.9093 -1.4159 -0.4018
  968MOL0     H27735   9.399   4.455   0.651  1.0345  1.1482  0.8475
  968MOL0     H27736   9.507   4.181   0.746  0.6739  0.7417 -1.7785
  968MOL0     H27737   9.416   4.228   0.590  2.8043 -1.2318 -0.5259
  968MOL0     H27738   9.247   4.144   0.542 -1.1336  0.7748 -0.0164
  968MOL0     H27739   9.006   4.109   0.459 -4.5170  3.2192  0.7275
  968MOL0     H27740   8.619   3.879   0.406  0.0789 -0.7340 -1.9303
  968MOL0     H27741   8.406   3.874   0.322 -1.3033  0.3649  0.9068
  968MOL0     H27742   8.184   3.929   0.280 -0.6748  0.6226  1.0206
  968MOL0     H27743   8.242   3.989   0.125  1.1619  1.4884 -0.4575
  968MOL0     H27744   8.043   4.044   0.058  1.6961  0.7604 -0.5413
  968MOL0     H27745   8.029   4.176   0.148 -2.1360 -0.7182 -2.1700
  968MOL0     H27746   7.925   3.914   0.232  0.4586 -0.1807 -0.2991
  968MOL0     H27747   7.841   4.047   0.183  0.1631  1.5013 -0.7416
  968MOL0     H27748   8.010   4.009   0.431 -0.6519 -2.1177 -2.1176
  968MOL0     H27749   7.929   4.172   0.390 -0.6878 -0.2091  0.5089
  968MOL0     H27750   7.802   3.891   0.444 -0.8004 -0.1317 -1.4297
  968MOL0     H27751   7.703   4.019   0.397 -0.3663 -1.3029  0.4382
  968MOL0     H27752   7.779   4.142   0.616 -0.7025 -0.6462  1.2901
  968MOL0     H27753   7.868   3.999   0.644  0.0255  1.5141 -0.6609
  968MOL0     H27754   7.565   4.051   0.676 -1.6876 -2.2260  1.0441
  968MOL0     H27755   7.613   3.895   0.617 -1.5202  0.6390 -0.1537
  968MOL0     H27756   7.681   4.043   0.884 -2.6693 -0.6154  1.9920
  968MOL0     H27757   7.772   3.907   0.837 -0.6837 -1.8935 -1.0153
  968MOL0     H27758   8.396   4.310   0.335 -1.4595 -0.6589 -2.7048
  968MOL0     H27759   8.635   4.307   0.416  1.5829 -0.2817 -1.1846
  968MOL0     H27760   8.871   4.176   0.854 -0.5663  0.2255 -1.3661
  968MOL0     H27761   9.093   4.258   0.923 -2.4236  2.2056 -1.0757
  968MOL0     H27762  10.851   5.059   0.917  2.8788 -1.0395 -0.9565
  968MOL0     H27763  11.090   5.002   0.961  0.8887  2.1197 -0.9549
  968MOL0     H27764  11.385   4.880   1.512 -1.2152 -0.1954 -0.5826
  968MOL0     H27765  11.637   4.808   1.520  0.6571 -1.1932 -1.3683
  968MOL0     H27766  11.986   4.978   1.362 -1.6748  4.2659 -0.9854
  968MOL0     H27767  11.908   4.995   1.209  3.4793  1.1796  0.4936
  968MOL0     H27768  11.954   4.769   1.134 -1.1462  0.7728  0.7811
  968MOL0     H27769  12.094   4.855   1.191  0.6595 -0.4429  0.7372
  968MOL0     H27770  12.113   4.634   1.253  0.9996  0.0203 -1.1826
  968MOL0     H27771  11.952   4.627   1.310  0.7775 -0.3065  0.6774
  968MOL0     H27772  12.053   4.804   1.499 -0.3194  1.4954 -1.2638
  968MOL0     H27773  12.077   4.634   1.521  0.5576  3.2071  2.7159
  968MOL0     H27774  12.454   4.814   1.473 -0.9737  1.3223  1.1597
  968MOL0     H27775  11.700   4.966   1.130  3.8463 -4.7581  2.1159
  968MOL0     H27776  11.444   5.003   1.106 -1.9521 -0.7517  0.8226
  969MOL0     O27777   8.007   8.507  10.864 -0.1592  0.7935 -0.3301
  969MOL0     C27778   8.061   8.399  10.861 -0.3492 -0.2865 -0.7581
  969MOL0     O27779   8.011   8.274  10.874  0.5208 -0.0310 -0.3651
  969MOL0     C27780   7.875   8.257  10.883 -0.6297  1.1016  0.0960
  969MOL0     C27781   7.790   8.288  10.780 -0.0794  0.4514  0.0940
  969MOL0     C27782   7.644   8.270  10.805  0.4485 -0.1540 -0.6275
  969MOL0     C27783   7.597   8.226  10.935  0.3726  0.0769 -0.3894
  969MOL0     O27784   7.467   8.215  10.966 -0.4038 -0.0304 -0.3057
  969MOL0     C27785   7.367   8.302  10.896 -0.4022  0.1381 -0.4095
  969MOL0     C27786   7.227   8.266  10.934  0.8379 -0.4522  0.4988
  969MOL0     C27787   7.122   8.382  10.935 -0.4325 -0.5167  0.3411
  969MOL0     C27788   6.979   8.363  10.980  0.6749 -1.1772  0.2883
  969MOL0     C27789   6.896   8.495  10.954 -0.6306  0.5405  0.0696
  969MOL0     C27790   6.765   8.478  11.031 -0.5984  0.4703  0.2830
  969MOL0     C27791   6.668   8.576  10.987 -0.2821 -0.3482 -0.0579
  969MOL0     C27792   6.520   8.525  11.027 -0.5995  0.1747  0.3799
  969MOL0     N27793   6.429   8.609  10.953  0.3213 -1.1348 -0.2134
  969MOL0     C27794   6.398   8.609  10.815 -0.5892 -0.2483  0.0769
  969MOL0     C27795   6.315   8.715  10.802  0.3704  0.0776 -0.6854
  969MOL0     C27796   6.232   8.740  10.674 -0.3973  0.7061 -0.5679
  969MOL0     C27797   6.099   8.649  10.684 -0.2166  0.1797 -0.3302
  969MOL0     C27798   6.026   8.669  10.548  0.1844 -0.1018  0.6851
  969MOL0     C27799   5.899   8.588  10.566  0.0210 -0.1260 -0.0533
  969MOL0     O27800   5.819   8.597  10.441  0.6497 -0.4084  0.2017
  969MOL0     C27801   5.793   8.479  10.383  0.0464 -0.1525  0.5815
  969MOL0     C27802   5.664   8.433  10.381 -0.1885  0.6434  0.2218
  969MOL0     C27803   5.630   8.304  10.337 -0.5231 -0.1815  0.0823
  969MOL0     C27804   5.733   8.219  10.298 -0.8766  0.1034 -0.6947
  969MOL0     C27805   5.703   8.079  10.265  0.5766 -0.2815 -0.4748
  969MOL0     O27806   5.566   8.053  10.259 -0.2184  0.3733  0.1374
  969MOL0     C27807   5.534   7.926  10.215  0.4252 -0.5266 -0.6192
  969MOL0     C27808   5.565   7.819  10.297 -0.3533 -0.2759 -0.0557
  969MOL0     C27809   5.531   7.690  10.256  0.4706  0.7220  0.8852
  969MOL0     C27810   5.473   7.665  10.136 -0.6466 -1.1250 -0.3020
  969MOL0     O27811   5.443   7.535  10.095 -0.3615 -0.4959  0.5559
  969MOL0     C27812   5.481   7.419  10.162 -0.5034 -0.3927  0.3332
  969MOL0     C27813   5.440   7.299  10.075  0.3852  0.6274 -0.2972
  969MOL0     C27814   5.287   7.285  10.071  0.2403 -0.6403  0.6898
  969MOL0     C27815   5.224   7.373   9.952  0.7495 -0.2229  1.6124
  969MOL0     C27816   5.068   7.374   9.954  0.7735  0.0904 -0.9859
  969MOL0     C27817   4.995   7.236   9.917  0.7331  0.5275  0.2475
  969MOL0     C27818   4.839   7.246   9.942 -0.5308 -0.0669  0.0992
  969MOL0     C27819   4.762   7.126   9.878 -0.0911 -0.5225 -0.2119
  969MOL0    Cl27820   4.815   7.067   9.718 -0.1322  0.2997 -0.2502
  969MOL0     C27821   5.444   7.772  10.046  1.0716  0.5417 -0.5667
  969MOL0     C27822   5.480   7.900  10.089  0.4804 -0.2781 -0.2361
  969MOL0     O27823   5.789   8.004  10.220  0.8597  0.5488 -0.1653
  969MOL0     C27824   5.860   8.270  10.290 -0.3520 -0.3887  0.2916
  969MOL0     C27825   5.895   8.400  10.337  0.1120  0.2712 -0.4652
  969MOL0     N27826   6.291   8.768  10.926 -0.6212 -0.4675  0.6456
  969MOL0     N27827   6.360   8.715  11.017 -0.4142  0.0915  0.3626
  969MOL0     C27828   7.685   8.176  11.030 -0.3825 -0.7241 -0.1140
  969MOL0     C27829   7.818   8.201  11.003 -0.6897 -0.2142  0.7206
  969MOL0     C27830   8.205   8.399  10.832  1.0373 -0.0114  0.4656
  969MOL0     C27831   8.262   8.516  10.773  0.1415 -0.5784 -0.5227
  969MOL0     C27832   8.399   8.524  10.769  0.0658 -0.5161  0.0451
  969MOL0     C27833   8.481   8.407  10.772  0.4518 -0.4752  0.1362
  969MOL0     O27834   8.620   8.415  10.733 -0.3008  0.1016 -0.3870
  969MOL0     C27835   8.707   8.303  10.717 -0.5016 -0.4525 -0.0561
  969MOL0     C27836   8.780   8.267  10.850  1.2853 -0.8047  0.2484
  969MOL0     C27837   8.903   8.361  10.868 -0.3615 -0.2485 -0.0664
  969MOL0     C27838   9.014   8.339  10.765  0.6141 -0.2520 -0.6544
  969MOL0     C27839   9.060   8.198  10.749 -0.0243 -1.0350  0.6981
  969MOL0     C27840   9.101   8.080  10.745 -0.2905 -0.3688  0.1487
  969MOL0     C27841   8.416   8.283  10.801  0.4397 -1.0650  0.8096
  969MOL0     C27842   8.282   8.278  10.847 -0.0726  0.8367  0.1380
  969MOL0     H27843   7.830   8.329  10.688 -3.5580  1.9365 -0.9445
  969MOL0     H27844   7.584   8.295  10.718  0.0802 -0.0901 -0.3614
  969MOL0     H27845   7.377   8.300  10.787 -1.3205  0.5993 -0.5066
  969MOL0     H27846   7.388   8.406  10.923 -0.2452  0.2492 -0.9369
  969MOL0     H27847   7.216   8.216  11.031  0.6885 -2.5452 -0.5288
  969MOL0     H27848   7.195   8.186  10.866 -0.5265  2.6978 -2.8740
  969MOL0     H27849   7.116   8.426  10.835  2.2759 -1.8355 -0.5035
  969MOL0     H27850   7.158   8.459  11.004  0.8262 -1.1175  0.3863
  969MOL0     H27851   6.939   8.280  10.921  0.0823 -0.4387 -0.3698
  969MOL0     H27852   6.982   8.341  11.087 -1.9701  0.5990  0.8127
  969MOL0     H27853   6.862   8.517  10.853 -3.5594  0.1306  0.8830
  969MOL0     H27854   6.955   8.577  10.998 -1.1472  0.4248  1.0115
  969MOL0     H27855   6.794   8.465  11.135  2.1567  2.2099 -0.1607
  969MOL0     H27856   6.723   8.384  10.993  1.3058 -0.7021  0.9528
  969MOL0     H27857   6.684   8.671  11.038 -1.0044 -1.2579  1.9666
  969MOL0     H27858   6.685   8.568  10.880  1.6479 -6.5069  0.2926
  969MOL0     H27859   6.507   8.524  11.135 -0.2844 -1.0913  0.4174
  969MOL0     H27860   6.501   8.422  10.997 -2.6564  0.2990  1.1261
  969MOL0     H27861   6.435   8.541  10.739 -1.3724 -0.8411  0.2121
  969MOL0     H27862   6.290   8.722  10.584 -1.4973  3.1605 -1.8659
  969MOL0     H27863   6.194   8.843  10.673 -2.6932  0.0705  2.8320
  969MOL0     H27864   6.037   8.684  10.767  0.8457  2.6551 -0.5023
  969MOL0     H27865   6.115   8.543  10.705 -2.7168 -0.0770  0.6572
  969MOL0     H27866   6.011   8.777  10.538 -0.8161 -0.3352 -0.7244
  969MOL0     H27867   6.096   8.629  10.474  3.0276  1.1720  2.5543
  969MOL0     H27868   5.836   8.625  10.648  2.1883  1.3632  1.0209
  969MOL0     H27869   5.926   8.485  10.593 -1.8857  0.0725  3.1494
  969MOL0     H27870   5.588   8.503  10.416  1.2398  2.3633 -0.0174
  969MOL0     H27871   5.526   8.271  10.336 -0.8275  0.7084  0.7157
  969MOL0     H27872   5.602   7.852  10.394  1.3662 -2.2968  0.0647
  969MOL0     H27873   5.537   7.618  10.338 -2.7416  2.1929  2.6090
  969MOL0     H27874   5.433   7.406  10.259 -1.0250  1.2313  0.3220
  969MOL0     H27875   5.590   7.412  10.171 -0.3077  1.9337  0.1996
  969MOL0     H27876   5.495   7.214  10.117 -1.1441 -0.5393 -0.5285
  969MOL0     H27877   5.465   7.302   9.969 -0.8642 -0.3607 -0.6549
  969MOL0     H27878   5.252   7.312  10.171  1.6793 -3.2307  2.0004
  969MOL0     H27879   5.260   7.181  10.050  1.5224 -0.8273 -0.1556
  969MOL0     H27880   5.270   7.471   9.935 -1.3086  0.7022  0.9339
  969MOL0     H27881   5.259   7.317   9.864  1.2595  0.8850  1.0857
  969MOL0     H27882   5.026   7.443   9.880 -3.1330  1.6573  2.3139
  969MOL0     H27883   5.030   7.410  10.050 -0.4352 -1.9717 -0.6126
  969MOL0     H27884   5.028   7.156   9.984  1.1117 -1.1938 -1.8775
  969MOL0     H27885   5.030   7.206   9.818  1.0435 -1.5686  0.9380
  969MOL0     H27886   4.798   7.274  10.040 -3.1093 -2.3311 -0.2090
  969MOL0     H27887   4.803   7.337   9.893  2.8200  1.3336  0.0143
  969MOL0     H27888   4.665   7.177   9.880 -0.2951 -0.9082  1.7120
  969MOL0     H27889   4.767   7.038   9.943  3.5472 -4.5573 -5.1339
  969MOL0     H27890   5.396   7.755   9.950  1.9438  0.5050 -1.0049
  969MOL0     H27891   5.444   7.988  10.036  0.3821  0.9339  1.7431
  969MOL0     H27892   5.945   8.215  10.252  0.0836 -0.1588  0.9092
  969MOL0     H27893   6.000   8.425  10.332  0.4354 -1.1682 -1.6070
  969MOL0     H27894   7.657   8.126  11.122 -3.3307  0.3952 -0.2911
  969MOL0     H27895   7.890   8.171  11.078  2.1886 -0.8769 -2.1163
  969MOL0     H27896   8.200   8.605  10.763  0.0474 -0.3364  1.6609
  969MOL0     H27897   8.438   8.620  10.736  1.5353 -0.6891  1.1455
  969MOL0     H27898   8.787   8.305  10.643  0.6445  1.9579  1.1174
  969MOL0     H27899   8.648   8.219  10.682  2.3529 -2.4526 -0.4438
  969MOL0     H27900   8.697   8.275  10.921 -2.2528 -2.7133 -3.2162
  969MOL0     H27901   8.805   8.162  10.863  0.1721 -0.9697  1.2442
  969MOL0     H27902   8.939   8.346  10.970 -0.6548  2.5075  0.5185
  969MOL0     H27903   8.875   8.467  10.867 -0.7063 -0.3347 -0.9305
  969MOL0     H27904   8.991   8.381  10.666  2.0582 -0.0041 -0.9190
  969MOL0     H27905   9.099   8.386  10.816  0.4964 -2.2973  1.6138
  969MOL0     H27906   9.133   7.978  10.747 -0.0468 -0.3135  3.5031
  969MOL0     H27907   8.481   8.197  10.818  1.8510  0.2372  2.3264
  969MOL0     H27908   8.244   8.184  10.886  0.3657 -0.5874 -2.5820
  970MOL0     O27909  10.519  10.361   7.744 -0.3985 -0.3598  0.2305
  970MOL0     C27910  10.518  10.430   7.643 -0.2905 -0.7534  0.4058
  970MOL0     O27911  10.406  10.475   7.574  0.3700 -0.3804  0.4427
  970MOL0     C27912  10.282  10.428   7.605  0.3936 -0.7514 -0.4501
  970MOL0     C27913  10.238  10.407   7.732  0.4018  0.9625  0.4204
  970MOL0     C27914  10.104  10.354   7.750 -0.3731  0.1189 -0.7303
  970MOL0     C27915  10.017  10.334   7.644 -0.0027 -0.3013 -0.0989
  970MOL0     O27916   9.889  10.272   7.647 -0.2150  0.0747 -0.2183
  970MOL0     C27917   9.821  10.274   7.772 -0.0409 -0.1903  0.7023
  970MOL0     C27918   9.691  10.205   7.754 -0.1723  0.1030  0.5032
  970MOL0     C27919   9.586  10.288   7.682 -0.0223  0.0441 -0.1779
  970MOL0     C27920   9.447  10.219   7.682 -0.5340 -0.4358 -0.4727
  970MOL0     C27921   9.342  10.286   7.596 -0.2906  0.0116 -0.7920
  970MOL0     C27922   9.200  10.228   7.625 -0.5989 -0.1612 -0.3387
  970MOL0     C27923   9.103  10.339   7.675 -0.6375  0.6970  0.7505
  970MOL0     C27924   8.964  10.288   7.720 -0.0260  0.5928  0.0265
  970MOL0     N27925   8.883  10.224   7.620 -0.2963  0.3044  0.0439
  970MOL0     C27926   8.806  10.297   7.539  0.1847 -0.1091 -0.4629
  970MOL0     C27927   8.760  10.210   7.449  0.0783  0.4115 -0.5493
  970MOL0     C27928   8.662  10.237   7.335  0.7509 -0.3331  0.8623
  970MOL0     C27929   8.552  10.332   7.366 -0.0205 -0.0678 -0.5197
  970MOL0     C27930   8.460  10.271   7.464 -0.6187 -0.4774 -0.1207
  970MOL0     C27931   8.347  10.374   7.509  0.2763 -0.4302  0.0449
  970MOL0     O27932   8.252  10.381   7.410  0.3812  0.0318  0.7996
  970MOL0     C27933   8.124  10.414   7.446 -0.0498  0.2895 -0.1471
  970MOL0     C27934   8.078  10.482   7.561  0.2113 -0.1054  0.0104
  970MOL0     C27935   7.953  10.530   7.571 -0.5735 -0.3777  0.8304
  970MOL0     C27936   7.851  10.499   7.476 -1.0958  0.9021  0.0071
  970MOL0     C27937   7.717  10.536   7.502 -0.1941 -0.4441 -1.3143
  970MOL0     O27938   7.624  10.492   7.414 -0.8292  0.1808  0.1028
  970MOL0     C27939   7.492  10.503   7.437 -1.2127  0.5350  1.1716
  970MOL0     C27940   7.422  10.506   7.318  0.0825  0.7321 -0.5365
  970MOL0     C27941   7.283  10.500   7.320  0.4130 -0.3191 -0.3675
  970MOL0     C27942   7.220  10.506   7.445 -0.2848 -0.6295 -0.3214
  970MOL0     O27943   7.080  10.514   7.462  0.0690 -0.1159 -0.0358
  970MOL0     C27944   7.000  10.519   7.333 -0.3416 -0.2437  0.3812
  970MOL0     C27945   6.844  10.508   7.355 -0.6812 -0.1032 -0.2666
  970MOL0     C27946   6.781  10.606   7.457  0.3851  0.1568  0.4400
  970MOL0     C27947   6.795  10.754   7.419 -0.0807  0.1414  0.2714
  970MOL0     C27948   6.707  10.847   7.507 -0.3737 -0.4664 -0.2965
  970MOL0     C27949   6.749  10.992   7.468 -0.3498  0.0719  0.2637
  970MOL0     C27950   6.647  11.101   7.528  0.1100 -0.2788  1.4949
  970MOL0     C27951   6.610  11.085   7.678 -0.6582 -0.4414 -0.0739
  970MOL0    Cl27952   6.743  11.103   7.802 -0.3049  0.0701 -0.2347
  970MOL0     C27953   7.290  10.509   7.566 -0.3002 -0.0219  0.2165
  970MOL0     C27954   7.428  10.506   7.566 -0.4503 -0.0611 -0.0833
  970MOL0     O27955   7.694  10.600   7.608  0.0842 -0.7960  0.0490
  970MOL0     C27956   7.901  10.442   7.355 -0.5068  0.1348 -0.3668
  970MOL0     C27957   8.035  10.401   7.347  0.8889 -0.2219  0.0334
  970MOL0     N27958   8.805  10.085   7.481  0.1803  0.2955 -0.2167
  970MOL0     N27959   8.891  10.099   7.576 -0.0327  0.9168 -0.1470
  970MOL0     C27960  10.065  10.364   7.515 -0.1094 -0.1921  0.3831
  970MOL0     C27961  10.199  10.414   7.498  0.0472  0.3914 -1.2448
  970MOL0     C27962  10.646  10.459   7.575 -0.5149  0.6563  0.4015
  970MOL0     C27963  10.663  10.590   7.513 -0.2426 -0.2415 -0.0715
  970MOL0     C27964  10.787  10.629   7.475  0.2602  0.0221 -0.3988
  970MOL0     C27965  10.907  10.556   7.502 -0.0816  0.0097  0.6268
  970MOL0     O27966  11.027  10.605   7.472 -0.4664 -0.4587  0.5565
  970MOL0     C27967  11.100  10.661   7.584 -0.2742  0.2528  0.9343
  970MOL0     C27968  11.218  10.739   7.530  0.8641 -0.3793  0.2030
  970MOL0     C27969  11.332  10.646   7.497 -0.0886 -0.1737  0.6798
  970MOL0     C27970  11.452  10.719   7.445 -0.5192  0.1089  0.2694
  970MOL0     C27971  11.537  10.758   7.561  0.1409 -0.1117 -0.0392
  970MOL0     C27972  11.600  10.802   7.647  0.2673 -0.5476  0.1802
  970MOL0     C27973  10.891  10.430   7.569  0.0894 -1.1850  0.1737
  970MOL0     C27974  10.759  10.385   7.601 -0.3462 -0.3113  0.1011
  970MOL0     H27975  10.297  10.408   7.823 -0.6007 -1.0927  1.1436
  970MOL0     H27976  10.082  10.334   7.854 -1.0942  0.4923 -0.8104
  970MOL0     H27977   9.811  10.376   7.812 -4.6471  0.4366 -1.4257
  970MOL0     H27978   9.873  10.219   7.850  1.1242 -0.4938 -0.2576
  970MOL0     H27979   9.661  10.169   7.853  4.1417  0.1533  2.0708
  970MOL0     H27980   9.710  10.124   7.684 -0.9980  0.5689 -0.2855
  970MOL0     H27981   9.620  10.295   7.578  0.5786  1.5017  0.1029
  970MOL0     H27982   9.583  10.382   7.737  0.7860  0.7945 -1.3484
  970MOL0     H27983   9.470  10.121   7.639  0.3995 -0.2034 -0.5261
  970MOL0     H27984   9.415  10.196   7.784  0.7189 -1.7268 -0.3543
  970MOL0     H27985   9.364  10.269   7.490 -1.3794 -3.4759 -0.6130
  970MOL0     H27986   9.335  10.393   7.617 -3.0729 -0.3851  0.9375
  970MOL0     H27987   9.195  10.138   7.687 -3.2756 -0.5586 -1.0348
  970MOL0     H27988   9.162  10.189   7.530 -0.8888 -0.2074 -0.2029
  970MOL0     H27989   9.150  10.386   7.762  0.2784  0.5094  0.3612
  970MOL0     H27990   9.088  10.406   7.590  0.2588 -0.6796 -0.5380
  970MOL0     H27991   8.903  10.371   7.758 -1.6505 -0.0927 -0.9961
  970MOL0     H27992   8.982  10.211   7.796 -0.5436 -1.0171 -1.4432
  970MOL0     H27993   8.778  10.401   7.543 -0.6721 -0.0884 -3.7311
  970MOL0     H27994   8.627  10.143   7.291 -1.3379  0.3501  0.9640
  970MOL0     H27995   8.714  10.286   7.252 -2.0131 -0.2781 -0.9536
  970MOL0     H27996   8.499  10.353   7.272  0.1203  0.8402 -0.4043
  970MOL0     H27997   8.587  10.424   7.415  2.0293 -2.5623  3.1651
  970MOL0     H27998   8.400  10.187   7.426 -0.5060 -2.2404  3.1934
  970MOL0     H27999   8.511  10.236   7.555 -0.0083 -1.3198 -0.7604
  970MOL0     H28000   8.385  10.472   7.539  0.7906 -1.1828  2.0325
  970MOL0     H28001   8.292  10.333   7.594 -3.8322  1.7241 -1.3040
  970MOL0     H28002   8.146  10.488   7.645  0.8558 -2.7208 -0.2384
  970MOL0     H28003   7.921  10.565   7.669 -0.1783  1.1956  0.4328
  970MOL0     H28004   7.471  10.514   7.222 -0.4015  0.2586 -0.8285
  970MOL0     H28005   7.229  10.509   7.226  0.2287 -2.6220 -0.5245
  970MOL0     H28006   7.033  10.437   7.269 -1.8511 -2.4397  2.2294
  970MOL0     H28007   7.020  10.612   7.280 -1.6149 -0.0134  0.2747
  970MOL0     H28008   6.824  10.407   7.394  1.6551  0.6606  3.3626
  970MOL0     H28009   6.795  10.505   7.257  0.5153  1.2144 -0.9288
  970MOL0     H28010   6.845  10.600   7.546  0.1760 -2.8530  0.4715
  970MOL0     H28011   6.676  10.585   7.474  0.5305 -0.2346  0.8687
  970MOL0     H28012   6.900  10.785   7.429 -0.0396  1.1596 -2.4604
  970MOL0     H28013   6.758  10.777   7.319 -2.0176  1.4070  1.2326
  970MOL0     H28014   6.727  10.836   7.615 -2.8478  0.7655  0.3496
  970MOL0     H28015   6.602  10.821   7.497 -0.5114 -0.9285  1.8081
  970MOL0     H28016   6.758  11.004   7.360 -0.6030  2.8399  0.4799
  970MOL0     H28017   6.843  11.019   7.516 -2.1171  2.2281  2.8736
  970MOL0     H28018   6.685  11.202   7.508  0.4143 -0.0803  2.9987
  970MOL0     H28019   6.556  11.083   7.470  1.1202  1.0357 -0.6549
  970MOL0     H28020   6.585  10.978   7.679  2.1639 -1.1942 -0.6851
  970MOL0     H28021   6.527  11.146   7.712  0.4905  1.5386 -0.6702
  970MOL0     H28022   7.238  10.497   7.661 -0.9688 -3.9318 -0.4810
  970MOL0     H28023   7.488  10.500   7.656 -1.6602  5.7713  1.4740
  970MOL0     H28024   7.823  10.432   7.279 -1.5373  0.8611  0.5616
  970MOL0     H28025   8.060  10.344   7.258  1.3720  0.7282 -0.4527
  970MOL0     H28026  10.016  10.339   7.422  2.7107 -0.4740 -1.1335
  970MOL0     H28027  10.235  10.450   7.402  0.1030 -2.5997 -2.4256
  970MOL0     H28028  10.585  10.665   7.507 -1.6657 -1.6245  0.5690
  970MOL0     H28029  10.783  10.728   7.431  0.8010 -0.6915 -2.1820
  970MOL0     H28030  11.127  10.578   7.651 -0.9188  0.6667  1.7299
  970MOL0     H28031  11.039  10.730   7.644 -1.3645  0.3775 -0.2671
  970MOL0     H28032  11.184  10.794   7.442  2.8857  0.4311 -0.1149
  970MOL0     H28033  11.255  10.808   7.606  2.2306 -1.3290  0.4280
  970MOL0     H28034  11.283  10.582   7.423  0.6759  0.1368 -0.0976
  970MOL0     H28035  11.359  10.580   7.580  1.0390  0.3005  0.7009
  970MOL0     H28036  11.506  10.658   7.373 -3.3341 -1.3189 -0.8105
  970MOL0     H28037  11.409  10.803   7.389 -0.2300  1.6411  2.2379
  970MOL0     H28038  11.654  10.852   7.725 -3.5857  1.2665  1.9746
  970MOL0     H28039  10.981  10.376   7.596  1.3655 -0.3788 -2.1425
  970MOL0     H28040  10.754  10.289   7.651  2.0635 -1.8886 -2.3951
  971MOL0     O28041   2.771  10.386  10.412 -1.0609  0.4150  0.2142
  971MOL0     C28042   2.888  10.331  10.423  0.6940 -0.9746 -0.4478
  971MOL0     O28043   2.902  10.195  10.409  0.1836  0.3371 -0.4068
  971MOL0     C28044   2.788  10.121  10.374  0.1558 -0.6925  0.5107
  971MOL0     C28045   2.736  10.032  10.471 -0.0230  0.5770 -0.0806
  971MOL0     C28046   2.613   9.962  10.453  0.3016  0.1437 -0.7188
  971MOL0     C28047   2.540   9.976  10.327  0.0318 -1.3899  0.4866
  971MOL0     O28048   2.441   9.887  10.292 -0.1036 -0.1058 -0.2954
  971MOL0     C28049   2.397   9.782  10.378  0.0748  1.1545  0.4542
  971MOL0     C28050   2.280   9.700  10.305 -0.5153  0.3418  0.3011
  971MOL0     C28051   2.174   9.798  10.258 -0.4352  0.4349  0.3707
  971MOL0     C28052   2.038   9.730  10.239  0.0080 -0.3399 -0.0977
  971MOL0     C28053   1.931   9.829  10.188  0.3351  0.3482  0.4382
  971MOL0     C28054   1.798   9.772  10.123  0.3335 -0.2862 -0.5998
  971MOL0     C28055   1.816   9.677  10.008  1.0542  0.0219 -0.1475
  971MOL0     C28056   1.679   9.625   9.953  0.5847  0.3431  0.5186
  971MOL0     N28057   1.616   9.530  10.047 -0.0754  0.1808 -0.7599
  971MOL0     C28058   1.635   9.387  10.041  1.1016 -0.4927  0.5434
  971MOL0     C28059   1.567   9.332  10.144  0.3767  0.4275 -0.1014
  971MOL0     C28060   1.553   9.192  10.203 -0.2123  0.4564 -0.1827
  971MOL0     C28061   1.413   9.144  10.235 -0.6956 -0.4988  0.1993
  971MOL0     C28062   1.394   9.112  10.384 -0.2851  0.1101  0.3180
  971MOL0     C28063   1.424   9.231  10.472  0.3595  0.5106 -0.4582
  971MOL0     O28064   1.348   9.207  10.592  0.2018  0.6057 -0.1786
  971MOL0     C28065   1.213   9.229  10.578  0.1924  0.5113 -0.4396
  971MOL0     C28066   1.125   9.145  10.653  0.4717 -0.2028 -0.1461
  971MOL0     C28067   0.992   9.177  10.665  0.0556  0.3859 -0.3346
  971MOL0     C28068   0.944   9.298  10.603 -0.3918 -0.3225  0.5207
  971MOL0     C28069   0.813   9.346  10.602  1.0534 -0.4444 -0.8984
  971MOL0     O28070   0.753   9.410  10.708 -0.4164  0.0818  0.4402
  971MOL0     C28071   0.844   9.429  10.816 -0.4071 -0.8472 -0.1229
  971MOL0     C28072   0.955   9.520  10.809  0.5021 -0.1756  0.6453
  971MOL0     C28073   1.051   9.531  10.905 -0.2314  0.9991  0.0938
  971MOL0     C28074   1.031   9.470  11.024 -0.3407 -0.9501 -0.9597
  971MOL0     O28075   1.124   9.486  11.120 -0.7912  0.6217  0.4403
  971MOL0     C28076   1.181   9.355  11.167 -0.4011  0.3287  0.0303
  971MOL0     C28077   1.331   9.344  11.180  0.2642 -1.0704  0.4033
  971MOL0     C28078   1.399   9.306  11.046  0.2839 -0.7735 -0.0676
  971MOL0     C28079   1.547   9.307  11.079 -0.1390  0.6767 -0.2448
  971MOL0     C28080   1.627   9.252  10.951  0.3081 -1.3300 -0.0278
  971MOL0     C28081   1.761   9.190  11.000 -0.3887 -0.5642 -0.3652
  971MOL0     C28082   1.867   9.161  10.888  0.8146  0.4855  0.2492
  971MOL0     C28083   1.966   9.281  10.877 -0.1257  0.2181  1.1910
  971MOL0    Cl28084   2.084   9.268  11.009 -0.3048 -0.1365  0.1572
  971MOL0     C28085   0.920   9.387  11.044  0.3094  0.4317 -0.7180
  971MOL0     C28086   0.828   9.370  10.936  0.5296  0.9293  0.3149
  971MOL0     O28087   0.764   9.346  10.491  0.2014  0.1174  0.0855
  971MOL0     C28088   1.029   9.388  10.546 -0.1296 -0.3986  0.7973
  971MOL0     C28089   1.165   9.347  10.522 -0.2850 -0.0988 -0.3947
  971MOL0     N28090   1.512   9.446  10.212  0.0709  0.4295 -0.8025
  971MOL0     N28091   1.539   9.561  10.156 -0.3798  0.5700  0.9170
  971MOL0     C28092   2.597  10.066  10.228 -0.3807  0.9764  0.0560
  971MOL0     C28093   2.713  10.137  10.255 -0.3766  0.0631  0.4688
  971MOL0     C28094   2.997  10.416  10.439 -0.8261  0.2074  0.3214
  971MOL0     C28095   2.973  10.554  10.437 -0.0163 -0.1541  0.3879
  971MOL0     C28096   3.085  10.638  10.444 -0.6820 -0.1361  0.1261
  971MOL0     C28097   3.221  10.587  10.455  0.1897  0.7078 -0.9190
  971MOL0     O28098   3.339  10.657  10.473  0.2885  0.1966  0.7495
  971MOL0     C28099   3.329  10.790  10.520  0.2808  0.6249 -0.1837
  971MOL0     C28100   3.476  10.837  10.549 -0.0811 -0.0906  0.5132
  971MOL0     C28101   3.532  10.805  10.685 -0.5921  0.3735 -0.1425
  971MOL0     C28102   3.568  10.650  10.701  0.4350  0.1580 -0.7229
  971MOL0     C28103   3.574  10.624  10.839 -0.1251  0.3803 -0.4021
  971MOL0     C28104   3.598  10.600  10.959  0.6815 -0.9225 -0.0049
  971MOL0     C28105   3.237  10.447  10.458  0.3239  0.0728  0.5035
  971MOL0     C28106   3.124  10.362  10.438  0.7015  0.6167  0.5531
  971MOL0     H28107   2.805  10.017  10.553 -1.4792 -1.5350  0.8510
  971MOL0     H28108   2.572   9.898  10.530 -0.2618  0.5069 -0.7124
  971MOL0     H28109   2.367   9.818  10.477  1.8443  1.7215  0.8274
  971MOL0     H28110   2.471   9.705  10.403 -0.7162 -0.0101 -0.6717
  971MOL0     H28111   2.234   9.631  10.376  0.8695 -3.6171 -2.3474
  971MOL0     H28112   2.310   9.629  10.227 -3.5753 -0.3957 -0.3505
  971MOL0     H28113   2.187   9.826  10.153 -3.8559 -0.0500 -0.3008
  971MOL0     H28114   2.181   9.882  10.328  3.6631 -0.3943  1.1631
  971MOL0     H28115   2.051   9.649  10.168  0.3526 -1.2480  0.9766
  971MOL0     H28116   2.017   9.683  10.335  0.9527  1.4133  1.0339
  971MOL0     H28117   1.976   9.878  10.100 -4.8932 -0.1861 -3.0044
  971MOL0     H28118   1.907   9.895  10.271  0.0111 -0.0465  0.6590
  971MOL0     H28119   1.742   9.860  10.092 -1.6142 -1.5795 -0.8862
  971MOL0     H28120   1.750   9.725  10.209 -1.5461 -0.1779 -1.5376
  971MOL0     H28121   1.861   9.737   9.929 -1.5207 -0.1751 -1.8959
  971MOL0     H28122   1.881   9.592  10.028  0.5805 -0.4718 -0.6707
  971MOL0     H28123   1.689   9.575   9.856 -2.5009 -1.1256  0.8152
  971MOL0     H28124   1.613   9.709   9.934  2.1561  1.3279 -0.8587
  971MOL0     H28125   1.677   9.324   9.963 -0.9389 -2.0680  0.6225
  971MOL0     H28126   1.619   9.164  10.286 -1.2967 -1.2478  0.1474
  971MOL0     H28127   1.573   9.124  10.120  3.3473 -1.0335  1.6527
  971MOL0     H28128   1.390   9.055  10.176 -0.8268 -0.5033  0.2573
  971MOL0     H28129   1.342   9.221  10.204 -2.9376 -2.0120  1.3135
  971MOL0     H28130   1.288   9.092  10.396 -0.3907  0.4525 -0.0168
  971MOL0     H28131   1.451   9.021  10.402 -0.6433 -0.7099 -2.2320
  971MOL0     H28132   1.394   9.324  10.423  1.8747  0.9717 -0.5584
  971MOL0     H28133   1.530   9.229  10.498 -0.0798 -0.9541  1.5440
  971MOL0     H28134   1.156   9.051  10.698 -0.7939 -1.2433 -1.3309
  971MOL0     H28135   0.922   9.099  10.695 -1.8198  2.1567  0.1714
  971MOL0     H28136   0.971   9.592  10.729 -1.5813  2.1661  2.2038
  971MOL0     H28137   1.137   9.592  10.878 -1.0467  2.0453 -0.2248
  971MOL0     H28138   1.154   9.281  11.092  0.7876 -1.4650  1.2913
  971MOL0     H28139   1.133   9.323  11.261 -0.8670 -1.1502 -0.6779
  971MOL0     H28140   1.348   9.267  11.256  1.1687 -1.4703 -0.1912
  971MOL0     H28141   1.372   9.443  11.204  0.5040 -0.8458 -0.8822
  971MOL0     H28142   1.392   9.384  10.969  3.2266 -0.3083  0.0493
  971MOL0     H28143   1.361   9.215  10.999 -0.3322 -0.8234  0.5092
  971MOL0     H28144   1.586   9.408  11.098  2.9445 -0.4580  0.0547
  971MOL0     H28145   1.565   9.245  11.167  1.7525  2.1549  0.4957
  971MOL0     H28146   1.654   9.335  10.885  2.1242 -0.2591  1.9350
  971MOL0     H28147   1.558   9.183  10.902 -0.3311 -0.7348  0.0082
  971MOL0     H28148   1.741   9.100  11.060  0.5857 -0.9451 -0.5832
  971MOL0     H28149   1.803   9.262  11.071 -1.7335 -0.3558  0.2497
  971MOL0     H28150   1.909   9.066  10.924 -0.1532  0.0588  0.2784
  971MOL0     H28151   1.819   9.140  10.792  0.6650  1.2330  0.1503
  971MOL0     H28152   1.911   9.375  10.869 -1.3024 -0.5979 -2.1846
  971MOL0     H28153   2.037   9.273  10.794 -0.8624  2.4010  0.2717
  971MOL0     H28154   0.906   9.339  11.141 -1.6145 -2.0075 -2.0786
  971MOL0     H28155   0.748   9.296  10.933 -0.8285  2.2618 -3.7109
  971MOL0     H28156   1.005   9.484  10.500 -1.8072 -1.2674 -0.2770
  971MOL0     H28157   1.230   9.423  10.482 -2.5325  2.5378  0.5959
  971MOL0     H28158   2.544  10.071  10.133  0.4668  0.9550 -0.4198
  971MOL0     H28159   2.754  10.215  10.190  1.6912  1.5630  3.3554
  971MOL0     H28160   2.879  10.606  10.426 -0.6248 -0.6735  2.5450
  971MOL0     H28161   3.075  10.745  10.427 -0.2738 -0.3410 -1.5239
  971MOL0     H28162   3.273  10.788  10.614  1.4845  0.7434  0.5549
  971MOL0     H28163   3.285  10.847  10.437 -2.6518 -0.6748  0.3378
  971MOL0     H28164   3.531  10.790  10.467 -0.5951 -1.3435  0.8767
  971MOL0     H28165   3.485  10.944  10.528 -2.7520  0.7585  3.0307
  971MOL0     H28166   3.453  10.833  10.755  0.3182  1.1896  0.5834
  971MOL0     H28167   3.616  10.874  10.696  1.2116 -1.8002  0.5937
  971MOL0     H28168   3.484  10.587  10.671  0.5218  0.7758 -2.3662
  971MOL0     H28169   3.656  10.621  10.644 -0.1205  1.4310 -2.3197
  971MOL0     H28170   3.607  10.596  11.066 -1.4793  1.1661  0.3077
  971MOL0     H28171   3.335  10.405  10.479 -0.6310 -1.2244  2.5839
  971MOL0     H28172   3.132  10.254  10.438  0.0998  0.4488 -2.8674
  972MOL0     O28173   5.322  10.589   0.001  0.2165  0.5303 -0.4208
  972MOL0     C28174   5.420  10.533  -0.044 -0.3817  1.0115 -0.3748
  972MOL0     O28175   5.412  10.400  -0.078 -0.9268  0.5087  0.4581
  972MOL0     C28176   5.305  10.353  -0.148 -0.2054 -0.7752  1.0428
  972MOL0     C28177   5.248  10.236  -0.103  0.6627  0.0242  0.5199
  972MOL0     C28178   5.133  10.191  -0.160  0.5690  1.3478  0.3905
  972MOL0     C28179   5.066  10.257  -0.269  0.3811  0.5044 -0.2450
  972MOL0     O28180   4.947  10.211  -0.328  0.1152  0.3220 -0.3554
  972MOL0     C28181   4.855  10.145  -0.230  0.6770  0.3317  0.6889
  972MOL0     C28182   4.717  10.125  -0.298 -0.1636  0.2136 -0.0314
  972MOL0     C28183   4.738  10.047  -0.425 -0.4166 -0.1705 -0.4908
  972MOL0     C28184   4.596  10.011  -0.468  0.4491 -0.2559 -0.1016
  972MOL0     C28185   4.591   9.933  -0.601  0.1744 -0.1703 -0.7594
  972MOL0     C28186   4.658  10.016  -0.715 -0.1987 -0.1390  0.4151
  972MOL0     C28187   4.607   9.978  -0.860 -0.2561  0.0213  0.2622
  972MOL0     C28188   4.704  10.030  -0.966  0.0950 -0.1631  0.6100
  972MOL0     N28189   4.648   9.987  -1.100  0.1492 -0.7896 -0.6632
  972MOL0     C28190   4.534  10.039  -1.154 -0.2422  0.2764  0.2820
  972MOL0     C28191   4.500   9.954  -1.245  0.0171 -0.1743 -0.6794
  972MOL0     C28192   4.365   9.962  -1.317 -0.2831  0.0940 -0.4009
  972MOL0     C28193   4.382   9.986  -1.465 -0.2335  0.2767  0.3095
  972MOL0     C28194   4.260  10.042  -1.534 -0.1636  0.5587  0.0755
  972MOL0     C28195   4.249  10.009  -1.687 -0.0108  0.0607 -0.1157
  972MOL0     O28196   4.118  10.010  -1.741 -0.2211 -0.0485 -0.2128
  972MOL0     C28197   4.052  10.119  -1.786 -0.3931 -0.3523  0.6657
  972MOL0     C28198   4.005  10.224  -1.708  0.6433  0.8987 -0.9282
  972MOL0     C28199   3.907  10.303  -1.763  0.0393 -0.0460  0.1427
  972MOL0     C28200   3.853  10.286  -1.888  0.0361  0.1770 -0.4980
  972MOL0     C28201   3.762  10.383  -1.941  0.0127  0.7851  0.5581
  972MOL0     O28202   3.691  10.346  -2.055 -0.9765  0.7236  0.3146
  972MOL0     C28203   3.578  10.408  -2.084 -0.4309  0.4444 -0.2773
  972MOL0     C28204   3.470  10.398  -1.998 -0.2560  0.6114 -0.4482
  972MOL0     C28205   3.346  10.453  -2.029  0.1828 -0.6144  0.7970
  972MOL0     C28206   3.321  10.515  -2.157 -0.3989  0.0273  0.1112
  972MOL0     O28207   3.207  10.582  -2.197 -0.8457 -0.2479  0.3756
  972MOL0     C28208   3.088  10.527  -2.139 -0.3357  0.3521 -0.5444
  972MOL0     C28209   3.032  10.400  -2.212 -0.6162  0.2587 -0.3123
  972MOL0     C28210   2.917  10.347  -2.133 -0.8143  0.0795 -0.1593
  972MOL0     C28211   2.835  10.250  -2.223  0.1987  0.0007  0.2910
  972MOL0     C28212   2.705  10.200  -2.152 -1.0689 -0.4637  0.6368
  972MOL0     C28213   2.725  10.065  -2.091  1.3374 -0.9583  0.3795
  972MOL0     C28214   2.602  10.016  -2.017 -0.2502  0.1187  0.0270
  972MOL0     C28215   2.642   9.893  -1.941 -0.1818  0.1534 -0.2279
  972MOL0    Cl28216   2.503   9.791  -1.967 -0.2221  0.0356  0.0959
  972MOL0     C28217   3.438  10.518  -2.244  0.5549 -0.6980  0.1626
  972MOL0     C28218   3.561  10.464  -2.211 -0.1963 -0.5054 -0.5681
  972MOL0     O28219   3.742  10.482  -1.880 -0.1098 -0.2131 -0.2534
  972MOL0     C28220   3.916  10.190  -1.971  1.1104 -0.1037 -0.2998
  972MOL0     C28221   4.014  10.118  -1.921 -0.2736 -0.1610 -0.2937
  972MOL0     N28222   4.589   9.849  -1.253  0.6111  0.5529 -0.2131
  972MOL0     N28223   4.667   9.867  -1.158 -0.2564 -0.3124 -0.6331
  972MOL0     C28224   5.111  10.381  -0.303  0.0556  0.7052  0.6953
  972MOL0     C28225   5.223  10.429  -0.245 -0.0477  0.5149  0.0251
  972MOL0     C28226   5.542  10.613  -0.075  0.4534  0.6204  0.7116
  972MOL0     C28227   5.531  10.756  -0.073  0.5581  0.2734  0.6439
  972MOL0     C28228   5.635  10.840  -0.114  0.1982 -0.5003  0.6191
  972MOL0     C28229   5.757  10.790  -0.145  0.6372 -0.4918  0.3378
  972MOL0     O28230   5.846  10.882  -0.190  0.3863 -0.1776  0.4451
  972MOL0     C28231   5.979  10.838  -0.190 -0.3650  0.5818  0.0790
  972MOL0     C28232   6.075  10.953  -0.214  0.5619  0.3389  0.6507
  972MOL0     C28233   6.046  11.032  -0.352 -0.2758  0.3395 -0.3655
  972MOL0     C28234   6.149  11.138  -0.378  0.3126 -0.6711 -0.2101
  972MOL0     C28235   6.258  11.082  -0.462  0.0597  0.0698 -0.7816
  972MOL0     C28236   6.360  11.037  -0.519  0.5717  0.3053 -0.1793
  972MOL0     C28237   5.778  10.651  -0.146 -0.7543 -1.6193  0.2370
  972MOL0     C28238   5.666  10.563  -0.116 -1.2632 -0.3077 -0.5586
  972MOL0     H28239   5.291  10.169  -0.029 -1.0760 -1.9984 -0.2101
  972MOL0     H28240   5.091  10.095  -0.132  0.4791  0.8425 -1.3469
  972MOL0     H28241   4.838  10.205  -0.140 -0.6030  2.4341 -0.8609
  972MOL0     H28242   4.904  10.050  -0.207 -0.7358  0.1144  3.1272
  972MOL0     H28243   4.666  10.217  -0.325  2.2067  0.9216 -2.6516
  972MOL0     H28244   4.661  10.066  -0.225 -0.9974 -2.4712 -2.5927
  972MOL0     H28245   4.803   9.960  -0.416 -2.4745 -1.7313 -0.1789
  972MOL0     H28246   4.790  10.118  -0.490  1.1680 -0.1583  0.7108
  972MOL0     H28247   4.542   9.943  -0.402 -0.3178 -2.4405 -2.7499
  972MOL0     H28248   4.540  10.104  -0.480 -1.1545 -1.0759  0.6502
  972MOL0     H28249   4.488   9.904  -0.619  0.9197 -3.7854 -0.0440
  972MOL0     H28250   4.645   9.839  -0.584 -0.6346 -0.3117  1.2905
  972MOL0     H28251   4.765   9.994  -0.715 -0.5316 -1.9527  1.4938
  972MOL0     H28252   4.637  10.122  -0.701  0.9315  0.4365 -1.8917
  972MOL0     H28253   4.584   9.871  -0.864 -1.3597  0.0233  3.6526
  972MOL0     H28254   4.507  10.014  -0.887  0.1245 -1.2239 -3.4225
  972MOL0     H28255   4.802   9.982  -0.962  0.2761  0.1948  0.4856
  972MOL0     H28256   4.711  10.139  -0.971  0.5936 -0.1201  1.9725
  972MOL0     H28257   4.470  10.120  -1.118  1.5939  1.2121  1.6387
  972MOL0     H28258   4.312  10.043  -1.265 -0.4556 -0.3488  0.1263
  972MOL0     H28259   4.314   9.868  -1.295 -1.0854  0.5933 -0.0879
  972MOL0     H28260   4.408   9.893  -1.515 -3.6181 -0.7735  0.2621
  972MOL0     H28261   4.453  10.063  -1.497  1.6906 -2.2554 -1.9916
  972MOL0     H28262   4.173   9.998  -1.484  0.0302  0.3725  0.2498
  972MOL0     H28263   4.241  10.149  -1.525 -1.8957  0.1986  1.2805
  972MOL0     H28264   4.292   9.911  -1.707  1.5124 -0.4653  4.6588
  972MOL0     H28265   4.306  10.091  -1.731 -0.9493  0.9585  0.3103
  972MOL0     H28266   4.033  10.244  -1.605 -0.3361  4.5011 -1.2345
  972MOL0     H28267   3.887  10.395  -1.708  1.2445  0.6759 -0.5686
  972MOL0     H28268   3.496  10.360  -1.899 -1.3355  0.7182 -0.1134
  972MOL0     H28269   3.278  10.447  -1.944  1.5759 -0.8681  1.9497
  972MOL0     H28270   3.012  10.606  -2.133  0.3514  0.9882  0.0588
  972MOL0     H28271   3.086  10.502  -2.032 -0.1488 -2.7216 -1.1689
  972MOL0     H28272   3.107  10.321  -2.223  1.4808  2.5233 -4.7062
  972MOL0     H28273   2.992  10.426  -2.310 -4.3055 -0.2366  0.8895
  972MOL0     H28274   2.850  10.430  -2.110 -2.7362 -1.0138 -1.5437
  972MOL0     H28275   2.953  10.299  -2.041  1.9209  1.5338 -0.3569
  972MOL0     H28276   2.796  10.308  -2.308  0.0773  0.2815  0.5370
  972MOL0     H28277   2.902  10.170  -2.256  1.2983  1.0706 -0.1961
  972MOL0     H28278   2.615  10.197  -2.214 -3.0037 -2.6842  3.2755
  972MOL0     H28279   2.679  10.282  -2.084 -0.1506  1.7944 -1.5786
  972MOL0     H28280   2.807  10.084  -2.021 -0.0976  3.7450  1.1508
  972MOL0     H28281   2.753   9.999  -2.174  1.2970 -0.2486 -0.2146
  972MOL0     H28282   2.560  10.089  -1.947 -1.6581  1.9895 -2.5920
  972MOL0     H28283   2.525   9.995  -2.092 -1.7397  0.9968  1.2414
  972MOL0     H28284   2.657   9.920  -1.836  1.4587  0.0015 -0.4022
  972MOL0     H28285   2.730   9.840  -1.976  0.9828  2.2603 -0.6940
  972MOL0     H28286   3.428  10.581  -2.332 -0.7252  1.6672  1.8795
  972MOL0     H28287   3.639  10.492  -2.280 -1.5012 -2.0894 -2.8241
  972MOL0     H28288   3.896  10.182  -2.078  1.9033 -1.8364 -0.3404
  972MOL0     H28289   4.069  10.044  -1.979 -0.5782 -1.1995  0.6879
  972MOL0     H28290   5.061  10.433  -0.384 -1.4088 -2.0489 -0.3207
  972MOL0     H28291   5.261  10.529  -0.263  1.4638 -0.0376 -0.0069
  972MOL0     H28292   5.432  10.790  -0.045 -1.9808 -5.4306  0.0504
  972MOL0     H28293   5.620  10.947  -0.116 -4.3999 -0.8575  2.6783
  972MOL0     H28294   5.991  10.761  -0.268  0.7337 -1.1338  1.8539
  972MOL0     H28295   6.011  10.788  -0.099 -1.3409 -3.3657 -1.5177
  972MOL0     H28296   6.059  11.024  -0.133 -0.9911 -1.2348  1.7853
  972MOL0     H28297   6.176  10.912  -0.223 -0.4622 -2.1845 -0.3596
  972MOL0     H28298   5.948  11.080  -0.347  1.3852  4.1414 -0.3627
  972MOL0     H28299   6.040  10.969  -0.441 -0.7012  0.6133 -0.5350
  972MOL0     H28300   6.106  11.215  -0.443  3.3996 -0.7505 -2.5876
  972MOL0     H28301   6.192  11.183  -0.288  1.3972  1.0710 -1.5296
  972MOL0     H28302   6.449  10.990  -0.555  0.2330 -0.1814 -0.3998
  972MOL0     H28303   5.873  10.603  -0.170 -1.4069 -2.9016  0.1516
  972MOL0     H28304   5.684  10.456  -0.118 -3.3266 -0.6975 -1.9678
  973MOL0     O28305   1.289   9.383   0.801  0.9300  0.3712 -0.6240
  973MOL0     C28306   1.368   9.286   0.811 -0.0887 -0.0248  0.1427
  973MOL0     O28307   1.356   9.173   0.889  0.1692  0.4187  0.1988
  973MOL0     C28308   1.245   9.154   0.969 -1.1974  0.8730  0.5036
  973MOL0     C28309   1.113   9.181   0.920 -0.8361  0.0419 -0.7737
  973MOL0     C28310   1.009   9.165   1.012  0.9796  0.5588  0.8516
  973MOL0     C28311   1.026   9.111   1.140 -0.8817 -0.2357 -1.3083
  973MOL0     O28312   0.924   9.077   1.218  0.3356  0.5901 -0.1491
  973MOL0     C28313   0.885   8.940   1.195  0.4710  0.1455 -0.7367
  973MOL0     C28314   0.788   8.934   1.079 -0.0583 -0.5048  1.0008
  973MOL0     C28315   0.670   9.040   1.066  0.1942 -0.5742 -0.5668
  973MOL0     C28316   0.574   9.037   1.183  0.1838  1.0168  0.2121
  973MOL0     C28317   0.474   9.157   1.174  0.3049 -0.5667  0.6965
  973MOL0     C28318   0.365   9.165   1.283  0.2813 -0.4485  0.2076
  973MOL0     C28319   0.266   9.044   1.290 -0.5432 -1.0832 -0.0865
  973MOL0     C28320   0.146   9.039   1.395  0.3777 -0.2913 -0.6987
  973MOL0     N28321   0.036   9.114   1.336  0.2116 -0.2048 -0.2493
  973MOL0     C28322  -0.057   9.074   1.239 -0.3176 -0.3142 -0.2745
  973MOL0     C28323  -0.146   9.178   1.242  0.3047  0.5521 -0.3726
  973MOL0     C28324  -0.274   9.178   1.162  0.3072  0.1011 -1.3008
  973MOL0     C28325  -0.352   9.045   1.186 -0.4072 -0.6136 -0.6209
  973MOL0     C28326  -0.504   9.068   1.149 -0.2195  0.3446  0.8965
  973MOL0     C28327  -0.576   9.178   1.230 -0.3048  0.2974 -0.3245
  973MOL0     O28328  -0.720   9.181   1.197 -0.2699 -0.5485 -0.0096
  973MOL0     C28329  -0.802   9.093   1.253 -0.6377 -0.6809 -1.0677
  973MOL0     C28330  -0.789   9.045   1.379  0.0269  0.2732  0.6302
  973MOL0     C28331  -0.878   8.954   1.428 -0.1113  0.3632  0.1454
  973MOL0     C28332  -0.970   8.888   1.349  0.0231 -0.1985 -0.4097
  973MOL0     C28333  -1.055   8.784   1.402 -0.1479  0.8634 -0.0538
  973MOL0     O28334  -1.145   8.723   1.314 -0.0838 -0.1401  0.7967
  973MOL0     C28335  -1.227   8.620   1.355  0.2808  0.0662  0.0342
  973MOL0     C28336  -1.308   8.570   1.254 -0.2845  0.2803 -0.9022
  973MOL0     C28337  -1.404   8.472   1.275 -0.3117 -0.1689 -0.5169
  973MOL0     C28338  -1.419   8.419   1.404  0.3977  0.6371  0.8841
  973MOL0     O28339  -1.521   8.328   1.413  0.7564  0.5245  0.1202
  973MOL0     C28340  -1.544   8.268   1.543  0.0371  0.0498  0.9358
  973MOL0     C28341  -1.663   8.182   1.558  0.1142  0.1800  1.0413
  973MOL0     C28342  -1.788   8.237   1.484 -0.2774  0.3307 -0.0836
  973MOL0     C28343  -1.922   8.158   1.505  0.0218 -0.5458  0.1913
  973MOL0     C28344  -1.907   8.009   1.464 -0.3497 -0.5938  0.0535
  973MOL0     C28345  -2.021   7.967   1.370 -1.3609 -0.7473 -0.3925
  973MOL0     C28346  -2.151   7.933   1.439 -0.6950 -0.0410 -0.4040
  973MOL0     C28347  -2.254   7.916   1.328  0.4748 -0.0926 -0.1533
  973MOL0    Cl28348  -2.231   7.771   1.233 -0.1002 -0.1927 -0.3888
  973MOL0     C28349  -1.345   8.473   1.509 -0.0074 -0.1312  0.4162
  973MOL0     C28350  -1.245   8.568   1.482 -0.3130 -0.3457 -0.0668
  973MOL0     O28351  -1.042   8.756   1.517  0.4696 -0.4448 -0.1468
  973MOL0     C28352  -0.978   8.940   1.220  1.4289 -0.0367  0.3946
  973MOL0     C28353  -0.895   9.040   1.170 -0.0418  1.0060 -0.6851
  973MOL0     N28354  -0.105   9.266   1.336  0.3456  0.4324 -0.4024
  973MOL0     N28355   0.008   9.233   1.395 -0.1616 -0.4475  0.2194
  973MOL0     C28356   1.155   9.090   1.187 -1.4709 -0.1065  0.3348
  973MOL0     C28357   1.264   9.116   1.103 -0.3984  1.1646 -0.5307
  973MOL0     C28358   1.491   9.293   0.731  0.2094  0.0065 -0.1217
  973MOL0     C28359   1.586   9.192   0.737  0.6907  0.2660 -0.2818
  973MOL0     C28360   1.709   9.197   0.683 -0.8355 -0.2177 -0.7330
  973MOL0     C28361   1.756   9.307   0.616  0.2421  0.1515 -0.7213
  973MOL0     O28362   1.891   9.317   0.584 -1.0397  0.3834  0.3667
  973MOL0     C28363   1.938   9.440   0.531  0.2173  0.8394 -0.3024
  973MOL0     C28364   2.085   9.425   0.548  0.5599 -0.2844  0.2276
  973MOL0     C28365   2.156   9.542   0.465 -0.1679 -0.3136 -0.3274
  973MOL0     C28366   2.303   9.515   0.462 -1.2232  0.9967 -0.7073
  973MOL0     C28367   2.380   9.625   0.403  0.6172  0.3884  0.0393
  973MOL0     C28368   2.448   9.719   0.357  0.4618 -0.0644 -0.7727
  973MOL0     C28369   1.659   9.403   0.587 -0.9810 -0.9288  0.3722
  973MOL0     C28370   1.530   9.403   0.650  0.6723  0.1628 -0.2471
  973MOL0     H28371   1.103   9.229   0.824  1.3465  2.3509  0.0232
  973MOL0     H28372   0.910   9.177   0.971 -0.2008 -3.8763  1.8389
  973MOL0     H28373   0.835   8.900   1.284 -2.5423  1.5291 -1.6965
  973MOL0     H28374   0.959   8.863   1.171  1.1160  0.7611 -0.7428
  973MOL0     H28375   0.747   8.832   1.074 -0.5386 -0.3126  0.9502
  973MOL0     H28376   0.850   8.938   0.990 -0.9269  0.6631  0.4240
  973MOL0     H28377   0.617   9.025   0.972  1.5152  0.1524 -1.4426
  973MOL0     H28378   0.705   9.143   1.065 -3.0004  0.6254 -0.2207
  973MOL0     H28379   0.536   8.935   1.175  1.1416  0.6656 -0.0060
  973MOL0     H28380   0.637   9.041   1.272  0.8236  1.9315 -0.2721
  973MOL0     H28381   0.417   9.162   1.081  3.2254  2.9912 -1.1710
  973MOL0     H28382   0.523   9.254   1.173 -5.0390  2.5340 -0.1977
  973MOL0     H28383   0.305   9.255   1.267 -0.4736 -1.3634 -2.8338
  973MOL0     H28384   0.410   9.167   1.383 -1.8489 -1.2843  1.2367
  973MOL0     H28385   0.242   9.017   1.187  0.8205  0.0591 -0.7299
  973MOL0     H28386   0.331   8.965   1.326 -0.5006 -1.2298 -0.4808
  973MOL0     H28387   0.183   9.075   1.491 -4.0649  0.3561  1.0050
  973MOL0     H28388   0.116   8.935   1.411  1.4564 -1.2144 -3.8938
  973MOL0     H28389  -0.059   8.978   1.188 -2.8293 -1.1131  1.1407
  973MOL0     H28390  -0.263   9.180   1.053 -1.4265  3.1933 -1.5017
  973MOL0     H28391  -0.325   9.267   1.198  2.6020  0.7059  0.7201
  973MOL0     H28392  -0.340   9.011   1.290  3.9026 -0.5802 -0.9317
  973MOL0     H28393  -0.312   8.970   1.116 -1.0526  0.9733 -2.7815
  973MOL0     H28394  -0.514   9.093   1.043  3.0617  1.1937  0.6789
  973MOL0     H28395  -0.554   8.973   1.170 -1.2464  0.7419  0.3334
  973MOL0     H28396  -0.536   9.278   1.213  0.4424  0.3423  1.4231
  973MOL0     H28397  -0.550   9.178   1.337  0.7099  1.2785 -0.5513
  973MOL0     H28398  -0.699   9.076   1.431  2.2698  0.6132 -3.0123
  973MOL0     H28399  -0.850   8.919   1.527  0.4204 -0.3324 -0.2409
  973MOL0     H28400  -1.285   8.609   1.155 -1.5684 -1.1681 -1.8079
  973MOL0     H28401  -1.465   8.443   1.189  0.1182 -2.5696 -0.0763
  973MOL0     H28402  -1.552   8.353   1.612 -1.0934 -1.4979  2.8061
  973MOL0     H28403  -1.458   8.205   1.570  1.6175  2.4504  1.8493
  973MOL0     H28404  -1.691   8.161   1.662  2.4601 -0.3184  1.6303
  973MOL0     H28405  -1.639   8.083   1.519 -3.1653 -0.9728  1.6442
  973MOL0     H28406  -1.775   8.243   1.375 -3.0161  1.1326 -0.4502
  973MOL0     H28407  -1.800   8.341   1.513 -1.4365 -0.0773  1.0038
  973MOL0     H28408  -1.954   8.168   1.610 -1.0582 -0.5489 -0.1270
  973MOL0     H28409  -1.992   8.221   1.450  0.3843  1.3027  1.7529
  973MOL0     H28410  -1.910   7.950   1.556 -3.7224  0.9024  1.0378
  973MOL0     H28411  -1.818   7.984   1.405 -0.9951  0.6389 -1.5120
  973MOL0     H28412  -1.990   7.876   1.318  3.5315  0.6848 -0.4773
  973MOL0     H28413  -2.034   8.050   1.298  1.7676  0.0638 -0.1457
  973MOL0     H28414  -2.142   7.846   1.505  5.1525 -1.3772 -2.3675
  973MOL0     H28415  -2.198   8.012   1.499  0.2639  0.2216  0.0190
  973MOL0     H28416  -2.250   8.006   1.265  0.4201  2.2371  2.9478
  973MOL0     H28417  -2.356   7.910   1.368  0.4317  1.3066 -0.0033
  973MOL0     H28418  -1.344   8.423   1.606  0.7664 -2.6766 -0.8094
  973MOL0     H28419  -1.189   8.593   1.571 -0.7275  0.7597 -0.1000
  973MOL0     H28420  -1.051   8.906   1.148  1.7571  1.4218 -0.6745
  973MOL0     H28421  -0.899   9.075   1.067 -3.7940  3.4682  0.1018
  973MOL0     H28422   1.172   9.070   1.292  3.5651 -0.8556 -0.4037
  973MOL0     H28423   1.361   9.088   1.141  0.3336  2.2170 -1.5832
  973MOL0     H28424   1.564   9.104   0.796  2.0279  2.4260  3.8474
  973MOL0     H28425   1.787   9.122   0.694  2.7659  2.8367 -2.8375
  973MOL0     H28426   1.909   9.530   0.586 -0.4401  0.2671  0.2991
  973MOL0     H28427   1.909   9.450   0.425 -0.7613  0.5399 -0.0692
  973MOL0     H28428   2.116   9.424   0.653  1.2945  1.3421  0.0547
  973MOL0     H28429   2.118   9.331   0.504  1.4114  0.5031 -0.8819
  973MOL0     H28430   2.139   9.635   0.518  2.4960  0.2037 -0.2289
  973MOL0     H28431   2.118   9.557   0.363  1.6478  1.7570 -0.7564
  973MOL0     H28432   2.331   9.506   0.567 -4.0171 -1.9088 -0.0567
  973MOL0     H28433   2.319   9.422   0.408 -0.5938 -0.0483  1.1951
  973MOL0     H28434   2.499   9.809   0.330  1.9232 -0.1839  1.3697
  973MOL0     H28435   1.667   9.488   0.521  2.2396  1.2363  3.2047
  973MOL0     H28436   1.465   9.484   0.618  1.9332  0.6158 -1.8282
  974MOL0     O28437   3.775   2.445   5.767  0.4293 -0.3595  0.7301
  974MOL0     C28438   3.795   2.486   5.878 -0.0254  0.9523 -0.4153
  974MOL0     O28439   3.703   2.500   5.974  0.2138  0.2786 -0.2372
  974MOL0     C28440   3.575   2.454   5.951 -0.2437 -0.9576  0.0237
  974MOL0     C28441   3.560   2.316   5.924 -0.6651  0.1626  0.7066
  974MOL0     C28442   3.430   2.262   5.917  0.1479 -0.4849 -0.2827
  974MOL0     C28443   3.317   2.352   5.931  1.2223  0.6961 -0.9834
  974MOL0     O28444   3.192   2.311   5.889 -0.5509 -0.4990 -0.2308
  974MOL0     C28445   3.180   2.277   5.748 -0.0781  0.3375 -0.3540
  974MOL0     C28446   3.030   2.239   5.719  0.6297 -0.1081 -0.3173
  974MOL0     C28447   2.917   2.311   5.803  0.2993 -0.0687  0.1179
  974MOL0     C28448   2.780   2.304   5.753  0.7604  0.4102  0.2681
  974MOL0     C28449   2.664   2.370   5.837  0.2329  0.0319 -0.0466
  974MOL0     C28450   2.651   2.316   5.977  0.1209 -0.2318 -0.5063
  974MOL0     C28451   2.553   2.395   6.072  0.3374 -0.8160  0.0297
  974MOL0     C28452   2.406   2.401   6.041  0.4194  0.3625  0.5975
  974MOL0     N28453   2.335   2.270   6.026  0.0912  0.0866  0.8761
  974MOL0     C28454   2.290   2.218   5.904 -0.7762 -0.0359 -0.1912
  974MOL0     C28455   2.221   2.104   5.939 -0.0184  0.4310 -0.0020
  974MOL0     C28456   2.168   2.010   5.834 -0.7140 -0.4185  1.7729
  974MOL0     C28457   2.027   2.039   5.781  0.0558  0.3744 -0.2213
  974MOL0     C28458   1.918   2.027   5.888  0.0281  0.1573  0.8188
  974MOL0     C28459   1.878   2.151   5.964  0.2348 -0.5253  0.1317
  974MOL0     O28460   1.785   2.119   6.056 -0.4406 -0.4867  0.3454
  974MOL0     C28461   1.685   2.207   6.090 -0.2696  0.0896 -0.6452
  974MOL0     C28462   1.592   2.155   6.183 -0.3026 -0.9244  0.6021
  974MOL0     C28463   1.484   2.226   6.213 -0.9538 -0.6808 -0.4122
  974MOL0     C28464   1.444   2.342   6.148  0.2140 -0.0398 -0.5119
  974MOL0     C28465   1.315   2.420   6.188 -0.4423  0.0864 -0.4674
  974MOL0     O28466   1.224   2.375   6.286 -0.4307 -0.4020 -0.2781
  974MOL0     C28467   1.135   2.469   6.334  0.2057 -1.1334 -0.0534
  974MOL0     C28468   1.004   2.459   6.295  0.4758 -0.2318 -0.3063
  974MOL0     C28469   0.902   2.547   6.345  0.3022 -0.1263 -0.0710
  974MOL0     C28470   0.939   2.653   6.420  0.4964 -1.3623 -0.5213
  974MOL0     O28471   0.848   2.737   6.464  0.8743 -0.7632 -0.3905
  974MOL0     C28472   0.850   2.857   6.388  0.2367 -0.6585 -0.4543
  974MOL0     C28473   0.733   2.954   6.448  0.4407 -0.2608  0.1319
  974MOL0     C28474   0.724   3.077   6.356  0.8036  0.8735  0.8029
  974MOL0     C28475   0.840   3.164   6.357 -0.2224 -0.4810  0.2390
  974MOL0     C28476   0.821   3.304   6.282  0.6980  0.8245 -0.0449
  974MOL0     C28477   0.775   3.282   6.134 -1.0007 -0.3861  0.2068
  974MOL0     C28478   0.902   3.263   6.046 -0.5972  0.5799 -0.3072
  974MOL0     C28479   0.847   3.197   5.924  0.1132 -0.6454  0.5285
  974MOL0    Cl28480   0.795   3.033   5.965  0.0212  0.0663 -0.3766
  974MOL0     C28481   1.074   2.660   6.453  0.0469 -0.5612  1.6364
  974MOL0     C28482   1.176   2.571   6.416  0.6973  0.7886  0.3506
  974MOL0     O28483   1.314   2.527   6.137 -0.6760 -0.4861 -0.3547
  974MOL0     C28484   1.524   2.394   6.055  0.1254  0.0384 -0.2616
  974MOL0     C28485   1.647   2.332   6.026  0.9293 -0.1149 -0.0246
  974MOL0     N28486   2.214   2.095   6.077  0.4150 -0.8075  0.0988
  974MOL0     N28487   2.284   2.186   6.129 -1.0851  0.0181  0.1850
  974MOL0     C28488   3.336   2.479   5.969 -0.1474 -0.4304  0.7441
  974MOL0     C28489   3.467   2.533   5.970  0.1060  0.2792 -0.4704
  974MOL0     C28490   3.929   2.540   5.921 -0.2485 -0.1623 -0.2292
  974MOL0     C28491   4.029   2.566   5.825 -0.0161 -0.2947  0.6994
  974MOL0     C28492   4.157   2.606   5.863 -0.2534  0.0173  0.7300
  974MOL0     C28493   4.195   2.632   5.995  0.3000 -0.0525 -1.0403
  974MOL0     O28494   4.326   2.665   6.017 -0.4970 -0.4475  0.0744
  974MOL0     C28495   4.379   2.668   6.156  0.2724  1.0125 -0.0880
  974MOL0     C28496   4.452   2.524   6.174 -0.6313 -0.4826 -0.7261
  974MOL0     C28497   4.511   2.512   6.313 -0.6501  0.2699 -0.6246
  974MOL0     C28498   4.555   2.370   6.341  0.2519 -0.3974 -0.1763
  974MOL0     C28499   4.671   2.345   6.428  0.8974 -0.0498 -0.2670
  974MOL0     C28500   4.769   2.331   6.489  0.4508 -0.8323 -0.3190
  974MOL0     C28501   4.092   2.618   6.084 -0.4568 -0.4977  0.3394
  974MOL0     C28502   3.966   2.575   6.049  1.0014  0.1125 -0.5453
  974MOL0     H28503   3.649   2.258   5.905 -0.4884  0.4237  0.7365
  974MOL0     H28504   3.420   2.156   5.898 -4.7252 -0.2119 -0.4493
  974MOL0     H28505   3.241   2.192   5.716  0.8442  0.8994 -0.1206
  974MOL0     H28506   3.206   2.361   5.684 -0.4611 -0.6896 -1.9103
  974MOL0     H28507   3.005   2.135   5.738 -0.1743  0.2840  0.8328
  974MOL0     H28508   3.007   2.263   5.614  1.0879  1.1599 -0.1479
  974MOL0     H28509   2.951   2.415   5.815  1.1942 -0.5734  2.3234
  974MOL0     H28510   2.932   2.262   5.900  4.7449 -0.9411 -0.7953
  974MOL0     H28511   2.788   2.360   5.659 -0.8750 -1.0248 -0.7937
  974MOL0     H28512   2.751   2.201   5.731 -2.0574  0.9581  0.9058
  974MOL0     H28513   2.573   2.350   5.780  0.7385  1.5890 -1.4829
  974MOL0     H28514   2.681   2.478   5.834  0.4521 -0.0070 -0.3281
  974MOL0     H28515   2.748   2.326   6.028 -1.6746 -0.0882  3.1886
  974MOL0     H28516   2.622   2.211   5.982 -2.6276  0.5068  1.0600
  974MOL0     H28517   2.555   2.338   6.165  0.4881  1.8501  1.7770
  974MOL0     H28518   2.593   2.495   6.093  3.1074 -2.0201  0.9789
  974MOL0     H28519   2.410   2.463   5.951 -0.6168 -0.9750 -0.4146
  974MOL0     H28520   2.350   2.451   6.120 -0.0802 -2.2244  1.9817
  974MOL0     H28521   2.322   2.251   5.806  2.0104 -0.6123  0.4329
  974MOL0     H28522   2.166   1.913   5.885 -1.9068 -1.2529  0.2280
  974MOL0     H28523   2.238   1.992   5.752 -0.8866 -0.8826  1.7264
  974MOL0     H28524   2.014   1.958   5.708 -2.3675 -0.6139  1.1954
  974MOL0     H28525   2.027   2.133   5.724  2.1055  0.3710 -0.2807
  974MOL0     H28526   1.829   1.990   5.837  1.3916 -3.1741  0.5593
  974MOL0     H28527   1.951   1.948   5.956  0.0463 -1.7655 -1.3248
  974MOL0     H28528   1.840   2.222   5.890  2.3787 -0.4650 -0.9962
  974MOL0     H28529   1.964   2.202   6.009  0.6580 -0.5655 -0.6123
  974MOL0     H28530   1.613   2.070   6.247  1.6270  1.1290  2.8696
  974MOL0     H28531   1.419   2.189   6.292  1.2964  0.0462  1.8842
  974MOL0     H28532   0.985   2.384   6.218  2.9899  1.5641 -2.8961
  974MOL0     H28533   0.798   2.528   6.320  0.3210  0.5753 -0.6930
  974MOL0     H28534   0.838   2.834   6.282 -1.4050  2.0353 -0.9545
  974MOL0     H28535   0.949   2.902   6.397 -0.5379  1.0535 -0.0157
  974MOL0     H28536   0.758   2.978   6.552 -0.5995 -1.3157  0.6475
  974MOL0     H28537   0.638   2.900   6.454  1.7766 -2.6693  1.1563
  974MOL0     H28538   0.640   3.138   6.389 -2.0020 -0.1274 -3.5556
  974MOL0     H28539   0.700   3.045   6.254 -0.1672  0.6553  1.0893
  974MOL0     H28540   0.858   3.178   6.464  1.5124 -0.8276  0.0215
  974MOL0     H28541   0.927   3.112   6.316 -1.5799 -1.1232 -1.9683
  974MOL0     H28542   0.907   3.367   6.306 -0.7663  2.2222  1.8286
  974MOL0     H28543   0.734   3.355   6.326 -0.2705  0.2119 -1.1976
  974MOL0     H28544   0.732   3.373   6.091 -3.5938 -0.7252  1.9113
  974MOL0     H28545   0.702   3.202   6.123 -0.6992 -0.9679  2.0340
  974MOL0     H28546   0.955   3.358   6.032  2.5077 -0.6619  1.9817
  974MOL0     H28547   0.968   3.194   6.099 -2.4629 -0.7636  0.3858
  974MOL0     H28548   0.931   3.203   5.855 -1.2431 -0.0031 -1.1450
  974MOL0     H28549   0.769   3.263   5.885  0.5339  0.8109  2.0282
  974MOL0     H28550   1.110   2.740   6.517 -0.8150  0.5274  0.7954
  974MOL0     H28551   1.281   2.588   6.438  0.9364 -0.5950  0.3566
  974MOL0     H28552   1.501   2.478   5.991  3.2828 -0.8831 -2.9295
  974MOL0     H28553   1.717   2.380   5.959  0.0533 -1.0864 -1.7207
  974MOL0     H28554   3.249   2.542   5.985 -0.0404 -0.1949  0.4091
  974MOL0     H28555   3.503   2.634   5.989  1.2236 -0.0156 -0.9930
  974MOL0     H28556   4.008   2.553   5.720  4.2239 -1.2647 -0.2057
  974MOL0     H28557   4.234   2.626   5.789 -2.1107  2.6200 -0.6607
  974MOL0     H28558   4.302   2.680   6.233  0.2559 -3.0159  0.7030
  974MOL0     H28559   4.451   2.750   6.168  0.0302  0.9127  2.7112
  974MOL0     H28560   4.380   2.444   6.152 -1.1877 -0.2266  0.1186
  974MOL0     H28561   4.529   2.521   6.097  0.3933  0.6282  0.2204
  974MOL0     H28562   4.432   2.531   6.386  1.6348  0.5047  1.9185
  974MOL0     H28563   4.590   2.587   6.323  0.5105 -1.0841  0.9132
  974MOL0     H28564   4.472   2.309   6.377 -0.6610 -0.2950 -1.9745
  974MOL0     H28565   4.594   2.316   6.254  0.4136 -0.3782 -0.1154
  974MOL0     H28566   4.861   2.342   6.543  0.5940  1.7562 -0.9666
  974MOL0     H28567   4.097   2.658   6.184 -0.2761  2.9449 -0.9342
  974MOL0     H28568   3.899   2.558   6.132 -1.3486 -0.7488 -2.5158
  975MOL0     O28569   9.119   2.844   7.200  0.4246  0.7853  0.0084
  975MOL0     C28570   9.064   2.916   7.278 -0.8997  0.1464 -0.8044
  975MOL0     O28571   8.950   2.983   7.249  0.0856 -0.4811 -0.9932
  975MOL0     C28572   8.873   2.968   7.143 -0.0584 -0.9092 -0.2669
  975MOL0     C28573   8.747   3.025   7.151  0.4427  0.5307  0.7309
  975MOL0     C28574   8.646   2.995   7.058  0.3826  0.3974 -0.5523
  975MOL0     C28575   8.676   2.908   6.946 -0.0172  0.1727  0.0345
  975MOL0     O28576   8.578   2.882   6.856  0.4691  1.3502 -0.4725
  975MOL0     C28577   8.561   2.977   6.755 -0.7932 -0.6251 -0.4331
  975MOL0     C28578   8.501   2.915   6.626 -0.8833  0.4737 -0.0191
  975MOL0     C28579   8.381   2.830   6.652  0.1375 -0.1281 -0.4693
  975MOL0     C28580   8.306   2.780   6.526  0.2183  0.3046  0.6235
  975MOL0     C28581   8.268   2.889   6.420 -0.3932  0.2399 -0.6527
  975MOL0     C28582   8.215   2.822   6.295  0.4428  0.8786  0.0895
  975MOL0     C28583   8.172   2.927   6.190 -0.7070 -0.0625  0.0471
  975MOL0     C28584   8.064   3.033   6.222 -0.4406 -0.2580  0.1289
  975MOL0     N28585   7.938   2.995   6.280  0.3172 -0.4630 -0.4986
  975MOL0     C28586   7.870   2.882   6.251  1.1088  0.7982 -0.5409
  975MOL0     C28587   7.758   2.882   6.332  0.1118 -0.0202 -0.9448
  975MOL0     C28588   7.643   2.783   6.341 -0.1095 -0.6915  0.2589
  975MOL0     C28589   7.522   2.831   6.258  0.5802 -0.2985 -0.0237
  975MOL0     C28590   7.409   2.738   6.286  0.5365  0.2201  0.2242
  975MOL0     C28591   7.272   2.787   6.230 -0.9615  0.4612 -0.5364
  975MOL0     O28592   7.241   2.915   6.297 -0.4832  0.1085  0.5660
  975MOL0     C28593   7.138   2.983   6.253 -0.0194  0.2978  0.5051
  975MOL0     C28594   7.017   2.914   6.216 -0.4093 -0.0492 -0.1278
  975MOL0     C28595   6.901   2.983   6.172  0.5479  0.3763  0.1330
  975MOL0     C28596   6.892   3.129   6.166  0.0016 -1.1802 -1.3062
  975MOL0     C28597   6.774   3.211   6.112  1.2948  0.5908  0.6212
  975MOL0     O28598   6.672   3.123   6.094  0.2476 -0.1990  0.1873
  975MOL0     C28599   6.567   3.181   6.025  0.7025  0.5638 -0.6736
  975MOL0     C28600   6.467   3.263   6.085 -0.3985  0.2305 -0.0822
  975MOL0     C28601   6.364   3.320   6.008 -0.9704 -0.2150  0.5281
  975MOL0     C28602   6.355   3.295   5.871  0.3498  0.1036 -0.0605
  975MOL0     O28603   6.248   3.346   5.801  0.5775 -0.3804 -0.1726
  975MOL0     C28604   6.183   3.256   5.708  0.3851 -0.1775  0.3089
  975MOL0     C28605   6.114   3.134   5.775  0.6698 -0.5112 -0.3424
  975MOL0     C28606   6.000   3.073   5.695 -0.5467 -0.0108  0.9294
  975MOL0     C28607   6.050   3.004   5.573 -0.1602  0.2838 -0.1677
  975MOL0     C28608   5.940   2.991   5.476 -0.7593 -0.5586  0.1995
  975MOL0     C28609   5.972   2.908   5.357  0.2650 -0.0851 -0.4484
  975MOL0     C28610   5.904   2.958   5.234 -0.1127 -0.5385 -0.0245
  975MOL0     C28611   5.958   3.084   5.177 -0.0488  0.2432  0.3327
  975MOL0    Cl28612   5.933   3.107   4.993  0.2498 -0.2548 -0.4493
  975MOL0     C28613   6.450   3.211   5.811  0.0675 -0.1190 -0.2855
  975MOL0     C28614   6.553   3.149   5.888 -0.2378 -0.3419  0.0083
  975MOL0     O28615   6.778   3.327   6.063 -0.5410  0.9344 -0.1720
  975MOL0     C28616   7.009   3.197   6.209  0.3860 -0.1768 -0.1608
  975MOL0     C28617   7.122   3.120   6.244 -0.1591  0.4913 -0.2732
  975MOL0     N28618   7.774   3.001   6.399 -0.7191  0.0253 -0.1874
  975MOL0     N28619   7.885   3.071   6.375  0.0160  0.3007  0.0961
  975MOL0     C28620   8.808   2.848   6.934  0.7816 -0.3655  0.6302
  975MOL0     C28621   8.901   2.889   7.034 -0.2405  0.8301  0.6325
  975MOL0     C28622   9.128   2.932   7.417  0.5467  0.1402  0.2089
  975MOL0     C28623   9.203   2.818   7.464  0.0233  0.7990  0.2139
  975MOL0     C28624   9.268   2.822   7.594  0.0804 -0.0468 -0.0305
  975MOL0     C28625   9.251   2.941   7.671 -0.2818  0.1395  0.1845
  975MOL0     O28626   9.309   2.968   7.796  0.5069 -0.3780  0.2949
  975MOL0     C28627   9.383   2.865   7.866  0.1449  0.1433 -0.3380
  975MOL0     C28628   9.532   2.885   7.859  0.7423 -0.3824  0.6604
  975MOL0     C28629   9.592   3.007   7.936  0.0054 -0.9930  0.5603
  975MOL0     C28630   9.718   3.042   7.857  0.3727  1.0603 -1.0590
  975MOL0     C28631   9.831   2.975   7.929 -1.1072 -0.2966 -0.0733
  975MOL0     C28632   9.936   2.962   7.993  0.2584 -0.5058 -0.3580
  975MOL0     C28633   9.183   3.049   7.619 -0.5662  0.5716  0.3105
  975MOL0     C28634   9.116   3.048   7.490  0.3432  1.0802  0.2794
  975MOL0     H28635   8.711   3.068   7.244 -3.1228  3.4620 -1.7294
  975MOL0     H28636   8.549   3.043   7.069  0.2877 -0.0667  0.8056
  975MOL0     H28637   8.657   3.027   6.734 -1.4649  0.3292 -1.3329
  975MOL0     H28638   8.486   3.050   6.788  0.1969  0.5727 -0.7286
  975MOL0     H28639   8.577   2.852   6.579 -0.3103  0.0660  1.3983
  975MOL0     H28640   8.480   2.997   6.556 -0.8236 -0.3442 -1.0043
  975MOL0     H28641   8.312   2.888   6.713  0.4008  0.6068 -0.8532
  975MOL0     H28642   8.417   2.749   6.716  1.3626  0.4874 -0.3397
  975MOL0     H28643   8.375   2.711   6.476  2.1885  2.9057 -0.5060
  975MOL0     H28644   8.207   2.742   6.550 -1.2045  2.6285 -1.1348
  975MOL0     H28645   8.355   2.953   6.406  0.2798 -0.5429 -0.1476
  975MOL0     H28646   8.190   2.955   6.460 -0.8742 -1.2157  0.9427
  975MOL0     H28647   8.125   2.766   6.324 -0.1861  2.3813  1.1327
  975MOL0     H28648   8.280   2.749   6.246 -0.3793 -1.1535  1.8242
  975MOL0     H28649   8.260   2.985   6.161  1.1315 -1.0379  3.2230
  975MOL0     H28650   8.138   2.882   6.097 -1.8116  0.3626  0.2274
  975MOL0     H28651   8.050   3.076   6.122  2.3769 -4.0084 -2.1752
  975MOL0     H28652   8.107   3.102   6.295 -0.1320 -0.0225 -0.2721
  975MOL0     H28653   7.883   2.813   6.168 -1.3669  1.9580 -2.0038
  975MOL0     H28654   7.614   2.792   6.446  0.2390  2.0027  0.1930
  975MOL0     H28655   7.681   2.685   6.309 -1.2389 -0.3135 -2.6454
  975MOL0     H28656   7.542   2.831   6.150 -1.5391  0.7516 -0.4732
  975MOL0     H28657   7.486   2.929   6.291  0.5670 -0.1681 -0.4203
  975MOL0     H28658   7.420   2.639   6.239 -1.3164 -0.6620  1.5282
  975MOL0     H28659   7.395   2.722   6.393 -1.1407  1.4086  0.2243
  975MOL0     H28660   7.195   2.710   6.241 -2.9044  2.1413 -1.6806
  975MOL0     H28661   7.294   2.794   6.123  1.1083 -2.8085 -0.4818
  975MOL0     H28662   7.006   2.806   6.226 -0.9847  0.0340  0.2080
  975MOL0     H28663   6.808   2.927   6.166  0.4145 -0.3651  5.0536
  975MOL0     H28664   6.482   3.283   6.190  0.3010 -0.5444 -0.0252
  975MOL0     H28665   6.291   3.377   6.065 -1.8737  0.1565 -0.9599
  975MOL0     H28666   6.241   3.231   5.618 -1.2077  0.2601 -0.8774
  975MOL0     H28667   6.093   3.302   5.667  0.2853 -1.0600 -0.4996
  975MOL0     H28668   6.072   3.172   5.869 -0.0935 -1.4513 -0.2770
  975MOL0     H28669   6.183   3.051   5.791  2.7095  0.4900 -3.1794
  975MOL0     H28670   5.943   3.158   5.657  1.1063  1.5414  1.7643
  975MOL0     H28671   5.946   3.011   5.767 -2.8318 -1.2289 -1.6454
  975MOL0     H28672   6.133   3.064   5.534  1.2898  2.3770  5.1861
  975MOL0     H28673   6.088   2.906   5.603 -1.1818  0.2314  1.0537
  975MOL0     H28674   5.921   3.090   5.435  0.9297 -0.2824 -0.0022
  975MOL0     H28675   5.857   2.948   5.532 -0.6070 -1.4127 -0.2173
  975MOL0     H28676   5.943   2.806   5.382  2.1823 -0.3473  0.9346
  975MOL0     H28677   6.078   2.906   5.329  0.5126 -1.9129  0.4824
  975MOL0     H28678   5.907   2.884   5.153  0.3188 -2.1951  1.4472
  975MOL0     H28679   5.798   2.974   5.257  0.0966  0.3734  0.3420
  975MOL0     H28680   6.066   3.085   5.197  0.2363 -3.8819 -0.0239
  975MOL0     H28681   5.909   3.169   5.225 -1.3038 -0.2742  0.0074
  975MOL0     H28682   6.449   3.193   5.704  0.6881 -0.2020 -0.2795
  975MOL0     H28683   6.623   3.081   5.840 -2.2671 -1.7407 -1.1104
  975MOL0     H28684   7.027   3.302   6.228  0.6721 -0.2317 -0.1160
  975MOL0     H28685   7.208   3.180   6.274  0.3881  1.2095 -3.0699
  975MOL0     H28686   8.832   2.782   6.851  0.1814  1.0779 -0.7482
  975MOL0     H28687   9.003   2.860   7.014 -0.5572  0.7377 -0.9962
  975MOL0     H28688   9.215   2.734   7.397 -0.7494  3.6302 -3.8601
  975MOL0     H28689   9.339   2.745   7.622  0.6178 -0.0159 -1.2182
  975MOL0     H28690   9.350   2.767   7.831 -2.6281  0.8718 -0.0076
  975MOL0     H28691   9.357   2.858   7.971 -3.4261  2.4620 -0.9113
  975MOL0     H28692   9.574   2.799   7.912  1.7073 -0.8313 -0.7942
  975MOL0     H28693   9.556   2.881   7.753  2.6251  0.8175  0.9815
  975MOL0     H28694   9.620   2.973   8.036 -0.5566 -2.6718  0.1749
  975MOL0     H28695   9.519   3.088   7.938 -0.5460 -1.4510 -0.4194
  975MOL0     H28696   9.711   3.012   7.752  0.6954 -1.9738 -0.3135
  975MOL0     H28697   9.743   3.149   7.857 -1.1818  1.4702  0.6645
  975MOL0     H28698  10.031   2.944   8.040  0.5572 -0.1103 -0.8056
  975MOL0     H28699   9.172   3.143   7.673 -0.2926  0.7667  0.0310
  975MOL0     H28700   9.044   3.126   7.466  1.9753  2.2457 -0.9708
  976MOL0     O28701   2.970   9.920   9.760 -0.3003  0.2912 -0.0863
  976MOL0     C28702   2.923   9.837   9.685 -0.7132 -1.0938  0.5157
  976MOL0     O28703   2.971   9.816   9.555 -0.0613 -0.4571 -0.4879
  976MOL0     C28704   3.098   9.863   9.514 -0.2216  0.6004 -0.9366
  976MOL0     C28705   3.203   9.841   9.590 -0.6676 -0.3282 -0.5313
  976MOL0     C28706   3.331   9.867   9.532  0.1328 -0.6334  0.1773
  976MOL0     C28707   3.346   9.954   9.417  0.0206 -0.0230  0.3684
  976MOL0     O28708   3.459   9.992   9.354 -0.0495  0.1873  0.7503
  976MOL0     C28709   3.549   9.882   9.329  0.4390 -1.0186  0.0925
  976MOL0     C28710   3.675   9.921   9.409  0.8810  0.2217 -0.5873
  976MOL0     C28711   3.785   9.831   9.362 -0.0193  0.1244 -0.3972
  976MOL0     C28712   3.753   9.679   9.378  0.0445 -0.6793 -0.1063
  976MOL0     C28713   3.881   9.595   9.361  0.0323 -0.5118  0.6402
  976MOL0     C28714   3.868   9.440   9.354 -0.2625 -0.2852 -0.4874
  976MOL0     C28715   3.758   9.396   9.259 -0.3651 -0.2804 -0.5501
  976MOL0     C28716   3.631   9.356   9.335  0.5261  0.0983  0.1699
  976MOL0     N28717   3.639   9.221   9.397  1.0640  0.6746 -0.0329
  976MOL0     C28718   3.559   9.173   9.499  0.1735  0.0497  0.2420
  976MOL0     C28719   3.566   9.036   9.497  0.3218 -0.0682 -0.0300
  976MOL0     C28720   3.487   8.936   9.578 -0.4224 -0.0666 -0.0361
  976MOL0     C28721   3.343   8.946   9.573  0.0322  0.7843  0.6602
  976MOL0     C28722   3.272   8.820   9.626 -0.2495 -0.3212 -0.1536
  976MOL0     C28723   3.138   8.790   9.569  0.4403 -0.0467 -1.3253
  976MOL0     O28724   3.052   8.907   9.601 -0.1744 -0.7349  0.1602
  976MOL0     C28725   2.917   8.888   9.595 -0.2169 -0.5709 -0.2782
  976MOL0     C28726   2.831   8.992   9.632  0.2697 -0.3899 -0.3444
  976MOL0     C28727   2.696   8.965   9.645  0.3915  0.1377  0.2909
  976MOL0     C28728   2.635   8.840   9.619 -0.5296 -0.1862 -0.3396
  976MOL0     C28729   2.488   8.820   9.622  0.8202  0.2108 -0.0464
  976MOL0     O28730   2.436   8.708   9.563  0.8823 -0.1030 -0.5635
  976MOL0     C28731   2.302   8.676   9.556  0.4522  0.2305 -0.6880
  976MOL0     C28732   2.200   8.716   9.648 -0.9319 -0.8049  0.2030
  976MOL0     C28733   2.068   8.669   9.646 -0.5065  0.8923 -0.4131
  976MOL0     C28734   2.043   8.558   9.556 -0.4641  0.2577 -0.6139
  976MOL0     O28735   1.915   8.493   9.570 -0.5878 -0.4188  0.0611
  976MOL0     C28736   1.878   8.419   9.451 -0.4124  0.7037 -0.3521
  976MOL0     C28737   1.734   8.360   9.451 -0.1079 -0.0853 -0.3132
  976MOL0     C28738   1.634   8.467   9.430  0.6279 -0.1318  0.3299
  976MOL0     C28739   1.491   8.414   9.411 -0.2300 -0.2952 -0.9868
  976MOL0     C28740   1.389   8.524   9.395 -0.0189 -0.3811 -0.3530
  976MOL0     C28741   1.261   8.491   9.494  0.0670 -0.2833  0.4167
  976MOL0     C28742   1.155   8.594   9.488  1.0960 -0.6812 -0.0805
  976MOL0     C28743   1.090   8.613   9.353  0.0767  0.1181 -0.6340
  976MOL0    Cl28744   0.938   8.710   9.363  0.0373 -0.3933  0.0994
  976MOL0     C28745   2.138   8.533   9.463  0.4337  1.4781  0.7735
  976MOL0     C28746   2.269   8.589   9.460  0.4312 -0.1966  0.3216
  976MOL0     O28747   2.421   8.907   9.675  0.3870 -0.2718 -0.0213
  976MOL0     C28748   2.724   8.742   9.560  1.2695 -0.2603  0.9306
  976MOL0     C28749   2.859   8.766   9.546 -0.3579 -0.8378  1.3238
  976MOL0     N28750   3.667   9.007   9.412  0.0550  0.3303 -0.1352
  976MOL0     N28751   3.707   9.113   9.356 -0.2651 -0.4871 -0.5586
  976MOL0     C28752   3.227   9.983   9.353  0.8711 -0.2052  0.2471
  976MOL0     C28753   3.110   9.935   9.396 -0.8633 -0.0266 -0.1843
  976MOL0     C28754   2.792   9.780   9.705 -0.1583 -0.2736  0.7462
  976MOL0     C28755   2.734   9.688   9.613  0.5159  0.0252  0.5513
  976MOL0     C28756   2.606   9.635   9.641 -0.7310 -0.6544  0.0243
  976MOL0     C28757   2.531   9.678   9.747  0.3512 -0.4299 -0.4677
  976MOL0     O28758   2.404   9.632   9.770 -0.0628  0.9298  0.6282
  976MOL0     C28759   2.314   9.707   9.859  0.3945 -0.0175 -0.2791
  976MOL0     C28760   2.167   9.680   9.826  0.7743  0.5716 -0.0667
  976MOL0     C28761   2.144   9.710   9.675  0.1340 -0.2158  0.6609
  976MOL0     C28762   1.993   9.694   9.632  1.0857 -0.4240 -0.3902
  976MOL0     C28763   1.921   9.569   9.673  0.3139  0.3635  0.4464
  976MOL0     C28764   1.850   9.477   9.692 -0.2310 -0.3476  0.8797
  976MOL0     C28765   2.592   9.758   9.841  0.5710 -0.2072  0.6914
  976MOL0     C28766   2.723   9.812   9.829 -0.0178  0.4444  0.8449
  976MOL0     H28767   3.199   9.794   9.687  0.7636 -2.1857 -1.3190
  976MOL0     H28768   3.425   9.840   9.579 -0.0511  1.5135  1.9697
  976MOL0     H28769   3.594   9.871   9.229  0.0821  0.7102 -0.3077
  976MOL0     H28770   3.491   9.792   9.348 -0.3768 -0.6115 -0.4328
  976MOL0     H28771   3.650   9.917   9.515 -0.0783  0.2807 -0.7968
  976MOL0     H28772   3.703  10.025   9.390 -2.7541  1.2748 -1.0644
  976MOL0     H28773   3.877   9.854   9.415  0.8223  1.7098 -2.3985
  976MOL0     H28774   3.816   9.850   9.259  0.7918  0.1517 -0.1515
  976MOL0     H28775   3.707   9.656   9.474 -0.3476  1.1888  0.1978
  976MOL0     H28776   3.668   9.655   9.314  1.3037 -0.8046 -1.8238
  976MOL0     H28777   3.957   9.611   9.438  2.3858  0.5423 -1.7279
  976MOL0     H28778   3.920   9.625   9.263 -1.5047  0.2370  0.2328
  976MOL0     H28779   3.874   9.382   9.447  2.6383 -0.1396 -0.4839
  976MOL0     H28780   3.966   9.410   9.314  1.4327  3.0303  0.7943
  976MOL0     H28781   3.740   9.471   9.181 -1.7495  0.4357  0.4074
  976MOL0     H28782   3.798   9.311   9.203  0.7793 -0.3013  0.2564
  976MOL0     H28783   3.553   9.347   9.259  0.0067  3.8792  0.0773
  976MOL0     H28784   3.600   9.430   9.409  0.3749  0.6521 -0.4406
  976MOL0     H28785   3.494   9.226   9.567  1.5132  2.1314 -0.0327
  976MOL0     H28786   3.508   8.960   9.683  2.0111 -1.9836  0.0084
  976MOL0     H28787   3.519   8.834   9.553  1.0184  0.3347  0.0661
  976MOL0     H28788   3.303   8.983   9.478  2.2447  1.8704  0.0830
  976MOL0     H28789   3.313   9.021   9.647 -0.2676  2.3346 -0.9717
  976MOL0     H28790   3.327   8.728   9.604  1.8233  0.7024  0.4462
  976MOL0     H28791   3.266   8.823   9.735 -1.0247 -0.4371 -0.1873
  976MOL0     H28792   3.117   8.696   9.621 -0.0987 -0.6845 -2.6617
  976MOL0     H28793   3.140   8.761   9.464 -0.8436 -1.0137 -1.1067
  976MOL0     H28794   2.854   9.095   9.658 -3.7811  1.1560 -2.0461
  976MOL0     H28795   2.625   9.045   9.663  1.2877  1.1003 -0.3309
  976MOL0     H28796   2.230   8.776   9.733  1.5617 -1.9991  0.2626
  976MOL0     H28797   1.991   8.689   9.720  2.5370  3.0564  2.4452
  976MOL0     H28798   1.937   8.327   9.442 -0.2471  0.7079  0.5516
  976MOL0     H28799   1.897   8.478   9.360  0.1471  4.0116  1.7395
  976MOL0     H28800   1.721   8.317   9.551 -0.8492 -3.0545 -1.6021
  976MOL0     H28801   1.725   8.292   9.366 -0.8392  1.5100 -1.5611
  976MOL0     H28802   1.676   8.518   9.343  0.0970 -1.6661 -0.8699
  976MOL0     H28803   1.624   8.542   9.509 -3.5646  0.6811 -0.7228
  976MOL0     H28804   1.470   8.345   9.329  2.3109 -1.7012 -0.5354
  976MOL0     H28805   1.483   8.351   9.499 -0.7119  1.0196 -0.0613
  976MOL0     H28806   1.358   8.523   9.290 -0.4936  1.0008 -0.2449
  976MOL0     H28807   1.429   8.625   9.401 -3.6308  1.2242 -0.9294
  976MOL0     H28808   1.287   8.467   9.597 -3.1612 -2.3347  0.8949
  976MOL0     H28809   1.223   8.401   9.444  2.7990 -0.6355 -1.2131
  976MOL0     H28810   1.072   8.554   9.548 -0.3380  1.7260 -0.3553
  976MOL0     H28811   1.193   8.685   9.535 -1.8528 -0.0213  1.2582
  976MOL0     H28812   1.072   8.511   9.320  3.8469 -0.6045 -0.9629
  976MOL0     H28813   1.161   8.656   9.281  1.5253  0.4433  0.9079
  976MOL0     H28814   2.105   8.470   9.382  0.2439  0.9017  1.2900
  976MOL0     H28815   2.346   8.557   9.391  2.4344  0.8938  1.9331
  976MOL0     H28816   2.681   8.652   9.517  0.5296  1.1713 -1.5814
  976MOL0     H28817   2.925   8.701   9.489 -1.6037  0.5887 -1.9693
  976MOL0     H28818   3.222  10.050   9.268 -0.7187 -1.4614 -0.7026
  976MOL0     H28819   3.017   9.953   9.343 -0.8777 -4.0281 -1.9137
  976MOL0     H28820   2.778   9.642   9.525  1.7458 -1.6376  1.9521
  976MOL0     H28821   2.561   9.562   9.574 -2.1994  2.2900 -2.4723
  976MOL0     H28822   2.337   9.814   9.847  0.1282  0.2934  1.7471
  976MOL0     H28823   2.331   9.671   9.960  2.6293  3.4647  0.7458
  976MOL0     H28824   2.166   9.572   9.847  1.2114  0.4599 -0.5861
  976MOL0     H28825   2.106   9.731   9.901  2.5711  1.1131  1.1101
  976MOL0     H28826   2.199   9.649   9.603 -0.2224 -0.3865  0.5320
  976MOL0     H28827   2.186   9.809   9.657 -1.2205  0.5756  1.6620
  976MOL0     H28828   1.931   9.776   9.668  1.7877 -0.7681  1.7314
  976MOL0     H28829   1.985   9.701   9.523  3.2981  0.3907 -0.5507
  976MOL0     H28830   1.795   9.392   9.728  0.0378 -1.1043 -0.4226
  976MOL0     H28831   2.545   9.776   9.937  1.4098  2.4439  0.6801
  976MOL0     H28832   2.760   9.879   9.906  2.1821 -0.2655  0.4668
  977MOL0     O28833   7.907   7.473   0.843 -0.2634 -0.8148 -0.6042
  977MOL0     C28834   7.835   7.570   0.836 -0.0018  0.3277  0.2605
  977MOL0     O28835   7.727   7.589   0.909 -0.1567 -0.3101  0.1578
  977MOL0     C28836   7.694   7.480   0.994 -0.4013  0.5597 -1.1463
  977MOL0     C28837   7.579   7.404   0.964  0.3303  0.4451 -0.2271
  977MOL0     C28838   7.521   7.313   1.055 -0.0547  0.0274 -0.5552
  977MOL0     C28839   7.584   7.301   1.184 -0.3079  0.5401  0.0210
  977MOL0     O28840   7.528   7.217   1.282 -0.0931  0.1304  0.5294
  977MOL0     C28841   7.603   7.182   1.396  0.3136  0.1494 -0.3187
  977MOL0     C28842   7.523   7.084   1.481 -0.9564  0.1437  0.2776
  977MOL0     C28843   7.402   7.158   1.529  0.9036 -0.1980 -0.5047
  977MOL0     C28844   7.302   7.078   1.612 -0.0589 -0.1055  0.2759
  977MOL0     C28845   7.197   7.165   1.682  0.7365 -0.3795 -0.4044
  977MOL0     C28846   7.103   7.247   1.586 -0.0262 -1.0680 -0.3921
  977MOL0     C28847   7.135   7.399   1.575 -0.2351 -0.1682 -0.1663
  977MOL0     C28848   7.105   7.464   1.701 -0.6889  0.2608 -0.1743
  977MOL0     N28849   6.978   7.458   1.774  0.0437  0.0836  0.1205
  977MOL0     C28850   6.858   7.491   1.724 -0.3788 -0.3804  0.2010
  977MOL0     C28851   6.776   7.427   1.809  0.5746 -0.7457  0.2625
  977MOL0     C28852   6.622   7.446   1.808 -1.0254  0.7570 -0.6627
  977MOL0     C28853   6.567   7.588   1.806  0.0790 -0.2686  0.3065
  977MOL0     C28854   6.432   7.609   1.860  0.8553  0.7075 -0.7850
  977MOL0     C28855   6.331   7.521   1.783 -0.1710 -0.0354 -0.0249
  977MOL0     O28856   6.308   7.569   1.650 -0.0523 -0.5196  0.0897
  977MOL0     C28857   6.174   7.573   1.612 -0.1912  0.9857  0.5156
  977MOL0     C28858   6.079   7.463   1.613 -0.6709 -0.3142  0.3585
  977MOL0     C28859   5.954   7.479   1.558  0.2546 -0.1784 -0.3312
  977MOL0     C28860   5.911   7.608   1.514  0.2950  0.9064  0.1409
  977MOL0     C28861   5.775   7.623   1.458 -0.0316  0.3409 -0.3358
  977MOL0     O28862   5.715   7.743   1.478 -0.1722 -0.2001  0.1339
  977MOL0     C28863   5.579   7.760   1.490 -0.1569  0.8738  0.5623
  977MOL0     C28864   5.520   7.888   1.472  0.3158  0.2067 -0.8674
  977MOL0     C28865   5.378   7.915   1.500 -0.5316 -0.0865  0.0270
  977MOL0     C28866   5.289   7.820   1.545 -0.3040  0.3502 -0.6382
  977MOL0     O28867   5.161   7.835   1.583  0.0974  0.1781  0.5344
  977MOL0     C28868   5.103   7.963   1.586 -0.6514  0.4415  0.4133
  977MOL0     C28869   4.954   7.941   1.584  0.0477 -0.0065  0.5458
  977MOL0     C28870   4.882   8.061   1.546  0.4469 -0.2121 -0.1169
  977MOL0     C28871   4.888   8.188   1.645  0.0896  0.2854  0.7917
  977MOL0     C28872   4.842   8.156   1.791  0.1912 -0.1801  0.8391
  977MOL0     C28873   4.694   8.165   1.821 -0.3799  0.1894 -0.2542
  977MOL0     C28874   4.640   8.310   1.824 -0.5088  0.8888  0.6348
  977MOL0     C28875   4.484   8.310   1.825 -0.5123 -0.2438 -0.2042
  977MOL0    Cl28876   4.425   8.223   1.953  0.2662 -0.1318 -0.3837
  977MOL0     C28877   5.349   7.694   1.561  0.4039  0.4036 -0.1199
  977MOL0     C28878   5.489   7.668   1.547  0.8312 -0.5823 -0.0524
  977MOL0     O28879   5.716   7.527   1.414 -0.1913  0.4962  0.0473
  977MOL0     C28880   6.000   7.722   1.525 -0.0190  0.0503 -0.0651
  977MOL0     C28881   6.129   7.702   1.577 -0.7134  0.2828 -0.3682
  977MOL0     N28882   6.840   7.353   1.909  0.8208 -0.8134 -0.7606
  977MOL0     N28883   6.965   7.363   1.872  0.1915  0.5560  0.7064
  977MOL0     C28884   7.711   7.366   1.210 -0.1066  0.5104 -0.3516
  977MOL0     C28885   7.763   7.456   1.118  0.5864 -0.2701 -0.8085
  977MOL0     C28886   7.873   7.676   0.739 -0.0910 -0.0650 -0.6186
  977MOL0     C28887   7.829   7.811   0.743  0.9379 -0.6423 -1.3791
  977MOL0     C28888   7.894   7.907   0.663  0.8909  0.4086  0.3531
  977MOL0     C28889   7.994   7.872   0.569  0.3585  0.0925 -0.3175
  977MOL0     O28890   8.055   7.966   0.502  0.3355  0.6080 -0.0278
  977MOL0     C28891   8.182   8.006   0.557  0.1466  0.6014 -0.6589
  977MOL0     C28892   8.270   8.061   0.449 -0.6320 -0.5572  0.6029
  977MOL0     C28893   8.330   7.945   0.370  0.7851  0.8584 -0.9370
  977MOL0     C28894   8.437   7.986   0.281 -0.2165  0.2553 -0.3282
  977MOL0     C28895   8.450   7.884   0.169  0.0307 -0.8615  0.8989
  977MOL0     C28896   8.451   7.799   0.076  0.1437  0.5587 -0.1717
  977MOL0     C28897   8.007   7.737   0.538 -0.1055 -0.0394  0.6642
  977MOL0     C28898   7.955   7.640   0.625  0.4857  0.2693  0.6179
  977MOL0     H28899   7.530   7.416   0.868  1.6329 -1.6526 -1.2244
  977MOL0     H28900   7.431   7.257   1.032  0.0135 -1.0152  1.5583
  977MOL0     H28901   7.629   7.269   1.457 -0.6680 -2.0513  3.5740
  977MOL0     H28902   7.697   7.134   1.368  0.6899  1.3784 -1.2326
  977MOL0     H28903   7.590   7.062   1.565  2.2165  1.9684 -1.5517
  977MOL0     H28904   7.506   6.988   1.432  0.7048 -0.7092  1.2744
  977MOL0     H28905   7.345   7.185   1.440  0.8121 -3.4042 -1.5745
  977MOL0     H28906   7.430   7.246   1.587 -1.1513 -2.2548  4.1258
  977MOL0     H28907   7.246   7.011   1.546  1.2466 -1.0744  0.1010
  977MOL0     H28908   7.355   7.017   1.687  1.3935 -1.5432 -1.8030
  977MOL0     H28909   7.257   7.231   1.745 -2.4888  0.7113  1.8375
  977MOL0     H28910   7.135   7.103   1.748 -1.4379  0.6004 -1.4055
  977MOL0     H28911   6.996   7.238   1.609 -0.2884  0.2594 -1.0051
  977MOL0     H28912   7.096   7.198   1.489 -1.0087  1.6970 -1.8379
  977MOL0     H28913   7.237   7.398   1.535 -0.3995  0.8503 -0.6539
  977MOL0     H28914   7.070   7.435   1.495 -0.1667  0.0344 -0.1314
  977MOL0     H28915   7.120   7.572   1.685 -0.3728  0.3374  0.5830
  977MOL0     H28916   7.191   7.444   1.766  0.2925  0.5484 -1.3533
  977MOL0     H28917   6.833   7.561   1.645  0.4717 -0.3396 -0.0348
  977MOL0     H28918   6.596   7.403   1.904  0.0071 -0.0214 -0.7099
  977MOL0     H28919   6.573   7.386   1.731 -2.0361 -0.7707  1.0890
  977MOL0     H28920   6.559   7.614   1.700 -0.1552 -1.4224  0.0241
  977MOL0     H28921   6.640   7.652   1.857 -1.9912  2.4098  0.1326
  977MOL0     H28922   6.435   7.582   1.966  0.8155 -1.6123 -1.3221
  977MOL0     H28923   6.399   7.713   1.854  0.7842  0.9946  2.6607
  977MOL0     H28924   6.236   7.525   1.837  0.6246 -0.7390  1.5048
  977MOL0     H28925   6.360   7.415   1.787  1.0242  0.1500 -2.2104
  977MOL0     H28926   6.114   7.366   1.648 -1.8607 -0.1872  2.0110
  977MOL0     H28927   5.896   7.388   1.541  3.4358 -2.1903 -1.4728
  977MOL0     H28928   5.574   7.975   1.436 -1.2681  1.6244  0.0630
  977MOL0     H28929   5.340   8.016   1.486 -1.5839 -0.3497  0.8580
  977MOL0     H28930   5.129   8.019   1.495 -3.3257 -1.2390 -1.5710
  977MOL0     H28931   5.120   8.013   1.682 -1.3624  0.8793  0.3256
  977MOL0     H28932   4.909   7.893   1.671 -3.9202 -4.2302 -3.2560
  977MOL0     H28933   4.941   7.871   1.500 -1.7789  0.7411  0.1527
  977MOL0     H28934   4.779   8.030   1.530  0.4612  0.0665 -0.7522
  977MOL0     H28935   4.926   8.094   1.452  2.1976 -3.3344 -0.5424
  977MOL0     H28936   4.990   8.226   1.650  0.1324  0.5157 -1.1725
  977MOL0     H28937   4.820   8.259   1.597  0.5015  1.2576  1.6257
  977MOL0     H28938   4.883   8.229   1.861  0.6540  0.6563 -0.2730
  977MOL0     H28939   4.896   8.065   1.821  0.8439  0.3214  1.2096
  977MOL0     H28940   4.674   8.126   1.922 -2.5923  0.4154 -0.5727
  977MOL0     H28941   4.652   8.094   1.750  1.1540 -3.3207  2.0039
  977MOL0     H28942   4.678   8.362   1.913  0.5777 -0.4481  0.9770
  977MOL0     H28943   4.680   8.365   1.738  1.2167 -0.0238  0.8144
  977MOL0     H28944   4.440   8.271   1.732 -1.2921 -2.0130  0.8462
  977MOL0     H28945   4.456   8.416   1.825  2.4771  0.6759 -2.3912
  977MOL0     H28946   5.291   7.612   1.603  1.0546 -0.3144 -0.6119
  977MOL0     H28947   5.512   7.567   1.580  1.0684 -0.7152 -0.6244
  977MOL0     H28948   5.958   7.817   1.492 -0.3578  0.3151  1.0893
  977MOL0     H28949   6.203   7.781   1.566 -0.3065 -0.2933 -2.2526
  977MOL0     H28950   7.779   7.343   1.291  0.7888  2.5564 -0.4671
  977MOL0     H28951   7.854   7.514   1.133  2.1328 -1.5558 -4.1251
  977MOL0     H28952   7.757   7.853   0.814  1.6889  2.1728 -2.1561
  977MOL0     H28953   7.875   8.012   0.681 -0.8851  0.5079 -1.7645
  977MOL0     H28954   8.219   7.913   0.600 -3.8439 -1.8387 -1.9965
  977MOL0     H28955   8.180   8.081   0.637  2.2148  0.4816 -0.4235
  977MOL0     H28956   8.218   8.136   0.389  0.9419 -0.8678 -1.2801
  977MOL0     H28957   8.355   8.118   0.488  2.0201 -0.0687 -4.9353
  977MOL0     H28958   8.259   7.877   0.322  1.1001 -1.6921  1.9291
  977MOL0     H28959   8.366   7.870   0.441 -4.9272 -0.8386  0.7221
  977MOL0     H28960   8.437   8.089   0.243 -0.8255 -0.1707 -1.5414
  977MOL0     H28961   8.534   7.989   0.330 -0.2719 -2.0049  0.0002
  977MOL0     H28962   8.473   7.730  -0.003 -0.5995 -0.7631  0.7254
  977MOL0     H28963   8.071   7.700   0.458  3.0322  1.9693  2.0637
  977MOL0     H28964   7.978   7.537   0.604  0.4222  0.4736 -0.5328
  978MOL0     O28965   1.231  10.058   0.559 -0.7673  0.8034 -0.6848
  978MOL0     C28966   1.195  10.173   0.554  0.5389 -0.0496  0.4089
  978MOL0     O28967   1.254  10.271   0.483  0.5488  0.1317  0.0721
  978MOL0     C28968   1.360  10.246   0.413  0.5091  0.5122  0.7372
  978MOL0     C28969   1.452  10.141   0.406  0.5042  0.3022  0.0091
  978MOL0     C28970   1.568  10.143   0.324  0.4172  0.4245 -0.1611
  978MOL0     C28971   1.599  10.251   0.239 -0.2312  0.5210 -0.4941
  978MOL0     O28972   1.709  10.238   0.160 -0.0202 -0.2782  0.7503
  978MOL0     C28973   1.772  10.356   0.103  0.4225  0.6880 -0.7647
  978MOL0     C28974   1.882  10.316  -0.002  0.1766 -0.1888 -0.2419
  978MOL0     C28975   1.986  10.219   0.054 -0.0186  1.4621 -1.1673
  978MOL0     C28976   2.094  10.169  -0.043 -0.0335  0.2651 -0.0530
  978MOL0     C28977   2.169  10.281  -0.113 -0.1333 -0.2308 -1.0020
  978MOL0     C28978   2.302  10.223  -0.174 -0.7847 -0.3454  0.2397
  978MOL0     C28979   2.420  10.209  -0.071  0.9020 -0.0064  0.3616
  978MOL0     C28980   2.491  10.082  -0.081  0.2688  0.6592  0.2582
  978MOL0     N28981   2.410   9.959  -0.083 -0.1589  0.2188  0.0710
  978MOL0     C28982   2.364   9.881   0.026  0.3206  0.2572  0.6371
  978MOL0     C28983   2.302   9.772  -0.038 -0.1569  0.7493  0.0378
  978MOL0     C28984   2.243   9.652   0.037  0.4105 -0.7809 -0.5035
  978MOL0     C28985   2.098   9.673   0.070 -0.2469 -0.4924  0.1266
  978MOL0     C28986   2.066   9.787   0.161 -0.0594 -0.1251 -0.3890
  978MOL0     C28987   1.922   9.768   0.203 -0.3540 -0.4049  0.4106
  978MOL0     O28988   1.919   9.797   0.345  0.3213  0.1372 -0.6784
  978MOL0     C28989   1.797   9.773   0.401 -0.1246 -0.5783 -0.8366
  978MOL0     C28990   1.773   9.854   0.509 -0.9170 -0.9024  0.0211
  978MOL0     C28991   1.647   9.856   0.568 -0.0119  0.5193 -0.5028
  978MOL0     C28992   1.539   9.776   0.533 -0.1702 -0.7171  1.3189
  978MOL0     C28993   1.422   9.761   0.616 -1.0970 -0.7382  0.5320
  978MOL0     O28994   1.320   9.706   0.540 -0.1535  0.2961  0.6123
  978MOL0     C28995   1.199   9.678   0.585  0.4138  0.1120 -0.8637
  978MOL0     C28996   1.135   9.745   0.690  0.8782  0.7905  0.2523
  978MOL0     C28997   1.006   9.701   0.724 -0.5142  0.1238  0.5494
  978MOL0     C28998   0.955   9.581   0.669 -0.3734  0.9044 -1.6604
  978MOL0     O28999   0.848   9.510   0.721  0.6199 -0.0264  0.3744
  978MOL0     C29000   0.787   9.549   0.839  0.2007  0.1644 -0.6312
  978MOL0     C29001   0.677   9.439   0.866  0.0548 -0.5681 -0.2090
  978MOL0     C29002   0.605   9.465   1.000 -0.0222  0.0279 -0.3279
  978MOL0     C29003   0.574   9.607   1.038 -0.1787  0.4254 -0.6843
  978MOL0     C29004   0.472   9.615   1.148  0.9256 -0.1098  0.4763
  978MOL0     C29005   0.529   9.588   1.292  0.5144  0.7790 -0.3361
  978MOL0     C29006   0.427   9.591   1.415 -0.4462  0.3518 -0.1176
  978MOL0     C29007   0.484   9.504   1.530  0.2646  0.0479 -0.2619
  978MOL0    Cl29008   0.338   9.491   1.643  0.2459  0.1333  0.0470
  978MOL0     C29009   1.028   9.510   0.573 -0.4198  1.0503 -1.0989
  978MOL0     C29010   1.144   9.566   0.524 -0.5656  0.6512  0.0080
  978MOL0     O29011   1.426   9.775   0.738 -0.1565  0.4772  0.3391
  978MOL0     C29012   1.553   9.708   0.411  0.4387 -0.1215 -0.6301
  978MOL0     C29013   1.683   9.704   0.352 -0.1025 -0.0122  0.3137
  978MOL0     N29014   2.325   9.783  -0.178 -0.2211 -0.2649 -0.3794
  978MOL0     N29015   2.386   9.896  -0.202  0.1565 -0.0091 -0.8206
  978MOL0     C29016   1.503  10.359   0.250  0.2162  0.4616 -0.2100
  978MOL0     C29017   1.388  10.353   0.332  1.1549 -0.3634  0.1635
  978MOL0     C29018   1.080  10.206   0.633 -0.9857  0.5662  0.2546
  978MOL0     C29019   0.982  10.112   0.664  0.1490  0.0747 -0.2673
  978MOL0     C29020   0.877  10.152   0.758  0.1271  0.9723 -0.1096
  978MOL0     C29021   0.871  10.280   0.808  0.3643 -0.1473 -0.3674
  978MOL0     O29022   0.776  10.292   0.902 -0.4482 -0.2082  0.3980
  978MOL0     C29023   0.800  10.397   0.994 -0.1754 -0.3817  0.4667
  978MOL0     C29024   0.661  10.407   1.058  0.7699 -0.4751  0.3184
  978MOL0     C29025   0.617  10.285   1.143 -0.1969 -0.0170 -0.7146
  978MOL0     C29026   0.480  10.296   1.193  0.4187  0.2495  0.0646
  978MOL0     C29027   0.374  10.335   1.092  0.4688  0.7146 -0.7895
  978MOL0     C29028   0.303  10.368   1.002 -0.2019  0.5272  1.1603
  978MOL0     C29029   0.964  10.381   0.757  0.2138  0.2179  0.7017
  978MOL0     C29030   1.068  10.344   0.678 -0.4941  0.1995 -0.3053
  978MOL0     H29031   1.440  10.059   0.476  2.0373  1.0833  1.2485
  978MOL0     H29032   1.627  10.051   0.332 -0.0492  0.2898  2.5342
  978MOL0     H29033   1.823  10.408   0.185 -0.8359  1.3525 -0.3777
  978MOL0     H29034   1.699  10.413   0.045 -0.8305 -0.0392  0.0564
  978MOL0     H29035   1.929  10.407  -0.039  1.7274 -1.0468 -0.4580
  978MOL0     H29036   1.841  10.272  -0.094  0.8710 -2.6361  0.5533
  978MOL0     H29037   1.934  10.137   0.103 -0.9032  1.5199 -1.9871
  978MOL0     H29038   2.034  10.276   0.134 -1.3762 -2.0268  2.4579
  978MOL0     H29039   2.159  10.112   0.026 -1.9256 -0.1128  1.5110
  978MOL0     H29040   2.062  10.097  -0.118  2.1852  0.7314 -1.5440
  978MOL0     H29041   2.207  10.348  -0.036  0.3061 -0.0513 -1.3661
  978MOL0     H29042   2.103  10.334  -0.184  2.0081  1.1377 -2.0772
  978MOL0     H29043   2.335  10.299  -0.245  0.6359 -0.0354  1.1951
  978MOL0     H29044   2.278  10.129  -0.226 -0.8091  1.9168 -4.3739
  978MOL0     H29045   2.491  10.291  -0.088 -0.3071  0.5894 -2.2286
  978MOL0     H29046   2.386  10.213   0.032  0.7905  2.9931  0.2946
  978MOL0     H29047   2.566  10.086  -0.001 -1.0856  1.1700  1.5414
  978MOL0     H29048   2.540  10.098  -0.177 -2.7572  2.4377 -1.1334
  978MOL0     H29049   2.379   9.905   0.131 -2.2596 -0.0168  1.1461
  978MOL0     H29050   2.315   9.632   0.118  2.1794  0.3398 -1.7245
  978MOL0     H29051   2.237   9.562  -0.025  0.1404 -1.0648 -0.0728
  978MOL0     H29052   2.088   9.581   0.128 -0.0652 -0.1817  0.6536
  978MOL0     H29053   2.043   9.675  -0.025 -0.1342  1.2423  0.0697
  978MOL0     H29054   2.136   9.772   0.244 -0.5432 -3.4754 -0.4280
  978MOL0     H29055   2.080   9.885   0.116 -0.0975  0.2924  0.4883
  978MOL0     H29056   1.898   9.662   0.190  3.4032 -1.3749  0.2515
  978MOL0     H29057   1.854   9.835   0.150  1.9535  0.9892 -0.9328
  978MOL0     H29058   1.844   9.929   0.545 -1.2409  0.2266 -1.5666
  978MOL0     H29059   1.632   9.925   0.651  1.1655  0.6687 -0.4084
  978MOL0     H29060   1.192   9.828   0.729  2.3679 -0.0617 -0.0529
  978MOL0     H29061   0.943   9.761   0.789 -1.3740  1.1886 -1.1932
  978MOL0     H29062   0.739   9.647   0.839  1.9813  1.0757 -0.2169
  978MOL0     H29063   0.850   9.529   0.926 -0.1999 -2.5210 -0.8510
  978MOL0     H29064   0.722   9.340   0.870  0.5383 -0.3569 -0.3499
  978MOL0     H29065   0.609   9.433   0.780  0.4210 -0.4936 -0.5058
  978MOL0     H29066   0.670   9.425   1.079 -1.3015  1.9403  1.8549
  978MOL0     H29067   0.517   9.403   0.987 -1.0644  1.2063  0.7713
  978MOL0     H29068   0.661   9.657   1.083 -0.5659 -0.9302  1.7461
  978MOL0     H29069   0.545   9.675   0.958 -0.2995  0.6412 -0.4614
  978MOL0     H29070   0.384   9.555   1.122  1.0061 -0.7568  1.6326
  978MOL0     H29071   0.436   9.719   1.149 -1.7577 -0.9734  0.2558
  978MOL0     H29072   0.614   9.657   1.307  1.0129  0.0907  0.0804
  978MOL0     H29073   0.575   9.489   1.289 -2.9151 -0.9500 -0.1179
  978MOL0     H29074   0.408   9.686   1.465  0.5299 -0.6944  2.4243
  978MOL0     H29075   0.340   9.545   1.367  0.7218  0.0027 -2.0254
  978MOL0     H29076   0.568   9.552   1.582 -1.4975  2.6220  0.4019
  978MOL0     H29077   0.498   9.400   1.499 -3.1376 -1.5599  2.9226
  978MOL0     H29078   1.002   9.413   0.533  2.3386 -0.6828  0.9018
  978MOL0     H29079   1.197   9.511   0.446  1.1322  3.3370 -0.8683
  978MOL0     H29080   1.476   9.649   0.361  0.3299 -0.6184  0.1222
  978MOL0     H29081   1.691   9.652   0.257 -3.2588 -0.2923  0.0997
  978MOL0     H29082   1.500  10.441   0.179  0.6888  1.0012  0.3902
  978MOL0     H29083   1.319  10.435   0.315  2.0137  0.1658 -0.9240
  978MOL0     H29084   0.985  10.012   0.622  0.7023  0.0988 -0.2909
  978MOL0     H29085   0.811  10.076   0.797 -0.3044  1.9648  1.1384
  978MOL0     H29086   0.823  10.489   0.940  0.5720 -1.1341 -0.5287
  978MOL0     H29087   0.873  10.361   1.066  2.0667 -0.8093 -1.8669
  978MOL0     H29088   0.665  10.501   1.114  0.2938  0.4246 -1.1196
  978MOL0     H29089   0.588  10.439   0.983  0.9791  1.5996  0.9333
  978MOL0     H29090   0.678  10.259   1.230 -2.4672 -1.2741  0.5760
  978MOL0     H29091   0.606  10.193   1.086 -0.8299  0.7640 -1.9070
  978MOL0     H29092   0.455  10.209   1.254  2.5979 -1.6569 -1.6371
  978MOL0     H29093   0.489  10.383   1.259  3.8631 -0.1222  0.2536
  978MOL0     H29094   0.240  10.407   0.924  2.4002 -0.3473 -1.5232
  978MOL0     H29095   0.966  10.484   0.790 -1.3994  0.7880 -0.8384
  978MOL0     H29096   1.146  10.409   0.641 -1.5245 -0.0826 -3.1779
  979MOL0     O29097   6.762   7.260   4.050 -0.0017 -0.0853 -0.4606
  979MOL0     C29098   6.788   7.367   4.000 -0.2676 -0.2262  0.4287
  979MOL0     O29099   6.710   7.482   4.004 -0.5738  0.1073  0.5399
  979MOL0     C29100   6.581   7.472   4.040  0.6129  0.3035  0.3584
  979MOL0     C29101   6.538   7.453   4.169  0.3281 -0.3595 -0.4550
  979MOL0     C29102   6.394   7.418   4.187 -0.5134  0.6683  0.0164
  979MOL0     C29103   6.302   7.441   4.089  0.3695  0.1297 -1.0478
  979MOL0     O29104   6.167   7.441   4.127  0.0118 -0.3245  0.4522
  979MOL0     C29105   6.137   7.568   4.199 -0.8778 -0.1722  0.1418
  979MOL0     C29106   5.993   7.567   4.235  0.1824  0.5214 -0.8978
  979MOL0     C29107   5.908   7.625   4.125 -0.2699 -0.1550  0.4402
  979MOL0     C29108   5.762   7.609   4.163 -0.8431  0.0084  0.2976
  979MOL0     C29109   5.678   7.705   4.072  0.1176  0.9064 -0.4807
  979MOL0     C29110   5.710   7.715   3.921  0.2123 -0.1478  0.2189
  979MOL0     C29111   5.698   7.574   3.855  0.1643  0.0193  0.0507
  979MOL0     C29112   5.756   7.566   3.707 -0.2650  1.1469 -0.1714
  979MOL0     N29113   5.897   7.561   3.702 -0.2499 -0.2947 -0.3673
  979MOL0     C29114   5.968   7.453   3.660 -0.1817  0.0753 -0.0846
  979MOL0     C29115   6.097   7.493   3.649  0.7383 -0.2824  0.8060
  979MOL0     C29116   6.214   7.411   3.596 -0.3966 -0.0989 -0.8508
  979MOL0     C29117   6.291   7.496   3.506  0.4719  0.3192 -0.7738
  979MOL0     C29118   6.412   7.398   3.475  0.3751  0.5931 -0.6568
  979MOL0     C29119   6.509   7.448   3.367  0.5961  0.2650  0.4220
  979MOL0     O29120   6.598   7.337   3.340 -0.5188 -0.1237  0.7985
  979MOL0     C29121   6.719   7.352   3.267  0.0464 -0.0037  0.0073
  979MOL0     C29122   6.823   7.267   3.295  0.9392 -0.1739  0.2030
  979MOL0     C29123   6.957   7.292   3.261  0.1173  0.0852  0.5478
  979MOL0     C29124   6.976   7.390   3.159  0.4408 -0.3359  0.1407
  979MOL0     C29125   7.106   7.418   3.083  0.1012  0.3207  0.1317
  979MOL0     O29126   7.204   7.320   3.081 -0.2159 -0.3549  0.2555
  979MOL0     C29127   7.311   7.326   2.995  0.7128 -0.2134  0.1665
  979MOL0     C29128   7.404   7.229   3.015  0.5749 -1.3116  0.9895
  979MOL0     C29129   7.521   7.235   2.947  0.2119  1.4778 -0.2485
  979MOL0     C29130   7.545   7.323   2.844 -0.8175 -0.2063  0.0191
  979MOL0     O29131   7.663   7.297   2.772  0.4543 -0.3756  0.2484
  979MOL0     C29132   7.679   7.374   2.649 -1.1489  0.2228 -0.0062
  979MOL0     C29133   7.789   7.306   2.572  0.2475 -0.4176 -0.3530
  979MOL0     C29134   7.801   7.368   2.434  0.4229 -1.1444 -0.6220
  979MOL0     C29135   7.914   7.300   2.345  0.0594  0.8161  0.7800
  979MOL0     C29136   7.989   7.393   2.261 -0.1120  0.1217 -0.5989
  979MOL0     C29137   8.106   7.457   2.347  1.0041 -0.6149  0.3787
  979MOL0     C29138   8.241   7.450   2.260  0.1482 -0.0263 -0.1385
  979MOL0     C29139   8.358   7.555   2.299 -0.4157  0.2007 -0.3700
  979MOL0    Cl29140   8.291   7.712   2.301  0.2494  0.1808 -0.0319
  979MOL0     C29141   7.455   7.428   2.827  0.1807  0.0827 -0.0292
  979MOL0     C29142   7.340   7.435   2.904  0.1970  0.2301  1.1234
  979MOL0     O29143   7.114   7.524   3.029  0.1489 -1.2925 -0.2220
  979MOL0     C29144   6.866   7.474   3.126 -0.3954 -0.3024 -0.5078
  979MOL0     C29145   6.745   7.462   3.184 -0.1942 -0.1798 -0.1791
  979MOL0     N29146   6.099   7.635   3.676  0.4133 -0.2752  0.4798
  979MOL0     N29147   5.977   7.670   3.716 -0.0732 -0.1659  0.8968
  979MOL0     C29148   6.345   7.470   3.957  0.6265  0.2942 -0.1116
  979MOL0     C29149   6.473   7.483   3.941 -0.4406  1.1054  0.7955
  979MOL0     C29150   6.917   7.384   3.935 -0.2447 -0.7733  0.3898
  979MOL0     C29151   7.015   7.280   3.930  0.9497 -0.3743  0.0694
  979MOL0     C29152   7.135   7.298   3.877 -1.2736  0.7490 -0.3506
  979MOL0     C29153   7.172   7.415   3.806 -0.2890 -0.2015  0.5912
  979MOL0     O29154   7.293   7.420   3.746 -0.2476  0.4192  0.4715
  979MOL0     C29155   7.366   7.544   3.770 -0.2340  0.2876  0.5349
  979MOL0     C29156   7.519   7.541   3.768  0.1906  0.7193  0.1595
  979MOL0     C29157   7.573   7.452   3.654 -0.6194 -0.4605  0.0632
  979MOL0     C29158   7.715   7.492   3.600 -0.1663  0.0318 -0.0363
  979MOL0     C29159   7.766   7.403   3.494 -0.5131 -0.1240 -0.3425
  979MOL0     C29160   7.788   7.328   3.408 -0.8383  0.7563 -1.1942
  979MOL0     C29161   7.073   7.513   3.793  0.3814 -1.0106 -0.0337
  979MOL0     C29162   6.951   7.504   3.861 -0.0907  0.1960 -0.3390
  979MOL0     H29163   6.606   7.454   4.255  0.3589  1.8659 -0.4508
  979MOL0     H29164   6.362   7.388   4.286 -0.7177 -0.5718 -0.4032
  979MOL0     H29165   6.159   7.652   4.132  0.9273 -0.7217 -0.0253
  979MOL0     H29166   6.204   7.576   4.286  1.5272 -0.9023 -1.5331
  979MOL0     H29167   5.963   7.619   4.326 -1.9027 -0.3246 -1.0422
  979MOL0     H29168   5.964   7.463   4.251 -1.6016  1.1489  0.2647
  979MOL0     H29169   5.931   7.583   4.026 -3.0286  3.7601 -2.1774
  979MOL0     H29170   5.929   7.731   4.105 -3.7294  0.4827 -0.5899
  979MOL0     H29171   5.735   7.504   4.147 -1.6033  0.2646 -0.1335
  979MOL0     H29172   5.758   7.624   4.271  2.7885 -1.7526  0.8398
  979MOL0     H29173   5.690   7.807   4.110  2.4204  0.9000 -1.0230
  979MOL0     H29174   5.573   7.677   4.070  0.1317  0.8317 -2.6008
  979MOL0     H29175   5.809   7.754   3.893  0.4578 -1.6386 -1.0927
  979MOL0     H29176   5.630   7.784   3.895  0.1485  0.1665  1.2029
  979MOL0     H29177   5.748   7.504   3.922  1.6655  0.0258 -1.0158
  979MOL0     H29178   5.594   7.538   3.859  1.4024 -3.9101  3.0137
  979MOL0     H29179   5.727   7.654   3.648 -0.5672  0.4092 -1.1477
  979MOL0     H29180   5.720   7.472   3.666 -0.4241  0.8359  0.6707
  979MOL0     H29181   5.924   7.360   3.625  0.9647 -0.0588 -1.2556
  979MOL0     H29182   6.182   7.324   3.538  2.1018 -0.4058 -1.8866
  979MOL0     H29183   6.265   7.368   3.683 -1.3066  0.2071 -0.1525
  979MOL0     H29184   6.318   7.594   3.545 -1.6092 -0.2046  2.3101
  979MOL0     H29185   6.242   7.510   3.409 -1.1150  0.2843  0.0056
  979MOL0     H29186   6.458   7.385   3.574 -1.3237  0.5038  0.1575
  979MOL0     H29187   6.374   7.307   3.428 -0.5759  0.9918 -0.6742
  979MOL0     H29188   6.560   7.540   3.396  0.4123  0.6135 -0.3408
  979MOL0     H29189   6.447   7.470   3.280 -1.8004  3.1240  2.6252
  979MOL0     H29190   6.796   7.176   3.348 -0.8836 -0.3742 -0.9772
  979MOL0     H29191   7.034   7.222   3.291  0.1849 -1.0554 -2.0600
  979MOL0     H29192   7.374   7.144   3.076 -1.8967 -1.4240 -0.2663
  979MOL0     H29193   7.582   7.146   2.956  0.4978  1.7632  0.7153
  979MOL0     H29194   7.715   7.474   2.672  0.0624 -0.1245 -0.2892
  979MOL0     H29195   7.588   7.374   2.589 -0.8286 -1.2580 -0.5504
  979MOL0     H29196   7.746   7.206   2.570 -1.2108 -0.0695  3.8191
  979MOL0     H29197   7.888   7.288   2.617  1.3477  1.4274 -1.8956
  979MOL0     H29198   7.826   7.474   2.444 -4.1771  0.0120  1.1049
  979MOL0     H29199   7.713   7.376   2.370  1.6305 -0.8203 -2.3075
  979MOL0     H29200   7.979   7.241   2.410 -2.0568 -0.1030  2.1702
  979MOL0     H29201   7.868   7.232   2.273  4.0488 -2.2041  0.7786
  979MOL0     H29202   7.927   7.477   2.227 -0.5303  0.0121 -0.1225
  979MOL0     H29203   8.022   7.341   2.171  0.1131  1.7654 -1.5158
  979MOL0     H29204   8.124   7.413   2.445 -3.0225  0.6256  1.8644
  979MOL0     H29205   8.077   7.562   2.362 -2.7075 -1.3554 -0.6041
  979MOL0     H29206   8.275   7.348   2.243  1.5514  0.4002 -0.0506
  979MOL0     H29207   8.225   7.470   2.153  2.1986 -1.8506 -0.8755
  979MOL0     H29208   8.439   7.551   2.226  2.9209 -0.1405  3.0539
  979MOL0     H29209   8.392   7.538   2.402  0.1034  2.7411 -0.0381
  979MOL0     H29210   7.473   7.505   2.753  2.7034 -1.7630 -1.4987
  979MOL0     H29211   7.266   7.503   2.864  0.1572 -1.0235 -1.0964
  979MOL0     H29212   6.869   7.542   3.041 -1.0264  0.7362  0.2785
  979MOL0     H29213   6.657   7.518   3.153 -1.7906 -1.4628  1.8027
  979MOL0     H29214   6.265   7.489   3.887 -0.1673 -0.0985  0.6718
  979MOL0     H29215   6.504   7.507   3.839 -1.0380 -1.3458 -0.0289
  979MOL0     H29216   6.993   7.182   3.971 -1.4912  0.0516 -0.1097
  979MOL0     H29217   7.214   7.224   3.887  0.1695  2.0519 -1.6882
  979MOL0     H29218   7.341   7.589   3.866  1.9530 -0.8027  1.6799
  979MOL0     H29219   7.345   7.611   3.686 -2.0268  0.2755  0.9401
  979MOL0     H29220   7.554   7.644   3.757 -0.7176  0.9113 -1.1366
  979MOL0     H29221   7.549   7.503   3.866 -0.0403  0.0707 -0.0218
  979MOL0     H29222   7.493   7.453   3.580 -2.4994  1.0840  1.9965
  979MOL0     H29223   7.576   7.348   3.689 -0.0849 -0.5936 -0.3633
  979MOL0     H29224   7.701   7.597   3.572 -1.2103  0.1262  0.7904
  979MOL0     H29225   7.773   7.484   3.693 -0.8264 -3.4415  0.1946
  979MOL0     H29226   7.803   7.255   3.331  2.6227 -0.0023 -0.0180
  979MOL0     H29227   7.106   7.594   3.728 -0.4502 -0.4072  0.2745
  979MOL0     H29228   6.867   7.573   3.849  0.8528  1.2793 -0.9321
  980MOL0     O29229   5.333   6.192   2.913  0.2276  0.3209 -0.0864
  980MOL0     C29230   5.412   6.276   2.873  0.5533 -0.2304 -0.3094
  980MOL0     O29231   5.423   6.408   2.921  0.2773  0.6049 -0.7524
  980MOL0     C29232   5.392   6.425   3.060 -0.1286  0.3879  0.9798
  980MOL0     C29233   5.404   6.320   3.148  0.9123  0.5340 -0.2864
  980MOL0     C29234   5.386   6.346   3.287 -0.4338  0.9481  0.6740
  980MOL0     C29235   5.373   6.481   3.335 -0.0321  0.5788  0.0054
  980MOL0     O29236   5.352   6.515   3.464 -0.2129  0.7483 -0.4118
  980MOL0     C29237   5.356   6.423   3.574 -0.1117  0.0606  0.4724
  980MOL0     C29238   5.230   6.335   3.591 -0.2838  0.0562 -0.5457
  980MOL0     C29239   5.104   6.418   3.641 -0.2956  0.2560 -0.6096
  980MOL0     C29240   4.979   6.337   3.649  1.0761  0.4522  0.2661
  980MOL0     C29241   4.860   6.410   3.730 -0.1845 -0.6905  0.1666
  980MOL0     C29242   4.736   6.319   3.742  1.0339  0.0176  0.1259
  980MOL0     C29243   4.647   6.375   3.847  0.6580 -0.6878 -0.9620
  980MOL0     C29244   4.546   6.274   3.897  0.0313 -0.2638 -0.1917
  980MOL0     N29245   4.421   6.337   3.939  0.2373  0.4332 -0.4383
  980MOL0     C29246   4.324   6.343   3.855 -0.1016  0.0154  0.6232
  980MOL0     C29247   4.232   6.420   3.907  0.5390  0.0088  0.1207
  980MOL0     C29248   4.101   6.460   3.846  0.2515 -0.1243  0.0274
  980MOL0     C29249   4.000   6.347   3.840 -0.4352 -0.0601 -0.5042
  980MOL0     C29250   3.854   6.391   3.799 -0.0615  0.3148 -0.2178
  980MOL0     C29251   3.749   6.287   3.807  0.2734  0.1096 -0.5754
  980MOL0     O29252   3.770   6.162   3.735 -0.3038 -0.8114  0.4390
  980MOL0     C29253   3.655   6.131   3.664  0.4701  0.0157 -0.4923
  980MOL0     C29254   3.598   6.003   3.692  0.7856 -0.5596  0.7009
  980MOL0     C29255   3.497   5.956   3.601  0.5034  0.3621 -0.6192
  980MOL0     C29256   3.447   6.029   3.495  0.2848 -0.3125  0.7649
  980MOL0     C29257   3.337   5.981   3.404 -1.0605 -0.3114  0.3787
  980MOL0     O29258   3.339   6.020   3.276 -0.2357 -0.2749 -0.3697
  980MOL0     C29259   3.229   6.008   3.191 -0.5783  0.0975  0.2703
  980MOL0     C29260   3.199   6.120   3.111  0.1084  0.0380 -0.5813
  980MOL0     C29261   3.097   6.103   3.020 -0.1228 -0.1880  0.1784
  980MOL0     C29262   3.035   5.978   2.980  0.3895 -0.7055  0.3871
  980MOL0     O29263   2.949   5.996   2.876  0.1891 -0.0933  0.3947
  980MOL0     C29264   2.875   5.886   2.826 -0.6431 -0.4922  0.3452
  980MOL0     C29265   2.749   5.931   2.767 -0.8516  0.2397 -0.2724
  980MOL0     C29266   2.664   5.994   2.881  0.1422 -0.7453 -0.8445
  980MOL0     C29267   2.522   6.040   2.831  0.6038  0.7067 -0.5153
  980MOL0     C29268   2.413   5.926   2.852  0.1502  0.6215  0.1531
  980MOL0     C29269   2.286   5.988   2.778  0.1538  1.2511 -0.3711
  980MOL0     C29270   2.172   5.890   2.812  0.6160  0.1843 -0.3207
  980MOL0     C29271   2.037   5.931   2.754 -1.1602  0.2064 -0.8722
  980MOL0    Cl29272   2.035   5.957   2.577  0.0217 -0.0189  0.1497
  980MOL0     C29273   3.076   5.865   3.054 -0.5904  0.6386 -0.6480
  980MOL0     C29274   3.171   5.883   3.156 -0.4187 -0.7124  0.2121
  980MOL0     O29275   3.245   5.913   3.455  0.5737 -0.6183  0.1420
  980MOL0     C29276   3.514   6.149   3.469  0.9901 -0.7667  0.0350
  980MOL0     C29277   3.616   6.202   3.555 -0.3084 -0.4253  0.2328
  980MOL0     N29278   4.270   6.449   4.033 -0.0809  0.4654  0.3117
  980MOL0     N29279   4.394   6.409   4.047 -0.8000 -0.1293 -0.0672
  980MOL0     C29280   5.377   6.580   3.239  0.6857 -0.0148  0.0647
  980MOL0     C29281   5.366   6.549   3.104  0.5899 -1.4546 -0.1878
  980MOL0     C29282   5.508   6.236   2.772  0.0894 -0.1624  0.1217
  980MOL0     C29283   5.616   6.318   2.748 -0.4068  0.0384  0.5231
  980MOL0     C29284   5.714   6.283   2.659 -0.6317  0.0303 -0.3845
  980MOL0     C29285   5.710   6.152   2.595 -0.2149  0.8767 -0.3465
  980MOL0     O29286   5.790   6.106   2.497  0.2871  0.2527  0.0197
  980MOL0     C29287   5.894   6.195   2.452 -0.5667  0.3072 -0.0465
  980MOL0     C29288   5.983   6.127   2.350 -0.7390 -0.0702  0.0297
  980MOL0     C29289   6.096   6.214   2.300  0.1290 -0.4934  0.3274
  980MOL0     C29290   6.204   6.227   2.404  0.4503  0.1874 -0.0873
  980MOL0     C29291   6.324   6.292   2.350 -0.8989 -0.6109 -0.0264
  980MOL0     C29292   6.430   6.348   2.317  0.1513  0.3848  0.0036
  980MOL0     C29293   5.601   6.068   2.628  0.0294  0.5453 -0.3196
  980MOL0     C29294   5.498   6.109   2.708 -0.0443 -0.5766 -0.6029
  980MOL0     H29295   5.437   6.220   3.122  0.6415  0.8158 -1.8102
  980MOL0     H29296   5.382   6.265   3.359 -1.8621  1.0407  0.7176
  980MOL0     H29297   5.379   6.482   3.663  0.7495 -0.0540  0.3287
  980MOL0     H29298   5.442   6.357   3.556  0.9087  1.3684  0.4399
  980MOL0     H29299   5.249   6.269   3.676 -2.0834  1.7999  1.3350
  980MOL0     H29300   5.215   6.276   3.500  0.4485 -2.0743  0.6366
  980MOL0     H29301   5.080   6.504   3.578 -2.0896 -0.5456 -1.0759
  980MOL0     H29302   5.127   6.447   3.744  2.5549 -2.1372 -0.4367
  980MOL0     H29303   4.942   6.315   3.548  1.9363 -0.0061  0.0359
  980MOL0     H29304   5.003   6.239   3.691  0.8142  0.0292 -0.5528
  980MOL0     H29305   4.830   6.496   3.671  1.3597 -1.1907 -1.4407
  980MOL0     H29306   4.906   6.454   3.818  2.5470  0.8702 -1.8768
  980MOL0     H29307   4.754   6.217   3.775  0.3483 -0.2517 -0.3201
  980MOL0     H29308   4.687   6.305   3.645 -0.0410  2.1498  0.2995
  980MOL0     H29309   4.714   6.393   3.932 -2.1990 -0.5368  1.4021
  980MOL0     H29310   4.608   6.472   3.817 -0.5627 -1.1311 -0.8684
  980MOL0     H29311   4.585   6.206   3.973  0.7899  1.0423  0.6232
  980MOL0     H29312   4.523   6.204   3.816 -0.6003 -1.8168  1.2835
  980MOL0     H29313   4.314   6.280   3.767  1.1894  0.9473 -0.2399
  980MOL0     H29314   4.107   6.492   3.742 -3.6021 -2.2147 -1.0578
  980MOL0     H29315   4.049   6.539   3.901  1.3676  0.4503  0.2703
  980MOL0     H29316   3.990   6.295   3.936 -2.4611  0.7774 -0.2025
  980MOL0     H29317   4.035   6.279   3.763  2.0433  2.7480 -2.0678
  980MOL0     H29318   3.826   6.473   3.865 -1.3602  1.9351 -2.6366
  980MOL0     H29319   3.852   6.426   3.695  2.1685  2.9379  0.5258
  980MOL0     H29320   3.661   6.339   3.767  0.2962 -0.0929 -0.8849
  980MOL0     H29321   3.721   6.269   3.912 -1.8238  1.7464 -0.7843
  980MOL0     H29322   3.640   5.929   3.759 -0.1508 -2.6182 -0.8651
  980MOL0     H29323   3.467   5.857   3.634  1.5389  0.1329 -0.3200
  980MOL0     H29324   3.251   6.212   3.134  0.5851  0.6451 -3.6945
  980MOL0     H29325   3.064   6.192   2.966  2.2705 -1.2187 -3.3180
  980MOL0     H29326   2.867   5.815   2.908  1.9398 -1.7501 -0.3744
  980MOL0     H29327   2.940   5.832   2.756  3.0138 -2.8693  4.9845
  980MOL0     H29328   2.693   5.849   2.721 -1.5646  0.2176  0.6058
  980MOL0     H29329   2.767   6.014   2.698 -0.9670  1.5539  1.2166
  980MOL0     H29330   2.719   6.084   2.910  1.3903 -1.7545 -0.0178
  980MOL0     H29331   2.659   5.929   2.968  5.5487 -1.5708 -0.8549
  980MOL0     H29332   2.493   6.128   2.889  0.4187 -0.8245  1.8942
  980MOL0     H29333   2.539   6.056   2.724  0.7431  0.6224 -0.5071
  980MOL0     H29334   2.391   5.900   2.956 -1.7122  3.3314  0.5537
  980MOL0     H29335   2.446   5.834   2.804 -0.0401  1.9852 -2.8420
  980MOL0     H29336   2.301   5.984   2.670 -0.9233 -2.6417 -0.5250
  980MOL0     H29337   2.256   6.087   2.815 -0.9562  2.0578 -3.1875
  980MOL0     H29338   2.185   5.787   2.777 -0.4309 -0.8737  2.1700
  980MOL0     H29339   2.157   5.893   2.920 -3.7097  2.3678 -0.7864
  980MOL0     H29340   2.010   6.024   2.805  0.2391 -0.5952  1.5152
  980MOL0     H29341   1.960   5.857   2.772 -3.2096  1.9106 -2.1873
  980MOL0     H29342   3.032   5.766   3.045  2.6914 -0.8017 -2.6056
  980MOL0     H29343   3.213   5.799   3.209 -2.5473  0.2764  3.8066
  980MOL0     H29344   3.477   6.212   3.389 -2.3783  0.1353  2.0866
  980MOL0     H29345   3.671   6.292   3.529  0.2916 -1.5832 -3.0034
  980MOL0     H29346   5.357   6.679   3.280  2.7962 -0.7028  3.1353
  980MOL0     H29347   5.356   6.636   3.040  4.3877  1.2490  2.4273
  980MOL0     H29348   5.636   6.416   2.791  2.8438  1.4023 -3.4411
  980MOL0     H29349   5.797   6.351   2.642  0.1417 -0.6725  0.4582
  980MOL0     H29350   5.959   6.222   2.536 -2.9311  1.8654  1.3781
  980MOL0     H29351   5.846   6.281   2.405 -0.7671 -0.9751 -2.3160
  980MOL0     H29352   6.014   6.026   2.379  0.9437  0.6627  0.9854
  980MOL0     H29353   5.923   6.121   2.260 -0.8521 -1.0573  0.1613
  980MOL0     H29354   6.068   6.315   2.270 -1.1867 -0.9094  0.0995
  980MOL0     H29355   6.142   6.160   2.217 -0.3994  1.2468 -1.1445
  980MOL0     H29356   6.177   6.290   2.490 -3.5636 -0.3224 -0.7767
  980MOL0     H29357   6.232   6.130   2.445 -0.6400  0.7226  2.1131
  980MOL0     H29358   6.524   6.387   2.285 -0.3238  0.1909 -1.7200
  980MOL0     H29359   5.595   5.972   2.576 -2.3134  0.7799 -0.5994
  980MOL0     H29360   5.411   6.044   2.717  1.1335 -1.8670  3.3406
  981MOL0     O29361   0.499   5.518   2.558 -0.6538 -0.4301  0.2315
  981MOL0     C29362   0.519   5.593   2.465  1.0653  0.1747  0.4965
  981MOL0     O29363   0.422   5.649   2.394 -0.2136 -0.3146 -0.2938
  981MOL0     C29364   0.299   5.645   2.449 -0.2516 -0.1963  0.1749
  981MOL0     C29365   0.269   5.717   2.570  0.6253 -0.0422  0.1369
  981MOL0     C29366   0.138   5.721   2.622 -0.5316  0.2817 -0.1487
  981MOL0     C29367   0.028   5.668   2.547 -0.4828  0.0876  0.0656
  981MOL0     O29368  -0.091   5.682   2.606 -0.0976 -0.3198 -0.0937
  981MOL0     C29369  -0.207   5.659   2.528  0.1748  0.9779 -0.3823
  981MOL0     C29370  -0.329   5.694   2.606  0.1435 -0.8382 -0.4187
  981MOL0     C29371  -0.453   5.642   2.532 -0.0173 -0.4081  0.5622
  981MOL0     C29372  -0.572   5.626   2.624  0.8371  0.4331  0.5282
  981MOL0     C29373  -0.656   5.751   2.645 -0.2080 -0.3399 -0.5572
  981MOL0     C29374  -0.800   5.735   2.692  0.3281 -0.1651  0.0160
  981MOL0     C29375  -0.868   5.639   2.589 -0.0509  1.1422  0.3425
  981MOL0     C29376  -1.023   5.663   2.585 -0.4829 -0.3192 -0.1617
  981MOL0     N29377  -1.093   5.631   2.711 -0.2573 -0.9588 -0.5085
  981MOL0     C29378  -1.156   5.720   2.792  0.2848 -0.5845 -0.1025
  981MOL0     C29379  -1.205   5.658   2.898  0.2147 -0.9035 -0.7691
  981MOL0     C29380  -1.299   5.720   2.992 -0.2731  0.4909 -0.1077
  981MOL0     C29381  -1.427   5.766   2.921 -0.4629 -0.5664  1.1015
  981MOL0     C29382  -1.511   5.657   2.854 -0.1116  0.3722 -0.7709
  981MOL0     C29383  -1.615   5.743   2.773 -0.4866 -0.7177 -0.1880
  981MOL0     O29384  -1.714   5.647   2.721  0.3181 -0.2659  0.0340
  981MOL0     C29385  -1.838   5.688   2.672 -0.6468 -0.3296  1.0893
  981MOL0     C29386  -1.859   5.808   2.603  0.1945 -0.2126  0.6036
  981MOL0     C29387  -1.995   5.844   2.581  0.7942 -0.3920  0.8540
  981MOL0     C29388  -2.111   5.777   2.622 -0.9267  0.1759 -0.7418
  981MOL0     C29389  -2.241   5.816   2.583  0.1890 -0.0116 -1.1034
  981MOL0     O29390  -2.259   5.913   2.485  0.0980  0.6418  0.1588
  981MOL0     C29391  -2.385   5.920   2.431 -0.0307 -0.2506 -0.0711
  981MOL0     C29392  -2.484   6.008   2.480  0.8811 -0.3190 -1.1769
  981MOL0     C29393  -2.606   6.010   2.425  0.1158 -0.5870 -0.1967
  981MOL0     C29394  -2.632   5.911   2.329  0.1317 -0.7298 -0.5913
  981MOL0     O29395  -2.757   5.895   2.277  0.4384 -0.4015  0.4103
  981MOL0     C29396  -2.830   5.777   2.335 -0.0153  0.4642  0.1921
  981MOL0     C29397  -2.980   5.790   2.343 -0.9495 -0.4228 -0.2711
  981MOL0     C29398  -3.055   5.791   2.216  0.5584 -0.1389 -0.3272
  981MOL0     C29399  -3.178   5.884   2.214  0.2327 -0.0314 -0.1802
  981MOL0     C29400  -3.295   5.825   2.305 -0.5593 -0.9509  0.0595
  981MOL0     C29401  -3.408   5.919   2.330 -0.8527  0.2640 -0.1996
  981MOL0     C29402  -3.500   5.952   2.214  0.8359  0.5791  0.3869
  981MOL0     C29403  -3.640   6.011   2.254 -0.4873 -0.3755 -0.3866
  981MOL0    Cl29404  -3.630   6.193   2.282  0.0327 -0.5625 -0.1791
  981MOL0     C29405  -2.548   5.821   2.283  0.4196  0.5385  0.2043
  981MOL0     C29406  -2.423   5.818   2.339  0.0161 -0.3295 -0.6215
  981MOL0     O29407  -2.330   5.757   2.640  0.5193  0.8686 -0.3994
  981MOL0     C29408  -2.082   5.653   2.674  0.8621 -0.7059 -1.0776
  981MOL0     C29409  -1.951   5.611   2.695 -0.6245 -0.2185 -0.3527
  981MOL0     N29410  -1.165   5.524   2.889 -0.0062  0.5570 -0.0590
  981MOL0     N29411  -1.093   5.516   2.783 -0.5656 -0.2544  0.1391
  981MOL0     C29412   0.060   5.608   2.424 -0.4712 -0.0962  0.1622
  981MOL0     C29413   0.196   5.607   2.371  1.1051  0.2344 -0.5128
  981MOL0     C29414   0.656   5.600   2.413 -0.2317  0.2761 -0.0624
  981MOL0     C29415   0.742   5.489   2.415  0.4498  0.1983 -0.6798
  981MOL0     C29416   0.884   5.504   2.385  0.0117 -0.1458  0.7984
  981MOL0     C29417   0.924   5.625   2.332  0.5628 -0.2001  0.2266
  981MOL0     O29418   1.051   5.664   2.285  0.5416  0.2715 -0.6252
  981MOL0     C29419   1.153   5.564   2.280 -0.4675  0.5817 -0.3539
  981MOL0     C29420   1.280   5.614   2.207  0.3006  0.5473 -0.2190
  981MOL0     C29421   1.384   5.496   2.241 -0.1833 -1.2745 -0.2946
  981MOL0     C29422   1.482   5.542   2.354 -0.2134 -0.8410  0.5116
  981MOL0     C29423   1.569   5.652   2.321  0.3542 -0.5193 -0.2790
  981MOL0     C29424   1.614   5.767   2.316 -0.6121  0.2678  1.2084
  981MOL0     C29425   0.833   5.733   2.320  0.8859 -0.1443  0.2264
  981MOL0     C29426   0.700   5.720   2.359 -0.6915  0.2978  0.0743
  981MOL0     H29427   0.349   5.753   2.635  1.7182 -0.1799 -1.0956
  981MOL0     H29428   0.129   5.762   2.722  0.0669  0.4491 -0.1573
  981MOL0     H29429  -0.206   5.550   2.516 -2.0100  0.6069  1.8498
  981MOL0     H29430  -0.203   5.714   2.434 -4.6577  3.1569  0.3933
  981MOL0     H29431  -0.331   5.798   2.640 -1.3820 -0.1141 -2.5259
  981MOL0     H29432  -0.315   5.647   2.704 -0.4453  0.4323  0.3095
  981MOL0     H29433  -0.442   5.550   2.474 -0.2363  0.0271 -0.1909
  981MOL0     H29434  -0.461   5.716   2.452  5.8152  0.2372  0.1991
  981MOL0     H29435  -0.639   5.548   2.586 -1.1735  1.4009  1.9224
  981MOL0     H29436  -0.543   5.594   2.724 -0.6746  2.7478  1.8064
  981MOL0     H29437  -0.657   5.811   2.554 -1.9808  0.2240 -0.2041
  981MOL0     H29438  -0.598   5.800   2.724  1.8506 -1.4103 -1.3155
  981MOL0     H29439  -0.847   5.834   2.695 -2.6689 -1.5001  1.1710
  981MOL0     H29440  -0.804   5.685   2.790  0.7511 -2.8717 -1.2535
  981MOL0     H29441  -0.827   5.646   2.488 -2.3679  0.6828 -0.6796
  981MOL0     H29442  -0.855   5.537   2.627 -1.1284  0.9987  0.3466
  981MOL0     H29443  -1.066   5.612   2.498 -1.5497  1.4445 -0.7097
  981MOL0     H29444  -1.041   5.770   2.575 -2.5380 -0.6225 -0.1383
  981MOL0     H29445  -1.158   5.825   2.763 -1.1738 -0.2957  0.9456
  981MOL0     H29446  -1.252   5.805   3.043  0.6626 -0.9238  1.5160
  981MOL0     H29447  -1.333   5.648   3.067 -0.6032 -1.6939 -2.2315
  981MOL0     H29448  -1.397   5.840   2.847 -2.4304  1.8288  2.5180
  981MOL0     H29449  -1.494   5.821   2.988  0.7406 -0.2372  2.0726
  981MOL0     H29450  -1.445   5.605   2.784 -0.2006  1.3537 -1.6146
  981MOL0     H29451  -1.555   5.604   2.939  1.5237 -0.2236 -0.2480
  981MOL0     H29452  -1.567   5.810   2.702 -2.3237  0.1408 -0.6825
  981MOL0     H29453  -1.666   5.823   2.829 -0.9194 -0.8509 -0.3823
  981MOL0     H29454  -1.779   5.878   2.580 -0.3848  0.6449  1.1366
  981MOL0     H29455  -1.999   5.945   2.543 -1.8872  0.2859  2.6295
  981MOL0     H29456  -2.441   6.064   2.562  3.4202 -2.3657 -0.9868
  981MOL0     H29457  -2.680   6.077   2.468  1.7822 -0.0871  2.1126
  981MOL0     H29458  -2.804   5.771   2.441  0.1028  1.6280  0.2458
  981MOL0     H29459  -2.789   5.685   2.293  2.5649  1.2178  0.8542
  981MOL0     H29460  -3.012   5.883   2.391  1.1054  1.8124 -2.9391
  981MOL0     H29461  -3.018   5.710   2.407 -2.0164  2.0458  2.4607
  981MOL0     H29462  -3.068   5.685   2.192  2.5371 -1.1034  2.3763
  981MOL0     H29463  -2.987   5.829   2.139  3.7306 -0.4938  2.0745
  981MOL0     H29464  -3.148   5.980   2.258 -1.0514 -0.0860  0.9000
  981MOL0     H29465  -3.222   5.908   2.117 -1.8051  0.5841  0.8505
  981MOL0     H29466  -3.258   5.805   2.406  1.8900  0.6768 -0.4380
  981MOL0     H29467  -3.336   5.732   2.262 -2.6624  0.3422 -0.9073
  981MOL0     H29468  -3.371   6.009   2.380 -0.6133  1.3099 -2.1350
  981MOL0     H29469  -3.479   5.872   2.399  2.2812 -3.4670  0.8216
  981MOL0     H29470  -3.453   6.029   2.151 -3.1635  0.2485 -3.5090
  981MOL0     H29471  -3.534   5.859   2.169  0.0760  0.6355  0.8346
  981MOL0     H29472  -3.647   5.976   2.358  1.3075 -2.3147 -0.8409
  981MOL0     H29473  -3.727   5.987   2.194 -2.0477 -1.5522  2.1646
  981MOL0     H29474  -2.569   5.741   2.213 -3.1289  1.0842  0.4185
  981MOL0     H29475  -2.351   5.742   2.312  1.4896  0.9879 -0.4999
  981MOL0     H29476  -2.160   5.582   2.704 -0.4526  1.7664  1.9837
  981MOL0     H29477  -1.937   5.513   2.739 -1.4698  0.1315  0.7351
  981MOL0     H29478  -0.015   5.563   2.360 -1.1153  2.4028 -0.9482
  981MOL0     H29479   0.225   5.570   2.273  2.1696 -0.8512  0.1807
  981MOL0     H29480   0.702   5.394   2.450  0.0283  0.4742 -0.3879
  981MOL0     H29481   0.948   5.416   2.379  2.5402  1.6713 -1.5122
  981MOL0     H29482   1.116   5.469   2.241 -0.1128 -1.2258  3.2758
  981MOL0     H29483   1.184   5.535   2.381  3.3496 -3.5338 -2.4089
  981MOL0     H29484   1.255   5.628   2.102  0.8943 -0.8329 -0.5552
  981MOL0     H29485   1.299   5.714   2.249 -1.5776  1.8634 -2.3008
  981MOL0     H29486   1.442   5.471   2.151 -1.4922 -2.2086 -0.9281
  981MOL0     H29487   1.341   5.400   2.273  0.5542 -1.8219 -0.8887
  981MOL0     H29488   1.422   5.565   2.443 -1.0503  3.6598 -0.9824
  981MOL0     H29489   1.546   5.454   2.366  1.0057 -0.0729 -0.1694
  981MOL0     H29490   1.669   5.858   2.313  0.1377 -0.2056 -1.7463
  981MOL0     H29491   0.872   5.826   2.280  0.0211  0.1402  0.0422
  981MOL0     H29492   0.632   5.805   2.365  1.1263  1.7127  2.1704
  982MOL0     O29493   6.226   7.149   4.334 -0.0210 -0.6516  0.5934
  982MOL0     C29494   6.252   7.028   4.310 -0.3930 -0.0320 -0.5283
  982MOL0     O29495   6.164   6.934   4.285  0.8521 -0.2886  0.4924
  982MOL0     C29496   6.024   6.950   4.289  0.5430  0.5255 -0.2719
  982MOL0     C29497   5.958   7.060   4.349  0.5319 -0.2679 -0.6234
  982MOL0     C29498   5.819   7.082   4.358  0.1742 -0.3151 -0.4213
  982MOL0     C29499   5.741   6.972   4.297  0.2730  1.5396  0.1767
  982MOL0     O29500   5.608   6.977   4.287  0.1586  0.0680  0.9816
  982MOL0     C29501   5.540   7.104   4.303 -0.0747  0.4283  0.1798
  982MOL0     C29502   5.395   7.085   4.268 -0.0995 -0.6699  0.0618
  982MOL0     C29503   5.310   7.213   4.292  0.0558  0.0678 -0.0771
  982MOL0     C29504   5.166   7.167   4.256  0.3209 -0.3304  0.8284
  982MOL0     C29505   5.065   7.276   4.284  0.4009  0.1511 -0.3054
  982MOL0     C29506   4.922   7.219   4.251  0.1765  0.2543 -0.0239
  982MOL0     C29507   4.801   7.295   4.312 -0.5775 -0.1089  0.0319
  982MOL0     C29508   4.797   7.431   4.264  0.4957 -0.6474 -0.6127
  982MOL0     N29509   4.771   7.446   4.119 -0.2923  1.0050  0.1175
  982MOL0     C29510   4.696   7.361   4.044 -0.6954  0.9031 -0.3540
  982MOL0     C29511   4.697   7.429   3.926  0.2814 -0.2455 -0.7007
  982MOL0     C29512   4.622   7.380   3.808  0.7461 -0.1879 -0.1231
  982MOL0     C29513   4.706   7.316   3.707  0.0900 -0.6012 -0.0627
  982MOL0     C29514   4.747   7.177   3.749  0.1448  1.1536 -0.7118
  982MOL0     C29515   4.825   7.105   3.629 -0.9043  0.3865 -0.2698
  982MOL0     O29516   4.891   6.987   3.678  0.2729  0.0822  0.1049
  982MOL0     C29517   4.878   6.876   3.615  0.2152 -0.1128  0.3288
  982MOL0     C29518   4.949   6.843   3.493 -0.8910 -0.4021 -1.0129
  982MOL0     C29519   4.911   6.758   3.410  0.1792  0.0575  0.3966
  982MOL0     C29520   4.791   6.684   3.423  1.1187  0.2638 -0.0954
  982MOL0     C29521   4.752   6.571   3.336  0.1916 -0.0641 -0.4020
  982MOL0     O29522   4.858   6.525   3.264  0.0564  0.0537  0.5620
  982MOL0     C29523   4.841   6.422   3.178  1.1013  0.5346  0.2033
  982MOL0     C29524   4.958   6.375   3.136 -0.4079 -0.7959  0.5408
  982MOL0     C29525   4.976   6.273   3.048 -0.3271  0.8707 -0.0717
  982MOL0     C29526   4.871   6.179   3.012 -0.4142  0.3406  0.0607
  982MOL0     O29527   4.889   6.075   2.928 -0.9871  0.0484  0.0442
  982MOL0     C29528   5.022   6.035   2.894  0.1916  1.2625 -0.1715
  982MOL0     C29529   5.016   5.916   2.809  0.1928 -0.3609  0.0772
  982MOL0     C29530   5.000   5.772   2.867 -0.4126  0.3187 -1.3015
  982MOL0     C29531   5.108   5.752   2.978  0.0878 -0.2448 -0.7743
  982MOL0     C29532   5.244   5.765   2.931 -0.5013  0.3815  0.0439
  982MOL0     C29533   5.343   5.692   3.031 -0.0643  0.3962  0.3680
  982MOL0     C29534   5.494   5.703   3.017 -0.1571 -0.7376  0.1750
  982MOL0     C29535   5.573   5.602   3.094  0.6255 -0.1188  0.6488
  982MOL0    Cl29536   5.673   5.670   3.222  0.2650  0.1491  0.2893
  982MOL0     C29537   4.744   6.223   3.059 -0.4874  0.1183  0.2136
  982MOL0     C29538   4.727   6.339   3.137 -0.5922  0.6359  1.3653
  982MOL0     O29539   4.645   6.507   3.350 -0.4027 -0.5705 -0.3195
  982MOL0     C29540   4.711   6.717   3.537 -0.3875 -0.1208  0.1033
  982MOL0     C29541   4.751   6.822   3.626 -0.3313  0.1029 -0.0160
  982MOL0     N29542   4.777   7.538   3.932  0.1675  0.3338 -0.1043
  982MOL0     N29543   4.814   7.550   4.055 -0.0322  0.0558  0.2663
  982MOL0     C29544   5.809   6.866   4.231 -0.1298  0.3046  0.3898
  982MOL0     C29545   5.949   6.856   4.231 -0.2376  0.2359 -0.0872
  982MOL0     C29546   6.393   6.997   4.309  0.7559  0.0562 -0.1477
  982MOL0     C29547   6.499   7.092   4.341  0.0176  0.2456 -1.1622
  982MOL0     C29548   6.635   7.049   4.348 -0.0896  1.0875 -0.6060
  982MOL0     C29549   6.676   6.913   4.332  0.4587  0.5249  0.6250
  982MOL0     O29550   6.800   6.857   4.358  0.1711  0.8414  0.6092
  982MOL0     C29551   6.926   6.920   4.313 -0.4807 -0.4656  1.1144
  982MOL0     C29552   6.926   6.951   4.157  0.1630  0.1433 -0.3464
  982MOL0     C29553   6.915   6.829   4.070  0.2237  0.1399 -0.1202
  982MOL0     C29554   6.890   6.863   3.920  1.3705 -0.3053 -0.8596
  982MOL0     C29555   7.012   6.885   3.855 -0.4928  1.0982 -0.2517
  982MOL0     C29556   7.127   6.889   3.810 -0.0484 -0.8130 -0.9249
  982MOL0     C29557   6.572   6.831   4.290  0.0288  0.6757  0.3451
  982MOL0     C29558   6.438   6.872   4.269  0.5962  0.1042  0.7665
  982MOL0     H29559   6.006   7.138   4.408  0.2710 -0.5338 -0.0485
  982MOL0     H29560   5.786   7.173   4.407  0.9408 -0.5960  0.6577
  982MOL0     H29561   5.597   7.169   4.237  2.2420 -1.3192  0.3195
  982MOL0     H29562   5.554   7.128   4.409  0.0054 -2.6357  0.9708
  982MOL0     H29563   5.344   7.007   4.325 -1.5353  1.6782  2.1862
  982MOL0     H29564   5.388   7.061   4.162  0.1632 -0.5384  0.0135
  982MOL0     H29565   5.357   7.282   4.221  3.7548 -0.1280  1.9796
  982MOL0     H29566   5.313   7.247   4.395 -2.6943 -0.5000  0.2753
  982MOL0     H29567   5.168   7.149   4.148  1.0931 -1.3166  0.9910
  982MOL0     H29568   5.140   7.073   4.305 -0.2081 -1.1920 -1.0317
  982MOL0     H29569   5.082   7.374   4.240 -1.4650  0.1272 -1.1465
  982MOL0     H29570   5.052   7.302   4.390  0.7492  1.4863 -0.5745
  982MOL0     H29571   4.919   7.116   4.287  0.3050  0.8651  1.8880
  982MOL0     H29572   4.892   7.211   4.147 -2.0106 -0.8420  0.6243
  982MOL0     H29573   4.710   7.238   4.292 -1.0098  0.7653 -0.5527
  982MOL0     H29574   4.813   7.294   4.421  0.2782 -3.3908  0.0131
  982MOL0     H29575   4.893   7.480   4.287 -0.6518  0.0600  3.3630
  982MOL0     H29576   4.729   7.492   4.324  0.0879 -0.5279 -1.1805
  982MOL0     H29577   4.646   7.268   4.070  1.4508  0.0104  0.8494
  982MOL0     H29578   4.572   7.466   3.764  1.3998 -0.5799 -1.6944
  982MOL0     H29579   4.541   7.315   3.843  0.0324 -2.2422 -4.8123
  982MOL0     H29580   4.794   7.377   3.684 -0.4565  0.5017  0.6789
  982MOL0     H29581   4.654   7.304   3.611  0.0843  1.3805 -0.3696
  982MOL0     H29582   4.823   7.184   3.828 -0.3515  0.6733 -0.1825
  982MOL0     H29583   4.660   7.113   3.768  0.7283  0.7144  0.5784
  982MOL0     H29584   4.907   7.172   3.599  0.9662 -1.2104  1.0634
  982MOL0     H29585   4.757   7.091   3.545  0.9465 -0.1452 -1.7420
  982MOL0     H29586   5.044   6.890   3.471 -1.4014  1.5263  0.5489
  982MOL0     H29587   4.967   6.736   3.319  0.2426 -1.2227  0.7261
  982MOL0     H29588   5.044   6.435   3.165  1.6804 -3.9495  1.4546
  982MOL0     H29589   5.073   6.243   3.011  0.3964  5.2627 -2.3354
  982MOL0     H29590   5.093   6.019   2.975  1.6040 -0.1642 -1.6102
  982MOL0     H29591   5.071   6.108   2.829  1.2341  1.8848  1.2491
  982MOL0     H29592   5.105   5.905   2.745 -0.5164  0.4100 -1.0852
  982MOL0     H29593   4.947   5.924   2.724  1.5326 -0.4479 -1.0603
  982MOL0     H29594   5.007   5.707   2.778 -0.6263 -0.3876 -0.8107
  982MOL0     H29595   4.902   5.758   2.913  0.5218 -1.1423  0.3476
  982MOL0     H29596   5.077   5.813   3.063 -0.4960  1.1505 -1.9464
  982MOL0     H29597   5.113   5.651   3.019 -0.0953  1.7436  5.1205
  982MOL0     H29598   5.264   5.872   2.930 -1.6179  0.6101 -0.8268
  982MOL0     H29599   5.254   5.718   2.832  1.1555 -2.2356  1.3516
  982MOL0     H29600   5.316   5.586   3.025 -1.2427  0.7201 -0.2103
  982MOL0     H29601   5.331   5.724   3.135 -2.0791  1.8884 -0.2832
  982MOL0     H29602   5.522   5.702   2.911 -1.6154  1.0253 -0.2752
  982MOL0     H29603   5.529   5.802   3.049 -0.5862 -0.6001  0.2134
  982MOL0     H29604   5.639   5.555   3.021  0.0732 -1.0188  0.7179
  982MOL0     H29605   5.501   5.534   3.141 -0.6799 -1.0263 -2.3754
  982MOL0     H29606   4.659   6.162   3.033 -1.4886  1.5365  0.0754
  982MOL0     H29607   4.622   6.354   3.160 -0.9598  0.8879 -0.3362
  982MOL0     H29608   4.609   6.679   3.538  0.7009 -3.3210  0.5732
  982MOL0     H29609   4.688   6.850   3.709 -1.2093  3.5946 -1.6526
  982MOL0     H29610   5.742   6.790   4.192  2.5541 -2.5278  0.9419
  982MOL0     H29611   5.984   6.763   4.187 -0.8942  0.6778 -1.6171
  982MOL0     H29612   6.480   7.194   4.372  0.1541 -0.1702  0.3993
  982MOL0     H29613   6.720   7.114   4.368  3.5783 -2.9750 -1.4039
  982MOL0     H29614   7.017   6.866   4.341  0.0765 -2.2718 -3.4421
  982MOL0     H29615   6.934   7.022   4.353 -0.4424  0.5295 -1.2520
  982MOL0     H29616   6.839   7.012   4.131 -0.0889  0.2328  0.6311
  982MOL0     H29617   7.020   7.005   4.146  1.2545 -1.8308 -1.0455
  982MOL0     H29618   6.833   6.775   4.118  0.5882  1.1815  1.7530
  982MOL0     H29619   7.004   6.766   4.075 -1.4202 -2.3609 -0.6107
  982MOL0     H29620   6.836   6.787   3.863 -2.7644  2.3496 -0.9477
  982MOL0     H29621   6.831   6.955   3.913  1.5472 -0.2715 -2.0367
  982MOL0     H29622   7.227   6.897   3.771 -0.3444 -1.1295 -1.7901
  982MOL0     H29623   6.607   6.732   4.262 -1.2227  0.6202 -1.2189
  982MOL0     H29624   6.369   6.797   4.230  0.4698 -0.3020  1.7403
  983MOL0     O29625   2.136   6.220   5.872  0.6980  0.0757  0.6453
  983MOL0     C29626   2.126   6.243   5.756  0.0250  0.1871  1.1420
  983MOL0     O29627   2.006   6.260   5.690  0.2167  0.9052 -0.3235
  983MOL0     C29628   1.887   6.272   5.758  0.1816  0.5381  0.2644
  983MOL0     C29629   1.861   6.354   5.860  0.6927 -0.4147 -0.9541
  983MOL0     C29630   1.743   6.362   5.928  0.3773 -0.0438  0.9172
  983MOL0     C29631   1.647   6.254   5.903  0.4555 -0.1197  0.3380
  983MOL0     O29632   1.528   6.256   5.978  0.2632  0.3541 -0.7016
  983MOL0     C29633   1.402   6.232   5.911  0.9767 -1.0414 -0.6314
  983MOL0     C29634   1.295   6.294   5.994 -0.1785 -0.0978 -0.5332
  983MOL0     C29635   1.298   6.232   6.134 -0.0746 -0.7676 -0.8608
  983MOL0     C29636   1.219   6.318   6.227 -0.1731 -0.3524  0.9940
  983MOL0     C29637   1.225   6.261   6.366 -0.6716 -0.5142 -0.3743
  983MOL0     C29638   1.123   6.336   6.453 -0.0250  0.9441  0.2831
  983MOL0     C29639   1.147   6.321   6.601 -0.2238  0.4054 -0.0785
  983MOL0     C29640   1.169   6.173   6.642 -0.2768 -0.0054 -0.6352
  983MOL0     N29641   1.040   6.105   6.636 -0.0804  1.1414 -0.5448
  983MOL0     C29642   1.023   5.981   6.593 -0.1767  0.1941  0.3249
  983MOL0     C29643   0.886   5.960   6.603 -0.0152 -0.2890  0.6992
  983MOL0     C29644   0.820   5.833   6.561  0.3199  0.2670  0.4620
  983MOL0     C29645   0.669   5.823   6.548  0.8498  0.0337 -0.8010
  983MOL0     C29646   0.615   5.732   6.433 -0.0292  0.7204 -0.2299
  983MOL0     C29647   0.464   5.717   6.438 -0.3076  0.2983 -0.9229
  983MOL0     O29648   0.399   5.835   6.387 -0.1568  0.1759 -0.0091
  983MOL0     C29649   0.266   5.834   6.350 -0.1313 -0.3552 -0.4860
  983MOL0     C29650   0.231   5.933   6.261 -0.1080 -0.1563  0.1910
  983MOL0     C29651   0.101   5.936   6.211 -0.1369  0.5836 -0.1801
  983MOL0     C29652  -0.001   5.852   6.261  0.6050 -0.0629  0.7591
  983MOL0     C29653  -0.141   5.860   6.215  0.1039 -0.0938 -0.1582
  983MOL0     O29654  -0.211   5.744   6.247  0.0613  0.3552 -0.1258
  983MOL0     C29655  -0.348   5.747   6.262 -0.5922 -0.7160 -0.2289
  983MOL0     C29656  -0.415   5.624   6.240 -1.0866 -0.5388  0.8719
  983MOL0     C29657  -0.554   5.617   6.241  0.6597 -0.3751 -0.2939
  983MOL0     C29658  -0.628   5.737   6.247  0.0108  0.2851 -0.6864
  983MOL0     O29659  -0.763   5.708   6.209 -0.0547 -0.6525 -0.0822
  983MOL0     C29660  -0.842   5.815   6.169 -0.2566 -0.2950 -0.9534
  983MOL0     C29661  -0.993   5.785   6.168 -0.6043  1.0307 -0.0036
  983MOL0     C29662  -1.037   5.724   6.038 -0.9349 -0.5007  0.4051
  983MOL0     C29663  -1.182   5.673   6.031 -0.2130  0.2829 -0.6939
  983MOL0     C29664  -1.283   5.769   6.086  0.0163  0.4975 -0.2673
  983MOL0     C29665  -1.425   5.747   6.025 -0.5893  0.1809  0.2632
  983MOL0     C29666  -1.516   5.863   6.052  0.4712  0.0636 -0.8475
  983MOL0     C29667  -1.543   5.885   6.199  0.4423  0.4102 -0.2509
  983MOL0    Cl29668  -1.588   5.735   6.290 -0.4100 -0.0767 -0.0001
  983MOL0     C29669  -0.569   5.858   6.286 -0.9908 -0.2200 -1.1552
  983MOL0     C29670  -0.424   5.865   6.300  0.5853  0.3430  0.3477
  983MOL0     O29671  -0.190   5.966   6.173  0.2917 -0.4344 -0.1539
  983MOL0     C29672   0.038   5.747   6.345  0.5891 -0.5508 -0.1516
  983MOL0     C29673   0.166   5.750   6.398 -1.2541 -0.3618  0.1045
  983MOL0     N29674   0.819   6.078   6.631 -0.0574 -1.6184  0.0443
  983MOL0     N29675   0.916   6.159   6.657 -0.3021 -0.1862 -0.2599
  983MOL0     C29676   1.673   6.163   5.805  0.2451  0.2185  0.0879
  983MOL0     C29677   1.796   6.170   5.737  0.0996  0.2171  1.3337
  983MOL0     C29678   2.253   6.258   5.682 -0.0420  0.4110 -0.2959
  983MOL0     C29679   2.244   6.261   5.541  0.6288 -0.1540 -0.4794
  983MOL0     C29680   2.355   6.274   5.456 -1.2612 -0.1597  0.5596
  983MOL0     C29681   2.486   6.286   5.515  0.7819  0.0244  0.1377
  983MOL0     O29682   2.606   6.301   5.442  0.0646  0.1485 -0.4859
  983MOL0     C29683   2.595   6.305   5.297  0.0085 -0.4093 -0.0778
  983MOL0     C29684   2.655   6.415   5.214  0.5367  0.5151 -0.6011
  983MOL0     C29685   2.559   6.544   5.198  0.0752  0.1691  0.8627
  983MOL0     C29686   2.622   6.653   5.118 -0.1763  0.0893 -0.1920
  983MOL0     C29687   2.575   6.790   5.138 -0.4042 -0.1428 -0.2036
  983MOL0     C29688   2.535   6.910   5.134 -0.3476  0.1291  0.3630
  983MOL0     C29689   2.496   6.282   5.656  0.3332  0.4446  0.2327
  983MOL0     C29690   2.380   6.265   5.739  0.3814 -0.4086 -0.0876
  983MOL0     H29691   1.945   6.419   5.881 -0.6375  1.0218  0.1578
  983MOL0     H29692   1.733   6.437   6.006 -0.5736 -0.4638  1.2157
  983MOL0     H29693   1.381   6.127   5.888  2.0176 -1.5029  0.4241
  983MOL0     H29694   1.402   6.285   5.815  0.5883 -0.1647 -0.1589
  983MOL0     H29695   1.199   6.288   5.943 -1.7585  4.3388  1.3387
  983MOL0     H29696   1.332   6.396   6.009  4.6549 -1.9388  2.6151
  983MOL0     H29697   1.398   6.219   6.177 -1.0935 -1.5246  1.4920
  983MOL0     H29698   1.245   6.136   6.128  0.5689 -1.4030  1.8958
  983MOL0     H29699   1.268   6.416   6.221 -1.3219  0.1344 -1.4100
  983MOL0     H29700   1.118   6.335   6.188  0.2900 -0.1077 -0.1378
  983MOL0     H29701   1.328   6.280   6.398 -1.1476 -1.1426  1.6841
  983MOL0     H29702   1.201   6.155   6.377  1.8055 -1.3488 -2.0205
  983MOL0     H29703   1.021   6.300   6.439  0.3387 -0.2374  0.5364
  983MOL0     H29704   1.125   6.445   6.437 -2.5350  1.0221  0.0692
  983MOL0     H29705   1.238   6.367   6.639 -0.2511  0.1372  0.3177
  983MOL0     H29706   1.062   6.359   6.659 -0.7622 -2.5172  1.2211
  983MOL0     H29707   1.210   6.157   6.742 -1.1766  1.3024 -0.0451
  983MOL0     H29708   1.245   6.128   6.576  0.8918 -1.6044  1.6552
  983MOL0     H29709   1.100   5.911   6.560  0.1933  0.1520  1.2273
  983MOL0     H29710   0.839   5.743   6.620  0.0523  1.1127  1.8906
  983MOL0     H29711   0.854   5.798   6.463 -1.1337 -1.9796  0.6918
  983MOL0     H29712   0.626   5.923   6.531 -1.7037 -1.3092 -3.1231
  983MOL0     H29713   0.630   5.787   6.644  4.0264  0.4957  0.7672
  983MOL0     H29714   0.633   5.777   6.334  2.3900  1.4264  0.4655
  983MOL0     H29715   0.659   5.631   6.428 -0.6643  0.4210  0.1464
  983MOL0     H29716   0.437   5.697   6.542  0.2205 -3.0917 -1.3112
  983MOL0     H29717   0.429   5.622   6.396 -0.9772 -0.9947  2.2491
  983MOL0     H29718   0.307   5.997   6.217  1.0401 -0.7457  1.2335
  983MOL0     H29719   0.087   6.003   6.127  1.2855  1.3150  0.1535
  983MOL0     H29720  -0.346   5.541   6.228 -1.3284 -0.5652 -0.5625
  983MOL0     H29721  -0.613   5.530   6.216 -0.8242 -0.0088  1.7422
  983MOL0     H29722  -0.804   5.848   6.072 -0.5172 -0.1497 -1.0090
  983MOL0     H29723  -0.834   5.902   6.235 -2.9330 -1.6236  1.3532
  983MOL0     H29724  -1.038   5.874   6.212  2.2651  1.3284  2.7121
  983MOL0     H29725  -1.011   5.718   6.252 -0.4943  1.0202  0.0136
  983MOL0     H29726  -0.958   5.652   6.016  0.6517  0.4471  2.5326
  983MOL0     H29727  -1.035   5.804   5.964  1.4816 -0.0879  0.8213
  983MOL0     H29728  -1.199   5.643   5.927  3.0408 -0.5732 -1.0770
  983MOL0     H29729  -1.193   5.585   6.095  3.0880  0.0532 -0.2879
  983MOL0     H29730  -1.239   5.867   6.067 -0.7223  1.2347  1.6302
  983MOL0     H29731  -1.290   5.772   6.195 -2.1003 -0.8337 -0.3205
  983MOL0     H29732  -1.483   5.660   6.055  0.4133  0.0654  1.9997
  983MOL0     H29733  -1.418   5.749   5.916  0.3384 -0.4767  0.3033
  983MOL0     H29734  -1.466   5.955   6.021 -0.3094  0.1166 -1.9751
  983MOL0     H29735  -1.614   5.856   6.004  0.3595  0.7222 -0.7262
  983MOL0     H29736  -1.608   5.973   6.208  3.9109  3.3291 -1.3865
  983MOL0     H29737  -1.451   5.917   6.249 -0.3235  1.0546  0.7982
  983MOL0     H29738  -0.620   5.953   6.302  0.8985  0.4996  1.2792
  983MOL0     H29739  -0.370   5.953   6.334  1.5822 -0.2628  0.3561
  983MOL0     H29740  -0.033   5.668   6.369 -3.0880  2.3441 -0.5911
  983MOL0     H29741   0.192   5.666   6.462  1.4486 -0.7730 -1.3838
  983MOL0     H29742   1.599   6.089   5.780 -0.4789  0.7854  0.5208
  983MOL0     H29743   1.806   6.088   5.666 -0.5013  0.4633  0.9520
  983MOL0     H29744   2.149   6.251   5.490 -0.1780 -1.8028  1.1980
  983MOL0     H29745   2.332   6.263   5.350 -2.7245  0.7996  0.7430
  983MOL0     H29746   2.494   6.320   5.257  0.0503 -1.5618 -0.6443
  983MOL0     H29747   2.639   6.214   5.255  0.3189 -0.8126  1.0787
  983MOL0     H29748   2.745   6.465   5.252 -0.7788  2.3935  0.2115
  983MOL0     H29749   2.678   6.372   5.116 -0.3559 -2.7063  0.4945
  983MOL0     H29750   2.542   6.585   5.298 -0.3208  0.4999  0.6605
  983MOL0     H29751   2.463   6.526   5.149  0.1692  0.1212  0.6926
  983MOL0     H29752   2.723   6.656   5.161  0.3042 -2.3224 -0.9594
  983MOL0     H29753   2.629   6.631   5.011  1.0255  0.2071 -0.1594
  983MOL0     H29754   2.508   7.014   5.126  1.6131  1.1504  4.3822
  983MOL0     H29755   2.591   6.291   5.706  2.0589 -1.6051 -2.4012
  983MOL0     H29756   2.382   6.263   5.848 -1.0765 -0.0691 -0.0345
  984MOL0     O29757   1.768   5.020   4.224  0.1544  0.1992  0.3079
  984MOL0     C29758   1.783   4.906   4.162 -0.1163  0.0428  0.0377
  984MOL0     O29759   1.686   4.821   4.111  0.4189  0.0068  0.7533
  984MOL0     C29760   1.559   4.861   4.139  0.9706 -0.3536  0.9191
  984MOL0     C29761   1.497   4.811   4.256 -0.2342 -0.7146 -0.9520
  984MOL0     C29762   1.362   4.846   4.282 -0.0155 -0.5392 -0.3604
  984MOL0     C29763   1.287   4.921   4.186  0.2688  0.8473  1.4639
  984MOL0     O29764   1.153   4.949   4.194  0.4424 -0.9430  0.0289
  984MOL0     C29765   1.086   4.965   4.320  0.7106 -0.4743  0.4926
  984MOL0     C29766   1.077   5.117   4.349  0.1546 -0.0622  0.0076
  984MOL0     C29767   0.982   5.164   4.458  0.0049 -0.0429 -1.9011
  984MOL0     C29768   0.999   5.317   4.468  0.5311 -0.5621 -0.6426
  984MOL0     C29769   0.920   5.389   4.586  0.3975 -0.8098  0.0771
  984MOL0     C29770   0.767   5.389   4.591 -0.1682 -0.2925 -0.0275
  984MOL0     C29771   0.698   5.487   4.504 -0.0122  0.5712  0.4623
  984MOL0     C29772   0.549   5.492   4.523 -0.6475 -0.5542  0.8714
  984MOL0     N29773   0.497   5.360   4.483  0.2711 -0.0196  0.0997
  984MOL0     C29774   0.445   5.263   4.570  0.7339 -0.4272  0.6773
  984MOL0     C29775   0.373   5.181   4.486 -0.7223 -0.0724 -0.3496
  984MOL0     C29776   0.299   5.064   4.539  0.5938  0.4544 -0.3169
  984MOL0     C29777   0.199   5.109   4.648 -0.5281 -0.5180  0.7332
  984MOL0     C29778   0.114   4.993   4.700 -0.3237 -0.2224 -0.8980
  984MOL0     C29779  -0.035   5.041   4.696 -0.9045 -0.0409  0.3539
  984MOL0     O29780  -0.115   4.927   4.725  0.2340 -0.6032 -0.6221
  984MOL0     C29781  -0.250   4.948   4.736  0.0343  1.2803 -0.0891
  984MOL0     C29782  -0.331   4.835   4.709  0.5578 -0.3042  0.0405
  984MOL0     C29783  -0.469   4.845   4.708  0.7269  0.1402 -0.6054
  984MOL0     C29784  -0.541   4.964   4.733  0.0083  0.3431  0.0766
  984MOL0     C29785  -0.689   4.967   4.729 -0.9790  0.6546 -0.7666
  984MOL0     O29786  -0.752   4.874   4.654  0.4519  0.8445  0.3121
  984MOL0     C29787  -0.888   4.858   4.652  0.3355  0.4404  0.5659
  984MOL0     C29788  -0.980   4.960   4.642  0.1656  0.3488  0.5249
  984MOL0     C29789  -1.120   4.935   4.656 -0.1731  0.1551  0.3468
  984MOL0     C29790  -1.163   4.803   4.687 -0.3165  0.6413 -0.2198
  984MOL0     O29791  -1.290   4.785   4.740  0.0913  0.7604  0.5559
  984MOL0     C29792  -1.394   4.891   4.753  0.1466 -0.4918 -0.1812
  984MOL0     C29793  -1.531   4.821   4.780 -0.4536  0.7455  0.4058
  984MOL0     C29794  -1.644   4.924   4.749  0.4428 -0.1868  0.4135
  984MOL0     C29795  -1.773   4.857   4.807 -0.2390  0.4747 -0.1107
  984MOL0     C29796  -1.892   4.950   4.795  0.3317  0.2863 -0.5228
  984MOL0     C29797  -1.891   5.070   4.889 -0.0959 -0.6258  0.2914
  984MOL0     C29798  -2.029   5.130   4.900  0.2955  0.0001 -0.6401
  984MOL0     C29799  -2.053   5.224   5.019 -0.6419  0.2448 -0.1631
  984MOL0    Cl29800  -2.224   5.218   5.073 -0.3277  0.1785  0.4371
  984MOL0     C29801  -1.070   4.702   4.693  0.9476 -0.1971 -0.5943
  984MOL0     C29802  -0.936   4.726   4.666  1.3027  0.1863 -0.5401
  984MOL0     O29803  -0.744   5.049   4.799  0.4918  0.4469  0.4293
  984MOL0     C29804  -0.457   5.069   4.771 -0.1399 -1.1287  0.5743
  984MOL0     C29805  -0.314   5.067   4.764  0.4700 -0.2675 -0.0990
  984MOL0     N29806   0.390   5.225   4.358 -0.1620 -0.6588 -1.6400
  984MOL0     N29807   0.469   5.331   4.357  0.2353 -0.4515 -0.0356
  984MOL0     C29808   1.349   4.963   4.069  0.3627  0.7595  0.3381
  984MOL0     C29809   1.487   4.928   4.041  0.5612 -0.4504 -0.8591
  984MOL0     C29810   1.926   4.850   4.155  0.4034  0.4720  0.3205
  984MOL0     C29811   2.028   4.941   4.191  0.7126 -0.2017 -0.2933
  984MOL0     C29812   2.153   4.891   4.196 -0.2981  0.2315  0.6034
  984MOL0     C29813   2.193   4.761   4.161  0.8735 -0.0456  0.0626
  984MOL0     O29814   2.330   4.739   4.153  0.0825 -0.0798 -0.0547
  984MOL0     C29815   2.361   4.590   4.130  1.3281 -0.5927  0.4377
  984MOL0     C29816   2.509   4.557   4.140 -0.2067  0.1946 -0.8499
  984MOL0     C29817   2.545   4.597   4.292  0.3048  0.2905 -0.5697
  984MOL0     C29818   2.696   4.607   4.312  0.1339 -0.2894  0.1788
  984MOL0     C29819   2.771   4.479   4.303  0.0895 -0.8119  0.3177
  984MOL0     C29820   2.834   4.376   4.305 -0.0689  0.0825  0.4262
  984MOL0     C29821   2.093   4.668   4.117  1.1103 -0.7489 -0.9937
  984MOL0     C29822   1.959   4.717   4.118 -0.5289 -0.6142  0.1147
  984MOL0     H29823   1.541   4.739   4.325  0.1187 -0.2895 -0.7357
  984MOL0     H29824   1.313   4.784   4.357  1.5988 -3.4440 -1.5579
  984MOL0     H29825   1.131   4.906   4.400 -0.9944 -2.0140  0.3856
  984MOL0     H29826   0.988   4.916   4.320  1.0791 -1.3461  2.5783
  984MOL0     H29827   1.042   5.156   4.253 -2.4404 -0.1949  0.8350
  984MOL0     H29828   1.170   5.163   4.384 -0.3692  0.1486  1.1706
  984MOL0     H29829   1.018   5.106   4.543 -1.3294  1.9484  0.1530
  984MOL0     H29830   0.876   5.138   4.445  0.6058 -2.7435 -1.9428
  984MOL0     H29831   1.103   5.348   4.484  0.0728  0.7139  0.1012
  984MOL0     H29832   0.974   5.355   4.369  0.9936 -2.7072 -1.6227
  984MOL0     H29833   0.953   5.493   4.591  0.9448 -1.0163  1.4507
  984MOL0     H29834   0.951   5.335   4.677  0.7598  1.6098  1.4948
  984MOL0     H29835   0.744   5.424   4.691 -0.2899  0.9331 -0.4705
  984MOL0     H29836   0.743   5.283   4.574 -0.4832 -0.4968  1.5633
  984MOL0     H29837   0.730   5.588   4.533 -0.8183  2.1046 -3.4225
  984MOL0     H29838   0.730   5.473   4.400  1.2524  1.8066  0.6518
  984MOL0     H29839   0.508   5.565   4.453 -2.3703 -2.9705 -0.8318
  984MOL0     H29840   0.530   5.520   4.626 -1.4887  0.3922  0.4765
  984MOL0     H29841   0.439   5.248   4.678  1.4154 -1.5283  0.5766
  984MOL0     H29842   0.372   4.998   4.587 -0.0621 -0.2872 -0.3161
  984MOL0     H29843   0.245   5.003   4.466  0.0667  1.7760 -1.0693
  984MOL0     H29844   0.134   5.189   4.611  0.8586 -0.8047 -2.7505
  984MOL0     H29845   0.264   5.154   4.724  1.2731  0.9795 -1.5059
  984MOL0     H29846   0.132   4.903   4.641  0.0076 -0.0878 -1.0039
  984MOL0     H29847   0.132   4.975   4.806 -2.7612 -0.6828 -0.4921
  984MOL0     H29848  -0.048   5.081   4.595 -0.3369  0.7343  0.5848
  984MOL0     H29849  -0.058   5.122   4.765  0.7176  1.0012 -0.2630
  984MOL0     H29850  -0.287   4.742   4.674 -0.1861 -0.1900 -1.2516
  984MOL0     H29851  -0.530   4.763   4.670 -4.1189  2.9887  0.1347
  984MOL0     H29852  -0.949   5.063   4.625  1.3800  0.0437  0.8248
  984MOL0     H29853  -1.180   5.019   4.622  1.0281 -0.0046 -2.4305
  984MOL0     H29854  -1.394   4.954   4.664 -1.9544 -1.2271 -0.7636
  984MOL0     H29855  -1.374   4.960   4.835 -1.8552  1.3625 -1.1494
  984MOL0     H29856  -1.526   4.786   4.883  1.7715  3.2339  1.2714
  984MOL0     H29857  -1.542   4.742   4.706  0.6628  1.6503 -0.7844
  984MOL0     H29858  -1.665   4.943   4.643  0.1829  3.4915  0.9738
  984MOL0     H29859  -1.623   5.020   4.798 -0.4394 -1.0545  2.6032
  984MOL0     H29860  -1.788   4.766   4.747 -4.2675  1.0725 -0.2972
  984MOL0     H29861  -1.761   4.831   4.912 -3.0130 -2.1912 -0.3138
  984MOL0     H29862  -1.985   4.895   4.811  0.3738 -0.0413 -1.3541
  984MOL0     H29863  -1.904   4.990   4.694  1.4792 -1.1421 -1.2703
  984MOL0     H29864  -1.807   5.132   4.855  0.6303 -3.4300 -3.9321
  984MOL0     H29865  -1.854   5.032   4.985  3.0349  1.4936  0.0706
  984MOL0     H29866  -2.066   5.177   4.808  1.7368 -0.9632 -1.7470
  984MOL0     H29867  -2.095   5.046   4.926  2.9106 -2.3532 -1.2009
  984MOL0     H29868  -2.020   5.322   4.984  0.2699  0.8640  2.2244
  984MOL0     H29869  -1.983   5.200   5.100 -0.1633  2.3023  0.0979
  984MOL0     H29870  -1.098   4.602   4.724  2.1027 -0.5562 -0.6829
  984MOL0     H29871  -0.866   4.644   4.678 -0.3954 -1.1621  0.6434
  984MOL0     H29872  -0.505   5.163   4.797 -2.9834 -2.1632 -0.5081
  984MOL0     H29873  -0.255   5.156   4.785  2.2215 -0.8586 -2.1416
  984MOL0     H29874   1.306   5.033   3.998 -0.8465 -1.0264 -0.7689
  984MOL0     H29875   1.538   4.952   3.949  0.0650  1.0317 -0.7697
  984MOL0     H29876   2.021   5.047   4.211  3.9245 -0.1625  1.3531
  984MOL0     H29877   2.233   4.954   4.234  1.8835 -2.6042  1.0601
  984MOL0     H29878   2.335   4.577   4.025  0.8752 -0.0759  0.4827
  984MOL0     H29879   2.308   4.524   4.200  1.3334  0.6204  1.6226
  984MOL0     H29880   2.517   4.451   4.113 -1.0530 -0.9539  2.8277
  984MOL0     H29881   2.568   4.609   4.064  1.6464 -1.4385 -0.5961
  984MOL0     H29882   2.510   4.525   4.366  0.0238  0.9169 -0.0859
  984MOL0     H29883   2.506   4.692   4.330  2.8977  2.4286 -2.8227
  984MOL0     H29884   2.746   4.688   4.258  1.2466  1.1813  3.1824
  984MOL0     H29885   2.718   4.651   4.410 -1.6054 -0.6781  0.7788
  984MOL0     H29886   2.886   4.284   4.324  1.7474  0.8554 -0.5066
  984MOL0     H29887   2.117   4.569   4.080  0.0876 -1.5607  0.4041
  984MOL0     H29888   1.869   4.667   4.084 -1.7492  1.7435 -0.3553
  985MOL0     O29889   9.236   4.981   2.306 -0.4954  0.5345 -0.3873
  985MOL0     C29890   9.306   4.880   2.324  0.3869 -0.4658 -0.8811
  985MOL0     O29891   9.256   4.750   2.337 -0.6203 -0.5211  0.5094
  985MOL0     C29892   9.132   4.718   2.288  0.4420  0.9349 -0.6573
  985MOL0     C29893   9.123   4.578   2.249 -0.1786  0.4078  0.1547
  985MOL0     C29894   9.013   4.519   2.175 -0.3934 -0.4433 -0.1758
  985MOL0     C29895   8.900   4.603   2.158  0.0953  0.3574  0.0497
  985MOL0     O29896   8.806   4.529   2.088  0.0506  0.1918 -0.5142
  985MOL0     C29897   8.703   4.606   2.032  0.5470 -0.1080  0.4005
  985MOL0     C29898   8.614   4.530   1.949 -0.2995  1.1320 -0.9259
  985MOL0     C29899   8.485   4.603   1.916 -0.3660 -0.1707  0.1618
  985MOL0     C29900   8.438   4.574   1.770  0.2611 -0.1009  1.2379
  985MOL0     C29901   8.532   4.652   1.675  0.0872  0.5341 -0.0633
  985MOL0     C29902   8.474   4.624   1.533 -0.9419 -0.2101 -0.1782
  985MOL0     C29903   8.577   4.653   1.419 -0.0024  0.3714 -1.0889
  985MOL0     C29904   8.554   4.789   1.364 -0.5648 -0.4266 -0.5600
  985MOL0     N29905   8.433   4.796   1.285  0.3310  0.0353  0.2360
  985MOL0     C29906   8.365   4.707   1.198  0.2875  0.8124 -0.5057
  985MOL0     C29907   8.270   4.780   1.136 -0.5098 -0.3361 -0.6295
  985MOL0     C29908   8.180   4.738   1.031 -0.6560 -0.8949  1.0702
  985MOL0     C29909   8.077   4.638   1.087 -0.4001  0.0953  0.8462
  985MOL0     C29910   7.997   4.581   0.963  0.0146 -0.6195 -0.6051
  985MOL0     C29911   7.873   4.522   1.013  0.2454  0.1950  0.1077
  985MOL0     O29912   7.795   4.486   0.896  0.1990  0.1177  0.5175
  985MOL0     C29913   7.684   4.412   0.924  0.5509  0.5244  0.7377
  985MOL0     C29914   7.624   4.374   1.049  0.4239 -0.6324 -0.2670
  985MOL0     C29915   7.499   4.312   1.050  0.6102 -0.4572  0.2337
  985MOL0     C29916   7.424   4.288   0.925 -0.8434  0.4336 -0.3958
  985MOL0     C29917   7.290   4.229   0.919  0.1091  0.3373 -0.8617
  985MOL0     O29918   7.238   4.192   1.044 -0.3578 -0.7657  0.7073
  985MOL0     C29919   7.108   4.139   1.070  0.7766  0.1359 -0.5035
  985MOL0     C29920   7.008   4.121   0.971  0.2495 -0.4693 -0.0905
  985MOL0     C29921   6.882   4.063   1.010 -0.4703  0.2463  0.9403
  985MOL0     C29922   6.866   4.020   1.146  0.1620 -0.3399  0.0877
  985MOL0     O29923   6.749   3.966   1.186  0.7112 -0.2248  0.1276
  985MOL0     C29924   6.627   3.960   1.105  0.1530  0.0521  0.1017
  985MOL0     C29925   6.567   4.100   1.088  0.9086 -0.1435  0.1073
  985MOL0     C29926   6.425   4.091   1.027 -0.2189  0.9588 -0.3147
  985MOL0     C29927   6.380   4.236   0.987 -0.1948 -0.7003 -0.4143
  985MOL0     C29928   6.245   4.229   0.913 -0.1137  0.9437 -0.3254
  985MOL0     C29929   6.187   4.367   0.888 -1.0988 -0.1789 -0.5894
  985MOL0     C29930   6.065   4.357   0.800 -0.3776 -1.0816  0.2668
  985MOL0     C29931   5.941   4.310   0.864 -0.3666 -0.4695 -0.2729
  985MOL0    Cl29932   5.882   4.389   1.010 -0.2041  0.0248 -0.0350
  985MOL0     C29933   6.970   4.037   1.232  0.6112 -1.1077  0.1065
  985MOL0     C29934   7.085   4.100   1.203 -0.5957 -0.5654 -0.0451
  985MOL0     O29935   7.235   4.229   0.810  0.3984 -0.1074 -0.5641
  985MOL0     C29936   7.492   4.325   0.808  0.7010  0.4483 -0.2593
  985MOL0     C29937   7.618   4.375   0.803 -0.2038  0.2970  0.7699
  985MOL0     N29938   8.264   4.898   1.202 -0.6041 -0.6027  0.6129
  985MOL0     N29939   8.363   4.913   1.280  0.2337  1.0438 -0.9288
  985MOL0     C29940   8.899   4.739   2.203 -0.1634 -0.2471  0.1381
  985MOL0     C29941   9.016   4.794   2.265  0.2274 -0.8644  0.9235
  985MOL0     C29942   9.440   4.911   2.371 -0.2943 -0.0512  0.4317
  985MOL0     C29943   9.535   4.808   2.396 -0.5240 -0.5958 -1.2184
  985MOL0     C29944   9.663   4.838   2.449 -0.3442  0.3761  0.2592
  985MOL0     C29945   9.703   4.976   2.462  0.6146  0.4871  0.5118
  985MOL0     O29946   9.831   5.003   2.510 -0.1899 -0.5553 -0.1324
  985MOL0     C29947   9.875   5.137   2.497 -0.1297  0.3396  0.6656
  985MOL0     C29948   9.865   5.196   2.633  0.8138 -0.2434 -0.2446
  985MOL0     C29949   9.722   5.223   2.685  0.2472  0.0779  0.5203
  985MOL0     C29950   9.725   5.275   2.824  0.2235 -0.1485  0.2120
  985MOL0     C29951   9.595   5.299   2.881  0.6193 -0.2980  0.5808
  985MOL0     C29952   9.484   5.314   2.932 -0.4455 -1.4220 -0.2410
  985MOL0     C29953   9.613   5.074   2.419 -0.3988  0.0926 -0.0870
  985MOL0     C29954   9.482   5.045   2.374  0.2667 -0.5708 -0.5576
  985MOL0     H29955   9.217   4.524   2.263 -1.0605 -1.2362 -0.0389
  985MOL0     H29956   9.037   4.416   2.148  0.3065 -0.1249 -0.8300
  985MOL0     H29957   8.748   4.687   1.973  0.2125 -0.3667 -0.2181
  985MOL0     H29958   8.641   4.656   2.107 -0.7944 -2.6589  1.0980
  985MOL0     H29959   8.598   4.433   1.999  2.7820  1.0258  0.1105
  985MOL0     H29960   8.674   4.508   1.860  0.6295  1.7017 -0.4618
  985MOL0     H29961   8.512   4.709   1.918  2.3130 -0.7694  1.4905
  985MOL0     H29962   8.404   4.590   1.988 -0.9094  2.7619  0.2033
  985MOL0     H29963   8.417   4.469   1.750 -1.2152  0.7112 -2.3623
  985MOL0     H29964   8.343   4.625   1.748  1.2050  0.9539 -0.7470
  985MOL0     H29965   8.636   4.618   1.683 -0.1012  0.1174  0.7178
  985MOL0     H29966   8.533   4.760   1.692 -3.8285  1.0403 -2.0005
  985MOL0     H29967   8.386   4.684   1.507 -1.4804 -1.7817 -2.3208
  985MOL0     H29968   8.434   4.523   1.525 -1.1908 -0.3463  2.2827
  985MOL0     H29969   8.681   4.647   1.453  0.2627  0.3131 -1.9038
  985MOL0     H29970   8.563   4.587   1.333 -2.1279 -1.4881  0.5620
  985MOL0     H29971   8.634   4.814   1.294 -1.2740 -1.1606 -1.6730
  985MOL0     H29972   8.565   4.867   1.440 -0.8232 -0.9914  0.0675
  985MOL0     H29973   8.379   4.604   1.168  2.5580  1.1305 -0.7078
  985MOL0     H29974   8.235   4.691   0.949 -0.3344 -3.1437  2.4800
  985MOL0     H29975   8.139   4.830   0.990 -0.7587 -1.5580 -0.3669
  985MOL0     H29976   8.012   4.695   1.154  1.1843  0.6111  1.9988
  985MOL0     H29977   8.133   4.560   1.139 -0.9429  0.3570  1.8492
  985MOL0     H29978   7.977   4.662   0.892 -1.0811  0.0554  0.4432
  985MOL0     H29979   8.058   4.503   0.915  1.3883 -0.9280  1.5189
  985MOL0     H29980   7.799   4.576   1.074  1.2296 -0.6442  2.1420
  985MOL0     H29981   7.897   4.433   1.072 -1.1409 -1.9368 -2.3753
  985MOL0     H29982   7.671   4.401   1.143 -0.8030  0.2071  0.1323
  985MOL0     H29983   7.457   4.298   1.149 -1.6087  0.3727 -0.5214
  985MOL0     H29984   7.007   4.150   0.867 -0.3145  0.5959  0.1996
  985MOL0     H29985   6.801   4.055   0.938  1.6359  0.2774 -1.5960
  985MOL0     H29986   6.560   3.897   1.164  1.3461 -0.1076  1.3295
  985MOL0     H29987   6.640   3.915   1.006  1.6797 -2.3224  1.3032
  985MOL0     H29988   6.626   4.167   1.025  0.0219 -1.0279 -1.7698
  985MOL0     H29989   6.563   4.134   1.192 -0.0012 -0.9786  0.3646
  985MOL0     H29990   6.346   4.043   1.085  2.4633 -1.9745  1.2354
  985MOL0     H29991   6.439   4.041   0.931 -1.5146 -1.2951  0.5902
  985MOL0     H29992   6.382   4.302   1.075  0.7485 -1.1098 -0.1215
  985MOL0     H29993   6.453   4.272   0.914  2.2122 -2.9877  0.7196
  985MOL0     H29994   6.174   4.185   0.983  0.1913 -0.0805 -0.6405
  985MOL0     H29995   6.258   4.162   0.827  3.7982  0.6092  0.3557
  985MOL0     H29996   6.267   4.426   0.844 -0.1495 -1.5573 -0.7832
  985MOL0     H29997   6.158   4.414   0.982  1.0919 -2.6102  1.4536
  985MOL0     H29998   6.051   4.458   0.759  0.4072 -1.3795 -0.7671
  985MOL0     H29999   6.086   4.287   0.718  0.5633  0.7861 -1.1720
  985MOL0     H30000   5.947   4.204   0.889  2.3692 -0.2546  0.3156
  985MOL0     H30001   5.861   4.328   0.791 -0.6166 -0.4608  0.0019
  985MOL0     H30002   6.959   3.999   1.333 -4.2522 -0.3292  0.1057
  985MOL0     H30003   7.172   4.117   1.265  0.7955 -2.1140 -1.4838
  985MOL0     H30004   7.442   4.281   0.723  0.3562 -2.8283  1.4751
  985MOL0     H30005   7.643   4.400   0.701 -1.7430 -0.9071  0.0540
  985MOL0     H30006   8.810   4.797   2.179 -0.0355 -0.0222  0.2017
  985MOL0     H30007   9.002   4.899   2.291 -1.3490 -0.0327 -2.6935
  985MOL0     H30008   9.512   4.707   2.363 -0.9436 -1.7268  2.1444
  985MOL0     H30009   9.734   4.756   2.442  1.5798  2.0092 -0.3796
  985MOL0     H30010   9.832   5.190   2.411  3.4858 -1.5635 -2.6829
  985MOL0     H30011   9.981   5.150   2.473 -0.5634 -1.6238 -3.0707
  985MOL0     H30012   9.910   5.121   2.699 -1.8012 -1.8159 -0.0858
  985MOL0     H30013   9.927   5.284   2.651 -1.8306  1.3461  1.9323
  985MOL0     H30014   9.670   5.128   2.700  2.2366 -1.2441 -0.4903
  985MOL0     H30015   9.672   5.276   2.604  0.5931 -0.8352 -0.3004
  985MOL0     H30016   9.777   5.206   2.891 -1.1244 -0.6630  0.7464
  985MOL0     H30017   9.789   5.364   2.823  2.1572 -1.4516  0.9113
  985MOL0     H30018   9.396   5.321   2.993  0.8131  1.7467  1.4240
  985MOL0     H30019   9.633   5.180   2.411  0.6848  0.0201  1.2822
  985MOL0     H30020   9.428   5.133   2.341  3.8290  1.4932 -1.5340
  986MOL0     O30021   1.417   0.363   2.326 -0.1884 -0.5534 -0.3126
  986MOL0     C30022   1.348   0.359   2.226  0.2198  0.3329  0.4560
  986MOL0     O30023   1.394   0.325   2.105  0.5900 -0.5641  0.2162
  986MOL0     C30024   1.534   0.305   2.093  0.4415 -0.7623 -0.3351
  986MOL0     C30025   1.578   0.185   2.049 -0.1092  0.6202  0.0935
  986MOL0     C30026   1.710   0.144   2.031 -0.1146  0.1229 -0.7524
  986MOL0     C30027   1.803   0.242   2.051 -0.3356 -0.1338 -0.0779
  986MOL0     O30028   1.939   0.218   2.021 -0.5376 -0.4354 -0.4785
  986MOL0     C30029   2.035   0.253   2.129 -0.4917  0.0269  0.6660
  986MOL0     C30030   2.023   0.157   2.246 -0.0199 -0.0012 -0.4762
  986MOL0     C30031   2.044   0.010   2.214 -0.1440 -0.1073  0.0227
  986MOL0     C30032   2.179  -0.015   2.147 -0.2478  0.8437 -0.8983
  986MOL0     C30033   2.251  -0.146   2.189 -0.0544 -0.0644  0.5261
  986MOL0     C30034   2.396  -0.148   2.123  0.7127 -0.6404 -0.0167
  986MOL0     C30035   2.487  -0.253   2.195 -0.1236 -1.4534 -0.0227
  986MOL0     C30036   2.450  -0.398   2.168 -0.3679  0.1922 -0.3236
  986MOL0     N30037   2.437  -0.440   2.030  0.1826  0.4038 -0.1406
  986MOL0     C30038   2.321  -0.461   1.954 -0.5765 -0.2731 -0.0317
  986MOL0     C30039   2.371  -0.487   1.828  0.1176 -0.0080 -1.0015
  986MOL0     C30040   2.288  -0.488   1.699 -0.4677 -0.6550 -0.4403
  986MOL0     C30041   2.258  -0.625   1.649 -0.1802  0.5058  0.8180
  986MOL0     C30042   2.392  -0.701   1.625 -0.1841  0.0172  0.2118
  986MOL0     C30043   2.486  -0.662   1.505  0.2276 -0.0371 -0.4631
  986MOL0     O30044   2.574  -0.778   1.474 -0.3819 -0.0661  0.2516
  986MOL0     C30045   2.674  -0.760   1.370  0.1297 -0.1074  0.3184
  986MOL0     C30046   2.666  -0.666   1.261 -0.8759 -0.1088 -0.4910
  986MOL0     C30047   2.750  -0.666   1.148 -0.5673 -0.7043 -0.4285
  986MOL0     C30048   2.860  -0.757   1.147  0.6497  0.2923 -0.4915
  986MOL0     C30049   2.945  -0.765   1.032 -0.1105 -0.6266  0.2522
  986MOL0     O30050   3.034  -0.866   1.037 -0.8213 -1.1972 -0.6365
  986MOL0     C30051   3.113  -0.884   0.929 -0.1324  0.0363  0.7276
  986MOL0     C30052   3.055  -0.909   0.801 -0.2291 -0.2352  0.0193
  986MOL0     C30053   3.129  -0.945   0.691 -0.6236 -0.2167  0.0131
  986MOL0     C30054   3.271  -0.958   0.706 -0.1375  1.3237 -0.3427
  986MOL0     O30055   3.354  -1.004   0.608 -0.1139 -0.5678  0.4326
  986MOL0     C30056   3.289  -1.042   0.480 -0.2022  0.3391 -1.0491
  986MOL0     C30057   3.397  -1.117   0.407 -0.3139  0.3949  1.0094
  986MOL0     C30058   3.359  -1.159   0.262  0.7884 -0.4849 -0.1833
  986MOL0     C30059   3.297  -1.044   0.173 -0.1312  0.0535 -1.0206
  986MOL0     C30060   3.252  -1.082   0.032  0.0211 -0.3893 -0.9868
  986MOL0     C30061   3.103  -1.129   0.034 -0.5143  0.5465  0.7282
  986MOL0     C30062   3.072  -1.198  -0.097 -0.1114  0.1965  0.9473
  986MOL0     C30063   2.917  -1.218  -0.125 -0.0017 -0.6765 -0.3387
  986MOL0    Cl30064   2.831  -1.294   0.005  0.8043 -0.4935  0.6530
  986MOL0     C30065   3.327  -0.937   0.832 -0.8374  0.1067 -0.3441
  986MOL0     C30066   3.251  -0.906   0.938  1.0737  0.3608 -0.6350
  986MOL0     O30067   2.928  -0.681   0.938  0.3616  0.3554 -1.2500
  986MOL0     C30068   2.874  -0.840   1.258 -0.6712 -0.0054 -0.5873
  986MOL0     C30069   2.787  -0.847   1.364  0.3985  0.1714 -0.5532
  986MOL0     N30070   2.512  -0.484   1.828 -0.0947  0.7894 -0.8544
  986MOL0     N30071   2.543  -0.449   1.950  0.4823 -0.0855  0.2133
  986MOL0     C30072   1.766   0.371   2.099 -0.1573 -0.5741  0.8723
  986MOL0     C30073   1.632   0.405   2.110  0.8569 -0.4303  0.1105
  986MOL0     C30074   1.202   0.357   2.232 -0.4334  0.2658 -0.2457
  986MOL0     C30075   1.118   0.311   2.133  0.0580 -0.4013  0.5193
  986MOL0     C30076   0.981   0.312   2.132  0.9125 -0.5485  0.4797
  986MOL0     C30077   0.917   0.371   2.248 -0.0085 -0.6085 -1.2150
  986MOL0     O30078   0.780   0.387   2.262 -0.4044 -0.0018 -0.1727
  986MOL0     C30079   0.696   0.374   2.148 -0.4905 -0.6888  0.4151
  986MOL0     C30080   0.550   0.404   2.186 -0.0482 -0.5621 -0.0488
  986MOL0     C30081   0.444   0.389   2.086 -0.1196  0.8485 -0.3061
  986MOL0     C30082   0.313   0.443   2.141 -0.1703  1.3043  0.3361
  986MOL0     C30083   0.218   0.434   2.030  0.2189 -0.5436  0.1772
  986MOL0     C30084   0.141   0.421   1.932  0.3555  0.2427 -1.0594
  986MOL0     C30085   0.998   0.416   2.353 -0.5864  0.5884 -0.5516
  986MOL0     C30086   1.138   0.401   2.347 -0.4105 -0.3482  0.0838
  986MOL0     H30087   1.497   0.113   2.041  1.1094 -0.6408 -2.3608
  986MOL0     H30088   1.741   0.042   2.009  0.6077 -0.7141  3.2475
  986MOL0     H30089   2.029   0.355   2.170  1.0954  0.0221  0.9841
  986MOL0     H30090   2.134   0.239   2.085 -1.7682 -0.5594 -2.2612
  986MOL0     H30091   1.931   0.169   2.304  2.6581  0.3310  4.3040
  986MOL0     H30092   2.090   0.181   2.330 -2.1106 -0.8797  1.5502
  986MOL0     H30093   1.962  -0.016   2.146  0.7431  0.4805 -1.3077
  986MOL0     H30094   2.040  -0.046   2.308 -1.5331 -0.2792 -0.1145
  986MOL0     H30095   2.163  -0.004   2.039  0.7373  2.4943 -0.9183
  986MOL0     H30096   2.253   0.063   2.166  2.4960 -1.9559  0.6461
  986MOL0     H30097   2.203  -0.240   2.157 -1.8903 -0.1251  3.1616
  986MOL0     H30098   2.264  -0.147   2.298  2.5736 -4.6080  0.4462
  986MOL0     H30099   2.436  -0.051   2.152 -1.2107 -0.6935  3.3158
  986MOL0     H30100   2.398  -0.168   2.015 -0.0341 -1.3467  0.0878
  986MOL0     H30101   2.587  -0.240   2.151 -0.0114  0.7326  0.7614
  986MOL0     H30102   2.474  -0.239   2.302  2.0902 -0.8451  0.2161
  986MOL0     H30103   2.360  -0.429   2.221  0.7147 -0.5705  1.1334
  986MOL0     H30104   2.523  -0.467   2.211  0.1587  2.1216  2.1125
  986MOL0     H30105   2.222  -0.448   1.996 -0.2463 -0.2983  0.7672
  986MOL0     H30106   2.356  -0.434   1.633  0.6275  1.8296  2.4778
  986MOL0     H30107   2.203  -0.421   1.716  0.6804  0.3712  1.6847
  986MOL0     H30108   2.210  -0.618   1.551  2.0621  0.4769 -0.3625
  986MOL0     H30109   2.196  -0.668   1.729 -1.3091 -0.3470 -0.4787
  986MOL0     H30110   2.451  -0.708   1.716  0.8036  1.3728 -0.2939
  986MOL0     H30111   2.359  -0.803   1.605  0.6518 -0.2856  0.3890
  986MOL0     H30112   2.526  -0.562   1.526 -1.1982 -0.0808  3.1403
  986MOL0     H30113   2.429  -0.642   1.414  0.8518  0.9963 -0.6531
  986MOL0     H30114   2.600  -0.580   1.262  0.1621  0.7057  0.5310
  986MOL0     H30115   2.738  -0.590   1.072  0.8758 -0.0482 -0.0332
  986MOL0     H30116   2.948  -0.888   0.801 -0.2725 -0.4463 -0.4665
  986MOL0     H30117   3.081  -0.960   0.595  3.0509 -4.3829 -1.5043
  986MOL0     H30118   3.246  -0.956   0.429  0.7454  1.8406  0.5870
  986MOL0     H30119   3.208  -1.112   0.503  1.2846 -0.6714  1.5856
  986MOL0     H30120   3.422  -1.211   0.457 -0.6060  1.2294  2.7959
  986MOL0     H30121   3.487  -1.055   0.402  0.3854 -0.4102  2.7368
  986MOL0     H30122   3.293  -1.246   0.262 -0.6601  0.5523  1.0976
  986MOL0     H30123   3.443  -1.190   0.200  0.3782 -1.9480 -0.0473
  986MOL0     H30124   3.203  -1.009   0.216 -0.7467  2.5209 -4.0366
  986MOL0     H30125   3.374  -0.967   0.171  0.3140 -0.3636 -0.3757
  986MOL0     H30126   3.315  -1.161  -0.010  0.2561  0.4472 -2.2417
  986MOL0     H30127   3.256  -1.000  -0.040  1.7535 -1.6830 -2.4328
  986MOL0     H30128   3.040  -1.044   0.059  1.7619  1.5777  3.3807
  986MOL0     H30129   3.094  -1.207   0.110 -0.2739 -1.4032 -1.1079
  986MOL0     H30130   3.117  -1.143  -0.180  3.1173 -0.2587  2.2304
  986MOL0     H30131   3.114  -1.300  -0.097  2.7277  1.2577  1.0664
  986MOL0     H30132   2.915  -1.275  -0.218 -0.8962  0.5150 -1.0840
  986MOL0     H30133   2.854  -1.130  -0.143 -0.0817 -0.8179 -0.7566
  986MOL0     H30134   3.432  -0.945   0.857 -1.4616 -0.7087  2.3990
  986MOL0     H30135   3.294  -0.892   1.037  1.2342 -4.4434  0.2160
  986MOL0     H30136   2.959  -0.907   1.271 -1.1437 -0.0002  4.6457
  986MOL0     H30137   2.808  -0.912   1.448  1.1933 -1.5412 -1.9955
  986MOL0     H30138   1.835   0.452   2.117 -0.0990 -0.8153  1.7546
  986MOL0     H30139   1.588   0.501   2.137  1.5861 -0.0749  0.0668
  986MOL0     H30140   1.167   0.283   2.040  1.3020 -0.0414  1.0418
  986MOL0     H30141   0.914   0.286   2.051  1.1353  2.6082 -0.8941
  986MOL0     H30142   0.706   0.269   2.119 -2.4328 -1.1126  1.1381
  986MOL0     H30143   0.718   0.455   2.078  1.2010 -1.4898 -0.0333
  986MOL0     H30144   0.545   0.325   2.262  3.3895 -2.8254 -1.8742
  986MOL0     H30145   0.540   0.503   2.229  1.0761 -0.9705  1.2258
  986MOL0     H30146   0.428   0.289   2.043 -0.1137  1.6998 -2.4185
  986MOL0     H30147   0.475   0.450   2.000  0.4592  1.4839  0.3363
  986MOL0     H30148   0.287   0.375   2.223  0.1520  1.3075  0.4430
  986MOL0     H30149   0.316   0.548   2.172 -0.4439  1.5684 -0.5072
  986MOL0     H30150   0.074   0.414   1.848 -0.5715  1.9285 -0.5058
  986MOL0     H30151   0.961   0.459   2.446  0.3091 -1.4338  0.8108
  986MOL0     H30152   1.207   0.443   2.420  0.8300 -0.3643 -1.0369
  987MOL0     O30153   4.520   7.920   7.647  0.1686  0.1316  0.5248
  987MOL0     C30154   4.551   7.930   7.762  0.2975 -0.2121 -0.1724
  987MOL0     O30155   4.466   7.917   7.869  0.6113 -0.0978  0.0590
  987MOL0     C30156   4.333   7.896   7.855  0.5021 -0.2946 -0.0833
  987MOL0     C30157   4.234   7.975   7.921  0.0560  0.3259  0.2989
  987MOL0     C30158   4.101   7.952   7.918 -0.0845 -0.9395  0.0148
  987MOL0     C30159   4.054   7.845   7.845 -0.4602 -1.3613  0.1049
  987MOL0     O30160   3.920   7.839   7.846  0.4611  0.2725 -0.1944
  987MOL0     C30161   3.853   7.720   7.808 -0.3167  0.2035  0.2829
  987MOL0     C30162   3.724   7.768   7.756  0.0295  0.0407 -1.2477
  987MOL0     C30163   3.632   7.647   7.741 -0.5893  0.2137 -0.3550
  987MOL0     C30164   3.498   7.681   7.684  0.8521  0.3462 -0.4047
  987MOL0     C30165   3.434   7.543   7.665  0.7524 -0.5608  0.2029
  987MOL0     C30166   3.312   7.547   7.569 -0.2355  0.8067 -1.3097
  987MOL0     C30167   3.191   7.627   7.627 -0.1322 -0.0368  0.4122
  987MOL0     C30168   3.063   7.595   7.548  0.3348 -0.3217  0.4539
  987MOL0     N30169   2.931   7.622   7.612  0.2585 -0.1947  0.4555
  987MOL0     C30170   2.865   7.737   7.606  0.5848 -1.2472  0.6039
  987MOL0     C30171   2.757   7.719   7.684  0.3730 -0.8449 -0.5829
  987MOL0     C30172   2.650   7.827   7.710 -0.2713 -0.2620 -0.4872
  987MOL0     C30173   2.561   7.797   7.833 -0.8741 -0.2223 -0.6218
  987MOL0     C30174   2.448   7.695   7.800  0.3658  0.7843  0.2033
  987MOL0     C30175   2.345   7.677   7.898 -0.0833 -0.1317  0.2621
  987MOL0     O30176   2.229   7.621   7.829  0.9389 -0.9235 -1.1771
  987MOL0     C30177   2.106   7.619   7.887  0.2312  0.5984  0.1283
  987MOL0     C30178   2.003   7.576   7.804  0.8022 -0.2688  1.1990
  987MOL0     C30179   1.871   7.568   7.847  1.0612  2.0983 -1.4935
  987MOL0     C30180   1.840   7.607   7.979  0.3958  0.2143 -0.2819
  987MOL0     C30181   1.697   7.618   8.028  0.1430 -0.2800 -0.7856
  987MOL0     O30182   1.608   7.566   7.939 -0.1718 -0.0661  0.2304
  987MOL0     C30183   1.471   7.583   7.945  0.1360 -0.4252 -1.0910
  987MOL0     C30184   1.398   7.476   7.885  0.0056  0.3941  0.0702
  987MOL0     C30185   1.263   7.474   7.900 -0.4462  0.8990  0.5571
  987MOL0     C30186   1.192   7.584   7.952  0.0394 -0.4477  0.3015
  987MOL0     O30187   1.062   7.566   7.973 -0.2985 -0.4892  0.4525
  987MOL0     C30188   0.971   7.682   7.969 -0.0075  0.4504 -0.1553
  987MOL0     C30189   0.839   7.653   7.903 -0.1326  0.3895  0.3197
  987MOL0     C30190   0.762   7.541   7.967 -0.6572  0.1104 -0.2572
  987MOL0     C30191   0.625   7.534   7.904  0.2189 -0.0925 -0.7251
  987MOL0     C30192   0.552   7.404   7.949  0.3227  0.5378 -0.4714
  987MOL0     C30193   0.487   7.316   7.840  0.0485  0.1411  0.7670
  987MOL0     C30194   0.441   7.185   7.913  0.3011 -0.0909  0.5971
  987MOL0     C30195   0.388   7.089   7.809 -0.2460 -0.1080 -0.7008
  987MOL0    Cl30196   0.273   6.992   7.904 -0.4459 -0.2697  0.2437
  987MOL0     C30197   1.263   7.693   8.002 -0.3326  0.2145  0.1560
  987MOL0     C30198   1.398   7.684   8.000 -0.1274 -0.6128 -0.0984
  987MOL0     O30199   1.669   7.676   8.134  1.1782  0.0843  0.1217
  987MOL0     C30200   1.943   7.632   8.075  0.8998  0.1607  1.4061
  987MOL0     C30201   2.073   7.642   8.026 -0.2876 -0.8701 -0.6815
  987MOL0     N30202   2.765   7.597   7.744  0.0323 -0.5497  0.3540
  987MOL0     N30203   2.878   7.545   7.710 -1.1215 -0.8729  0.7205
  987MOL0     C30204   4.148   7.767   7.762 -0.3986 -0.9143 -0.5191
  987MOL0     C30205   4.283   7.796   7.767 -0.1997 -0.2255 -1.3744
  987MOL0     C30206   4.691   7.947   7.795  0.4168 -0.4587  0.4636
  987MOL0     C30207   4.721   8.020   7.915  0.0356 -0.5652 -0.2456
  987MOL0     C30208   4.857   8.036   7.948 -0.1849  0.8849 -0.1349
  987MOL0     C30209   4.959   7.991   7.868 -0.0975 -0.6271  0.6819
  987MOL0     O30210   5.085   8.022   7.918  0.0527  0.8391 -0.1888
  987MOL0     C30211   5.190   8.014   7.827  1.3249  0.3586 -0.5514
  987MOL0     C30212   5.313   8.083   7.877 -0.3070 -0.7760  0.5771
  987MOL0     C30213   5.370   8.007   8.009 -0.5872 -0.2622 -0.3142
  987MOL0     C30214   5.511   8.051   8.030 -0.4518  1.1184 -1.1030
  987MOL0     C30215   5.619   8.006   7.933  0.0850  0.6712 -0.0705
  987MOL0     C30216   5.730   7.995   7.879 -0.2028  0.0512  0.4145
  987MOL0     C30217   4.926   7.920   7.751 -0.3317 -0.1292 -0.1351
  987MOL0     C30218   4.796   7.897   7.714  0.9691  0.1158 -0.0749
  987MOL0     H30219   4.274   8.058   7.978  1.7444 -0.0206 -0.3125
  987MOL0     H30220   4.037   8.023   7.971  0.2992  1.6704 -2.7682
  987MOL0     H30221   3.830   7.670   7.902 -2.0888 -3.4493 -1.8757
  987MOL0     H30222   3.908   7.647   7.749  1.9056  1.6907  0.4120
  987MOL0     H30223   3.739   7.804   7.654  0.1211 -3.6878 -2.6992
  987MOL0     H30224   3.675   7.840   7.823  1.8569  1.0592 -0.9401
  987MOL0     H30225   3.611   7.609   7.842  3.3614  1.3753  1.0955
  987MOL0     H30226   3.686   7.569   7.686 -0.8073 -1.2404  1.4046
  987MOL0     H30227   3.435   7.734   7.757 -1.1907 -2.2959 -0.0846
  987MOL0     H30228   3.512   7.730   7.588 -1.8565  1.4350 -0.3252
  987MOL0     H30229   3.391   7.511   7.761 -0.4233  1.0560  0.2602
  987MOL0     H30230   3.511   7.475   7.627  1.4096  0.8557 -1.0754
  987MOL0     H30231   3.266   7.448   7.576  0.4463  0.5387 -0.3580
  987MOL0     H30232   3.321   7.567   7.462 -3.2252 -0.7765 -1.9756
  987MOL0     H30233   3.182   7.585   7.727  2.5618  0.6433  1.0149
  987MOL0     H30234   3.204   7.736   7.628 -0.5343  0.0413  2.8910
  987MOL0     H30235   3.065   7.491   7.516 -2.4512  0.5306 -3.1375
  987MOL0     H30236   3.068   7.652   7.454  0.0716  1.3838  1.4232
  987MOL0     H30237   2.879   7.821   7.539  0.9670 -1.7401  0.0553
  987MOL0     H30238   2.582   7.841   7.626 -2.7307 -0.4726  1.3662
  987MOL0     H30239   2.699   7.920   7.742  3.4730 -2.2313 -0.0089
  987MOL0     H30240   2.516   7.891   7.866  1.9836  0.4369  1.9073
  987MOL0     H30241   2.632   7.758   7.907  0.2786  0.1239 -1.5105
  987MOL0     H30242   2.404   7.717   7.702  2.7177  2.0539 -0.6269
  987MOL0     H30243   2.489   7.596   7.777  2.9083  2.0010 -0.8605
  987MOL0     H30244   2.324   7.770   7.953 -0.7034 -0.4712  0.6072
  987MOL0     H30245   2.376   7.605   7.975  0.5314 -1.6099 -1.3071
  987MOL0     H30246   2.030   7.550   7.702  1.1590  1.0541  0.9390
  987MOL0     H30247   1.794   7.557   7.771  2.4293 -2.8498 -2.4771
  987MOL0     H30248   1.454   7.399   7.833  1.4312  2.5530 -1.7979
  987MOL0     H30249   1.198   7.393   7.868  1.8613 -0.3713 -1.2448
  987MOL0     H30250   1.018   7.761   7.910 -0.6462  1.2896  0.4385
  987MOL0     H30251   0.951   7.721   8.070 -0.4763  2.3659 -0.9400
  987MOL0     H30252   0.863   7.630   7.799  0.2848 -0.8895  0.6899
  987MOL0     H30253   0.781   7.746   7.910 -3.9962 -1.7918 -0.0117
  987MOL0     H30254   0.769   7.564   8.074  4.3574  2.2818 -0.7615
  987MOL0     H30255   0.815   7.448   7.948 -1.4378  0.2592 -3.7377
  987MOL0     H30256   0.572   7.625   7.934  2.0192  1.0605 -0.8564
  987MOL0     H30257   0.629   7.544   7.796 -2.1951  3.0795 -0.6698
  987MOL0     H30258   0.466   7.421   8.013  1.2582 -0.8009  1.2170
  987MOL0     H30259   0.620   7.344   8.010 -2.2481 -3.0339 -0.7751
  987MOL0     H30260   0.570   7.284   7.776  1.4670  2.7782  1.1186
  987MOL0     H30261   0.405   7.356   7.779  1.2614 -1.8842 -2.4685
  987MOL0     H30262   0.524   7.139   7.968  2.2040 -1.0614 -2.7694
  987MOL0     H30263   0.358   7.203   7.982  1.4839 -0.3480  2.1568
  987MOL0     H30264   0.450   7.022   7.749 -0.5547 -2.8209  1.7962
  987MOL0     H30265   0.319   7.141   7.742  0.3607  1.1160 -0.4137
  987MOL0     H30266   1.210   7.777   8.047  0.8095  1.3591 -0.5857
  987MOL0     H30267   1.457   7.764   8.045 -1.2636 -0.4907  1.2222
  987MOL0     H30268   1.929   7.659   8.179 -0.2225  0.5587  1.1692
  987MOL0     H30269   2.154   7.659   8.097 -0.5567 -0.9063 -0.3675
  987MOL0     H30270   4.121   7.687   7.694 -0.8753 -0.1103 -1.3094
  987MOL0     H30271   4.350   7.735   7.706  0.9850 -2.0132  1.4720
  987MOL0     H30272   4.645   8.063   7.978 -0.3065 -1.6028  0.0802
  987MOL0     H30273   4.887   8.101   8.030  2.4472 -0.3218 -0.0298
  987MOL0     H30274   5.160   8.055   7.730 -0.4204 -0.4505 -0.3899
  987MOL0     H30275   5.213   7.907   7.814 -0.1677 -0.1567  0.7682
  987MOL0     H30276   5.381   8.065   7.794 -2.9677 -2.3176 -1.4455
  987MOL0     H30277   5.282   8.187   7.889  0.5500 -0.2933 -1.1316
  987MOL0     H30278   5.346   7.900   8.015  0.3055 -0.4230  1.2319
  987MOL0     H30279   5.315   8.041   8.097 -1.0481 -2.3093  0.2466
  987MOL0     H30280   5.513   8.160   8.042  0.9546  1.0099 -0.1733
  987MOL0     H30281   5.543   8.011   8.127 -0.8113  1.0960 -0.9932
  987MOL0     H30282   5.825   7.961   7.842 -1.3554 -1.0681 -1.6984
  987MOL0     H30283   5.001   7.876   7.685 -1.5250  0.3237 -1.8590
  987MOL0     H30284   4.774   7.835   7.628  0.1677 -1.2259  1.0655
  988MOL0     O30285   0.532   2.030   2.545 -0.6834  0.4332  0.6598
  988MOL0     C30286   0.588   1.915   2.560 -0.6320 -0.0007 -0.3337
  988MOL0     O30287   0.526   1.792   2.551  0.3306 -0.7137  0.4591
  988MOL0     C30288   0.395   1.791   2.591  0.1246 -0.0129 -0.0986
  988MOL0     C30289   0.351   1.873   2.685  0.0689 -0.3000  0.6216
  988MOL0     C30290   0.218   1.895   2.706  0.3859 -1.1081 -0.4347
  988MOL0     C30291   0.118   1.816   2.646 -0.5780  0.5744  0.0449
  988MOL0     O30292  -0.007   1.820   2.687  0.2319 -0.2609  0.2544
  988MOL0     C30293  -0.097   1.777   2.582  0.7982  0.3930  0.2537
  988MOL0     C30294  -0.241   1.809   2.609 -0.5825  0.5523 -0.2693
  988MOL0     C30295  -0.266   1.954   2.649 -0.1560 -0.0021  0.2366
  988MOL0     C30296  -0.409   1.983   2.658  0.1392 -0.1227 -0.5200
  988MOL0     C30297  -0.425   2.129   2.685  0.5947 -0.0953 -0.3388
  988MOL0     C30298  -0.562   2.156   2.736 -0.4782  1.0921 -0.4262
  988MOL0     C30299  -0.675   2.137   2.634  0.8334  0.8553  0.0354
  988MOL0     C30300  -0.815   2.146   2.714 -0.2841  0.0431 -0.2354
  988MOL0     N30301  -0.924   2.176   2.616 -0.1507  0.7251  0.3801
  988MOL0     C30302  -0.961   2.097   2.506 -0.7981 -0.2422 -0.2142
  988MOL0     C30303  -1.079   2.157   2.470  0.0510  0.8592  0.3869
  988MOL0     C30304  -1.153   2.116   2.347 -0.0345 -0.0620 -0.8000
  988MOL0     C30305  -1.283   2.035   2.383 -0.3141 -0.8340 -0.0181
  988MOL0     C30306  -1.379   2.024   2.267  0.2013  0.2855  0.0191
  988MOL0     C30307  -1.493   1.936   2.312  0.5536  0.1398  0.7100
  988MOL0     O30308  -1.606   1.972   2.232 -0.3204 -0.3212 -0.1925
  988MOL0     C30309  -1.722   1.917   2.256  0.3387 -0.5422  0.5910
  988MOL0     C30310  -1.829   2.003   2.284  0.3535  0.1670  0.4110
  988MOL0     C30311  -1.954   1.958   2.307 -0.6281  0.7998 -0.9971
  988MOL0     C30312  -1.976   1.818   2.315  0.5602  0.2044 -0.5696
  988MOL0     C30313  -2.101   1.744   2.367  0.0144 -0.5937  0.2404
  988MOL0     O30314  -2.192   1.837   2.408  0.2292 -0.3635  0.1576
  988MOL0     C30315  -2.316   1.805   2.461  0.0529  0.3161  0.5032
  988MOL0     C30316  -2.363   1.676   2.496 -0.1702 -0.6494 -0.1536
  988MOL0     C30317  -2.491   1.654   2.541  0.3696 -0.2753 -0.3675
  988MOL0     C30318  -2.582   1.752   2.539  0.1829  0.3197  1.0389
  988MOL0     O30319  -2.712   1.717   2.581  0.2496  0.4118  0.0422
  988MOL0     C30320  -2.826   1.812   2.555 -0.5709  0.4161 -0.0751
  988MOL0     C30321  -2.831   1.916   2.666 -1.1104 -0.0973  0.4816
  988MOL0     C30322  -2.929   2.032   2.641  0.6666  0.3215 -0.0089
  988MOL0     C30323  -2.935   2.153   2.740 -0.4341  0.8609  0.2666
  988MOL0     C30324  -3.050   2.248   2.708 -0.2250  0.5050  0.2354
  988MOL0     C30325  -3.069   2.353   2.818 -1.0472  0.6683 -0.1310
  988MOL0     C30326  -3.163   2.462   2.772  0.5224 -0.4258  0.1427
  988MOL0     C30327  -3.120   2.544   2.645 -0.1746 -0.4071  0.4421
  988MOL0    Cl30328  -3.246   2.669   2.612  0.7689 -0.1929  0.0488
  988MOL0     C30329  -2.542   1.879   2.497  0.1101 -0.3468  0.7603
  988MOL0     C30330  -2.410   1.902   2.463 -0.3564  0.3237  0.1054
  988MOL0     O30331  -2.118   1.622   2.350  0.0513  0.1480 -0.7473
  988MOL0     C30332  -1.867   1.736   2.275  0.5184 -0.3491 -0.2538
  988MOL0     C30333  -1.741   1.783   2.246  0.3796  0.5507  0.1439
  988MOL0     N30334  -1.104   2.261   2.551 -0.5002 -0.4837  0.5010
  988MOL0     N30335  -1.013   2.269   2.647 -0.0983 -0.5121 -0.0344
  988MOL0     C30336   0.164   1.725   2.546 -0.8374  0.2862  0.1306
  988MOL0     C30337   0.304   1.717   2.520  0.6293  1.0575  0.8072
  988MOL0     C30338   0.733   1.923   2.566 -0.4113 -0.0552  0.4157
  988MOL0     C30339   0.809   1.814   2.596 -0.4636  0.4927 -0.5845
  988MOL0     C30340   0.950   1.816   2.614 -0.3656 -0.0305  0.3538
  988MOL0     C30341   1.018   1.931   2.605 -0.2613  0.5169 -1.2997
  988MOL0     O30342   1.154   1.942   2.632  0.0783  0.4626  0.1710
  988MOL0     C30343   1.225   1.818   2.664  0.2393  0.5714 -0.5953
  988MOL0     C30344   1.368   1.834   2.682  0.0292 -0.5099 -0.2100
  988MOL0     C30345   1.422   1.956   2.604  0.4186 -0.2466  0.2913
  988MOL0     C30346   1.575   1.952   2.579 -0.4693 -0.0098 -0.1409
  988MOL0     C30347   1.620   1.842   2.501 -0.7845  0.2180  0.6917
  988MOL0     C30348   1.653   1.741   2.442 -0.2332 -0.6767  0.0904
  988MOL0     C30349   0.953   2.050   2.563  0.2658  0.1320 -0.6280
  988MOL0     C30350   0.813   2.042   2.544 -0.9012 -0.1057 -0.3399
  988MOL0     H30351   0.410   1.936   2.750  1.2738  0.3952 -1.0667
  988MOL0     H30352   0.181   1.981   2.761 -0.6912 -1.4503 -0.6032
  988MOL0     H30353  -0.094   1.669   2.572  1.4269 -0.0809  4.0226
  988MOL0     H30354  -0.080   1.835   2.491 -0.0335 -0.3402 -0.3817
  988MOL0     H30355  -0.263   1.748   2.696  1.0178 -1.1720 -0.9915
  988MOL0     H30356  -0.302   1.771   2.527 -0.0901  1.1677 -0.9398
  988MOL0     H30357  -0.205   2.011   2.578  0.3057 -0.5632  0.1710
  988MOL0     H30358  -0.221   1.990   2.742 -1.5105  1.0082  0.5145
  988MOL0     H30359  -0.465   1.955   2.568  0.2090  1.7671 -1.1910
  988MOL0     H30360  -0.438   1.926   2.746  0.2992  0.8628  0.1807
  988MOL0     H30361  -0.401   2.198   2.603 -0.3857 -0.6030 -1.0663
  988MOL0     H30362  -0.366   2.153   2.775  1.4099 -1.4519 -0.4862
  988MOL0     H30363  -0.555   2.263   2.756  0.5595  0.9138  0.2364
  988MOL0     H30364  -0.594   2.103   2.826 -0.6569  2.2714  0.2273
  988MOL0     H30365  -0.670   2.218   2.560 -2.3743  3.0181  1.9428
  988MOL0     H30366  -0.665   2.047   2.573 -2.1973  0.8287 -0.5611
  988MOL0     H30367  -0.799   2.237   2.772  0.0054  1.1454 -1.9727
  988MOL0     H30368  -0.835   2.057   2.774  0.8922 -0.3682 -0.4152
  988MOL0     H30369  -0.907   2.013   2.465 -1.5287 -0.5555 -0.5576
  988MOL0     H30370  -1.088   2.062   2.278  0.9979 -1.0985  0.9008
  988MOL0     H30371  -1.182   2.207   2.294 -1.5411 -1.7336 -3.0321
  988MOL0     H30372  -1.333   2.079   2.470 -3.1814  0.6044 -2.2335
  988MOL0     H30373  -1.243   1.936   2.404  1.3407 -0.3649 -0.7856
  988MOL0     H30374  -1.409   2.124   2.235 -0.7601 -0.0126 -0.0590
  988MOL0     H30375  -1.331   1.973   2.183 -1.4356  0.9527 -1.3782
  988MOL0     H30376  -1.525   1.946   2.416  0.7481 -1.1887  0.9044
  988MOL0     H30377  -1.469   1.832   2.288 -1.3844 -0.0052 -0.9593
  988MOL0     H30378  -1.820   2.111   2.296 -1.4686  0.2780  1.0756
  988MOL0     H30379  -2.034   2.031   2.318 -1.5810  0.0408 -2.5607
  988MOL0     H30380  -2.297   1.591   2.509 -0.1416 -0.4575  1.0545
  988MOL0     H30381  -2.522   1.556   2.576 -1.4570  1.1136  2.1785
  988MOL0     H30382  -2.918   1.753   2.556  0.5102 -1.3409  0.1155
  988MOL0     H30383  -2.820   1.853   2.454  0.9273  2.1310  0.6581
  988MOL0     H30384  -2.732   1.961   2.684 -1.5109 -0.0763  2.9452
  988MOL0     H30385  -2.863   1.862   2.755  5.3677 -1.0762  2.7230
  988MOL0     H30386  -3.025   1.980   2.643  0.2259  0.7655 -3.3252
  988MOL0     H30387  -2.907   2.066   2.539  2.1785 -2.1229 -0.5807
  988MOL0     H30388  -2.949   2.116   2.842 -1.2826  0.0524 -0.1261
  988MOL0     H30389  -2.839   2.204   2.744 -0.7123  1.3290  1.2925
  988MOL0     H30390  -3.139   2.185   2.706  1.2219 -1.6850  0.8163
  988MOL0     H30391  -3.039   2.294   2.610 -0.8262 -0.6650 -0.3967
  988MOL0     H30392  -2.978   2.404   2.849  0.2986 -1.5517 -0.2406
  988MOL0     H30393  -3.112   2.304   2.906  3.2436 -0.2738  1.6752
  988MOL0     H30394  -3.262   2.417   2.761  0.4160 -0.6537  1.7839
  988MOL0     H30395  -3.180   2.533   2.854 -0.1423  0.7146 -0.9376
  988MOL0     H30396  -3.117   2.491   2.550 -1.2944  0.6213 -0.1961
  988MOL0     H30397  -3.025   2.598   2.659  0.9169 -1.9865 -0.5650
  988MOL0     H30398  -2.616   1.958   2.494  0.2113  0.0041  3.8339
  988MOL0     H30399  -2.381   2.003   2.436 -0.3071  0.1064 -0.6851
  988MOL0     H30400  -1.883   1.629   2.269 -1.0428 -0.0707 -2.1285
  988MOL0     H30401  -1.668   1.716   2.201 -0.5064 -0.4330  0.1378
  988MOL0     H30402   0.096   1.659   2.493 -0.3390 -2.3290  2.5229
  988MOL0     H30403   0.333   1.646   2.443  1.9784  1.6126  0.7784
  988MOL0     H30404   0.764   1.716   2.609  2.0016 -0.6149  0.1377
  988MOL0     H30405   0.996   1.723   2.644 -1.3802 -0.1181  1.7537
  988MOL0     H30406   1.228   1.751   2.578  0.7110  0.1889 -0.2850
  988MOL0     H30407   1.185   1.766   2.752  0.0358 -0.4418 -1.2717
  988MOL0     H30408   1.396   1.840   2.788  3.2281 -0.9343 -0.9187
  988MOL0     H30409   1.417   1.741   2.649 -1.7678 -1.3007 -0.7574
  988MOL0     H30410   1.399   2.048   2.657 -3.3865 -0.0907 -1.3293
  988MOL0     H30411   1.368   1.969   2.510 -2.3864  2.5570  2.1094
  988MOL0     H30412   1.601   2.047   2.531  0.1234 -0.9774 -1.8074
  988MOL0     H30413   1.630   1.970   2.672  0.2774 -0.2382 -0.5339
  988MOL0     H30414   1.677   1.665   2.370 -2.4623 -2.1021  0.7723
  988MOL0     H30415   1.010   2.141   2.550 -0.1703  0.6947  1.1279
  988MOL0     H30416   0.751   2.128   2.520 -3.1008 -1.5355 -0.0390
  989MOL0     O30417   0.047   7.968  10.664 -0.3361 -0.4929  0.4409
  989MOL0     C30418   0.045   7.958  10.540  0.1824  0.8872  0.2626
  989MOL0     O30419   0.144   7.942  10.447  0.0228  0.0885  0.0488
  989MOL0     C30420   0.271   7.893  10.474 -0.5560  0.2365 -0.2755
  989MOL0     C30421   0.308   7.827  10.585  0.8060 -0.0226  0.4497
  989MOL0     C30422   0.433   7.778  10.604 -0.6602  0.0519 -0.3369
  989MOL0     C30423   0.536   7.799  10.508  0.1769  0.4541 -0.2488
  989MOL0     O30424   0.667   7.766  10.514 -0.8372  0.5432  0.1600
  989MOL0     C30425   0.706   7.675  10.623  0.4913 -0.6587  0.0678
  989MOL0     C30426   0.841   7.612  10.594  0.3291  0.0182  0.2075
  989MOL0     C30427   0.949   7.723  10.575  0.2089 -0.3010  0.2575
  989MOL0     C30428   1.084   7.657  10.571  0.3892 -0.1739 -0.0312
  989MOL0     C30429   1.201   7.767  10.558  0.1172  0.3680  0.3052
  989MOL0     C30430   1.218   7.791  10.402 -0.0937  0.9532  0.5854
  989MOL0     C30431   1.327   7.890  10.364  0.0188  0.2196 -0.1075
  989MOL0     C30432   1.351   7.897  10.213 -0.7835 -0.5873 -0.2088
  989MOL0     N30433   1.452   7.992  10.172 -0.0295 -0.5709  0.2708
  989MOL0     C30434   1.429   8.111  10.117 -0.4545 -0.0649  0.4474
  989MOL0     C30435   1.549   8.173  10.099 -0.3485 -0.6657  0.5793
  989MOL0     C30436   1.570   8.299  10.032 -0.2733 -0.8198 -0.3734
  989MOL0     C30437   1.656   8.270   9.903 -0.2857  0.2055  0.3902
  989MOL0     C30438   1.719   8.407   9.853 -1.1218  0.7648 -0.4359
  989MOL0     C30439   1.625   8.514   9.806  0.3784 -0.3769 -0.6013
  989MOL0     O30440   1.695   8.637   9.785  1.3136  0.2109 -1.0393
  989MOL0     C30441   1.624   8.760   9.781  0.5519  0.6265  0.7458
  989MOL0     C30442   1.688   8.878   9.808  0.2974  0.0685  0.4112
  989MOL0     C30443   1.624   9.005   9.816 -0.0169  0.3406  0.5877
  989MOL0     C30444   1.489   9.006   9.784  0.2772  0.4735 -0.1833
  989MOL0     C30445   1.411   9.129   9.791  0.8166  0.3024  0.2238
  989MOL0     O30446   1.490   9.241   9.761  0.9103 -0.4506 -0.6351
  989MOL0     C30447   1.437   9.366   9.751 -0.4691  0.2475  0.3400
  989MOL0     C30448   1.467   9.440   9.637 -0.5472  0.6457 -0.0296
  989MOL0     C30449   1.433   9.572   9.627 -0.2107  0.7040  0.1159
  989MOL0     C30450   1.365   9.638   9.728 -0.0243  0.2998 -0.3410
  989MOL0     O30451   1.338   9.774   9.738  0.2303 -0.1413  0.6097
  989MOL0     C30452   1.366   9.852   9.623 -0.5587 -0.4524 -0.3800
  989MOL0     C30453   1.515   9.903   9.624 -0.2431  0.2255 -0.6030
  989MOL0     C30454   1.575   9.943   9.480  0.0215 -0.7783 -0.2221
  989MOL0     C30455   1.553  10.090   9.443  0.2695 -0.4385 -0.2735
  989MOL0     C30456   1.605  10.136   9.309  0.7197 -0.0933  0.3947
  989MOL0     C30457   1.602  10.290   9.301 -0.6290  0.4975 -0.7635
  989MOL0     C30458   1.640  10.341   9.156  0.7247  0.3505  0.5323
  989MOL0     C30459   1.783  10.313   9.117 -0.0217 -0.5963 -0.6036
  989MOL0    Cl30460   1.896  10.407   9.213 -0.1077 -0.2574  0.5071
  989MOL0     C30461   1.323   9.564   9.837 -0.5261  0.5489  0.9978
  989MOL0     C30462   1.373   9.433   9.851  0.7736  0.5217 -0.8342
  989MOL0     O30463   1.287   9.126   9.826 -0.2847 -0.1935  0.9281
  989MOL0     C30464   1.421   8.893   9.749 -0.3416 -0.6679 -0.2550
  989MOL0     C30465   1.484   8.769   9.751  0.2180 -0.3320 -0.1484
  989MOL0     N30466   1.645   8.080  10.137 -0.4008 -0.3637  1.1901
  989MOL0     N30467   1.584   7.968  10.173 -0.2711 -0.4619 -0.5138
  989MOL0     C30468   0.502   7.879  10.403 -0.1551  0.4955  0.5219
  989MOL0     C30469   0.369   7.921  10.381 -0.3802 -0.0290  0.1414
  989MOL0     C30470  -0.092   7.965  10.479 -0.0438 -0.6106  0.5046
  989MOL0     C30471  -0.123   7.921  10.349 -0.5151 -0.3659 -0.0044
  989MOL0     C30472  -0.245   7.940  10.296 -0.1492 -0.4187 -0.4710
  989MOL0     C30473  -0.343   7.986  10.377 -0.6148  0.5113  0.4840
  989MOL0     O30474  -0.467   8.014  10.328 -0.0903  0.0467  0.3453
  989MOL0     C30475  -0.461   8.135  10.254 -0.2681  0.5227  0.3009
  989MOL0     C30476  -0.588   8.207  10.275  0.1110  0.1563  0.6991
  989MOL0     C30477  -0.591   8.333  10.189  0.6632  0.3070  0.3747
  989MOL0     C30478  -0.725   8.373  10.128 -0.9611 -0.1336 -0.5807
  989MOL0     C30479  -0.824   8.419  10.234 -0.0904 -0.8764  0.3023
  989MOL0     C30480  -0.897   8.477  10.310  0.8950 -0.1325  0.3027
  989MOL0     C30481  -0.321   8.012  10.503 -0.6070 -0.4110  0.0723
  989MOL0     C30482  -0.198   8.006  10.562 -0.0447 -1.1904  0.0634
  989MOL0     H30483   0.233   7.801  10.659  1.9390 -2.2024  0.9203
  989MOL0     H30484   0.451   7.727  10.697  1.6420 -1.0935 -1.3260
  989MOL0     H30485   0.642   7.587  10.615 -0.0833 -0.1842 -0.8290
  989MOL0     H30486   0.704   7.724  10.721 -0.4171 -0.2687 -0.1349
  989MOL0     H30487   0.831   7.551  10.504 -2.1871  1.1787 -0.3908
  989MOL0     H30488   0.880   7.545  10.672 -0.3969 -1.0748 -0.3487
  989MOL0     H30489   0.956   7.783  10.666  1.6596 -3.4871  2.4163
  989MOL0     H30490   0.934   7.771  10.478  0.2915  0.1908  0.4869
  989MOL0     H30491   1.102   7.606  10.666  0.0285  1.0813  0.7349
  989MOL0     H30492   1.102   7.585  10.491  3.0920 -0.3177  0.5876
  989MOL0     H30493   1.290   7.716  10.595  0.8709  1.4390 -0.0063
  989MOL0     H30494   1.186   7.853  10.625  1.7112  2.0172 -1.3489
  989MOL0     H30495   1.125   7.827  10.356 -0.2214 -2.4766 -2.2815
  989MOL0     H30496   1.234   7.692  10.359 -3.4362 -1.0376  3.3797
  989MOL0     H30497   1.291   7.989  10.395  1.1933  0.5458  0.2757
  989MOL0     H30498   1.424   7.868  10.410 -0.0075  2.0275  0.8971
  989MOL0     H30499   1.256   7.927  10.168  0.9696  0.8152 -3.2926
  989MOL0     H30500   1.375   7.795  10.182  0.5070  0.1962 -1.9207
  989MOL0     H30501   1.335   8.161  10.096  0.3831  0.8777 -1.2521
  989MOL0     H30502   1.628   8.367  10.095 -1.0714  0.1251 -0.6390
  989MOL0     H30503   1.475   8.353  10.022  0.5197  0.9260  0.9883
  989MOL0     H30504   1.594   8.222   9.827  1.7127 -0.9322 -0.6069
  989MOL0     H30505   1.726   8.187   9.914 -3.0689 -2.2408  0.8375
  989MOL0     H30506   1.784   8.433   9.937 -0.7114 -2.3347  0.3535
  989MOL0     H30507   1.797   8.372   9.784  0.6414 -4.6308  3.6259
  989MOL0     H30508   1.556   8.535   9.887  0.3455 -0.3690 -0.6319
  989MOL0     H30509   1.572   8.482   9.715 -1.6543  2.1592 -0.3989
  989MOL0     H30510   1.794   8.886   9.829  0.2533 -0.4579  0.8753
  989MOL0     H30511   1.674   9.097   9.844 -1.3330  0.6866  1.8963
  989MOL0     H30512   1.517   9.388   9.556 -0.5594 -0.6074  0.7374
  989MOL0     H30513   1.467   9.625   9.538 -1.1134  0.3862 -0.4272
  989MOL0     H30514   1.305   9.943   9.612  0.3774  0.5654  2.0444
  989MOL0     H30515   1.345   9.789   9.536 -0.0520 -2.3100  0.7938
  989MOL0     H30516   1.574   9.819   9.663  0.9596  2.2899  2.3242
  989MOL0     H30517   1.531   9.983   9.697 -1.6074  2.0520 -2.1870
  989MOL0     H30518   1.538   9.880   9.399 -2.3341  0.0203  0.1580
  989MOL0     H30519   1.683   9.928   9.483  0.3087  0.8654 -1.1116
  989MOL0     H30520   1.448  10.116   9.457  1.0620  1.2761  4.5641
  989MOL0     H30521   1.600  10.158   9.516 -3.0561  1.2479  0.5347
  989MOL0     H30522   1.543  10.086   9.234 -1.0897  0.4278  1.4801
  989MOL0     H30523   1.711  10.109   9.306  1.2260  1.8200 -0.1866
  989MOL0     H30524   1.668  10.324   9.381 -1.4507 -0.4364  0.3315
  989MOL0     H30525   1.502  10.329   9.321 -0.6452  0.2481 -0.3581
  989MOL0     H30526   1.566  10.301   9.085  0.2984  1.0144  0.5952
  989MOL0     H30527   1.617  10.448   9.154 -0.5335  0.0996  0.7394
  989MOL0     H30528   1.791  10.339   9.011  0.7047 -1.5694 -0.8017
  989MOL0     H30529   1.819  10.213   9.140  3.1512  1.0976  2.7718
  989MOL0     H30530   1.268   9.611   9.919 -2.3559  0.0324  0.1238
  989MOL0     H30531   1.364   9.390   9.950  2.0045  1.3135 -0.3642
  989MOL0     H30532   1.316   8.907   9.724 -0.4474  1.4933  1.2005
  989MOL0     H30533   1.428   8.681   9.720  2.5774 -3.3116  3.2807
  989MOL0     H30534   0.582   7.908  10.336  1.1850  0.3743  2.0138
  989MOL0     H30535   0.348   7.993  10.303 -2.3329  1.1363  1.6384
  989MOL0     H30536  -0.048   7.868  10.291 -0.4689 -0.7756  0.4285
  989MOL0     H30537  -0.268   7.909  10.195  1.3039 -3.8234  0.0826
  989MOL0     H30538  -0.466   8.107  10.149  2.9722 -1.1090  0.4574
  989MOL0     H30539  -0.375   8.203  10.263  0.8746 -0.8062 -0.1539
  989MOL0     H30540  -0.672   8.147  10.239  2.1832 -1.0070 -2.7683
  989MOL0     H30541  -0.594   8.230  10.381  0.4057  0.6343  0.6159
  989MOL0     H30542  -0.537   8.305  10.098 -2.5469 -3.4578 -0.6364
  989MOL0     H30543  -0.535   8.411  10.242  3.6266  1.0316 -3.4226
  989MOL0     H30544  -0.718   8.454  10.056 -1.3262  0.3124 -0.1205
  989MOL0     H30545  -0.774   8.289  10.078 -1.1565 -1.1825  1.2660
  989MOL0     H30546  -0.952   8.544  10.372 -0.5084  0.5352 -1.5895
  989MOL0     H30547  -0.403   8.042  10.567 -1.2610 -3.9686  1.1163
  989MOL0     H30548  -0.189   8.039  10.665 -0.3550  3.4445 -1.1708
  990MOL0     O30549   4.547   0.658   5.657  0.5020  0.5637  0.6006
  990MOL0     C30550   4.624   0.561   5.657  0.6220  0.4989 -0.4007
  990MOL0     O30551   4.591   0.428   5.663 -0.1263 -0.1473 -0.4685
  990MOL0     C30552   4.463   0.393   5.684 -0.7952 -0.3230  0.2879
  990MOL0     C30553   4.366   0.423   5.596  0.2975  0.2164 -0.4912
  990MOL0     C30554   4.236   0.388   5.635 -0.0697 -0.1714 -0.0235
  990MOL0     C30555   4.209   0.318   5.757 -0.0447  0.1421 -0.0535
  990MOL0     O30556   4.081   0.277   5.788  1.2066  0.3153  0.2320
  990MOL0     C30557   4.054   0.163   5.883  0.2163 -0.0408  0.1459
  990MOL0     C30558   3.901   0.140   5.864  0.2017  0.4260 -0.0689
  990MOL0     C30559   3.804   0.254   5.905  0.2603  0.3199  0.0607
  990MOL0     C30560   3.664   0.220   5.860 -0.0740 -0.3031  0.2691
  990MOL0     C30561   3.572   0.348   5.850 -0.4950  0.6847  0.0984
  990MOL0     C30562   3.438   0.298   5.785 -0.4578  0.5560  0.5489
  990MOL0     C30563   3.356   0.424   5.751 -1.0167  0.8080  0.1133
  990MOL0     C30564   3.247   0.392   5.649  0.1475 -0.0755 -0.1738
  990MOL0     N30565   3.147   0.496   5.643 -0.4658 -0.5876 -0.1317
  990MOL0     C30566   3.172   0.626   5.591 -0.2585 -1.1467  0.4866
  990MOL0     C30567   3.051   0.686   5.562 -0.0486  0.5104 -0.8274
  990MOL0     C30568   3.026   0.813   5.497 -1.0088 -0.6440 -0.1963
  990MOL0     C30569   2.956   0.919   5.588 -1.0550  0.4840 -0.4041
  990MOL0     C30570   2.925   1.041   5.507 -0.2395  0.3197 -0.1144
  990MOL0     C30571   2.809   1.120   5.568  0.2007  0.7285  0.3586
  990MOL0     O30572   2.798   1.255   5.516 -0.2008  0.6600  0.5041
  990MOL0     C30573   2.682   1.280   5.456  0.1389 -0.5413  0.4316
  990MOL0     C30574   2.569   1.295   5.535 -0.2241 -0.2687 -0.4990
  990MOL0     C30575   2.446   1.334   5.478 -0.0784 -0.0465  0.8129
  990MOL0     C30576   2.428   1.360   5.336 -0.1464 -0.1861 -0.3652
  990MOL0     C30577   2.301   1.396   5.277 -0.4548  0.6319 -0.2888
  990MOL0     O30578   2.291   1.408   5.138 -0.6304  0.3856 -0.0989
  990MOL0     C30579   2.181   1.462   5.072  0.2053  0.2797  0.1533
  990MOL0     C30580   2.199   1.570   4.978 -0.6701  0.5588  1.0248
  990MOL0     C30581   2.086   1.643   4.936 -0.8379 -0.5058  0.6230
  990MOL0     C30582   1.951   1.597   4.961 -0.0110 -1.1467 -0.4120
  990MOL0     O30583   1.840   1.665   4.925 -0.4498  0.2022 -0.4629
  990MOL0     C30584   1.844   1.771   4.833  0.1552  0.1513  0.4518
  990MOL0     C30585   1.707   1.804   4.777 -0.0423  0.8341 -0.0407
  990MOL0     C30586   1.605   1.834   4.890  0.3538 -0.1514 -0.1635
  990MOL0     C30587   1.474   1.884   4.833  0.7034  0.2976 -0.8029
  990MOL0     C30588   1.368   1.899   4.947  0.0506  0.2775  0.8890
  990MOL0     C30589   1.399   2.015   5.053  0.5395  0.4827 -1.1145
  990MOL0     C30590   1.377   2.151   4.970  0.0602  0.0096 -0.4985
  990MOL0     C30591   1.384   2.270   5.061  0.4376 -0.1847  0.0451
  990MOL0    Cl30592   1.248   2.262   5.184 -0.1163 -0.1127  0.2718
  990MOL0     C30593   1.937   1.489   5.040  0.3168  0.3278 -0.4497
  990MOL0     C30594   2.044   1.422   5.090 -0.4202 -0.2034  0.3190
  990MOL0     O30595   2.211   1.419   5.359  0.4725  0.7232 -0.1003
  990MOL0     C30596   2.545   1.339   5.264  0.3802  0.1407  0.4459
  990MOL0     C30597   2.667   1.296   5.314  0.3961  0.0034  0.1665
  990MOL0     N30598   2.957   0.591   5.585 -0.0842  1.1175  0.6363
  990MOL0     N30599   3.013   0.480   5.629 -0.6846 -0.6142  0.1599
  990MOL0     C30600   4.318   0.287   5.840 -0.7582 -0.6404  0.0168
  990MOL0     C30601   4.444   0.334   5.807 -0.0804 -0.0550  0.5962
  990MOL0     C30602   4.760   0.596   5.649  0.5324  0.4523 -0.9311
  990MOL0     C30603   4.850   0.501   5.594  0.3276  0.6682 -0.9638
  990MOL0     C30604   4.978   0.537   5.600  0.2242  0.4656 -0.4017
  990MOL0     C30605   5.033   0.659   5.643  0.4810  0.2800 -1.3538
  990MOL0     O30606   5.169   0.684   5.648  1.0765 -0.2506 -0.0986
  990MOL0     C30607   5.238   0.684   5.779 -0.8980 -0.7494  0.4616
  990MOL0     C30608   5.274   0.832   5.803  0.7389 -0.2465 -0.5763
  990MOL0     C30609   5.326   0.858   5.952  0.9618  0.3111  0.8583
  990MOL0     C30610   5.301   1.002   6.013 -0.3477 -0.4595  0.4904
  990MOL0     C30611   5.364   0.988   6.142  0.9239  0.4341  0.2866
  990MOL0     C30612   5.424   1.004   6.243  0.0387  0.1969 -0.3469
  990MOL0     C30613   4.941   0.753   5.688  0.2371  0.0954 -0.7274
  990MOL0     C30614   4.804   0.716   5.700  0.1237  0.2926  0.0370
  990MOL0     H30615   4.381   0.471   5.500  1.9971 -2.6012 -1.7961
  990MOL0     H30616   4.144   0.417   5.584  0.3903  0.2830 -0.6055
  990MOL0     H30617   4.075   0.193   5.986 -3.4424  1.6197  0.5802
  990MOL0     H30618   4.100   0.074   5.840 -1.8948 -1.1775  0.1214
  990MOL0     H30619   3.875   0.045   5.913 -0.2886  0.7910  0.3897
  990MOL0     H30620   3.884   0.126   5.757 -1.4036  1.7384 -0.0235
  990MOL0     H30621   3.848   0.345   5.863 -0.4731 -0.3287 -2.2574
  990MOL0     H30622   3.795   0.274   6.012 -0.9821 -1.6623  0.3927
  990MOL0     H30623   3.676   0.187   5.756 -1.1486  1.3037 -0.3999
  990MOL0     H30624   3.622   0.138   5.919  1.5494 -0.7859  0.8090
  990MOL0     H30625   3.630   0.424   5.796  2.8058 -2.5894 -1.4022
  990MOL0     H30626   3.556   0.395   5.947 -5.6202  2.2530 -1.1989
  990MOL0     H30627   3.388   0.222   5.846  0.6558 -0.8239 -0.1872
  990MOL0     H30628   3.460   0.246   5.691 -0.3175 -2.2865  2.0345
  990MOL0     H30629   3.302   0.460   5.839 -3.0012 -1.8083  0.0884
  990MOL0     H30630   3.419   0.505   5.713 -1.1877  1.3551  0.9754
  990MOL0     H30631   3.191   0.305   5.687 -1.4567  1.6503  1.6448
  990MOL0     H30632   3.293   0.366   5.554  0.6404  0.3824 -0.0602
  990MOL0     H30633   3.252   0.681   5.544 -2.2614  2.1756  0.5918
  990MOL0     H30634   2.956   0.788   5.418 -0.2378 -0.8671 -0.8215
  990MOL0     H30635   3.119   0.851   5.454 -0.7215  0.6911  1.5020
  990MOL0     H30636   3.038   0.948   5.654 -0.6539  1.4450 -1.2938
  990MOL0     H30637   2.877   0.869   5.645 -1.3574  1.9620  0.4956
  990MOL0     H30638   3.010   1.110   5.511 -0.4952  0.8651 -2.4450
  990MOL0     H30639   2.908   1.021   5.401  4.2980  2.6088 -1.5458
  990MOL0     H30640   2.827   1.143   5.674  1.6164  1.6587 -0.0394
  990MOL0     H30641   2.719   1.065   5.540  0.8931  0.6675 -1.9744
  990MOL0     H30642   2.574   1.281   5.643  0.1678 -1.2985 -0.6335
  990MOL0     H30643   2.363   1.350   5.547  2.1570  3.0560  3.0757
  990MOL0     H30644   2.302   1.594   4.955 -0.5843 -0.6489  0.0350
  990MOL0     H30645   2.095   1.736   4.881 -0.0849 -0.3483  1.0008
  990MOL0     H30646   1.902   1.751   4.742 -1.5344  2.1292 -1.1747
  990MOL0     H30647   1.883   1.862   4.878 -2.3769  0.4741  2.1977
  990MOL0     H30648   1.670   1.716   4.724  0.3211  1.6912 -1.8057
  990MOL0     H30649   1.712   1.893   4.713 -0.9163  2.2816  1.8208
  990MOL0     H30650   1.652   1.920   4.940  0.8175 -0.4319 -0.1135
  990MOL0     H30651   1.593   1.752   4.960 -2.6817  0.7602  0.5482
  990MOL0     H30652   1.482   1.980   4.782 -0.9218 -0.2102 -2.1062
  990MOL0     H30653   1.432   1.803   4.773  0.2517  0.1687 -0.3245
  990MOL0     H30654   1.354   1.804   4.999 -2.1032  1.2568  2.2619
  990MOL0     H30655   1.269   1.918   4.904 -0.1863 -0.7639  0.9616
  990MOL0     H30656   1.501   2.019   5.092 -0.4652 -1.5837  2.2334
  990MOL0     H30657   1.334   2.010   5.141  1.7583  0.6778 -0.1897
  990MOL0     H30658   1.448   2.157   4.887  1.1233  1.5306  0.4717
  990MOL0     H30659   1.280   2.149   4.918 -1.2123  0.9030  1.6934
  990MOL0     H30660   1.370   2.364   5.008 -1.2618  1.1534  2.6558
  990MOL0     H30661   1.478   2.259   5.117 -1.0200 -2.3199  2.2703
  990MOL0     H30662   1.838   1.448   5.054  0.4142 -1.0583 -3.1132
  990MOL0     H30663   2.021   1.330   5.144  2.1701  1.0860  4.0754
  990MOL0     H30664   2.560   1.349   5.157 -0.6846 -0.1240  0.2601
  990MOL0     H30665   2.747   1.275   5.244 -0.3993 -0.2392 -0.6885
  990MOL0     H30666   4.306   0.223   5.926 -3.5808 -0.0773  0.1389
  990MOL0     H30667   4.529   0.310   5.870 -0.1594  4.1556  2.6413
  990MOL0     H30668   4.809   0.412   5.546 -0.1968 -1.1908  2.6409
  990MOL0     H30669   5.053   0.469   5.560  0.0774  0.8332 -1.3376
  990MOL0     H30670   5.331   0.626   5.776 -1.1126 -1.0697 -0.2863
  990MOL0     H30671   5.173   0.643   5.856 -2.7190  2.0902  0.5958
  990MOL0     H30672   5.350   0.853   5.727  2.6384 -2.6817  0.5083
  990MOL0     H30673   5.185   0.893   5.788 -0.4433 -1.4576  1.2056
  990MOL0     H30674   5.433   0.839   5.963  1.4447  2.8063  0.9892
  990MOL0     H30675   5.270   0.784   6.010 -0.5914  1.1389  0.4717
  990MOL0     H30676   5.350   1.076   5.949 -1.6952 -0.3667 -0.4767
  990MOL0     H30677   5.195   1.028   6.025 -0.3408  0.6216 -1.3762
  990MOL0     H30678   5.466   1.017   6.341 -2.3293 -0.1337  0.7827
  990MOL0     H30679   4.981   0.850   5.717  2.1155 -0.3926 -1.5603
  990MOL0     H30680   4.746   0.798   5.740  1.4891  1.8671 -1.0518
  991MOL0     O30681   2.575   0.611  11.053 -0.1254  0.6078 -0.0282
  991MOL0     C30682   2.591   0.630  11.173  0.5048 -0.5363 -0.0555
  991MOL0     O30683   2.501   0.690  11.255 -0.0743  0.3833  0.1258
  991MOL0     C30684   2.386   0.738  11.202 -0.9768  0.1883 -0.0660
  991MOL0     C30685   2.362   0.879  11.199 -0.3050  0.3142 -0.8081
  991MOL0     C30686   2.245   0.932  11.158 -0.0096 -0.2151 -0.3428
  991MOL0     C30687   2.140   0.845  11.103 -1.0323  0.3423 -1.1363
  991MOL0     O30688   2.021   0.891  11.051  0.4128  0.1086  0.2293
  991MOL0     C30689   1.995   1.034  11.038 -0.1707  0.0018 -0.1874
  991MOL0     C30690   1.849   1.058  10.990  0.3047 -0.2487  0.3970
  991MOL0     C30691   1.748   0.963  11.051  0.7899 -0.4087  0.0187
  991MOL0     C30692   1.603   1.011  11.044  0.0541 -0.7152  0.1185
  991MOL0     C30693   1.557   0.991  10.900 -0.4781 -0.5225 -0.3943
  991MOL0     C30694   1.431   1.079  10.869 -0.2904  0.7157 -0.6579
  991MOL0     C30695   1.382   1.048  10.730  0.4466 -0.1114  0.5326
  991MOL0     C30696   1.292   1.158  10.681 -0.1043 -0.3611 -0.5378
  991MOL0     N30697   1.163   1.178  10.748 -0.1558 -0.2482  0.7411
  991MOL0     C30698   1.044   1.123  10.708  0.3922  0.1489  0.3349
  991MOL0     C30699   0.968   1.123  10.816  0.2953 -0.3512 -0.2349
  991MOL0     C30700   0.827   1.053  10.814 -0.5881 -0.3276 -0.7245
  991MOL0     C30701   0.722   1.164  10.794  0.3367  0.8755 -0.2461
  991MOL0     C30702   0.668   1.156  10.649 -0.0219 -0.2735  0.4902
  991MOL0     C30703   0.559   1.252  10.618  0.9936  0.4673  0.4787
  991MOL0     O30704   0.430   1.205  10.665 -0.0404  0.8365  0.8523
  991MOL0     C30705   0.317   1.247  10.610  0.1416  0.1635  0.8726
  991MOL0     C30706   0.213   1.268  10.704  0.4560 -0.5506 -0.2539
  991MOL0     C30707   0.098   1.321  10.651  0.3955  0.7965  0.6689
  991MOL0     C30708   0.081   1.349  10.512  0.0325  0.5860  0.0985
  991MOL0     C30709  -0.056   1.397  10.476  0.6208  0.2721 -0.0099
  991MOL0     O30710  -0.136   1.447  10.583 -0.0446 -0.9089 -0.4155
  991MOL0     C30711  -0.274   1.464  10.570 -0.4840 -0.6232 -0.7002
  991MOL0     C30712  -0.349   1.344  10.562  0.4965  0.1925 -0.5190
  991MOL0     C30713  -0.477   1.351  10.524  0.5195 -0.5948 -0.0641
  991MOL0     C30714  -0.555   1.474  10.508 -0.5236 -0.6068 -0.9895
  991MOL0     O30715  -0.688   1.492  10.477  0.1082  0.0829  0.2990
  991MOL0     C30716  -0.774   1.372  10.479 -0.1933 -0.3684 -0.9287
  991MOL0     C30717  -0.916   1.426  10.454 -0.4880  0.2806 -0.2934
  991MOL0     C30718  -0.953   1.540  10.550 -0.0509 -0.0641 -0.0138
  991MOL0     C30719  -1.106   1.543  10.553  0.0877  0.3756 -0.5488
  991MOL0     C30720  -1.159   1.658  10.634  0.0139 -0.5492 -0.5502
  991MOL0     C30721  -1.301   1.656  10.629  0.5396 -0.0703 -0.1804
  991MOL0     C30722  -1.359   1.784  10.682 -0.7621 -0.6781  0.4846
  991MOL0     C30723  -1.331   1.810  10.826 -0.4662 -0.4781 -0.7666
  991MOL0    Cl30724  -1.405   1.673  10.925 -0.1251 -0.3006 -0.3388
  991MOL0     C30725  -0.480   1.593  10.534  1.2512 -0.3022 -0.4410
  991MOL0     C30726  -0.343   1.593  10.553 -0.0833  0.5077  0.8073
  991MOL0     O30727  -0.101   1.367  10.371 -0.0039  0.5676 -0.6487
  991MOL0     C30728   0.185   1.330  10.424  0.0193 -1.4835  0.3647
  991MOL0     C30729   0.310   1.285  10.475 -0.0544 -0.2023 -0.2942
  991MOL0     N30730   1.031   1.178  10.926  0.2576  0.1584 -0.3103
  991MOL0     N30731   1.141   1.219  10.876  0.1807  0.2107 -0.9497
  991MOL0     C30732   2.164   0.713  11.110 -0.4576  0.6397  0.2993
  991MOL0     C30733   2.283   0.654  11.159  0.2376 -0.3241  0.7768
  991MOL0     C30734   2.729   0.598  11.221  0.3468  0.1997 -0.5030
  991MOL0     C30735   2.779   0.654  11.342  0.9675  0.8057 -0.7561
  991MOL0     C30736   2.910   0.631  11.380 -0.2259  0.3208 -0.1230
  991MOL0     C30737   3.003   0.569  11.300  1.0017  0.7431  0.7655
  991MOL0     O30738   3.140   0.565  11.323 -0.4438  0.3506  0.5887
  991MOL0     C30739   3.179   0.528  11.461  0.3241 -0.3224  0.0348
  991MOL0     C30740   3.329   0.579  11.479  1.0661  0.4439 -0.2938
  991MOL0     C30741   3.370   0.554  11.628  1.2121  0.3308 -0.4087
  991MOL0     C30742   3.512   0.587  11.651  0.4519  1.0145  0.0829
  991MOL0     C30743   3.539   0.570  11.793 -0.2718  0.1631  0.2546
  991MOL0     C30744   3.556   0.569  11.912  0.9109  0.3919  0.3083
  991MOL0     C30745   2.948   0.512  11.181 -0.3462  0.2219  0.5165
  991MOL0     C30746   2.811   0.525  11.140  0.1258 -0.4318  0.2139
  991MOL0     H30747   2.435   0.953  11.231  1.9770 -2.4241  0.8482
  991MOL0     H30748   2.247   1.041  11.160  2.1774 -0.2076 -0.4241
  991MOL0     H30749   2.058   1.081  10.962  2.0189 -3.5894 -0.8237
  991MOL0     H30750   2.016   1.083  11.133 -0.7174 -0.5769  0.2376
  991MOL0     H30751   1.856   1.037  10.883  1.8718 -2.8255  0.9198
  991MOL0     H30752   1.817   1.162  10.989  3.4903  0.8314  0.1305
  991MOL0     H30753   1.766   0.942  11.156 -2.4502  0.4369  0.8384
  991MOL0     H30754   1.748   0.858  11.021  3.8322 -0.1234 -1.4859
  991MOL0     H30755   1.549   0.947  11.114 -1.1408  1.0527  0.8462
  991MOL0     H30756   1.585   1.111  11.083  0.3332 -0.5528 -0.1635
  991MOL0     H30757   1.553   0.882  10.896  2.3100 -0.9367  3.0431
  991MOL0     H30758   1.630   1.015  10.823  1.6769 -2.0110  1.0571
  991MOL0     H30759   1.453   1.185  10.881  1.0638  0.3611  0.1635
  991MOL0     H30760   1.364   1.080  10.956  0.2727 -0.7443 -0.1832
  991MOL0     H30761   1.472   1.050  10.668 -0.3880  1.9700 -0.7362
  991MOL0     H30762   1.333   0.951  10.724 -2.5268  1.2554  0.5790
  991MOL0     H30763   1.280   1.136  10.574 -0.2775  0.4565 -0.6937
  991MOL0     H30764   1.354   1.248  10.685 -2.0970  1.0301  1.1900
  991MOL0     H30765   1.004   1.070  10.622 -0.9836  0.8029  0.5468
  991MOL0     H30766   0.811   1.005  10.911 -1.8160  0.2709 -0.6160
  991MOL0     H30767   0.825   0.977  10.736 -1.2790 -1.8582  0.7329
  991MOL0     H30768   0.775   1.257  10.816  3.0178 -1.2924  3.6085
  991MOL0     H30769   0.646   1.156  10.873  0.9949  3.7006  0.8176
  991MOL0     H30770   0.757   1.187  10.592  1.3359 -0.0225  2.6369
  991MOL0     H30771   0.636   1.055  10.624  0.9508 -0.1661 -1.3828
  991MOL0     H30772   0.565   1.266  10.510 -2.2337  0.0267  0.1411
  991MOL0     H30773   0.592   1.344  10.669 -1.6998  1.6706  0.2290
  991MOL0     H30774   0.231   1.234  10.806 -0.1678 -0.5323 -0.1357
  991MOL0     H30775   0.010   1.336  10.713 -0.4220  1.3278 -0.5804
  991MOL0     H30776  -0.306   1.246  10.579 -1.1925 -0.5561 -0.3441
  991MOL0     H30777  -0.525   1.258  10.493 -0.1837 -0.8158  1.6176
  991MOL0     H30778  -0.786   1.328  10.578  0.9294 -0.8384 -0.9854
  991MOL0     H30779  -0.744   1.298  10.404 -1.6006  0.0482 -1.9284
  991MOL0     H30780  -0.985   1.342  10.466  1.5130 -1.4543 -0.3906
  991MOL0     H30781  -0.938   1.462  10.353 -1.2630  0.0643 -0.2106
  991MOL0     H30782  -0.911   1.635  10.515 -1.9033  0.2534 -1.5282
  991MOL0     H30783  -0.912   1.516  10.649  0.4085 -2.5271 -0.7150
  991MOL0     H30784  -1.147   1.550  10.452  2.5274  0.7617 -1.5944
  991MOL0     H30785  -1.126   1.446  10.599 -3.9509  1.0061 -0.6176
  991MOL0     H30786  -1.124   1.752  10.590 -0.5813  0.6336  1.3734
  991MOL0     H30787  -1.122   1.657  10.737 -2.9001 -2.0118  0.5820
  991MOL0     H30788  -1.336   1.576  10.696  1.1173  0.3186  0.6013
  991MOL0     H30789  -1.338   1.629  10.529  0.9251 -0.0480 -0.3299
  991MOL0     H30790  -1.313   1.869  10.630 -2.3181  0.2791  0.5915
  991MOL0     H30791  -1.468   1.787  10.670 -0.4557 -1.3591 -4.4925
  991MOL0     H30792  -1.380   1.900  10.864  0.6360 -0.3788  0.4810
  991MOL0     H30793  -1.225   1.833  10.838 -0.8168  1.6618 -1.2660
  991MOL0     H30794  -0.521   1.693  10.525 -0.1001 -0.7733  0.1631
  991MOL0     H30795  -0.294   1.689  10.561 -0.3059  0.4853  3.0877
  991MOL0     H30796   0.169   1.337  10.317 -2.0821 -1.0033  0.6605
  991MOL0     H30797   0.394   1.285  10.406 -1.3553  1.6080 -1.9870
  991MOL0     H30798   2.077   0.658  11.077 -2.9051  4.6306 -0.6564
  991MOL0     H30799   2.289   0.546  11.156 -0.3882 -0.3572  0.4382
  991MOL0     H30800   2.711   0.719  11.396 -0.4369 -1.4774  0.3684
  991MOL0     H30801   2.933   0.692  11.467  1.2211  1.7221 -1.4129
  991MOL0     H30802   3.178   0.421  11.485  0.2435  0.1558  2.4851
  991MOL0     H30803   3.110   0.580  11.528 -0.5769  2.0146 -2.5310
  991MOL0     H30804   3.399   0.522  11.416 -0.1783 -1.1781 -0.2855
  991MOL0     H30805   3.340   0.686  11.462  1.8668  1.0658  3.2331
  991MOL0     H30806   3.346   0.451  11.655 -2.3969  0.9693 -0.7106
  991MOL0     H30807   3.314   0.623  11.692 -2.2991 -2.0226 -0.6645
  991MOL0     H30808   3.576   0.516  11.598  0.4560  0.0226  1.3674
  991MOL0     H30809   3.542   0.689  11.626  0.3858  0.2564 -3.7561
  991MOL0     H30810   3.574   0.562  12.018 -1.1076  1.8072  0.8088
  991MOL0     H30811   3.022   0.473  11.112 -1.0962 -2.4560  1.1073
  991MOL0     H30812   2.773   0.500  11.041 -1.0212 -0.1305  0.5693
  992MOL0     O30813   0.237   9.742   4.309 -0.5775  0.5602  0.2827
  992MOL0     C30814   0.202   9.685   4.210 -0.0370  0.4000  0.9260
  992MOL0     O30815   0.079   9.620   4.192 -0.1623 -0.0786 -0.4238
  992MOL0     C30816  -0.008   9.655   4.295 -0.1826 -0.1782  0.7181
  992MOL0     C30817  -0.051   9.554   4.385 -0.2195 -0.1480  0.6431
  992MOL0     C30818  -0.165   9.576   4.466  0.7421  1.0487  0.5711
  992MOL0     C30819  -0.249   9.686   4.443 -0.5239  0.2549 -0.4750
  992MOL0     O30820  -0.363   9.698   4.521 -0.4396 -0.1150 -0.4957
  992MOL0     C30821  -0.444   9.811   4.507  0.7774  0.0330 -0.1742
  992MOL0     C30822  -0.538   9.779   4.388 -0.2559  0.1496 -0.8865
  992MOL0     C30823  -0.658   9.873   4.370 -0.2196  0.2835 -0.0767
  992MOL0     C30824  -0.639  10.025   4.413 -0.4559 -0.5446 -0.1534
  992MOL0     C30825  -0.769  10.103   4.387 -0.3892 -0.0083  0.3254
  992MOL0     C30826  -0.882  10.050   4.481  0.6197 -0.2898  0.8210
  992MOL0     C30827  -1.008  10.144   4.460 -0.7374  0.0794 -0.5484
  992MOL0     C30828  -1.125  10.096   4.553 -0.7597  0.4831  0.3393
  992MOL0     N30829  -1.244  10.182   4.529  0.1871  0.1549  0.2823
  992MOL0     C30830  -1.369  10.138   4.495 -0.1242  0.5365  0.7762
  992MOL0     C30831  -1.450  10.242   4.513 -0.1878 -0.0730  0.5416
  992MOL0     C30832  -1.594  10.262   4.479 -0.8539  0.7875 -1.0493
  992MOL0     C30833  -1.664  10.130   4.511  1.1063 -0.2753  0.6046
  992MOL0     C30834  -1.818  10.124   4.478 -0.4857 -0.4306  0.3607
  992MOL0     C30835  -1.908  10.057   4.573 -0.3049  0.5034  0.5495
  992MOL0     O30836  -1.892  10.110   4.705  0.2714  0.1933 -0.6774
  992MOL0     C30837  -1.990  10.076   4.801  0.4090 -0.8146 -0.7281
  992MOL0     C30838  -1.980  10.153   4.923 -0.1749  0.2580 -0.2653
  992MOL0     C30839  -2.075  10.141   5.026  0.2882 -0.0369  0.0564
  992MOL0     C30840  -2.168  10.039   5.016  0.7833  0.2159 -0.2319
  992MOL0     C30841  -2.262  10.021   5.124  0.5601  0.4211 -0.0348
  992MOL0     O30842  -2.224  10.030   5.253  0.3940 -1.5734 -0.4583
  992MOL0     C30843  -2.329  10.053   5.346  0.3206 -1.0055 -0.2996
  992MOL0     C30844  -2.319   9.983   5.463  0.7149  0.7102 -0.0174
  992MOL0     C30845  -2.409  10.014   5.568 -0.4011 -0.3701 -0.3472
  992MOL0     C30846  -2.522  10.093   5.544  0.1156  0.6532  0.0363
  992MOL0     O30847  -2.628  10.097   5.628  0.7395 -0.4206 -0.7857
  992MOL0     C30848  -2.726   9.994   5.599 -1.0904  0.0629  0.4135
  992MOL0     C30849  -2.841  10.000   5.701  0.2163  0.6122 -0.8647
  992MOL0     C30850  -2.935  10.109   5.654 -0.3382 -0.6141 -0.8947
  992MOL0     C30851  -3.051  10.136   5.746  1.0424  0.0124 -0.3755
  992MOL0     C30852  -3.153  10.246   5.697 -1.1221 -0.3980  0.5323
  992MOL0     C30853  -3.239  10.195   5.581  0.0373  0.3714  0.9019
  992MOL0     C30854  -3.326  10.305   5.514 -1.0417 -0.2322 -0.4981
  992MOL0     C30855  -3.332  10.288   5.364  0.4648  0.6293  0.3684
  992MOL0    Cl30856  -3.173  10.334   5.289  0.1415 -0.2015 -0.0019
  992MOL0     C30857  -2.530  10.168   5.423  0.6325 -1.0806  0.3944
  992MOL0     C30858  -2.427  10.156   5.327  0.4109  0.2963 -0.2786
  992MOL0     O30859  -2.369   9.972   5.084  0.1001  0.0064  0.3730
  992MOL0     C30860  -2.169   9.953   4.900 -0.1294  0.1219 -0.0063
  992MOL0     C30861  -2.085   9.971   4.787 -0.3026  0.3715  0.9749
  992MOL0     N30862  -1.372  10.355   4.535 -0.1621  0.1130  0.9818
  992MOL0     N30863  -1.247  10.321   4.542  0.0752 -0.1311 -0.0499
  992MOL0     C30864  -0.196   9.796   4.359  0.4040  0.5339 -0.9499
  992MOL0     C30865  -0.078   9.776   4.286 -0.5530  0.4486 -0.6053
  992MOL0     C30866   0.305   9.677   4.101  0.1475 -0.1450 -0.2157
  992MOL0     C30867   0.439   9.687   4.142 -0.1262  0.7993  0.3027
  992MOL0     C30868   0.544   9.659   4.050  0.1874 -0.3889  0.4132
  992MOL0     C30869   0.513   9.604   3.921 -0.0469 -0.3338 -0.1368
  992MOL0     O30870   0.626   9.562   3.858 -0.1383  0.1653 -0.4636
  992MOL0     C30871   0.608   9.490   3.727 -0.1384 -0.1323  0.1750
  992MOL0     C30872   0.745   9.426   3.688  0.7053  0.4241  0.0115
  992MOL0     C30873   0.821   9.346   3.804 -0.0640 -0.4219  0.2823
  992MOL0     C30874   0.940   9.275   3.739  0.9141  0.1639 -0.0231
  992MOL0     C30875   1.026   9.358   3.661 -0.0256 -0.1065  0.4311
  992MOL0     C30876   1.079   9.436   3.590  0.2351  0.8119 -0.1104
  992MOL0     C30877   0.376   9.587   3.883 -0.2356  0.4194  0.0058
  992MOL0     C30878   0.278   9.635   3.971 -0.7941 -0.0316 -0.1237
  992MOL0     H30879   0.011   9.466   4.378  0.3438  0.3664 -2.7787
  992MOL0     H30880  -0.208   9.513   4.544 -1.8412 -0.2936 -1.7501
  992MOL0     H30881  -0.391   9.905   4.491  2.9917 -1.3934 -1.8413
  992MOL0     H30882  -0.502   9.829   4.598  1.7203  0.8230  0.2768
  992MOL0     H30883  -0.577   9.677   4.395 -1.8614  0.8473  1.1692
  992MOL0     H30884  -0.487   9.776   4.291  2.9579  0.1188  0.6691
  992MOL0     H30885  -0.736   9.827   4.432 -2.1322  1.9317 -1.1376
  992MOL0     H30886  -0.696   9.858   4.269 -1.7808 -1.6625  0.7245
  992MOL0     H30887  -0.620  10.035   4.520  2.8288 -1.4107 -0.5589
  992MOL0     H30888  -0.559  10.075   4.356 -1.2155  1.1110  0.1650
  992MOL0     H30889  -0.799  10.085   4.283 -2.3599  1.6415  0.5342
  992MOL0     H30890  -0.755  10.210   4.407 -2.0448 -0.0755  2.1102
  992MOL0     H30891  -0.847  10.040   4.584  0.1432  1.5775  1.2069
  992MOL0     H30892  -0.910   9.954   4.437  1.3315  0.4713 -1.4267
  992MOL0     H30893  -0.978  10.247   4.483  1.2796 -0.6434  0.3463
  992MOL0     H30894  -1.054  10.135   4.362 -1.6210 -3.0274  0.0372
  992MOL0     H30895  -1.082  10.116   4.652  1.1963 -0.5821 -0.2247
  992MOL0     H30896  -1.152   9.991   4.535 -1.4782 -0.0736  3.8890
  992MOL0     H30897  -1.401  10.037   4.475 -1.3034  0.7790  1.3330
  992MOL0     H30898  -1.615  10.300   4.379  0.0635  0.5467 -1.3411
  992MOL0     H30899  -1.636  10.334   4.550  0.8439  1.7978 -1.0193
  992MOL0     H30900  -1.662  10.111   4.619 -2.1795  1.9890  1.2196
  992MOL0     H30901  -1.629  10.049   4.446 -0.8988  0.0290 -0.9515
  992MOL0     H30902  -1.846  10.230   4.475  4.2250  1.0314 -0.0672
  992MOL0     H30903  -1.841  10.083   4.380 -1.6381  0.4505  0.2314
  992MOL0     H30904  -1.880   9.951   4.582  2.5524  1.2611  1.8178
  992MOL0     H30905  -2.005  10.068   4.525  0.2270  1.8049 -0.2679
  992MOL0     H30906  -1.899  10.225   4.928 -0.3288  0.4705 -0.7046
  992MOL0     H30907  -2.066  10.207   5.112  1.5730  1.9037 -1.4793
  992MOL0     H30908  -2.244   9.909   5.490 -0.0882 -1.3928 -3.0916
  992MOL0     H30909  -2.417   9.959   5.661 -3.9331  0.6922  0.1284
  992MOL0     H30910  -2.688   9.893   5.616 -3.6507 -1.4596 -2.0747
  992MOL0     H30911  -2.768  10.009   5.499 -1.7469  2.4915  0.9887
  992MOL0     H30912  -2.806  10.015   5.803  0.3876  1.8608 -1.0967
  992MOL0     H30913  -2.902   9.909   5.698  1.0785 -0.0727  0.7036
  992MOL0     H30914  -2.973  10.072   5.558  1.5655 -2.3801 -1.0337
  992MOL0     H30915  -2.886  10.204   5.633  0.8315 -1.0961 -0.4013
  992MOL0     H30916  -3.111  10.044   5.741 -0.3875  0.8536  0.5683
  992MOL0     H30917  -3.019  10.157   5.848 -0.7639  0.4726  0.1485
  992MOL0     H30918  -3.088  10.331   5.673 -0.5238 -0.7912  0.7280
  992MOL0     H30919  -3.217  10.277   5.779  0.8818  2.0255  1.3118
  992MOL0     H30920  -3.297  10.110   5.619 -1.3162  1.5249  1.5323
  992MOL0     H30921  -3.174  10.156   5.503 -0.7350  1.7682 -0.4926
  992MOL0     H30922  -3.428  10.297   5.554 -1.1414  2.8206  0.0424
  992MOL0     H30923  -3.283  10.404   5.529  0.6510 -1.1270  1.1108
  992MOL0     H30924  -3.414  10.339   5.311 -0.0025 -1.9003 -1.5525
  992MOL0     H30925  -3.360  10.183   5.349  0.5732  0.7444 -0.7307
  992MOL0     H30926  -2.614  10.237   5.416 -0.7503 -2.6187  1.0627
  992MOL0     H30927  -2.415  10.214   5.236 -0.8433 -1.0238 -1.3237
  992MOL0     H30928  -2.244   9.875   4.902  0.0490 -0.1250 -1.4201
  992MOL0     H30929  -2.086   9.904   4.701 -2.6689  1.5614 -0.0305
  992MOL0     H30930  -0.252   9.885   4.333  2.1503  1.9166 -0.1117
  992MOL0     H30931  -0.043   9.860   4.226 -3.4430  1.2887 -1.3124
  992MOL0     H30932   0.463   9.705   4.246 -1.9355 -1.7353  1.2827
  992MOL0     H30933   0.647   9.682   4.074  0.4935 -1.5530  0.2792
  992MOL0     H30934   0.572   9.566   3.657 -0.4250 -0.3083  0.1296
  992MOL0     H30935   0.530   9.414   3.739 -1.9750  1.4018 -1.3963
  992MOL0     H30936   0.735   9.354   3.607 -0.9116 -0.8451  1.2551
  992MOL0     H30937   0.810   9.509   3.659  0.1036 -0.0515 -3.0155
  992MOL0     H30938   0.757   9.274   3.856  2.8236 -1.6371  2.3704
  992MOL0     H30939   0.853   9.412   3.885 -0.9717 -0.3467  0.5967
  992MOL0     H30940   0.988   9.208   3.812  1.0977  1.6918  1.3090
  992MOL0     H30941   0.890   9.204   3.673  0.8690 -0.8525  1.0552
  992MOL0     H30942   1.125   9.523   3.547  1.5810  0.3306  0.2769
  992MOL0     H30943   0.346   9.547   3.786 -1.5661 -1.5293  1.1307
  992MOL0     H30944   0.176   9.620   3.939 -1.1894  2.8780 -0.5409
  993MOL0     O30945   5.676   8.864   7.006  0.2413  0.7622  0.0816
  993MOL0     C30946   5.699   8.941   6.910 -0.6646  0.3815 -0.6732
  993MOL0     O30947   5.615   9.017   6.840  1.1763 -0.0145  0.3279
  993MOL0     C30948   5.483   9.046   6.856  0.2859 -0.8850 -1.4137
  993MOL0     C30949   5.408   9.015   6.965 -0.2463  0.0710  0.3014
  993MOL0     C30950   5.265   9.043   6.981 -0.3238  0.9518  0.9485
  993MOL0     C30951   5.206   9.120   6.885 -0.3475  0.8081 -0.1451
  993MOL0     O30952   5.078   9.163   6.890  0.1411  0.4595  0.8256
  993MOL0     C30953   4.973   9.073   6.938 -0.6911 -0.3226 -0.6753
  993MOL0     C30954   4.843   9.082   6.869 -0.3476  0.6197  0.5164
  993MOL0     C30955   4.732   9.027   6.951  0.3734  0.2430 -0.4296
  993MOL0     C30956   4.606   9.022   6.871  0.2605 -0.6865  0.6041
  993MOL0     C30957   4.507   8.911   6.904 -0.0579  0.1536  0.2797
  993MOL0     C30958   4.393   8.906   6.802 -0.0200 -0.6106  0.7366
  993MOL0     C30959   4.308   9.037   6.808  0.3491 -0.3333 -1.1118
  993MOL0     C30960   4.160   9.017   6.783  0.3936 -0.0188 -0.1504
  993MOL0     N30961   4.110   9.010   6.643 -0.5424 -1.0337  0.7364
  993MOL0     C30962   3.998   9.073   6.603 -0.3059 -0.7480 -0.3673
  993MOL0     C30963   3.969   9.020   6.490  0.3952 -0.0985  0.3329
  993MOL0     C30964   3.849   9.042   6.394 -0.3907  0.1164 -0.7904
  993MOL0     C30965   3.873   9.172   6.308 -0.3187  0.0916 -0.7765
  993MOL0     C30966   3.772   9.179   6.184 -0.8457  0.4910 -0.0199
  993MOL0     C30967   3.629   9.202   6.236 -0.2641 -0.0062  0.6281
  993MOL0     O30968   3.624   9.333   6.307 -0.0684 -0.3107  0.8147
  993MOL0     C30969   3.508   9.413   6.292  0.8208  0.2374  0.9032
  993MOL0     C30970   3.384   9.370   6.258 -0.0792  0.3803 -0.5913
  993MOL0     C30971   3.273   9.462   6.249 -0.1305 -0.2522  0.1864
  993MOL0     C30972   3.292   9.600   6.266  0.1704  0.2158  0.6834
  993MOL0     C30973   3.178   9.690   6.252  0.0159 -0.4307 -0.6458
  993MOL0     O30974   3.055   9.631   6.263  0.0248  0.0262 -0.6203
  993MOL0     C30975   2.951   9.704   6.318 -0.0771  0.4516  0.2645
  993MOL0     C30976   2.977   9.803   6.420  0.0177 -0.2129  0.2940
  993MOL0     C30977   2.868   9.876   6.474 -0.1274  0.2631  0.3361
  993MOL0     C30978   2.737   9.852   6.430 -0.1826  0.6074 -0.2567
  993MOL0     O30979   2.631   9.922   6.475  0.5904  0.1473 -0.2883
  993MOL0     C30980   2.630  10.058   6.435  0.8466 -0.3535  0.5440
  993MOL0     C30981   2.492  10.092   6.376  0.0258 -0.0570 -0.0808
  993MOL0     C30982   2.454  10.037   6.242  0.2588  0.1249  0.0003
  993MOL0     C30983   2.330  10.099   6.181 -0.0144 -1.1287 -0.0078
  993MOL0     C30984   2.199  10.077   6.263 -0.4521  0.4323 -0.1525
  993MOL0     C30985   2.080  10.112   6.170 -0.1407 -0.0846 -0.1025
  993MOL0     C30986   1.962  10.140   6.263 -0.0750 -0.1176  0.0108
  993MOL0     C30987   1.849  10.191   6.175 -0.3867  0.2237  0.4466
  993MOL0    Cl30988   1.872  10.347   6.101  0.2436  0.1217 -0.0879
  993MOL0     C30989   2.716   9.742   6.335 -0.2828  0.2972 -0.2834
  993MOL0     C30990   2.822   9.665   6.279 -0.4706  0.6426  0.2285
  993MOL0     O30991   3.198   9.810   6.234  1.0638  0.3704 -0.3665
  993MOL0     C30992   3.424   9.641   6.275 -0.0636 -0.2782  0.2305
  993MOL0     C30993   3.525   9.550   6.297 -0.0702  0.6271 -0.1685
  993MOL0     N30994   4.076   8.934   6.451  0.3279  0.4496  0.0027
  993MOL0     N30995   4.161   8.936   6.544 -0.0304 -0.6690 -0.8463
  993MOL0     C30996   5.279   9.150   6.771  0.3175 -0.5106 -0.3070
  993MOL0     C30997   5.411   9.116   6.754 -0.9642 -0.6312 -0.4695
  993MOL0     C30998   5.842   8.959   6.888 -1.0029 -0.3789  0.4711
  993MOL0     C30999   5.888   9.067   6.798  0.6104 -0.5135 -0.8867
  993MOL0     C31000   6.018   9.110   6.782 -0.8597 -0.0113  0.9274
  993MOL0     C31001   6.113   9.041   6.865 -1.0919 -0.8149  1.4457
  993MOL0     O31002   6.249   9.063   6.878  0.1295  0.3361 -0.2290
  993MOL0     C31003   6.301   9.190   6.826  0.0547  0.1701  0.3019
  993MOL0     C31004   6.315   9.177   6.670  0.5459  0.0892 -0.0654
  993MOL0     C31005   6.418   9.073   6.629  0.1104  0.0397 -0.8152
  993MOL0     C31006   6.454   9.067   6.481 -0.4134 -0.9527 -0.1034
  993MOL0     C31007   6.347   9.025   6.396  0.6011  0.5286  1.2317
  993MOL0     C31008   6.249   9.001   6.328  0.2377 -0.1043 -0.2628
  993MOL0     C31009   6.072   8.943   6.943 -0.3966 -0.3437 -1.0253
  993MOL0     C31010   5.945   8.900   6.967  0.0578 -0.5855  0.3877
  993MOL0     H31011   5.452   8.972   7.054 -0.7391 -1.0437  0.0189
  993MOL0     H31012   5.206   9.025   7.070  0.5123  3.3174  2.0593
  993MOL0     H31013   4.971   9.097   7.045  2.1518  1.3112 -0.8943
  993MOL0     H31014   5.013   8.973   6.924 -0.4526 -0.1473 -1.3112
  993MOL0     H31015   4.851   9.025   6.776  2.1088 -2.2541  2.3260
  993MOL0     H31016   4.834   9.189   6.846  2.0268  1.0216  1.1477
  993MOL0     H31017   4.708   9.082   7.042  0.1480 -0.3771 -0.1017
  993MOL0     H31018   4.750   8.922   6.977 -1.7799 -0.7224 -2.4486
  993MOL0     H31019   4.557   9.119   6.886 -1.7679 -2.0777  4.5761
  993MOL0     H31020   4.634   9.015   6.766 -1.9691  0.2853 -0.1251
  993MOL0     H31021   4.470   8.939   7.003  0.0655 -1.5749  0.8637
  993MOL0     H31022   4.547   8.810   6.918 -0.9065 -0.5208 -1.7379
  993MOL0     H31023   4.328   8.818   6.811  1.6480 -2.1868 -1.5326
  993MOL0     H31024   4.428   8.910   6.699 -1.5484  0.3282  0.2137
  993MOL0     H31025   4.310   9.083   6.907 -0.6844 -1.9711 -0.2891
  993MOL0     H31026   4.347   9.107   6.733  0.0404  0.2403 -0.7469
  993MOL0     H31027   4.114   9.106   6.826  1.1306  0.2870  0.0261
  993MOL0     H31028   4.130   8.922   6.827 -2.4978 -1.0333 -3.8342
  993MOL0     H31029   3.932   9.146   6.649 -0.0748 -0.1521 -0.9603
  993MOL0     H31030   3.763   9.059   6.460 -1.0464 -0.9325 -1.3419
  993MOL0     H31031   3.825   8.960   6.325  0.3547  1.5099 -2.7975
  993MOL0     H31032   3.980   9.178   6.282 -0.6888  2.6473 -2.0683
  993MOL0     H31033   3.865   9.253   6.381  3.5190  2.1210 -2.3280
  993MOL0     H31034   3.797   9.270   6.129 -1.1787  1.7953  1.8816
  993MOL0     H31035   3.779   9.090   6.121 -2.9611 -1.1616  1.8857
  993MOL0     H31036   3.606   9.119   6.303 -0.0243 -0.5974  0.0015
  993MOL0     H31037   3.559   9.193   6.152  1.2936 -2.8170 -0.5062
  993MOL0     H31038   3.367   9.264   6.244  3.8629 -0.6457  1.0998
  993MOL0     H31039   3.173   9.428   6.228  0.1149 -1.0424  0.2750
  993MOL0     H31040   3.075   9.822   6.461  0.6027  3.3219 -2.2840
  993MOL0     H31041   2.872   9.955   6.549  2.3729  0.7501 -0.2316
  993MOL0     H31042   2.702  10.085   6.358 -0.4519 -0.7221 -0.8447
  993MOL0     H31043   2.649  10.126   6.519  4.9287  2.1937 -2.0844
  993MOL0     H31044   2.478  10.200   6.367 -0.2918 -0.1532 -0.8008
  993MOL0     H31045   2.415  10.058   6.447 -1.5282 -1.1311 -2.1745
  993MOL0     H31046   2.449   9.928   6.251  0.8232 -0.2813 -3.2406
  993MOL0     H31047   2.546  10.060   6.188 -1.2932  3.3764 -1.5666
  993MOL0     H31048   2.361  10.203   6.173  1.8393 -1.6476  0.1213
  993MOL0     H31049   2.311  10.051   6.084  0.9366  0.0400 -0.8015
  993MOL0     H31050   2.207  10.144   6.348  1.9420 -2.8011  2.4569
  993MOL0     H31051   2.205   9.974   6.300  3.1527  1.5258  2.9018
  993MOL0     H31052   2.070  10.030   6.099  0.6279  1.3564 -1.9650
  993MOL0     H31053   2.099  10.200   6.107 -0.3563 -1.2731 -1.8892
  993MOL0     H31054   1.932  10.052   6.322  1.6822 -0.4480  0.4815
  993MOL0     H31055   1.989  10.206   6.346  2.4260 -1.4473  0.3473
  993MOL0     H31056   1.757  10.197   6.234 -4.1223 -3.9297 -4.0459
  993MOL0     H31057   1.812  10.113   6.107 -2.3007 -0.0014  1.6532
  993MOL0     H31058   2.613   9.719   6.310 -0.1821  0.7635 -1.1712
  993MOL0     H31059   2.805   9.593   6.200  1.2871  2.1756 -1.6552
  993MOL0     H31060   3.449   9.747   6.271 -0.2516 -0.2433 -0.0219
  993MOL0     H31061   3.625   9.585   6.322  0.8155 -0.8613 -1.4174
  993MOL0     H31062   5.238   9.221   6.699 -2.0217  0.2359  1.6194
  993MOL0     H31063   5.460   9.148   6.663 -1.4855  1.9478  0.0811
  993MOL0     H31064   5.823   9.141   6.751 -1.8008 -0.9837  1.4601
  993MOL0     H31065   6.041   9.193   6.715  3.5949 -1.5253  0.2958
  993MOL0     H31066   6.398   9.207   6.873 -0.8318  0.1360  2.2221
  993MOL0     H31067   6.235   9.273   6.850 -0.9156 -1.5697  4.5827
  993MOL0     H31068   6.226   9.140   6.620  1.8764 -0.5195 -2.1150
  993MOL0     H31069   6.343   9.274   6.629 -0.3465  0.6905  0.7072
  993MOL0     H31070   6.383   8.972   6.649  1.3901 -0.8434 -2.7714
  993MOL0     H31071   6.498   9.077   6.704 -2.1520 -0.0271  1.7299
  993MOL0     H31072   6.494   9.162   6.445 -1.4072 -0.1479  0.8760
  993MOL0     H31073   6.539   9.000   6.464 -0.6280 -0.9039 -1.5268
  993MOL0     H31074   6.157   8.993   6.274  0.0591 -1.0951  0.1597
  993MOL0     H31075   6.137   8.885   7.007 -1.1414 -0.3734 -0.2862
  993MOL0     H31076   5.912   8.826   7.039  1.8365  0.5273  2.4565
  994MOL0     O31077   4.648   9.864   7.831  0.0912 -0.8564 -0.6907
  994MOL0     C31078   4.701   9.770   7.772 -0.2421  0.3924  0.8745
  994MOL0     O31079   4.650   9.704   7.662  0.6669 -0.0777  0.1572
  994MOL0     C31080   4.516   9.708   7.623  0.0341  0.5395 -0.0696
  994MOL0     C31081   4.470   9.590   7.566 -0.7869 -0.1452 -0.1689
  994MOL0     C31082   4.346   9.574   7.516 -0.1420  0.2341  0.3559
  994MOL0     C31083   4.247   9.675   7.533 -0.2215  0.4874  0.2396
  994MOL0     O31084   4.114   9.653   7.503  0.1729 -0.8418  0.9448
  994MOL0     C31085   4.007   9.647   7.602 -0.5797  0.6853  0.0494
  994MOL0     C31086   3.911   9.763   7.580  0.0071  0.5841 -0.8207
  994MOL0     C31087   3.875   9.792   7.437 -0.5735  0.0482  0.2378
  994MOL0     C31088   3.774   9.907   7.431  0.5112 -0.2443  0.2462
  994MOL0     C31089   3.741   9.936   7.279 -0.5369  0.5507  0.5296
  994MOL0     C31090   3.857  10.025   7.219  0.5012  0.8650 -0.7922
  994MOL0     C31091   3.798  10.097   7.099  0.0258 -0.4106  1.1435
  994MOL0     C31092   3.838  10.244   7.093 -0.8737 -0.2894  0.0517
  994MOL0     N31093   3.786  10.323   7.211  0.1454  0.5561  0.3417
  994MOL0     C31094   3.654  10.342   7.230  0.7252 -0.5053 -0.5540
  994MOL0     C31095   3.647  10.435   7.330 -0.0935 -0.9389 -0.0173
  994MOL0     C31096   3.518  10.486   7.393 -0.3523 -0.9792 -0.8657
  994MOL0     C31097   3.496  10.634   7.358  0.3808 -0.5704 -0.1307
  994MOL0     C31098   3.360  10.679   7.407 -0.0962  0.4214  0.2498
  994MOL0     C31099   3.317  10.807   7.344  0.6625  0.4823 -0.2317
  994MOL0     O31100   3.198  10.849   7.413 -0.4692 -0.2859 -0.7221
  994MOL0     C31101   3.144  10.974   7.382  0.1392 -0.7191 -0.2309
  994MOL0     C31102   3.208  11.072   7.297  0.5805 -0.2752  0.5618
  994MOL0     C31103   3.137  11.189   7.255 -1.1964  0.4811 -0.1580
  994MOL0     C31104   3.007  11.211   7.294 -0.0623  1.1515  0.5568
  994MOL0     C31105   2.934  11.336   7.263  0.0066 -0.5813 -0.4112
  994MOL0     O31106   3.001  11.444   7.202  0.4422 -0.0328 -0.4927
  994MOL0     C31107   2.930  11.554   7.164 -0.0977 -0.0895 -0.6524
  994MOL0     C31108   2.960  11.609   7.041  1.2286  0.3686 -0.9008
  994MOL0     C31109   2.894  11.720   6.994 -0.7325 -0.1445 -0.0359
  994MOL0     C31110   2.796  11.781   7.066  0.3660 -0.2419  0.2299
  994MOL0     O31111   2.717  11.884   7.012  0.1367 -0.1234 -0.3363
  994MOL0     C31112   2.756  12.013   7.066 -0.6906  0.0594  0.1263
  994MOL0     C31113   2.681  12.131   7.007  0.6341  0.7640  1.1638
  994MOL0     C31114   2.675  12.123   6.854  0.2143  0.1706 -0.4181
  994MOL0     C31115   2.812  12.097   6.789 -0.4271  0.0493 -0.4116
  994MOL0     C31116   2.798  12.076   6.636 -0.9741 -0.3461 -0.3618
  994MOL0     C31117   2.754  12.184   6.543 -0.4366 -0.5025 -0.4770
  994MOL0     C31118   2.745  12.132   6.403 -0.1365  0.5907 -1.1022
  994MOL0     C31119   2.733  12.243   6.299  0.3935  0.2027 -0.7332
  994MOL0    Cl31120   2.558  12.303   6.300  0.2968  0.6669 -0.2361
  994MOL0     C31121   2.756  11.720   7.189  0.1816 -0.1909  0.8579
  994MOL0     C31122   2.826  11.609   7.237 -0.0164  0.4689 -0.2826
  994MOL0     O31123   2.815  11.341   7.290  0.7642 -0.4684 -0.5329
  994MOL0     C31124   2.947  11.112   7.381 -0.5747 -0.4377 -1.2782
  994MOL0     C31125   3.018  10.997   7.427  0.1955  0.2632 -0.1248
  994MOL0     N31126   3.780  10.468   7.374  1.0982  0.5422  0.0793
  994MOL0     N31127   3.862  10.392   7.302 -0.2185  0.5352  0.4113
  994MOL0     C31128   4.287   9.790   7.601  0.2727  0.0028  0.3337
  994MOL0     C31129   4.418   9.817   7.637 -0.3910  0.0270 -0.0281
  994MOL0     C31130   4.831   9.711   7.827  0.3205 -0.6790  0.3204
  994MOL0     C31131   4.885   9.752   7.951 -0.9854 -0.5954  0.1352
  994MOL0     C31132   4.997   9.693   7.991  0.1207 -0.1216  0.1614
  994MOL0     C31133   5.074   9.606   7.914  0.1800  0.4897  0.0898
  994MOL0     O31134   5.199   9.567   7.961  0.1603 -0.9344 -0.0022
  994MOL0     C31135   5.298   9.510   7.871  0.3117  0.7410  0.1992
  994MOL0     C31136   5.426   9.482   7.942  0.3181  0.4023  0.9768
  994MOL0     C31137   5.532   9.438   7.841  0.1349 -0.6210  0.0459
  994MOL0     C31138   5.658   9.400   7.928 -0.2918  0.0369  0.1410
  994MOL0     C31139   5.761   9.347   7.839 -0.5072  0.5117  0.5010
  994MOL0     C31140   5.847   9.302   7.767  1.0491  0.2710 -0.3994
  994MOL0     C31141   5.022   9.562   7.799  0.0234 -0.5642  0.9288
  994MOL0     C31142   4.903   9.617   7.750 -0.3008  0.5010  1.4374
  994MOL0     H31143   4.547   9.514   7.561 -1.9577 -1.4207  0.6366
  994MOL0     H31144   4.329   9.480   7.464  1.0049 -0.1030  0.5573
  994MOL0     H31145   4.051   9.645   7.703 -0.6682 -1.8377  0.0922
  994MOL0     H31146   3.947   9.560   7.575  3.2442 -0.7653 -5.5043
  994MOL0     H31147   3.962   9.850   7.622 -0.3204  0.3152  0.1665
  994MOL0     H31148   3.819   9.751   7.638 -2.6860 -1.5189 -5.0293
  994MOL0     H31149   3.821   9.705   7.399  1.5806 -0.9261 -0.7073
  994MOL0     H31150   3.962   9.809   7.373  2.1376  0.8760  3.8359
  994MOL0     H31151   3.683   9.897   7.492  0.0483 -2.7868 -0.7323
  994MOL0     H31152   3.820   9.990   7.486 -0.6274  0.5765  0.0054
  994MOL0     H31153   3.645   9.988   7.273 -0.8055  0.1120  0.9987
  994MOL0     H31154   3.733   9.843   7.223 -1.7892  1.0864 -0.2282
  994MOL0     H31155   3.939   9.963   7.182  0.7056  1.0003 -0.5747
  994MOL0     H31156   3.902  10.099   7.287  0.8868  0.5667 -0.7197
  994MOL0     H31157   3.848  10.045   7.016  0.5189 -1.3242  1.9897
  994MOL0     H31158   3.694  10.066   7.082  0.7213 -2.7238  0.6766
  994MOL0     H31159   3.811  10.282   6.994  0.8447 -2.8316 -1.4875
  994MOL0     H31160   3.947  10.246   7.096 -0.8831  0.3641  0.1670
  994MOL0     H31161   3.564  10.297   7.189 -1.7362  2.0617  1.5760
  994MOL0     H31162   3.522  10.470   7.502 -1.0619  1.4138 -0.4253
  994MOL0     H31163   3.437  10.425   7.350 -0.9615 -0.4468 -0.4915
  994MOL0     H31164   3.484  10.644   7.249  0.3235  1.2817  0.0104
  994MOL0     H31165   3.577  10.702   7.387  0.3028 -1.4772  2.4351
  994MOL0     H31166   3.277  10.608   7.395  0.9068 -0.9932  1.3092
  994MOL0     H31167   3.365  10.703   7.514 -1.6446 -0.9892  0.6754
  994MOL0     H31168   3.306  10.795   7.236  0.4710  1.0900 -0.2816
  994MOL0     H31169   3.403  10.873   7.356  0.0523  1.4951 -1.2369
  994MOL0     H31170   3.309  11.057   7.260  1.0575 -0.9034  2.0297
  994MOL0     H31171   3.189  11.266   7.198 -2.5849  3.4739  2.3084
  994MOL0     H31172   3.044  11.559   6.992  0.3571 -3.9328  1.4927
  994MOL0     H31173   2.931  11.753   6.897 -0.1927 -1.5470 -0.3351
  994MOL0     H31174   2.863  12.029   7.049 -1.1536  1.8627 -1.4264
  994MOL0     H31175   2.745  12.013   7.175  0.6144  0.8750  0.2838
  994MOL0     H31176   2.716  12.228   7.045 -2.2475  0.7690  4.2599
  994MOL0     H31177   2.583  12.136   7.056 -1.0893  1.7410 -2.0648
  994MOL0     H31178   2.628  12.214   6.814 -4.7351 -1.0189  1.8915
  994MOL0     H31179   2.614  12.037   6.826  0.2229 -0.0548  0.2371
  994MOL0     H31180   2.879  12.182   6.804  1.0245 -1.0431 -0.4920
  994MOL0     H31181   2.867  12.016   6.839  0.7476  1.5248  0.7847
  994MOL0     H31182   2.731  11.990   6.623  0.8202 -2.3975  2.5956
  994MOL0     H31183   2.899  12.040   6.615  0.9417  2.9479  2.2574
  994MOL0     H31184   2.818  12.272   6.548 -2.4645  1.3478 -3.8407
  994MOL0     H31185   2.655  12.224   6.565  0.6427  1.6315  0.8766
  994MOL0     H31186   2.840  12.083   6.382 -0.5573 -0.4790 -0.5968
  994MOL0     H31187   2.662  12.061   6.395  1.1211 -0.8259 -1.9188
  994MOL0     H31188   2.758  12.205   6.199  0.6446 -0.4491 -0.4315
  994MOL0     H31189   2.799  12.329   6.307 -0.8353  1.0783  0.3662
  994MOL0     H31190   2.675  11.765   7.244 -1.6259 -0.8239 -1.1588
  994MOL0     H31191   2.800  11.576   7.337 -1.5671  0.3905 -0.6857
  994MOL0     H31192   2.851  11.129   7.428  0.9259  1.5726  1.4049
  994MOL0     H31193   2.958  10.931   7.488  0.2166 -0.2457 -0.6494
  994MOL0     H31194   4.212   9.865   7.624 -0.8272 -0.1801 -2.2578
  994MOL0     H31195   4.457   9.916   7.660 -0.4985 -0.0443  0.4609
  994MOL0     H31196   4.838   9.824   8.017  0.2989 -2.2192  3.0097
  994MOL0     H31197   5.016   9.710   8.097  1.9146  1.4623 -0.3622
  994MOL0     H31198   5.317   9.571   7.782 -0.6649  1.0130  0.1659
  994MOL0     H31199   5.264   9.418   7.823 -0.2892  1.4664 -0.8040
  994MOL0     H31200   5.453   9.571   7.999 -0.2488 -0.6276  2.9324
  994MOL0     H31201   5.415   9.400   8.013 -0.6200 -0.4415 -0.1023
  994MOL0     H31202   5.555   9.522   7.774  1.3453  0.9099  2.2506
  994MOL0     H31203   5.504   9.364   7.766  1.9500 -0.5748 -0.7285
  994MOL0     H31204   5.701   9.489   7.974 -1.6922  0.5572  0.4837
  994MOL0     H31205   5.635   9.321   7.999  0.5800 -2.4300 -2.1343
  994MOL0     H31206   5.909   9.260   7.690  1.3276  0.3350 -0.2128
  994MOL0     H31207   5.072   9.489   7.736 -0.0731 -0.4298  0.6951
  994MOL0     H31208   4.872   9.584   7.651  3.4043  1.8253 -0.3429
  995MOL0     O31209   0.263   5.677   9.602 -0.7510 -0.6035  0.6089
  995MOL0     C31210   0.220   5.568   9.650 -0.5331 -0.0597  0.9168
  995MOL0     O31211   0.301   5.452   9.655  0.2746 -0.4612  0.4283
  995MOL0     C31212   0.433   5.450   9.630 -0.4893  0.5434  0.2523
  995MOL0     C31213   0.490   5.343   9.570  0.3874 -0.6619 -0.7801
  995MOL0     C31214   0.629   5.321   9.578 -0.0784  0.4357  0.3695
  995MOL0     C31215   0.712   5.421   9.625  0.4632 -0.4737 -0.5372
  995MOL0     O31216   0.847   5.387   9.622 -0.2330 -0.1526  0.1262
  995MOL0     C31217   0.938   5.478   9.682 -0.0834  0.0296  0.6320
  995MOL0     C31218   1.087   5.446   9.657 -1.1027 -1.0687 -0.1860
  995MOL0     C31219   1.138   5.310   9.689 -0.4068 -0.7888 -0.1296
  995MOL0     C31220   1.279   5.298   9.650  0.3868  0.5758 -0.5555
  995MOL0     C31221   1.299   5.267   9.499 -1.0693 -0.0029 -0.2661
  995MOL0     C31222   1.424   5.188   9.481 -0.3161 -0.0568  0.8090
  995MOL0     C31223   1.452   5.153   9.333  0.4741 -0.3479 -0.6281
  995MOL0     C31224   1.536   5.258   9.262  1.3813 -0.4468 -0.4761
  995MOL0     N31225   1.567   5.214   9.127  0.0603 -0.2045  0.2591
  995MOL0     C31226   1.694   5.164   9.107  0.1771 -0.1860 -0.6222
  995MOL0     C31227   1.690   5.138   8.969 -1.1607 -0.0731  0.5133
  995MOL0     C31228   1.799   5.086   8.882 -0.0490 -0.1645  0.0800
  995MOL0     C31229   1.885   5.185   8.812  0.7122 -0.1699  0.9208
  995MOL0     C31230   1.812   5.287   8.720 -0.4232 -0.1325  0.1588
  995MOL0     C31231   1.724   5.234   8.610 -0.6176  0.0416 -0.2774
  995MOL0     O31232   1.790   5.249   8.480  1.0399  0.3354  0.0029
  995MOL0     C31233   1.727   5.222   8.369 -0.4025 -0.9502 -0.0512
  995MOL0     C31234   1.601   5.157   8.367  0.5208  0.1539  0.4578
  995MOL0     C31235   1.545   5.119   8.247 -0.4125 -0.9425 -0.3656
  995MOL0     C31236   1.607   5.162   8.127  0.5080  0.0614 -0.6711
  995MOL0     C31237   1.551   5.106   8.006 -0.1519 -0.2491 -0.3560
  995MOL0     O31238   1.420   5.060   8.010 -0.0744 -0.3277  0.3565
  995MOL0     C31239   1.362   5.018   7.895  0.2238  0.5745  0.9145
  995MOL0     C31240   1.252   5.083   7.835  0.2663  0.6548  0.0291
  995MOL0     C31241   1.196   5.029   7.714  1.0261 -0.3700 -0.4374
  995MOL0     C31242   1.253   4.920   7.643 -0.5933  0.1892 -0.2440
  995MOL0     O31243   1.220   4.879   7.515  0.6416  1.1687 -0.0081
  995MOL0     C31244   1.089   4.908   7.475  0.2038  0.0276  0.6261
  995MOL0     C31245   1.068   4.873   7.327 -0.4622  0.4742 -0.6925
  995MOL0     C31246   1.161   4.963   7.238 -0.0495 -0.0733 -0.1767
  995MOL0     C31247   1.130   5.116   7.268  0.1000  0.1640  0.3813
  995MOL0     C31248   1.181   5.196   7.147  0.2732  0.2247 -0.4405
  995MOL0     C31249   1.171   5.351   7.167  0.2909  0.0797  0.5647
  995MOL0     C31250   1.229   5.422   7.034  0.5929  1.3115 -0.8548
  995MOL0     C31251   1.335   5.536   7.076  1.2705  0.5119  0.3712
  995MOL0    Cl31252   1.477   5.470   7.152  0.4433 -0.0648  0.3628
  995MOL0     C31253   1.370   4.864   7.705  0.3814  0.1528  0.3476
  995MOL0     C31254   1.411   4.908   7.825 -0.4540  0.0043 -0.2847
  995MOL0     O31255   1.620   5.106   7.907 -0.6337  0.5636  0.0295
  995MOL0     C31256   1.728   5.221   8.131  0.3136  0.8183  0.8100
  995MOL0     C31257   1.790   5.249   8.250  0.1581  0.2094  0.2065
  995MOL0     N31258   1.572   5.193   8.917  0.3539  1.0318  0.0982
  995MOL0     N31259   1.500   5.245   9.010  0.4655  0.6797  0.3352
  995MOL0     C31260   0.662   5.540   9.673 -0.3850 -0.5658 -1.1057
  995MOL0     C31261   0.527   5.547   9.682 -0.1004 -0.5937 -0.9582
  995MOL0     C31262   0.081   5.550   9.695 -0.0790  0.4282  0.0528
  995MOL0     C31263   0.036   5.423   9.741 -0.2099  0.0192 -0.2925
  995MOL0     C31264  -0.088   5.410   9.788  0.2250 -0.3508  0.4977
  995MOL0     C31265  -0.165   5.520   9.814 -0.2758  0.8538 -0.4933
  995MOL0     O31266  -0.289   5.487   9.867 -0.0121 -0.5303  0.0491
  995MOL0     C31267  -0.398   5.579   9.839  0.4458  0.9534 -0.9345
  995MOL0     C31268  -0.534   5.529   9.909 -0.1935  0.7255  0.0013
  995MOL0     C31269  -0.668   5.602   9.867 -0.2199 -0.2912  0.6259
  995MOL0     C31270  -0.716   5.677   9.987 -0.3116 -0.3670  0.3216
  995MOL0     C31271  -0.792   5.592  10.078 -1.3983  0.1293 -0.5340
  995MOL0     C31272  -0.835   5.563  10.191 -0.8408  0.4076  0.8300
  995MOL0     C31273  -0.119   5.646   9.789  0.0851 -0.2822 -0.6111
  995MOL0     C31274  -0.001   5.665   9.720 -0.5342  0.6418 -0.0025
  995MOL0     H31275   0.429   5.262   9.533  3.8220 -3.3825 -1.0549
  995MOL0     H31276   0.667   5.230   9.533 -2.2508  1.0215 -2.9661
  995MOL0     H31277   0.933   5.464   9.791 -1.2835 -1.2663  0.4455
  995MOL0     H31278   0.905   5.579   9.655 -1.8400 -0.1969  1.7146
  995MOL0     H31279   1.140   5.516   9.721 -1.2264  0.8698 -2.0954
  995MOL0     H31280   1.114   5.461   9.552  2.2599 -3.8386  0.1278
  995MOL0     H31281   1.080   5.235   9.634 -1.1713  0.5427 -1.2105
  995MOL0     H31282   1.128   5.301   9.797 -3.6546  0.1651 -0.2293
  995MOL0     H31283   1.322   5.393   9.681 -2.8802  2.3261 -0.9472
  995MOL0     H31284   1.324   5.217   9.709 -0.6356 -1.1166 -1.9919
  995MOL0     H31285   1.303   5.359   9.441 -2.4347 -1.0784 -2.1955
  995MOL0     H31286   1.209   5.219   9.457  0.5269 -2.2808 -1.2766
  995MOL0     H31287   1.418   5.089   9.527  2.1160 -0.1995  0.9217
  995MOL0     H31288   1.511   5.242   9.519  0.5646 -0.5066 -0.4745
  995MOL0     H31289   1.494   5.052   9.328  0.7485 -0.1960 -1.4632
  995MOL0     H31290   1.356   5.141   9.281  1.2805  0.6006 -2.3954
  995MOL0     H31291   1.620   5.277   9.329  1.5070 -1.6477 -0.2742
  995MOL0     H31292   1.477   5.350   9.253 -1.0918 -2.0251 -1.6764
  995MOL0     H31293   1.775   5.170   9.179 -0.0889  0.0188 -0.3378
  995MOL0     H31294   1.744   5.028   8.808 -2.3035 -0.0474  1.5721
  995MOL0     H31295   1.861   5.011   8.933 -1.4054 -1.2239  0.2192
  995MOL0     H31296   1.959   5.128   8.756  0.4566 -0.3337  0.7496
  995MOL0     H31297   1.940   5.244   8.887  0.9345 -0.1286  0.7236
  995MOL0     H31298   1.760   5.353   8.789 -1.4413  0.4399 -1.1125
  995MOL0     H31299   1.889   5.344   8.668 -2.1393  0.8559 -1.3934
  995MOL0     H31300   1.632   5.289   8.626 -0.4695 -0.4160  2.6468
  995MOL0     H31301   1.708   5.127   8.627  1.1176  0.0170  1.6223
  995MOL0     H31302   1.559   5.113   8.457 -0.5451 -1.2392 -0.6745
  995MOL0     H31303   1.458   5.055   8.244 -0.4663 -0.8916  0.0997
  995MOL0     H31304   1.223   5.174   7.886  3.5299  1.4442  0.7235
  995MOL0     H31305   1.108   5.081   7.678  0.9777 -1.1176 -1.4425
  995MOL0     H31306   1.054   5.009   7.495  2.5371  0.5154  2.5640
  995MOL0     H31307   1.026   4.828   7.516  1.2855 -1.9958 -1.4150
  995MOL0     H31308   0.962   4.880   7.304 -0.7241  1.1924  0.6189
  995MOL0     H31309   1.093   4.767   7.323  0.5416  0.6316  0.5593
  995MOL0     H31310   1.135   4.924   7.139 -4.3615 -0.0816  0.7752
  995MOL0     H31311   1.268   4.942   7.249 -0.0607 -0.7493 -1.1831
  995MOL0     H31312   1.024   5.122   7.295 -0.1763  0.9916 -0.8251
  995MOL0     H31313   1.197   5.142   7.351  0.1402  0.8000  0.1577
  995MOL0     H31314   1.124   5.175   7.057 -0.4945  2.0053 -0.4088
  995MOL0     H31315   1.287   5.175   7.130  0.2333 -1.2367  0.9331
  995MOL0     H31316   1.238   5.379   7.249  1.3650  0.8063 -0.5211
  995MOL0     H31317   1.069   5.382   7.191 -0.2482  1.6197 -3.0793
  995MOL0     H31318   1.295   5.357   6.975 -0.1459 -2.2091  1.8799
  995MOL0     H31319   1.144   5.465   6.981 -1.5425 -0.8664  0.6127
  995MOL0     H31320   1.279   5.608   7.137 -2.4825 -1.0421 -0.9097
  995MOL0     H31321   1.371   5.591   6.989 -0.1628 -0.2397 -0.7414
  995MOL0     H31322   1.412   4.774   7.661 -0.3930  0.9820 -2.2823
  995MOL0     H31323   1.496   4.860   7.873 -0.9229  1.1559  1.8370
  995MOL0     H31324   1.787   5.237   8.041  2.7065 -1.1768  1.8973
  995MOL0     H31325   1.891   5.285   8.236 -0.1961  2.3693  2.5174
  995MOL0     H31326   0.708   5.620   9.729 -0.6315 -2.5116  2.1701
  995MOL0     H31327   0.493   5.644   9.717  1.7226  0.9395 -3.1595
  995MOL0     H31328   0.100   5.335   9.732 -0.1951 -0.1062  0.9039
  995MOL0     H31329  -0.124   5.308   9.794  2.7153 -1.2398  1.4619
  995MOL0     H31330  -0.405   5.589   9.731 -0.6037  0.0242 -0.9824
  995MOL0     H31331  -0.394   5.681   9.877 -2.3448  0.5688  0.7446
  995MOL0     H31332  -0.539   5.422   9.885  0.8661  1.1456 -2.3186
  995MOL0     H31333  -0.507   5.532  10.015 -2.3955 -1.1377  0.7095
  995MOL0     H31334  -0.736   5.520   9.845  1.5891 -1.4092 -1.0775
  995MOL0     H31335  -0.643   5.670   9.785 -0.7241  1.9115  2.2004
  995MOL0     H31336  -0.633   5.721  10.042  1.5065 -1.3993 -1.4646
  995MOL0     H31337  -0.783   5.753   9.946 -0.6218 -0.6746  0.2493
  995MOL0     H31338  -0.871   5.545  10.290  0.3774  0.8051  1.3689
  995MOL0     H31339  -0.180   5.733   9.813 -0.2856 -0.6787 -0.0844
  995MOL0     H31340   0.042   5.764   9.706 -0.5790  0.7416  0.5323
  996MOL0     O31341   7.479   1.513   5.878 -0.1240 -0.7492 -0.0304
  996MOL0     C31342   7.492   1.542   5.998  0.1779  0.2943  0.5610
  996MOL0     O31343   7.384   1.571   6.081 -0.2104  0.2313  0.6879
  996MOL0     C31344   7.262   1.593   6.036 -0.0163  0.0441  0.3539
  996MOL0     C31345   7.156   1.531   6.107 -0.0490  1.1600  0.2180
  996MOL0     C31346   7.031   1.529   6.051 -0.8045 -0.4458  0.6087
  996MOL0     C31347   7.002   1.602   5.930 -0.7694  0.5985 -0.4262
  996MOL0     O31348   6.881   1.615   5.876  0.0231  0.4554 -0.7179
  996MOL0     C31349   6.755   1.582   5.941 -0.1057 -0.9736  0.2526
  996MOL0     C31350   6.661   1.680   5.881  0.9247 -0.8219  0.0741
  996MOL0     C31351   6.518   1.645   5.928  0.4356 -0.0725 -0.2494
  996MOL0     C31352   6.404   1.700   5.841 -0.6626  0.3240  1.1644
  996MOL0     C31353   6.258   1.666   5.892 -0.0080  0.3781  0.0959
  996MOL0     C31354   6.150   1.724   5.794 -0.1241 -0.4681 -0.6387
  996MOL0     C31355   6.015   1.709   5.857 -0.0747  0.3010  0.9722
  996MOL0     C31356   5.904   1.744   5.750 -0.1300 -0.2895 -0.0825
  996MOL0     N31357   5.772   1.724   5.806 -0.2150  0.1585  0.1353
  996MOL0     C31358   5.686   1.824   5.849 -0.6169  0.5165  1.1275
  996MOL0     C31359   5.574   1.754   5.886  0.3250  0.7957 -0.4460
  996MOL0     C31360   5.442   1.816   5.936  0.4295  0.0173 -0.3433
  996MOL0     C31361   5.377   1.886   5.812  0.0676  0.0677 -0.2674
  996MOL0     C31362   5.232   1.909   5.837 -0.0417  0.4170  0.1435
  996MOL0     C31363   5.171   1.972   5.714 -0.2997 -0.7479  0.3397
  996MOL0     O31364   5.029   1.974   5.736 -0.4438 -0.5199  0.7029
  996MOL0     C31365   4.943   1.994   5.627 -0.2507 -0.8186  0.1365
  996MOL0     C31366   4.814   1.945   5.638 -0.2957  0.1459  0.0587
  996MOL0     C31367   4.721   1.965   5.526  1.1429  0.0153 -0.4589
  996MOL0     C31368   4.760   2.028   5.408  0.2497 -1.0464  0.1960
  996MOL0     C31369   4.674   2.042   5.289 -0.3180 -0.5964  0.1110
  996MOL0     O31370   4.578   1.947   5.258  0.5028  0.3128 -0.4726
  996MOL0     C31371   4.479   1.965   5.162  0.7042 -0.3833  0.8152
  996MOL0     C31372   4.405   2.083   5.141 -0.7013 -0.4324 -0.3013
  996MOL0     C31373   4.303   2.090   5.052 -0.5503  0.3807  0.5518
  996MOL0     C31374   4.273   1.980   4.976  0.7592 -0.0335 -0.1330
  996MOL0     O31375   4.180   1.999   4.868  0.1248 -0.7738 -0.2842
  996MOL0     C31376   4.080   1.900   4.855  0.0944  0.1857 -0.2078
  996MOL0     C31377   3.946   1.965   4.871  0.1686  0.2042 -0.2159
  996MOL0     C31378   3.903   2.026   5.005 -0.0435 -1.1579  0.6700
  996MOL0     C31379   3.853   1.929   5.109  0.0869 -0.1699 -0.0290
  996MOL0     C31380   3.818   2.001   5.239  0.1141 -0.2258  0.1606
  996MOL0     C31381   3.911   1.972   5.351 -0.2524  0.7520 -0.3826
  996MOL0     C31382   4.058   2.008   5.308  0.5182 -0.6011 -0.4571
  996MOL0     C31383   4.140   2.001   5.441 -0.0212 -0.2102 -0.1338
  996MOL0    Cl31384   4.103   2.151   5.538  0.2753  0.2430 -0.3365
  996MOL0     C31385   4.343   1.861   4.997  0.0864  0.0389  0.0165
  996MOL0     C31386   4.446   1.856   5.092  0.2601  0.5566 -0.5887
  996MOL0     O31387   4.694   2.144   5.225  0.3580 -0.0630  0.2673
  996MOL0     C31388   4.897   2.080   5.404 -0.1466 -0.3618 -0.2227
  996MOL0     C31389   4.982   2.063   5.515 -0.5315 -0.0965 -0.8398
  996MOL0     N31390   5.597   1.619   5.866 -1.2399  0.2164 -0.0715
  996MOL0     N31391   5.716   1.601   5.819 -0.4192 -0.3790 -0.5458
  996MOL0     C31392   7.109   1.671   5.874 -0.2033 -0.1445  0.2353
  996MOL0     C31393   7.237   1.681   5.927  1.2946  0.7060 -0.0261
  996MOL0     C31394   7.634   1.545   6.041 -0.6940 -0.1235 -0.6762
  996MOL0     C31395   7.744   1.536   5.954 -0.2285  0.1515 -0.1780
  996MOL0     C31396   7.868   1.559   5.994  0.7315 -0.1001  0.6657
  996MOL0     C31397   7.906   1.593   6.128  0.5568 -0.3976  0.4718
  996MOL0     O31398   8.035   1.602   6.181  0.7490  0.1269 -0.0260
  996MOL0     C31399   8.150   1.606   6.095 -0.1877  0.0230  0.1872
  996MOL0     C31400   8.287   1.633   6.157  0.0094 -0.4357  0.1570
  996MOL0     C31401   8.293   1.546   6.284  0.2003  0.4394 -0.1377
  996MOL0     C31402   8.427   1.485   6.317 -0.6069 -0.7710  0.2549
  996MOL0     C31403   8.527   1.588   6.340  0.3304  0.0947  0.3647
  996MOL0     C31404   8.597   1.690   6.366  0.2288  0.0926  0.0280
  996MOL0     C31405   7.800   1.596   6.222 -0.0744  0.3082  0.2135
  996MOL0     C31406   7.668   1.577   6.177 -0.2466  0.1299  1.0181
  996MOL0     H31407   7.176   1.475   6.197  1.1132  0.2560 -0.5779
  996MOL0     H31408   6.956   1.477   6.109  0.4264 -0.1093  2.5878
  996MOL0     H31409   6.765   1.608   6.047 -0.1362 -0.9032  0.2380
  996MOL0     H31410   6.723   1.482   5.911 -0.7886 -0.8795  0.6488
  996MOL0     H31411   6.672   1.677   5.772 -1.1622  0.4583 -0.2336
  996MOL0     H31412   6.687   1.783   5.909  0.4328 -0.1572 -1.7550
  996MOL0     H31413   6.511   1.686   6.029  2.7836  2.1171 -0.8572
  996MOL0     H31414   6.502   1.538   5.941  1.7224 -0.1021  1.6213
  996MOL0     H31415   6.406   1.809   5.831  1.8715  0.1975 -0.4890
  996MOL0     H31416   6.422   1.656   5.742 -3.9377  3.3576 -1.0334
  996MOL0     H31417   6.239   1.700   5.994 -0.9565  0.3454 -0.0674
  996MOL0     H31418   6.242   1.558   5.889 -0.7552  0.5046 -1.0378
  996MOL0     H31419   6.160   1.659   5.707  2.9350 -1.2806  0.1988
  996MOL0     H31420   6.189   1.825   5.776  3.2592 -1.4253  0.4222
  996MOL0     H31421   6.004   1.606   5.893  3.8828 -0.6481 -0.0825
  996MOL0     H31422   6.002   1.776   5.942  0.7397  2.5573 -0.5928
  996MOL0     H31423   5.930   1.672   5.672  4.8343  0.5986  0.4198
  996MOL0     H31424   5.921   1.844   5.709  0.1777  0.5418  1.9422
  996MOL0     H31425   5.695   1.932   5.849  1.8391  0.3690  2.2494
  996MOL0     H31426   5.476   1.887   6.011  0.4203 -0.7281  0.3846
  996MOL0     H31427   5.376   1.736   5.973  0.2113  0.5727  0.4962
  996MOL0     H31428   5.402   1.831   5.721 -1.6176  2.1294 -2.1052
  996MOL0     H31429   5.428   1.982   5.806 -0.5499  0.4211  0.0643
  996MOL0     H31430   5.183   1.812   5.846 -0.4214  0.7354  1.7376
  996MOL0     H31431   5.214   1.972   5.924  1.8171  0.8631  0.2403
  996MOL0     H31432   5.180   1.908   5.625 -2.0826  0.7404 -0.9852
  996MOL0     H31433   5.222   2.064   5.683  0.4615 -0.9028  1.0917
  996MOL0     H31434   4.790   1.896   5.731  0.4398 -1.8917 -0.7682
  996MOL0     H31435   4.625   1.917   5.540  0.7834  0.1987 -2.1505
  996MOL0     H31436   4.434   2.168   5.202 -0.8431 -1.1922  0.8469
  996MOL0     H31437   4.251   2.185   5.051  0.3770  0.9197 -1.8426
  996MOL0     H31438   4.093   1.813   4.919 -0.3466  0.7204  0.6274
  996MOL0     H31439   4.093   1.861   4.753  0.8066 -0.9884  0.3166
  996MOL0     H31440   3.867   1.896   4.839  0.2327  1.2848 -3.0397
  996MOL0     H31441   3.929   2.037   4.790  0.6552 -0.9746 -1.4066
  996MOL0     H31442   3.825   2.101   4.988  0.9343  0.0485  1.2778
  996MOL0     H31443   3.986   2.084   5.046 -0.0774 -0.7640  0.1986
  996MOL0     H31444   3.759   1.879   5.086  0.9774 -2.0091  0.1534
  996MOL0     H31445   3.925   1.850   5.132 -0.0463 -0.4230 -0.4840
  996MOL0     H31446   3.716   1.984   5.274  0.3642  4.0422  3.8690
  996MOL0     H31447   3.820   2.110   5.229  0.6642 -0.0757  1.6538
  996MOL0     H31448   3.902   1.866   5.377  0.6811  1.3018  2.4592
  996MOL0     H31449   3.884   2.032   5.438 -0.9494 -2.1473  1.5625
  996MOL0     H31450   4.097   1.929   5.244  2.5367 -1.2089  1.4109
  996MOL0     H31451   4.069   2.111   5.273  1.6943  2.5066  7.0908
  996MOL0     H31452   4.247   2.008   5.422 -0.2531  3.0881 -0.8961
  996MOL0     H31453   4.113   1.913   5.500 -1.9078  1.8451  2.2867
  996MOL0     H31454   4.312   1.783   4.928 -0.6350  0.0486  0.3146
  996MOL0     H31455   4.503   1.765   5.111  2.5604  2.2939  1.6540
  996MOL0     H31456   4.939   2.133   5.320 -2.0733 -0.2263 -1.1501
  996MOL0     H31457   5.080   2.108   5.504 -0.7129 -0.1534 -3.1278
  996MOL0     H31458   7.095   1.721   5.779 -0.8274 -3.2557 -1.4738
  996MOL0     H31459   7.312   1.741   5.877  0.6093  1.9419  0.3796
  996MOL0     H31460   7.717   1.522   5.849 -0.8699  0.9807 -0.1274
  996MOL0     H31461   7.935   1.539   5.911 -1.2774 -0.9882 -0.8052
  996MOL0     H31462   8.114   1.674   6.017 -1.8549 -0.5834  0.3806
  996MOL0     H31463   8.161   1.504   6.056  1.7444  0.3984 -0.3591
  996MOL0     H31464   8.363   1.598   6.087  0.3654 -3.7321  1.9505
  996MOL0     H31465   8.289   1.741   6.174  2.4145 -0.0476 -1.9700
  996MOL0     H31466   8.220   1.467   6.264 -0.1738  1.0102 -1.1335
  996MOL0     H31467   8.258   1.590   6.378  2.5642  3.8291 -0.6705
  996MOL0     H31468   8.436   1.422   6.406 -2.2122 -0.5422  0.6160
  996MOL0     H31469   8.446   1.428   6.226  0.9979  0.4309 -0.2263
  996MOL0     H31470   8.661   1.774   6.382  0.4242  0.4770 -2.3507
  996MOL0     H31471   7.815   1.615   6.328  1.6716 -1.1086  0.2735
  996MOL0     H31472   7.582   1.578   6.244 -0.0509 -0.2324  1.2805
  997MOL0     O31473   6.849   4.709   4.028  0.0664  0.1461 -0.1048
  997MOL0     C31474   6.759   4.767   4.097 -1.5310  0.1186  0.3772
  997MOL0     O31475   6.780   4.849   4.201  0.2677  0.0203  0.5678
  997MOL0     C31476   6.903   4.866   4.252 -0.4209  0.1152  0.2910
  997MOL0     C31477   7.029   4.799   4.226 -0.1261  0.4936 -1.7201
  997MOL0     C31478   7.142   4.833   4.308 -0.1513  0.1221 -0.7605
  997MOL0     C31479   7.129   4.930   4.406 -1.1348 -0.5583 -0.8661
  997MOL0     O31480   7.244   4.948   4.484  0.0345 -0.1966 -0.1658
  997MOL0     C31481   7.227   4.963   4.623  0.3596  0.6190 -0.3724
  997MOL0     C31482   7.351   4.985   4.704  0.6979  0.1588 -0.3246
  997MOL0     C31483   7.285   5.004   4.840 -2.3653 -0.1724 -0.3245
  997MOL0     C31484   7.396   5.053   4.935 -0.4491  0.0404  0.1298
  997MOL0     C31485   7.331   5.091   5.066 -0.1332  0.1621 -0.0957
  997MOL0     C31486   7.419   5.195   5.139 -0.1659 -0.2884  0.1383
  997MOL0     C31487   7.383   5.332   5.097 -0.7656  0.6571  0.7656
  997MOL0     C31488   7.476   5.428   5.170  0.1899  0.0381  0.4837
  997MOL0     N31489   7.432   5.564   5.150 -0.0863 -0.1654 -0.0482
  997MOL0     C31490   7.373   5.621   5.043  0.3546  0.5348 -0.4309
  997MOL0     C31491   7.356   5.750   5.071  0.1471  0.1643  0.6142
  997MOL0     C31492   7.295   5.849   4.974  0.2668  0.2313  0.1168
  997MOL0     C31493   7.164   5.818   4.896  0.0988  0.2413 -0.3405
  997MOL0     C31494   7.067   5.727   4.978  0.2165  0.0728  0.5109
  997MOL0     C31495   6.942   5.680   4.914 -0.0618  0.2163  0.5477
  997MOL0     O31496   6.862   5.798   4.902  0.4970 -0.3801  0.0556
  997MOL0     C31497   6.753   5.790   4.818  0.0830  0.6059  0.1149
  997MOL0     C31498   6.621   5.816   4.861  0.0948  0.2258  0.0639
  997MOL0     C31499   6.513   5.817   4.767  0.4877  0.2030  0.2473
  997MOL0     C31500   6.541   5.799   4.630  0.2534 -0.3006 -0.0070
  997MOL0     C31501   6.427   5.791   4.538 -0.3001 -0.7477 -0.4573
  997MOL0     O31502   6.459   5.734   4.419  0.9119  0.6265  0.1484
  997MOL0     C31503   6.355   5.702   4.340 -0.1358 -0.4363 -0.6524
  997MOL0     C31504   6.296   5.581   4.364  0.9455 -0.2109 -0.8682
  997MOL0     C31505   6.175   5.554   4.294 -0.4332 -0.1199 -0.1886
  997MOL0     C31506   6.118   5.649   4.209 -0.0195  0.3510  0.1467
  997MOL0     O31507   5.991   5.625   4.158 -0.0928  0.1423  0.0287
  997MOL0     C31508   5.933   5.731   4.077  0.4171  0.1686 -0.8200
  997MOL0     C31509   5.802   5.681   4.016 -0.5767  0.3258 -0.5584
  997MOL0     C31510   5.725   5.799   3.950 -0.4899  0.3168 -0.4866
  997MOL0     C31511   5.668   5.905   4.041  0.2796 -0.3790 -0.2284
  997MOL0     C31512   5.552   5.991   3.980  0.5075 -0.2553 -0.5228
  997MOL0     C31513   5.492   6.094   4.076 -0.3561  0.0365 -0.5616
  997MOL0     C31514   5.347   6.131   4.050 -0.8369 -0.1672  0.2409
  997MOL0     C31515   5.333   6.192   3.916  0.1954  1.0882  0.2463
  997MOL0    Cl31516   5.428   6.342   3.919 -0.2235  0.1909 -0.1677
  997MOL0     C31517   6.192   5.768   4.181  0.1855 -0.3024 -0.1616
  997MOL0     C31518   6.307   5.794   4.243  0.2390  0.4587 -0.3328
  997MOL0     O31519   6.314   5.819   4.584 -0.6927  0.3562  0.3047
  997MOL0     C31520   6.670   5.763   4.586  0.5388  0.3700 -0.5203
  997MOL0     C31521   6.770   5.760   4.684  0.5907  0.4278  0.2316
  997MOL0     N31522   7.404   5.778   5.195  0.2311 -0.3553 -0.2216
  997MOL0     N31523   7.456   5.666   5.237  0.8844 -0.2778  0.2463
  997MOL0     C31524   7.015   5.002   4.423 -0.8046  0.7512  0.2954
  997MOL0     C31525   6.905   4.970   4.344 -0.2939 -0.1977  0.0678
  997MOL0     C31526   6.624   4.734   4.062  0.0065 -0.4109  0.0924
  997MOL0     C31527   6.522   4.772   4.149 -0.1762  0.1082 -0.6722
  997MOL0     C31528   6.391   4.743   4.116 -0.6510 -0.5555  0.1403
  997MOL0     C31529   6.362   4.689   3.997 -0.9413 -0.6052  0.1969
  997MOL0     O31530   6.229   4.680   3.967 -0.5315 -0.1491 -0.6944
  997MOL0     C31531   6.173   4.779   3.893  0.7009 -0.4109 -0.7401
  997MOL0     C31532   6.043   4.750   3.822 -0.3609 -0.5098 -0.0633
  997MOL0     C31533   6.066   4.649   3.704  0.3315  0.7067  0.2817
  997MOL0     C31534   5.926   4.601   3.640  0.5409 -0.2266  0.5769
  997MOL0     C31535   5.866   4.711   3.569  0.6592  0.6206 -0.7041
  997MOL0     C31536   5.809   4.791   3.508  0.3762 -0.6799  0.7486
  997MOL0     C31537   6.465   4.658   3.909 -0.0823 -0.4901 -0.4712
  997MOL0     C31538   6.592   4.678   3.942  0.0946 -0.5904  0.0942
  997MOL0     H31539   7.036   4.732   4.141  0.7506  1.6172 -2.5607
  997MOL0     H31540   7.234   4.776   4.296 -1.1349 -1.7821  0.2886
  997MOL0     H31541   7.177   4.873   4.662  1.1417  0.8126  1.1660
  997MOL0     H31542   7.165   5.052   4.636  1.0766  1.0231  0.3788
  997MOL0     H31543   7.401   5.073   4.662 -0.4440  0.7353 -0.5206
  997MOL0     H31544   7.418   4.899   4.695  0.1231 -0.4474  1.0267
  997MOL0     H31545   7.255   4.903   4.870 -0.6107 -0.6982 -0.2248
  997MOL0     H31546   7.208   5.081   4.829  1.0998  3.8938  1.1254
  997MOL0     H31547   7.472   4.975   4.947 -0.8935 -1.7080 -5.5631
  997MOL0     H31548   7.440   5.144   4.894 -1.3926 -0.3862 -1.9736
  997MOL0     H31549   7.333   4.999   5.125  2.6774 -0.1158 -0.5332
  997MOL0     H31550   7.225   5.118   5.065 -0.3696 -0.6608  0.7579
  997MOL0     H31551   7.525   5.169   5.129 -0.4676 -1.1354 -1.0894
  997MOL0     H31552   7.393   5.179   5.244  0.8783  3.1943  1.0477
  997MOL0     H31553   7.379   5.347   4.989  3.0345 -1.5434  0.1116
  997MOL0     H31554   7.281   5.351   5.132 -1.0934  2.6019 -1.0006
  997MOL0     H31555   7.568   5.431   5.111 -1.2969 -0.1307 -1.9662
  997MOL0     H31556   7.491   5.399   5.275  1.2592 -2.4462 -0.2926
  997MOL0     H31557   7.351   5.569   4.950 -2.2361 -0.4461  0.6381
  997MOL0     H31558   7.374   5.882   4.907  2.2151  0.8269  2.5553
  997MOL0     H31559   7.268   5.937   5.034 -2.4639  1.8852 -3.1998
  997MOL0     H31560   7.192   5.765   4.804 -0.9941 -1.1359  0.0968
  997MOL0     H31561   7.114   5.910   4.862  2.5841  1.1451 -1.8621
  997MOL0     H31562   7.116   5.632   5.003  2.5936  0.4137 -2.3506
  997MOL0     H31563   7.036   5.775   5.071 -0.0522 -2.2787  1.7215
  997MOL0     H31564   6.893   5.610   4.983 -0.9773  0.0976 -0.1940
  997MOL0     H31565   6.956   5.629   4.818  0.4068 -0.3044  0.8938
  997MOL0     H31566   6.611   5.847   4.965  2.0685 -0.4484  0.4979
  997MOL0     H31567   6.410   5.839   4.794  0.2997 -0.7541  0.3653
  997MOL0     H31568   6.324   5.513   4.444 -1.1229  2.4704  2.4329
  997MOL0     H31569   6.109   5.471   4.318 -0.8271  0.6130  1.3833
  997MOL0     H31570   5.996   5.734   3.988  0.7522 -3.7980 -0.9043
  997MOL0     H31571   5.921   5.830   4.121 -1.2942 -0.1140 -0.5804
  997MOL0     H31572   5.753   5.643   4.105 -0.1249  0.8183 -0.0904
  997MOL0     H31573   5.811   5.601   3.942 -1.8090 -2.6715  2.3168
  997MOL0     H31574   5.639   5.747   3.907 -1.4852  2.9022 -1.8402
  997MOL0     H31575   5.793   5.849   3.880  1.4993  1.6218  2.2028
  997MOL0     H31576   5.644   5.859   4.137  0.6361  0.8973  0.5115
  997MOL0     H31577   5.747   5.979   4.061  0.6225 -0.7122 -0.3224
  997MOL0     H31578   5.471   5.921   3.955  2.8866 -2.5120 -2.5047
  997MOL0     H31579   5.591   6.031   3.886 -1.9394  0.9944 -1.1066
  997MOL0     H31580   5.545   6.190   4.074  1.3016 -0.7977 -3.7556
  997MOL0     H31581   5.505   6.049   4.175  0.6423 -0.3633 -0.8645
  997MOL0     H31582   5.286   6.040   4.057  0.6914 -1.5299 -2.6024
  997MOL0     H31583   5.315   6.213   4.115  3.8596  3.1785 -1.1742
  997MOL0     H31584   5.226   6.210   3.899 -0.1049 -1.1300 -0.6673
  997MOL0     H31585   5.375   6.138   3.831 -0.5066 -2.1668  1.8055
  997MOL0     H31586   6.157   5.847   4.115 -0.3667 -0.7165 -0.3836
  997MOL0     H31587   6.359   5.889   4.239  1.4118 -0.1815 -1.1894
  997MOL0     H31588   6.696   5.731   4.486  0.3945 -0.6723 -0.2282
  997MOL0     H31589   6.869   5.731   4.650  1.3710  2.6070  0.4667
  997MOL0     H31590   7.003   5.084   4.492 -0.2953  1.7759 -0.7957
  997MOL0     H31591   6.813   5.026   4.356 -1.2958 -1.2135 -2.3537
  997MOL0     H31592   6.534   4.827   4.242 -3.0958  1.8421 -1.1796
  997MOL0     H31593   6.309   4.766   4.184 -0.4580 -2.3870  1.0484
  997MOL0     H31594   6.237   4.810   3.810 -0.2800 -1.7875 -2.0629
  997MOL0     H31595   6.155   4.868   3.954 -0.2486 -2.1105  1.5681
  997MOL0     H31596   5.975   4.705   3.896  0.1516 -1.8649 -0.3814
  997MOL0     H31597   6.002   4.842   3.779  2.6211  1.0082  0.1359
  997MOL0     H31598   6.106   4.552   3.736  1.1387 -0.1850 -2.9701
  997MOL0     H31599   6.137   4.692   3.633 -0.3529  0.9159 -0.2873
  997MOL0     H31600   5.948   4.525   3.564  0.7654 -2.7262  2.9721
  997MOL0     H31601   5.856   4.552   3.709 -0.8272  0.1634 -0.4879
  997MOL0     H31602   5.749   4.861   3.453  1.2130 -1.0223 -0.6365
  997MOL0     H31603   6.455   4.624   3.807 -1.9305  1.8674 -1.1544
  997MOL0     H31604   6.660   4.651   3.861  0.4337  0.7090 -0.0737
  998MOL0     O31605   1.150  10.781   6.420 -0.2078  0.2825 -0.2000
  998MOL0     C31606   1.083  10.749   6.521  0.0727  0.1927  0.3608
  998MOL0     O31607   0.951  10.769   6.544  0.0866 -0.3627 -0.4988
  998MOL0     C31608   0.861  10.800   6.445 -0.7296  1.2338 -0.0909
  998MOL0     C31609   0.757  10.892   6.473 -0.2042  0.8336 -0.1920
  998MOL0     C31610   0.678  10.942   6.377  0.2357 -0.0617 -0.6066
  998MOL0     C31611   0.692  10.901   6.248 -0.8603 -0.5103 -0.2803
  998MOL0     O31612   0.594  10.940   6.155 -1.0807  0.2237  0.2623
  998MOL0     C31613   0.622  10.898   6.018 -0.9104 -0.1914 -0.1455
  998MOL0     C31614   0.519  10.955   5.926  0.8549  0.2641  0.2407
  998MOL0     C31615   0.537  11.109   5.943 -0.1338  0.3260  0.1910
  998MOL0     C31616   0.501  11.179   5.814 -0.5536  0.0739  0.4968
  998MOL0     C31617   0.519  11.326   5.841  0.0696  0.2878  0.5420
  998MOL0     C31618   0.475  11.413   5.718  0.3422  0.0432 -0.1534
  998MOL0     C31619   0.497  11.564   5.747  0.1537  0.0946 -0.6923
  998MOL0     C31620   0.429  11.650   5.647 -0.2876  0.4343 -0.2127
  998MOL0     N31621   0.296  11.692   5.688  0.3525  0.1535  0.7276
  998MOL0     C31622   0.258  11.791   5.776  0.0178  0.4970  0.1168
  998MOL0     C31623   0.123  11.809   5.759  1.4855  0.0685  0.2322
  998MOL0     C31624   0.019  11.906   5.809 -0.1270 -0.2271 -0.5523
  998MOL0     C31625   0.058  12.047   5.790  0.4205  0.0540 -0.9538
  998MOL0     C31626   0.048  12.090   5.642  1.0009 -0.1605  0.7758
  998MOL0     C31627   0.049  12.239   5.605  0.5270  0.0996 -0.1016
  998MOL0     O31628   0.146  12.248   5.498 -0.6315  0.2489  0.0377
  998MOL0     C31629   0.146  12.373   5.441 -0.7016 -0.0122 -0.1976
  998MOL0     C31630   0.060  12.487   5.464  0.5550 -0.3465  0.4325
  998MOL0     C31631   0.097  12.614   5.416 -0.3999  1.1242  0.1539
  998MOL0     C31632   0.203  12.639   5.329 -0.9703 -0.3707 -0.0165
  998MOL0     C31633   0.221  12.775   5.258  0.1482  0.7048  0.2696
  998MOL0     O31634   0.152  12.883   5.306 -0.4614  0.1854  0.4000
  998MOL0     C31635   0.183  13.013   5.263  0.0499  0.0578  0.0799
  998MOL0     C31636   0.089  13.090   5.195  1.0910 -0.0863  0.1564
  998MOL0     C31637   0.119  13.221   5.156  0.3103  0.4619 -0.1833
  998MOL0     C31638   0.241  13.278   5.178 -0.7153  1.2691 -0.5715
  998MOL0     O31639   0.256  13.404   5.142 -0.2980 -0.0263  0.4417
  998MOL0     C31640   0.372  13.431   5.058  0.1081 -0.3676  0.5711
  998MOL0     C31641   0.362  13.567   5.012 -0.1372 -0.1518  1.4896
  998MOL0     C31642   0.473  13.610   4.913 -0.0081  0.7623  0.3081
  998MOL0     C31643   0.465  13.754   4.855 -0.7147  0.3260  1.0563
  998MOL0     C31644   0.595  13.787   4.761 -0.4054  0.1174  1.1261
  998MOL0     C31645   0.623  13.682   4.657 -0.8428 -0.6164  0.5421
  998MOL0     C31646   0.501  13.651   4.561 -0.5480 -0.6186 -0.4816
  998MOL0     C31647   0.560  13.609   4.423  0.0844 -0.1606  0.0443
  998MOL0    Cl31648   0.418  13.603   4.316  0.0790 -0.1898  0.1472
  998MOL0     C31649   0.340  13.195   5.242  0.1775  0.7485 -0.0780
  998MOL0     C31650   0.310  13.063   5.277 -0.5825  0.6434 -0.5833
  998MOL0     O31651   0.307  12.775   5.170  1.0594  0.5938  0.8410
  998MOL0     C31652   0.281  12.526   5.293  0.7351  0.6813 -0.6706
  998MOL0     C31653   0.254  12.398   5.351  0.7747 -0.0712  0.1174
  998MOL0     N31654   0.082  11.710   5.671  0.2367 -0.6469 -0.3237
  998MOL0     N31655   0.185  11.647   5.622  0.4583 -0.3073  0.2097
  998MOL0     C31656   0.800  10.812   6.212  0.2781 -0.0989  0.2507
  998MOL0     C31657   0.876  10.757   6.318 -0.9931  0.6657 -1.1337
  998MOL0     C31658   1.154  10.685   6.630 -0.1144  0.3226  0.3328
  998MOL0     C31659   1.106  10.683   6.765  0.3882  0.0237 -0.4276
  998MOL0     C31660   1.176  10.622   6.866  0.4093  0.1204  0.0434
  998MOL0     C31661   1.293  10.549   6.840 -0.0209 -0.8711 -0.1555
  998MOL0     O31662   1.351  10.480   6.940 -0.1886 -0.2678  0.0828
  998MOL0     C31663   1.303  10.352   6.979  0.4428  0.4597  0.2175
  998MOL0     C31664   1.371  10.236   6.905 -0.4627 -0.0960  0.8291
  998MOL0     C31665   1.294  10.108   6.936 -0.7790  0.4965  0.1046
  998MOL0     C31666   1.282  10.055   7.086  0.8146 -0.1827  0.5842
  998MOL0     C31667   1.411  10.040   7.160 -0.6971  0.3841  0.8203
  998MOL0     C31668   1.510  10.027   7.235 -0.1384 -0.1348 -0.2225
  998MOL0     C31669   1.342  10.536   6.707 -0.2701 -0.4554  0.0254
  998MOL0     C31670   1.272  10.613   6.607 -0.9039  0.8002  0.1387
  998MOL0     H31671   0.731  10.907   6.578 -2.8300 -0.8656 -0.5137
  998MOL0     H31672   0.599  11.011   6.406  0.0590 -1.2822  2.0660
  998MOL0     H31673   0.620  10.789   6.008 -2.5005 -0.0764 -1.6605
  998MOL0     H31674   0.720  10.931   5.981 -2.3309  1.4947 -2.7043
  998MOL0     H31675   0.413  10.929   5.941  0.3853  0.2858 -2.5314
  998MOL0     H31676   0.531  10.928   5.821  1.2942 -0.9810  0.5973
  998MOL0     H31677   0.639  11.136   5.971 -0.3244  1.2080  0.0468
  998MOL0     H31678   0.479  11.142   6.030 -0.1512  1.8464 -0.3701
  998MOL0     H31679   0.561  11.138   5.733 -0.3788  1.5145 -0.1233
  998MOL0     H31680   0.398  11.159   5.785  0.2504 -1.6572 -1.3424
  998MOL0     H31681   0.623  11.346   5.868  1.2063 -0.3164 -2.9128
  998MOL0     H31682   0.463  11.356   5.931  0.8297  2.0386  0.4635
  998MOL0     H31683   0.366  11.407   5.713  0.0003  3.7096 -0.2359
  998MOL0     H31684   0.516  11.380   5.623  1.7926 -2.2076  1.1737
  998MOL0     H31685   0.462  11.590   5.847 -4.3114  0.1311 -2.0649
  998MOL0     H31686   0.605  11.580   5.749  0.1401  0.2788  2.2180
  998MOL0     H31687   0.422  11.590   5.555  2.2465 -2.5005  1.3269
  998MOL0     H31688   0.494  11.732   5.616  1.0680  0.3154  2.1015
  998MOL0     H31689   0.320  11.858   5.835 -0.8320  1.8704 -0.4790
  998MOL0     H31690   0.010  11.887   5.916  3.7354 -1.0521 -0.2325
  998MOL0     H31691  -0.085  11.879   5.789 -0.1131 -1.4251  0.8373
  998MOL0     H31692   0.155  12.070   5.836 -0.2327 -2.7221  2.1964
  998MOL0     H31693  -0.006  12.105   5.857  1.6044 -0.0782  0.3305
  998MOL0     H31694   0.117  12.035   5.577 -1.5634  0.3774 -2.7000
  998MOL0     H31695  -0.055  12.064   5.616  0.4178 -0.4568  3.1983
  998MOL0     H31696   0.082  12.292   5.695  0.3637 -0.1187  0.0876
  998MOL0     H31697  -0.055  12.258   5.578 -0.4043 -1.4459  2.0805
  998MOL0     H31698  -0.019  12.481   5.538 -2.2438  1.1815 -2.2296
  998MOL0     H31699   0.036  12.693   5.459 -1.2296  0.6108 -0.0536
  998MOL0     H31700  -0.011  13.051   5.177  0.3548  2.7166 -2.6695
  998MOL0     H31701   0.031  13.264   5.109 -0.2322 -0.2371  0.1693
  998MOL0     H31702   0.369  13.372   4.966  0.8295 -0.3819  0.5553
  998MOL0     H31703   0.466  13.417   5.112 -0.0668 -1.5030  0.5981
  998MOL0     H31704   0.355  13.637   5.096  4.1414  0.7593  1.3348
  998MOL0     H31705   0.270  13.577   4.954 -0.1588  2.3351  1.8216
  998MOL0     H31706   0.483  13.533   4.836  1.3123  0.1365  1.0645
  998MOL0     H31707   0.570  13.607   4.963 -0.1836  1.4968  0.7029
  998MOL0     H31708   0.373  13.774   4.799 -1.7121 -1.8608  1.8184
  998MOL0     H31709   0.468  13.811   4.948 -3.0334  0.7767  0.9131
  998MOL0     H31710   0.692  13.786   4.811 -0.3727  1.9218  1.1507
  998MOL0     H31711   0.592  13.886   4.715  0.4568 -0.7208 -0.8211
  998MOL0     H31712   0.662  13.589   4.699 -0.3643 -0.8971 -0.5008
  998MOL0     H31713   0.705  13.716   4.593 -1.8095  2.2964  0.7065
  998MOL0     H31714   0.436  13.575   4.604 -0.2345 -0.2707  0.6418
  998MOL0     H31715   0.452  13.748   4.551  1.3520  0.3192 -1.1960
  998MOL0     H31716   0.611  13.514   4.405 -2.0794 -0.8312 -3.6105
  998MOL0     H31717   0.627  13.685   4.382 -0.6004 -0.6887 -2.1963
  998MOL0     H31718   0.444  13.221   5.257  0.8721 -2.0402  0.5203
  998MOL0     H31719   0.389  12.997   5.313  0.3020  1.9741  0.0061
  998MOL0     H31720   0.361  12.522   5.219  0.6479 -4.1665 -0.8415
  998MOL0     H31721   0.307  12.306   5.328  1.0800 -0.1943  1.2912
  998MOL0     H31722   0.822  10.781   6.111 -0.9473 -1.7633  0.4560
  998MOL0     H31723   0.949  10.680   6.294 -0.1160  0.5512  1.6278
  998MOL0     H31724   1.015  10.737   6.787  0.3902  0.0278 -0.4294
  998MOL0     H31725   1.141  10.630   6.969  1.2517 -2.3743  0.6118
  998MOL0     H31726   1.201  10.344   6.941  1.8977  0.2789 -4.1292
  998MOL0     H31727   1.312  10.340   7.088  3.5706 -0.9506 -0.0771
  998MOL0     H31728   1.364  10.255   6.797  0.0737  1.4613  1.0347
  998MOL0     H31729   1.476  10.231   6.935  0.7159 -3.0447 -2.9935
  998MOL0     H31730   1.350  10.027   6.887 -1.0426  0.7968 -0.7151
  998MOL0     H31731   1.197  10.117   6.887  0.2880  3.2938 -1.7484
  998MOL0     H31732   1.212  10.116   7.144  2.4328  0.6982  1.6893
  998MOL0     H31733   1.238   9.955   7.075 -1.5358  0.9590 -1.4792
  998MOL0     H31734   1.593  10.012   7.300 -0.6231  1.3292  0.7861
  998MOL0     H31735   1.434  10.478   6.696 -1.5617 -3.0411  1.8386
  998MOL0     H31736   1.315  10.594   6.510 -1.7290  0.0620 -0.0950
  999MOL0     O31737   4.249   2.381   7.429 -0.2670  0.0065  0.4246
  999MOL0     C31738   4.176   2.400   7.528  1.6384 -0.0257 -0.9835
  999MOL0     O31739   4.223   2.421   7.655 -0.3227  0.2159 -0.5241
  999MOL0     C31740   4.356   2.435   7.653  0.0821  0.9960  0.1907
  999MOL0     C31741   4.429   2.343   7.731  0.5123  1.7695 -0.0002
  999MOL0     C31742   4.573   2.347   7.720  0.2825  1.0863  0.3327
  999MOL0     C31743   4.640   2.459   7.662 -0.2202  0.5097  0.7122
  999MOL0     O31744   4.776   2.472   7.672 -0.4330  0.8007  0.4446
  999MOL0     C31745   4.855   2.471   7.555 -1.1366  0.0751  0.1015
  999MOL0     C31746   4.998   2.436   7.594  0.2835  0.4452 -0.6234
  999MOL0     C31747   5.085   2.458   7.465  0.9092 -0.3367 -0.3189
  999MOL0     C31748   5.118   2.599   7.429  0.5026  0.0520 -0.2092
  999MOL0     C31749   5.234   2.607   7.333  0.3208  0.0296  0.4825
  999MOL0     C31750   5.202   2.525   7.204 -0.3734 -1.1071  0.2933
  999MOL0     C31751   5.309   2.550   7.104  0.6897 -0.0829  0.4047
  999MOL0     C31752   5.243   2.523   6.962  0.8305 -0.9452 -0.1997
  999MOL0     N31753   5.316   2.590   6.856 -0.0744 -0.5248  0.2503
  999MOL0     C31754   5.443   2.571   6.827 -0.5420 -0.2941  0.6039
  999MOL0     C31755   5.472   2.654   6.723 -0.3009 -1.0176 -0.3049
  999MOL0     C31756   5.598   2.637   6.635 -0.6013 -0.5907  0.1792
  999MOL0     C31757   5.576   2.543   6.508  0.2213 -0.7381  0.9923
  999MOL0     C31758   5.704   2.520   6.427 -0.9002  0.2392  0.1554
  999MOL0     C31759   5.823   2.476   6.514  0.2245  0.7561  0.9438
  999MOL0     O31760   5.917   2.413   6.426 -0.7771  0.0877  0.8070
  999MOL0     C31761   6.042   2.362   6.468 -0.1105 -0.3345 -0.2280
  999MOL0     C31762   6.059   2.313   6.595  0.2786 -0.2366 -0.1362
  999MOL0     C31763   6.179   2.266   6.641  0.3750  0.3909  0.2611
  999MOL0     C31764   6.297   2.275   6.552  0.8048 -0.8031  0.2442
  999MOL0     C31765   6.435   2.251   6.607  0.4052  0.5142 -0.1119
  999MOL0     O31766   6.536   2.308   6.542 -0.5223 -0.2701 -0.6724
  999MOL0     C31767   6.649   2.323   6.614  0.0692  0.3176 -0.0408
  999MOL0     C31768   6.764   2.311   6.539  1.0449 -0.2603  0.5990
  999MOL0     C31769   6.885   2.323   6.600  0.2800  0.6168  1.1513
  999MOL0     C31770   6.900   2.353   6.735 -0.3217 -0.3383 -0.2322
  999MOL0     O31771   7.031   2.379   6.780 -0.2020  0.7792 -0.6020
  999MOL0     C31772   7.050   2.413   6.914  0.1370 -0.1371 -0.4187
  999MOL0     C31773   7.199   2.409   6.954 -0.1469  0.3905  0.5700
  999MOL0     C31774   7.267   2.279   6.915  0.8824  0.1542 -0.6439
  999MOL0     C31775   7.413   2.255   6.963 -0.3977 -0.0942 -0.9014
  999MOL0     C31776   7.508   2.371   6.908 -0.0308  0.0985 -0.6642
  999MOL0     C31777   7.662   2.379   6.955  0.0511  0.8930 -1.5379
  999MOL0     C31778   7.728   2.259   6.893  0.3970  0.3821  0.0500
  999MOL0     C31779   7.877   2.277   6.899  0.0801 -1.0310  0.0254
  999MOL0    Cl31780   7.957   2.141   6.810 -0.2659  0.1932  0.2546
  999MOL0     C31781   6.784   2.384   6.812 -0.1366  0.2381  0.1179
  999MOL0     C31782   6.658   2.352   6.752  0.1411  0.3364  0.4975
  999MOL0     O31783   6.444   2.183   6.709  0.4483 -0.4567  0.6275
  999MOL0     C31784   6.276   2.339   6.422  0.5618  0.4013 -1.0415
  999MOL0     C31785   6.153   2.382   6.385  1.1236 -0.4449  0.1340
  999MOL0     N31786   5.362   2.737   6.708  0.3956 -1.1639  0.1272
  999MOL0     N31787   5.278   2.702   6.786  0.8745  0.2472  0.4912
  999MOL0     C31788   4.552   2.557   7.616  0.1445 -0.5120  0.1946
  999MOL0     C31789   4.414   2.547   7.602  0.2523  0.3627 -0.2415
  999MOL0     C31790   4.031   2.386   7.519 -0.6468  0.3078 -0.5692
  999MOL0     C31791   3.971   2.339   7.397 -0.4889 -0.3709  0.0536
  999MOL0     C31792   3.830   2.341   7.393 -0.5534  0.1625  0.2456
  999MOL0     C31793   3.754   2.385   7.499 -0.3279  0.9650 -0.4073
  999MOL0     O31794   3.622   2.385   7.483 -0.9741 -0.4141  1.0009
  999MOL0     C31795   3.558   2.254   7.489  0.5980 -0.9644  0.9936
  999MOL0     C31796   3.435   2.282   7.570 -0.3889  0.2457 -0.4257
  999MOL0     C31797   3.311   2.211   7.512  0.2560  0.2999 -1.0781
  999MOL0     C31798   3.293   2.076   7.582  1.4410  0.4676  0.0918
  999MOL0     C31799   3.174   2.004   7.522 -0.6295  0.1312  0.4462
  999MOL0     C31800   3.090   1.941   7.462 -0.1506  0.4864 -0.3590
  999MOL0     C31801   3.810   2.425   7.617  0.2132  0.5705 -0.4288
  999MOL0     C31802   3.947   2.421   7.629  0.1563  0.4937 -0.0411
  999MOL0     H31803   4.374   2.263   7.779  3.0209  0.6905  1.3048
  999MOL0     H31804   4.641   2.276   7.767 -1.1208 -0.4893  0.0541
  999MOL0     H31805   4.852   2.569   7.507 -0.7945  0.9488  1.7828
  999MOL0     H31806   4.817   2.388   7.495 -2.3340  0.7814 -0.1482
  999MOL0     H31807   5.000   2.333   7.629 -0.4552  1.8030  4.2509
  999MOL0     H31808   5.045   2.482   7.681  0.8005 -1.8481  0.3774
  999MOL0     H31809   5.028   2.404   7.389  1.4053  1.2619 -1.8924
  999MOL0     H31810   5.178   2.403   7.485  1.3223 -0.5217 -2.4624
  999MOL0     H31811   5.029   2.652   7.392 -0.2054 -1.5215 -0.8702
  999MOL0     H31812   5.147   2.646   7.523  2.7748 -2.1742  0.2913
  999MOL0     H31813   5.318   2.558   7.381 -0.4599 -0.5826  1.2659
  999MOL0     H31814   5.249   2.710   7.300 -1.6654 -0.0096 -0.7521
  999MOL0     H31815   5.100   2.556   7.182 -0.8360 -0.6012  2.8581
  999MOL0     H31816   5.197   2.416   7.216 -0.3381 -1.3991 -1.9749
  999MOL0     H31817   5.339   2.655   7.116 -0.7040  0.2289  1.5005
  999MOL0     H31818   5.400   2.491   7.112  1.2930  0.6852 -0.4973
  999MOL0     H31819   5.141   2.561   6.945  1.4792 -0.2365 -2.8741
  999MOL0     H31820   5.221   2.417   6.951  0.5160 -0.7792 -1.2635
  999MOL0     H31821   5.501   2.493   6.875  1.2118  0.2732 -0.5306
  999MOL0     H31822   5.683   2.599   6.692  1.6259  0.9536 -1.9070
  999MOL0     H31823   5.626   2.736   6.596  0.6998 -1.9993 -2.7264
  999MOL0     H31824   5.513   2.601   6.440 -0.6948  1.6239  3.6278
  999MOL0     H31825   5.534   2.448   6.540 -0.9741 -0.6848 -0.3134
  999MOL0     H31826   5.693   2.444   6.350  2.0207 -0.4442  0.2901
  999MOL0     H31827   5.751   2.600   6.369  0.2893 -0.9080 -0.5199
  999MOL0     H31828   5.780   2.392   6.570 -2.0959  0.8335 -0.5565
  999MOL0     H31829   5.870   2.549   6.580 -1.9388  0.4627  2.9634
  999MOL0     H31830   5.978   2.309   6.666  1.4022 -0.4005  1.1750
  999MOL0     H31831   6.194   2.226   6.741 -0.4097  2.2415  1.1669
  999MOL0     H31832   6.771   2.286   6.434 -1.1173  0.4786  0.2177
  999MOL0     H31833   6.970   2.289   6.541  0.2642 -0.2510  1.6061
  999MOL0     H31834   7.010   2.340   6.985  0.4473 -0.6804 -0.7936
  999MOL0     H31835   6.996   2.505   6.937 -2.3872 -1.4807 -0.6661
  999MOL0     H31836   7.212   2.440   7.058  2.6837  0.8264  0.1491
  999MOL0     H31837   7.253   2.484   6.895  0.5138 -0.2091  0.4005
  999MOL0     H31838   7.267   2.272   6.805 -0.9728 -3.7375 -0.5608
  999MOL0     H31839   7.206   2.198   6.956  1.2787  0.1395 -0.0799
  999MOL0     H31840   7.410   2.272   7.071 -1.7144  2.0174 -1.1973
  999MOL0     H31841   7.447   2.158   6.927 -1.2027 -0.1223 -1.6232
  999MOL0     H31842   7.465   2.464   6.944 -2.3444 -1.5260  1.0881
  999MOL0     H31843   7.501   2.368   6.799 -3.9997 -1.6442 -0.5365
  999MOL0     H31844   7.668   2.386   7.064  1.1584 -1.3558 -1.4008
  999MOL0     H31845   7.707   2.471   6.917  1.6953  1.2674  1.0773
  999MOL0     H31846   7.693   2.170   6.945 -2.9399  0.8200 -1.1953
  999MOL0     H31847   7.694   2.243   6.790 -0.5721  0.8641  0.2772
  999MOL0     H31848   7.909   2.290   7.003 -0.1504 -0.0094 -0.0215
  999MOL0     H31849   7.897   2.370   6.847 -1.7375  0.0334  1.1056
  999MOL0     H31850   6.781   2.427   6.911  0.3715  0.4761  0.0340
  999MOL0     H31851   6.567   2.367   6.810  0.6453  0.7646  1.1921
  999MOL0     H31852   6.366   2.359   6.365  3.4043  1.4584  3.3571
  999MOL0     H31853   6.155   2.434   6.290  1.5377  0.3548  0.5668
  999MOL0     H31854   4.598   2.648   7.581  0.4623 -0.6946  0.1368
  999MOL0     H31855   4.364   2.639   7.571 -1.9753 -0.2335  1.3335
  999MOL0     H31856   4.029   2.311   7.310  0.8333  0.8582  0.4944
  999MOL0     H31857   3.780   2.305   7.304  0.0259 -0.6274  0.2219
  999MOL0     H31858   3.623   2.179   7.535 -0.0336 -1.1939  1.5213
  999MOL0     H31859   3.534   2.231   7.385 -1.7487 -1.9723  1.7122
  999MOL0     H31860   3.455   2.262   7.675  0.0662 -1.4744 -0.8069
  999MOL0     H31861   3.410   2.388   7.567 -0.1065  0.2900 -1.6158
  999MOL0     H31862   3.310   2.201   7.403 -1.7398 -2.9773 -0.8935
  999MOL0     H31863   3.217   2.265   7.531 -1.8976 -2.4816 -3.0411
  999MOL0     H31864   3.383   2.014   7.578  0.6304 -0.8083  1.0901
  999MOL0     H31865   3.272   2.091   7.688  0.6452 -0.6647  0.1115
  999MOL0     H31866   3.019   1.872   7.422 -0.7031  0.9231 -0.1415
  999MOL0     H31867   3.747   2.458   7.699  0.5288  1.2084 -0.4385
  999MOL0     H31868   3.988   2.457   7.723  0.6212 -0.7501  0.2491
 1000MOL0     O31869   9.319   5.442   4.077  0.0796  0.4616  0.3120
 1000MOL0     C31870   9.405   5.374   4.026  0.4378 -0.1657  0.0191
 1000MOL0     O31871   9.380   5.296   3.919 -0.2556  0.0298  0.0331
 1000MOL0     C31872   9.261   5.288   3.855  0.7532  0.0004 -0.0751
 1000MOL0     C31873   9.206   5.406   3.799 -0.1737 -0.3905 -0.2218
 1000MOL0     C31874   9.085   5.395   3.737 -0.3218 -0.7307 -0.4486
 1000MOL0     C31875   9.020   5.271   3.716 -0.1907 -0.4580 -0.1073
 1000MOL0     O31876   8.901   5.254   3.645  0.1714 -0.9031  0.2541
 1000MOL0     C31877   8.824   5.377   3.622  0.6361  0.2403 -0.2399
 1000MOL0     C31878   8.677   5.353   3.571 -0.3902  0.0841 -0.3638
 1000MOL0     C31879   8.615   5.255   3.669  1.1875 -0.4931  0.8251
 1000MOL0     C31880   8.463   5.244   3.643 -0.4146  0.5737 -0.1549
 1000MOL0     C31881   8.408   5.098   3.697 -0.0561  1.0460  1.0668
 1000MOL0     C31882   8.422   5.087   3.847  0.1694 -0.4200  0.0406
 1000MOL0     C31883   8.345   5.194   3.927 -0.2801  0.2948  1.3016
 1000MOL0     C31884   8.344   5.171   4.079 -0.2104  0.2567 -0.4573
 1000MOL0     N31885   8.293   5.288   4.150  0.7584 -0.1693  0.2419
 1000MOL0     C31886   8.359   5.403   4.159 -0.7514  0.9744 -0.9537
 1000MOL0     C31887   8.280   5.489   4.228  0.3238  0.8341 -0.8412
 1000MOL0     C31888   8.309   5.628   4.261 -0.4714  0.2579  0.1245
 1000MOL0     C31889   8.423   5.660   4.360 -0.9084 -0.3864 -0.2860
 1000MOL0     C31890   8.417   5.618   4.504 -0.3480 -0.4171 -0.6574
 1000MOL0     C31891   8.347   5.487   4.542  1.1579  0.0467 -0.6281
 1000MOL0     O31892   8.368   5.446   4.678  1.1113  0.5536 -0.8151
 1000MOL0     C31893   8.321   5.324   4.720  0.5224 -0.5794  0.4141
 1000MOL0     C31894   8.324   5.294   4.855  0.1812 -0.3657  0.0632
 1000MOL0     C31895   8.282   5.172   4.915  0.0838 -0.5980  0.1615
 1000MOL0     C31896   8.220   5.084   4.828 -0.0572  0.4159  0.2403
 1000MOL0     C31897   8.179   4.947   4.872 -0.0389  0.0131 -0.0801
 1000MOL0     O31898   8.178   4.930   5.006  0.2152  0.1504 -0.6314
 1000MOL0     C31899   8.124   4.816   5.052 -0.1074 -0.4282 -0.9701
 1000MOL0     C31900   8.202   4.701   5.049 -0.9100  0.0368 -0.0024
 1000MOL0     C31901   8.160   4.588   5.110 -0.2326  0.1396  0.1612
 1000MOL0     C31902   8.042   4.593   5.179  1.0506  0.4971 -0.2381
 1000MOL0     O31903   8.007   4.475   5.237 -0.1070  0.7463 -0.3229
 1000MOL0     C31904   7.871   4.424   5.245 -0.1840 -0.6275 -0.4633
 1000MOL0     C31905   7.826   4.378   5.122  0.0789  0.1591  0.0715
 1000MOL0     C31906   7.700   4.292   5.127 -0.2530 -0.2688  0.1556
 1000MOL0     C31907   7.662   4.264   4.981 -0.6023  0.1554  0.8404
 1000MOL0     C31908   7.521   4.196   4.964  0.2245  0.1168  0.6479
 1000MOL0     C31909   7.472   4.205   4.814 -0.8922  0.7302 -0.9777
 1000MOL0     C31910   7.352   4.109   4.789 -0.5466  0.5265  0.3346
 1000MOL0     C31911   7.393   4.002   4.689  0.2380 -0.7836  0.3669
 1000MOL0    Cl31912   7.238   3.931   4.646  0.1524 -0.2685  0.1406
 1000MOL0     C31913   7.965   4.715   5.189 -0.2935 -0.6693  0.3611
 1000MOL0     C31914   8.006   4.832   5.117  0.4928  0.6456 -0.2800
 1000MOL0     O31915   8.144   4.864   4.790 -0.2798  1.1645 -0.9309
 1000MOL0     C31916   8.221   5.112   4.691  0.1075  1.9237  0.7866
 1000MOL0     C31917   8.274   5.226   4.634 -0.0888  0.7953 -0.3843
 1000MOL0     N31918   8.161   5.424   4.250 -0.2105 -0.8453  0.2226
 1000MOL0     N31919   8.171   5.301   4.215  0.0846  0.3213  0.4489
 1000MOL0     C31920   9.070   5.156   3.785 -0.2674 -0.2397 -0.2293
 1000MOL0     C31921   9.194   5.166   3.844  0.2894 -0.9711 -0.1961
 1000MOL0     C31922   9.539   5.372   4.094 -0.4492 -0.4227  0.6503
 1000MOL0     C31923   9.642   5.291   4.051 -0.5446  0.3538  0.0040
 1000MOL0     C31924   9.772   5.302   4.101 -0.0660  0.4643 -0.0113
 1000MOL0     C31925   9.792   5.399   4.200  0.1325 -0.3961  0.1223
 1000MOL0     O31926   9.921   5.419   4.249  0.6248  0.8229 -0.4536
 1000MOL0     C31927  10.031   5.405   4.161 -0.3758  0.7612 -1.0342
 1000MOL0     C31928  10.141   5.488   4.221  0.6949 -0.6480  0.0920
 1000MOL0     C31929  10.199   5.430   4.346  0.5185 -0.2406 -0.4139
 1000MOL0     C31930  10.341   5.482   4.365 -0.0170 -1.0179 -0.4057
 1000MOL0     C31931  10.350   5.629   4.386 -0.5624  0.3123 -0.9873
 1000MOL0     C31932  10.360   5.745   4.375 -0.1987 -0.0605  0.1970
 1000MOL0     C31933   9.696   5.484   4.251  0.3437  0.0841  0.1487
 1000MOL0     C31934   9.568   5.465   4.193 -0.0119 -0.2488 -1.7306
 1000MOL0     H31935   9.252   5.504   3.807  0.5207 -0.7599  0.3690
 1000MOL0     H31936   9.046   5.482   3.686 -0.5253 -0.1501  0.6678
 1000MOL0     H31937   8.869   5.449   3.553 -0.6651  1.0758 -0.2429
 1000MOL0     H31938   8.823   5.436   3.714 -1.9862  2.1026 -1.3264
 1000MOL0     H31939   8.676   5.305   3.473 -0.2867 -1.4367  0.3461
 1000MOL0     H31940   8.616   5.444   3.577 -1.5891 -0.1124 -5.2638
 1000MOL0     H31941   8.624   5.303   3.766 -3.0043 -0.2831  1.2987
 1000MOL0     H31942   8.657   5.155   3.652 -2.7116 -2.4064  1.1238
 1000MOL0     H31943   8.417   5.331   3.690  1.0348  1.1707  0.2291
 1000MOL0     H31944   8.429   5.241   3.539 -2.1501  1.8041  0.3338
 1000MOL0     H31945   8.454   5.012   3.649 -1.1410  1.7641 -1.4292
 1000MOL0     H31946   8.301   5.087   3.677  0.5973  0.9591 -3.4136
 1000MOL0     H31947   8.528   5.103   3.871 -0.7507  2.1889  2.9823
 1000MOL0     H31948   8.405   4.983   3.877 -0.5954 -1.6447 -4.0702
 1000MOL0     H31949   8.392   5.289   3.897 -1.4245  0.1762 -1.1092
 1000MOL0     H31950   8.242   5.196   3.892  0.8165 -3.5132 -3.2532
 1000MOL0     H31951   8.440   5.140   4.122 -0.3850 -0.6494 -0.6992
 1000MOL0     H31952   8.274   5.089   4.095 -1.0919  1.1361  0.4157
 1000MOL0     H31953   8.455   5.421   4.113 -0.3232  0.5045 -0.2632
 1000MOL0     H31954   8.212   5.673   4.288 -1.0803 -0.6593 -0.4756
 1000MOL0     H31955   8.338   5.671   4.165 -0.0534 -0.6835 -0.1762
 1000MOL0     H31956   8.448   5.766   4.353  2.3697 -1.0925 -0.4594
 1000MOL0     H31957   8.514   5.615   4.321 -0.1578  0.2461  0.6961
 1000MOL0     H31958   8.519   5.619   4.544 -0.2821  3.7755 -0.5534
 1000MOL0     H31959   8.364   5.691   4.564 -3.5131 -1.0096 -2.4923
 1000MOL0     H31960   8.391   5.413   4.475  0.4560  1.2742 -2.5094
 1000MOL0     H31961   8.241   5.493   4.515  1.2476 -1.7141 -1.4983
 1000MOL0     H31962   8.361   5.371   4.921  0.8016 -0.4433 -0.1867
 1000MOL0     H31963   8.305   5.150   5.019 -0.2153 -0.4938  0.2488
 1000MOL0     H31964   8.301   4.699   5.005 -0.7390 -3.3150  0.3410
 1000MOL0     H31965   8.234   4.510   5.122 -0.0439  0.5405  1.7740
 1000MOL0     H31966   7.809   4.511   5.270 -0.6534 -1.4725  1.4605
 1000MOL0     H31967   7.860   4.347   5.322 -1.6137  1.5985  1.7359
 1000MOL0     H31968   7.907   4.314   5.085 -1.0104 -1.0419 -0.3008
 1000MOL0     H31969   7.816   4.460   5.050  3.4917 -0.4481 -1.2776
 1000MOL0     H31970   7.620   4.346   5.179  1.0625  1.9059  0.0416
 1000MOL0     H31971   7.725   4.195   5.172  3.9503 -0.7456 -2.6176
 1000MOL0     H31972   7.667   4.358   4.927  0.4608  1.1760  2.6289
 1000MOL0     H31973   7.739   4.198   4.940 -0.2688 -1.7797  4.2193
 1000MOL0     H31974   7.456   4.260   5.024  0.1818 -1.8558  2.7982
 1000MOL0     H31975   7.514   4.102   5.018 -1.4956  0.8653  1.7992
 1000MOL0     H31976   7.554   4.196   4.743  0.5772 -1.2668  0.8184
 1000MOL0     H31977   7.429   4.306   4.807  1.5383  2.9392  6.1459
 1000MOL0     H31978   7.297   4.064   4.872 -0.1407  0.4887  0.5821
 1000MOL0     H31979   7.263   4.160   4.749 -1.9796 -2.1333 -0.1421
 1000MOL0     H31980   7.466   3.927   4.723 -0.4589 -0.8313  1.8262
 1000MOL0     H31981   7.428   4.061   4.604  1.2099  0.4944  1.6051
 1000MOL0     H31982   7.881   4.727   5.258  0.1956  0.2886  0.8067
 1000MOL0     H31983   7.960   4.930   5.112  1.5986  1.1147 -3.4067
 1000MOL0     H31984   8.190   5.036   4.620  0.3503  3.1238 -0.6513
 1000MOL0     H31985   8.269   5.236   4.526 -3.8524 -0.6796 -0.4761
 1000MOL0     H31986   9.014   5.063   3.791  1.1964 -1.0773  3.0668
 1000MOL0     H31987   9.230   5.072   3.885  1.0206 -0.6063  0.0163
 1000MOL0     H31988   9.621   5.225   3.968  0.6127  2.5914 -2.2128
 1000MOL0     H31989   9.854   5.245   4.059 -2.2941 -0.5717 -3.3547
 1000MOL0     H31990  10.014   5.425   4.055  0.1679 -1.2358 -1.5528
 1000MOL0     H31991  10.058   5.299   4.166 -1.1860  0.5935  1.8155
 1000MOL0     H31992  10.216   5.507   4.145  0.6557 -0.8019  0.0126
 1000MOL0     H31993  10.089   5.578   4.256 -3.7057 -2.0734 -2.0407
 1000MOL0     H31994  10.211   5.322   4.335 -0.8885 -0.3840 -0.7052
 1000MOL0     H31995  10.137   5.433   4.435 -0.8829 -0.7083 -1.3454
 1000MOL0     H31996  10.393   5.423   4.441  1.1101 -0.0711 -0.4003
 1000MOL0     H31997  10.404   5.462   4.278  1.6570  0.0381  0.4973
 1000MOL0     H31998  10.385   5.849   4.384  0.9357 -0.4361  1.9058
 1000MOL0     H31999   9.709   5.562   4.325 -5.2344  1.5604 -0.0037
 1000MOL0     H32000   9.487   5.532   4.222 -0.1062 -0.6327 -1.1014
 1001MOL0     O32001   3.378   7.003  10.678  0.6449  0.2717 -0.9602
 1001MOL0     C32002   3.430   7.113  10.669  1.0147 -0.6056 -0.8221
 1001MOL0     O32003   3.365   7.229  10.711 -0.0466 -0.1179 -0.1026
 1001MOL0     C32004   3.262   7.213  10.803  0.1954 -0.6924  0.2440
 1001MOL0     C32005   3.285   7.182  10.935 -0.1577  0.0803 -0.5656
 1001MOL0     C32006   3.187   7.198  11.037  0.1697  0.1065  0.4691
 1001MOL0     C32007   3.059   7.236  10.997  0.1515  0.4251  0.6892
 1001MOL0     O32008   2.964   7.249  11.098  0.3399 -0.1091 -0.5838
 1001MOL0     C32009   2.827   7.244  11.060 -0.9556 -0.1925  0.2084
 1001MOL0     C32010   2.780   7.116  11.007  0.7440  0.2380 -0.3234
 1001MOL0     C32011   2.829   7.009  11.114 -0.3783  0.6292  0.4585
 1001MOL0     C32012   2.789   6.857  11.078 -0.2121 -0.5668 -0.4200
 1001MOL0     C32013   2.856   6.818  10.947 -0.0134  0.3054 -0.5747
 1001MOL0     C32014   3.015   6.844  10.945  0.0175 -0.3395  0.0093
 1001MOL0     C32015   3.070   6.792  10.813  0.0057  0.3232  0.6928
 1001MOL0     C32016   3.108   6.642  10.808  0.6170 -0.5024  0.7582
 1001MOL0     N32017   3.196   6.609  10.917  0.4987  0.2227 -0.2308
 1001MOL0     C32018   3.329   6.612  10.914  0.2849  0.3812  0.4137
 1001MOL0     C32019   3.382   6.531  11.014 -0.0215 -0.3527  0.2813
 1001MOL0     C32020   3.526   6.498  11.020 -0.1973 -0.8571 -0.1602
 1001MOL0     C32021   3.604   6.524  10.893 -0.2250 -0.1629  0.2381
 1001MOL0     C32022   3.738   6.445  10.873  0.8104 -0.2952 -0.0525
 1001MOL0     C32023   3.830   6.490  10.773 -0.2561 -0.2076 -0.3248
 1001MOL0     O32024   3.846   6.635  10.793 -0.2368 -0.1599  0.3254
 1001MOL0     C32025   3.959   6.708  10.758 -0.6938  0.5797  1.0973
 1001MOL0     C32026   3.982   6.834  10.821  0.1523  0.3027 -0.4648
 1001MOL0     C32027   4.103   6.904  10.800  0.0974  0.7622 -0.7616
 1001MOL0     C32028   4.196   6.847  10.713  0.8944  0.2046  0.6109
 1001MOL0     C32029   4.334   6.915  10.698  1.0603  1.1485  0.5042
 1001MOL0     O32030   4.355   7.023  10.774 -0.4804  0.0139 -0.0420
 1001MOL0     C32031   4.487   7.065  10.773  1.3954  0.2246 -0.4558
 1001MOL0     C32032   4.569   6.990  10.859 -0.3043 -0.2699 -0.4851
 1001MOL0     C32033   4.707   7.008  10.858 -0.3428 -0.4672 -0.0272
 1001MOL0     C32034   4.767   7.105  10.781  0.1496  0.2813  1.0034
 1001MOL0     O32035   4.902   7.137  10.779  0.0662 -0.3174 -0.6648
 1001MOL0     C32036   4.993   7.099  10.885 -0.6908  1.1041 -0.6811
 1001MOL0     C32037   5.127   7.187  10.863  0.6231  0.3296 -0.1810
 1001MOL0     C32038   5.237   7.159  10.964  0.0147 -0.3319 -0.1785
 1001MOL0     C32039   5.283   7.007  10.975 -0.3821 -0.3455 -0.2051
 1001MOL0     C32040   5.418   7.000  11.058  0.1501 -0.8885  0.7389
 1001MOL0     C32041   5.511   6.898  11.017 -0.0480  0.3874  0.1409
 1001MOL0     C32042   5.648   6.916  11.083 -1.0523 -0.4160 -0.1124
 1001MOL0     C32043   5.729   6.787  11.088  0.5047 -1.3666  0.2913
 1001MOL0    Cl32044   5.877   6.838  11.187 -0.0540  0.3493  0.2286
 1001MOL0     C32045   4.686   7.184  10.698  0.1705  0.9982 -0.1963
 1001MOL0     C32046   4.543   7.171  10.697  0.5250  0.4795  0.4437
 1001MOL0     O32047   4.419   6.855  10.632 -0.8532  0.4545 -0.5547
 1001MOL0     C32048   4.173   6.732  10.646 -0.6923  0.1065 -0.7625
 1001MOL0     C32049   4.050   6.667  10.658 -0.2864 -0.2096 -0.1963
 1001MOL0     N32050   3.267   6.497  11.083 -0.6161 -0.2566 -0.3294
 1001MOL0     N32051   3.159   6.556  11.038  0.1864 -0.3033  0.0536
 1001MOL0     C32052   3.036   7.273  10.862 -0.5703 -0.0143 -0.5600
 1001MOL0     C32053   3.135   7.263  10.767 -0.1676 -0.0786  0.3377
 1001MOL0     C32054   3.565   7.115  10.605 -0.2621  0.5605  0.3156
 1001MOL0     C32055   3.618   7.234  10.572 -0.1925 -0.1274  0.6723
 1001MOL0     C32056   3.738   7.253  10.507 -0.2962  0.6683  0.4004
 1001MOL0     C32057   3.826   7.132  10.501 -0.6621 -0.1763 -0.0405
 1001MOL0     O32058   3.966   7.138  10.482 -0.4523 -0.1033  0.3894
 1001MOL0     C32059   4.045   7.254  10.480  0.3657  0.6986  0.0006
 1001MOL0     C32060   4.166   7.211  10.407  0.1381  0.6097  0.5928
 1001MOL0     C32061   4.276   7.312  10.394  0.2364 -0.3621 -0.7168
 1001MOL0     C32062   4.374   7.290  10.280 -0.0962  0.3996  0.2133
 1001MOL0     C32063   4.484   7.383  10.279  0.2718 -0.4843  0.0444
 1001MOL0     C32064   4.563   7.474  10.285  0.2095 -0.5404  0.5858
 1001MOL0     C32065   3.773   7.008  10.546 -0.0968 -0.1523 -0.1188
 1001MOL0     C32066   3.640   6.999  10.582 -0.3653  0.1925 -0.6961
 1001MOL0     H32067   3.385   7.148  10.961 -0.4245  0.0769  0.5131
 1001MOL0     H32068   3.207   7.168  11.139  1.0726  1.5046  0.7245
 1001MOL0     H32069   2.807   7.322  10.985  1.2282  0.5635  0.3455
 1001MOL0     H32070   2.764   7.264  11.147  1.6948  1.7866  1.8523
 1001MOL0     H32071   2.825   7.085  10.912  1.2168  1.7049 -0.5994
 1001MOL0     H32072   2.671   7.120  11.003  0.6075 -2.2131 -0.9262
 1001MOL0     H32073   2.786   7.038  11.210 -2.1194 -0.8336  0.1762
 1001MOL0     H32074   2.935   7.004  11.140  0.3679 -0.5644 -2.3717
 1001MOL0     H32075   2.813   6.791  11.161 -3.0248 -2.8136 -1.2177
 1001MOL0     H32076   2.681   6.851  11.062 -0.3557  0.8158 -0.0754
 1001MOL0     H32077   2.799   6.872  10.870  0.4645  2.5932  0.6021
 1001MOL0     H32078   2.844   6.712  10.926 -1.7856  0.6066 -1.2825
 1001MOL0     H32079   3.063   6.804  11.035 -0.6667  0.6299  0.8434
 1001MOL0     H32080   3.041   6.950  10.940  1.4448 -0.7392 -2.2789
 1001MOL0     H32081   3.004   6.826  10.733 -3.2568  0.9600  3.3814
 1001MOL0     H32082   3.160   6.854  10.803  2.2814 -2.9256 -0.4710
 1001MOL0     H32083   3.156   6.630  10.710 -2.0784 -0.0920 -0.7194
 1001MOL0     H32084   3.019   6.579  10.813 -0.6810  1.2072  0.2537
 1001MOL0     H32085   3.383   6.645  10.826  2.0707 -2.0252  0.4898
 1001MOL0     H32086   3.519   6.391  11.041 -4.1960 -1.3573 -2.9656
 1001MOL0     H32087   3.578   6.555  11.098  0.9185 -0.3612 -1.2171
 1001MOL0     H32088   3.628   6.630  10.882  1.6763 -0.5209  0.6111
 1001MOL0     H32089   3.535   6.506  10.810 -1.0698  0.2354  0.8393
 1001MOL0     H32090   3.791   6.452  10.968 -0.7509 -2.0538  1.0012
 1001MOL0     H32091   3.722   6.339  10.853 -1.5230  0.4156 -2.6916
 1001MOL0     H32092   3.801   6.455  10.673  1.7273 -2.1424 -0.2956
 1001MOL0     H32093   3.927   6.442  10.788 -0.1669  0.8647  3.3722
 1001MOL0     H32094   3.919   6.887  10.892  0.9981  1.2898 -0.4200
 1001MOL0     H32095   4.125   6.995  10.855  0.4811  1.6001 -2.2364
 1001MOL0     H32096   4.540   6.909  10.926 -1.8820  0.0205 -0.7880
 1001MOL0     H32097   4.767   6.940  10.919 -0.2869  1.6224  2.4131
 1001MOL0     H32098   5.017   6.992  10.882  2.9251  1.8107 -3.3808
 1001MOL0     H32099   4.955   7.129  10.983  1.4852  0.3838  0.4531
 1001MOL0     H32100   5.104   7.293  10.877  0.6360  0.0397  2.4446
 1001MOL0     H32101   5.170   7.172  10.763  1.0340  0.8281 -0.0790
 1001MOL0     H32102   5.199   7.181  11.065  0.3536  1.2546 -0.3689
 1001MOL0     H32103   5.318   7.225  10.932 -1.3162  0.9531 -1.0465
 1001MOL0     H32104   5.211   6.943  11.027 -2.4376 -0.2775 -2.7728
 1001MOL0     H32105   5.298   6.959  10.878  1.1133  0.5066 -0.4190
 1001MOL0     H32106   5.395   6.984  11.164 -1.6262  0.2649  0.5822
 1001MOL0     H32107   5.466   7.098  11.051 -1.2803 -0.2552 -0.8410
 1001MOL0     H32108   5.535   6.893  10.911  0.5511  1.1088  0.2381
 1001MOL0     H32109   5.478   6.796  11.041 -0.5767  0.0734 -1.8059
 1001MOL0     H32110   5.701   6.988  11.020  0.6674 -0.9244  0.7101
 1001MOL0     H32111   5.643   6.956  11.185  2.0222  0.9267 -0.3897
 1001MOL0     H32112   5.757   6.753  10.987 -2.0917 -0.4070 -0.8325
 1001MOL0     H32113   5.680   6.705  11.141  3.3155 -1.9957  2.1593
 1001MOL0     H32114   4.737   7.253  10.632 -2.3672  3.9873  0.7603
 1001MOL0     H32115   4.475   7.239  10.647  0.6079  0.3118  0.1051
 1001MOL0     H32116   4.253   6.693  10.583 -0.9567  0.1077 -1.1025
 1001MOL0     H32117   4.049   6.570  10.609  0.1404 -0.0160 -0.5918
 1001MOL0     H32118   2.936   7.305  10.836 -0.7916  0.2920  0.5833
 1001MOL0     H32119   3.123   7.293  10.664  1.6555 -3.6591 -1.0925
 1001MOL0     H32120   3.571   7.326  10.606 -1.9534 -1.2197  1.3381
 1001MOL0     H32121   3.776   7.348  10.471  2.4823 -0.6301 -0.2980
 1001MOL0     H32122   4.054   7.280  10.586 -2.8448 -1.2825  0.8555
 1001MOL0     H32123   3.996   7.342  10.437  1.8873  1.0844 -1.0618
 1001MOL0     H32124   4.205   7.118  10.449 -1.9341 -0.9729 -0.7523
 1001MOL0     H32125   4.133   7.180  10.307 -0.4249  1.0767  0.6276
 1001MOL0     H32126   4.324   7.320  10.492 -2.2662  2.0024  0.4738
 1001MOL0     H32127   4.217   7.401  10.372  0.6343  0.0311 -0.1878
 1001MOL0     H32128   4.408   7.186  10.285 -1.1244  0.1033  1.6423
 1001MOL0     H32129   4.323   7.296  10.183 -0.6897  1.2726  0.5717
 1001MOL0     H32130   4.634   7.553  10.274  1.1150 -1.4637 -0.3726
 1001MOL0     H32131   3.839   6.923  10.533  0.5248 -0.0588  2.0610
 1001MOL0     H32132   3.596   6.901  10.596 -1.0748  0.3959 -1.4392
 1002MOL0     O32133   0.363   7.544   1.065  0.1074  0.3826  0.3318
 1002MOL0     C32134   0.373   7.542   0.938  0.8953  0.3023  0.4670
 1002MOL0     O32135   0.289   7.474   0.854 -0.3513  0.1454 -0.3504
 1002MOL0     C32136   0.184   7.404   0.905 -0.3791 -0.4024 -0.1720
 1002MOL0     C32137   0.193   7.316   1.015 -0.4577 -0.7867 -0.5467
 1002MOL0     C32138   0.070   7.245   1.051  0.1865 -0.1665 -0.1273
 1002MOL0     C32139  -0.050   7.279   0.993  0.0645 -0.0268 -0.2285
 1002MOL0     O32140  -0.168   7.218   1.014  0.2782  0.2463  0.1244
 1002MOL0     C32141  -0.179   7.116   1.109  1.3890  0.7859 -0.3837
 1002MOL0     C32142  -0.326   7.092   1.109 -0.1588 -0.3182  0.1725
 1002MOL0     C32143  -0.362   6.961   1.180 -0.1398 -0.7497  0.2036
 1002MOL0     C32144  -0.505   6.953   1.223  0.0687  0.4401 -0.0089
 1002MOL0     C32145  -0.560   6.824   1.288  0.5285 -0.9832  0.8280
 1002MOL0     C32146  -0.468   6.772   1.402  1.0939 -0.1129 -0.1251
 1002MOL0     C32147  -0.548   6.679   1.491 -0.3705 -0.1438  0.2165
 1002MOL0     C32148  -0.559   6.532   1.456 -0.0117 -0.5270  0.4984
 1002MOL0     N32149  -0.602   6.438   1.566  0.1161 -0.3330 -1.0978
 1002MOL0     C32150  -0.580   6.441   1.703 -0.2428 -0.3689  0.5128
 1002MOL0     C32151  -0.626   6.325   1.750  0.3723 -0.0869  0.2415
 1002MOL0     C32152  -0.630   6.279   1.885 -0.1406 -0.0665  0.5959
 1002MOL0     C32153  -0.764   6.314   1.944  0.4124  0.1385 -0.2941
 1002MOL0     C32154  -0.796   6.226   2.067  0.3324  0.5787 -0.4136
 1002MOL0     C32155  -0.929   6.239   2.141  0.9358 -0.7043  0.5997
 1002MOL0     O32156  -0.910   6.343   2.232 -0.1556 -0.3778  0.5763
 1002MOL0     C32157  -1.009   6.369   2.313  0.5675 -0.2144  0.0709
 1002MOL0     C32158  -1.000   6.483   2.388  0.7105 -0.5588 -0.1671
 1002MOL0     C32159  -1.116   6.517   2.469  0.0002  0.1738  0.1917
 1002MOL0     C32160  -1.240   6.444   2.468 -0.4862  0.0606  0.1708
 1002MOL0     C32161  -1.357   6.495   2.544 -0.1695  0.1852  0.1332
 1002MOL0     O32162  -1.475   6.422   2.543  0.8781  0.0099 -0.1464
 1002MOL0     C32163  -1.586   6.484   2.596  0.3334  0.1795  0.0582
 1002MOL0     C32164  -1.601   6.526   2.731  0.5412 -1.3720 -0.2627
 1002MOL0     C32165  -1.720   6.582   2.777 -0.4768 -0.0202  0.1814
 1002MOL0     C32166  -1.836   6.601   2.700 -0.9458  0.6200  0.6215
 1002MOL0     O32167  -1.950   6.658   2.746  0.5473  0.4006  0.3654
 1002MOL0     C32168  -1.938   6.727   2.872  0.6610  0.4239 -0.9886
 1002MOL0     C32169  -2.087   6.768   2.899 -0.6335 -0.4257  0.1775
 1002MOL0     C32170  -2.191   6.666   2.956  0.5862  0.0610 -0.0880
 1002MOL0     C32171  -2.305   6.747   3.017 -0.3630 -0.7292 -0.4877
 1002MOL0     C32172  -2.402   6.793   2.912 -0.0681 -0.3423  0.6087
 1002MOL0     C32173  -2.517   6.876   2.984  0.3112  0.6789  0.3006
 1002MOL0     C32174  -2.633   6.895   2.878 -0.1619 -0.8339  0.0186
 1002MOL0     C32175  -2.736   6.983   2.952 -0.0092 -1.0739 -0.3934
 1002MOL0    Cl32176  -2.883   7.013   2.856 -0.1446  0.6998  0.0973
 1002MOL0     C32177  -1.828   6.558   2.564 -0.3998 -0.7146  0.5583
 1002MOL0     C32178  -1.700   6.503   2.512  0.1583 -1.1514  0.7597
 1002MOL0     O32179  -1.343   6.616   2.591  0.1503  0.5650  0.3779
 1002MOL0     C32180  -1.244   6.330   2.389 -1.1601 -0.5813 -0.3322
 1002MOL0     C32181  -1.129   6.293   2.317  0.1341 -0.4327  0.4823
 1002MOL0     N32182  -0.701   6.269   1.642  0.3473  0.5691 -0.3215
 1002MOL0     N32183  -0.688   6.335   1.537  0.3361 -0.1989 -0.3554
 1002MOL0     C32184  -0.051   7.376   0.895  0.8050 -0.5019  1.3310
 1002MOL0     C32185   0.062   7.432   0.846 -0.0407  0.1682  0.4113
 1002MOL0     C32186   0.482   7.615   0.871 -0.3004  1.0781  0.1799
 1002MOL0     C32187   0.504   7.609   0.724 -0.4105 -0.3758 -0.2328
 1002MOL0     C32188   0.615   7.682   0.668  0.9266 -0.0956 -0.3620
 1002MOL0     C32189   0.701   7.751   0.752 -0.1814  0.1600 -0.0254
 1002MOL0     O32190   0.811   7.815   0.713 -1.2831  0.2224  0.1656
 1002MOL0     C32191   0.817   7.844   0.566 -0.4215  0.2108  0.1788
 1002MOL0     C32192   0.902   7.967   0.553  0.3474 -0.6913 -0.3757
 1002MOL0     C32193   0.893   8.034   0.413 -0.3225 -0.6739 -0.2808
 1002MOL0     C32194   1.008   8.124   0.386 -0.6905 -0.3691 -0.2571
 1002MOL0     C32195   1.131   8.044   0.372  1.1844 -0.0515  0.1540
 1002MOL0     C32196   1.227   7.974   0.348 -0.7697 -0.0011  0.2662
 1002MOL0     C32197   0.677   7.756   0.890 -0.1038  1.0589 -0.9596
 1002MOL0     C32198   0.584   7.673   0.948  0.8240  0.2354  0.6159
 1002MOL0     H32199   0.293   7.296   1.052  0.9900  0.5225 -3.4419
 1002MOL0     H32200   0.081   7.156   1.111 -0.4708 -1.7252 -2.1971
 1002MOL0     H32201  -0.130   7.139   1.204  1.4957 -1.6618  0.2117
 1002MOL0     H32202  -0.127   7.026   1.075  1.2255  0.1472  0.9747
 1002MOL0     H32203  -0.370   7.082   1.009 -0.8042  2.4038  0.1074
 1002MOL0     H32204  -0.360   7.185   1.157  1.9599  0.8586 -0.4949
 1002MOL0     H32205  -0.307   6.952   1.274 -1.8546 -2.3905  1.1073
 1002MOL0     H32206  -0.338   6.876   1.115 -1.1030  0.7414 -2.2555
 1002MOL0     H32207  -0.529   7.018   1.307 -0.6165 -1.3100  1.2104
 1002MOL0     H32208  -0.570   6.989   1.142 -0.6930  2.3140  1.3546
 1002MOL0     H32209  -0.556   6.744   1.213  0.3467 -1.0532  0.8937
 1002MOL0     H32210  -0.663   6.834   1.322 -0.3008  2.2055 -2.0899
 1002MOL0     H32211  -0.436   6.855   1.467 -2.3735  2.1052 -0.9875
 1002MOL0     H32212  -0.382   6.726   1.354  1.8585 -0.1164  1.1871
 1002MOL0     H32213  -0.495   6.685   1.587  0.5149  4.5338 -0.3182
 1002MOL0     H32214  -0.649   6.720   1.500 -0.7134 -0.7171 -0.9002
 1002MOL0     H32215  -0.460   6.501   1.421  0.1907  1.9545 -1.3939
 1002MOL0     H32216  -0.636   6.515   1.380 -1.6632  0.4168  1.9114
 1002MOL0     H32217  -0.521   6.515   1.757  1.5523 -3.0431  2.4970
 1002MOL0     H32218  -0.546   6.324   1.939 -0.3302  0.7994  0.1692
 1002MOL0     H32219  -0.607   6.172   1.879  5.0247  0.8678 -1.8619
 1002MOL0     H32220  -0.831   6.288   1.861  4.2144 -1.3022 -3.2393
 1002MOL0     H32221  -0.769   6.421   1.966  1.2683  0.4785 -1.6028
 1002MOL0     H32222  -0.794   6.121   2.038 -0.1613  0.6670 -0.7771
 1002MOL0     H32223  -0.716   6.241   2.140 -0.4381  3.2206  0.0000
 1002MOL0     H32224  -0.953   6.147   2.194 -2.3052 -0.8188 -0.8479
 1002MOL0     H32225  -1.012   6.267   2.075 -1.6141 -2.8001  2.6802
 1002MOL0     H32226  -0.904   6.534   2.378 -0.4479  1.9917  0.9603
 1002MOL0     H32227  -1.087   6.602   2.530  1.7807 -1.5537  1.8294
 1002MOL0     H32228  -1.516   6.520   2.797  0.3978  0.4908  0.1530
 1002MOL0     H32229  -1.710   6.612   2.881  0.2696  0.7104 -0.0906
 1002MOL0     H32230  -1.869   6.812   2.870 -1.2341  2.1647  1.3361
 1002MOL0     H32231  -1.914   6.659   2.954 -0.2861 -0.6637 -1.5865
 1002MOL0     H32232  -2.127   6.824   2.814 -1.0165 -0.0844  0.5806
 1002MOL0     H32233  -2.080   6.841   2.981  1.0780 -1.3723  0.9197
 1002MOL0     H32234  -2.151   6.610   3.042 -0.2724 -0.3894  0.0269
 1002MOL0     H32235  -2.211   6.580   2.891  2.3347  0.6090 -1.4040
 1002MOL0     H32236  -2.350   6.692   3.100  1.0112 -0.0184  0.7930
 1002MOL0     H32237  -2.269   6.840   3.063 -3.4168 -0.1060  0.8567
 1002MOL0     H32238  -2.443   6.707   2.857  0.6263  0.9953 -2.2065
 1002MOL0     H32239  -2.355   6.853   2.833  0.7063 -3.4897 -1.5350
 1002MOL0     H32240  -2.478   6.969   3.028 -0.1040 -0.1975  2.6318
 1002MOL0     H32241  -2.545   6.820   3.073  0.0066  1.8641  0.9707
 1002MOL0     H32242  -2.585   6.950   2.797 -1.9846 -1.0831 -1.3021
 1002MOL0     H32243  -2.677   6.802   2.841 -0.4561 -1.9359  2.8984
 1002MOL0     H32244  -2.685   7.078   2.973  0.0822 -1.6634  2.5253
 1002MOL0     H32245  -2.767   6.932   3.044  0.2498  2.2435  1.7006
 1002MOL0     H32246  -1.915   6.573   2.502 -0.6828 -0.4265  1.0195
 1002MOL0     H32247  -1.695   6.463   2.411  1.5237  1.2172 -0.1808
 1002MOL0     H32248  -1.338   6.276   2.385 -3.3842  3.0258 -1.9610
 1002MOL0     H32249  -1.129   6.195   2.271  0.4688  0.2662 -1.0502
 1002MOL0     H32250  -0.135   7.402   0.832  1.7340 -1.0282 -0.1706
 1002MOL0     H32251   0.062   7.491   0.755  2.2377 -0.7065 -0.2249
 1002MOL0     H32252   0.426   7.560   0.667 -0.0558  0.0057 -1.0703
 1002MOL0     H32253   0.614   7.694   0.560 -0.5110 -0.4998 -0.4143
 1002MOL0     H32254   0.724   7.874   0.519  1.0362  0.4986 -2.7616
 1002MOL0     H32255   0.848   7.751   0.517 -0.9469  0.7931 -1.3094
 1002MOL0     H32256   0.872   8.039   0.630 -2.4649 -0.7870 -1.2604
 1002MOL0     H32257   1.009   7.948   0.566  0.7826  0.4154 -2.0963
 1002MOL0     H32258   0.799   8.085   0.389  0.0811 -0.3922 -1.3223
 1002MOL0     H32259   0.892   7.947   0.348  2.6463 -1.4106  0.5091
 1002MOL0     H32260   0.995   8.181   0.293  0.1969 -2.3421 -1.6799
 1002MOL0     H32261   1.017   8.193   0.470 -1.3254 -1.3634  0.6428
 1002MOL0     H32262   1.313   7.910   0.339 -0.4364  0.7053 -4.4685
 1002MOL0     H32263   0.749   7.816   0.945 -1.1087  0.0684  1.5940
 1002MOL0     H32264   0.593   7.665   1.056  1.1989 -0.0263  0.5677
 1003MOL0     O32265   4.196   6.591   0.804  0.0889  0.5857 -0.4406
 1003MOL0     C32266   4.262   6.640   0.893  0.1659  0.1353  0.1276
 1003MOL0     O32267   4.231   6.744   0.971  0.6790  0.3328  0.7229
 1003MOL0     C32268   4.113   6.815   0.965 -0.3188 -0.7311 -0.2654
 1003MOL0     C32269   4.050   6.859   0.845 -0.3238  0.5728 -0.0344
 1003MOL0     C32270   3.938   6.935   0.848 -0.7027 -0.3383 -0.6075
 1003MOL0     C32271   3.892   6.985   0.972  1.5659  1.2723  0.2221
 1003MOL0     O32272   3.776   7.050   0.987 -0.3103 -0.2053 -0.1695
 1003MOL0     C32273   3.735   7.148   0.884  0.2219  0.1290 -0.3297
 1003MOL0     C32274   3.599   7.208   0.916  0.1131  0.2296 -0.6550
 1003MOL0     C32275   3.572   7.308   0.808  0.2895 -0.0705  0.2684
 1003MOL0     C32276   3.466   7.409   0.840 -0.1359  1.1029  0.0198
 1003MOL0     C32277   3.488   7.496   0.972  0.5630 -0.6843  0.3735
 1003MOL0     C32278   3.361   7.569   1.009 -0.0972 -0.7434 -0.0184
 1003MOL0     C32279   3.374   7.663   1.128  0.1704 -0.0158  0.1239
 1003MOL0     C32280   3.244   7.711   1.194  0.0756 -0.2208  0.7792
 1003MOL0     N32281   3.162   7.805   1.116 -0.3657 -0.8128 -0.4538
 1003MOL0     C32282   3.052   7.779   1.037 -0.4377 -0.6568  0.0740
 1003MOL0     C32283   3.003   7.902   1.007  0.5204 -0.0934  0.2419
 1003MOL0     C32284   2.875   7.931   0.939 -0.4190 -0.0506  0.2070
 1003MOL0     C32285   2.753   7.906   1.024 -0.6877 -0.2542  0.3167
 1003MOL0     C32286   2.632   7.906   0.933 -0.0957  0.2980 -0.7304
 1003MOL0     C32287   2.490   7.897   0.995  1.3155  0.2430  0.2569
 1003MOL0     O32288   2.466   8.004   1.092 -0.4107  0.5397  0.2832
 1003MOL0     C32289   2.346   7.999   1.157  0.1523  0.0570 -0.2895
 1003MOL0     C32290   2.296   8.117   1.211  0.2743  0.1985  0.7222
 1003MOL0     C32291   2.177   8.120   1.283 -0.1658 -0.9269  0.5856
 1003MOL0     C32292   2.103   7.998   1.296  1.8254 -0.3192  0.1619
 1003MOL0     C32293   1.978   7.986   1.366 -0.2271 -0.1418  0.7957
 1003MOL0     O32294   1.931   7.859   1.393 -1.4486 -0.5673 -0.8753
 1003MOL0     C32295   1.831   7.843   1.486  0.3515 -0.5751  0.0473
 1003MOL0     C32296   1.845   7.765   1.604  0.6155  0.3850  0.6445
 1003MOL0     C32297   1.744   7.751   1.694  0.2388  0.1889 -0.2636
 1003MOL0     C32298   1.612   7.803   1.685  0.1610 -0.3414  0.2302
 1003MOL0     O32299   1.508   7.774   1.773 -0.6617  0.4440 -0.0553
 1003MOL0     C32300   1.414   7.872   1.813 -0.2983 -0.3430 -0.2419
 1003MOL0     C32301   1.317   7.819   1.926 -0.7877  0.5153  0.2784
 1003MOL0     C32302   1.213   7.918   1.961  0.1710 -0.3323 -0.7844
 1003MOL0     C32303   1.131   7.869   2.081 -0.7939  0.1286  0.4856
 1003MOL0     C32304   1.020   7.978   2.105 -0.4996 -0.5795 -0.1432
 1003MOL0     C32305   0.871   7.929   2.112 -1.0845 -0.3567 -0.2141
 1003MOL0     C32306   0.843   7.830   2.001 -0.3832  0.2032  1.0364
 1003MOL0     C32307   0.700   7.834   1.955 -0.1001 -0.9197  0.3650
 1003MOL0    Cl32308   0.696   7.709   1.831 -0.6603 -0.0299 -0.2596
 1003MOL0     C32309   1.598   7.876   1.560  0.3715 -0.2739  0.3882
 1003MOL0     C32310   1.700   7.898   1.471 -0.4616  0.3075 -0.0781
 1003MOL0     O32311   1.924   8.091   1.402  0.2051 -0.6387 -0.4473
 1003MOL0     C32312   2.166   7.878   1.249  1.3566 -0.3366  0.2275
 1003MOL0     C32313   2.282   7.877   1.182 -0.4308  0.2022 -1.0709
 1003MOL0     N32314   3.091   8.000   1.046  0.2851  0.1072 -0.0181
 1003MOL0     N32315   3.188   7.943   1.108  0.2038 -0.6132 -0.3614
 1003MOL0     C32316   3.956   6.953   1.087  0.7384  0.0706  0.3297
 1003MOL0     C32317   4.060   6.865   1.081 -0.2664 -0.7837  0.3320
 1003MOL0     C32318   4.397   6.577   0.902  0.4825  0.6667 -0.0686
 1003MOL0     C32319   4.418   6.445   0.856 -1.2581  0.2330  0.3255
 1003MOL0     C32320   4.545   6.382   0.865  0.9554  0.0928 -0.9096
 1003MOL0     C32321   4.649   6.455   0.933 -0.2638  0.4544 -0.5651
 1003MOL0     O32322   4.777   6.418   0.962  0.1747 -0.0805 -0.3759
 1003MOL0     C32323   4.806   6.280   0.952 -0.1729 -0.9562  0.6640
 1003MOL0     C32324   4.942   6.251   1.027  0.3781  0.5331  0.5550
 1003MOL0     C32325   5.065   6.335   0.987 -0.7177  0.1938 -0.5231
 1003MOL0     C32326   5.096   6.432   1.101  0.0934 -0.7004 -0.5784
 1003MOL0     C32327   5.166   6.369   1.218 -0.4120  0.0035  0.1074
 1003MOL0     C32328   5.234   6.309   1.302 -0.2469 -0.1546  0.2929
 1003MOL0     C32329   4.631   6.584   0.981 -0.6515 -0.3426  0.6182
 1003MOL0     C32330   4.505   6.643   0.962 -0.1901 -0.1325  0.5577
 1003MOL0     H32331   4.089   6.834   0.747 -0.2197  1.9085 -0.3463
 1003MOL0     H32332   3.883   6.953   0.756 -1.0426  1.5706 -0.0880
 1003MOL0     H32333   3.723   7.087   0.794 -0.8852 -0.4876  0.2202
 1003MOL0     H32334   3.815   7.215   0.851  1.5332 -0.6680  1.0977
 1003MOL0     H32335   3.596   7.251   1.016 -3.0238  1.8485 -1.3129
 1003MOL0     H32336   3.526   7.126   0.914  0.0138  0.1365  2.3866
 1003MOL0     H32337   3.548   7.257   0.713  0.3077 -2.4022  1.4377
 1003MOL0     H32338   3.666   7.363   0.808  0.9765 -1.1869  2.0399
 1003MOL0     H32339   3.457   7.474   0.752  0.3482 -1.6405 -2.2125
 1003MOL0     H32340   3.378   7.347   0.854 -0.8882  1.5530 -2.3118
 1003MOL0     H32341   3.566   7.571   0.954  1.2542 -1.5558 -0.3133
 1003MOL0     H32342   3.525   7.428   1.049  0.1830 -1.8455 -0.4460
 1003MOL0     H32343   3.288   7.497   1.048  1.8033 -1.5762  2.2705
 1003MOL0     H32344   3.317   7.625   0.926 -1.5172 -2.4603 -0.4978
 1003MOL0     H32345   3.427   7.606   1.205 -0.0293 -2.8270 -1.6811
 1003MOL0     H32346   3.441   7.743   1.095 -1.2011  1.2291  0.2623
 1003MOL0     H32347   3.280   7.758   1.286  0.7419 -0.0225  0.4257
 1003MOL0     H32348   3.168   7.637   1.218 -2.5204  2.1380  0.3842
 1003MOL0     H32349   3.008   7.683   1.010  0.3172 -0.7281 -0.9422
 1003MOL0     H32350   2.878   7.868   0.850 -1.3648  0.3289 -0.1007
 1003MOL0     H32351   2.879   8.036   0.909  1.3263 -0.2604 -0.3997
 1003MOL0     H32352   2.729   7.990   1.091 -1.3235 -0.1565 -0.0263
 1003MOL0     H32353   2.758   7.815   1.085  0.6068 -0.4219 -0.0245
 1003MOL0     H32354   2.641   7.995   0.870  1.7275  0.0828 -0.8331
 1003MOL0     H32355   2.632   7.831   0.853 -2.2097 -0.5234 -0.0192
 1003MOL0     H32356   2.484   7.796   1.036 -1.8064 -1.4883 -3.8020
 1003MOL0     H32357   2.404   7.896   0.927  1.6422 -0.7191 -0.1585
 1003MOL0     H32358   2.364   8.202   1.203  1.0642 -0.1907  2.6736
 1003MOL0     H32359   2.130   8.214   1.309  1.6624  1.6185 -4.0556
 1003MOL0     H32360   1.945   7.732   1.631  0.6193 -1.5102 -1.3510
 1003MOL0     H32361   1.770   7.692   1.781  0.9622  0.1551 -0.5009
 1003MOL0     H32362   1.356   7.898   1.724 -0.6008 -0.8709 -0.2045
 1003MOL0     H32363   1.454   7.967   1.849 -0.9762 -0.0014 -0.3845
 1003MOL0     H32364   1.374   7.791   2.015 -1.6893  2.7147  1.6277
 1003MOL0     H32365   1.273   7.727   1.886  0.3795 -0.9353  2.1776
 1003MOL0     H32366   1.143   7.913   1.877  0.1227  1.0967 -0.8459
 1003MOL0     H32367   1.247   8.020   1.978  1.4484 -1.0777  1.5816
 1003MOL0     H32368   1.105   7.764   2.066  1.1857 -0.7305  2.3949
 1003MOL0     H32369   1.188   7.859   2.175 -0.9594  1.0702  0.6986
 1003MOL0     H32370   1.028   8.057   2.030 -1.0372  0.5118  0.9005
 1003MOL0     H32371   1.050   8.029   2.198 -1.2154  1.1425 -0.8020
 1003MOL0     H32372   0.817   8.024   2.103 -0.3334  0.1246  0.2989
 1003MOL0     H32373   0.857   7.883   2.210 -1.0707 -1.3905 -0.6727
 1003MOL0     H32374   0.911   7.863   1.922 -0.2608 -1.4998  0.3861
 1003MOL0     H32375   0.879   7.731   2.029  1.4796 -0.0528 -1.8426
 1003MOL0     H32376   0.663   7.930   1.918 -1.7502 -0.2699  3.3361
 1003MOL0     H32377   0.627   7.812   2.033 -1.4363  0.0982 -0.5456
 1003MOL0     H32378   1.494   7.887   1.533 -1.7507 -2.1360  6.3105
 1003MOL0     H32379   1.682   7.960   1.384  0.0163  1.6165  0.7127
 1003MOL0     H32380   2.122   7.780   1.266  3.0676 -1.1199  0.2958
 1003MOL0     H32381   2.316   7.779   1.151 -1.0098 -0.0483 -0.9082
 1003MOL0     H32382   3.909   6.981   1.181 -1.1186 -0.3788 -0.4155
 1003MOL0     H32383   4.089   6.826   1.178 -4.0055  0.7771  2.2992
 1003MOL0     H32384   4.339   6.390   0.807 -0.3548 -1.0670  0.2894
 1003MOL0     H32385   4.568   6.286   0.820  1.1843  0.4677 -1.5971
 1003MOL0     H32386   4.810   6.247   0.848  1.0328 -0.0988  0.4259
 1003MOL0     H32387   4.732   6.220   1.006 -1.4597  0.1992  0.2467
 1003MOL0     H32388   4.930   6.263   1.135 -0.6382 -1.0837  0.6562
 1003MOL0     H32389   4.971   6.146   1.014  2.5393  1.2753 -1.3984
 1003MOL0     H32390   5.061   6.374   0.885 -4.5635 -4.2329 -2.4483
 1003MOL0     H32391   5.157   6.276   0.974  1.1645  2.5276  1.1878
 1003MOL0     H32392   5.160   6.511   1.061  0.2796 -0.6342 -0.1549
 1003MOL0     H32393   5.006   6.482   1.138  3.1328  3.4094  2.1766
 1003MOL0     H32394   5.300   6.247   1.359 -3.7706 -2.5368  2.1481
 1003MOL0     H32395   4.712   6.637   1.030  1.1383 -1.7779 -0.6532
 1003MOL0     H32396   4.478   6.746   0.980 -0.1797 -0.1868  0.8813
 1004MOL0     O32397   8.431   1.639   2.277  0.0185 -0.2326  0.2760
 1004MOL0     C32398   8.423   1.722   2.185 -0.2720 -0.3929  0.6121
 1004MOL0     O32399   8.309   1.790   2.139 -0.3769 -0.1345 -0.0308
 1004MOL0     C32400   8.200   1.784   2.228  1.3049 -0.0632  0.2386
 1004MOL0     C32401   8.195   1.847   2.356  0.8806 -0.3746  0.1504
 1004MOL0     C32402   8.081   1.832   2.434  0.0703  0.0050  0.1551
 1004MOL0     C32403   7.966   1.765   2.389  0.0477  0.5379 -0.6118
 1004MOL0     O32404   7.853   1.766   2.473 -0.2559 -0.1956 -0.4814
 1004MOL0     C32405   7.734   1.688   2.438  0.4147 -0.3486 -0.2101
 1004MOL0     C32406   7.634   1.750   2.543 -1.2017  0.1643  0.6885
 1004MOL0     C32407   7.491   1.713   2.516  0.0948 -0.4687 -1.0011
 1004MOL0     C32408   7.414   1.738   2.642  0.5184 -0.9045 -0.4810
 1004MOL0     C32409   7.260   1.746   2.615 -0.5450  0.4549 -0.1320
 1004MOL0     C32410   7.217   1.602   2.584 -0.0682  0.0365 -0.0767
 1004MOL0     C32411   7.068   1.597   2.610 -0.5054  0.3158  0.2659
 1004MOL0     C32412   7.036   1.591   2.759  0.2958 -0.3591 -0.7892
 1004MOL0     N32413   7.107   1.486   2.828 -0.4881  0.3178  0.1132
 1004MOL0     C32414   7.076   1.349   2.820 -0.2402 -0.2430 -0.6214
 1004MOL0     C32415   7.153   1.290   2.919  1.0932 -0.0649 -0.7350
 1004MOL0     C32416   7.132   1.149   2.949 -0.8903 -0.1058  0.6711
 1004MOL0     C32417   6.981   1.111   2.959  0.3184  0.0778 -0.3635
 1004MOL0     C32418   6.963   0.974   3.034  0.4080 -1.1448 -0.5711
 1004MOL0     C32419   6.984   0.855   2.948  0.3497 -1.1238  0.1552
 1004MOL0     O32420   6.867   0.849   2.858  0.3934  0.0800  0.0706
 1004MOL0     C32421   6.752   0.777   2.875  0.4674 -0.7572  0.5597
 1004MOL0     C32422   6.636   0.799   2.787 -0.5636  0.9916  0.3280
 1004MOL0     C32423   6.513   0.735   2.796  0.3172 -0.1623  0.3465
 1004MOL0     C32424   6.497   0.647   2.907 -0.2778 -0.8043 -0.3105
 1004MOL0     C32425   6.367   0.589   2.942 -0.3717  0.0983  0.0910
 1004MOL0     O32426   6.372   0.515   3.055  0.2545  1.0169 -0.2106
 1004MOL0     C32427   6.256   0.470   3.115 -0.0328  0.3560 -0.4686
 1004MOL0     C32428   6.206   0.347   3.064 -0.0006  0.4644 -0.3431
 1004MOL0     C32429   6.092   0.297   3.118 -0.0312 -0.4227 -0.1148
 1004MOL0     C32430   6.024   0.368   3.227  0.1349  0.3942 -0.7069
 1004MOL0     O32431   5.925   0.302   3.288 -0.0453 -0.4423 -0.5024
 1004MOL0     C32432   5.975   0.205   3.381 -0.3020  1.0432 -0.1155
 1004MOL0     C32433   5.875   0.150   3.474  0.0084  0.1740 -0.5539
 1004MOL0     C32434   5.741   0.097   3.417  0.2486 -0.9103  0.0899
 1004MOL0     C32435   5.750  -0.032   3.328  0.9795 -1.0576  0.3439
 1004MOL0     C32436   5.805  -0.153   3.387 -0.5174 -0.7268 -0.8427
 1004MOL0     C32437   5.700  -0.260   3.434 -0.1934 -0.6952  0.2102
 1004MOL0     C32438   5.771  -0.389   3.468  0.2207 -0.3295  0.2181
 1004MOL0     C32439   5.672  -0.490   3.530  0.0716  0.6804 -0.5015
 1004MOL0    Cl32440   5.538  -0.522   3.421  0.0802 -0.1308  0.0237
 1004MOL0     C32441   6.087   0.481   3.280  0.2752 -0.0588 -0.2588
 1004MOL0     C32442   6.194   0.540   3.222 -0.8894  1.2227 -0.6653
 1004MOL0     O32443   6.268   0.614   2.878  0.1857  0.0503  0.3679
 1004MOL0     C32444   6.615   0.614   2.987  1.0130  0.6097  0.1830
 1004MOL0     C32445   6.732   0.677   2.972  0.1180 -0.1334 -0.5398
 1004MOL0     N32446   7.237   1.389   2.970 -0.0027 -0.5992 -0.0134
 1004MOL0     N32447   7.224   1.502   2.902  0.3405 -0.1075 -0.6846
 1004MOL0     C32448   7.968   1.700   2.265 -0.7157 -0.3057  1.7477
 1004MOL0     C32449   8.085   1.717   2.185  0.4038  0.7742  0.4046
 1004MOL0     C32450   8.556   1.757   2.126  0.0915  0.6578  0.4436
 1004MOL0     C32451   8.568   1.811   2.004 -0.4629  0.0578  0.2192
 1004MOL0     C32452   8.698   1.837   1.945 -0.7173  0.0670 -0.3090
 1004MOL0     C32453   8.814   1.793   2.003  0.4503 -0.4583  0.0029
 1004MOL0     O32454   8.930   1.809   1.939 -0.0157  1.0809 -0.4568
 1004MOL0     C32455   9.043   1.720   1.967  0.7579 -0.1853  0.3506
 1004MOL0     C32456   9.086   1.668   1.831  0.5660 -0.7289  0.3958
 1004MOL0     C32457   9.206   1.572   1.853 -0.5577 -0.6802  0.3568
 1004MOL0     C32458   9.274   1.519   1.732  0.2210  0.3097  0.3315
 1004MOL0     C32459   9.355   1.612   1.662  0.3115 -0.2770  0.8320
 1004MOL0     C32460   9.421   1.696   1.608 -0.8625 -0.3236  0.5275
 1004MOL0     C32461   8.804   1.740   2.131 -0.4418  0.1840 -0.2747
 1004MOL0     C32462   8.674   1.710   2.184 -0.6203 -0.1437  0.8361
 1004MOL0     H32463   8.280   1.907   2.386  0.2734  0.3639  0.4129
 1004MOL0     H32464   8.076   1.885   2.528  0.5505 -2.7465  1.8319
 1004MOL0     H32465   7.746   1.580   2.446 -2.8931 -0.8490 -0.6230
 1004MOL0     H32466   7.700   1.711   2.336  0.5840 -0.3450 -0.2661
 1004MOL0     H32467   7.657   1.857   2.544 -2.7081  0.5622 -1.3971
 1004MOL0     H32468   7.669   1.709   2.639  0.3220 -1.8763 -0.6659
 1004MOL0     H32469   7.492   1.606   2.493  0.9190 -1.2617  2.3037
 1004MOL0     H32470   7.460   1.757   2.420 -0.9247 -0.1322 -0.5227
 1004MOL0     H32471   7.439   1.671   2.725  0.4132 -3.6438 -2.5454
 1004MOL0     H32472   7.437   1.840   2.675  1.2989 -1.3223  0.3342
 1004MOL0     H32473   7.232   1.805   2.527  1.6522  2.7380  0.5732
 1004MOL0     H32474   7.226   1.791   2.708  3.3213  5.0686 -0.5614
 1004MOL0     H32475   7.262   1.519   2.639 -1.7307 -1.2733 -0.6209
 1004MOL0     H32476   7.240   1.592   2.477  0.1188 -0.3315 -0.0034
 1004MOL0     H32477   7.037   1.689   2.560  0.4807 -0.4912 -1.9725
 1004MOL0     H32478   7.017   1.509   2.570  0.0484 -0.9002  2.0906
 1004MOL0     H32479   6.934   1.558   2.778  1.0106 -2.2384  0.0881
 1004MOL0     H32480   7.049   1.691   2.800 -0.4824 -0.3053 -0.6687
 1004MOL0     H32481   7.006   1.312   2.745  0.0776  1.7870 -1.9929
 1004MOL0     H32482   7.176   1.128   3.047  1.7643  2.1322  0.0836
 1004MOL0     H32483   7.168   1.092   2.862 -2.0178 -1.2811  0.9403
 1004MOL0     H32484   6.934   1.100   2.860 -3.9819 -0.4331  1.4862
 1004MOL0     H32485   6.933   1.192   3.015  1.4856 -0.5886  1.6795
 1004MOL0     H32486   7.024   0.960   3.124  1.6812  3.2209 -0.5306
 1004MOL0     H32487   6.860   0.967   3.068 -0.0215  2.9026 -0.5719
 1004MOL0     H32488   6.988   0.762   3.005  1.3941 -0.9935  0.3110
 1004MOL0     H32489   7.076   0.866   2.890  0.7789 -1.1043  0.8395
 1004MOL0     H32490   6.639   0.884   2.720  0.2901  1.6465  1.1635
 1004MOL0     H32491   6.434   0.751   2.723  1.7576  1.1942 -1.0033
 1004MOL0     H32492   6.267   0.304   2.985  0.4948 -1.1251  0.8551
 1004MOL0     H32493   6.040   0.208   3.084 -1.4238  0.8921 -1.6144
 1004MOL0     H32494   6.065   0.243   3.430  1.3501 -0.7316 -1.5962
 1004MOL0     H32495   6.008   0.121   3.319 -3.0679  0.4855 -0.9776
 1004MOL0     H32496   5.855   0.236   3.539 -2.2604  0.4132 -1.4651
 1004MOL0     H32497   5.926   0.080   3.540 -0.7265  0.1071 -0.0362
 1004MOL0     H32498   5.690   0.168   3.352  1.4943 -0.9850 -1.0213
 1004MOL0     H32499   5.684   0.063   3.504 -1.0207  2.8524  0.8813
 1004MOL0     H32500   5.644  -0.045   3.306  1.0749 -0.0202 -0.8291
 1004MOL0     H32501   5.806   0.001   3.240 -1.1865 -0.9811 -1.0793
 1004MOL0     H32502   5.874  -0.131   3.469 -0.3479  1.6896 -1.5779
 1004MOL0     H32503   5.863  -0.194   3.304 -0.0106  2.4293 -2.1614
 1004MOL0     H32504   5.629  -0.260   3.352  1.0531  4.6709 -1.2293
 1004MOL0     H32505   5.652  -0.214   3.521 -0.2307 -1.9196  0.8678
 1004MOL0     H32506   5.804  -0.429   3.372  0.1128 -3.3231  1.3040
 1004MOL0     H32507   5.847  -0.375   3.546 -1.7722  0.1156  2.1889
 1004MOL0     H32508   5.640  -0.441   3.622  0.8269 -2.0837  1.3269
 1004MOL0     H32509   5.731  -0.579   3.552 -1.3934 -1.3970 -4.0118
 1004MOL0     H32510   6.043   0.527   3.367  1.9335 -1.8284  1.6200
 1004MOL0     H32511   6.229   0.626   3.277 -1.2400  0.0966  1.3971
 1004MOL0     H32512   6.619   0.549   3.074  1.9145 -0.0592 -0.3382
 1004MOL0     H32513   6.818   0.647   3.031 -1.3458 -1.2024  1.1557
 1004MOL0     H32514   7.890   1.638   2.224 -0.3284  1.0751 -1.3083
 1004MOL0     H32515   8.095   1.680   2.084  0.5333  3.1517 -0.4958
 1004MOL0     H32516   8.488   1.843   1.937  2.1797  2.0460 -2.2264
 1004MOL0     H32517   8.699   1.894   1.853  1.0795  0.2344 -0.2207
 1004MOL0     H32518   9.015   1.633   2.026 -1.2311 -0.6715 -1.2219
 1004MOL0     H32519   9.126   1.771   2.018 -1.0458 -0.5658  3.9408
 1004MOL0     H32520   9.015   1.606   1.776  1.7606 -2.4678  0.7322
 1004MOL0     H32521   9.125   1.749   1.769  0.7779 -1.1712 -0.0552
 1004MOL0     H32522   9.159   1.488   1.904 -1.6737 -1.7382 -2.2896
 1004MOL0     H32523   9.285   1.621   1.911 -0.2939  0.1344 -0.6501
 1004MOL0     H32524   9.335   1.431   1.757  1.6397  1.3892  0.8621
 1004MOL0     H32525   9.193   1.489   1.666 -0.5315  2.9263 -0.0427
 1004MOL0     H32526   9.488   1.749   1.544 -1.3329  0.3910  0.6149
 1004MOL0     H32527   8.893   1.718   2.188 -1.1036 -1.1144  0.2993
 1004MOL0     H32528   8.665   1.668   2.284  0.7650 -0.9306  0.6468
 1005MOL0     O32529   4.179   3.520   9.831 -0.1442 -0.3809 -0.4411
 1005MOL0     C32530   4.155   3.615   9.908 -0.4672 -0.0119  1.3757
 1005MOL0     O32531   4.037   3.651   9.949 -0.0225  0.2229 -0.5275
 1005MOL0     C32532   3.922   3.585   9.906 -0.1694  0.2630 -0.5691
 1005MOL0     C32533   3.816   3.616   9.990 -0.2590  0.4814 -1.4541
 1005MOL0     C32534   3.690   3.564   9.967 -0.1212  0.0390 -0.2154
 1005MOL0     C32535   3.659   3.490   9.855 -0.1067 -1.0673 -0.0786
 1005MOL0     O32536   3.527   3.461   9.836 -0.3281  0.0693  0.1073
 1005MOL0     C32537   3.486   3.423   9.704 -0.8945 -0.3050  1.0937
 1005MOL0     C32538   3.354   3.342   9.731 -0.3616  1.4689  0.3860
 1005MOL0     C32539   3.254   3.404   9.840  0.0827  0.2310 -0.2051
 1005MOL0     C32540   3.133   3.311   9.843 -0.1044 -0.3269  0.2104
 1005MOL0     C32541   3.042   3.354   9.967 -0.2960 -0.0203  1.1232
 1005MOL0     C32542   2.940   3.244  10.007 -0.0210 -0.0612 -0.3693
 1005MOL0     C32543   2.858   3.215   9.886 -0.6851  0.0686 -0.1350
 1005MOL0     C32544   2.748   3.118   9.925  0.0230 -0.8261  0.3316
 1005MOL0     N32545   2.635   3.191   9.989  0.4276 -0.1768 -0.9291
 1005MOL0     C32546   2.604   3.199  10.128 -0.0710  0.8135  0.0709
 1005MOL0     C32547   2.495   3.272  10.128  0.4836 -0.6356 -0.8534
 1005MOL0     C32548   2.406   3.301  10.246  0.0294 -0.1298  0.4184
 1005MOL0     C32549   2.312   3.183  10.264 -0.7424 -0.0779 -0.3424
 1005MOL0     C32550   2.388   3.062  10.335  0.0936 -0.6865 -0.0527
 1005MOL0     C32551   2.320   2.938  10.300  0.6309 -0.3888  0.5168
 1005MOL0     O32552   2.359   2.916  10.158 -0.2051 -1.2022 -0.8350
 1005MOL0     C32553   2.327   2.800  10.095  0.0552 -0.3062  0.2084
 1005MOL0     C32554   2.414   2.750  10.003  0.8119  0.5393  0.5015
 1005MOL0     C32555   2.381   2.634   9.924 -0.0262  0.0979  0.3298
 1005MOL0     C32556   2.253   2.576   9.941  0.0039  0.5217 -0.3767
 1005MOL0     C32557   2.208   2.466   9.857 -0.3030 -0.1145 -1.2154
 1005MOL0     O32558   2.071   2.428   9.863 -0.2902  0.2605 -0.6281
 1005MOL0     C32559   2.002   2.354   9.765 -0.3669  0.2604  0.7468
 1005MOL0     C32560   2.044   2.235   9.716  0.7896 -0.1609 -0.4861
 1005MOL0     C32561   1.970   2.154   9.635  1.2070 -0.4327  0.9116
 1005MOL0     C32562   1.840   2.208   9.588 -0.4047 -0.0052 -0.0718
 1005MOL0     O32563   1.765   2.147   9.487 -0.1269 -0.4481  0.2270
 1005MOL0     C32564   1.735   2.004   9.491  0.2319 -0.6690 -0.7461
 1005MOL0     C32565   1.616   1.971   9.579 -0.3187 -0.2100 -0.4555
 1005MOL0     C32566   1.487   2.037   9.540 -0.0779  0.2792 -0.3668
 1005MOL0     C32567   1.423   1.973   9.418  0.2754 -0.1898  0.1517
 1005MOL0     C32568   1.279   2.021   9.392 -0.1802 -0.3201  0.0704
 1005MOL0     C32569   1.182   1.985   9.508 -0.2235  0.4042 -0.3392
 1005MOL0     C32570   1.038   2.000   9.463 -0.1843  0.3369  0.0957
 1005MOL0     C32571   0.946   1.949   9.566  0.0506  0.9421 -0.2728
 1005MOL0    Cl32572   0.939   2.062   9.711 -0.4027 -0.4994 -0.1383
 1005MOL0     C32573   1.801   2.340   9.641 -0.4652 -0.9738  0.1654
 1005MOL0     C32574   1.879   2.403   9.734  0.3820 -1.0217  0.2608
 1005MOL0     O32575   2.288   2.423   9.781 -0.5772 -0.1561 -0.2775
 1005MOL0     C32576   2.155   2.636  10.018  1.1016  0.2636  0.8204
 1005MOL0     C32577   2.193   2.740  10.095  0.2730 -0.0388  0.5298
 1005MOL0     N32578   2.457   3.311  10.000 -0.3311 -0.2456  0.1849
 1005MOL0     N32579   2.545   3.259   9.923  0.2968 -1.3663 -0.0065
 1005MOL0     C32580   3.762   3.460   9.759  0.6161 -0.0347  0.1219
 1005MOL0     C32581   3.894   3.510   9.786 -0.2089  0.0003 -0.2032
 1005MOL0     C32582   4.269   3.690   9.965  0.1283  0.6097 -0.2272
 1005MOL0     C32583   4.260   3.732  10.102  0.0956 -0.1378 -1.1575
 1005MOL0     C32584   4.368   3.806  10.153 -0.2715 -0.3038 -0.1474
 1005MOL0     C32585   4.490   3.821  10.081  0.1614  0.1868  0.5543
 1005MOL0     O32586   4.608   3.885  10.116  0.1566  0.5324 -0.9710
 1005MOL0     C32587   4.619   3.937  10.250  0.9629 -0.5182 -0.5855
 1005MOL0     C32588   4.743   3.890  10.320 -0.4029  0.5020  0.9219
 1005MOL0     C32589   4.861   3.993  10.308  0.1817 -0.6337 -0.6144
 1005MOL0     C32590   4.990   3.931  10.350  0.8718 -0.1302 -0.5416
 1005MOL0     C32591   5.085   4.033  10.381  1.3688 -0.4228 -0.0872
 1005MOL0     C32592   5.160   4.134  10.379 -0.4099  0.0936 -0.0986
 1005MOL0     C32593   4.496   3.764   9.954  0.0927 -0.0810  0.3181
 1005MOL0     C32594   4.383   3.704   9.896  0.1233 -0.2503 -0.0725
 1005MOL0     H32595   3.830   3.656  10.090 -2.6619 -1.7675 -0.1085
 1005MOL0     H32596   3.608   3.587  10.034  0.3790 -0.7858  0.7141
 1005MOL0     H32597   3.550   3.356   9.646  0.8961  0.8652  1.6264
 1005MOL0     H32598   3.479   3.511   9.640  2.3300 -2.1928 -2.2395
 1005MOL0     H32599   3.395   3.242   9.752  1.6931  1.0726 -4.4054
 1005MOL0     H32600   3.295   3.326   9.641  1.2049 -1.6840 -0.2424
 1005MOL0     H32601   3.223   3.507   9.817 -0.7226  0.1667  0.5223
 1005MOL0     H32602   3.296   3.399   9.941 -1.4106 -0.5742  0.4153
 1005MOL0     H32603   3.080   3.325   9.749  0.2169 -4.7790 -0.8179
 1005MOL0     H32604   3.164   3.207   9.851  2.3268  0.4103  1.6150
 1005MOL0     H32605   2.987   3.443   9.937 -0.7621 -0.7806 -0.3730
 1005MOL0     H32606   3.102   3.369  10.058 -0.2857 -1.1328  1.3109
 1005MOL0     H32607   2.880   3.279  10.091  1.4515  1.5878  0.0355
 1005MOL0     H32608   2.998   3.160  10.045 -2.2193 -2.0023 -1.0406
 1005MOL0     H32609   2.814   3.301   9.836 -0.1558  1.2743  1.3908
 1005MOL0     H32610   2.919   3.167   9.809 -1.2715  1.1167 -1.2875
 1005MOL0     H32611   2.783   3.037   9.990  2.5738  0.0722  0.1785
 1005MOL0     H32612   2.704   3.070   9.837 -1.1074 -0.1765  0.5233
 1005MOL0     H32613   2.661   3.148  10.206  0.5319 -1.4436 -1.7216
 1005MOL0     H32614   2.348   3.387  10.212  2.0395  3.4119  4.9068
 1005MOL0     H32615   2.451   3.314  10.344 -0.7695  0.1009  0.7558
 1005MOL0     H32616   2.273   3.150  10.167  0.9798 -0.9232 -0.7827
 1005MOL0     H32617   2.230   3.222  10.325 -0.5281  1.3487 -0.9276
 1005MOL0     H32618   2.494   3.063  10.307 -0.1256  1.1147 -0.9126
 1005MOL0     H32619   2.389   3.074  10.444  1.6345 -1.3753  0.0475
 1005MOL0     H32620   2.214   2.944  10.326  0.3163  1.0934 -0.9548
 1005MOL0     H32621   2.357   2.859  10.366 -0.1137 -1.7835 -0.6561
 1005MOL0     H32622   2.514   2.791   9.992  0.6833  1.2510  1.8091
 1005MOL0     H32623   2.437   2.590   9.842 -2.9387 -3.6856  0.1119
 1005MOL0     H32624   2.135   2.191   9.755 -0.8634 -1.5149  2.1654
 1005MOL0     H32625   1.994   2.054   9.603 -0.9218 -0.1525 -1.9648
 1005MOL0     H32626   1.825   1.955   9.530  2.3801  2.3439 -1.5510
 1005MOL0     H32627   1.707   1.982   9.388 -1.1254 -1.3522 -0.2477
 1005MOL0     H32628   1.632   2.015   9.678 -2.1349  2.0507 -1.0665
 1005MOL0     H32629   1.604   1.862   9.585  0.4806 -0.3126 -0.6187
 1005MOL0     H32630   1.502   2.143   9.520 -0.4728 -0.0659 -2.8232
 1005MOL0     H32631   1.412   2.033   9.619 -2.2133  1.0259 -2.2257
 1005MOL0     H32632   1.495   1.982   9.337  0.4367 -0.6795  0.2405
 1005MOL0     H32633   1.430   1.864   9.427 -0.7318 -0.3130 -0.3215
 1005MOL0     H32634   1.233   1.981   9.301 -1.4290  5.3940 -2.2469
 1005MOL0     H32635   1.286   2.130   9.388  4.4331 -0.4907 -2.2872
 1005MOL0     H32636   1.194   2.054   9.592  3.6426 -2.1048  1.4199
 1005MOL0     H32637   1.194   1.879   9.530 -0.1406  0.7529  1.3846
 1005MOL0     H32638   1.000   2.090   9.414 -1.0917 -2.9026 -6.2221
 1005MOL0     H32639   1.035   1.940   9.372 -0.9667  0.3484  0.1069
 1005MOL0     H32640   0.976   1.853   9.607 -1.2094  2.0663  3.7392
 1005MOL0     H32641   0.845   1.938   9.527  0.0594 -1.4097  0.2818
 1005MOL0     H32642   1.708   2.383   9.606  1.5414  2.8384 -1.0621
 1005MOL0     H32643   1.843   2.500   9.767  1.3829 -1.1997  2.0523
 1005MOL0     H32644   2.051   2.602  10.018  1.4200 -1.0867 -2.1973
 1005MOL0     H32645   2.117   2.785  10.159  0.7080 -0.1765  1.1526
 1005MOL0     H32646   3.752   3.393   9.674  0.5652 -0.6223  0.5852
 1005MOL0     H32647   3.973   3.498   9.712 -0.2458  1.3806 -0.4996
 1005MOL0     H32648   4.169   3.738  10.160  1.3548  2.6042  0.7367
 1005MOL0     H32649   4.348   3.843  10.252 -2.2823 -3.2778  0.7034
 1005MOL0     H32650   4.537   3.900  10.312  0.0678  0.3591 -1.1984
 1005MOL0     H32651   4.616   4.046  10.250  2.6359 -0.4518 -0.7073
 1005MOL0     H32652   4.706   3.876  10.423 -0.6440  0.2371  0.7998
 1005MOL0     H32653   4.787   3.802  10.274  0.7356  1.0931  0.8552
 1005MOL0     H32654   4.823   4.066  10.380 -2.8096 -1.3756 -1.2896
 1005MOL0     H32655   4.870   4.029  10.204 -0.5466 -1.4990 -0.9858
 1005MOL0     H32656   4.959   3.887  10.445  1.0023  4.6028  1.9879
 1005MOL0     H32657   5.027   3.869  10.268 -0.0194  1.0137 -1.8489
 1005MOL0     H32658   5.235   4.210  10.376 -1.5246  1.2685  0.7121
 1005MOL0     H32659   4.592   3.744   9.907 -0.9328 -0.9170 -1.5387
 1005MOL0     H32660   4.387   3.643   9.806  0.1426 -1.9642  1.0572
 1006MOL0     O32661   9.224   6.629  10.560  0.2107 -0.2578 -0.2055
 1006MOL0     C32662   9.202   6.730  10.492 -0.1227 -0.0662  0.4155
 1006MOL0     O32663   9.087   6.761  10.420 -0.1343 -0.0329  0.1980
 1006MOL0     C32664   8.970   6.684  10.434 -0.2454  0.5696  0.1680
 1006MOL0     C32665   8.843   6.750  10.418 -0.3276 -0.7845 -0.2269
 1006MOL0     C32666   8.718   6.671  10.409 -0.3832 -1.1122  0.4312
 1006MOL0     C32667   8.723   6.529  10.419  0.5388  1.1211  0.9134
 1006MOL0     O32668   8.618   6.443  10.407 -0.2202 -0.2686  0.0489
 1006MOL0     C32669   8.494   6.512  10.438 -0.1896 -0.4900 -0.2849
 1006MOL0     C32670   8.378   6.409  10.466  0.2111  0.3801  0.2080
 1006MOL0     C32671   8.269   6.458  10.548  0.1574  0.5814 -0.2777
 1006MOL0     C32672   8.186   6.555  10.472  0.6348 -0.4958 -0.5150
 1006MOL0     C32673   8.063   6.613  10.539  1.2724 -0.1997 -0.6528
 1006MOL0     C32674   7.957   6.495  10.558 -0.6128  0.1364  0.9336
 1006MOL0     C32675   7.816   6.569  10.564 -0.5528 -0.0493  0.2549
 1006MOL0     C32676   7.786   6.664  10.685 -0.1086 -0.6984  0.3984
 1006MOL0     N32677   7.645   6.682  10.701 -0.6362 -0.2383 -0.2527
 1006MOL0     C32678   7.550   6.589  10.725 -0.0055 -0.2759  0.0934
 1006MOL0     C32679   7.433   6.653  10.736  0.9672 -0.3236 -0.6420
 1006MOL0     C32680   7.302   6.577  10.744 -0.0464 -1.2715  0.0164
 1006MOL0     C32681   7.190   6.668  10.694  0.3146  0.0449 -0.0173
 1006MOL0     C32682   7.051   6.607  10.684 -0.0972 -0.0025 -0.3714
 1006MOL0     C32683   6.935   6.711  10.696  0.7476  0.1934  0.1683
 1006MOL0     O32684   6.812   6.660  10.661 -0.2328  0.0780  0.4676
 1006MOL0     C32685   6.706   6.745  10.695 -0.0183  0.5128 -0.7085
 1006MOL0     C32686   6.579   6.694  10.709 -0.5690 -0.5936  0.2913
 1006MOL0     C32687   6.474   6.782  10.736 -0.2560 -0.2334 -0.0834
 1006MOL0     C32688   6.493   6.914  10.746 -0.9909 -0.9851 -0.3831
 1006MOL0     C32689   6.370   6.995  10.773 -0.2432 -0.5690  0.8124
 1006MOL0     O32690   6.258   6.940  10.812  0.5273 -0.8119  0.7508
 1006MOL0     C32691   6.140   7.012  10.815 -0.1248 -0.6128  0.1165
 1006MOL0     C32692   6.072   7.050  10.691  0.2941  0.0921  1.3353
 1006MOL0     C32693   5.947   7.113  10.701  0.3976 -0.1282  0.6934
 1006MOL0     C32694   5.893   7.152  10.830  0.9877 -0.5981 -0.1073
 1006MOL0     O32695   5.771   7.214  10.852  0.1872  0.3425  0.7783
 1006MOL0     C32696   5.715   7.285  10.742  0.5495 -0.4696 -0.6427
 1006MOL0     C32697   5.582   7.354  10.784 -0.7387 -0.1665  0.8548
 1006MOL0     C32698   5.508   7.406  10.661  0.0935  0.0887 -0.2196
 1006MOL0     C32699   5.357   7.428  10.687 -0.1290  0.1256  0.3467
 1006MOL0     C32700   5.293   7.465  10.550 -0.6457  0.4137 -0.0378
 1006MOL0     C32701   5.142   7.486  10.540  0.2315  0.3003  0.2292
 1006MOL0     C32702   5.101   7.449  10.393 -0.1577 -0.0666  0.3137
 1006MOL0     C32703   4.973   7.510  10.350 -0.6016  1.2868  0.1512
 1006MOL0    Cl32704   4.858   7.424  10.440 -0.3393 -0.4641 -0.0725
 1006MOL0     C32705   5.961   7.107  10.950 -0.2889 -0.6651 -0.5825
 1006MOL0     C32706   6.086   7.040  10.940 -0.0248  0.6263 -0.5167
 1006MOL0     O32707   6.378   7.116  10.736 -0.4154 -0.4022  0.9332
 1006MOL0     C32708   6.622   6.978  10.725  1.3173  0.2733  0.2421
 1006MOL0     C32709   6.726   6.891  10.710 -0.2279 -0.0423  0.2945
 1006MOL0     N32710   7.461   6.785  10.702  0.4603 -0.5221 -0.2385
 1006MOL0     N32711   7.589   6.802  10.690  0.3299 -0.6467 -0.3415
 1006MOL0     C32712   8.847   6.469  10.439  0.0220  0.1939  0.4525
 1006MOL0     C32713   8.968   6.541  10.445  0.2992 -0.6831  0.5129
 1006MOL0     C32714   9.317   6.825  10.493 -0.5138  0.4489  0.4234
 1006MOL0     C32715   9.440   6.801  10.559  0.7071  0.0309  0.4501
 1006MOL0     C32716   9.541   6.885  10.549 -0.3547  0.6637 -0.7234
 1006MOL0     C32717   9.548   6.998  10.472  0.4134 -0.4356  0.5283
 1006MOL0     O32718   9.664   7.067  10.465 -0.3404  0.1157 -0.1612
 1006MOL0     C32719   9.665   7.166  10.361  0.3664  0.0139  0.4447
 1006MOL0     C32720   9.795   7.237  10.365 -0.9179 -0.6563 -0.1755
 1006MOL0     C32721   9.917   7.145  10.366  0.2096 -0.2376  1.0579
 1006MOL0     C32722  10.028   7.210  10.446 -0.3231 -0.4047  0.9578
 1006MOL0     C32723  10.135   7.120  10.476 -1.2562  0.6675  0.8491
 1006MOL0     C32724  10.236   7.048  10.483 -0.7237 -0.0758  0.4019
 1006MOL0     C32725   9.423   7.025  10.396  0.0659  0.6936 -0.8016
 1006MOL0     C32726   9.313   6.935  10.412  0.5019 -0.5995  0.3370
 1006MOL0     H32727   8.847   6.857  10.405  2.7260 -0.9576 -1.5741
 1006MOL0     H32728   8.624   6.724  10.395 -0.4693 -1.0023  1.3501
 1006MOL0     H32729   8.475   6.581  10.355 -0.9259 -0.6013 -0.2138
 1006MOL0     H32730   8.502   6.574  10.528  1.0891 -1.8440  0.5846
 1006MOL0     H32731   8.410   6.316  10.514 -5.9541 -2.0115  0.4679
 1006MOL0     H32732   8.333   6.382  10.371 -1.1475  0.1953  0.8900
 1006MOL0     H32733   8.314   6.505  10.636 -0.2581  1.1296 -0.3585
 1006MOL0     H32734   8.210   6.374  10.587  3.3492 -0.9803  1.6619
 1006MOL0     H32735   8.252   6.642  10.466  0.1178 -0.0763 -0.2010
 1006MOL0     H32736   8.152   6.529  10.372 -1.1904  1.3946 -0.4402
 1006MOL0     H32737   8.021   6.693  10.477 -0.4350 -0.9092 -0.4735
 1006MOL0     H32738   8.079   6.658  10.637  2.2067 -0.8061 -0.5119
 1006MOL0     H32739   7.988   6.435  10.644  1.5780  0.9809  0.8145
 1006MOL0     H32740   7.966   6.422  10.477  0.9275 -0.5076  1.6376
 1006MOL0     H32741   7.807   6.626  10.472  1.4197  0.5037  0.3506
 1006MOL0     H32742   7.743   6.488  10.560 -1.6174  0.9375 -0.9743
 1006MOL0     H32743   7.835   6.762  10.680 -1.0898 -0.0820  1.9909
 1006MOL0     H32744   7.827   6.621  10.776  0.7994  1.1223  0.8942
 1006MOL0     H32745   7.568   6.484  10.747  2.4826  0.2658  1.0192
 1006MOL0     H32746   7.290   6.551  10.850  0.1860 -1.5682 -0.0287
 1006MOL0     H32747   7.296   6.490  10.678 -0.7984 -1.8403  0.8014
 1006MOL0     H32748   7.209   6.706  10.593  0.7395  1.0943  0.4402
 1006MOL0     H32749   7.198   6.755  10.761 -0.4252 -0.7580  1.1519
 1006MOL0     H32750   7.058   6.569  10.581  2.6793  0.1505 -0.2955
 1006MOL0     H32751   7.047   6.529  10.760 -0.9963  0.0270 -0.3772
 1006MOL0     H32752   6.965   6.794  10.631  0.5765 -1.2512 -1.8606
 1006MOL0     H32753   6.931   6.749  10.799  0.3789 -0.6696  0.4793
 1006MOL0     H32754   6.566   6.587  10.693 -2.0169 -0.3485 -0.3060
 1006MOL0     H32755   6.378   6.733  10.745  0.0340 -1.4150 -2.5686
 1006MOL0     H32756   6.111   7.031  10.591  1.7615 -1.9435  2.2271
 1006MOL0     H32757   5.902   7.133  10.604 -0.2882 -2.8155  0.3699
 1006MOL0     H32758   5.701   7.213  10.661  1.9656 -3.2742  1.4104
 1006MOL0     H32759   5.791   7.360  10.718  0.6296 -0.7908 -1.4195
 1006MOL0     H32760   5.616   7.424  10.860  0.2571 -1.4171  1.6118
 1006MOL0     H32761   5.515   7.285  10.836  0.3477 -0.6419  1.6640
 1006MOL0     H32762   5.527   7.325  10.590 -1.1882  0.4922 -1.0638
 1006MOL0     H32763   5.561   7.493  10.619  2.2490 -0.9082  0.3038
 1006MOL0     H32764   5.312   7.337  10.730  1.3676 -0.1536  1.3825
 1006MOL0     H32765   5.350   7.511  10.758 -0.4817 -1.4421  2.2404
 1006MOL0     H32766   5.317   7.380  10.485 -0.6102  0.2741  0.1575
 1006MOL0     H32767   5.335   7.551  10.497 -1.3062 -0.0764 -1.4183
 1006MOL0     H32768   5.111   7.582  10.582  1.7012  0.5825  0.7342
 1006MOL0     H32769   5.106   7.401  10.600 -2.2195  0.1771 -1.2800
 1006MOL0     H32770   5.177   7.489  10.325 -0.9601  1.2965  0.1903
 1006MOL0     H32771   5.099   7.341  10.376 -0.0392 -0.5803  3.0775
 1006MOL0     H32772   4.966   7.501  10.241 -1.2027  1.2237  0.1933
 1006MOL0     H32773   4.962   7.615  10.379  2.4324  2.1246 -1.3174
 1006MOL0     H32774   5.916   7.126  11.047 -0.4735  0.8955 -0.9616
 1006MOL0     H32775   6.135   6.999  11.028 -3.1031  3.4682  2.8461
 1006MOL0     H32776   6.625   7.086  10.739 -2.4871  0.3902  1.1786
 1006MOL0     H32777   6.823   6.940  10.713 -0.5424  0.5967  0.1292
 1006MOL0     H32778   8.848   6.360  10.434 -0.5725  0.2277 -3.4244
 1006MOL0     H32779   9.067   6.496  10.452  1.5969  1.6393 -1.5962
 1006MOL0     H32780   9.449   6.716  10.625  1.0325  0.3806  0.8632
 1006MOL0     H32781   9.634   6.851  10.595 -0.7156 -1.1131 -1.2740
 1006MOL0     H32782   9.582   7.236  10.368 -1.4008 -1.6002 -2.2512
 1006MOL0     H32783   9.655   7.114  10.265  0.7967  1.7169 -0.5659
 1006MOL0     H32784   9.807   7.301  10.277  3.6299  0.0852  0.7142
 1006MOL0     H32785   9.794   7.309  10.447  1.3951  0.6952 -1.2127
 1006MOL0     H32786   9.953   7.110  10.269 -3.5044 -1.5494 -0.0541
 1006MOL0     H32787   9.892   7.052  10.419  1.5893  0.7027  3.4848
 1006MOL0     H32788  10.082   7.288  10.390  2.3110 -1.1030  2.3603
 1006MOL0     H32789   9.998   7.243  10.546  2.3193  3.3396  0.7283
 1006MOL0     H32790  10.322   6.984  10.491 -0.0867  0.7462  0.2124
 1006MOL0     H32791   9.406   7.110  10.331 -1.2021  0.2637 -1.0581
 1006MOL0     H32792   9.225   6.960  10.353  1.1411 -2.4450 -1.5500
 1007MOL0     O32793   0.958   0.997   2.147  0.4502  0.1746  0.1544
 1007MOL0     C32794   0.959   0.931   2.253 -0.1482 -0.0518  0.3060
 1007MOL0     O32795   0.863   0.850   2.296  0.0716 -1.0611 -0.7139
 1007MOL0     C32796   0.748   0.835   2.223 -0.0261  0.7076  0.3180
 1007MOL0     C32797   0.646   0.789   2.303 -0.5237 -0.3708 -0.2914
 1007MOL0     C32798   0.516   0.770   2.250 -0.0628  0.0589 -0.2817
 1007MOL0     C32799   0.490   0.809   2.122 -0.0104  1.0644  0.7155
 1007MOL0     O32800   0.363   0.814   2.068  0.0568  0.4761  0.0629
 1007MOL0     C32801   0.330   0.908   1.969 -0.1986 -0.2030 -0.6204
 1007MOL0     C32802   0.182   0.905   1.923  0.1337  0.2512 -0.0930
 1007MOL0     C32803   0.144   0.773   1.860 -0.8270 -0.1747 -0.2176
 1007MOL0     C32804   0.022   0.784   1.772  0.4522  0.3396 -0.2211
 1007MOL0     C32805  -0.111   0.803   1.843  0.6064 -0.1804 -0.6133
 1007MOL0     C32806  -0.223   0.813   1.744 -0.4022 -0.0127 -0.5208
 1007MOL0     C32807  -0.355   0.817   1.821 -0.6287 -0.0903  0.2452
 1007MOL0     C32808  -0.467   0.845   1.724 -0.1413  0.1194  0.3441
 1007MOL0     N32809  -0.591   0.873   1.803  0.0066  0.4274  0.2421
 1007MOL0     C32810  -0.694   0.936   1.739  0.9240 -0.8247 -0.7034
 1007MOL0     C32811  -0.799   0.930   1.826  1.3342 -0.5065  0.0260
 1007MOL0     C32812  -0.937   0.979   1.807  0.0500  1.5217  1.1582
 1007MOL0     C32813  -1.031   0.925   1.915 -0.5092 -0.5677  0.1387
 1007MOL0     C32814  -1.163   0.984   1.882 -0.1305 -0.2051 -0.6230
 1007MOL0     C32815  -1.268   0.939   1.984  0.7905 -0.6712  0.0186
 1007MOL0     O32816  -1.234   0.968   2.123  0.0655 -0.3915  0.7006
 1007MOL0     C32817  -1.288   1.075   2.192 -0.6962 -0.9065 -0.6623
 1007MOL0     C32818  -1.355   1.172   2.125 -0.3394 -1.1206  0.0607
 1007MOL0     C32819  -1.400   1.281   2.196  0.1520  0.0210  0.3793
 1007MOL0     C32820  -1.413   1.287   2.337  0.3520 -1.2733  0.2702
 1007MOL0     C32821  -1.487   1.395   2.409 -0.0538 -0.5210  0.1392
 1007MOL0     O32822  -1.542   1.369   2.530  0.5397  0.5393 -0.1420
 1007MOL0     C32823  -1.623   1.464   2.597 -0.8486  0.0095  0.8245
 1007MOL0     C32824  -1.586   1.514   2.724  0.2043 -0.6458  0.5148
 1007MOL0     C32825  -1.668   1.613   2.785 -1.2563  0.5016  0.5910
 1007MOL0     C32826  -1.795   1.638   2.728 -0.0289 -0.5285  0.3236
 1007MOL0     O32827  -1.870   1.730   2.784 -0.5193 -0.8929 -0.5453
 1007MOL0     C32828  -1.993   1.779   2.731  1.1966  0.0493  0.1853
 1007MOL0     C32829  -2.048   1.889   2.810 -0.6231  0.3093 -0.3247
 1007MOL0     C32830  -2.182   1.932   2.752  0.8604 -0.2241  0.8907
 1007MOL0     C32831  -2.254   2.044   2.827 -0.8576 -1.2499 -0.1657
 1007MOL0     C32832  -2.358   2.119   2.758 -0.3178 -0.7674  0.2515
 1007MOL0     C32833  -2.415   2.222   2.857 -0.0897  0.9751 -1.5818
 1007MOL0     C32834  -2.515   2.315   2.780 -0.2478  0.7898 -0.5948
 1007MOL0     C32835  -2.540   2.444   2.860 -0.0705  0.3186 -0.0156
 1007MOL0    Cl32836  -2.711   2.488   2.835 -0.1293  0.1065 -0.2899
 1007MOL0     C32837  -1.843   1.573   2.614  0.6693  0.1917 -0.2921
 1007MOL0     C32838  -1.751   1.494   2.541 -0.8311  0.0255 -0.5988
 1007MOL0     O32839  -1.498   1.501   2.358 -0.2946  0.6022 -0.3086
 1007MOL0     C32840  -1.345   1.183   2.403 -0.6063 -0.2341 -0.1372
 1007MOL0     C32841  -1.273   1.083   2.333  0.6674  0.6795  0.1035
 1007MOL0     N32842  -0.752   0.857   1.933 -1.7213 -0.3507  0.6938
 1007MOL0     N32843  -0.621   0.839   1.926  0.3782 -0.4993  0.2407
 1007MOL0     C32844   0.598   0.844   2.037  1.0275 -0.5124 -0.3641
 1007MOL0     C32845   0.724   0.864   2.084 -0.3787  0.6425 -0.2036
 1007MOL0     C32846   1.078   0.941   2.344  0.3275 -0.0166 -0.7209
 1007MOL0     C32847   1.182   1.032   2.305 -0.6976  0.0469  0.1528
 1007MOL0     C32848   1.299   1.032   2.383  0.3967  0.3043 -0.6274
 1007MOL0     C32849   1.304   0.965   2.506 -0.4979 -0.2576 -0.0876
 1007MOL0     O32850   1.416   0.993   2.579  0.0936  0.6485  0.0710
 1007MOL0     C32851   1.512   0.884   2.581  0.4220 -0.1800  0.1305
 1007MOL0     C32852   1.586   0.862   2.449 -0.1146 -0.8643 -0.5046
 1007MOL0     C32853   1.703   0.757   2.461 -0.3161  0.1151  0.3621
 1007MOL0     C32854   1.778   0.739   2.331 -0.3509 -0.1372  0.0085
 1007MOL0     C32855   1.887   0.653   2.346 -0.8018 -0.8158 -0.8719
 1007MOL0     C32856   1.970   0.567   2.343  0.1270 -0.4775 -0.3844
 1007MOL0     C32857   1.197   0.877   2.552 -0.4923  0.3594  0.4156
 1007MOL0     C32858   1.090   0.864   2.462 -0.5979  0.2535 -1.0575
 1007MOL0     H32859   0.667   0.776   2.408  1.2832 -0.0369 -0.5845
 1007MOL0     H32860   0.427   0.732   2.298  0.8010 -3.8079 -1.3773
 1007MOL0     H32861   0.390   0.887   1.880 -0.8453 -0.6661 -0.9542
 1007MOL0     H32862   0.354   1.011   1.998  1.8485 -0.0002 -2.8084
 1007MOL0     H32863   0.179   0.981   1.844  3.9537  0.8450  0.1419
 1007MOL0     H32864   0.113   0.931   2.003 -0.4874  0.5968 -0.7303
 1007MOL0     H32865   0.137   0.697   1.939  1.7252 -1.1454 -0.8260
 1007MOL0     H32866   0.228   0.747   1.795 -0.3465 -0.6259  0.5636
 1007MOL0     H32867   0.037   0.867   1.702  0.6493  0.2183 -0.3220
 1007MOL0     H32868   0.013   0.685   1.725 -1.1247  0.8262 -1.0352
 1007MOL0     H32869  -0.107   0.895   1.903 -2.1105  1.8779 -3.2885
 1007MOL0     H32870  -0.140   0.715   1.901  1.8042  1.7169  3.1712
 1007MOL0     H32871  -0.224   0.734   1.669  0.6509 -0.4239 -0.1130
 1007MOL0     H32872  -0.217   0.901   1.679  0.0827  1.2948  1.2201
 1007MOL0     H32873  -0.377   0.715   1.853  0.8601 -0.7107 -0.5873
 1007MOL0     H32874  -0.362   0.887   1.905  2.4735 -1.3613  1.7548
 1007MOL0     H32875  -0.474   0.760   1.656 -0.0398  1.3856 -1.3009
 1007MOL0     H32876  -0.444   0.932   1.662  0.2388  1.4131  2.1973
 1007MOL0     H32877  -0.682   0.985   1.642  1.7341  1.4247  0.4464
 1007MOL0     H32878  -0.970   0.940   1.710  2.7149 -1.8428  1.4330
 1007MOL0     H32879  -0.941   1.089   1.806  0.8014  1.5500  0.4141
 1007MOL0     H32880  -0.994   0.960   2.012  0.8796  0.5750 -0.7661
 1007MOL0     H32881  -1.031   0.815   1.916  2.1538 -0.6513 -0.7892
 1007MOL0     H32882  -1.149   1.092   1.885  0.3418 -0.2795  0.1352
 1007MOL0     H32883  -1.206   0.949   1.788 -3.5654 -2.5616  1.5900
 1007MOL0     H32884  -1.288   0.831   1.981 -1.8603 -0.3331  1.6259
 1007MOL0     H32885  -1.365   0.986   1.962  1.0464  1.0128  2.1300
 1007MOL0     H32886  -1.369   1.168   2.017 -1.5971  0.6151  0.1259
 1007MOL0     H32887  -1.432   1.361   2.130 -0.9781 -0.8184 -0.1208
 1007MOL0     H32888  -1.491   1.475   2.757  0.8588  0.3314 -0.1344
 1007MOL0     H32889  -1.634   1.671   2.870 -0.2011 -0.3933  0.8090
 1007MOL0     H32890  -2.064   1.696   2.736  0.2274  0.9172  3.7250
 1007MOL0     H32891  -1.977   1.820   2.631  0.7319  0.8704  0.4453
 1007MOL0     H32892  -1.966   1.960   2.822  0.2133 -0.6952  0.0267
 1007MOL0     H32893  -2.067   1.854   2.912 -1.7296 -0.5138 -0.7814
 1007MOL0     H32894  -2.256   1.852   2.758  0.8672 -0.1758  1.8710
 1007MOL0     H32895  -2.158   1.969   2.652  1.4864 -2.3255  0.2123
 1007MOL0     H32896  -2.292   2.000   2.920 -2.7914  0.0113 -0.3111
 1007MOL0     H32897  -2.183   2.124   2.848 -2.4681  0.1756  0.0187
 1007MOL0     H32898  -2.438   2.067   2.705 -0.4447 -1.7211  1.3228
 1007MOL0     H32899  -2.305   2.171   2.678 -3.1165 -0.4635 -1.5206
 1007MOL0     H32900  -2.329   2.271   2.902  1.2351 -3.3787  1.2353
 1007MOL0     H32901  -2.463   2.164   2.937 -1.6637  1.5553 -2.0652
 1007MOL0     H32902  -2.478   2.338   2.680 -1.4873  1.4111 -0.9276
 1007MOL0     H32903  -2.608   2.261   2.760 -1.2366  1.6558  1.3651
 1007MOL0     H32904  -2.480   2.528   2.824  0.0944 -0.2954 -1.2357
 1007MOL0     H32905  -2.517   2.439   2.967  3.6657  3.4103 -0.4602
 1007MOL0     H32906  -1.942   1.587   2.572 -0.6887 -0.0746  2.5892
 1007MOL0     H32907  -1.774   1.471   2.437  1.1210 -1.3527 -0.7674
 1007MOL0     H32908  -1.351   1.187   2.512 -0.0435  2.3908 -0.1372
 1007MOL0     H32909  -1.211   1.006   2.378 -0.3009  0.4643  1.1223
 1007MOL0     H32910   0.586   0.887   1.938 -0.0708  1.9750  0.7595
 1007MOL0     H32911   0.796   0.895   2.010  0.8058  1.5982  1.2867
 1007MOL0     H32912   1.174   1.087   2.212  2.6023  1.6816  0.6789
 1007MOL0     H32913   1.392   1.083   2.360 -0.3991  0.5582 -3.8757
 1007MOL0     H32914   1.468   0.792   2.621  0.7618 -0.1126  0.6584
 1007MOL0     H32915   1.589   0.921   2.649  0.8247  2.6483 -1.6851
 1007MOL0     H32916   1.507   0.828   2.381  0.8831 -1.0987 -1.5654
 1007MOL0     H32917   1.622   0.956   2.407 -3.3295  0.5238 -0.4616
 1007MOL0     H32918   1.657   0.670   2.507 -2.1711  1.8091  1.9353
 1007MOL0     H32919   1.779   0.797   2.530  1.0084 -1.5393 -0.0676
 1007MOL0     H32920   1.706   0.721   2.251 -1.9812 -1.8747  1.7598
 1007MOL0     H32921   1.819   0.837   2.306 -1.6605  1.1814  2.6438
 1007MOL0     H32922   2.043   0.488   2.342  2.6541  1.6003 -3.5559
 1007MOL0     H32923   1.198   0.830   2.650  4.1517 -2.7441 -0.7800
 1007MOL0     H32924   1.018   0.793   2.500 -0.5100  0.8504  0.2846
 1008MOL0     O32925   4.115   0.445   8.836  0.6246 -0.7832  0.0110
 1008MOL0     C32926   4.187   0.351   8.872 -0.1829  0.1542  0.4822
 1008MOL0     O32927   4.145   0.238   8.933 -0.5627 -0.4571  0.3125
 1008MOL0     C32928   4.011   0.225   8.926 -1.0298  0.4393 -0.1891
 1008MOL0     C32929   3.939   0.174   8.816  0.3699 -0.1787  0.2950
 1008MOL0     C32930   3.794   0.165   8.819  0.4946  0.8042  0.6080
 1008MOL0     C32931   3.725   0.189   8.937 -0.4324  0.3523 -0.3286
 1008MOL0     O32932   3.591   0.169   8.943 -0.0616  0.0610  0.4066
 1008MOL0     C32933   3.529   0.179   9.072  0.2906 -0.7322  0.6305
 1008MOL0     C32934   3.377   0.142   9.070  0.4767 -0.0080  0.5087
 1008MOL0     C32935   3.349  -0.009   9.031  0.3666 -0.8434 -0.3086
 1008MOL0     C32936   3.197  -0.035   9.017 -0.0572 -0.1666  0.9351
 1008MOL0     C32937   3.104   0.042   9.102  0.0525  0.8175 -0.9273
 1008MOL0     C32938   3.110   0.004   9.248  0.4512 -0.6936 -0.5578
 1008MOL0     C32939   3.068   0.109   9.352  0.4430 -0.6448  0.3993
 1008MOL0     C32940   2.924   0.120   9.384 -0.2086  0.0725  1.0108
 1008MOL0     N32941   2.885   0.010   9.475 -0.1658  0.7524 -0.5718
 1008MOL0     C32942   2.871   0.018   9.614 -0.5956 -0.1989  0.1309
 1008MOL0     C32943   2.826  -0.100   9.657  0.4387 -0.0972 -0.3428
 1008MOL0     C32944   2.754  -0.114   9.793  0.2702 -0.0795  0.1547
 1008MOL0     C32945   2.612  -0.147   9.781 -0.0421  0.3560 -0.1543
 1008MOL0     C32946   2.533  -0.049   9.692  0.4639  0.0353  0.2292
 1008MOL0     C32947   2.395  -0.112   9.666 -0.3849  0.5106 -0.1269
 1008MOL0     O32948   2.321  -0.034   9.569  0.5984 -0.2648  0.0696
 1008MOL0     C32949   2.335  -0.051   9.431 -0.1634 -0.1513  0.2272
 1008MOL0     C32950   2.241   0.010   9.345 -0.7657 -0.4378 -0.1664
 1008MOL0     C32951   2.251  -0.009   9.205 -0.2077  0.0971  0.0255
 1008MOL0     C32952   2.343  -0.111   9.156 -0.3805  0.0708 -0.1902
 1008MOL0     C32953   2.352  -0.122   9.014 -0.4661 -0.1898  0.7495
 1008MOL0     O32954   2.397  -0.243   8.977 -0.7205 -1.1212  0.2167
 1008MOL0     C32955   2.382  -0.257   8.841 -0.8266  0.7241  0.2337
 1008MOL0     C32956   2.500  -0.262   8.768 -0.7324  0.2874  0.1915
 1008MOL0     C32957   2.511  -0.264   8.633 -0.3545  0.2931 -0.0785
 1008MOL0     C32958   2.392  -0.271   8.563  0.0671  0.3749 -0.1296
 1008MOL0     O32959   2.390  -0.301   8.425  0.4433 -0.0143 -0.0944
 1008MOL0     C32960   2.466  -0.218   8.333 -0.3030 -0.0732 -0.2713
 1008MOL0     C32961   2.420  -0.248   8.193  0.4948 -0.3867 -0.1864
 1008MOL0     C32962   2.486  -0.153   8.096  0.2391  0.5232  0.1130
 1008MOL0     C32963   2.454  -0.182   7.957 -0.4949 -1.0187  0.0755
 1008MOL0     C32964   2.548  -0.119   7.850  0.1165 -1.1563 -0.0818
 1008MOL0     C32965   2.474  -0.130   7.718 -0.0579  0.1880 -0.9186
 1008MOL0     C32966   2.573  -0.070   7.610 -0.2084 -0.4137 -0.6769
 1008MOL0     C32967   2.540   0.075   7.573 -0.4419 -0.6798 -0.3521
 1008MOL0    Cl32968   2.444   0.088   7.418  0.3701  0.0625 -0.0685
 1008MOL0     C32969   2.271  -0.282   8.628  0.8230  0.6073 -0.2889
 1008MOL0     C32970   2.264  -0.270   8.767 -0.4541 -0.0869  1.0767
 1008MOL0     O32971   2.325  -0.028   8.949 -0.0988 -0.6181  0.3833
 1008MOL0     C32972   2.429  -0.174   9.248  0.1535 -0.6034  0.6099
 1008MOL0     C32973   2.422  -0.148   9.379  0.4765 -0.4803 -0.7535
 1008MOL0     N32974   2.822  -0.187   9.551  0.6509  0.7018  0.3716
 1008MOL0     N32975   2.859  -0.124   9.441  0.3316 -0.0148  0.0112
 1008MOL0     C32976   3.799   0.241   9.045 -0.1668 -0.8487 -0.9626
 1008MOL0     C32977   3.941   0.259   9.042 -0.0878 -0.1942  0.1890
 1008MOL0     C32978   4.324   0.368   8.852 -0.5269  0.9791  0.2530
 1008MOL0     C32979   4.375   0.385   8.724  0.2235  0.0914  0.8122
 1008MOL0     C32980   4.510   0.411   8.700  0.2341  0.8024 -0.8956
 1008MOL0     C32981   4.605   0.411   8.808 -0.1161  0.9113  0.0038
 1008MOL0     O32982   4.739   0.433   8.797 -0.1180  0.8329  0.3161
 1008MOL0     C32983   4.792   0.493   8.676  0.3127  0.4453 -0.2624
 1008MOL0     C32984   4.941   0.502   8.690 -1.2581  0.3706  0.0168
 1008MOL0     C32985   5.019   0.384   8.636 -1.0011  0.1294  0.0935
 1008MOL0     C32986   4.971   0.250   8.688  0.4998 -0.8361 -0.3959
 1008MOL0     C32987   5.012   0.249   8.832  0.5717 -0.4187 -0.1546
 1008MOL0     C32988   5.045   0.225   8.947  0.0495  0.1018 -0.5377
 1008MOL0     C32989   4.555   0.369   8.932  0.0626 -0.2330 -0.2423
 1008MOL0     C32990   4.417   0.342   8.960  0.4267 -0.4444 -0.3072
 1008MOL0     H32991   3.986   0.155   8.720 -0.9871 -1.7928 -0.0990
 1008MOL0     H32992   3.736   0.143   8.729 -0.5342  0.7809  1.2586
 1008MOL0     H32993   3.532   0.282   9.111  2.4249 -1.2003  1.8265
 1008MOL0     H32994   3.582   0.120   9.147 -1.4540 -1.5863  1.2574
 1008MOL0     H32995   3.327   0.209   9.000 -1.7582 -0.9938  1.0475
 1008MOL0     H32996   3.328   0.172   9.163 -0.5583 -0.2175  0.0442
 1008MOL0     H32997   3.398  -0.074   9.104  1.7993 -0.3173 -0.7548
 1008MOL0     H32998   3.386  -0.027   8.930  0.9246 -0.2594 -0.2205
 1008MOL0     H32999   3.160  -0.014   8.917  2.7324  0.6432 -0.0148
 1008MOL0     H33000   3.171  -0.140   9.032 -1.8763 -0.0801 -1.1819
 1008MOL0     H33001   3.008   0.014   9.056  0.8093 -2.3822 -0.8060
 1008MOL0     H33002   3.118   0.149   9.085  1.5137  0.9729  0.9295
 1008MOL0     H33003   3.211  -0.028   9.272  0.2428 -0.6975  0.3245
 1008MOL0     H33004   3.045  -0.083   9.263 -0.9668  0.7627  2.5357
 1008MOL0     H33005   3.123   0.082   9.443 -1.0944  0.6698  1.7708
 1008MOL0     H33006   3.110   0.203   9.316 -0.6816  0.2650  1.4071
 1008MOL0     H33007   2.871   0.104   9.290  0.5637  1.5317  0.2955
 1008MOL0     H33008   2.893   0.220   9.417  1.8438  0.5027  1.7750
 1008MOL0     H33009   2.866   0.113   9.667  2.3458  0.0590  0.0945
 1008MOL0     H33010   2.768  -0.020   9.848  1.2959  0.6402 -1.2637
 1008MOL0     H33011   2.813  -0.188   9.848  1.3803  1.3508  0.9768
 1008MOL0     H33012   2.570  -0.144   9.882 -2.4209  3.4497 -1.0736
 1008MOL0     H33013   2.609  -0.248   9.738  3.0499  0.9975 -2.2267
 1008MOL0     H33014   2.528   0.049   9.740  0.5492 -0.6769  1.7565
 1008MOL0     H33015   2.574  -0.025   9.594 -0.5197 -2.9338 -1.0344
 1008MOL0     H33016   2.341  -0.131   9.759  1.0590 -0.1354  0.6236
 1008MOL0     H33017   2.403  -0.216   9.632  0.2352 -0.3649  2.4568
 1008MOL0     H33018   2.169   0.082   9.382 -0.9511 -2.0076  2.8383
 1008MOL0     H33019   2.210   0.068   9.141  2.1449  2.8589  1.6318
 1008MOL0     H33020   2.595  -0.264   8.822  1.2376 -0.1634 -3.0218
 1008MOL0     H33021   2.604  -0.247   8.580  0.4694  0.2653  1.3394
 1008MOL0     H33022   2.573  -0.239   8.340 -0.4885 -0.4096  2.8740
 1008MOL0     H33023   2.447  -0.112   8.355 -0.8636 -0.2209 -0.0400
 1008MOL0     H33024   2.311  -0.242   8.186  0.5875  1.2548 -0.4216
 1008MOL0     H33025   2.453  -0.351   8.174  1.6658  0.3077 -2.0923
 1008MOL0     H33026   2.595  -0.156   8.106  0.2372 -0.5616 -0.1125
 1008MOL0     H33027   2.456  -0.051   8.121  1.5142  1.5098 -2.1109
 1008MOL0     H33028   2.463  -0.289   7.937 -2.1030 -0.8382 -2.0488
 1008MOL0     H33029   2.350  -0.158   7.933  0.6655  0.7520 -4.1843
 1008MOL0     H33030   2.648  -0.163   7.841  0.5941 -0.7841  2.7070
 1008MOL0     H33031   2.546  -0.012   7.869  0.9234 -0.7225 -2.1335
 1008MOL0     H33032   2.373  -0.089   7.725 -0.6363 -1.3314  0.4168
 1008MOL0     H33033   2.461  -0.238   7.703 -2.4576  0.4803 -1.3853
 1008MOL0     H33034   2.672  -0.068   7.656 -1.2149  4.3646  1.9955
 1008MOL0     H33035   2.577  -0.131   7.519  1.1277  2.7893 -2.9504
 1008MOL0     H33036   2.633   0.120   7.537  0.2899 -1.1595  0.8450
 1008MOL0     H33037   2.501   0.127   7.661  2.7715 -1.0074  1.4197
 1008MOL0     H33038   2.191  -0.327   8.570 -0.9953  2.0296  0.9967
 1008MOL0     H33039   2.165  -0.264   8.812  0.3654 -0.4371  3.0270
 1008MOL0     H33040   2.511  -0.218   9.192  0.8401  0.2839  0.8960
 1008MOL0     H33041   2.493  -0.206   9.437 -2.5588 -3.7207  0.1118
 1008MOL0     H33042   3.749   0.256   9.140  1.5651 -0.1361 -0.1106
 1008MOL0     H33043   3.988   0.292   9.134 -1.5422 -3.9057  2.5154
 1008MOL0     H33044   4.319   0.396   8.631  3.7644  3.1874 -1.2665
 1008MOL0     H33045   4.545   0.443   8.602  0.8131  2.0458 -0.3097
 1008MOL0     H33046   4.749   0.594   8.676  0.0092  0.3192 -0.1957
 1008MOL0     H33047   4.755   0.441   8.587 -0.0258  0.7096 -0.2780
 1008MOL0     H33048   4.985   0.591   8.644  2.2090 -2.2772 -2.3214
 1008MOL0     H33049   4.963   0.514   8.797  0.7692 -0.0522 -0.3189
 1008MOL0     H33050   5.126   0.390   8.659 -1.1651  2.0509  0.5941
 1008MOL0     H33051   5.023   0.380   8.527 -2.2860  0.8684 -0.0083
 1008MOL0     H33052   4.865   0.238   8.664  0.2315  1.4862 -0.6142
 1008MOL0     H33053   5.026   0.174   8.632  2.0114 -1.5003  1.8522
 1008MOL0     H33054   5.070   0.203   9.048  0.8512 -1.5797 -1.0660
 1008MOL0     H33055   4.626   0.361   9.014 -0.3029 -2.0757 -0.0603
 1008MOL0     H33056   4.376   0.319   9.058 -3.3815  0.2862 -1.5729
 1009MOL0     O33057   5.114   1.578   6.690 -0.7438 -0.5177  0.1125
 1009MOL0     C33058   5.190   1.510   6.627 -0.1155  0.6159 -0.4153
 1009MOL0     O33059   5.159   1.436   6.521 -0.1970  1.0576 -0.1872
 1009MOL0     C33060   5.033   1.414   6.484 -0.3654 -0.7236  0.2800
 1009MOL0     C33061   4.927   1.386   6.572 -0.2320  0.5067  0.0116
 1009MOL0     C33062   4.801   1.368   6.514  0.7669 -0.2966 -0.7454
 1009MOL0     C33063   4.780   1.364   6.380 -1.2405 -0.6318 -0.9168
 1009MOL0     O33064   4.662   1.347   6.311  0.1223 -0.2646 -0.4001
 1009MOL0     C33065   4.544   1.332   6.395 -0.8242  0.6579 -0.6216
 1009MOL0     C33066   4.432   1.307   6.295 -0.0193 -0.0972  0.7738
 1009MOL0     C33067   4.371   1.434   6.254  0.2111 -0.3742 -0.5600
 1009MOL0     C33068   4.241   1.419   6.175 -0.5735  0.2632  0.3036
 1009MOL0     C33069   4.172   1.557   6.150 -0.0513 -0.2426  0.0657
 1009MOL0     C33070   4.045   1.543   6.072 -0.6079 -0.0845 -0.5115
 1009MOL0     C33071   3.954   1.661   6.087  0.3375 -0.1258 -0.3568
 1009MOL0     C33072   3.818   1.634   6.037  0.7991  0.5923 -0.2747
 1009MOL0     N33073   3.732   1.751   6.058  0.0565  0.3835  0.6404
 1009MOL0     C33074   3.617   1.748   6.125 -0.2702  0.7402  0.2318
 1009MOL0     C33075   3.554   1.868   6.110 -0.4800 -0.5802  0.5996
 1009MOL0     C33076   3.416   1.907   6.149  0.6361 -0.3618 -0.2585
 1009MOL0     C33077   3.317   1.827   6.067  0.5987 -0.0901  0.1345
 1009MOL0     C33078   3.275   1.688   6.129  0.5569  0.3402  0.2993
 1009MOL0     C33079   3.190   1.620   6.025  0.3685 -0.0380  1.0562
 1009MOL0     O33080   3.062   1.688   6.020  0.5537  0.2978 -0.6040
 1009MOL0     C33081   3.002   1.704   5.896 -0.4199  0.1199  0.2169
 1009MOL0     C33082   3.037   1.806   5.813  0.0252 -0.4765  0.2248
 1009MOL0     C33083   2.950   1.850   5.710 -0.2675 -0.0514 -0.3633
 1009MOL0     C33084   2.847   1.764   5.674 -0.0404 -0.8485 -0.4506
 1009MOL0     C33085   2.762   1.799   5.567 -0.4342 -0.1988  0.8126
 1009MOL0     O33086   2.650   1.727   5.538  0.4470 -0.3037  0.0512
 1009MOL0     C33087   2.541   1.783   5.468 -0.1910  0.1867 -0.4191
 1009MOL0     C33088   2.485   1.905   5.499  0.0306  0.6606  0.1175
 1009MOL0     C33089   2.371   1.947   5.432  1.0915  0.4289 -0.5074
 1009MOL0     C33090   2.309   1.861   5.331  0.2795 -0.5417 -0.3564
 1009MOL0     O33091   2.192   1.906   5.273  0.7924  0.2809  0.1901
 1009MOL0     C33092   2.102   1.809   5.218  0.3978 -0.2192 -0.4848
 1009MOL0     C33093   1.962   1.869   5.174 -0.0826  0.4596 -0.9454
 1009MOL0     C33094   1.902   1.947   5.291  0.8509  0.8803 -0.1891
 1009MOL0     C33095   1.768   2.014   5.269 -0.4529  0.4317  0.1227
 1009MOL0     C33096   1.724   2.067   5.413  0.3658  0.4872  0.1507
 1009MOL0     C33097   1.590   2.151   5.409  0.3797  0.3633  0.3627
 1009MOL0     C33098   1.534   2.170   5.553 -0.4451  0.2358  0.5510
 1009MOL0     C33099   1.510   2.310   5.586 -0.2512 -0.4846 -0.7079
 1009MOL0    Cl33100   1.665   2.398   5.626  0.1712 -0.4313 -0.1516
 1009MOL0     C33101   2.359   1.734   5.308 -0.6489 -0.0604 -0.9066
 1009MOL0     C33102   2.476   1.698   5.378 -0.5029 -0.4657 -0.1889
 1009MOL0     O33103   2.789   1.903   5.500 -0.6364 -0.1222 -0.0464
 1009MOL0     C33104   2.829   1.645   5.743 -0.0107  0.1147  0.5974
 1009MOL0     C33105   2.900   1.621   5.865  0.8360 -0.0499  0.2010
 1009MOL0     N33106   3.627   1.933   6.008  0.5354 -0.8715  0.3552
 1009MOL0     N33107   3.731   1.862   5.980 -0.1539 -0.1841  0.2706
 1009MOL0     C33108   4.892   1.394   6.298 -0.8414 -0.0214 -0.1522
 1009MOL0     C33109   5.024   1.412   6.347  1.2236 -0.8372 -0.1805
 1009MOL0     C33110   5.329   1.496   6.668  0.0042  1.1333  0.3680
 1009MOL0     C33111   5.425   1.442   6.576  0.0429  0.6126 -0.8671
 1009MOL0     C33112   5.556   1.420   6.608  0.9179  0.7158 -0.1063
 1009MOL0     C33113   5.602   1.451   6.734 -0.4168 -0.7568 -0.8959
 1009MOL0     O33114   5.732   1.444   6.779  0.0719  0.4006 -0.2217
 1009MOL0     C33115   5.830   1.386   6.694  1.3778 -1.0167  0.6153
 1009MOL0     C33116   5.962   1.375   6.764  0.4862  0.5372 -0.0256
 1009MOL0     C33117   6.046   1.502   6.744 -0.4012 -0.6285  0.2082
 1009MOL0     C33118   6.159   1.510   6.840  0.4000 -0.1303  0.4281
 1009MOL0     C33119   6.225   1.635   6.839  0.6662 -0.4022  0.3560
 1009MOL0     C33120   6.279   1.742   6.847 -0.9029  1.0803  0.5013
 1009MOL0     C33121   5.510   1.507   6.831 -0.0479  0.1930  0.6100
 1009MOL0     C33122   5.376   1.533   6.792  0.1497  0.4422  0.9692
 1009MOL0     H33123   4.946   1.377   6.678  1.2895  0.4672 -0.2484
 1009MOL0     H33124   4.722   1.348   6.586 -1.2244  2.5089 -1.9550
 1009MOL0     H33125   4.525   1.413   6.466  3.3534 -0.6821  2.4125
 1009MOL0     H33126   4.559   1.240   6.450  1.2964 -0.6567 -3.1589
 1009MOL0     H33127   4.355   1.239   6.331 -0.1217 -0.1108  0.5311
 1009MOL0     H33128   4.468   1.262   6.201 -1.5303  1.1273 -0.4520
 1009MOL0     H33129   4.442   1.489   6.191 -0.9295  0.5402 -1.1112
 1009MOL0     H33130   4.349   1.493   6.343 -0.9872 -2.9945  0.9984
 1009MOL0     H33131   4.241   1.352   6.089  0.2727 -0.5754  0.9380
 1009MOL0     H33132   4.165   1.370   6.237  0.6182 -3.0024 -0.6346
 1009MOL0     H33133   4.234   1.626   6.092 -1.4482 -0.5828 -1.9316
 1009MOL0     H33134   4.155   1.606   6.246 -4.1876 -0.0576 -0.5945
 1009MOL0     H33135   3.992   1.451   6.098 -2.2985 -0.1260 -3.6213
 1009MOL0     H33136   4.059   1.509   5.969  0.5984 -1.9667  0.2090
 1009MOL0     H33137   3.934   1.684   6.192  0.7152  2.4476 -0.7902
 1009MOL0     H33138   4.004   1.740   6.029  0.0517 -1.2693 -2.2564
 1009MOL0     H33139   3.774   1.541   6.076 -0.2422  0.3605 -1.8912
 1009MOL0     H33140   3.828   1.630   5.928  1.1094 -1.3270 -0.2211
 1009MOL0     H33141   3.570   1.660   6.168 -4.6821  2.2281 -1.0303
 1009MOL0     H33142   3.402   2.014   6.127 -3.7489 -0.8780 -0.7747
 1009MOL0     H33143   3.403   1.886   6.255  1.3149  2.1443  0.3959
 1009MOL0     H33144   3.357   1.811   5.967  3.9096 -1.3992  1.5207
 1009MOL0     H33145   3.225   1.886   6.063  1.5630  1.6784  1.9806
 1009MOL0     H33146   3.363   1.627   6.150  0.6833  0.1922 -0.6509
 1009MOL0     H33147   3.217   1.701   6.222  2.8578 -2.1122  2.2269
 1009MOL0     H33148   3.171   1.514   6.046  3.3495 -1.5620 -2.7224
 1009MOL0     H33149   3.245   1.607   5.931 -0.8056 -1.5962  0.5433
 1009MOL0     H33150   3.122   1.867   5.840 -0.1660 -0.8437  1.7251
 1009MOL0     H33151   2.976   1.936   5.650  1.5552 -1.0201 -1.0398
 1009MOL0     H33152   2.521   1.972   5.577  1.8086  0.3658 -0.4009
 1009MOL0     H33153   2.313   2.036   5.454  2.8980  1.5495 -0.1756
 1009MOL0     H33154   2.070   1.723   5.278 -3.1452  1.4250  0.1874
 1009MOL0     H33155   2.150   1.758   5.134 -2.7741 -5.0511  0.1965
 1009MOL0     H33156   1.892   1.790   5.145 -1.0667  1.0423 -0.2332
 1009MOL0     H33157   1.973   1.937   5.089  1.0268  0.2815 -0.9607
 1009MOL0     H33158   1.974   2.018   5.333  0.4479  1.3664 -0.2934
 1009MOL0     H33159   1.890   1.872   5.370 -0.3329  0.1949 -0.9771
 1009MOL0     H33160   1.797   2.089   5.194 -1.7670 -1.4254 -2.3791
 1009MOL0     H33161   1.691   1.949   5.226 -0.9828  1.5613 -0.7032
 1009MOL0     H33162   1.796   2.143   5.446 -0.6025  1.6601 -0.3585
 1009MOL0     H33163   1.699   1.988   5.484 -1.0289  0.5770 -0.2184
 1009MOL0     H33164   1.519   2.081   5.362 -0.2737 -0.3906  2.3523
 1009MOL0     H33165   1.607   2.248   5.362  2.2346  0.3858  1.0045
 1009MOL0     H33166   1.436   2.121   5.556 -1.1295  1.5053 -0.1036
 1009MOL0     H33167   1.606   2.125   5.622 -1.0257 -2.2725 -0.3613
 1009MOL0     H33168   1.454   2.308   5.680 -1.4872  1.1397 -1.3594
 1009MOL0     H33169   1.445   2.351   5.508  0.1984 -1.2382 -1.4887
 1009MOL0     H33170   2.306   1.665   5.244  0.9406 -1.6807 -0.5772
 1009MOL0     H33171   2.525   1.602   5.369  0.0997 -0.5158  2.6629
 1009MOL0     H33172   2.760   1.569   5.707  0.4258 -0.6055  1.2477
 1009MOL0     H33173   2.872   1.538   5.929  0.0602 -0.5210 -0.7213
 1009MOL0     H33174   4.884   1.380   6.190  2.0701  1.1568 -0.6147
 1009MOL0     H33175   5.118   1.435   6.297  2.2629  1.4214  2.5282
 1009MOL0     H33176   5.399   1.419   6.473 -0.3923  0.1188 -0.6488
 1009MOL0     H33177   5.613   1.359   6.539 -0.9564 -0.0401 -1.0552
 1009MOL0     H33178   5.844   1.452   6.608  2.2507 -0.6222  1.0435
 1009MOL0     H33179   5.802   1.282   6.673  0.4234 -0.5381 -0.5780
 1009MOL0     H33180   5.935   1.344   6.865 -0.7299 -4.4241 -1.5584
 1009MOL0     H33181   6.015   1.292   6.715 -0.3720 -0.4513  0.6778
 1009MOL0     H33182   5.993   1.598   6.743  3.6388  1.8430  0.4592
 1009MOL0     H33183   6.103   1.486   6.652  3.9009  0.7528  2.3631
 1009MOL0     H33184   6.116   1.492   6.938 -2.5112 -0.2627 -0.7860
 1009MOL0     H33185   6.241   1.441   6.817 -0.5187 -1.3473  0.6989
 1009MOL0     H33186   6.335   1.833   6.853  0.4782  0.5678 -2.3306
 1009MOL0     H33187   5.557   1.525   6.927  2.6298 -3.6682  0.2342
 1009MOL0     H33188   5.306   1.572   6.865 -0.6986 -4.1052  2.9451
 1010MOL0     O33189   9.045   4.662   4.134  0.5640 -0.4118  0.0432
 1010MOL0     C33190   9.135   4.612   4.072  0.3832 -0.2225 -0.2143
 1010MOL0     O33191   9.122   4.535   3.959 -0.3740  0.0942 -0.1392
 1010MOL0     C33192   9.000   4.494   3.906 -0.3870  0.1910 -0.2964
 1010MOL0     C33193   8.989   4.461   3.772  0.7360 -0.0867 -0.1937
 1010MOL0     C33194   8.875   4.413   3.710  0.4509  0.0172  0.5948
 1010MOL0     C33195   8.775   4.364   3.795  0.5752 -1.2121 -0.4436
 1010MOL0     O33196   8.652   4.320   3.752  0.8687  0.7231  0.6106
 1010MOL0     C33197   8.615   4.339   3.615  0.1648 -0.6776  0.0419
 1010MOL0     C33198   8.464   4.291   3.611  0.2621 -1.0368 -0.5062
 1010MOL0     C33199   8.447   4.148   3.642 -0.1713 -0.0864 -0.0337
 1010MOL0     C33200   8.332   4.064   3.581 -0.1882  1.0863 -0.5546
 1010MOL0     C33201   8.279   3.946   3.664 -1.3283 -0.7368 -0.1210
 1010MOL0     C33202   8.175   3.874   3.595 -0.9419  0.8175 -0.0521
 1010MOL0     C33203   8.141   3.756   3.690  0.0353  0.0085 -0.0328
 1010MOL0     C33204   8.079   3.631   3.616  0.7880  0.0715 -0.3890
 1010MOL0     N33205   7.936   3.637   3.579 -0.1066  0.2585  0.4224
 1010MOL0     C33206   7.878   3.639   3.452 -0.8297  0.1970 -0.7285
 1010MOL0     C33207   7.746   3.621   3.480  0.0813 -0.0212 -0.1170
 1010MOL0     C33208   7.630   3.622   3.380 -0.3525  0.8153  0.1228
 1010MOL0     C33209   7.557   3.490   3.414 -0.3592  0.1085  0.3405
 1010MOL0     C33210   7.419   3.473   3.343 -0.0858 -0.4102  0.0757
 1010MOL0     C33211   7.329   3.379   3.433 -0.4093 -0.0645  0.3263
 1010MOL0     O33212   7.404   3.259   3.456 -0.8046  0.1833 -0.0713
 1010MOL0     C33213   7.336   3.166   3.533  0.0485 -0.7474 -0.5671
 1010MOL0     C33214   7.368   3.149   3.665  0.0881 -0.3113 -0.3768
 1010MOL0     C33215   7.287   3.070   3.747 -1.3816  0.6346  0.2688
 1010MOL0     C33216   7.180   2.992   3.693 -0.0508  0.2208 -0.5938
 1010MOL0     C33217   7.102   2.895   3.786  0.0737  0.8118 -0.0445
 1010MOL0     O33218   6.995   2.835   3.733  0.7750  0.0446 -0.2986
 1010MOL0     C33219   6.903   2.742   3.789 -0.5450 -0.4718 -0.4369
 1010MOL0     C33220   6.794   2.722   3.715 -0.9374  1.2558  0.0557
 1010MOL0     C33221   6.682   2.649   3.770 -0.3885 -0.7555  0.3936
 1010MOL0     C33222   6.685   2.600   3.900  0.4290 -0.0280 -0.2408
 1010MOL0     O33223   6.581   2.514   3.945 -0.5499  0.7030 -0.0387
 1010MOL0     C33224   6.445   2.529   3.886 -0.5692  0.0103 -0.5883
 1010MOL0     C33225   6.346   2.432   3.951  0.8487 -0.2941  0.3099
 1010MOL0     C33226   6.203   2.458   3.910  0.1889  0.8551  0.4631
 1010MOL0     C33227   6.108   2.336   3.928  0.7188 -0.4121  0.3210
 1010MOL0     C33228   5.974   2.361   3.858  1.0189 -0.5295  0.1124
 1010MOL0     C33229   5.892   2.244   3.890 -0.1948  0.1263 -0.6073
 1010MOL0     C33230   5.748   2.269   3.815  0.2125 -0.1440  0.3193
 1010MOL0     C33231   5.695   2.145   3.752 -0.2310  0.4685 -0.5679
 1010MOL0    Cl33232   5.565   2.179   3.644  0.2681  0.0370 -0.1211
 1010MOL0     C33233   6.811   2.611   3.964  0.6579 -0.1021  0.8889
 1010MOL0     C33234   6.916   2.686   3.918  0.2778  0.1374 -0.9442
 1010MOL0     O33235   7.145   2.877   3.902  0.0728 -0.2574  0.2943
 1010MOL0     C33236   7.145   3.018   3.561 -0.6839  0.3945 -0.4369
 1010MOL0     C33237   7.224   3.102   3.485  0.2053 -0.3716  0.2492
 1010MOL0     N33238   7.726   3.622   3.613 -0.0199 -0.3669 -0.1147
 1010MOL0     N33239   7.839   3.646   3.676  0.4824  0.3074 -0.6483
 1010MOL0     C33240   8.782   4.380   3.934  0.1173  0.3914  0.2968
 1010MOL0     C33241   8.901   4.442   3.981 -0.6721  0.2863 -0.9266
 1010MOL0     C33242   9.275   4.641   4.122  1.1561 -1.1779 -0.7546
 1010MOL0     C33243   9.304   4.734   4.231 -0.2202 -0.2164  0.1147
 1010MOL0     C33244   9.431   4.736   4.287 -0.5507  0.6623  0.0173
 1010MOL0     C33245   9.528   4.648   4.240 -0.5523 -0.3499  0.4993
 1010MOL0     O33246   9.657   4.664   4.262 -0.1078 -0.2220 -0.0923
 1010MOL0     C33247   9.695   4.694   4.404 -0.1628  1.0400  0.6298
 1010MOL0     C33248   9.836   4.640   4.420  0.6187  0.1562 -0.1144
 1010MOL0     C33249   9.932   4.716   4.335 -0.0045 -0.3698 -0.1716
 1010MOL0     C33250  10.038   4.637   4.256 -0.2243  0.4993 -0.8462
 1010MOL0     C33251  10.160   4.606   4.334  0.1667  0.6852 -0.2361
 1010MOL0     C33252  10.254   4.575   4.405 -0.7714  1.0786  0.5790
 1010MOL0     C33253   9.502   4.552   4.133 -0.4248 -0.1456 -0.2430
 1010MOL0     C33254   9.372   4.552   4.071  0.7745  0.3446 -0.4469
 1010MOL0     H33255   9.072   4.491   3.710  0.3905  0.5690 -0.3440
 1010MOL0     H33256   8.867   4.421   3.602 -2.4260  4.8748  0.8700
 1010MOL0     H33257   8.685   4.287   3.549  1.4218 -2.9132  2.9325
 1010MOL0     H33258   8.618   4.447   3.593  0.8864 -1.0783 -2.0685
 1010MOL0     H33259   8.441   4.304   3.504 -4.3400 -1.4967  0.2034
 1010MOL0     H33260   8.402   4.350   3.680  2.3500  1.1343 -0.3634
 1010MOL0     H33261   8.436   4.131   3.749 -3.5244  0.7254 -0.1181
 1010MOL0     H33262   8.541   4.108   3.605  1.5781  2.1288  1.7192
 1010MOL0     H33263   8.248   4.128   3.552 -2.3859 -0.9865  0.9156
 1010MOL0     H33264   8.368   4.023   3.486 -0.3258  3.2184 -1.5805
 1010MOL0     H33265   8.231   3.995   3.749  1.1190 -0.4003  1.1346
 1010MOL0     H33266   8.357   3.888   3.712  0.8935  1.3416 -0.9915
 1010MOL0     H33267   8.211   3.841   3.497 -1.2923 -0.0532  0.1023
 1010MOL0     H33268   8.080   3.925   3.581  0.5061  3.2870 -1.5425
 1010MOL0     H33269   8.236   3.723   3.734 -0.2721 -0.1970  0.4948
 1010MOL0     H33270   8.083   3.790   3.776  0.2953 -1.0987  0.5979
 1010MOL0     H33271   8.061   3.546   3.683 -1.2854  0.0602 -0.8890
 1010MOL0     H33272   8.144   3.609   3.531 -0.0176  1.8356 -1.5091
 1010MOL0     H33273   7.924   3.655   3.355 -3.5512 -0.2880 -2.1865
 1010MOL0     H33274   7.671   3.639   3.280 -1.7924 -0.7720 -0.7877
 1010MOL0     H33275   7.553   3.698   3.395  2.2574  3.6266  0.2050
 1010MOL0     H33276   7.524   3.497   3.518 -1.0743  1.6445  0.0447
 1010MOL0     H33277   7.619   3.403   3.391  0.7016  1.1819 -1.0699
 1010MOL0     H33278   7.370   3.569   3.325 -2.6480 -1.7501 -0.7355
 1010MOL0     H33279   7.427   3.431   3.242  1.8613  0.0785  0.0023
 1010MOL0     H33280   7.241   3.348   3.375  1.0765 -3.1825 -0.4544
 1010MOL0     H33281   7.301   3.418   3.531  2.0167  0.5480  0.8409
 1010MOL0     H33282   7.450   3.209   3.705 -0.9800 -0.8026  2.8540
 1010MOL0     H33283   7.332   3.046   3.843 -1.1760 -0.6728 -0.1273
 1010MOL0     H33284   6.788   2.758   3.613  1.6914  1.0845 -0.2249
 1010MOL0     H33285   6.601   2.620   3.704  0.5941 -2.4563 -0.1294
 1010MOL0     H33286   6.447   2.506   3.779 -4.2441  0.5249 -0.8994
 1010MOL0     H33287   6.413   2.634   3.888 -0.5730 -0.0031  1.1067
 1010MOL0     H33288   6.355   2.434   4.060  0.9872 -2.0913  0.3619
 1010MOL0     H33289   6.367   2.330   3.919  2.6038 -0.5888  2.2264
 1010MOL0     H33290   6.194   2.484   3.804 -0.6485  0.4729  0.4391
 1010MOL0     H33291   6.162   2.540   3.970 -1.4299 -1.0127  2.0150
 1010MOL0     H33292   6.163   2.247   3.895  1.4564 -1.6258  4.2738
 1010MOL0     H33293   6.097   2.312   4.034  2.4503 -0.6889  0.4708
 1010MOL0     H33294   5.997   2.365   3.751  0.6916 -2.3243 -0.0644
 1010MOL0     H33295   5.920   2.448   3.895  0.0478 -0.3075 -1.7193
 1010MOL0     H33296   5.888   2.240   3.999  1.6645  3.4193 -0.2847
 1010MOL0     H33297   5.947   2.155   3.860  0.1717 -0.4395  1.5949
 1010MOL0     H33298   5.683   2.326   3.882  0.4541  1.7547 -0.9861
 1010MOL0     H33299   5.761   2.339   3.732  0.5457 -2.4985 -1.7329
 1010MOL0     H33300   5.671   2.074   3.832 -2.0777  2.1143  0.4189
 1010MOL0     H33301   5.775   2.105   3.689 -0.0972 -0.6932  0.2966
 1010MOL0     H33302   6.816   2.557   4.057  5.4670 -0.1867  0.8374
 1010MOL0     H33303   7.002   2.707   3.981 -1.2042 -0.2866  1.3413
 1010MOL0     H33304   7.058   2.971   3.515 -0.3017 -0.9449  0.1805
 1010MOL0     H33305   7.189   3.121   3.384 -0.7951  0.9034  0.8040
 1010MOL0     H33306   8.703   4.335   3.993 -0.8611  2.4647  0.6380
 1010MOL0     H33307   8.916   4.435   4.089 -1.9905  0.7103 -0.7013
 1010MOL0     H33308   9.231   4.806   4.267 -0.1251  1.3127 -2.5620
 1010MOL0     H33309   9.456   4.810   4.362 -1.7255  0.4922  0.6041
 1010MOL0     H33310   9.619   4.659   4.475 -0.8257 -0.6574 -0.8181
 1010MOL0     H33311   9.700   4.802   4.412  1.9073  1.0781 -0.5758
 1010MOL0     H33312   9.873   4.649   4.522  3.3154  2.5022 -1.1830
 1010MOL0     H33313   9.836   4.532   4.401 -1.1603  0.2622 -0.9277
 1010MOL0     H33314   9.989   4.789   4.393 -1.4881  2.1120 -1.6000
 1010MOL0     H33315   9.891   4.783   4.259 -0.1774  0.9807  1.0690
 1010MOL0     H33316   9.979   4.546   4.240 -3.2117  2.3516 -1.2416
 1010MOL0     H33317  10.069   4.689   4.166 -0.5546  1.0585 -0.6383
 1010MOL0     H33318  10.346   4.543   4.450 -0.4251  0.3678 -0.5837
 1010MOL0     H33319   9.575   4.489   4.085 -1.2429 -0.1355 -1.5457
 1010MOL0     H33320   9.343   4.485   3.991  0.2386 -1.0063  0.8366
 1011MOL0     O33321   8.142   9.779   4.961  0.6756  0.2596  0.0363
 1011MOL0     C33322   8.200   9.678   4.990 -0.1966 -0.3992 -0.4382
 1011MOL0     O33323   8.142   9.573   5.062 -0.1683  0.1752 -0.0065
 1011MOL0     C33324   8.011   9.581   5.111 -0.5777  0.0439  0.5998
 1011MOL0     C33325   7.896   9.635   5.055  0.4041 -0.4651  0.0709
 1011MOL0     C33326   7.772   9.640   5.119 -0.5930  0.2178 -0.7427
 1011MOL0     C33327   7.774   9.580   5.246  1.2089  0.5850 -0.3350
 1011MOL0     O33328   7.658   9.575   5.325 -0.3748  0.2912 -0.2584
 1011MOL0     C33329   7.536   9.642   5.287 -0.3017 -0.0476  0.0456
 1011MOL0     C33330   7.428   9.637   5.397 -0.0879 -0.2282 -0.2085
 1011MOL0     C33331   7.370   9.495   5.415  0.1470 -0.0176  0.5251
 1011MOL0     C33332   7.257   9.462   5.314  0.0326 -0.3144 -0.1440
 1011MOL0     C33333   7.127   9.522   5.367 -0.1943 -0.1135  1.3818
 1011MOL0     C33334   7.069   9.643   5.284  0.2014  0.0000  0.2697
 1011MOL0     C33335   6.922   9.649   5.297  0.4524 -0.1380 -0.2746
 1011MOL0     C33336   6.870   9.759   5.203 -0.2720 -0.7417 -0.2025
 1011MOL0     N33337   6.727   9.791   5.205 -0.5165  0.4936  0.2799
 1011MOL0     C33338   6.653   9.839   5.312  0.4288  0.1979  0.5227
 1011MOL0     C33339   6.520   9.825   5.268 -0.6540  0.1288 -0.1162
 1011MOL0     C33340   6.400   9.857   5.356 -0.6896  0.5886  1.0901
 1011MOL0     C33341   6.260   9.870   5.297 -0.0841  0.5448 -0.1827
 1011MOL0     C33342   6.246   9.975   5.200 -1.1596 -0.6872 -0.2175
 1011MOL0     C33343   6.106  10.039   5.213  0.6285  0.1460  0.9520
 1011MOL0     O33344   6.063  10.122   5.100 -0.1971 -0.1694 -0.0255
 1011MOL0     C33345   5.939  10.167   5.094  1.3464  0.0285 -0.4501
 1011MOL0     C33346   5.832  10.120   5.179 -0.5583  0.1979 -0.5043
 1011MOL0     C33347   5.704  10.177   5.161  0.0488  0.1772 -0.5885
 1011MOL0     C33348   5.669  10.274   5.068  0.1396 -0.1115 -0.1257
 1011MOL0     C33349   5.531  10.315   5.054 -0.0586 -0.9827  0.6656
 1011MOL0     O33350   5.429  10.236   5.102  0.2209 -0.2711 -0.2168
 1011MOL0     C33351   5.301  10.257   5.076  0.6833 -0.4721  0.1964
 1011MOL0     C33352   5.210  10.250   5.180 -0.4857 -0.1488 -0.0870
 1011MOL0     C33353   5.074  10.234   5.152  0.3198  0.4300  0.4121
 1011MOL0     C33354   5.022  10.256   5.022 -0.6756 -0.1334  0.0921
 1011MOL0     O33355   4.892  10.228   4.993  0.1460 -0.9992  0.6195
 1011MOL0     C33356   4.821  10.293   4.889  0.1588  0.8201  0.2907
 1011MOL0     C33357   4.680  10.309   4.942 -0.0963 -0.4204 -0.3192
 1011MOL0     C33358   4.579  10.374   4.836 -0.3543 -0.2465 -0.1268
 1011MOL0     C33359   4.446  10.399   4.906 -0.4026  0.8812  0.1218
 1011MOL0     C33360   4.353  10.471   4.806  0.9745 -0.2504 -0.4915
 1011MOL0     C33361   4.226  10.510   4.880 -0.4347 -0.2597  0.3291
 1011MOL0     C33362   4.137  10.575   4.776 -0.5841  0.3342 -0.5964
 1011MOL0     C33363   4.020  10.642   4.854 -0.0008 -0.3827 -0.9884
 1011MOL0    Cl33364   3.894  10.666   4.727 -0.0005  0.0795 -0.1080
 1011MOL0     C33365   5.119  10.269   4.916 -0.2756  0.3627 -0.3622
 1011MOL0     C33366   5.252  10.263   4.943  0.1167 -0.4548 -0.2983
 1011MOL0     O33367   5.516  10.421   4.990  0.7334  0.1747 -0.7834
 1011MOL0     C33368   5.778  10.331   5.000 -0.4904  0.5384  0.0039
 1011MOL0     C33369   5.906  10.277   5.008  0.4732 -0.1874  0.0978
 1011MOL0     N33370   6.529   9.781   5.142  0.3880  0.3334  0.8117
 1011MOL0     N33371   6.648   9.748   5.109  0.2639  0.1361 -0.3455
 1011MOL0     C33372   7.883   9.510   5.306  0.2118  0.0900  0.3020
 1011MOL0     C33373   8.006   9.518   5.236  0.4787 -0.2378  0.2037
 1011MOL0     C33374   8.345   9.670   4.952  0.0861  0.2007  0.0125
 1011MOL0     C33375   8.402   9.727   4.842  0.2819  0.5712 -0.1848
 1011MOL0     C33376   8.532   9.709   4.805 -0.7474 -0.7286  0.2024
 1011MOL0     C33377   8.619   9.626   4.883 -0.6183  0.5245 -0.6688
 1011MOL0     O33378   8.757   9.610   4.857  0.3637 -0.8126  0.4601
 1011MOL0     C33379   8.821   9.665   4.743  0.2851  0.2363  0.0097
 1011MOL0     C33380   8.950   9.587   4.725 -0.7801  0.0604  0.2917
 1011MOL0     C33381   9.049   9.672   4.645  0.2502 -0.3272  0.5470
 1011MOL0     C33382   9.189   9.623   4.676 -0.0929 -0.1687  0.1823
 1011MOL0     C33383   9.266   9.678   4.568 -0.1671  0.0496 -0.0851
 1011MOL0     C33384   9.333   9.728   4.487 -1.1232  0.2552 -0.4009
 1011MOL0     C33385   8.565   9.581   5.004  0.2164  0.6558 -0.2005
 1011MOL0     C33386   8.430   9.597   5.034 -1.1536  0.4641 -0.5939
 1011MOL0     H33387   7.924   9.681   4.960  2.6046 -2.3981 -0.3280
 1011MOL0     H33388   7.693   9.695   5.069  0.7866  1.0080 -2.1376
 1011MOL0     H33389   7.502   9.620   5.185  1.9247  4.3149 -1.9068
 1011MOL0     H33390   7.569   9.746   5.288  1.1140 -0.4736  0.7449
 1011MOL0     H33391   7.347   9.710   5.383 -0.4258 -0.8053 -1.3625
 1011MOL0     H33392   7.480   9.676   5.485  0.9387  2.1235 -1.7328
 1011MOL0     H33393   7.339   9.485   5.520 -1.0375 -1.6347  0.0642
 1011MOL0     H33394   7.456   9.427   5.419  1.8114  2.0441  2.4092
 1011MOL0     H33395   7.285   9.521   5.225 -1.4556  1.4484  0.5020
 1011MOL0     H33396   7.247   9.356   5.290  1.1876 -0.4293 -0.2104
 1011MOL0     H33397   7.147   9.545   5.472  0.1814  0.9285  1.0944
 1011MOL0     H33398   7.059   9.437   5.361  2.9774 -2.7923 -2.1668
 1011MOL0     H33399   7.100   9.642   5.179 -2.9216 -0.7723 -0.7354
 1011MOL0     H33400   7.111   9.731   5.335  0.0141 -0.3369  1.0263
 1011MOL0     H33401   6.881   9.549   5.283  2.0651 -1.3208  2.5867
 1011MOL0     H33402   6.898   9.665   5.402  1.0572  1.0722 -0.3078
 1011MOL0     H33403   6.907   9.725   5.106 -0.0562  2.5675 -1.4035
 1011MOL0     H33404   6.930   9.850   5.217  1.4186 -1.1773 -3.6357
 1011MOL0     H33405   6.695   9.872   5.406  0.8062 -0.3634  0.5615
 1011MOL0     H33406   6.427   9.952   5.402  1.3853  0.0481  1.0904
 1011MOL0     H33407   6.393   9.779   5.432 -2.2216  0.7311  1.1148
 1011MOL0     H33408   6.198   9.889   5.385  0.2713  1.5640 -0.1440
 1011MOL0     H33409   6.235   9.776   5.247  1.6471 -0.3387  0.5387
 1011MOL0     H33410   6.321  10.050   5.228 -2.1178  0.2259 -0.0189
 1011MOL0     H33411   6.273   9.943   5.098  2.7075  3.4083 -0.8212
 1011MOL0     H33412   6.106  10.107   5.298 -0.0255  2.2217 -0.6190
 1011MOL0     H33413   6.035   9.958   5.235 -0.6570  0.2720 -2.1903
 1011MOL0     H33414   5.856  10.038   5.245  2.1910 -0.3020 -1.9425
 1011MOL0     H33415   5.620  10.152   5.226 -0.2653 -0.1462 -1.1088
 1011MOL0     H33416   5.245  10.243   5.282  1.8290  1.4571 -0.6952
 1011MOL0     H33417   5.000  10.216   5.230  1.6728 -3.6968  0.9877
 1011MOL0     H33418   4.822  10.244   4.791  2.5176  1.6626 -0.1658
 1011MOL0     H33419   4.870  10.390   4.876  0.5722  0.3626 -2.1402
 1011MOL0     H33420   4.686  10.376   5.029 -0.2711 -2.2531  1.1583
 1011MOL0     H33421   4.644  10.211   4.973  0.1407 -0.8804 -1.4580
 1011MOL0     H33422   4.554  10.307   4.754  0.0406  1.2715 -1.5338
 1011MOL0     H33423   4.621  10.467   4.796 -1.6890  0.4970  0.1372
 1011MOL0     H33424   4.404  10.306   4.946  2.4934 -1.2376 -1.4039
 1011MOL0     H33425   4.475  10.463   4.990 -0.3091  0.9746  0.0186
 1011MOL0     H33426   4.342  10.391   4.733  0.7221 -3.1952  2.5032
 1011MOL0     H33427   4.407  10.551   4.754  1.0802  0.0996  0.1398
 1011MOL0     H33428   4.263  10.581   4.955  1.0735  2.4544 -2.7449
 1011MOL0     H33429   4.180  10.421   4.925 -0.6442  0.1859  1.0323
 1011MOL0     H33430   4.193  10.656   4.728  2.3852 -1.4294 -0.3439
 1011MOL0     H33431   4.100  10.504   4.701  1.0651  0.4434 -1.5635
 1011MOL0     H33432   4.053  10.732   4.907 -0.1872 -0.9124  0.0699
 1011MOL0     H33433   3.977  10.570   4.925 -3.4826  2.7418  0.3669
 1011MOL0     H33434   5.075  10.262   4.817  2.1483 -1.5815 -1.4124
 1011MOL0     H33435   5.328  10.258   4.865  1.2613 -1.3754  0.8262
 1011MOL0     H33436   5.761  10.420   4.941 -3.9806 -0.3913 -0.6211
 1011MOL0     H33437   5.993  10.316   4.956  0.5756 -0.7237 -0.1481
 1011MOL0     H33438   7.858   9.470   5.403 -1.9373  0.8989  0.1266
 1011MOL0     H33439   8.097   9.472   5.275  1.9185  1.6103 -0.7841
 1011MOL0     H33440   8.338   9.783   4.775 -0.2031 -0.1421 -0.3295
 1011MOL0     H33441   8.553   9.759   4.711 -2.6204 -1.4221 -0.6239
 1011MOL0     H33442   8.822   9.775   4.740  1.6362  0.2224 -0.5104
 1011MOL0     H33443   8.762   9.645   4.653  1.5946 -0.0340 -0.8102
 1011MOL0     H33444   9.000   9.570   4.820  2.7649 -0.9911 -1.5848
 1011MOL0     H33445   8.947   9.486   4.682 -0.4127  0.3328 -0.3958
 1011MOL0     H33446   9.039   9.777   4.675  0.8193  1.0863 -3.5058
 1011MOL0     H33447   9.019   9.676   4.539  0.6186 -0.8984  0.4202
 1011MOL0     H33448   9.238   9.664   4.765  1.4651  1.6295 -1.4056
 1011MOL0     H33449   9.205   9.515   4.673  0.5362 -0.0535 -1.7554
 1011MOL0     H33450   9.391   9.771   4.408  0.7253 -0.2094  0.6440
 1011MOL0     H33451   8.619   9.520   5.076  0.1686  0.2844 -0.4772
 1011MOL0     H33452   8.398   9.556   5.130 -0.7534  1.6873  0.0857
 1012MOL0     O33453   6.579   2.295  11.121  0.3456  0.2163 -0.1719
 1012MOL0     C33454   6.573   2.226  11.025  0.5587  1.5843 -0.3037
 1012MOL0     O33455   6.465   2.156  10.982 -0.5754 -0.0005  0.4760
 1012MOL0     C33456   6.346   2.161  11.044 -0.5849 -0.3365 -0.0197
 1012MOL0     C33457   6.277   2.041  11.047 -0.6351 -0.1865  0.0715
 1012MOL0     C33458   6.145   2.039  11.091  0.3498 -0.2279 -1.0717
 1012MOL0     C33459   6.071   2.153  11.117 -0.1869 -0.0638  0.3894
 1012MOL0     O33460   5.935   2.162  11.132  0.1485 -0.2503  0.4398
 1012MOL0     C33461   5.869   2.081  11.020 -0.0608 -0.0969  0.6982
 1012MOL0     C33462   5.724   2.079  11.069  1.2070  0.7168 -0.0160
 1012MOL0     C33463   5.637   2.202  11.067  0.0873  0.0635  0.3480
 1012MOL0     C33464   5.682   2.312  11.163  0.6506 -0.4622 -0.3452
 1012MOL0     C33465   5.602   2.436  11.163  0.1091  0.9806  0.3413
 1012MOL0     C33466   5.466   2.417  11.221  0.6678  0.5600  0.4956
 1012MOL0     C33467   5.350   2.472  11.123 -0.2624  0.6560 -0.4045
 1012MOL0     C33468   5.346   2.622  11.091 -1.1028  0.3013 -0.2542
 1012MOL0     N33469   5.220   2.692  11.082 -0.2105  0.5494 -0.4219
 1012MOL0     C33470   5.113   2.679  10.997 -0.8141 -0.0988 -0.2866
 1012MOL0     C33471   5.019   2.774  11.015  0.1848 -0.3919 -0.3248
 1012MOL0     C33472   4.894   2.791  10.935 -0.0856 -0.9377 -0.5763
 1012MOL0     C33473   4.784   2.713  10.997  0.7419  0.1193  0.5911
 1012MOL0     C33474   4.682   2.644  10.899  0.7359 -1.0165  0.7133
 1012MOL0     C33475   4.624   2.758  10.800  0.8179 -0.0710 -1.1517
 1012MOL0     O33476   4.563   2.683  10.688 -0.0298 -0.8421 -0.8335
 1012MOL0     C33477   4.431   2.645  10.700  0.5587 -0.3837 -0.4434
 1012MOL0     C33478   4.371   2.570  10.590  0.3126  0.1280  0.2541
 1012MOL0     C33479   4.235   2.525  10.603 -0.0199  0.8582 -0.3389
 1012MOL0     C33480   4.150   2.558  10.710  0.4020  0.2615  0.1525
 1012MOL0     C33481   4.011   2.514  10.729  0.0616  0.0247  0.1625
 1012MOL0     O33482   3.935   2.592  10.801 -0.5450  1.5162 -0.2974
 1012MOL0     C33483   3.803   2.572  10.819  0.1186 -0.3042  0.0935
 1012MOL0     C33484   3.712   2.572  10.710  0.0476 -0.6198 -0.1345
 1012MOL0     C33485   3.576   2.533  10.734 -0.2518 -0.3985  0.1473
 1012MOL0     C33486   3.530   2.500  10.864 -0.0218  0.6180  0.0476
 1012MOL0     O33487   3.397   2.469  10.885 -0.0626 -0.7918  0.5577
 1012MOL0     C33488   3.305   2.518  10.788 -0.8137  0.5966 -0.1123
 1012MOL0     C33489   3.171   2.490  10.857 -1.1420 -0.1559  0.1825
 1012MOL0     C33490   3.051   2.518  10.761  0.0161 -0.2688  0.1393
 1012MOL0     C33491   2.924   2.532  10.847 -0.3158  0.6727  0.5600
 1012MOL0     C33492   2.904   2.669  10.917 -0.2536  0.1434  0.4557
 1012MOL0     C33493   2.849   2.760  10.810  0.6213  0.7935  1.1792
 1012MOL0     C33494   2.687   2.762  10.793  0.1338 -1.0751  1.5464
 1012MOL0     C33495   2.626   2.898  10.734  0.2493 -1.0234 -0.4105
 1012MOL0    Cl33496   2.698   2.910  10.576  0.3350 -0.0979  0.2305
 1012MOL0     C33497   3.624   2.507  10.968 -0.0975 -0.8891  0.1334
 1012MOL0     C33498   3.754   2.548  10.945 -0.3965  0.6415 -0.5064
 1012MOL0     O33499   3.976   2.410  10.667 -0.0661  0.0648 -0.2429
 1012MOL0     C33500   4.205   2.647  10.804 -0.0861  0.8600 -0.0802
 1012MOL0     C33501   4.340   2.682  10.804 -0.5209 -0.2823  0.4989
 1012MOL0     N33502   5.069   2.853  11.116  0.2392  0.3326  0.4665
 1012MOL0     N33503   5.181   2.800  11.148 -0.7855  0.0700 -0.9045
 1012MOL0     C33504   6.141   2.276  11.117 -0.3620 -0.3526  0.1659
 1012MOL0     C33505   6.282   2.280  11.089  0.7340 -0.4007 -0.5950
 1012MOL0     C33506   6.691   2.208  10.945 -0.2076  1.0721 -0.3362
 1012MOL0     C33507   6.699   2.128  10.837 -0.1364 -0.1117 -0.0636
 1012MOL0     C33508   6.825   2.109  10.777 -0.7246 -0.3495  0.1613
 1012MOL0     C33509   6.944   2.179  10.824  0.1771 -0.0291  0.4275
 1012MOL0     O33510   7.070   2.144  10.795 -0.4521 -0.2632 -0.5052
 1012MOL0     C33511   7.090   2.023  10.720  0.0056  0.6493  0.2687
 1012MOL0     C33512   7.242   1.987  10.725  0.0284  0.0223 -0.1416
 1012MOL0     C33513   7.290   1.885  10.620 -0.2807 -0.0787 -0.3210
 1012MOL0     C33514   7.294   1.738  10.667  0.7594  0.4934 -0.6923
 1012MOL0     C33515   7.322   1.639  10.560 -0.6988 -0.4039 -0.0794
 1012MOL0     C33516   7.346   1.560  10.468  0.0960  0.1651 -0.0813
 1012MOL0     C33517   6.931   2.272  10.935 -0.7179 -0.4845  0.2010
 1012MOL0     C33518   6.803   2.288  10.988  0.3275  0.6552  0.0686
 1012MOL0     H33519   6.329   1.948  11.026  2.0736  1.3779 -0.6380
 1012MOL0     H33520   6.102   1.943  11.115 -1.1370  0.7452  0.4219
 1012MOL0     H33521   5.909   1.980  11.003  2.0983  0.8988 -0.7396
 1012MOL0     H33522   5.878   2.140  10.928  0.6917 -0.5223  0.4846
 1012MOL0     H33523   5.726   2.044  11.173 -1.4645  1.3963  0.3538
 1012MOL0     H33524   5.676   2.001  11.010 -0.8456  2.3510 -0.6396
 1012MOL0     H33525   5.540   2.166  11.101 -0.7261  1.3904 -0.4721
 1012MOL0     H33526   5.637   2.241  10.965 -2.7125  3.3864  1.4309
 1012MOL0     H33527   5.684   2.277  11.267  2.4755  2.2141  0.6330
 1012MOL0     H33528   5.784   2.345  11.142 -0.6072  2.8266 -1.8845
 1012MOL0     H33529   5.589   2.474  11.061 -1.2229  0.3269  0.2427
 1012MOL0     H33530   5.659   2.510  11.219 -0.8623  0.2098  2.4579
 1012MOL0     H33531   5.459   2.460  11.321 -3.1681 -0.2910  0.7296
 1012MOL0     H33532   5.443   2.311  11.228  3.2820 -0.6861 -4.6005
 1012MOL0     H33533   5.357   2.404  11.037  1.7423 -1.5744  1.3826
 1012MOL0     H33534   5.254   2.443  11.167  0.9149 -0.5460  1.4699
 1012MOL0     H33535   5.399   2.651  10.999  1.7515  1.0092  1.4723
 1012MOL0     H33536   5.405   2.665  11.173  1.4818 -0.3760 -1.6190
 1012MOL0     H33537   5.105   2.601  10.923 -0.6082 -0.3252 -0.0738
 1012MOL0     H33538   4.909   2.771  10.828  0.5524  1.7953 -1.0930
 1012MOL0     H33539   4.854   2.893  10.932  0.3130 -0.7887 -2.0926
 1012MOL0     H33540   4.727   2.775  11.067  2.5594  0.7166  1.6114
 1012MOL0     H33541   4.835   2.631  11.050  2.0287  1.1951  1.0637
 1012MOL0     H33542   4.730   2.567  10.838  0.0009 -0.0042 -1.2137
 1012MOL0     H33543   4.599   2.598  10.954 -1.0671 -2.1483 -2.6564
 1012MOL0     H33544   4.703   2.818  10.755  1.8933  1.0561  1.9746
 1012MOL0     H33545   4.569   2.839  10.847  0.4772 -1.0018  0.1155
 1012MOL0     H33546   4.433   2.541  10.507 -2.0280  1.5389 -2.1351
 1012MOL0     H33547   4.186   2.475  10.519  1.0116  1.2322 -1.1977
 1012MOL0     H33548   3.744   2.612  10.615 -1.4227 -0.6406 -0.6662
 1012MOL0     H33549   3.520   2.549  10.642  1.2052  2.4256 -0.3503
 1012MOL0     H33550   3.303   2.466  10.692 -0.5761  0.0964  0.1491
 1012MOL0     H33551   3.327   2.622  10.762  0.5525  0.4721  0.4789
 1012MOL0     H33552   3.169   2.557  10.944 -1.5639  0.7487 -0.5108
 1012MOL0     H33553   3.160   2.388  10.894 -0.4468 -0.9553 -1.7034
 1012MOL0     H33554   3.038   2.435  10.691 -0.2935  0.6709 -0.9585
 1012MOL0     H33555   3.070   2.608  10.702 -0.5625 -0.0542  0.2673
 1012MOL0     H33556   2.838   2.500  10.787 -0.3824  3.4055 -0.9795
 1012MOL0     H33557   2.920   2.457  10.927  1.9728  0.0754  0.1943
 1012MOL0     H33558   2.999   2.720  10.935 -0.0586 -0.1516  0.2760
 1012MOL0     H33559   2.839   2.657  11.004 -0.9095 -2.5214 -0.3291
 1012MOL0     H33560   2.874   2.735  10.707 -2.7579  2.6446 -0.2765
 1012MOL0     H33561   2.883   2.858  10.844 -0.9227  1.3316  1.2652
 1012MOL0     H33562   2.654   2.690  10.717  1.0214  0.0483  0.0629
 1012MOL0     H33563   2.638   2.747  10.890 -0.0312  2.0812  2.0318
 1012MOL0     H33564   2.652   2.981  10.800 -2.1712 -0.1403 -0.5010
 1012MOL0     H33565   2.519   2.885  10.720  0.3240 -1.1518 -0.8896
 1012MOL0     H33566   3.595   2.490  11.071  1.6927 -0.0473  0.8356
 1012MOL0     H33567   3.824   2.558  11.028 -1.5292 -2.1114  0.9346
 1012MOL0     H33568   4.138   2.673  10.886 -0.1138  1.3671 -0.2604
 1012MOL0     H33569   4.378   2.746  10.882  2.4949 -0.1357 -0.9264
 1012MOL0     H33570   6.093   2.367  11.151 -2.4688 -0.9474 -1.0644
 1012MOL0     H33571   6.336   2.372  11.109 -1.5857  0.4362  2.4452
 1012MOL0     H33572   6.617   2.065  10.806  0.6493 -1.5150  0.6110
 1012MOL0     H33573   6.843   2.033  10.702  1.2445 -0.7731  1.0197
 1012MOL0     H33574   7.068   2.041  10.614  3.3459  1.9148 -0.3200
 1012MOL0     H33575   7.038   1.931  10.747  1.2343 -0.2538 -0.3278
 1012MOL0     H33576   7.307   2.073  10.708  0.6136 -0.4973 -0.5799
 1012MOL0     H33577   7.262   1.953  10.827 -0.4356  1.4085  0.4260
 1012MOL0     H33578   7.388   1.925  10.591 -1.9895  2.6618 -2.8618
 1012MOL0     H33579   7.223   1.897  10.535 -1.6071  2.4895  0.9976
 1012MOL0     H33580   7.357   1.721  10.755  0.2041  4.8789  0.7949
 1012MOL0     H33581   7.192   1.711  10.695  1.3362 -0.7078  0.3678
 1012MOL0     H33582   7.370   1.479  10.402 -1.4222 -2.2812  2.1671
 1012MOL0     H33583   7.025   2.316  10.967 -0.4354 -1.1887  0.3480
 1012MOL0     H33584   6.795   2.366  11.063 -1.2494 -0.9397  1.6593
 1013MOL0     O33585   7.655   1.605   6.586  0.6012 -0.7509  0.1695
 1013MOL0     C33586   7.736   1.669   6.653  0.4862 -0.9533 -0.7565
 1013MOL0     O33587   7.708   1.786   6.722  0.5208 -0.3842  0.2668
 1013MOL0     C33588   7.574   1.809   6.744  0.2204  0.3139  0.9354
 1013MOL0     C33589   7.507   1.906   6.668  0.0616  0.8690  0.9956
 1013MOL0     C33590   7.376   1.930   6.683  0.1790  0.5878 -0.5292
 1013MOL0     C33591   7.298   1.868   6.789 -0.8344  1.7098  0.0869
 1013MOL0     O33592   7.169   1.901   6.815 -0.0461  0.5267  0.3545
 1013MOL0     C33593   7.097   1.968   6.707 -0.4883 -0.6527 -0.2426
 1013MOL0     C33594   6.953   1.984   6.743  0.2406  0.3518 -0.1155
 1013MOL0     C33595   6.864   1.957   6.620 -0.1049 -0.2560 -0.0460
 1013MOL0     C33596   6.716   1.932   6.655 -0.5130 -1.1841 -0.2224
 1013MOL0     C33597   6.638   1.927   6.525 -1.0441 -0.7398  0.2404
 1013MOL0     C33598   6.511   1.850   6.556  0.2738 -0.8126  0.0440
 1013MOL0     C33599   6.421   1.829   6.437 -0.0291 -0.2744 -0.3806
 1013MOL0     C33600   6.335   1.956   6.416 -0.2494 -0.2791 -0.4177
 1013MOL0     N33601   6.219   1.933   6.331 -0.3919  0.1960  0.5947
 1013MOL0     C33602   6.096   1.929   6.381  0.2361  0.3172 -0.0660
 1013MOL0     C33603   6.017   1.934   6.273  0.5540  0.0030 -0.5142
 1013MOL0     C33604   5.864   1.961   6.265 -0.0631  0.9015  1.2203
 1013MOL0     C33605   5.844   2.073   6.152  0.3113  0.5004 -0.1366
 1013MOL0     C33606   5.705   2.139   6.184 -0.0403 -0.1224 -0.1801
 1013MOL0     C33607   5.659   2.234   6.066 -0.5425 -0.9463 -0.1800
 1013MOL0     O33608   5.618   2.162   5.949 -0.0290 -0.6169  0.6216
 1013MOL0     C33609   5.516   2.233   5.888 -0.0903  0.6748  0.3839
 1013MOL0     C33610   5.543   2.267   5.755 -0.0906  0.5574 -0.1879
 1013MOL0     C33611   5.434   2.314   5.677 -0.7099 -0.0323  0.2397
 1013MOL0     C33612   5.310   2.316   5.729  0.1200 -0.2918 -1.4166
 1013MOL0     C33613   5.208   2.387   5.646 -0.3213 -0.4192 -0.3857
 1013MOL0     O33614   5.077   2.364   5.685 -0.3393  0.3908  0.4775
 1013MOL0     C33615   4.978   2.410   5.600  0.2559  1.1004 -0.3904
 1013MOL0     C33616   4.969   2.379   5.461 -0.3211  0.1995  0.2968
 1013MOL0     C33617   4.894   2.456   5.378 -0.0003 -0.3615 -0.0645
 1013MOL0     C33618   4.808   2.553   5.435  0.3156  0.8963  0.8871
 1013MOL0     O33619   4.709   2.613   5.367 -0.6952 -0.5025 -0.1959
 1013MOL0     C33620   4.635   2.540   5.272  1.0225 -0.8529 -0.4509
 1013MOL0     C33621   4.676   2.587   5.130  0.9617 -0.2922 -0.4404
 1013MOL0     C33622   4.588   2.537   5.020 -0.1457  0.0771 -0.3423
 1013MOL0     C33623   4.446   2.588   5.024 -0.3401 -0.0216 -0.5664
 1013MOL0     C33624   4.375   2.502   4.925  0.8929 -0.3728  0.7260
 1013MOL0     C33625   4.232   2.549   4.934  0.2912 -0.1906 -1.0028
 1013MOL0     C33626   4.124   2.467   4.862  0.8321 -1.2952 -0.8063
 1013MOL0     C33627   4.040   2.361   4.934 -0.2794  0.1517 -0.4775
 1013MOL0    Cl33628   3.887   2.346   4.838 -0.1231  0.0977 -0.3914
 1013MOL0     C33629   4.808   2.575   5.571 -0.2478 -1.3402 -0.0513
 1013MOL0     C33630   4.897   2.507   5.659 -0.5190 -0.5548  0.9114
 1013MOL0     O33631   5.246   2.453   5.552 -0.4530  0.4195  0.3754
 1013MOL0     C33632   5.285   2.273   5.857  0.7226  0.4915  0.0672
 1013MOL0     C33633   5.387   2.228   5.935 -1.2030 -0.0933 -0.3849
 1013MOL0     N33634   6.093   1.927   6.155 -0.0270  0.4474  0.2766
 1013MOL0     N33635   6.218   1.915   6.191 -0.1014  0.4957 -0.1659
 1013MOL0     C33636   7.371   1.772   6.868  0.0805  0.3060 -0.4961
 1013MOL0     C33637   7.501   1.741   6.837  0.5979 -0.3534  0.3970
 1013MOL0     C33638   7.866   1.609   6.664 -0.2749 -0.0210  1.1501
 1013MOL0     C33639   7.896   1.489   6.597 -0.4483 -0.3421  1.1027
 1013MOL0     C33640   8.025   1.437   6.608  0.1862 -0.2112 -0.6363
 1013MOL0     C33641   8.130   1.507   6.677  0.6317  0.1935  0.1486
 1013MOL0     O33642   8.249   1.459   6.687  0.0566  0.0498  0.1026
 1013MOL0     C33643   8.280   1.372   6.807  0.6094 -0.2803  0.4342
 1013MOL0     C33644   8.378   1.421   6.910 -0.2554  0.2037  0.0254
 1013MOL0     C33645   8.520   1.425   6.858  0.1723 -0.1874  0.1008
 1013MOL0     C33646   8.590   1.550   6.918 -0.5160  0.1511 -0.4656
 1013MOL0     C33647   8.740   1.546   6.924 -0.5349 -0.5044  0.7180
 1013MOL0     C33648   8.857   1.523   6.941  0.0591  0.1191  0.5748
 1013MOL0     C33649   8.089   1.621   6.738 -1.4318  0.2957  0.5710
 1013MOL0     C33650   7.964   1.675   6.731 -0.9822  0.5198  0.6777
 1013MOL0     H33651   7.558   1.945   6.581 -0.6351  3.0511  1.5167
 1013MOL0     H33652   7.332   2.008   6.621  0.5620 -0.1933 -1.8154
 1013MOL0     H33653   7.112   1.924   6.608 -1.8984 -2.5783  0.3291
 1013MOL0     H33654   7.137   2.069   6.701  4.1975 -2.1764  0.8041
 1013MOL0     H33655   6.932   2.081   6.789 -1.6298  0.3379 -0.8382
 1013MOL0     H33656   6.927   1.905   6.815  0.6540 -1.3226 -1.7311
 1013MOL0     H33657   6.890   1.879   6.548 -0.7847  1.1277 -1.8425
 1013MOL0     H33658   6.878   2.046   6.559  1.7966  1.7331  3.0257
 1013MOL0     H33659   6.696   1.837   6.705  2.1795 -2.3121 -1.0932
 1013MOL0     H33660   6.675   2.020   6.704 -2.0886 -1.7136 -0.5284
 1013MOL0     H33661   6.690   1.874   6.444 -2.6289  1.1378 -2.1405
 1013MOL0     H33662   6.619   2.030   6.496  1.0568 -0.3005  0.2843
 1013MOL0     H33663   6.461   1.916   6.628  0.8613  1.7738 -1.7454
 1013MOL0     H33664   6.536   1.752   6.597 -0.4493 -1.0340 -0.0325
 1013MOL0     H33665   6.486   1.796   6.356  0.1243 -5.0563  1.3362
 1013MOL0     H33666   6.354   1.744   6.456 -0.3476 -0.2346 -1.2932
 1013MOL0     H33667   6.401   2.021   6.357  0.3157 -0.3419  0.1373
 1013MOL0     H33668   6.307   1.999   6.513  0.8908  0.2095 -0.2979
 1013MOL0     H33669   6.062   1.934   6.484 -0.0912  0.6841 -0.1880
 1013MOL0     H33670   5.824   2.003   6.358 -0.4340  2.4280  0.4049
 1013MOL0     H33671   5.810   1.868   6.250  0.6199  0.3370  2.1384
 1013MOL0     H33672   5.850   2.031   6.051 -0.0487  0.7299 -0.2587
 1013MOL0     H33673   5.930   2.141   6.156  2.4307 -2.0380 -0.0454
 1013MOL0     H33674   5.627   2.063   6.186 -0.1126 -0.0356  1.2455
 1013MOL0     H33675   5.710   2.193   6.279  0.5996  1.5860 -1.1269
 1013MOL0     H33676   5.738   2.298   6.026 -1.1183 -0.1812 -0.1174
 1013MOL0     H33677   5.583   2.297   6.114 -1.3592 -0.9988 -1.3688
 1013MOL0     H33678   5.646   2.262   5.722  0.6057  1.3560  1.7390
 1013MOL0     H33679   5.465   2.354   5.581  1.1067 -0.2612  0.6880
 1013MOL0     H33680   5.032   2.301   5.422 -3.7125 -2.0524 -1.1796
 1013MOL0     H33681   4.891   2.431   5.273 -0.9155 -0.7429  0.0443
 1013MOL0     H33682   4.530   2.568   5.282  1.5502  1.3342 -0.6451
 1013MOL0     H33683   4.647   2.432   5.286  0.6767 -0.9614 -1.0055
 1013MOL0     H33684   4.779   2.557   5.111  2.2043  2.8454  0.6371
 1013MOL0     H33685   4.682   2.696   5.134  0.9558 -0.3216  1.2757
 1013MOL0     H33686   4.595   2.429   5.031  1.5885  0.0937 -1.0952
 1013MOL0     H33687   4.639   2.573   4.930  1.3893 -0.6252  0.2128
 1013MOL0     H33688   4.407   2.593   5.126  2.4688  0.3206  0.5802
 1013MOL0     H33689   4.453   2.689   4.982  1.7194  0.0923 -0.0651
 1013MOL0     H33690   4.378   2.396   4.949 -1.6862 -0.2810  1.8572
 1013MOL0     H33691   4.402   2.517   4.820 -0.9972 -0.3205  0.2060
 1013MOL0     H33692   4.228   2.651   4.894  1.1398 -0.6584 -2.3748
 1013MOL0     H33693   4.203   2.547   5.039 -1.7484 -2.2845 -1.5312
 1013MOL0     H33694   4.057   2.537   4.811  1.8405  0.5082  0.2310
 1013MOL0     H33695   4.178   2.428   4.775 -0.8912 -0.6362 -2.2148
 1013MOL0     H33696   4.023   2.402   5.033 -0.5875 -0.5784 -0.2214
 1013MOL0     H33697   4.092   2.265   4.946 -1.3920 -0.2494  1.5128
 1013MOL0     H33698   4.751   2.658   5.611 -0.6179 -0.5954 -2.0507
 1013MOL0     H33699   4.899   2.536   5.763 -0.2823  0.9764  0.4952
 1013MOL0     H33700   5.185   2.285   5.899 -0.0782 -0.4223 -1.4737
 1013MOL0     H33701   5.373   2.192   6.036 -2.6705 -0.4316 -0.6755
 1013MOL0     H33702   7.332   1.710   6.948  2.6438  0.4183  0.9744
 1013MOL0     H33703   7.551   1.673   6.905 -0.8587 -1.9004 -0.0082
 1013MOL0     H33704   7.821   1.430   6.545  1.2933  0.1914 -2.3169
 1013MOL0     H33705   8.046   1.341   6.563  0.2689 -1.8904  2.6588
 1013MOL0     H33706   8.328   1.279   6.774  2.5734  1.7293 -2.8916
 1013MOL0     H33707   8.189   1.333   6.854 -1.9503  0.1363 -3.6442
 1013MOL0     H33708   8.344   1.520   6.942  2.9047  1.7798 -1.0895
 1013MOL0     H33709   8.373   1.346   6.990 -2.1312  1.1010  0.8246
 1013MOL0     H33710   8.520   1.434   6.750 -0.1338  2.3767  0.2723
 1013MOL0     H33711   8.580   1.335   6.877  2.3179  1.3896  1.1790
 1013MOL0     H33712   8.559   1.636   6.858 -0.4772  0.1555 -0.4789
 1013MOL0     H33713   8.569   1.559   7.025  0.3827  2.0425 -0.4199
 1013MOL0     H33714   8.959   1.495   6.957 -0.5091 -0.9348  2.6203
 1013MOL0     H33715   8.158   1.684   6.793 -1.8179  1.3867 -0.1699
 1013MOL0     H33716   7.943   1.770   6.778 -1.0043  0.2658  1.1969
 1014MOL0     O33717   0.908   7.850   3.774  0.7574  0.1052 -0.1121
 1014MOL0     C33718   0.878   7.954   3.720  0.0768  0.5845 -0.5539
 1014MOL0     O33719   0.759   8.012   3.711 -0.0266  0.0547 -0.1383
 1014MOL0     C33720   0.664   7.966   3.807 -0.5045 -0.7161  0.1607
 1014MOL0     C33721   0.673   7.981   3.947 -0.3041  0.0736  0.4643
 1014MOL0     C33722   0.592   7.917   4.038  0.3830  0.6477 -0.2806
 1014MOL0     C33723   0.488   7.839   3.998  0.3145  0.2607 -0.4939
 1014MOL0     O33724   0.405   7.784   4.093  0.0716 -0.1889 -0.3342
 1014MOL0     C33725   0.271   7.839   4.093 -0.0934 -0.0354  0.2876
 1014MOL0     C33726   0.188   7.765   4.203  0.8410 -1.1027 -0.9921
 1014MOL0     C33727   0.043   7.796   4.218  0.2614 -0.1592 -0.3616
 1014MOL0     C33728  -0.008   7.733   4.350 -0.6727  0.0208  0.1267
 1014MOL0     C33729  -0.158   7.788   4.375  0.1250  0.0704  0.4036
 1014MOL0     C33730  -0.239   7.696   4.475 -0.3106 -0.1328  0.6600
 1014MOL0     C33731  -0.384   7.749   4.487 -0.6951  0.0443 -0.5028
 1014MOL0     C33732  -0.471   7.645   4.561 -0.7005 -0.0352  0.3262
 1014MOL0     N33733  -0.612   7.667   4.535  0.0185 -0.4630  0.0443
 1014MOL0     C33734  -0.696   7.768   4.537 -0.6781 -0.5270  0.3696
 1014MOL0     C33735  -0.821   7.720   4.523 -0.3187  0.6473  0.3569
 1014MOL0     C33736  -0.951   7.795   4.554 -0.3114 -0.0594  0.2735
 1014MOL0     C33737  -1.014   7.730   4.678  0.0666  0.2605  0.7308
 1014MOL0     C33738  -1.151   7.793   4.699  0.6647  0.2123 -0.0800
 1014MOL0     C33739  -1.219   7.759   4.842  0.3186  0.0288  0.6885
 1014MOL0     O33740  -1.297   7.637   4.831  0.7145 -0.3963  0.3492
 1014MOL0     C33741  -1.433   7.651   4.792 -0.3448 -0.1028 -0.5974
 1014MOL0     C33742  -1.494   7.758   4.743 -0.4732  0.0852  0.2302
 1014MOL0     C33743  -1.631   7.767   4.726  0.6272  0.1731 -0.2717
 1014MOL0     C33744  -1.710   7.652   4.750 -0.3348 -0.4529  0.2581
 1014MOL0     C33745  -1.856   7.653   4.719 -0.3783  0.0627 -0.1423
 1014MOL0     O33746  -1.929   7.541   4.754 -0.0599 -0.0224 -0.5930
 1014MOL0     C33747  -2.059   7.521   4.718 -0.0036  1.3194 -0.1037
 1014MOL0     C33748  -2.110   7.388   4.691  0.1252 -0.0878 -0.4582
 1014MOL0     C33749  -2.244   7.371   4.657  0.1646  0.0838 -0.0284
 1014MOL0     C33750  -2.336   7.482   4.646 -0.7567 -0.1887 -0.1253
 1014MOL0     O33751  -2.465   7.476   4.601 -0.3772 -0.3219  0.5426
 1014MOL0     C33752  -2.488   7.400   4.476  0.1804  0.3118 -0.2922
 1014MOL0     C33753  -2.631   7.336   4.470 -0.8234  0.0180  0.1036
 1014MOL0     C33754  -2.731   7.442   4.435  0.4219  0.1518 -0.0267
 1014MOL0     C33755  -2.883   7.393   4.429 -0.2572 -0.2575  0.8343
 1014MOL0     C33756  -2.921   7.352   4.293  0.5059 -0.3306  0.0363
 1014MOL0     C33757  -3.065   7.300   4.273 -0.2242  0.7963 -0.3197
 1014MOL0     C33758  -3.082   7.159   4.330  0.3490 -0.0810 -0.3766
 1014MOL0     C33759  -3.222   7.096   4.291  0.5213 -0.4172 -0.1260
 1014MOL0    Cl33760  -3.248   6.935   4.356 -0.1721  0.0456  0.2495
 1014MOL0     C33761  -2.277   7.611   4.666  0.3280  0.5269  0.0189
 1014MOL0     C33762  -2.148   7.628   4.705  0.9441 -0.0652  0.3411
 1014MOL0     O33763  -1.900   7.757   4.675 -1.3183  0.1086  0.3886
 1014MOL0     C33764  -1.654   7.535   4.804  0.1087 -0.9605 -0.0851
 1014MOL0     C33765  -1.510   7.538   4.824  0.4793 -0.5209 -0.7280
 1014MOL0     N33766  -0.808   7.585   4.502  0.0118  0.0706 -0.3246
 1014MOL0     N33767  -0.679   7.563   4.496 -0.0566  0.2718  0.1657
 1014MOL0     C33768   0.462   7.843   3.865 -0.3607  0.2192 -0.0732
 1014MOL0     C33769   0.554   7.891   3.763  0.2335 -0.1870 -0.0075
 1014MOL0     C33770   0.976   8.011   3.626 -0.2113  0.4203 -0.8134
 1014MOL0     C33771   0.947   8.086   3.516 -0.8095 -0.5858 -0.4199
 1014MOL0     C33772   1.051   8.150   3.442  0.1464 -0.3584 -0.0089
 1014MOL0     C33773   1.186   8.134   3.480  1.1612  0.7099  0.0367
 1014MOL0     O33774   1.279   8.197   3.407 -0.5000  0.0733 -0.0055
 1014MOL0     C33775   1.413   8.195   3.461 -0.9663 -0.3347 -0.1335
 1014MOL0     C33776   1.495   8.248   3.355  1.0778  0.1336 -0.1111
 1014MOL0     C33777   1.458   8.393   3.315  0.1254 -0.2422 -1.1545
 1014MOL0     C33778   1.575   8.480   3.281 -0.3798 -0.1284 -0.7917
 1014MOL0     C33779   1.651   8.448   3.165 -0.8436  0.0623 -0.8889
 1014MOL0     C33780   1.699   8.424   3.055  0.1701 -0.5171  0.4139
 1014MOL0     C33781   1.213   8.053   3.587  0.4452  0.2463 -0.2286
 1014MOL0     C33782   1.113   7.989   3.659 -0.2349 -0.0054 -0.8658
 1014MOL0     H33783   0.756   8.035   3.991 -2.4672  2.9993  1.2497
 1014MOL0     H33784   0.616   7.933   4.143 -0.1103  0.9365 -0.2094
 1014MOL0     H33785   0.211   7.839   4.002 -2.5662  5.0242  1.5507
 1014MOL0     H33786   0.281   7.944   4.122 -0.6114 -0.4534  2.1773
 1014MOL0     H33787   0.251   7.777   4.291  0.6587  0.0985 -1.0039
 1014MOL0     H33788   0.181   7.658   4.182 -2.1146 -0.9561 -1.1601
 1014MOL0     H33789  -0.013   7.752   4.135  0.4160 -2.0091  0.4625
 1014MOL0     H33790   0.026   7.904   4.221 -1.4196 -0.3747 -1.0657
 1014MOL0     H33791  -0.018   7.626   4.326 -0.1429 -0.3467  1.4934
 1014MOL0     H33792   0.054   7.764   4.434  0.6827 -3.0275  0.3848
 1014MOL0     H33793  -0.201   7.785   4.274 -2.5004  0.5322  1.4319
 1014MOL0     H33794  -0.157   7.891   4.413 -0.9139 -0.3786  1.7369
 1014MOL0     H33795  -0.211   7.696   4.581 -0.7692 -0.4610  0.7858
 1014MOL0     H33796  -0.237   7.592   4.440  2.5076  0.1881 -0.3538
 1014MOL0     H33797  -0.381   7.837   4.551  1.9709 -0.7225  0.5338
 1014MOL0     H33798  -0.427   7.782   4.391 -0.8627  3.8034  0.7188
 1014MOL0     H33799  -0.442   7.648   4.666  3.2800  0.3031 -0.6161
 1014MOL0     H33800  -0.437   7.545   4.532 -1.3476 -0.0834 -0.3186
 1014MOL0     H33801  -0.669   7.871   4.556  1.2512 -1.2938  2.1710
 1014MOL0     H33802  -1.023   7.792   4.471  1.0263  0.5441 -0.9650
 1014MOL0     H33803  -0.943   7.902   4.574 -0.7770  0.1956 -0.8061
 1014MOL0     H33804  -0.948   7.742   4.765 -2.4891  2.3306  2.5406
 1014MOL0     H33805  -1.028   7.624   4.654 -0.5910  0.2424  1.1721
 1014MOL0     H33806  -1.130   7.901   4.697  0.2776  0.3241  0.9068
 1014MOL0     H33807  -1.214   7.767   4.614  2.8606 -1.2167 -1.3772
 1014MOL0     H33808  -1.287   7.840   4.870  0.6287  0.8271 -0.7856
 1014MOL0     H33809  -1.136   7.747   4.913  1.2678 -2.1712 -0.6675
 1014MOL0     H33810  -1.430   7.844   4.727  0.9266 -0.8266  0.7761
 1014MOL0     H33811  -1.670   7.861   4.687  0.4956  0.5118  0.6481
 1014MOL0     H33812  -2.036   7.308   4.694 -0.3809 -0.5526 -0.0270
 1014MOL0     H33813  -2.279   7.269   4.640 -0.2134  0.3983 -1.1681
 1014MOL0     H33814  -2.409   7.326   4.463  1.7124  1.4569  1.9214
 1014MOL0     H33815  -2.476   7.464   4.388 -0.8056 -0.5716 -1.0983
 1014MOL0     H33816  -2.657   7.278   4.560 -1.6665 -2.1182 -1.4478
 1014MOL0     H33817  -2.643   7.265   4.388 -2.9671 -1.7343  1.7965
 1014MOL0     H33818  -2.703   7.498   4.345 -0.7834  1.9037  0.6507
 1014MOL0     H33819  -2.729   7.517   4.514  0.2125  1.1352 -0.9278
 1014MOL0     H33820  -2.892   7.308   4.497  0.4215 -0.9697  0.0611
 1014MOL0     H33821  -2.943   7.476   4.465  0.4111  0.1892  0.9364
 1014MOL0     H33822  -2.851   7.277   4.255  0.5182  0.4737 -1.6152
 1014MOL0     H33823  -2.916   7.436   4.222  1.4824 -1.9144 -1.8730
 1014MOL0     H33824  -3.079   7.281   4.166  0.5860 -0.7322 -0.1714
 1014MOL0     H33825  -3.132   7.373   4.319  1.8060  1.1826  2.2851
 1014MOL0     H33826  -2.999   7.098   4.293  0.7227 -0.4344  0.9981
 1014MOL0     H33827  -3.081   7.165   4.439 -0.3172 -0.4840 -0.3399
 1014MOL0     H33828  -3.220   7.083   4.182  1.2715  0.3722 -0.2140
 1014MOL0     H33829  -3.306   7.165   4.305 -0.1525 -0.7348 -2.1888
 1014MOL0     H33830  -2.337   7.701   4.658  0.3450  0.7050  1.5476
 1014MOL0     H33831  -2.123   7.733   4.716 -2.1236  0.5829  2.6766
 1014MOL0     H33832  -1.712   7.447   4.829 -0.8026  0.3545  2.8706
 1014MOL0     H33833  -1.463   7.447   4.861  0.6990 -0.1021  0.0620
 1014MOL0     H33834   0.363   7.810   3.834 -0.5852  0.9496 -0.1765
 1014MOL0     H33835   0.537   7.867   3.658  0.7836 -1.3274  0.1459
 1014MOL0     H33836   0.846   8.102   3.482 -1.1979 -0.5264  0.7238
 1014MOL0     H33837   1.026   8.217   3.360  4.0055  1.7447  0.2916
 1014MOL0     H33838   1.448   8.095   3.488  1.9103  1.2043  2.5820
 1014MOL0     H33839   1.431   8.272   3.537 -0.4889  0.4544 -1.0195
 1014MOL0     H33840   1.601   8.246   3.383  1.5457  1.4367 -1.6513
 1014MOL0     H33841   1.488   8.187   3.264 -0.4630  1.7707 -1.1508
 1014MOL0     H33842   1.420   8.438   3.408  0.5512  0.4059 -1.2859
 1014MOL0     H33843   1.378   8.396   3.241 -0.5957 -1.4093 -0.4437
 1014MOL0     H33844   1.530   8.579   3.269 -2.0924 -0.5761  1.1607
 1014MOL0     H33845   1.638   8.462   3.369 -0.8972  0.7843 -0.2173
 1014MOL0     H33846   1.734   8.390   2.960 -2.3278  1.1272 -1.1960
 1014MOL0     H33847   1.314   8.030   3.621 -0.6922 -1.5469  2.3208
 1014MOL0     H33848   1.136   7.937   3.752 -1.2106  1.4547  0.2304
 1015MOL0     O33849   3.312   7.322   1.333 -0.5021  0.4508  0.9385
 1015MOL0     C33850   3.280   7.225   1.252 -0.2960 -0.4883  0.6089
 1015MOL0     O33851   3.334   7.107   1.247 -0.1790 -0.8974 -0.1396
 1015MOL0     C33852   3.426   7.063   1.338  1.2967 -0.2019 -0.5197
 1015MOL0     C33853   3.406   7.044   1.477  0.4283 -0.3912  0.0099
 1015MOL0     C33854   3.511   6.985   1.554  0.6835 -0.2939  0.0889
 1015MOL0     C33855   3.636   6.940   1.489  0.9152 -0.1445 -0.2347
 1015MOL0     O33856   3.733   6.894   1.571  0.1449 -0.9771 -0.1207
 1015MOL0     C33857   3.832   6.803   1.514  0.7642 -0.3443  0.8015
 1015MOL0     C33858   3.881   6.700   1.603 -0.4302 -0.7542 -0.4374
 1015MOL0     C33859   3.959   6.759   1.720  0.6194 -0.2322 -0.3549
 1015MOL0     C33860   4.081   6.837   1.682 -0.0044  0.6654 -0.3833
 1015MOL0     C33861   4.189   6.868   1.791 -0.0059  0.0749  0.4675
 1015MOL0     C33862   4.262   6.749   1.841 -0.9046  0.2417  0.4812
 1015MOL0     C33863   4.344   6.780   1.964 -0.5246  0.5290  0.9464
 1015MOL0     C33864   4.465   6.680   1.966  1.0616 -0.3234  0.1516
 1015MOL0     N33865   4.569   6.714   2.063  0.2365  1.0348  0.0699
 1015MOL0     C33866   4.614   6.845   2.091 -0.5163  0.8323 -0.0931
 1015MOL0     C33867   4.736   6.824   2.143  1.1732  0.3634  0.8067
 1015MOL0     C33868   4.817   6.943   2.187 -0.7552 -1.1942  0.4597
 1015MOL0     C33869   4.776   7.001   2.323  0.5223  0.4156  0.0097
 1015MOL0     C33870   4.847   7.120   2.367 -0.5949 -0.7148  0.6780
 1015MOL0     C33871   4.885   7.231   2.260  0.1898  1.1607 -0.0360
 1015MOL0     O33872   4.997   7.207   2.173 -0.1256  0.1867 -1.1295
 1015MOL0     C33873   5.119   7.162   2.210  0.3889  0.1386  0.2245
 1015MOL0     C33874   5.179   7.177   2.345  0.6347 -0.4272  0.4686
 1015MOL0     C33875   5.303   7.129   2.368  0.2077 -0.0394 -0.4782
 1015MOL0     C33876   5.371   7.050   2.275  0.2509  0.6985 -0.0907
 1015MOL0     C33877   5.506   6.984   2.305 -0.1132 -1.3844  0.0263
 1015MOL0     O33878   5.572   6.923   2.202 -0.2784  0.8536  0.4214
 1015MOL0     C33879   5.696   6.867   2.227 -0.6541 -0.3095 -0.3017
 1015MOL0     C33880   5.716   6.770   2.321  0.9359 -0.0306  0.5982
 1015MOL0     C33881   5.845   6.746   2.368  0.2138 -0.6045 -0.3406
 1015MOL0     C33882   5.960   6.797   2.311 -0.0121 -0.3814  0.8643
 1015MOL0     O33883   6.077   6.742   2.342  0.2111  0.4956  0.0841
 1015MOL0     C33884   6.179   6.749   2.239  0.0020 -0.6930 -0.1156
 1015MOL0     C33885   6.295   6.667   2.285 -0.0258  0.9335 -0.6402
 1015MOL0     C33886   6.387   6.718   2.405  1.0396  0.2761  0.3884
 1015MOL0     C33887   6.464   6.846   2.344 -0.6322 -0.3278  1.0041
 1015MOL0     C33888   6.607   6.840   2.376 -0.7702  0.5459  0.0976
 1015MOL0     C33889   6.694   6.731   2.302 -0.6155 -0.8557 -0.1432
 1015MOL0     C33890   6.852   6.765   2.312 -0.2066  0.3948 -0.2337
 1015MOL0     C33891   6.919   6.731   2.450 -0.0984 -0.5227 -0.6877
 1015MOL0    Cl33892   7.098   6.729   2.422 -0.1885 -0.0424  0.6243
 1015MOL0     C33893   5.941   6.888   2.199 -0.0158 -0.4894  0.3757
 1015MOL0     C33894   5.806   6.924   2.165  0.5312  0.2518 -0.0631
 1015MOL0     O33895   5.555   7.010   2.419 -0.2944 -0.2896 -0.3620
 1015MOL0     C33896   5.320   7.012   2.157 -0.1294 -0.4978  0.7620
 1015MOL0     C33897   5.200   7.072   2.128  0.1197  0.3503  0.0049
 1015MOL0     N33898   4.776   6.693   2.130 -0.3245 -0.0111  0.5834
 1015MOL0     N33899   4.672   6.619   2.094  0.5260 -0.3330  0.9845
 1015MOL0     C33900   3.648   6.961   1.352  0.2373 -0.2047  0.0036
 1015MOL0     C33901   3.543   7.015   1.281  0.3235  0.1271 -0.1950
 1015MOL0     C33902   3.167   7.243   1.151 -0.5872  0.9086 -0.8679
 1015MOL0     C33903   3.077   7.335   1.183  1.0038  0.3980  0.3490
 1015MOL0     C33904   2.965   7.344   1.099 -0.6484 -1.1619 -0.1816
 1015MOL0     C33905   2.944   7.284   0.981  0.7543 -0.7039 -0.5640
 1015MOL0     O33906   2.838   7.322   0.904  0.6641  0.6689  0.0421
 1015MOL0     C33907   2.792   7.234   0.800  0.2411 -0.0162 -0.8211
 1015MOL0     C33908   2.733   7.100   0.848 -0.4917  0.5600  0.3288
 1015MOL0     C33909   2.639   7.037   0.745 -0.7466  0.1216  0.4654
 1015MOL0     C33910   2.564   6.924   0.815 -0.5605  0.2991  0.3350
 1015MOL0     C33911   2.533   6.813   0.724 -0.4087  0.8731 -0.5121
 1015MOL0     C33912   2.510   6.732   0.630 -0.0792  0.3553  0.7418
 1015MOL0     C33913   3.039   7.190   0.956 -0.7696  0.1923  0.3693
 1015MOL0     C33914   3.158   7.174   1.036  1.1601 -0.1049 -0.1754
 1015MOL0     H33915   3.307   7.072   1.512 -0.3170  1.4571 -3.1030
 1015MOL0     H33916   3.485   6.963   1.657 -4.5377  1.7671 -0.4402
 1015MOL0     H33917   3.910   6.868   1.473  0.8585 -0.8374  0.1858
 1015MOL0     H33918   3.784   6.744   1.436  1.7822 -1.0366  0.6884
 1015MOL0     H33919   3.959   6.644   1.551 -0.0381 -1.1975  0.5904
 1015MOL0     H33920   3.798   6.641   1.643 -1.0634 -0.8754 -1.8791
 1015MOL0     H33921   3.989   6.667   1.771 -0.6133  0.1040  1.0480
 1015MOL0     H33922   3.895   6.819   1.784  0.1935  0.9028 -1.7862
 1015MOL0     H33923   4.129   6.788   1.597 -2.7228 -0.8199 -1.1609
 1015MOL0     H33924   4.050   6.931   1.635 -0.6817 -0.0375 -1.3783
 1015MOL0     H33925   4.135   6.901   1.880 -0.4648 -1.4576  0.7851
 1015MOL0     H33926   4.259   6.949   1.773 -0.0912  0.4162  1.5906
 1015MOL0     H33927   4.320   6.704   1.761 -3.2960  0.2444 -1.3879
 1015MOL0     H33928   4.199   6.666   1.875  1.0844 -1.6001 -0.1315
 1015MOL0     H33929   4.370   6.886   1.963  1.3113  0.2423 -3.4909
 1015MOL0     H33930   4.275   6.765   2.048 -1.3875 -0.1588  0.1467
 1015MOL0     H33931   4.506   6.674   1.865  0.6958 -2.6107  0.0801
 1015MOL0     H33932   4.434   6.575   1.981  1.8982 -0.3071  2.4313
 1015MOL0     H33933   4.557   6.937   2.082 -2.4456 -0.3126 -0.0078
 1015MOL0     H33934   4.818   7.014   2.105 -0.8473 -0.6650  0.9105
 1015MOL0     H33935   4.922   6.914   2.194 -0.0986  0.4373 -1.7321
 1015MOL0     H33936   4.797   6.927   2.401  2.9359  1.7972  0.7803
 1015MOL0     H33937   4.667   7.016   2.325  0.4722  0.4133  3.5689
 1015MOL0     H33938   4.789   7.169   2.445  0.7968  2.1922  0.0171
 1015MOL0     H33939   4.938   7.076   2.411  0.2215  0.4289  0.1855
 1015MOL0     H33940   4.892   7.326   2.314  2.0706  1.5951 -0.9453
 1015MOL0     H33941   4.798   7.240   2.194  1.7917  0.4940 -2.3516
 1015MOL0     H33942   5.139   7.237   2.426  1.9967  0.6828  0.3570
 1015MOL0     H33943   5.358   7.155   2.458 -2.2368  1.8379  0.5910
 1015MOL0     H33944   5.635   6.715   2.367 -0.4684  0.4830 -1.1479
 1015MOL0     H33945   5.859   6.674   2.449 -2.4209  1.5668  2.2674
 1015MOL0     H33946   6.210   6.853   2.225  0.9891 -0.9319  0.2236
 1015MOL0     H33947   6.143   6.707   2.145 -1.0678 -1.3444  0.5624
 1015MOL0     H33948   6.367   6.651   2.204  1.3992 -0.2697  0.7945
 1015MOL0     H33949   6.254   6.570   2.312 -1.8228  1.2411 -2.0862
 1015MOL0     H33950   6.463   6.646   2.437  1.0383 -0.9308 -2.1072
 1015MOL0     H33951   6.326   6.745   2.492  0.5576  2.3419 -0.5156
 1015MOL0     H33952   6.441   6.853   2.237  1.1332  1.0589  0.6579
 1015MOL0     H33953   6.426   6.936   2.393 -1.4105 -0.9531  1.5699
 1015MOL0     H33954   6.634   6.828   2.481  0.9825 -1.3756 -0.5185
 1015MOL0     H33955   6.642   6.942   2.359 -3.9885  1.9713  1.2400
 1015MOL0     H33956   6.666   6.748   2.198  0.2304 -0.8509 -0.3825
 1015MOL0     H33957   6.661   6.628   2.315  0.7220 -1.4226 -0.9742
 1015MOL0     H33958   6.905   6.696   2.246 -0.2432  1.0913 -1.0061
 1015MOL0     H33959   6.870   6.865   2.272  1.1814 -0.1683 -1.1086
 1015MOL0     H33960   6.887   6.636   2.494 -0.8716 -0.1404 -0.4071
 1015MOL0     H33961   6.898   6.811   2.522  0.3967 -0.1548 -0.9494
 1015MOL0     H33962   6.030   6.923   2.147 -0.1692  1.8158  1.5394
 1015MOL0     H33963   5.779   6.999   2.091 -1.7318  2.1490  2.4825
 1015MOL0     H33964   5.376   6.955   2.083  0.9112 -0.1006  1.2186
 1015MOL0     H33965   5.163   7.045   2.030 -0.3039 -2.1242  0.7736
 1015MOL0     H33966   3.737   6.926   1.300  0.0777  3.4782 -3.1537
 1015MOL0     H33967   3.540   7.026   1.173 -0.6857  0.9360 -0.1063
 1015MOL0     H33968   3.085   7.391   1.276  3.4050 -1.6553  1.5093
 1015MOL0     H33969   2.898   7.421   1.138  0.2889 -1.1499  1.4913
 1015MOL0     H33970   2.876   7.220   0.732  1.7422  2.5635  0.3852
 1015MOL0     H33971   2.717   7.287   0.741  0.0861  0.7378  0.0291
 1015MOL0     H33972   2.816   7.035   0.877  2.4807  2.9720 -2.1742
 1015MOL0     H33973   2.676   7.124   0.939 -0.7672 -3.3983  1.4083
 1015MOL0     H33974   2.712   7.004   0.670  0.6261 -0.1616  1.8499
 1015MOL0     H33975   2.571   7.113   0.706  1.4503  1.0135 -1.9348
 1015MOL0     H33976   2.628   6.890   0.896 -1.0114 -2.6229 -0.4213
 1015MOL0     H33977   2.473   6.971   0.856 -1.5475  1.2462 -2.6321
 1015MOL0     H33978   2.482   6.660   0.556  0.7545  0.8890 -0.1141
 1015MOL0     H33979   3.017   7.122   0.875 -0.4393 -0.2917  0.6801
 1015MOL0     H33980   3.239   7.107   1.007  1.6729 -0.7041  2.4186
 1016MOL0     O33981   0.363   1.541   1.735 -0.4569 -0.0886  0.7572
 1016MOL0     C33982   0.396   1.468   1.820 -0.1968  0.7246 -0.3015
 1016MOL0     O33983   0.309   1.383   1.887 -0.1812 -0.4714 -0.5293
 1016MOL0     C33984   0.175   1.368   1.854 -0.5217  0.4321  0.4899
 1016MOL0     C33985   0.119   1.257   1.917  0.7917  0.4851  1.0558
 1016MOL0     C33986  -0.016   1.234   1.907  0.4826  0.6592  0.0177
 1016MOL0     C33987  -0.100   1.316   1.833  0.5078 -0.1550 -1.0158
 1016MOL0     O33988  -0.240   1.304   1.825  0.1394  0.0789 -0.9581
 1016MOL0     C33989  -0.311   1.191   1.888  0.6186 -0.8988  0.2717
 1016MOL0     C33990  -0.457   1.194   1.835 -0.3310 -0.1706  0.1639
 1016MOL0     C33991  -0.536   1.317   1.880  0.0324 -0.5289  0.3300
 1016MOL0     C33992  -0.673   1.313   1.809 -0.3968  1.2068  1.1929
 1016MOL0     C33993  -0.763   1.424   1.852 -0.2566 -0.0418  0.4049
 1016MOL0     C33994  -0.724   1.564   1.791  0.4295  0.4320 -0.1064
 1016MOL0     C33995  -0.824   1.680   1.798 -0.0626 -1.0249 -0.3918
 1016MOL0     C33996  -0.861   1.729   1.941 -0.0651  0.3588  0.3662
 1016MOL0     N33997  -0.977   1.813   1.959  0.6595  1.1681  0.7711
 1016MOL0     C33998  -1.002   1.912   1.868 -0.1122  0.0840  0.1418
 1016MOL0     C33999  -1.090   1.989   1.935 -1.0245  0.0103 -0.3236
 1016MOL0     C34000  -1.146   2.114   1.871  0.3146 -0.0263 -0.6403
 1016MOL0     C34001  -1.279   2.150   1.919  0.1766 -0.1194 -0.3675
 1016MOL0     C34002  -1.395   2.049   1.878 -0.6407 -0.6410 -0.1937
 1016MOL0     C34003  -1.528   2.128   1.900 -0.9413  0.8023 -0.3687
 1016MOL0     O34004  -1.642   2.056   1.868  0.4222  0.0210  0.1149
 1016MOL0     C34005  -1.755   2.112   1.913  0.1956  0.3834 -0.1609
 1016MOL0     C34006  -1.856   2.022   1.927  0.7653  0.4519 -0.4414
 1016MOL0     C34007  -1.979   2.062   1.981  0.3750  0.2072 -0.1657
 1016MOL0     C34008  -2.007   2.199   2.009  0.2187  1.0972  0.1943
 1016MOL0     C34009  -2.144   2.234   2.050  0.0654 -0.3586  1.0033
 1016MOL0     O34010  -2.240   2.133   2.041  0.3250  0.4972  0.6097
 1016MOL0     C34011  -2.369   2.174   2.069  0.2960 -0.2411 -0.7926
 1016MOL0     C34012  -2.442   2.080   2.149  0.3594 -0.7966 -0.0199
 1016MOL0     C34013  -2.574   2.103   2.194  0.6380 -0.8064  1.3734
 1016MOL0     C34014  -2.646   2.218   2.152  0.3955 -0.6488 -0.4078
 1016MOL0     O34015  -2.778   2.229   2.185 -0.0361 -0.0738 -0.1782
 1016MOL0     C34016  -2.871   2.148   2.110 -0.0293 -0.3452 -1.4629
 1016MOL0     C34017  -3.009   2.203   2.121 -0.3841  0.1393  0.2008
 1016MOL0     C34018  -3.062   2.207   2.260  0.4273  0.2682  0.8116
 1016MOL0     C34019  -3.212   2.244   2.248 -0.1784 -0.4832  0.3842
 1016MOL0     C34020  -3.258   2.253   2.393  0.1494  0.0881  0.1471
 1016MOL0     C34021  -3.410   2.278   2.402  0.7747  0.0609 -1.2261
 1016MOL0     C34022  -3.481   2.140   2.396  0.0206  0.0110 -0.0868
 1016MOL0     C34023  -3.627   2.152   2.423  0.8225  0.2701 -0.5343
 1016MOL0    Cl34024  -3.665   2.177   2.601  0.3247 -0.1960 -0.0772
 1016MOL0     C34025  -2.575   2.316   2.083 -0.2492  0.0894 -0.3187
 1016MOL0     C34026  -2.440   2.292   2.025 -0.0566  0.8342 -0.4032
 1016MOL0     O34027  -2.158   2.344   2.102  0.0751  0.1966  0.7623
 1016MOL0     C34028  -1.902   2.287   1.992  0.0954 -0.5255 -0.3704
 1016MOL0     C34029  -1.779   2.240   1.948  0.2412 -0.6588 -0.1964
 1016MOL0     N34030  -1.106   1.943   2.065  0.8527 -0.0639  0.0368
 1016MOL0     N34031  -1.044   1.828   2.075 -0.1749 -0.3202 -0.4729
 1016MOL0     C34032  -0.046   1.428   1.770  0.7217 -0.0414  0.4639
 1016MOL0     C34033   0.090   1.449   1.774 -1.2069  0.7033  0.2928
 1016MOL0     C34034   0.541   1.442   1.833 -0.5773  0.1077 -0.1077
 1016MOL0     C34035   0.638   1.521   1.762 -0.0056  0.5970 -0.0123
 1016MOL0     C34036   0.774   1.499   1.783  0.4914  0.3440 -0.7631
 1016MOL0     C34037   0.821   1.399   1.872  0.1168 -0.4685 -0.7905
 1016MOL0     O34038   0.961   1.395   1.886  1.0442 -0.5035  0.3181
 1016MOL0     C34039   1.016   1.321   1.997 -0.3666  0.5771  0.6858
 1016MOL0     C34040   1.143   1.358   2.049  0.2689  0.2570 -0.6000
 1016MOL0     C34041   1.272   1.327   1.963  0.4774 -0.7967 -0.2579
 1016MOL0     C34042   1.391   1.329   2.053 -0.2748 -0.6956  0.8872
 1016MOL0     C34043   1.516   1.285   1.989  0.1233 -0.3220  0.1480
 1016MOL0     C34044   1.628   1.262   1.946 -0.4460 -0.1573  0.6018
 1016MOL0     C34045   0.726   1.319   1.934 -1.0779 -0.0476 -0.9214
 1016MOL0     C34046   0.590   1.332   1.913 -0.1142 -0.6900 -0.3182
 1016MOL0     H34047   0.193   1.191   1.961  1.8308  1.8374  1.4079
 1016MOL0     H34048  -0.053   1.147   1.960  1.9505  0.1790  0.2810
 1016MOL0     H34049  -0.315   1.208   1.996  0.0793  0.8200  0.0140
 1016MOL0     H34050  -0.267   1.094   1.863  2.0772  0.2706 -2.0239
 1016MOL0     H34051  -0.512   1.108   1.873 -3.3524 -1.0912 -5.1734
 1016MOL0     H34052  -0.467   1.189   1.726  0.9922  0.6218 -0.0127
 1016MOL0     H34053  -0.480   1.410   1.869  0.9277 -1.1772 -0.7184
 1016MOL0     H34054  -0.542   1.307   1.989  0.0049  2.1273  0.6357
 1016MOL0     H34055  -0.654   1.323   1.702 -1.2720 -0.6962  0.8147
 1016MOL0     H34056  -0.723   1.216   1.806  1.5991  0.0955 -2.6244
 1016MOL0     H34057  -0.764   1.434   1.961 -2.0826  1.1505  0.3264
 1016MOL0     H34058  -0.866   1.406   1.820 -1.1530  1.2044  2.3282
 1016MOL0     H34059  -0.697   1.543   1.688 -0.0442 -3.6017  0.4206
 1016MOL0     H34060  -0.635   1.597   1.845 -0.3861  0.6598  1.1491
 1016MOL0     H34061  -0.780   1.766   1.748  4.7911 -2.7857  0.2858
 1016MOL0     H34062  -0.917   1.652   1.747 -1.1883  0.0238  0.9771
 1016MOL0     H34063  -0.783   1.798   1.974  0.9024  1.0528 -3.0073
 1016MOL0     H34064  -0.867   1.655   2.022 -0.1942 -0.2092 -0.1568
 1016MOL0     H34065  -0.950   1.931   1.774  3.0376 -2.2988  1.2240
 1016MOL0     H34066  -1.144   2.114   1.762  1.8486 -1.1770 -0.6397
 1016MOL0     H34067  -1.072   2.190   1.895 -1.5001  1.7044 -0.2128
 1016MOL0     H34068  -1.299   2.252   1.882  0.4563 -0.0039 -0.2062
 1016MOL0     H34069  -1.267   2.151   2.028 -1.1898 -1.8838 -0.1640
 1016MOL0     H34070  -1.385   2.017   1.773 -1.1866  0.0348 -0.4614
 1016MOL0     H34071  -1.391   1.957   1.938  0.6289 -1.5580 -1.6026
 1016MOL0     H34072  -1.517   2.213   1.832 -0.1974 -0.1392 -1.4672
 1016MOL0     H34073  -1.530   2.158   2.005 -3.3089 -1.0100  0.1893
 1016MOL0     H34074  -1.830   1.919   1.908  0.7556 -0.3252  3.1115
 1016MOL0     H34075  -2.060   1.993   2.004  1.2363 -0.6501  0.3544
 1016MOL0     H34076  -2.380   1.999   2.184 -0.1514 -0.6683  1.2177
 1016MOL0     H34077  -2.625   2.029   2.255  1.9786 -2.6420  0.3816
 1016MOL0     H34078  -2.853   2.044   2.137  3.9454  0.3014 -1.1199
 1016MOL0     H34079  -2.843   2.165   2.005 -2.3226  0.0810 -2.0678
 1016MOL0     H34080  -3.072   2.157   2.044  0.9436  0.1251 -0.9217
 1016MOL0     H34081  -2.992   2.310   2.103 -1.7339  0.6084  1.5475
 1016MOL0     H34082  -3.003   2.271   2.327 -0.3550  0.2014  1.5812
 1016MOL0     H34083  -3.054   2.109   2.309 -0.4035 -1.8723 -2.9531
 1016MOL0     H34084  -3.230   2.340   2.198  2.3178 -0.5231 -0.7310
 1016MOL0     H34085  -3.260   2.165   2.188 -5.2794  2.5188 -0.1112
 1016MOL0     H34086  -3.205   2.345   2.418  0.4613  0.0889 -0.5001
 1016MOL0     H34087  -3.223   2.168   2.453 -0.7363 -0.1523  0.3360
 1016MOL0     H34088  -3.441   2.347   2.322 -1.9325 -0.4340 -0.7146
 1016MOL0     H34089  -3.418   2.328   2.499  4.7251 -1.5740  0.0971
 1016MOL0     H34090  -3.480   2.100   2.294 -1.0207  0.7291 -0.3966
 1016MOL0     H34091  -3.440   2.069   2.468 -2.1755  0.8920  2.1896
 1016MOL0     H34092  -3.672   2.060   2.384 -0.6998  0.5251  0.5084
 1016MOL0     H34093  -3.672   2.238   2.372 -0.8673  0.2155  0.7596
 1016MOL0     H34094  -2.615   2.416   2.071 -3.7108 -1.0828  0.3008
 1016MOL0     H34095  -2.390   2.355   1.953  6.3829 -3.7185 -0.7998
 1016MOL0     H34096  -1.920   2.391   2.020  1.5490  0.8634 -3.9531
 1016MOL0     H34097  -1.701   2.315   1.948 -1.3898  1.1720 -2.6804
 1016MOL0     H34098  -0.112   1.494   1.715 -1.9048 -3.5431 -0.9891
 1016MOL0     H34099   0.125   1.534   1.717  0.1376 -1.1402 -1.7870
 1016MOL0     H34100   0.604   1.601   1.697  2.3369  1.6489 -0.0428
 1016MOL0     H34101   0.848   1.554   1.727  1.4658  1.0181  1.0892
 1016MOL0     H34102   1.026   1.218   1.962  0.5286  1.2934 -1.2767
 1016MOL0     H34103   0.948   1.308   2.082 -0.1198 -0.8478  0.7073
 1016MOL0     H34104   1.144   1.466   2.067  2.9798 -0.3343  4.8716
 1016MOL0     H34105   1.137   1.320   2.151 -1.8401  2.9008  0.3823
 1016MOL0     H34106   1.277   1.407   1.889 -2.7560  1.4362  1.6654
 1016MOL0     H34107   1.280   1.225   1.925  1.8196 -1.4168  1.5492
 1016MOL0     H34108   1.410   1.432   2.087 -1.7421 -0.5393  1.3154
 1016MOL0     H34109   1.370   1.263   2.138  0.5859 -2.3434 -0.1530
 1016MOL0     H34110   1.725   1.246   1.904  0.1365 -2.5377  2.5719
 1016MOL0     H34111   0.761   1.244   2.004 -0.8489 -0.7628 -1.7772
 1016MOL0     H34112   0.525   1.266   1.968 -0.5537  0.0692  0.0958
 1017MOL0     O34113   0.503   6.621   8.576 -0.4029  0.3820 -0.4206
 1017MOL0     C34114   0.518   6.521   8.505 -0.3170 -0.8437  0.5213
 1017MOL0     O34115   0.639   6.482   8.450  0.3576  0.1905 -0.0977
 1017MOL0     C34116   0.751   6.548   8.493 -0.1352 -0.0970  0.8298
 1017MOL0     C34117   0.852   6.546   8.395  0.2125 -0.5478  0.5265
 1017MOL0     C34118   0.986   6.590   8.422  0.5191 -0.3021 -0.3150
 1017MOL0     C34119   1.014   6.636   8.546 -0.0068 -2.6504 -0.0358
 1017MOL0     O34120   1.132   6.688   8.580  0.0249  0.8762 -0.7012
 1017MOL0     C34121   1.247   6.629   8.522 -0.3255 -0.3227 -0.5695
 1017MOL0     C34122   1.380   6.688   8.582 -0.7608  0.1496  0.3723
 1017MOL0     C34123   1.508   6.632   8.520 -0.5085  0.5268 -0.2533
 1017MOL0     C34124   1.637   6.663   8.598 -0.2202 -0.7554 -0.0968
 1017MOL0     C34125   1.756   6.631   8.499  1.3287  0.1339  0.3811
 1017MOL0     C34126   1.886   6.664   8.570  0.6902  0.1601  0.4928
 1017MOL0     C34127   1.912   6.557   8.679 -0.2096 -0.0032 -0.5812
 1017MOL0     C34128   2.055   6.577   8.735 -0.5516  0.7779  0.1508
 1017MOL0     N34129   2.059   6.698   8.811 -0.0277 -0.7390 -0.6161
 1017MOL0     C34130   2.176   6.772   8.820  0.6559  1.0463 -0.4179
 1017MOL0     C34131   2.136   6.889   8.886 -0.4148 -0.2576  0.0835
 1017MOL0     C34132   2.220   7.005   8.920  1.4283  0.2132  0.2761
 1017MOL0     C34133   2.252   7.097   8.806 -0.3710 -0.9372  0.4886
 1017MOL0     C34134   2.358   7.034   8.706 -0.5030 -0.3694 -0.1511
 1017MOL0     C34135   2.504   7.046   8.757  0.5204 -0.3967  0.3149
 1017MOL0     O34136   2.576   6.947   8.676 -0.2012 -0.1897 -0.3919
 1017MOL0     C34137   2.712   6.953   8.689  0.0445 -0.1426  0.6706
 1017MOL0     C34138   2.791   7.011   8.786  0.3270  0.4414 -1.6654
 1017MOL0     C34139   2.932   6.987   8.788 -0.3008 -0.8005  0.4892
 1017MOL0     C34140   2.989   6.923   8.681 -0.4230  0.6637  0.8399
 1017MOL0     C34141   3.137   6.909   8.677 -0.1141 -0.0941 -0.1852
 1017MOL0     O34142   3.221   6.986   8.759  0.3815  0.0353 -0.3379
 1017MOL0     C34143   3.364   6.976   8.751  0.1014 -0.7528  0.0401
 1017MOL0     C34144   3.421   6.847   8.744 -0.4882  0.2128  0.0525
 1017MOL0     C34145   3.556   6.837   8.727 -0.2414  0.0739 -1.2709
 1017MOL0     C34146   3.644   6.952   8.731 -0.1622 -0.3423 -0.2508
 1017MOL0     O34147   3.776   6.951   8.720 -0.4973 -0.0851 -0.1078
 1017MOL0     C34148   3.846   6.829   8.717 -0.4687  0.0652 -0.6021
 1017MOL0     C34149   3.983   6.881   8.677  0.0666 -1.1627 -0.9531
 1017MOL0     C34150   4.065   6.913   8.809  0.1206  0.2219  0.1175
 1017MOL0     C34151   4.077   7.069   8.812  0.0409  0.5648  1.0203
 1017MOL0     C34152   4.156   7.115   8.931  0.2238  0.1605 -0.9430
 1017MOL0     C34153   4.120   7.049   9.066  1.0740 -0.3634 -0.5684
 1017MOL0     C34154   4.182   7.111   9.185 -0.3636 -0.4771  0.2856
 1017MOL0     C34155   4.150   7.038   9.304  0.4445  0.5536 -0.0275
 1017MOL0    Cl34156   3.983   7.003   9.339 -0.1172 -0.1359  0.2210
 1017MOL0     C34157   3.582   7.081   8.746 -0.1496 -0.9785 -0.1231
 1017MOL0     C34158   3.440   7.095   8.750 -1.0379 -0.7268  0.5138
 1017MOL0     O34159   3.178   6.827   8.598 -0.6917 -0.6426 -0.7327
 1017MOL0     C34160   2.908   6.878   8.580 -0.2196  0.3482  0.0379
 1017MOL0     C34161   2.771   6.870   8.602 -0.1938 -0.7337  0.3350
 1017MOL0     N34162   2.004   6.879   8.915  0.4992  0.4966 -0.6580
 1017MOL0     N34163   1.959   6.775   8.861  0.3590  0.5967  0.4399
 1017MOL0     C34164   0.918   6.648   8.639  0.1981  0.5636 -0.2562
 1017MOL0     C34165   0.779   6.606   8.623 -0.3024 -0.7235  0.8383
 1017MOL0     C34166   0.392   6.465   8.437  0.0630 -0.2911  0.1731
 1017MOL0     C34167   0.267   6.519   8.477  1.0022 -0.1990  0.9302
 1017MOL0     C34168   0.145   6.455   8.434 -0.0481 -0.3129 -0.0593
 1017MOL0     C34169   0.154   6.357   8.340  0.7942  0.2861  0.1245
 1017MOL0     O34170   0.035   6.300   8.294  0.0511  0.4549 -0.3952
 1017MOL0     C34171   0.030   6.199   8.189  0.8791 -0.1047  0.8554
 1017MOL0     C34172   0.053   6.246   8.048 -0.0396 -0.0057  0.0027
 1017MOL0     C34173   0.052   6.139   7.934 -0.7317  0.7517  0.2110
 1017MOL0     C34174   0.146   6.018   7.963 -0.3564  0.5363  0.3936
 1017MOL0     C34175   0.282   6.065   7.968 -0.0396  0.6174 -0.2642
 1017MOL0     C34176   0.399   6.109   7.978 -0.3795  0.0703  0.8122
 1017MOL0     C34177   0.279   6.316   8.286 -0.0149 -0.5329 -0.3105
 1017MOL0     C34178   0.401   6.362   8.341 -0.9148 -0.2371  0.3731
 1017MOL0     H34179   0.823   6.501   8.300  0.7091 -0.4408  0.3191
 1017MOL0     H34180   1.060   6.599   8.343  3.3221  0.5729  2.1919
 1017MOL0     H34181   1.244   6.647   8.414  1.1270  0.2285 -0.5393
 1017MOL0     H34182   1.237   6.521   8.532 -0.2549 -0.3367 -0.6549
 1017MOL0     H34183   1.378   6.655   8.686  0.9645 -1.2574 -0.0136
 1017MOL0     H34184   1.381   6.798   8.578  6.1540  0.4577 -0.7196
 1017MOL0     H34185   1.505   6.665   8.415 -1.7903 -0.2477 -0.4828
 1017MOL0     H34186   1.496   6.524   8.520 -1.6335  0.6426 -0.4527
 1017MOL0     H34187   1.630   6.767   8.632  1.5052 -1.2340  1.9595
 1017MOL0     H34188   1.648   6.607   8.691  0.3592 -0.5171 -0.0211
 1017MOL0     H34189   1.745   6.689   8.407 -0.4127  0.7981  0.9784
 1017MOL0     H34190   1.753   6.531   8.454 -0.7722  1.7290 -3.4763
 1017MOL0     H34191   1.891   6.769   8.601  1.3183 -0.0070  0.9885
 1017MOL0     H34192   1.973   6.654   8.504  0.3430 -0.8490  0.1762
 1017MOL0     H34193   1.838   6.568   8.758 -1.9418  1.2869 -2.2711
 1017MOL0     H34194   1.904   6.456   8.637 -0.5164 -0.2140 -0.0162
 1017MOL0     H34195   2.126   6.577   8.653 -0.5111 -1.2613  0.1513
 1017MOL0     H34196   2.095   6.497   8.798  0.7249  1.5059  0.3101
 1017MOL0     H34197   2.271   6.732   8.786  1.1296  0.2163  1.6876
 1017MOL0     H34198   2.310   6.975   8.974  1.5390 -2.5855 -1.2748
 1017MOL0     H34199   2.156   7.056   8.992  2.1971 -0.0118  1.1396
 1017MOL0     H34200   2.289   7.189   8.853 -0.5604 -1.5209  1.8130
 1017MOL0     H34201   2.166   7.128   8.746  1.6096  2.1953 -1.0366
 1017MOL0     H34202   2.343   6.929   8.678 -0.7141 -0.7011  1.1063
 1017MOL0     H34203   2.344   7.091   8.614 -1.3709  3.3344  2.0886
 1017MOL0     H34204   2.512   7.022   8.863 -0.6833  0.4320  0.6235
 1017MOL0     H34205   2.540   7.149   8.761 -0.1444 -0.1770  0.9107
 1017MOL0     H34206   2.745   7.068   8.867 -1.3006  3.3295 -4.4058
 1017MOL0     H34207   2.984   7.019   8.878 -1.7771 -0.2941  1.1910
 1017MOL0     H34208   3.358   6.760   8.755  2.6687 -2.2954 -0.0982
 1017MOL0     H34209   3.595   6.736   8.715  0.3705 -0.1699  1.8883
 1017MOL0     H34210   3.811   6.756   8.644 -0.3619  0.1548 -0.7438
 1017MOL0     H34211   3.833   6.789   8.818 -1.3989  2.3426  0.2299
 1017MOL0     H34212   3.990   6.959   8.601  0.0330  1.2145  1.3758
 1017MOL0     H34213   4.039   6.795   8.639  0.2149 -1.0830 -0.9111
 1017MOL0     H34214   4.159   6.858   8.801 -0.7644 -1.1975 -1.2415
 1017MOL0     H34215   4.025   6.882   8.905 -1.5248  1.1635 -0.2282
 1017MOL0     H34216   4.121   7.112   8.721  2.8123 -1.5950  1.1847
 1017MOL0     H34217   3.979   7.117   8.819 -0.7858 -1.0978  1.0787
 1017MOL0     H34218   4.139   7.223   8.941 -0.7204 -0.1850  2.9154
 1017MOL0     H34219   4.263   7.109   8.909  0.7373 -2.2849  1.6744
 1017MOL0     H34220   4.160   6.947   9.070  2.8841  0.3334  0.6780
 1017MOL0     H34221   4.012   7.056   9.082  0.9406  2.6623 -2.2165
 1017MOL0     H34222   4.289   7.107   9.162 -0.5134 -0.1542 -0.5091
 1017MOL0     H34223   4.143   7.213   9.182 -0.5750 -0.5504 -2.6010
 1017MOL0     H34224   4.193   7.099   9.384  1.8532  1.1897 -1.2252
 1017MOL0     H34225   4.203   6.943   9.301 -0.2128  0.1916 -0.5172
 1017MOL0     H34226   3.651   7.165   8.737 -0.9180 -0.5373 -2.6857
 1017MOL0     H34227   3.402   7.196   8.738 -2.6046 -1.3273  0.1270
 1017MOL0     H34228   2.938   6.818   8.495  2.3303  1.9246 -0.2707
 1017MOL0     H34229   2.702   6.831   8.528 -1.0250 -1.2094  1.3333
 1017MOL0     H34230   0.950   6.680   8.738  2.7551 -0.1491 -0.7857
 1017MOL0     H34231   0.715   6.621   8.709 -0.5283 -0.2330  0.5872
 1017MOL0     H34232   0.261   6.602   8.547 -2.1299  1.8490 -1.4837
 1017MOL0     H34233   0.049   6.487   8.473  1.5324  2.2941  2.1083
 1017MOL0     H34234  -0.071   6.159   8.182 -0.1452  2.5932 -3.8074
 1017MOL0     H34235   0.101   6.123   8.222  2.6520  0.7202 -0.8327
 1017MOL0     H34236  -0.020   6.323   8.024 -0.0648 -0.5715 -1.9592
 1017MOL0     H34237   0.148   6.301   8.038  0.0517  0.1460  1.4904
 1017MOL0     H34238   0.078   6.179   7.835 -0.0947 -2.4295 -1.0298
 1017MOL0     H34239  -0.050   6.102   7.922 -0.6528  1.4285 -3.7880
 1017MOL0     H34240   0.124   5.973   8.060 -0.0483 -1.6745 -0.5000
 1017MOL0     H34241   0.132   5.939   7.888 -0.4096  1.7722 -0.9512
 1017MOL0     H34242   0.488   6.165   7.997 -0.5098 -0.1557  2.1831
 1017MOL0     H34243   0.285   6.245   8.204  2.5535 -1.8338  0.9052
 1017MOL0     H34244   0.491   6.319   8.300 -2.0281 -1.1829 -1.1730
 1018MOL0     O34245   9.470   1.504   3.615 -0.4952 -0.5506 -0.0890
 1018MOL0     C34246   9.517   1.454   3.518 -0.0175 -0.2803 -0.1455
 1018MOL0     O34247   9.457   1.356   3.451 -0.4090  0.4806  1.0446
 1018MOL0     C34248   9.323   1.338   3.456 -0.3744  0.0780  0.5855
 1018MOL0     C34249   9.216   1.442   3.445  0.5689  0.3286 -0.9765
 1018MOL0     C34250   9.078   1.414   3.456  0.2979  1.0907  0.3886
 1018MOL0     C34251   9.038   1.278   3.463 -0.0041  0.0252  0.1695
 1018MOL0     O34252   8.894   1.264   3.468 -0.6235  0.1192 -0.4795
 1018MOL0     C34253   8.843   1.131   3.468 -0.0426  0.7571  0.4297
 1018MOL0     C34254   8.702   1.138   3.526  0.3204  0.2717 -0.4080
 1018MOL0     C34255   8.591   1.218   3.454 -0.7278  0.4651  0.3372
 1018MOL0     C34256   8.453   1.195   3.515 -0.9323  0.1696  0.0188
 1018MOL0     C34257   8.362   1.304   3.473 -0.3162  0.4624 -0.0710
 1018MOL0     C34258   8.220   1.268   3.507  0.8519 -0.6456 -0.9393
 1018MOL0     C34259   8.125   1.391   3.522  0.1281 -0.3190  0.1688
 1018MOL0     C34260   8.138   1.460   3.657 -0.7407 -0.6935 -0.6898
 1018MOL0     N34261   8.060   1.584   3.676 -0.7660  0.1180  0.4672
 1018MOL0     C34262   8.109   1.714   3.652 -0.7583 -0.2254  0.5855
 1018MOL0     C34263   8.028   1.800   3.711  1.1791  0.1774 -0.4347
 1018MOL0     C34264   8.030   1.953   3.712 -0.7657  0.8403 -0.0391
 1018MOL0     C34265   8.050   2.016   3.846 -0.1097 -0.6276 -0.3014
 1018MOL0     C34266   8.179   1.972   3.908  0.0950  0.1978  0.1887
 1018MOL0     C34267   8.222   2.047   4.031 -0.4685  0.5093 -1.1323
 1018MOL0     O34268   8.333   1.980   4.083  0.0934  0.1871  0.1493
 1018MOL0     C34269   8.420   2.051   4.166 -0.4566 -0.1470  0.2172
 1018MOL0     C34270   8.371   2.155   4.248 -0.0939 -0.0118 -0.0992
 1018MOL0     C34271   8.462   2.244   4.322  0.0669  0.4325  0.7281
 1018MOL0     C34272   8.600   2.222   4.322 -0.1806  0.1623 -0.0457
 1018MOL0     C34273   8.691   2.323   4.386  0.1523 -0.6018  0.3777
 1018MOL0     O34274   8.648   2.398   4.490  0.7819  0.2382  0.2008
 1018MOL0     C34275   8.738   2.479   4.553 -0.7768  0.2541  0.4415
 1018MOL0     C34276   8.816   2.427   4.660 -0.4027 -0.5954  0.6322
 1018MOL0     C34277   8.915   2.505   4.718  0.0140 -0.9398  0.2883
 1018MOL0     C34278   8.932   2.638   4.668  0.1675  0.3551  0.6335
 1018MOL0     O34279   9.027   2.712   4.737 -0.1664 -0.1431 -0.0420
 1018MOL0     C34280   9.031   2.858   4.719  0.3357 -0.7294 -0.0313
 1018MOL0     C34281   9.131   2.919   4.824 -0.5098  0.2438 -0.0206
 1018MOL0     C34282   9.280   2.877   4.780 -0.6057 -0.2476 -0.2597
 1018MOL0     C34283   9.380   2.938   4.896 -0.4194 -0.2201  0.3861
 1018MOL0     C34284   9.515   2.895   4.879  0.3208  0.1052  0.0860
 1018MOL0     C34285   9.588   2.949   4.750 -1.0609  0.0623 -0.3240
 1018MOL0     C34286   9.730   2.893   4.747  0.4728  0.0727 -0.5179
 1018MOL0     C34287   9.733   2.744   4.731  0.2534  0.2694 -0.3306
 1018MOL0    Cl34288   9.696   2.707   4.561  0.0564 -0.2618  0.1329
 1018MOL0     C34289   8.861   2.689   4.562 -0.8610 -0.5077  0.0064
 1018MOL0     C34290   8.766   2.608   4.506 -1.0055  0.3700 -0.2298
 1018MOL0     O34291   8.806   2.329   4.342  0.0140 -0.4834  0.7506
 1018MOL0     C34292   8.642   2.107   4.243  0.3604 -0.6250 -0.5113
 1018MOL0     C34293   8.553   2.025   4.170 -0.6321  0.0400  0.0926
 1018MOL0     N34294   7.929   1.726   3.773  0.4540  0.0113 -0.0649
 1018MOL0     N34295   7.949   1.596   3.751  0.2717 -0.5045  0.1243
 1018MOL0     C34296   9.135   1.179   3.469  0.0301 -0.2480  0.5726
 1018MOL0     C34297   9.277   1.209   3.461 -0.9301 -1.3901 -0.1120
 1018MOL0     C34298   9.661   1.474   3.491  0.3084 -0.7272 -0.0338
 1018MOL0     C34299   9.729   1.576   3.562  0.1677  0.9711  0.4241
 1018MOL0     C34300   9.861   1.589   3.532 -0.5433 -0.7062 -0.9200
 1018MOL0     C34301   9.939   1.496   3.461 -0.0614  0.7256 -0.0596
 1018MOL0     O34302  10.076   1.497   3.437 -0.1750 -0.0796  0.7716
 1018MOL0     C34303  10.160   1.592   3.503 -0.7727  0.4317 -1.0153
 1018MOL0     C34304  10.300   1.528   3.518 -0.0882 -0.1829  0.2427
 1018MOL0     C34305  10.387   1.589   3.627  0.0412  1.3328 -0.9359
 1018MOL0     C34306  10.380   1.749   3.637 -0.3781  0.0552 -0.7278
 1018MOL0     C34307  10.446   1.815   3.527 -0.3609  0.5208  0.0523
 1018MOL0     C34308  10.484   1.873   3.432 -0.7659  1.0983  0.1470
 1018MOL0     C34309   9.866   1.403   3.388  0.6427 -0.0452 -0.7769
 1018MOL0     C34310   9.727   1.391   3.394  0.2796 -0.9491 -0.0117
 1018MOL0     H34311   9.233   1.549   3.438 -0.3320  0.4631 -1.1927
 1018MOL0     H34312   9.003   1.493   3.455  0.8860  1.6868  1.6146
 1018MOL0     H34313   8.903   1.060   3.526  0.2162 -1.1379 -1.9512
 1018MOL0     H34314   8.845   1.093   3.365  1.5095  0.4802  0.5249
 1018MOL0     H34315   8.706   1.174   3.629  0.9849  0.4545 -0.4926
 1018MOL0     H34316   8.668   1.035   3.539 -2.4093  1.1696  0.3481
 1018MOL0     H34317   8.580   1.189   3.349 -2.5202  0.4313  0.5044
 1018MOL0     H34318   8.624   1.322   3.463 -2.2178  0.9765  0.1636
 1018MOL0     H34319   8.423   1.094   3.486  0.5310  0.4494 -2.9161
 1018MOL0     H34320   8.469   1.213   3.621  3.5879  1.4358 -0.6711
 1018MOL0     H34321   8.370   1.325   3.366  1.8231 -0.5044 -0.1517
 1018MOL0     H34322   8.383   1.398   3.525 -2.1804  2.2956 -2.3955
 1018MOL0     H34323   8.220   1.206   3.597  2.8963  0.3474 -0.1860
 1018MOL0     H34324   8.181   1.200   3.431  1.0470 -2.6181  0.6586
 1018MOL0     H34325   8.162   1.464   3.449  0.2267  2.8077  3.0483
 1018MOL0     H34326   8.021   1.363   3.506  0.1914  0.6502 -2.2721
 1018MOL0     H34327   8.241   1.492   3.677 -0.1088 -3.5002  1.1417
 1018MOL0     H34328   8.106   1.385   3.730 -3.2501 -0.1237 -1.1105
 1018MOL0     H34329   8.196   1.736   3.590  0.3002 -0.3326  1.9671
 1018MOL0     H34330   7.930   1.982   3.679 -1.4271  0.9280  1.9133
 1018MOL0     H34331   8.105   1.991   3.641  2.3416 -2.5119  1.1214
 1018MOL0     H34332   7.972   1.980   3.913 -0.3215 -1.5270 -0.9991
 1018MOL0     H34333   8.037   2.125   3.846 -1.1669 -0.5836  4.3189
 1018MOL0     H34334   8.165   1.867   3.937  1.5681 -0.3893 -1.0800
 1018MOL0     H34335   8.261   1.974   3.835  0.4504  1.6090  0.5986
 1018MOL0     H34336   8.144   2.061   4.106 -0.6504  0.1050 -1.2442
 1018MOL0     H34337   8.243   2.148   3.995 -2.8665  1.0421 -1.2053
 1018MOL0     H34338   8.264   2.166   4.267 -0.1111 -2.6255  1.8333
 1018MOL0     H34339   8.428   2.328   4.382  0.2809  2.2406 -1.5301
 1018MOL0     H34340   8.797   2.329   4.701 -0.5157 -0.8596 -0.0381
 1018MOL0     H34341   8.980   2.469   4.796  1.6417  4.1641  1.7274
 1018MOL0     H34342   8.935   2.902   4.746  1.3434  0.5738  1.6004
 1018MOL0     H34343   9.053   2.892   4.618 -0.6428 -0.4549 -0.1557
 1018MOL0     H34344   9.111   2.892   4.928  1.7235 -0.8982  0.1594
 1018MOL0     H34345   9.123   3.028   4.823 -0.1061  0.3934  3.1148
 1018MOL0     H34346   9.309   2.928   4.688  1.2106 -1.9920 -0.7085
 1018MOL0     H34347   9.294   2.770   4.764  0.0136 -0.0239 -1.2770
 1018MOL0     H34348   9.364   3.045   4.885  2.6215  0.0405 -3.0612
 1018MOL0     H34349   9.338   2.896   4.988  1.8485  2.0531  2.6116
 1018MOL0     H34350   9.514   2.785   4.874 -2.6840 -0.0057  1.4265
 1018MOL0     H34351   9.563   2.926   4.972  0.3605 -1.9295  0.8095
 1018MOL0     H34352   9.588   3.058   4.752 -0.6543  0.0646 -0.2808
 1018MOL0     H34353   9.533   2.924   4.659  2.3463 -0.7183 -2.3426
 1018MOL0     H34354   9.787   2.938   4.665 -0.8110  1.5912 -0.6469
 1018MOL0     H34355   9.774   2.923   4.843 -0.1017  1.6762 -0.7179
 1018MOL0     H34356   9.667   2.686   4.796 -1.1507  0.0122 -1.9260
 1018MOL0     H34357   9.837   2.715   4.751  0.2792  1.4424  1.5567
 1018MOL0     H34358   8.885   2.786   4.519  0.5377 -0.8064  0.0968
 1018MOL0     H34359   8.712   2.648   4.420 -0.2244  1.1089 -0.4021
 1018MOL0     H34360   8.747   2.091   4.223 -0.0692 -0.3114 -3.3557
 1018MOL0     H34361   8.594   1.944   4.111  0.2831  1.1551 -0.8548
 1018MOL0     H34362   9.108   1.074   3.476  3.3402 -1.3195 -0.3789
 1018MOL0     H34363   9.348   1.129   3.480 -2.4336 -2.3342  1.8749
 1018MOL0     H34364   9.681   1.650   3.626 -1.5273  2.7440 -2.6602
 1018MOL0     H34365   9.909   1.669   3.587 -1.0913 -1.2612  0.4162
 1018MOL0     H34366  10.121   1.598   3.606 -1.1795 -2.6834 -0.8807
 1018MOL0     H34367  10.162   1.696   3.470 -1.7868  0.7572 -0.1367
 1018MOL0     H34368  10.283   1.424   3.546 -3.8909 -0.3056 -1.9111
 1018MOL0     H34369  10.359   1.544   3.427  0.9025  1.2393  1.0876
 1018MOL0     H34370  10.491   1.557   3.617  0.5707  2.5673  0.2613
 1018MOL0     H34371  10.342   1.556   3.721  0.2761  1.9998 -0.5831
 1018MOL0     H34372  10.275   1.775   3.653 -0.7861 -2.2206  0.7455
 1018MOL0     H34373  10.433   1.777   3.729  2.3118  1.7723 -2.6479
 1018MOL0     H34374  10.531   1.915   3.345 -1.1158 -2.5405 -2.0001
 1018MOL0     H34375   9.919   1.332   3.325  2.4450  0.5181  0.0317
 1018MOL0     H34376   9.678   1.311   3.338 -1.4980  0.1205 -0.0527
 1019MOL0     O34377  10.212  10.765   0.444 -0.5088 -0.0470 -0.1097
 1019MOL0     C34378  10.215  10.674   0.368  0.1920  0.7666 -0.0597
 1019MOL0     O34379  10.105  10.637   0.281  0.0887  0.9016  0.0422
 1019MOL0     C34380  10.000  10.718   0.268  0.7551 -0.3905 -0.1468
 1019MOL0     C34381   9.873  10.690   0.321 -0.5585 -0.7944  0.8875
 1019MOL0     C34382   9.767  10.780   0.303  0.9290 -0.7804  0.1995
 1019MOL0     C34383   9.786  10.896   0.227 -0.0382 -1.7083  0.5537
 1019MOL0     O34384   9.679  10.974   0.187  0.7125 -0.3951 -0.8441
 1019MOL0     C34385   9.617  10.939   0.069  0.2215 -1.0013  0.1915
 1019MOL0     C34386   9.490  11.024   0.057 -0.7561  0.4337  1.0271
 1019MOL0     C34387   9.390  11.010   0.165  0.8704  1.1614  0.3730
 1019MOL0     C34388   9.329  10.873   0.178 -0.2138 -0.5778 -0.1143
 1019MOL0     C34389   9.268  10.819   0.053  0.6192 -0.1450 -0.7070
 1019MOL0     C34390   9.157  10.703   0.060 -0.0154  0.1219  0.1583
 1019MOL0     C34391   9.114  10.657  -0.085  0.1784 -0.1277 -0.5768
 1019MOL0     C34392   9.016  10.534  -0.090 -1.6674 -0.0254 -0.4424
 1019MOL0     N34393   8.979  10.516  -0.235 -0.0273  0.2314 -0.6277
 1019MOL0     C34394   8.873  10.583  -0.300  0.0745  0.2064  0.4176
 1019MOL0     C34395   8.880  10.525  -0.429 -0.0519  0.0923 -0.1444
 1019MOL0     C34396   8.786  10.558  -0.544  0.1522 -0.0954  0.2228
 1019MOL0     C34397   8.646  10.511  -0.505 -0.3736 -0.1125 -0.4574
 1019MOL0     C34398   8.553  10.497  -0.628 -0.8781  0.0561  0.3039
 1019MOL0     C34399   8.409  10.485  -0.591  0.3726 -1.0389  0.2790
 1019MOL0     O34400   8.394  10.417  -0.465 -0.1539  0.1259  0.7524
 1019MOL0     C34401   8.272  10.365  -0.441 -0.1049  0.1163 -0.3280
 1019MOL0     C34402   8.249  10.230  -0.463 -0.1005  0.8981  1.1079
 1019MOL0     C34403   8.121  10.182  -0.443  0.3262  0.8911 -0.0679
 1019MOL0     C34404   8.015  10.267  -0.410  0.2117 -0.3036  1.0413
 1019MOL0     C34405   7.877  10.216  -0.374  0.4717 -1.0189 -0.4947
 1019MOL0     O34406   7.792  10.313  -0.323 -0.4375  0.6695  0.1204
 1019MOL0     C34407   7.678  10.271  -0.264 -0.1969 -0.7827  0.0696
 1019MOL0     C34408   7.554  10.301  -0.324 -0.0420 -0.7459 -0.5226
 1019MOL0     C34409   7.432  10.265  -0.266  0.7319 -0.4566  0.3400
 1019MOL0     C34410   7.437  10.200  -0.144 -0.3942  1.2420 -0.3257
 1019MOL0     O34411   7.327  10.160  -0.082  0.0656  0.4087  0.1621
 1019MOL0     C34412   7.306  10.194   0.056  0.3283 -0.5232  0.6270
 1019MOL0     C34413   7.151  10.205   0.085  0.0001 -0.2497  0.4790
 1019MOL0     C34414   7.142  10.164   0.228  0.4232 -0.4393 -1.5227
 1019MOL0     C34415   7.002  10.195   0.292 -1.1846  0.6905  0.5341
 1019MOL0     C34416   6.996  10.209   0.446 -0.7610  0.5885 -1.0064
 1019MOL0     C34417   7.023  10.075   0.530 -0.5214  0.2811  0.0418
 1019MOL0     C34418   6.898   9.994   0.531 -0.4858  0.1340 -0.4804
 1019MOL0     C34419   6.913   9.865   0.614  1.1736 -0.0419 -0.3145
 1019MOL0    Cl34420   6.750   9.791   0.610  0.0148  0.0511 -0.2166
 1019MOL0     C34421   7.556  10.163  -0.081 -0.4983 -0.2235  0.8111
 1019MOL0     C34422   7.676  10.193  -0.144 -0.6531  0.7746  0.9097
 1019MOL0     O34423   7.862  10.097  -0.365 -0.4775 -0.2948  0.5628
 1019MOL0     C34424   8.037  10.409  -0.401  0.7615  0.3158 -0.0900
 1019MOL0     C34425   8.163  10.456  -0.428 -0.6216  0.3843  0.0421
 1019MOL0     N34426   8.980  10.436  -0.430 -0.5835 -0.2082  0.1302
 1019MOL0     N34427   9.040  10.426  -0.319  0.0888  0.8282  0.7547
 1019MOL0     C34428   9.915  10.924   0.176  0.0700 -0.2705  0.3970
 1019MOL0     C34429  10.019  10.838   0.195  0.6693 -0.3973  0.1157
 1019MOL0     C34430  10.325  10.577   0.368  0.6492  0.1750  0.1756
 1019MOL0     C34431  10.408  10.590   0.476  1.3570  0.3865 -0.5207
 1019MOL0     C34432  10.517  10.500   0.489 -1.2612 -1.0643 -0.0888
 1019MOL0     C34433  10.541  10.397   0.402 -0.4573 -0.2571  0.1856
 1019MOL0     O34434  10.643  10.304   0.422  0.7171 -0.4017 -0.3413
 1019MOL0     C34435  10.747  10.331   0.515 -0.1269 -0.5730 -0.3555
 1019MOL0     C34436  10.871  10.252   0.491 -0.0573 -0.0697  0.6220
 1019MOL0     C34437  10.894  10.242   0.346  0.8283 -0.9976  0.9283
 1019MOL0     C34438  11.037  10.206   0.307 -0.0255  0.8178 -0.1866
 1019MOL0     C34439  11.089  10.281   0.195  0.2906  0.2201  0.3036
 1019MOL0     C34440  11.130  10.337   0.095  1.0569  0.1908 -0.1300
 1019MOL0     C34441  10.458  10.387   0.289  0.2057  0.4876  0.3155
 1019MOL0     C34442  10.348  10.481   0.270  0.1690  0.1528  0.2910
 1019MOL0     H34443   9.858  10.605   0.387 -1.1627 -1.5804 -0.2153
 1019MOL0     H34444   9.672  10.745   0.342  1.5527 -0.2861  2.2753
 1019MOL0     H34445   9.580  10.836   0.072  4.7064 -2.9941 -2.6314
 1019MOL0     H34446   9.672  10.938  -0.025 -1.9507  0.1681 -1.1837
 1019MOL0     H34447   9.447  10.999  -0.040  1.5715 -1.7311  0.4405
 1019MOL0     H34448   9.529  11.126   0.048  1.2695 -0.1473  2.5045
 1019MOL0     H34449   9.312  11.086   0.152 -1.7114 -1.8145 -5.2213
 1019MOL0     H34450   9.438  11.035   0.260  1.3129 -2.5898  1.3146
 1019MOL0     H34451   9.410  10.809   0.214  2.7977  1.3137 -2.9821
 1019MOL0     H34452   9.245  10.867   0.247 -2.0469 -0.2855 -2.1977
 1019MOL0     H34453   9.342  10.786  -0.021 -1.8625 -3.1573 -2.0560
 1019MOL0     H34454   9.218  10.907   0.012  0.3882 -1.1308 -2.6441
 1019MOL0     H34455   9.058  10.729   0.101 -1.4929 -1.0643 -2.4143
 1019MOL0     H34456   9.205  10.629   0.124 -1.3881 -0.5518  0.4575
 1019MOL0     H34457   9.046  10.732  -0.126 -2.6037 -0.6454  2.6025
 1019MOL0     H34458   9.206  10.641  -0.140  0.8678 -0.2603  0.5871
 1019MOL0     H34459   8.940  10.538  -0.012 -0.9325  0.4308  0.2759
 1019MOL0     H34460   9.079  10.450  -0.061 -2.8673 -0.1203  2.1914
 1019MOL0     H34461   8.796  10.653  -0.269 -1.7378 -1.1164 -0.8507
 1019MOL0     H34462   8.817  10.516  -0.640 -0.2702  2.2032 -0.9734
 1019MOL0     H34463   8.781  10.667  -0.552  1.5906  0.0864  1.3121
 1019MOL0     H34464   8.611  10.575  -0.423  1.4730  0.5383 -0.1234
 1019MOL0     H34465   8.643  10.410  -0.465 -3.0173  0.6686  1.6435
 1019MOL0     H34466   8.574  10.585  -0.690  2.4619  0.1388  1.3819
 1019MOL0     H34467   8.586  10.411  -0.687 -0.3761  0.8325 -0.5797
 1019MOL0     H34468   8.356  10.431  -0.669 -0.8663 -1.8653  1.6231
 1019MOL0     H34469   8.366  10.586  -0.586  0.7537 -0.9055  1.0699
 1019MOL0     H34470   8.331  10.164  -0.487  1.6519  2.0082  3.6171
 1019MOL0     H34471   8.117  10.074  -0.451 -2.5438  0.9716 -0.6855
 1019MOL0     H34472   7.548  10.354  -0.419  1.6711 -0.9810 -0.7877
 1019MOL0     H34473   7.340  10.286  -0.320  1.2841  2.3297  0.3261
 1019MOL0     H34474   7.354  10.289   0.080 -0.7543 -0.5014  2.9838
 1019MOL0     H34475   7.355  10.109   0.106 -1.7454 -2.4684 -0.4505
 1019MOL0     H34476   7.109  10.139   0.009  1.8467 -0.2337 -0.6016
 1019MOL0     H34477   7.110  10.302   0.056  0.5290 -1.5021 -5.8218
 1019MOL0     H34478   7.213  10.216   0.293 -2.1329 -0.9479  1.9245
 1019MOL0     H34479   7.172  10.059   0.238  0.3833 -0.3091  0.1607
 1019MOL0     H34480   6.953  10.284   0.250  0.6651  1.0055 -1.1293
 1019MOL0     H34481   6.937  10.111   0.269 -0.4468  0.5235 -1.0561
 1019MOL0     H34482   6.900  10.258   0.463  0.1020  3.4690 -3.5000
 1019MOL0     H34483   7.086  10.270   0.459  0.9232 -1.6107 -1.6577
 1019MOL0     H34484   7.052  10.108   0.630  1.1048 -0.8894  0.0090
 1019MOL0     H34485   7.106  10.026   0.477 -1.3822 -0.6634 -0.4823
 1019MOL0     H34486   6.823  10.058   0.579  0.1675 -0.2225  1.1069
 1019MOL0     H34487   6.870   9.956   0.432 -0.2270 -2.9735  0.5051
 1019MOL0     H34488   6.931   9.890   0.719  0.2599  1.7550 -0.5387
 1019MOL0     H34489   6.990   9.797   0.577  1.7048 -0.7323  1.8989
 1019MOL0     H34490   7.549  10.111   0.014 -3.8445 -0.5489  0.4920
 1019MOL0     H34491   7.767  10.172  -0.090  1.5289  4.5318 -0.9367
 1019MOL0     H34492   7.946  10.468  -0.390 -0.2286 -1.1346 -0.3200
 1019MOL0     H34493   8.188  10.560  -0.445 -0.3328  0.1248 -1.2344
 1019MOL0     H34494   9.920  11.022   0.129  0.8010 -0.5820 -0.1864
 1019MOL0     H34495  10.120  10.863   0.163  0.3994 -0.3758 -0.7489
 1019MOL0     H34496  10.383  10.660   0.555 -0.4596 -0.8653  0.0819
 1019MOL0     H34497  10.585  10.518   0.571 -0.2660 -1.1284 -0.8853
 1019MOL0     H34498  10.718  10.308   0.618 -0.2508 -1.0053 -0.4841
 1019MOL0     H34499  10.775  10.436   0.505 -4.1418  0.5801 -1.1671
 1019MOL0     H34500  10.955  10.310   0.530 -0.4666  1.1570 -0.2760
 1019MOL0     H34501  10.869  10.153   0.539 -3.8425  0.0175  0.9649
 1019MOL0     H34502  10.865  10.341   0.309 -0.1896 -0.5271  2.8491
 1019MOL0     H34503  10.824  10.171   0.303 -0.6724  0.4294  0.9372
 1019MOL0     H34504  11.098  10.241   0.391  3.1576 -0.6519 -1.7052
 1019MOL0     H34505  11.058  10.100   0.291  1.3842  1.4217 -3.0388
 1019MOL0     H34506  11.165  10.388   0.007 -0.0137  2.3486  0.6348
 1019MOL0     H34507  10.479  10.310   0.215 -2.6316  1.3692 -1.6201
 1019MOL0     H34508  10.280  10.472   0.186  0.1424 -1.8923  0.4727
 1020MOL0     O34509   4.970   9.917   5.875  0.3994 -0.0164 -0.1380
 1020MOL0     C34510   5.050   9.970   5.952 -0.8327  0.6058  0.9452
 1020MOL0     O34511   5.033  10.092   6.019 -0.2317  0.3980 -0.0897
 1020MOL0     C34512   4.902  10.136   6.036  0.1273  0.8525 -0.3759
 1020MOL0     C34513   4.867  10.269   6.022  0.5483  0.3556 -0.2853
 1020MOL0     C34514   4.738  10.306   6.062 -0.0239  0.5214 -1.0571
 1020MOL0     C34515   4.641  10.217   6.113  0.1180  0.8960  0.2425
 1020MOL0     O34516   4.507  10.265   6.149  0.0124  0.3907  0.2821
 1020MOL0     C34517   4.380  10.179   6.139 -0.6741 -0.7710  0.3519
 1020MOL0     C34518   4.275  10.284   6.125  0.5421 -0.2344 -0.7139
 1020MOL0     C34519   4.133  10.243   6.147  0.5215 -0.0208  0.5053
 1020MOL0     C34520   4.103  10.156   6.270 -0.3564 -0.8208 -0.7541
 1020MOL0     C34521   3.950  10.137   6.298 -0.6800  0.4053  0.2520
 1020MOL0     C34522   3.922  10.023   6.391 -0.9717 -0.3000  0.1502
 1020MOL0     C34523   4.011  10.017   6.519  1.1155 -1.1599 -0.1821
 1020MOL0     C34524   3.976  10.128   6.615 -0.7379  0.3003 -0.3346
 1020MOL0     N34525   3.844  10.117   6.665  0.7223  0.7170 -0.3055
 1020MOL0     C34526   3.754  10.215   6.690  0.7962  0.3511  0.6152
 1020MOL0     C34527   3.654  10.152   6.762 -0.5454 -0.0727  0.4148
 1020MOL0     C34528   3.546  10.237   6.835  0.0100 -0.4494 -0.4039
 1020MOL0     C34529   3.521  10.383   6.776  0.3410  0.6313 -0.2452
 1020MOL0     C34530   3.437  10.384   6.646 -0.0304 -1.3138  0.4248
 1020MOL0     C34531   3.411  10.521   6.586  0.6646 -0.5803  0.5092
 1020MOL0     O34532   3.301  10.504   6.494  0.6066  0.4320 -0.1049
 1020MOL0     C34533   3.178  10.544   6.517 -0.1446 -0.5447  1.0086
 1020MOL0     C34534   3.151  10.646   6.603  0.5650  0.3952  0.2759
 1020MOL0     C34535   3.020  10.695   6.615  0.0544  0.0011  0.2737
 1020MOL0     C34536   2.915  10.651   6.528  0.0084  0.5458 -1.2024
 1020MOL0     C34537   2.775  10.697   6.528  0.5141  0.0074 -0.2531
 1020MOL0     O34538   2.774  10.832   6.559 -0.2695 -0.2431  1.2274
 1020MOL0     C34539   2.653  10.909   6.550 -0.3253  0.5093 -0.4003
 1020MOL0     C34540   2.568  10.909   6.439 -0.2154 -0.3067 -0.0999
 1020MOL0     C34541   2.456  10.990   6.438  0.2216  0.2809  0.4825
 1020MOL0     C34542   2.419  11.056   6.559  0.6884  0.0318 -0.8904
 1020MOL0     O34543   2.307  11.139   6.565 -0.2257  0.1056 -0.0751
 1020MOL0     C34544   2.253  11.190   6.448 -0.4617 -0.4328 -0.0631
 1020MOL0     C34545   2.146  11.097   6.381  0.6099  0.3426 -0.1061
 1020MOL0     C34546   2.127  11.127   6.230 -0.7557 -0.9813  0.6605
 1020MOL0     C34547   2.065  11.002   6.160  0.4221  0.2241  0.3574
 1020MOL0     C34548   2.075  11.012   6.005  1.1082 -0.1010 -0.4570
 1020MOL0     C34549   2.229  11.043   5.961  0.7129  0.0806  0.3300
 1020MOL0     C34550   2.343  10.956   6.017 -0.8201 -0.0725  0.3433
 1020MOL0     C34551   2.320  10.803   5.976 -0.7593  0.1518 -0.2609
 1020MOL0    Cl34552   2.483  10.720   5.957 -0.1500 -0.0437 -0.0345
 1020MOL0     C34553   2.496  11.052   6.670 -0.1130 -1.0330 -0.2499
 1020MOL0     C34554   2.620  10.984   6.661  0.4276  0.4798 -0.1070
 1020MOL0     O34555   2.675  10.627   6.494  0.2653 -0.8388  0.4225
 1020MOL0     C34556   2.949  10.541   6.449  1.5709 -0.0488  0.0477
 1020MOL0     C34557   3.071  10.488   6.442 -0.0752  0.8898 -0.0068
 1020MOL0     N34558   3.680  10.012   6.770 -0.1395  0.1019  0.6085
 1020MOL0     N34559   3.792   9.992   6.708  0.8273 -0.2827  0.3275
 1020MOL0     C34560   4.682  10.085   6.135 -0.0752 -0.5743 -0.0036
 1020MOL0     C34561   4.809  10.047   6.097 -0.4324 -0.8505  0.4551
 1020MOL0     C34562   5.176   9.897   5.989  0.1329  0.7072  0.3265
 1020MOL0     C34563   5.242   9.824   5.888  0.0895  0.1319 -0.1721
 1020MOL0     C34564   5.362   9.762   5.915 -0.7688 -0.8545  0.5646
 1020MOL0     C34565   5.412   9.770   6.048 -0.1165  0.0014 -0.2334
 1020MOL0     O34566   5.527   9.700   6.088 -0.4037 -0.1121 -1.1669
 1020MOL0     C34567   5.614   9.653   5.979  0.8492  0.3878  0.3512
 1020MOL0     C34568   5.735   9.595   6.057 -0.9001 -0.5375 -0.0222
 1020MOL0     C34569   5.857   9.555   5.968 -0.4639 -0.3080 -0.1305
 1020MOL0     C34570   5.981   9.547   6.052  0.3164 -0.5207  0.7318
 1020MOL0     C34571   5.985   9.424   6.122 -0.3381 -0.0863 -0.0441
 1020MOL0     C34572   5.979   9.317   6.175 -0.0713  0.0921 -0.1803
 1020MOL0     C34573   5.337   9.820   6.150  0.1454 -0.3432  0.5119
 1020MOL0     C34574   5.224   9.894   6.122  0.4047  0.2374 -0.7034
 1020MOL0     H34575   4.946  10.339   5.997  1.3302  0.4605  2.1603
 1020MOL0     H34576   4.701  10.407   6.074 -0.7497 -0.0043  1.7957
 1020MOL0     H34577   4.373  10.121   6.231  2.7123 -0.5340  0.8614
 1020MOL0     H34578   4.395  10.118   6.050  2.0559  1.0307 -0.5665
 1020MOL0     H34579   4.272  10.325   6.024 -3.9280 -0.7018 -0.9738
 1020MOL0     H34580   4.305  10.363   6.194  2.6991  0.4101 -2.2882
 1020MOL0     H34581   4.107  10.186   6.057  2.6101 -0.4400  0.0984
 1020MOL0     H34582   4.070  10.331   6.156 -1.3495 -1.0943 -1.2166
 1020MOL0     H34583   4.162  10.064   6.267 -0.1683 -0.7920  0.8707
 1020MOL0     H34584   4.153  10.211   6.350 -0.4345  1.7403 -2.3447
 1020MOL0     H34585   3.907  10.118   6.200 -0.6033  0.8398  0.1332
 1020MOL0     H34586   3.910  10.228   6.343 -2.9331  0.3321 -1.4493
 1020MOL0     H34587   3.963   9.937   6.337  1.7498  0.3629  0.9919
 1020MOL0     H34588   3.815  10.008   6.407 -1.6333 -0.4396 -3.6168
 1020MOL0     H34589   3.986   9.925   6.573  0.4516  0.1259  1.8090
 1020MOL0     H34590   4.119  10.025   6.503  1.2117  0.5702  1.0699
 1020MOL0     H34591   3.984  10.224   6.562 -0.8938  1.1332  1.0813
 1020MOL0     H34592   4.034  10.112   6.706 -1.7276 -0.5413  0.1608
 1020MOL0     H34593   3.763  10.321   6.667 -2.5123 -0.0013 -3.3234
 1020MOL0     H34594   3.576  10.253   6.939 -0.5886  0.2408 -0.3318
 1020MOL0     H34595   3.452  10.180   6.835  0.2337 -0.8255  0.0969
 1020MOL0     H34596   3.617  10.432   6.759  1.0350  0.4823  2.7843
 1020MOL0     H34597   3.459  10.435   6.850  2.6514  1.0816  1.4704
 1020MOL0     H34598   3.479  10.313   6.573 -2.3657 -0.5976 -1.7864
 1020MOL0     H34599   3.343  10.337   6.676 -2.9658  2.4331 -1.8699
 1020MOL0     H34600   3.499  10.560   6.534  0.9224 -0.6538  0.8820
 1020MOL0     H34601   3.404  10.591   6.670 -3.0752  0.8913 -0.8228
 1020MOL0     H34602   3.222  10.702   6.663  0.0979  2.8143 -1.3043
 1020MOL0     H34603   3.003  10.776   6.684  1.5312  1.0481 -0.5381
 1020MOL0     H34604   2.602  10.845   6.359 -0.1269  0.5692 -0.7789
 1020MOL0     H34605   2.395  10.996   6.349 -0.7857 -1.8164  0.9713
 1020MOL0     H34606   2.336  11.210   6.380  0.3357 -1.8717  0.4608
 1020MOL0     H34607   2.205  11.287   6.457 -1.6992 -0.7521 -2.3894
 1020MOL0     H34608   2.052  11.104   6.437  1.0686  0.4710  0.6606
 1020MOL0     H34609   2.179  10.993   6.385  1.1589  0.4825 -0.9297
 1020MOL0     H34610   2.225  11.156   6.191 -0.4761  2.0753  3.2002
 1020MOL0     H34611   2.060  11.212   6.216  2.6033  1.6000 -1.2508
 1020MOL0     H34612   2.100  10.905   6.194  0.3132 -1.4742 -3.7877
 1020MOL0     H34613   1.966  11.011   6.205  1.2015  1.1582  1.9946
 1020MOL0     H34614   2.022  11.100   5.968 -2.0357 -1.9942 -0.7900
 1020MOL0     H34615   2.027  10.927   5.956  0.2269 -0.4194  0.8910
 1020MOL0     H34616   2.246  11.148   5.986 -0.8189  0.0234  1.8230
 1020MOL0     H34617   2.217  11.047   5.853  0.6730  2.5685  0.3789
 1020MOL0     H34618   2.437  10.985   5.968 -2.4326 -1.0083 -3.7109
 1020MOL0     H34619   2.336  10.949   6.126 -0.6530  0.0648  0.3619
 1020MOL0     H34620   2.276  10.782   5.877  0.8922  0.6862 -1.1460
 1020MOL0     H34621   2.255  10.752   6.048  0.6912 -1.8181 -0.2582
 1020MOL0     H34622   2.457  11.093   6.763 -3.2569 -0.2101 -1.7734
 1020MOL0     H34623   2.667  10.974   6.758 -1.5777  2.3445  1.1406
 1020MOL0     H34624   2.873  10.488   6.392  0.5742  0.3844  0.9403
 1020MOL0     H34625   3.085  10.416   6.362 -3.0354  0.0386  0.1416
 1020MOL0     H34626   4.616  10.014   6.182 -1.1343  1.8190  2.4433
 1020MOL0     H34627   4.837   9.942   6.110 -1.6535 -1.0741  1.4722
 1020MOL0     H34628   5.193   9.815   5.791 -1.9700  1.3746  0.6881
 1020MOL0     H34629   5.414   9.723   5.827 -1.0741  0.1460 -0.0675
 1020MOL0     H34630   5.639   9.731   5.906 -1.2038 -0.3459 -1.2366
 1020MOL0     H34631   5.570   9.576   5.915 -0.5086  1.9958 -0.7585
 1020MOL0     H34632   5.776   9.676   6.118 -0.8342  1.4786 -2.5523
 1020MOL0     H34633   5.711   9.507   6.117  2.0623 -2.8984 -1.9760
 1020MOL0     H34634   5.866   9.645   5.907  0.9026  0.4737  1.1594
 1020MOL0     H34635   5.842   9.472   5.899  0.7038  0.9716 -1.9988
 1020MOL0     H34636   6.068   9.555   5.986 -2.0121  2.9668 -2.3713
 1020MOL0     H34637   5.973   9.629   6.124 -1.4178  0.6309 -0.6900
 1020MOL0     H34638   5.955   9.225   6.224  0.3930  0.5852  1.0044
 1020MOL0     H34639   5.375   9.819   6.252  1.5626  2.4053  0.1011
 1020MOL0     H34640   5.169   9.931   6.207  0.4207 -1.3537  0.0397
 1021MOL0     O34641   8.317   1.745   1.464 -0.3771  0.4774 -0.3221
 1021MOL0     C34642   8.414   1.715   1.396 -0.1721 -0.8746  0.2270
 1021MOL0     O34643   8.415   1.709   1.255  0.1954 -1.0771 -0.2243
 1021MOL0     C34644   8.299   1.743   1.192  0.4037  0.1065  0.8199
 1021MOL0     C34645   8.203   1.848   1.220 -0.3413 -0.3667 -0.1394
 1021MOL0     C34646   8.096   1.858   1.132 -0.3828  0.3367 -0.3470
 1021MOL0     C34647   8.082   1.773   1.018  0.1921 -0.1401  0.2366
 1021MOL0     O34648   7.968   1.797   0.946 -0.1772  0.2992 -0.4928
 1021MOL0     C34649   7.994   1.833   0.814  0.2240 -0.4491 -1.5871
 1021MOL0     C34650   8.030   1.979   0.811 -0.0881 -0.9143  0.3532
 1021MOL0     C34651   8.008   2.047   0.673  0.2090 -0.6581  0.0775
 1021MOL0     C34652   8.077   2.185   0.655  0.2230  0.4377 -0.2219
 1021MOL0     C34653   8.034   2.245   0.521 -0.2594 -0.1833 -0.3404
 1021MOL0     C34654   7.909   2.334   0.515  0.5221  1.3657 -0.9040
 1021MOL0     C34655   7.875   2.378   0.372  0.1282  1.0062 -0.5269
 1021MOL0     C34656   7.732   2.438   0.370  0.1039  0.0183  0.9365
 1021MOL0     N34657   7.697   2.464   0.229 -0.0999  0.4538  0.0051
 1021MOL0     C34658   7.660   2.368   0.140  0.4713 -0.4468 -0.8260
 1021MOL0     C34659   7.674   2.423   0.020 -0.3269  0.8803 -0.0444
 1021MOL0     C34660   7.659   2.349  -0.108  0.3651  0.1666  0.0972
 1021MOL0     C34661   7.577   2.415  -0.216  0.0533 -0.5555  0.2521
 1021MOL0     C34662   7.539   2.320  -0.332 -0.4965  0.0323 -0.1117
 1021MOL0     C34663   7.652   2.336  -0.435 -0.5349  1.6339 -0.9397
 1021MOL0     O34664   7.628   2.455  -0.510  0.3766 -0.2592  0.2879
 1021MOL0     C34665   7.664   2.450  -0.636  1.0216 -0.8416  0.4840
 1021MOL0     C34666   7.609   2.562  -0.710  0.2421  0.4470  0.1149
 1021MOL0     C34667   7.634   2.569  -0.849 -0.5915  0.5200 -0.0207
 1021MOL0     C34668   7.711   2.472  -0.910 -0.4077  0.7877  0.0266
 1021MOL0     C34669   7.735   2.474  -1.054  0.9796  0.1759 -0.3680
 1021MOL0     O34670   7.809   2.379  -1.107 -0.1390  0.3452  0.5994
 1021MOL0     C34671   7.849   2.396  -1.238 -0.5496 -0.6801  0.3593
 1021MOL0     C34672   7.788   2.323  -1.337  0.6925 -0.0764 -0.8788
 1021MOL0     C34673   7.843   2.309  -1.461  0.5643  0.2431 -0.4203
 1021MOL0     C34674   7.954   2.382  -1.500  0.5853  0.9069 -0.3794
 1021MOL0     O34675   8.004   2.402  -1.627  0.2908  0.1039  0.1107
 1021MOL0     C34676   7.927   2.499  -1.697  0.1876  0.1509 -0.1491
 1021MOL0     C34677   7.891   2.456  -1.837  0.7710 -1.3397  0.8121
 1021MOL0     C34678   7.831   2.578  -1.901 -0.4291  0.3455  0.5384
 1021MOL0     C34679   7.942   2.667  -1.964  0.0037  0.3067  0.3218
 1021MOL0     C34680   7.875   2.758  -2.080  0.1849  0.6811 -0.5924
 1021MOL0     C34681   7.979   2.858  -2.139  0.3458 -0.8963  0.8718
 1021MOL0     C34682   8.098   2.796  -2.214 -1.3062 -0.6862  0.1378
 1021MOL0     C34683   8.081   2.748  -2.355 -0.2424 -0.1603 -0.0384
 1021MOL0    Cl34684   8.034   2.892  -2.449 -0.0627  0.6395  0.0246
 1021MOL0     C34685   8.025   2.452  -1.404  0.1465  0.2376 -0.5611
 1021MOL0     C34686   7.969   2.463  -1.272 -1.0024  0.6950  0.5241
 1021MOL0     O34687   7.699   2.581  -1.111  0.2700  0.4501  0.0281
 1021MOL0     C34688   7.783   2.376  -0.826  0.2506 -0.6229  0.7285
 1021MOL0     C34689   7.761   2.369  -0.694  0.5389 -0.6394  0.8764
 1021MOL0     N34690   7.734   2.550   0.039  0.2530  0.4776  0.3318
 1021MOL0     N34691   7.742   2.573   0.161  0.0895  0.7910  0.0675
 1021MOL0     C34692   8.176   1.683   0.992  0.7725 -0.5650  0.5651
 1021MOL0     C34693   8.286   1.671   1.072 -0.3969  0.1885  0.1799
 1021MOL0     C34694   8.531   1.660   1.469  0.0066 -1.0003  0.8749
 1021MOL0     C34695   8.532   1.634   1.601  0.3907  0.4669  0.0359
 1021MOL0     C34696   8.639   1.572   1.657  0.1292 -0.5495 -0.6396
 1021MOL0     C34697   8.740   1.528   1.579  0.8036 -0.2978 -0.3761
 1021MOL0     O34698   8.849   1.457   1.637  0.0262 -0.4174  0.4538
 1021MOL0     C34699   8.890   1.349   1.555  0.0739  0.3069  0.6538
 1021MOL0     C34700   8.938   1.234   1.646 -0.6735  0.4002 -0.5055
 1021MOL0     C34701   8.831   1.170   1.736  0.4736 -0.0306  0.3408
 1021MOL0     C34702   8.733   1.075   1.657 -0.7041  0.3502  1.3010
 1021MOL0     C34703   8.595   1.093   1.700  0.0934  0.0708 -0.3186
 1021MOL0     C34704   8.480   1.105   1.738  0.6803  0.1730 -0.2118
 1021MOL0     C34705   8.743   1.561   1.449 -0.0143 -0.1123  0.3129
 1021MOL0     C34706   8.641   1.624   1.386 -0.0059 -0.1067 -0.4326
 1021MOL0     H34707   8.217   1.910   1.308  1.8327 -0.6002 -0.2469
 1021MOL0     H34708   8.035   1.948   1.140 -0.4098  0.2412  0.7985
 1021MOL0     H34709   7.894   1.826   0.768 -1.0718  0.3691  0.9522
 1021MOL0     H34710   8.068   1.781   0.751  1.0230  0.2052 -1.1996
 1021MOL0     H34711   8.139   1.979   0.824 -0.2184 -1.2175  1.6181
 1021MOL0     H34712   7.986   2.037   0.893  1.0827  1.3553 -0.5558
 1021MOL0     H34713   7.905   2.066   0.642  0.6337  1.4962 -0.2030
 1021MOL0     H34714   8.045   1.978   0.598 -1.0726  2.3989 -3.7305
 1021MOL0     H34715   8.049   2.243   0.743  0.1887 -1.7418  1.2783
 1021MOL0     H34716   8.185   2.174   0.658  0.1443 -1.8461 -2.2596
 1021MOL0     H34717   8.031   2.176   0.436 -2.1952 -0.3578 -0.1708
 1021MOL0     H34718   8.115   2.319   0.520  0.5796 -1.0067  1.7816
 1021MOL0     H34719   7.917   2.416   0.587 -1.0629 -1.7347  3.2062
 1021MOL0     H34720   7.818   2.283   0.548 -0.2174  2.3232 -1.4230
 1021MOL0     H34721   7.956   2.445   0.341  1.2960 -0.6332 -1.1505
 1021MOL0     H34722   7.873   2.288   0.309 -2.5191  1.3591 -1.0787
 1021MOL0     H34723   7.726   2.532   0.427 -3.3268 -0.8343  2.2483
 1021MOL0     H34724   7.658   2.369   0.410 -0.6482 -0.9229 -1.8296
 1021MOL0     H34725   7.628   2.267   0.161 -0.2221 -0.2877 -1.0902
 1021MOL0     H34726   7.621   2.251  -0.080  1.6295 -0.2791  0.3575
 1021MOL0     H34727   7.755   2.311  -0.144 -0.6751 -1.9837 -0.5499
 1021MOL0     H34728   7.641   2.492  -0.259 -0.3153 -1.3831 -1.9427
 1021MOL0     H34729   7.492   2.468  -0.172  2.1015  0.9358  2.6707
 1021MOL0     H34730   7.523   2.213  -0.314 -0.1584 -0.0466 -0.2508
 1021MOL0     H34731   7.451   2.358  -0.384 -0.3141  4.6483  2.4358
 1021MOL0     H34732   7.659   2.248  -0.499 -1.0487  1.6258 -0.9931
 1021MOL0     H34733   7.742   2.353  -0.375  0.0764 -2.2428 -0.4605
 1021MOL0     H34734   7.556   2.643  -0.662  0.2685  0.7892 -0.4301
 1021MOL0     H34735   7.590   2.655  -0.900 -2.0023  0.0540  0.3795
 1021MOL0     H34736   7.695   2.278  -1.303  1.0474 -0.0771  0.1271
 1021MOL0     H34737   7.801   2.245  -1.538  2.4679  1.4047 -2.5376
 1021MOL0     H34738   7.982   2.593  -1.690  0.5317 -0.1036  0.6190
 1021MOL0     H34739   7.837   2.519  -1.638 -0.1650  1.6978 -1.1530
 1021MOL0     H34740   7.809   2.383  -1.832  1.5370 -2.3334 -0.3221
 1021MOL0     H34741   7.974   2.415  -1.896  1.4935 -0.9601  1.5426
 1021MOL0     H34742   7.758   2.629  -1.837 -1.8309 -1.2805  0.3194
 1021MOL0     H34743   7.773   2.541  -1.986 -2.9537 -0.8128  2.6063
 1021MOL0     H34744   7.983   2.733  -1.887 -1.6657 -0.3666  1.8572
 1021MOL0     H34745   8.013   2.598  -2.012  1.0902  0.7490  1.2650
 1021MOL0     H34746   7.793   2.818  -2.039  0.5798  1.9772 -1.6370
 1021MOL0     H34747   7.832   2.700  -2.162  1.6575  1.8391 -2.2461
 1021MOL0     H34748   8.012   2.928  -2.061 -0.4378 -1.8707  2.1067
 1021MOL0     H34749   7.920   2.928  -2.200 -1.3737  3.0912  6.2933
 1021MOL0     H34750   8.177   2.871  -2.219 -2.4586  0.4774 -3.2108
 1021MOL0     H34751   8.128   2.709  -2.155 -0.7951 -1.5950 -1.4257
 1021MOL0     H34752   7.996   2.680  -2.366  0.4204 -0.6328 -3.3253
 1021MOL0     H34753   8.171   2.701  -2.397 -0.5745 -0.5636 -0.3028
 1021MOL0     H34754   8.117   2.496  -1.440  1.2274 -1.0685  0.4728
 1021MOL0     H34755   8.038   2.506  -1.201  0.9711 -1.3830 -0.0085
 1021MOL0     H34756   7.855   2.314  -0.877  0.2380  1.2966 -1.7879
 1021MOL0     H34757   7.815   2.292  -0.640  0.7119 -0.9720  0.2361
 1021MOL0     H34758   8.154   1.618   0.907 -3.0779 -1.3931  2.0081
 1021MOL0     H34759   8.368   1.604   1.048 -1.3189 -0.5435 -1.0413
 1021MOL0     H34760   8.446   1.658   1.662 -1.0790 -1.4793 -1.1698
 1021MOL0     H34761   8.637   1.549   1.763  3.0192 -3.1467 -0.9954
 1021MOL0     H34762   8.975   1.383   1.495  0.1772  1.8764  1.6350
 1021MOL0     H34763   8.812   1.302   1.494 -1.1695  1.0912  1.5840
 1021MOL0     H34764   8.982   1.156   1.583  1.0203 -1.2160  2.4589
 1021MOL0     H34765   9.018   1.282   1.702 -2.4685  2.3996  0.4849
 1021MOL0     H34766   8.773   1.251   1.781 -2.3971 -2.1215  0.6265
 1021MOL0     H34767   8.881   1.116   1.817  0.8660  0.0121  0.1316
 1021MOL0     H34768   8.725   1.105   1.552 -0.9615  0.5718  1.3816
 1021MOL0     H34769   8.779   0.976   1.650 -2.3324 -0.3686  0.2972
 1021MOL0     H34770   8.379   1.126   1.764  0.2055  0.0020 -1.8318
 1021MOL0     H34771   8.836   1.536   1.399 -0.7501  2.6454 -2.7949
 1021MOL0     H34772   8.646   1.647   1.279  1.8535  4.2027  0.3489
 1022MOL0     O34773   8.574   0.517   1.826  0.5260 -0.0688  0.0284
 1022MOL0     C34774   8.654   0.491   1.734  0.4610 -0.1237 -0.9810
 1022MOL0     O34775   8.642   0.393   1.644 -0.0127  0.5556  0.7663
 1022MOL0     C34776   8.525   0.313   1.634  0.0543 -0.4331  0.4492
 1022MOL0     C34777   8.392   0.359   1.652  0.3880 -0.0693  0.4491
 1022MOL0     C34778   8.281   0.268   1.641  0.3178  0.8172 -0.0519
 1022MOL0     C34779   8.304   0.132   1.617  0.6743  0.5856  0.4020
 1022MOL0     O34780   8.208   0.034   1.589  0.5232  0.5731  0.0941
 1022MOL0     C34781   8.070   0.070   1.622  0.0644  0.4319 -0.6633
 1022MOL0     C34782   7.974  -0.050   1.617  0.8479  0.1414 -0.4658
 1022MOL0     C34783   7.848  -0.024   1.702 -0.8428 -0.6731 -0.0202
 1022MOL0     C34784   7.725  -0.121   1.683  0.0684  0.2507 -0.2688
 1022MOL0     C34785   7.607  -0.052   1.750 -0.1952 -0.5264  0.2551
 1022MOL0     C34786   7.478  -0.112   1.692 -1.4784  0.4692 -0.3057
 1022MOL0     C34787   7.368  -0.047   1.779  0.1048 -0.8454  0.1617
 1022MOL0     C34788   7.219  -0.093   1.743 -0.3766 -0.6263  1.0316
 1022MOL0     N34789   7.214  -0.236   1.727  0.5718 -0.0378  0.6443
 1022MOL0     C34790   7.213  -0.299   1.606 -0.2225 -0.0672 -0.5109
 1022MOL0     C34791   7.184  -0.429   1.636 -0.5423 -0.6063  0.5121
 1022MOL0     C34792   7.184  -0.533   1.534 -0.2791  0.4247  0.2504
 1022MOL0     C34793   7.118  -0.481   1.397 -0.7044  0.3742 -0.2404
 1022MOL0     C34794   7.069  -0.600   1.298  0.5802 -0.1527  0.6017
 1022MOL0     C34795   7.195  -0.659   1.224 -0.2725  0.1128 -0.1336
 1022MOL0     O34796   7.144  -0.727   1.104 -0.1635  1.4712 -0.0494
 1022MOL0     C34797   7.245  -0.787   1.026  0.2363 -0.1138  0.8544
 1022MOL0     C34798   7.374  -0.807   1.066  0.3457 -0.1661 -0.1486
 1022MOL0     C34799   7.468  -0.862   0.982  0.5618  0.3933  0.3747
 1022MOL0     C34800   7.440  -0.891   0.853  0.5713  0.1845  0.0703
 1022MOL0     C34801   7.532  -0.954   0.759 -0.1596  0.0576 -0.2838
 1022MOL0     O34802   7.480  -0.973   0.631  0.0529  0.4243  0.0697
 1022MOL0     C34803   7.561  -1.016   0.531  0.2732 -0.8779  0.7692
 1022MOL0     C34804   7.640  -1.128   0.543 -0.1948 -0.4940  0.4225
 1022MOL0     C34805   7.702  -1.179   0.430  0.0099 -0.4664  0.7923
 1022MOL0     C34806   7.698  -1.114   0.305  0.4925  0.1771  0.2155
 1022MOL0     O34807   7.782  -1.159   0.209 -0.4202 -0.1625  0.0046
 1022MOL0     C34808   7.855  -1.065   0.143 -0.8877  0.5153 -0.2480
 1022MOL0     C34809   7.987  -1.124   0.086 -0.2314 -0.1796  0.6410
 1022MOL0     C34810   8.063  -1.186   0.200 -0.0535  0.0547  1.0422
 1022MOL0     C34811   8.189  -1.268   0.158  0.8681  0.2325  0.9125
 1022MOL0     C34812   8.300  -1.194   0.084  1.3715  0.4018  0.6679
 1022MOL0     C34813   8.436  -1.282   0.087  0.0216  0.9687 -0.3632
 1022MOL0     C34814   8.543  -1.212   0.000 -0.0672  0.4768 -1.2099
 1022MOL0     C34815   8.544  -1.059   0.033 -1.0168  0.5669 -0.2510
 1022MOL0    Cl34816   8.689  -0.984  -0.049 -0.0701  0.1167  0.1725
 1022MOL0     C34817   7.618  -1.001   0.300 -0.3965 -0.0176  0.4515
 1022MOL0     C34818   7.549  -0.955   0.408  0.2902  0.7117 -1.2485
 1022MOL0     O34819   7.648  -0.981   0.793  0.0901  0.3968 -0.0895
 1022MOL0     C34820   7.313  -0.854   0.806  0.3738 -0.9137 -0.5696
 1022MOL0     C34821   7.211  -0.815   0.891 -0.5020  0.0783 -0.7323
 1022MOL0     N34822   7.163  -0.437   1.772  0.3156  0.3096 -0.9179
 1022MOL0     N34823   7.189  -0.332   1.827 -1.2945  0.5592  0.5434
 1022MOL0     C34824   8.435   0.091   1.589  0.2901  0.7535 -0.7490
 1022MOL0     C34825   8.544   0.180   1.595 -0.6248 -0.4070 -0.3911
 1022MOL0     C34826   8.774   0.577   1.720 -0.8019  0.4546 -0.2217
 1022MOL0     C34827   8.793   0.675   1.821 -0.1348 -0.0168 -0.2324
 1022MOL0     C34828   8.900   0.762   1.818  0.2599 -0.2602 -0.0641
 1022MOL0     C34829   9.010   0.746   1.738  0.3816  0.0176 -0.1506
 1022MOL0     O34830   9.118   0.828   1.751 -0.0511 -0.2801  0.1909
 1022MOL0     C34831   9.151   0.881   1.625 -0.8783 -0.2200 -0.0517
 1022MOL0     C34832   9.217   1.023   1.640 -0.0388 -0.5140  1.4513
 1022MOL0     C34833   9.356   1.031   1.711  0.3550 -0.1860 -0.8932
 1022MOL0     C34834   9.466   0.979   1.623  0.1200 -0.4299 -0.2580
 1022MOL0     C34835   9.588   0.974   1.708  0.4493 -0.3709  0.2036
 1022MOL0     C34836   9.692   0.988   1.769  0.0997 -0.5061  0.1477
 1022MOL0     C34837   8.994   0.645   1.640 -0.7370  0.0861  0.0526
 1022MOL0     C34838   8.878   0.560   1.624  0.2299 -0.5488 -0.5789
 1022MOL0     H34839   8.381   0.465   1.675 -0.7750  0.4423 -2.1242
 1022MOL0     H34840   8.178   0.301   1.653  0.4304  1.5166 -0.8766
 1022MOL0     H34841   8.027   0.149   1.559 -0.8883  0.1601 -0.3676
 1022MOL0     H34842   8.079   0.101   1.727  1.7459 -0.4411 -0.5066
 1022MOL0     H34843   8.015  -0.150   1.637  0.8593 -0.7464 -4.2101
 1022MOL0     H34844   7.949  -0.042   1.511 -0.3358  3.6623 -0.0475
 1022MOL0     H34845   7.804   0.074   1.682 -3.6664 -1.3666  2.1407
 1022MOL0     H34846   7.866  -0.024   1.810 -1.8395  0.9265  0.1775
 1022MOL0     H34847   7.696  -0.144   1.580 -1.7263 -1.5528  0.5646
 1022MOL0     H34848   7.742  -0.216   1.734  1.7628  0.4692 -0.3673
 1022MOL0     H34849   7.605   0.057   1.740 -1.5931 -0.6285 -0.9501
 1022MOL0     H34850   7.611  -0.071   1.857 -0.1024  1.2240  0.5873
 1022MOL0     H34851   7.483  -0.221   1.697 -0.6991  0.4929 -0.4596
 1022MOL0     H34852   7.476  -0.086   1.586  1.9022  0.1419 -0.5544
 1022MOL0     H34853   7.377  -0.078   1.883  0.6283 -0.5140  0.2193
 1022MOL0     H34854   7.365   0.059   1.756  0.7367 -0.9534 -0.4752
 1022MOL0     H34855   7.186  -0.048   1.649 -3.0529 -0.2890  2.0541
 1022MOL0     H34856   7.148  -0.062   1.820 -2.1736  0.3203 -0.8958
 1022MOL0     H34857   7.244  -0.268   1.507 -0.7899  0.0540 -0.6505
 1022MOL0     H34858   7.124  -0.619   1.563 -0.2694 -0.1817 -1.4140
 1022MOL0     H34859   7.289  -0.563   1.525 -0.4886 -0.6990  1.3848
 1022MOL0     H34860   7.192  -0.417   1.347 -0.7044 -0.0922 -0.8405
 1022MOL0     H34861   7.032  -0.419   1.424 -1.8171 -1.6672  1.1170
 1022MOL0     H34862   7.025  -0.688   1.346 -0.7349  0.0451 -0.1817
 1022MOL0     H34863   6.989  -0.556   1.237  1.2804 -1.0798 -1.0352
 1022MOL0     H34864   7.242  -0.723   1.300 -1.5046 -0.2058  0.3786
 1022MOL0     H34865   7.262  -0.584   1.180 -0.9784  0.1261 -1.2133
 1022MOL0     H34866   7.413  -0.777   1.163 -1.5019 -1.9018  1.1925
 1022MOL0     H34867   7.569  -0.869   1.021  1.0230  1.1229 -0.6434
 1022MOL0     H34868   7.666  -1.165   0.641 -1.8306  1.1836  1.5582
 1022MOL0     H34869   7.767  -1.266   0.433  1.0598  0.2482 -0.0763
 1022MOL0     H34870   7.887  -0.985   0.211  3.1049 -2.8228  2.2996
 1022MOL0     H34871   7.790  -1.026   0.064 -2.2611  0.6513  0.9210
 1022MOL0     H34872   8.039  -1.040   0.040 -2.4971  0.2033 -1.3894
 1022MOL0     H34873   7.964  -1.198   0.009  1.1563 -0.3655  0.3941
 1022MOL0     H34874   8.006  -1.254   0.263  1.2249 -1.5263  0.5638
 1022MOL0     H34875   8.085  -1.102   0.267 -1.8305  1.9725 -0.6301
 1022MOL0     H34876   8.227  -1.307   0.253  2.3672 -0.0774  0.2104
 1022MOL0     H34877   8.151  -1.351   0.098 -2.5852  3.0107 -1.1468
 1022MOL0     H34878   8.313  -1.096   0.132  1.3708  0.6402  0.1917
 1022MOL0     H34879   8.270  -1.178  -0.020  0.5221 -2.2516  0.4231
 1022MOL0     H34880   8.422  -1.384   0.050  1.7084  0.5185  0.1305
 1022MOL0     H34881   8.476  -1.297   0.188  4.0507 -0.1203 -1.9001
 1022MOL0     H34882   8.640  -1.256   0.027 -0.7501  0.4857  1.6067
 1022MOL0     H34883   8.507  -1.238  -0.100 -2.1724 -1.9777  0.0673
 1022MOL0     H34884   8.553  -1.030   0.138  1.0956 -2.2521  0.4681
 1022MOL0     H34885   8.458  -1.007  -0.011  0.5690  2.2180 -1.5983
 1022MOL0     H34886   7.601  -0.952   0.204  1.8653 -3.0468 -1.6634
 1022MOL0     H34887   7.484  -0.869   0.401 -1.4647 -0.3511  0.7281
 1022MOL0     H34888   7.291  -0.873   0.702  1.1450 -2.7432 -0.4490
 1022MOL0     H34889   7.118  -0.804   0.837  0.8276  0.8740 -2.9909
 1022MOL0     H34890   8.460  -0.012   1.564 -0.8504  0.1644  0.4184
 1022MOL0     H34891   8.643   0.138   1.581 -0.1403  0.5078  0.1823
 1022MOL0     H34892   8.722   0.689   1.902  1.4173  1.5237  0.9375
 1022MOL0     H34893   8.915   0.829   1.903  0.2752  0.8044 -0.8866
 1022MOL0     H34894   9.058   0.898   1.570 -1.0235  2.0875  0.7934
 1022MOL0     H34895   9.214   0.806   1.575  0.1103 -0.7918  1.9556
 1022MOL0     H34896   9.224   1.060   1.537 -0.5821 -1.0547  1.2088
 1022MOL0     H34897   9.149   1.097   1.686 -0.5446 -0.1170  0.1231
 1022MOL0     H34898   9.340   0.967   1.798 -0.2208  1.2042  0.0602
 1022MOL0     H34899   9.374   1.131   1.752 -1.3781  0.8880 -2.5407
 1022MOL0     H34900   9.445   0.878   1.587 -1.2013  0.0608 -0.8892
 1022MOL0     H34901   9.489   1.028   1.528  3.8028 -1.4359 -0.0499
 1022MOL0     H34902   9.770   1.017   1.836 -0.8906 -1.4334  1.7689
 1022MOL0     H34903   9.063   0.624   1.559 -2.2929 -0.8175 -1.0958
 1022MOL0     H34904   8.875   0.483   1.547 -0.1804 -1.8463  0.6894
 1023MOL0     O34905   2.036   5.812   9.333 -0.1930  0.9525  0.5699
 1023MOL0     C34906   2.079   5.921   9.313  0.2001 -0.6171 -0.0864
 1023MOL0     O34907   2.009   6.036   9.344  0.3132  0.3403  0.2486
 1023MOL0     C34908   1.874   6.039   9.371  0.3634 -0.1745  0.6683
 1023MOL0     C34909   1.827   6.167   9.357  0.0761 -0.1368  0.3205
 1023MOL0     C34910   1.688   6.191   9.374 -0.3633 -0.0873 -0.5720
 1023MOL0     C34911   1.602   6.087   9.400 -0.1167  0.4807  0.3497
 1023MOL0     O34912   1.469   6.119   9.428 -0.4881  0.4749  0.0386
 1023MOL0     C34913   1.430   6.104   9.561 -0.2210 -0.3420 -0.2460
 1023MOL0     C34914   1.296   6.179   9.576  0.1756 -0.3122  0.3236
 1023MOL0     C34915   1.264   6.208   9.729 -0.2244  0.7226  0.4049
 1023MOL0     C34916   1.151   6.309   9.745  0.4564 -0.0506 -0.4653
 1023MOL0     C34917   1.197   6.450   9.709  0.4187  0.3175 -0.1478
 1023MOL0     C34918   1.091   6.547   9.726 -0.1650  0.1175 -0.3019
 1023MOL0     C34919   1.147   6.689   9.677  0.0498  0.1620 -0.6404
 1023MOL0     C34920   1.235   6.780   9.759 -0.0573  0.5132 -0.0225
 1023MOL0     N34921   1.179   6.800   9.899 -0.0477 -0.1749 -1.0034
 1023MOL0     C34922   1.044   6.836   9.911  0.1368 -0.6718  0.1412
 1023MOL0     C34923   1.033   6.874  10.037 -0.8570 -0.4490  0.3649
 1023MOL0     C34924   0.908   6.924  10.111  0.0797 -0.3276 -0.1133
 1023MOL0     C34925   0.819   7.004  10.017  0.2304 -0.0489 -0.1351
 1023MOL0     C34926   0.687   7.047  10.091 -0.5418 -0.1353  0.3664
 1023MOL0     C34927   0.590   6.927  10.111  0.3369 -1.0322  0.7197
 1023MOL0     O34928   0.523   6.881   9.983  0.2464 -0.1441 -0.2689
 1023MOL0     C34929   0.389   6.919   9.963  0.1729 -0.7932  0.2090
 1023MOL0     C34930   0.333   7.043  10.009  0.6681  0.0415 -0.0512
 1023MOL0     C34931   0.193   7.073   9.988 -0.0921  0.3567 -0.0531
 1023MOL0     C34932   0.114   6.977   9.919 -0.8335 -0.4183  0.0785
 1023MOL0     C34933  -0.028   6.999   9.912  0.7629  0.4152  0.6251
 1023MOL0     O34934  -0.086   7.095   9.993  0.8786  0.4484 -0.3728
 1023MOL0     C34935  -0.219   7.116   9.980  0.1896  0.5332  0.2334
 1023MOL0     C34936  -0.255   7.245   9.953 -1.3321 -0.5542  0.2476
 1023MOL0     C34937  -0.384   7.275   9.914 -0.1770  0.5293  0.5148
 1023MOL0     C34938  -0.481   7.167   9.929  0.2511  0.0544  0.3870
 1023MOL0     O34939  -0.611   7.208   9.898 -0.1595 -0.4088 -0.1092
 1023MOL0     C34940  -0.721   7.136   9.941  0.4511  0.4396 -0.8197
 1023MOL0     C34941  -0.826   7.242   9.974  0.5458 -0.1372  0.2671
 1023MOL0     C34942  -0.933   7.197  10.087  0.3127 -0.0335 -0.3618
 1023MOL0     C34943  -0.994   7.320  10.153 -0.3845 -0.5528  0.7387
 1023MOL0     C34944  -1.070   7.415  10.067  0.9380 -0.5286  0.8655
 1023MOL0     C34945  -1.202   7.355  10.026  0.5011 -0.0121  0.3572
 1023MOL0     C34946  -1.304   7.461   9.975  0.2003  0.2640 -0.2151
 1023MOL0     C34947  -1.430   7.486  10.067  0.0751  0.0518  0.4567
 1023MOL0    Cl34948  -1.376   7.558  10.215 -0.0632  0.0278 -0.0772
 1023MOL0     C34949  -0.442   7.039   9.979 -0.3867 -0.7856 -0.4255
 1023MOL0     C34950  -0.316   7.017  10.007  0.4476  0.2561 -0.2568
 1023MOL0     O34951  -0.092   6.935   9.819 -0.3383 -0.4149  0.0503
 1023MOL0     C34952   0.177   6.857   9.879  0.7927 -0.5212  0.0950
 1023MOL0     C34953   0.310   6.828   9.888 -0.6895 -0.9485 -0.0205
 1023MOL0     N34954   1.159   6.855  10.095 -0.4361  0.4621  0.8906
 1023MOL0     N34955   1.246   6.803  10.015 -0.1307  0.8334 -0.1936
 1023MOL0     C34956   1.654   5.953   9.401 -0.0363 -0.1061  0.0594
 1023MOL0     C34957   1.789   5.932   9.384  0.0652  0.5671 -0.5283
 1023MOL0     C34958   2.212   5.945   9.259  0.3747  0.2055  0.6625
 1023MOL0     C34959   2.256   6.077   9.232  0.8574 -0.0690 -0.2015
 1023MOL0     C34960   2.373   6.093   9.162  1.1015  0.7502 -0.0660
 1023MOL0     C34961   2.451   5.992   9.117  0.0364  0.7578  0.2700
 1023MOL0     O34962   2.575   6.029   9.059  0.9593 -0.0721 -0.4547
 1023MOL0     C34963   2.675   5.930   9.046 -0.2368 -0.1335 -0.8638
 1023MOL0     C34964   2.804   5.997   9.002 -0.2946  0.0661  0.8619
 1023MOL0     C34965   2.896   6.060   9.112  0.1855 -0.3952 -0.1549
 1023MOL0     C34966   2.998   6.160   9.072 -0.0623  0.5613 -0.4688
 1023MOL0     C34967   3.119   6.102   8.995 -1.0312 -0.4962  0.4679
 1023MOL0     C34968   3.222   6.063   8.947  0.2205  0.7797  0.2338
 1023MOL0     C34969   2.410   5.862   9.139 -0.8412  0.3035  0.3449
 1023MOL0     C34970   2.296   5.834   9.210 -0.3339  0.2016 -0.7459
 1023MOL0     H34971   1.889   6.252   9.330  2.4538 -0.9522  2.7556
 1023MOL0     H34972   1.652   6.293   9.371  0.8827  0.4994  1.9284
 1023MOL0     H34973   1.500   6.152   9.630 -0.3143  0.3784 -0.6424
 1023MOL0     H34974   1.418   5.997   9.579  0.4228 -0.1857  1.2968
 1023MOL0     H34975   1.216   6.116   9.536 -1.6661  0.4107  2.6023
 1023MOL0     H34976   1.311   6.273   9.522  0.5108  0.6478  2.0182
 1023MOL0     H34977   1.359   6.240   9.772  0.6293 -1.5891  0.3899
 1023MOL0     H34978   1.242   6.106   9.763  1.5007 -0.1243 -0.8737
 1023MOL0     H34979   1.063   6.278   9.688  1.0126  0.5310 -1.6797
 1023MOL0     H34980   1.130   6.306   9.852  2.9847  0.6377  0.1123
 1023MOL0     H34981   1.237   6.450   9.607  0.7410 -0.2385 -0.0272
 1023MOL0     H34982   1.286   6.479   9.765  0.3801 -0.5263  0.3736
 1023MOL0     H34983   1.061   6.548   9.831 -0.9776 -1.4577 -0.4794
 1023MOL0     H34984   1.011   6.510   9.662  0.1193 -2.7147  0.8059
 1023MOL0     H34985   1.203   6.659   9.588  1.5439 -1.5255  0.7779
 1023MOL0     H34986   1.053   6.739   9.651  0.0166  0.4734  0.0656
 1023MOL0     H34987   1.246   6.880   9.716  0.8260  0.0466 -0.9190
 1023MOL0     H34988   1.335   6.736   9.764  0.6499  1.8067 -1.9380
 1023MOL0     H34989   0.973   6.848   9.829  0.6652 -1.2958 -0.4172
 1023MOL0     H34990   0.939   6.983  10.198 -2.5083  0.8560  0.1124
 1023MOL0     H34991   0.845   6.840  10.139 -0.9571  0.2725 -0.5629
 1023MOL0     H34992   0.785   6.955   9.926 -1.1550  0.6735 -0.0397
 1023MOL0     H34993   0.875   7.095   9.994 -3.0050  2.2514  0.3415
 1023MOL0     H34994   0.724   7.088  10.186  0.4971 -0.8034  0.2682
 1023MOL0     H34995   0.627   7.123  10.041  0.2518  1.5381  1.8672
 1023MOL0     H34996   0.505   6.947  10.177  0.1309 -1.9675  0.7543
 1023MOL0     H34997   0.649   6.848  10.158 -1.5992 -1.4772  2.5458
 1023MOL0     H34998   0.393   7.119  10.056  0.7095 -0.8442  1.3782
 1023MOL0     H34999   0.155   7.166  10.028  0.5168  0.2697  0.7532
 1023MOL0     H35000  -0.175   7.317   9.939 -0.0292 -1.6367  1.7546
 1023MOL0     H35001  -0.414   7.375   9.885  2.3048  1.3394  0.5156
 1023MOL0     H35002  -0.704   7.073  10.028 -3.2398  0.7068  0.2615
 1023MOL0     H35003  -0.768   7.070   9.867 -0.3568 -0.3399  0.3662
 1023MOL0     H35004  -0.877   7.274   9.882 -0.4728 -1.1216  0.4651
 1023MOL0     H35005  -0.787   7.340  10.005 -1.1192  1.6114 -2.6577
 1023MOL0     H35006  -0.883   7.141  10.167  0.0474  1.7491  1.1535
 1023MOL0     H35007  -1.011   7.138  10.038  0.5069  0.7875 -1.7159
 1023MOL0     H35008  -1.062   7.278  10.228 -0.7656 -2.6510 -0.7066
 1023MOL0     H35009  -0.904   7.361  10.201  0.9079 -2.3740  0.0008
 1023MOL0     H35010  -1.007   7.457   9.988 -0.8717  2.7283  0.9394
 1023MOL0     H35011  -1.091   7.501  10.132  2.1070 -0.9932  1.8736
 1023MOL0     H35012  -1.237   7.296  10.111  1.5660 -0.2045  0.6850
 1023MOL0     H35013  -1.194   7.282   9.945 -0.0777  2.2092 -1.8370
 1023MOL0     H35014  -1.261   7.561   9.959 -0.0245  0.4981  0.6161
 1023MOL0     H35015  -1.347   7.442   9.876 -3.0997  1.0568  0.9681
 1023MOL0     H35016  -1.490   7.398  10.093 -0.6301  0.3493 -0.1372
 1023MOL0     H35017  -1.500   7.547  10.010 -2.9333 -0.5122  3.1903
 1023MOL0     H35018  -0.511   6.960  10.009 -1.8799  0.3621 -0.7050
 1023MOL0     H35019  -0.290   6.917  10.040 -0.7650  0.5274  1.7149
 1023MOL0     H35020   0.110   6.784   9.836 -1.5942  0.5793  1.7532
 1023MOL0     H35021   0.361   6.741   9.848 -0.8235 -1.2966  0.5617
 1023MOL0     H35022   1.598   5.863   9.421  0.8109 -0.4213  1.1149
 1023MOL0     H35023   1.815   5.827   9.392 -1.5990  0.0336 -1.5277
 1023MOL0     H35024   2.201   6.166   9.264 -0.6487 -0.2041 -2.2657
 1023MOL0     H35025   2.423   6.186   9.138  2.3382  0.2136  0.3425
 1023MOL0     H35026   2.654   5.857   8.967  1.4618  0.2004 -1.6772
 1023MOL0     H35027   2.696   5.880   9.140 -1.3823 -2.2855 -1.6851
 1023MOL0     H35028   2.863   5.922   8.948  2.0536 -0.3293  3.7345
 1023MOL0     H35029   2.782   6.070   8.923 -1.5921 -1.9581 -0.7279
 1023MOL0     H35030   2.933   5.974   9.169 -0.4030 -0.6183 -0.0967
 1023MOL0     H35031   2.835   6.110   9.188 -0.8196  1.5659 -2.1405
 1023MOL0     H35032   2.954   6.241   9.014  1.3863 -0.2548 -2.8373
 1023MOL0     H35033   3.037   6.204   9.165 -1.7164 -1.5461  1.3205
 1023MOL0     H35034   3.318   6.025   8.918 -0.4358 -2.0823  1.4872
 1023MOL0     H35035   2.472   5.777   9.110 -2.0691 -0.9545  1.2560
 1023MOL0     H35036   2.252   5.736   9.227  1.3957 -0.2069  2.0324
 1024MOL0     O35037   0.720   1.720   1.392 -0.4125 -0.1860 -0.3023
 1024MOL0     C35038   0.779   1.611   1.409  0.3677 -0.0362 -0.5118
 1024MOL0     O35039   0.719   1.480   1.409 -0.6613 -1.2616  0.5310
 1024MOL0     C35040   0.607   1.466   1.339  0.2379 -0.0212  0.1205
 1024MOL0     C35041   0.620   1.492   1.196  0.0758  0.8530 -0.1082
 1024MOL0     C35042   0.517   1.443   1.115 -0.3303  0.1752 -0.4130
 1024MOL0     C35043   0.397   1.393   1.162 -0.7686  0.1335  0.5609
 1024MOL0     O35044   0.290   1.373   1.077 -1.2704  0.2958  0.0189
 1024MOL0     C35045   0.254   1.482   0.999  0.0527  0.3378  0.2356
 1024MOL0     C35046   0.121   1.441   0.929  0.4625 -0.2277  1.4691
 1024MOL0     C35047   0.008   1.438   1.031 -0.3468 -0.2294  0.1503
 1024MOL0     C35048  -0.110   1.349   0.979  0.5831  0.1695  0.1222
 1024MOL0     C35049  -0.219   1.338   1.084  0.5616 -0.1016 -0.1579
 1024MOL0     C35050  -0.332   1.235   1.036  0.3932 -0.2979  0.1344
 1024MOL0     C35051  -0.433   1.170   1.135 -0.4546  0.6373  0.4770
 1024MOL0     C35052  -0.539   1.272   1.170 -0.1330  0.0631  0.7269
 1024MOL0     N35053  -0.648   1.204   1.239 -1.2450  0.1006 -0.5469
 1024MOL0     C35054  -0.758   1.146   1.174 -1.5265  0.3386 -0.5716
 1024MOL0     C35055  -0.821   1.078   1.277  0.8068  0.9654 -0.8987
 1024MOL0     C35056  -0.944   1.013   1.246  0.1079 -0.0300 -0.1116
 1024MOL0     C35057  -1.066   1.100   1.232 -0.6914  0.6139  0.4254
 1024MOL0     C35058  -1.176   1.020   1.161 -0.2215  0.3279  1.2812
 1024MOL0     C35059  -1.304   1.097   1.131  0.1048 -0.8931 -0.6823
 1024MOL0     O35060  -1.394   1.013   1.056  0.2320  0.0626 -1.1977
 1024MOL0     C35061  -1.527   0.997   1.091 -0.2163  0.9075  1.0129
 1024MOL0     C35062  -1.562   0.973   1.222  0.2325 -0.0544 -0.0011
 1024MOL0     C35063  -1.692   0.953   1.259  0.6549 -0.0202  0.2932
 1024MOL0     C35064  -1.786   0.946   1.163  0.0360  0.5694 -0.7771
 1024MOL0     C35065  -1.926   0.908   1.204 -1.0043  0.2808  0.2589
 1024MOL0     O35066  -2.026   0.896   1.104  0.5979  0.4765 -0.6870
 1024MOL0     C35067  -2.147   0.895   1.165  0.2752  0.0690 -0.0437
 1024MOL0     C35068  -2.196   1.019   1.201  0.3688  0.5684 -0.0291
 1024MOL0     C35069  -2.319   1.021   1.265 -0.6714  0.2084 -0.5373
 1024MOL0     C35070  -2.401   0.904   1.280 -0.7178 -0.1809 -0.3111
 1024MOL0     O35071  -2.529   0.924   1.337  0.1263 -0.1835 -0.5839
 1024MOL0     C35072  -2.609   0.808   1.356  0.0458  0.0415 -0.3142
 1024MOL0     C35073  -2.733   0.844   1.444  0.7637 -0.4083 -0.4658
 1024MOL0     C35074  -2.851   0.752   1.428 -0.3398 -0.0037  0.4916
 1024MOL0     C35075  -2.970   0.781   1.517 -0.4532  0.7870 -0.1386
 1024MOL0     C35076  -3.100   0.736   1.456  0.2332  0.9229  0.5106
 1024MOL0     C35077  -3.205   0.729   1.570 -0.3988  0.1447  0.3065
 1024MOL0     C35078  -3.340   0.656   1.529  0.0007 -0.1065 -0.3858
 1024MOL0     C35079  -3.439   0.676   1.640  0.1900 -0.2552  0.4675
 1024MOL0    Cl35080  -3.553   0.808   1.586 -0.2660 -0.2786 -0.0022
 1024MOL0     C35081  -2.348   0.780   1.229  0.1742  1.1752  0.0448
 1024MOL0     C35082  -2.217   0.779   1.185  0.1390  0.6765 -1.0717
 1024MOL0     O35083  -1.942   0.883   1.317 -0.7452 -0.7058 -0.1226
 1024MOL0     C35084  -1.759   0.958   1.029  0.6854  1.2631 -0.5057
 1024MOL0     C35085  -1.630   0.996   0.991 -0.1455  0.0359 -1.1857
 1024MOL0     N35086  -0.747   1.084   1.396 -0.1872  0.0832  0.0124
 1024MOL0     N35087  -0.644   1.161   1.370 -0.4970  0.2204 -0.1093
 1024MOL0     C35088   0.385   1.374   1.307  0.1034 -1.0667  0.2362
 1024MOL0     C35089   0.487   1.405   1.386  0.1362 -0.5701  0.3231
 1024MOL0     C35090   0.929   1.616   1.443 -0.2969 -0.1692  0.9886
 1024MOL0     C35091   1.003   1.502   1.495 -0.0341  0.4558 -0.6114
 1024MOL0     C35092   1.135   1.521   1.527  0.0561 -0.1745 -1.0756
 1024MOL0     C35093   1.213   1.644   1.507 -0.2466  0.2915  0.0310
 1024MOL0     O35094   1.344   1.636   1.555 -0.3588 -0.4388 -0.9029
 1024MOL0     C35095   1.436   1.745   1.538  0.7410  0.6955  0.2838
 1024MOL0     C35096   1.572   1.690   1.570 -0.2867  0.0627 -0.3678
 1024MOL0     C35097   1.578   1.664   1.724 -0.3442  0.3072  0.1183
 1024MOL0     C35098   1.707   1.702   1.788 -0.0737 -0.5054 -0.0568
 1024MOL0     C35099   1.816   1.631   1.722  0.3974  0.5547  0.4814
 1024MOL0     C35100   1.906   1.569   1.667  1.0270 -0.1078 -0.7139
 1024MOL0     C35101   1.144   1.750   1.456  0.4687  0.7081  0.3662
 1024MOL0     C35102   1.009   1.734   1.417  0.4963  0.2763  0.0153
 1024MOL0     H35103   0.712   1.535   1.159  0.0949 -1.5338 -3.2745
 1024MOL0     H35104   0.528   1.448   1.007 -2.1156  1.0260 -0.5931
 1024MOL0     H35105   0.322   1.503   0.916  0.0887 -1.9360 -0.3735
 1024MOL0     H35106   0.241   1.572   1.061  1.5885  0.1007  0.9334
 1024MOL0     H35107   0.140   1.344   0.881 -1.7518 -0.7642  1.5736
 1024MOL0     H35108   0.089   1.512   0.853 -3.8815  2.1660  5.0418
 1024MOL0     H35109  -0.039   1.534   1.055  2.0741  0.9105  0.6385
 1024MOL0     H35110   0.056   1.405   1.124  4.2204 -0.3496 -1.9774
 1024MOL0     H35111  -0.148   1.383   0.883  0.3048 -0.1775  0.1096
 1024MOL0     H35112  -0.074   1.246   0.966 -2.2526 -0.7483 -1.2187
 1024MOL0     H35113  -0.263   1.436   1.103  1.8720  0.1663  1.7646
 1024MOL0     H35114  -0.170   1.307   1.177  2.6993  1.9040 -0.5017
 1024MOL0     H35115  -0.271   1.155   0.992  2.2300  1.0335  0.1344
 1024MOL0     H35116  -0.377   1.283   0.949  2.0630  2.8202  0.8194
 1024MOL0     H35117  -0.485   1.091   1.081  0.8356  1.1168 -1.5971
 1024MOL0     H35118  -0.377   1.134   1.222  0.5563 -4.8079 -2.0590
 1024MOL0     H35119  -0.566   1.308   1.070  1.0341 -3.5779 -1.0777
 1024MOL0     H35120  -0.500   1.355   1.229 -4.3202  2.7899  0.0355
 1024MOL0     H35121  -0.793   1.162   1.073 -0.2820  1.7529 -0.8045
 1024MOL0     H35122  -0.959   0.929   1.314  1.7782  1.6020  2.4376
 1024MOL0     H35123  -0.931   0.977   1.143 -2.6791  1.4715 -1.1061
 1024MOL0     H35124  -1.047   1.192   1.176  0.9845  0.2718  0.3977
 1024MOL0     H35125  -1.102   1.116   1.334  0.5817 -0.3003  1.0485
 1024MOL0     H35126  -1.142   0.983   1.064 -1.6293  1.2111  0.4242
 1024MOL0     H35127  -1.208   0.932   1.218 -2.5176 -2.4625 -3.6538
 1024MOL0     H35128  -1.279   1.182   1.067  2.7645 -1.4652 -0.5219
 1024MOL0     H35129  -1.356   1.138   1.219  2.3029 -1.1128  0.7979
 1024MOL0     H35130  -1.486   0.971   1.300  0.1457 -1.9301  0.0636
 1024MOL0     H35131  -1.719   0.967   1.363 -0.4560  0.7906 -0.0868
 1024MOL0     H35132  -2.144   1.115   1.193  1.6385 -0.1408 -0.4982
 1024MOL0     H35133  -2.356   1.117   1.303  0.7967  0.0274  1.4953
 1024MOL0     H35134  -2.549   0.729   1.402 -2.4160 -1.4944  0.4183
 1024MOL0     H35135  -2.640   0.776   1.256 -0.9943 -1.2137  0.3808
 1024MOL0     H35136  -2.774   0.942   1.419 -0.3696 -0.7089  0.1711
 1024MOL0     H35137  -2.690   0.848   1.544  1.2861 -1.3141 -0.6429
 1024MOL0     H35138  -2.811   0.650   1.428  0.0289  0.1368  0.3882
 1024MOL0     H35139  -2.880   0.775   1.325  2.0921  1.4145  0.0248
 1024MOL0     H35140  -2.955   0.720   1.606  2.1832 -1.7735 -2.1254
 1024MOL0     H35141  -2.988   0.886   1.543  0.1188  1.0982 -0.9459
 1024MOL0     H35142  -3.082   0.633   1.425  0.3295  0.5039  1.9054
 1024MOL0     H35143  -3.144   0.792   1.373  0.4709 -0.6291 -0.6955
 1024MOL0     H35144  -3.224   0.837   1.579  0.5365  0.3497 -0.0055
 1024MOL0     H35145  -3.173   0.691   1.667  0.0055 -2.6223 -0.8183
 1024MOL0     H35146  -3.380   0.692   1.433 -0.0404  0.0434 -0.3125
 1024MOL0     H35147  -3.328   0.550   1.505  3.0029 -0.4225  2.0617
 1024MOL0     H35148  -3.384   0.709   1.729  0.1944  2.4502 -0.4570
 1024MOL0     H35149  -3.488   0.579   1.653 -0.3254 -0.0913 -0.2150
 1024MOL0     H35150  -2.374   0.682   1.266  3.2463 -0.4583 -1.7581
 1024MOL0     H35151  -2.169   0.685   1.159  0.5231  0.6474 -0.2712
 1024MOL0     H35152  -1.841   0.956   0.958  0.4537 -1.1737 -0.2362
 1024MOL0     H35153  -1.613   1.027   0.888 -1.0333  0.4471 -1.2187
 1024MOL0     H35154   0.293   1.329   1.342  2.0069 -4.1183  1.7278
 1024MOL0     H35155   0.480   1.379   1.491  0.5489  1.1170  0.8109
 1024MOL0     H35156   0.951   1.406   1.499 -2.2123  1.5983 -0.0058
 1024MOL0     H35157   1.185   1.439   1.577  0.2734 -0.6229 -2.0269
 1024MOL0     H35158   1.415   1.839   1.590  1.3684  2.3001 -2.1801
 1024MOL0     H35159   1.430   1.771   1.432 -1.1709  1.9872  0.6546
 1024MOL0     H35160   1.600   1.604   1.509  3.7270 -0.1209  1.3931
 1024MOL0     H35161   1.645   1.765   1.538  0.2155  0.3341  1.3589
 1024MOL0     H35162   1.565   1.561   1.758  0.3198  0.7859  1.9645
 1024MOL0     H35163   1.496   1.720   1.771 -0.5156 -1.0862  1.5577
 1024MOL0     H35164   1.721   1.809   1.770 -3.2656  0.1918  1.0076
 1024MOL0     H35165   1.703   1.696   1.897 -1.6038 -1.8638 -0.1634
 1024MOL0     H35166   1.971   1.496   1.624 -0.4627 -2.7766  1.2476
 1024MOL0     H35167   1.188   1.846   1.430  0.1562  0.3493 -1.6694
 1024MOL0     H35168   0.955   1.817   1.371 -1.8748 -2.0618 -1.7280
  11.34135  11.34135  11.34135
